CNT in water
33548
    1C        C    1   2.283   4.524   3.294  0.1000 -0.0397  0.2235
    1C        C    2   2.164   4.521   3.214  0.2270  0.2558  0.0193
    1C        C    3   2.044   4.530   3.290  0.0691 -0.0851 -0.1903
    1C        C    4   2.767   4.503   3.304  0.1315  0.2614 -0.2642
    1C        C    5   2.646   4.494   3.229 -0.0347  0.3686 -0.0082
    1C        C    6   2.523   4.511   3.300 -0.0696 -0.0715  0.0388
    1C        C    7   2.406   4.464   3.086  0.0200  0.3077 -0.1398
    1C        C    8   2.404   4.503   3.223 -0.0512 -0.2747  0.0302
    1C        C    9   2.286   4.441   3.014 -0.2996 -0.4835  0.6176
    1C        C   10   2.165   4.485   3.076 -0.3915  0.0790  0.0573
    1C        C   11   2.054   4.408   2.867 -0.1119 -0.2286  0.1384
    1C        C   12   2.060   4.492   2.980 -0.1502  0.2343 -0.2012
    1C        C   13   3.259   4.507   3.312 -0.3824  0.0913 -0.0066
    1C        C   14   3.138   4.491   3.238 -0.2813  0.1550 -0.1826
    1C        C   15   3.014   4.504   3.308 -0.0175  0.0139  0.3110
    1C        C   16   2.893   4.447   3.100 -0.0101 -1.0363  0.2391
    1C        C   17   2.891   4.487   3.237  0.2050  0.1332 -0.0941
    1C        C   18   2.771   4.425   3.029 -0.0609 -0.3383  0.1070
    1C        C   19   2.648   4.457   3.092 -0.0079 -0.2027  0.1431
    1C        C   20   2.527   4.355   2.901  0.0241 -0.3157  0.1841
    1C        C   21   2.528   4.431   3.021  0.0187 -0.1480  0.0784
    1C        C   22   2.405   4.314   2.840 -0.0390 -0.1213  0.1794
    1C        C   23   2.284   4.365   2.893  0.0496 -0.1129  0.3749
    1C        C   24   2.165   4.229   2.724 -0.1216 -0.4080  0.6916
    1C        C   25   2.166   4.334   2.822  0.0882 -0.0050  0.2632
    1C        C   26   2.051   4.173   2.661 -0.0228 -0.3486  0.4560
    1C        C   27   3.757   4.514   3.315  0.1169  0.0192  0.3958
    1C        C   28   3.633   4.499   3.245  0.3773 -0.3702  0.0100
    1C        C   29   3.507   4.510   3.311  0.3434 -0.6912 -0.0054
    1C        C   30   3.388   4.447   3.108 -0.0076 -0.0840  0.5457
    1C        C   31   3.383   4.492   3.243 -0.0652 -0.5720  0.7053
    1C        C   32   3.265   4.418   3.041  0.3459 -0.2523 -0.0278
    1C        C   33   3.140   4.444   3.104  0.3239 -0.7052  0.1139
    1C        C   34   3.019   4.343   2.915 -0.0455  0.1028 -0.0923
    1C        C   35   3.017   4.417   3.036  0.1597 -0.7250  0.4210
    1C        C   36   2.896   4.304   2.854 -0.0552 -0.1704  0.1012
    1C        C   37   2.772   4.350   2.907 -0.0455  0.3696 -0.3380
    1C        C   38   2.651   4.209   2.744 -0.1137  0.2763 -0.4016
    1C        C   39   2.650   4.306   2.848  0.0138  0.1982 -0.3312
    1C        C   40   2.528   4.155   2.697 -0.1622 -0.3061  0.3824
    1C        C   41   2.406   4.212   2.740 -0.1785 -0.4181  0.4829
    1C        C   42   2.287   4.044   2.605 -0.3023  0.0885 -0.2461
    1C        C   43   2.285   4.163   2.685 -0.1810 -0.3709  0.4480
    1C        C   44   2.167   3.981   2.559 -0.2569 -0.2163  0.0491
    1C        C   45   2.052   4.060   2.581 -0.0140  0.2739 -0.4289
    1C        C   46   4.250   4.516   3.317  0.1451  0.0217 -0.0027
    1C        C   47   4.126   4.502   3.248  0.0662  0.5046  0.0415
    1C        C   48   4.003   4.515   3.318 -0.1030  0.3403 -0.2274
    1C        C   49   3.882   4.456   3.110  0.2670  0.3639 -0.1293
    1C        C   50   3.881   4.501   3.246 -0.1476  0.5850 -0.2020
    1C        C   51   3.758   4.424   3.046  0.0790 -0.3660  0.5777
    1C        C   52   3.634   4.455   3.110 -0.2072 -0.2989 -0.0141
    1C        C   53   3.514   4.342   2.924  0.2769 -0.3046  0.1521
    1C        C   54   3.512   4.418   3.045 -0.2831 -0.0648 -0.0051
    1C        C   55   3.391   4.301   2.865  0.1215  0.1196  0.1835
    1C        C   56   3.266   4.344   2.919 -0.0542  0.2902 -0.3628
    1C        C   57   3.145   4.204   2.754  0.1377  0.5702 -0.5606
    1C        C   58   3.143   4.300   2.859 -0.0795  0.3218 -0.3370
    1C        C   59   3.021   4.152   2.708  0.0718  0.2163  0.0049
    1C        C   60   2.896   4.208   2.749 -0.0103  0.2106 -0.2433
    1C        C   61   2.775   4.035   2.621 -0.0798  0.2448 -0.1536
    1C        C   62   2.774   4.154   2.699 -0.0473  0.3124 -0.2590
    1C        C   63   2.652   3.973   2.584 -0.0074  0.1021 -0.1445
    1C        C   64   2.530   4.036   2.618 -0.0415 -0.0203 -0.0452
    1C        C   65   2.409   3.843   2.524 -0.1873  0.2960 -0.1696
    1C        C   66   2.408   3.974   2.580 -0.1756  0.2244 -0.0089
    1C        C   67   2.288   3.775   2.494 -0.1355  0.0926  0.0866
    1C        C   68   2.166   3.848   2.504 -0.2494 -0.0244 -0.4159
    1C        C   69   2.053   3.643   2.422 -0.4893 -0.0485 -0.2614
    1C        C   70   2.050   3.777   2.463 -0.3926 -0.2163  0.3096
    1C        C   71   4.742   4.529   3.323  0.2855 -0.2995 -0.0763
    1C        C   72   4.621   4.508   3.252  0.2662  0.0792 -0.1485
    1C        C   73   4.497   4.517   3.322  0.2149 -0.2866 -0.1958
    1C        C   74   4.377   4.460   3.114 -0.0921 -0.1505 -0.0187
    1C        C   75   4.375   4.502   3.251  0.1076  0.0516 -0.0818
    1C        C   76   4.254   4.431   3.048 -0.1309  0.1197 -0.0613
    1C        C   77   4.130   4.459   3.112 -0.0061  0.2523  0.1194
    1C        C   78   4.007   4.350   2.928 -0.2912  0.4502 -0.3246
    1C        C   79   4.007   4.428   3.047  0.1825  0.5264 -0.3712
    1C        C   80   3.885   4.303   2.870 -0.2643 -0.2156  0.1471
    1C        C   81   3.762   4.346   2.927 -0.1216 -0.3193  0.5377
    1C        C   82   3.641   4.204   2.764  0.0671 -0.4665  0.0571
    1C        C   83   3.639   4.300   2.869  0.1704 -0.2970 -0.0970
    1C        C   84   3.518   4.152   2.713 -0.2428 -0.1113  0.4357
    1C        C   85   3.394   4.204   2.760 -0.2838 -0.3407  0.5903
    1C        C   86   3.270   4.035   2.629 -0.0167 -0.1993 -0.1928
    1C        C   87   3.271   4.151   2.712 -0.0504 -0.2926 -0.0657
    1C        C   88   3.146   3.974   2.593 -0.2799  0.1618  0.0896
    1C        C   89   3.022   4.034   2.627 -0.3095 -0.1614  0.5501
    1C        C   90   2.900   3.841   2.534 -0.0563 -0.0732  0.0752
    1C        C   91   2.899   3.972   2.590 -0.1958 -0.0251 -0.0502
    1C        C   92   2.777   3.775   2.504 -0.1389  0.3350 -0.4743
    1C        C   93   2.654   3.843   2.525 -0.2027  0.1524 -0.2573
    1C        C   94   2.532   3.635   2.472 -0.1469  0.0798  0.4622
    1C        C   95   2.531   3.774   2.501 -0.2429  0.2476 -0.3129
    1C        C   96   2.410   3.562   2.462 -0.0806  0.0193 -0.0176
    1C        C   97   2.288   3.635   2.467 -0.0196  0.1414 -0.1855
    1C        C   98   2.169   3.420   2.446  0.0207  0.4331  1.1608
    1C        C   99   2.168   3.563   2.442 -0.0709  0.4115 -0.7462
    1C        C  100   2.050   3.344   2.460  0.1481 -0.0988 -0.3821
    1C        C  101   4.973   4.577   3.325  0.2046  0.0084 -0.3340
    1C        C  102   4.866   4.476   3.114  0.3856 -0.1216 -0.2278
    1C        C  103   4.864   4.526   3.249  0.2171 -0.2288 -0.1919
    1C        C  104   4.745   4.437   3.049  0.2623 -0.6752  0.3249
    1C        C  105   4.623   4.463   3.117  0.1530 -0.2644 -0.0288
    1C        C  106   4.501   4.350   2.934 -0.0762 -0.0442  0.1577
    1C        C  107   4.501   4.429   3.052  0.0070  0.0668  0.0785
    1C        C  108   4.379   4.306   2.876 -0.0687 -0.1510  0.2291
    1C        C  109   4.255   4.352   2.929 -0.1168 -0.1785  0.1399
    1C        C  110   4.135   4.208   2.771 -0.1587  0.2923 -0.0478
    1C        C  111   4.132   4.307   2.874 -0.2170  0.1198  0.1163
    1C        C  112   4.013   4.152   2.722  0.1282 -0.1535 -0.2569
    1C        C  113   3.889   4.205   2.767  0.2671  0.0145 -0.0628
    1C        C  114   3.768   4.034   2.636 -0.1987  0.0362 -0.0449
    1C        C  115   3.766   4.150   2.719  0.2499  0.1081 -0.1299
    1C        C  116   3.645   3.973   2.598 -0.0925 -0.1141 -0.1487
    1C        C  117   3.521   4.035   2.631  0.1267  0.4371 -0.3464
    1C        C  118   3.396   3.842   2.544 -0.3689  0.0759  0.0672
    1C        C  119   3.396   3.974   2.599  0.1841  0.0542  0.1290
    1C        C  120   3.273   3.774   2.522 -0.1182 -0.2489 -0.3185
    1C        C  121   3.149   3.841   2.540  0.1386  0.0212  0.4607
    1C        C  122   3.025   3.635   2.486 -0.2511  0.2577 -0.0767
    1C        C  123   3.025   3.775   2.514  0.1037  0.2111  0.1581
    1C        C  124   2.902   3.564   2.474 -0.0885 -0.0108 -0.1522
    1C        C  125   2.779   3.635   2.474  0.1556  0.4159 -0.8133
    1C        C  126   2.655   3.423   2.476 -0.0508  0.4830  0.4205
    1C        C  127   2.655   3.565   2.470  0.0799  0.4788  0.3240
    1C        C  128   2.533   3.350   2.483  0.0358  0.2827 -0.0122
    1C        C  129   2.410   3.420   2.467 -0.0767  0.0039 -0.3889
    1C        C  130   2.289   3.207   2.500 -0.0433 -0.0998 -0.3184
    1C        C  131   2.290   3.345   2.465 -0.0515 -0.0511 -0.1501
    1C        C  132   2.167   3.136   2.522  0.0751 -0.2496 -0.0943
    1C        C  133   2.049   3.210   2.497  0.2255 -0.1312 -0.4868
    1C        C  134   4.982   4.374   2.924  0.4566 -0.4934  0.1214
    1C        C  135   4.981   4.458   3.034  0.3138  0.1910 -0.3996
    1C        C  136   4.865   4.320   2.865  0.2301 -0.2275  0.3296
    1C        C  137   4.744   4.358   2.931  0.0932 -0.6659  0.3261
    1C        C  138   4.626   4.206   2.776  0.0669  0.4188 -0.3680
    1C        C  139   4.624   4.308   2.875 -0.0725 -0.2470  0.3151
    1C        C  140   4.504   4.146   2.734  0.0486  0.1014  0.1336
    1C        C  141   4.382   4.204   2.776 -0.0338 -0.1145  0.1977
    1C        C  142   4.260   4.031   2.651  0.3232  0.1328  0.2096
    1C        C  143   4.259   4.151   2.728 -0.1439  0.1183  0.2273
    1C        C  144   4.138   3.970   2.611  0.4186 -0.0325  0.1592
    1C        C  145   4.014   4.034   2.642  0.2011 -0.4747  0.2100
    1C        C  146   3.893   3.840   2.547  0.1981  0.2375 -0.0302
    1C        C  147   3.892   3.971   2.604 -0.0941  0.2641 -0.0960
    1C        C  148   3.768   3.773   2.526  0.2680  0.2403 -0.4985
    1C        C  149   3.644   3.840   2.544  0.1262 -0.1066 -0.1707
    1C        C  150   3.522   3.632   2.501  0.2972  0.3467  0.2683
    1C        C  151   3.519   3.773   2.525 -0.1865  0.3490  0.2243
    1C        C  152   3.397   3.564   2.494  0.5125 -0.0483  0.1718
    1C        C  153   3.272   3.633   2.496  0.3459 -0.3483  0.2002
    1C        C  154   3.150   3.420   2.491 -0.1774  0.3710 -0.4069
    1C        C  155   3.148   3.563   2.486 -0.1418  0.4252  0.6471
    1C        C  156   3.025   3.352   2.498  0.0984 -0.1410 -0.4522
    1C        C  157   2.902   3.421   2.482  0.1713 -0.0395 -0.5769
    1C        C  158   2.779   3.214   2.527 -0.0409  0.4195 -0.0103
    1C        C  159   2.778   3.352   2.491 -0.0279  0.3446 -0.3214
    1C        C  160   2.656   3.146   2.549  0.0578  0.3312  0.2767
    1C        C  161   2.534   3.212   2.518 -0.0041  0.4821  0.8207
    1C        C  162   2.410   3.018   2.602 -0.1599  0.0819 -0.1318
    1C        C  163   2.411   3.143   2.534  0.0145  0.3098  0.2824
    1C        C  164   2.288   2.956   2.639 -0.0778  0.0487  0.0968
    1C        C  165   2.167   3.006   2.583 -0.2122 -0.0900  0.2565
    1C        C  166   2.061   2.813   2.679 -0.4881  0.3441  0.2440
    1C        C  167   2.062   2.910   2.578  0.0241 -0.3239 -0.4022
    1C        C  168   4.977   4.187   2.679  0.3247  0.1651  0.2355
    1C        C  169   4.866   4.221   2.760  0.1438  0.1229  0.0038
    1C        C  170   4.749   4.030   2.653  0.1988  0.2719 -0.1582
    1C        C  171   4.748   4.151   2.728  0.1259  0.0877  0.1466
    1C        C  172   4.628   3.962   2.622  0.2748 -0.2474  0.6349
    1C        C  173   4.506   4.025   2.658  0.2955 -0.0789  0.4239
    1C        C  174   4.384   3.837   2.557  0.3537  0.3689 -0.4122
    1C        C  175   4.383   3.965   2.618  0.2950  0.1135  0.1333
    1C        C  176   4.261   3.770   2.532  0.2585  0.5303 -0.3833
    1C        C  177   4.138   3.839   2.553  0.0548  0.1021 -0.1536
    1C        C  178   4.014   3.630   2.501  0.0953  0.0156  0.1145
    1C        C  179   4.016   3.770   2.528  0.0793  0.0725 -0.1970
    1C        C  180   3.890   3.560   2.496 -0.2408  0.5998  0.1581
    1C        C  181   3.767   3.632   2.503 -0.5058  0.1859 -0.1742
    1C        C  182   3.642   3.417   2.500  0.2801 -0.4107  0.1514
    1C        C  183   3.645   3.559   2.496 -0.1586 -0.4066 -0.1026
    1C        C  184   3.517   3.348   2.507 -0.3395  0.7030  0.2173
    1C        C  185   3.394   3.421   2.497 -0.8013 -0.0327  0.3699
    1C        C  186   3.270   3.209   2.540  0.2596 -0.2092  0.6633
    1C        C  187   3.272   3.348   2.505 -0.6445 -0.3382  0.0617
    1C        C  188   3.145   3.143   2.560 -0.2528  0.5742  0.1111
    1C        C  189   3.024   3.214   2.536 -0.5899 -0.0147  0.0129
    1C        C  190   2.899   3.017   2.618  0.1556 -0.2243  0.0568
    1C        C  191   2.901   3.145   2.555 -0.4250 -0.4407 -0.4195
    1C        C  192   2.775   2.956   2.653 -0.0987  0.1416 -0.1848
    1C        C  193   2.653   3.017   2.610 -0.1683  0.3200  0.2518
    1C        C  194   2.529   2.842   2.731 -0.1438  0.0872 -0.1552
    1C        C  195   2.530   2.955   2.644 -0.1542 -0.0158 -0.2906
    1C        C  196   2.407   2.791   2.784 -0.0779  0.0769 -0.0133
    1C        C  197   2.289   2.846   2.730 -0.1271 -0.1704 -0.1615
    1C        C  198   2.165   2.699   2.884  0.3065  0.0185 -0.1708
    1C        C  199   2.168   2.780   2.766 -0.1876 -0.1362 -0.2984
    1C        C  200   2.049   2.682   2.963  0.0507 -1.0686 -0.7510
    1C        C  201   4.976   4.072   2.599  0.0501 -0.0549  0.5530
    1C        C  202   4.872   3.845   2.542  0.3930 -0.2238  0.2127
    1C        C  203   4.869   3.977   2.597  0.0118  0.0006 -0.3193
    1C        C  204   4.751   3.771   2.522  0.1714  0.3060 -0.4853
    1C        C  205   4.629   3.835   2.558  0.1811  0.0289  0.0624
    1C        C  206   4.507   3.630   2.502 -0.2090 -0.0582  0.0751
    1C        C  207   4.506   3.769   2.533  0.2186 -0.0521  0.0673
    1C        C  208   4.384   3.558   2.494 -0.2245 -0.0219 -0.0412
    1C        C  209   4.261   3.630   2.504  0.0543  0.4559 -0.0238
    1C        C  210   4.137   3.416   2.495 -0.3303  0.1346  0.5018
    1C        C  211   4.138   3.559   2.496  0.1871  0.1352  0.6480
    1C        C  212   4.014   3.345   2.507 -0.2140 -0.1727 -0.1108
    1C        C  213   3.892   3.417   2.496  0.2447  0.6001 -0.2650
    1C        C  214   3.766   3.209   2.537 -0.4904  0.0842  0.1006
    1C        C  215   3.767   3.348   2.503  0.5505  0.0691  0.0552
    1C        C  216   3.643   3.139   2.561 -0.3339 -0.2148  0.0200
    1C        C  217   3.521   3.209   2.539  0.1711  0.6316 -0.1528
    1C        C  218   3.392   3.014   2.620 -0.6202  0.0421  0.0238
    1C        C  219   3.395   3.144   2.562  0.5062  0.1017  0.2015
    1C        C  220   3.270   2.951   2.659 -0.3222 -0.3435  0.3515
    1C        C  221   3.148   3.015   2.622  0.2209  0.5732  0.0982
    1C        C  222   3.018   2.840   2.739 -0.5533  0.1025 -0.0062
    1C        C  223   3.022   2.955   2.654  0.3757  0.4356  0.4649
    1C        C  224   2.896   2.787   2.789 -0.3947  0.0614  0.3566
    1C        C  225   2.774   2.840   2.737 -0.1299  0.1427 -0.1826
    1C        C  226   2.649   2.695   2.891 -0.4024  0.6121  0.2965
    1C        C  227   2.650   2.789   2.785 -0.1241  0.4265  0.1315
    1C        C  228   2.527   2.656   2.953 -0.2617  0.3975  0.4451
    1C        C  229   2.406   2.697   2.891 -0.1649  0.3485  0.2279
    1C        C  230   2.282   2.586   3.075  0.0480  0.1656  0.4344
    1C        C  231   2.284   2.653   2.949  0.0191 -0.0337  0.3263
    1C        C  232   2.162   2.561   3.147 -0.1163  0.0860  0.1322
    1C        C  233   2.046   2.613   3.084 -0.0925 -0.5677 -0.4620
    1C        C  234   4.988   3.635   2.477  0.0979 -0.5520  0.3762
    1C        C  235   4.989   3.768   2.518  0.2345 -0.2481 -0.5687
    1C        C  236   4.870   3.558   2.471 -0.2123 -0.0459 -0.1813
    1C        C  237   4.750   3.633   2.488 -0.0484  0.1581  0.1051
    1C        C  238   4.629   3.416   2.491  0.0551  0.1609  0.0608
    1C        C  239   4.629   3.558   2.488 -0.0579  0.1660  0.2320
    1C        C  240   4.507   3.344   2.505 -0.0162  0.2883  0.1174
    1C        C  241   4.384   3.416   2.497 -0.2041 -0.0150  0.2528
    1C        C  242   4.262   3.208   2.541 -0.0026  0.2344  0.5513
    1C        C  243   4.261   3.345   2.503 -0.3031  0.1670  0.3191
    1C        C  244   4.138   3.141   2.564  0.1731 -0.2460  0.1261
    1C        C  245   4.013   3.207   2.543  0.2399 -0.1256  0.0984
    1C        C  246   3.892   3.010   2.620  0.2357  0.4999 -0.3533
    1C        C  247   3.888   3.141   2.564 -0.1631  0.5026 -0.3232
    1C        C  248   3.767   2.951   2.655  0.5383 -0.1567 -0.3595
    1C        C  249   3.641   3.011   2.623  0.4103 -0.3023 -0.1217
    1C        C  250   3.518   2.839   2.745  0.1615  0.7552 -0.3439
    1C        C  251   3.515   2.953   2.660 -0.1479  0.7402 -0.3531
    1C        C  252   3.393   2.789   2.791  0.6663  0.0307  0.2901
    1C        C  253   3.266   2.837   2.744  0.4652 -0.1722  0.6244
    1C        C  254   3.143   2.692   2.897  0.1892  0.5175 -0.3394
    1C        C  255   3.141   2.786   2.790 -0.1979  0.8118 -0.0743
    1C        C  256   3.019   2.653   2.954  0.4280  0.2731  0.0137
    1C        C  257   2.894   2.693   2.896  0.2176 -0.2407  0.1032
    1C        C  258   2.772   2.586   3.079 -0.0430  0.1159 -0.4865
    1C        C  259   2.770   2.653   2.953 -0.1680  0.0324 -0.5296
    1C        C  260   2.648   2.561   3.145  0.1890 -0.2906 -0.1999
    1C        C  261   2.525   2.589   3.079 -0.0138  0.4158  0.4587
    1C        C  262   2.402   2.512   3.279  0.0685 -0.2186  0.3040
    1C        C  263   2.403   2.557   3.144  0.0437  0.0844  0.4075
    1C        C  264   2.282   2.492   3.352 -0.0378  0.0808  0.2087
    1C        C  265   2.160   2.503   3.278  0.0288 -0.0350  0.0813
    1C        C  266   2.049   2.416   3.482 -0.3479 -0.1900  0.0817
    1C        C  267   2.048   2.443   3.343 -0.1790  0.4844  0.2079
    1C        C  268   4.978   3.327   2.447 -0.3335 -0.5415 -0.1608
    1C        C  269   4.868   3.414   2.472 -0.0513 -0.0533 -0.6050
    1C        C  270   4.750   3.203   2.533 -0.1861  0.1566  0.2211
    1C        C  271   4.749   3.341   2.496 -0.0436 -0.0414 -0.5287
    1C        C  272   4.629   3.135   2.560 -0.2331  0.2357  0.2025
    1C        C  273   4.508   3.206   2.540 -0.1928  0.4048  0.5733
    1C        C  274   4.384   3.009   2.624  0.1695 -0.0259  0.1047
    1C        C  275   4.385   3.138   2.563 -0.0533  0.0788  0.3287
    1C        C  276   4.260   2.949   2.660 -0.0124  0.5646  0.4811
    1C        C  277   4.137   3.012   2.624 -0.3410 -0.1019  0.4261
    1C        C  278   4.012   2.835   2.745  0.1957 -0.4351  0.0023
    1C        C  279   4.015   2.949   2.659 -0.3165 -0.2319  0.2575
    1C        C  280   3.887   2.785   2.792 -0.3453  0.2965 -0.6683
    1C        C  281   3.764   2.838   2.742 -0.6815  0.0918 -0.0616
    1C        C  282   3.637   2.696   2.905  0.4336 -0.0905  0.3327
    1C        C  283   3.642   2.784   2.792 -0.4520 -0.1083  0.2752
    1C        C  284   3.512   2.657   2.960 -0.1168  0.6721 -0.3560
    1C        C  285   3.389   2.694   2.897 -0.6455  0.0755  0.3000
    1C        C  286   3.265   2.584   3.082  0.5028  0.2804  0.7020
    1C        C  287   3.266   2.649   2.955 -0.4468 -0.5189  0.2675
    1C        C  288   3.140   2.558   3.146 -0.0159  0.6373 -0.1438
    1C        C  289   3.017   2.589   3.081 -0.1983  0.4708  0.1073
    1C        C  290   2.893   2.512   3.282  0.3376  0.0729 -0.1489
    1C        C  291   2.894   2.558   3.147 -0.2366 -0.0186 -0.1897
    1C        C  292   2.769   2.493   3.350  0.2044  0.0542 -0.3939
    1C        C  293   2.647   2.514   3.280  0.0258 -0.0427 -0.1150
    1C        C  294   2.524   2.476   3.490  0.0533 -0.4923  0.0654
    1C        C  295   2.524   2.499   3.350  0.1770 -0.2640  0.1055
    1C        C  296   2.402   2.469   3.564  0.0204  0.0870  0.0719
    1C        C  297   2.279   2.474   3.494 -0.0553  0.0109  0.1983
    1C        C  298   2.157   2.460   3.708  0.4122  0.7801 -0.1962
    1C        C  299   2.158   2.447   3.565 -0.0924 -0.6152 -0.0881
    1C        C  300   2.039   2.480   3.783  0.4366 -0.0350  0.0698
    1C        C  301   4.985   3.195   2.493  0.1959 -0.0938  1.0937
    1C        C  302   4.874   3.004   2.618  0.1643 -0.2520 -0.2598
    1C        C  303   4.871   3.129   2.548 -0.3505 -0.1857 -0.1240
    1C        C  304   4.751   2.941   2.655  0.1100 -0.1075 -0.1950
    1C        C  305   4.629   3.006   2.620  0.2013 -0.0600 -0.4308
    1C        C  306   4.505   2.831   2.743 -0.0574  0.1635  0.1015
    1C        C  307   4.506   2.944   2.655  0.2525  0.0820  0.0049
    1C        C  308   4.383   2.779   2.793 -0.0557  0.3284  0.2764
    1C        C  309   4.261   2.836   2.747 -0.0140  0.4410  0.3163
    1C        C  310   4.135   2.690   2.900 -0.4549 -0.3309  0.0999
    1C        C  311   4.137   2.784   2.794  0.2106 -0.1267  0.2922
    1C        C  312   4.011   2.651   2.960 -0.4344 -0.4530  0.0551
    1C        C  313   3.888   2.692   2.900  0.1622  0.3269 -0.6483
    1C        C  314   3.761   2.588   3.084 -0.4589 -0.1726 -0.0845
    1C        C  315   3.763   2.655   2.958  0.5726 -0.2457 -0.1157
    1C        C  316   3.639   2.560   3.152 -0.2190 -0.0233  0.4023
    1C        C  317   3.516   2.588   3.085  0.3747  0.3779 -0.5348
    1C        C  318   3.388   2.514   3.282 -0.3264  0.0894  0.1473
    1C        C  319   3.390   2.561   3.147  0.7539  0.3898  0.2597
    1C        C  320   3.265   2.499   3.353 -0.1642  0.0081  0.4149
    1C        C  321   3.142   2.515   3.283  0.2626 -0.0525 -0.3591
    1C        C  322   3.015   2.475   3.491 -0.2725 -0.4597 -0.2468
    1C        C  323   3.017   2.498   3.350  0.3467  0.2142 -0.1347
    1C        C  324   2.892   2.469   3.563 -0.1607 -0.4672 -0.0547
    1C        C  325   2.769   2.471   3.491  0.0560 -0.0550 -0.4107
    1C        C  326   2.645   2.477   3.705 -0.1847  0.2173 -0.1694
    1C        C  327   2.646   2.471   3.563  0.2035 -0.0514 -0.1575
    1C        C  328   2.523   2.487   3.777  0.0661  0.0252  0.2904
    1C        C  329   2.400   2.474   3.706  0.1708  0.2974  0.0654
    1C        C  330   2.279   2.508   3.919  0.2604 -0.4646  0.3599
    1C        C  331   2.280   2.474   3.781  0.2513  0.2172  0.1925
    1C        C  332   2.157   2.529   3.991  0.3068  0.2081  0.2417
    1C        C  333   2.038   2.491   3.923  0.3924  0.2948  0.0448
    1C        C  334   4.985   2.822   2.743 -0.0868  0.2773  0.6864
    1C        C  335   4.989   2.939   2.668  0.0815  0.0773  0.3846
    1C        C  336   4.865   2.763   2.789 -0.0737 -0.1163  0.2216
    1C        C  337   4.747   2.825   2.739  0.0815  0.3027  0.3729
    1C        C  338   4.625   2.685   2.903 -0.1336 -0.3433 -0.4125
    1C        C  339   4.626   2.777   2.795 -0.0275  0.1398  0.0004
    1C        C  340   4.502   2.644   2.962 -0.1395 -0.4347 -0.4877
    1C        C  341   4.381   2.688   2.903 -0.2059 -0.4393 -0.3482
    1C        C  342   4.258   2.582   3.087  0.1537  0.0143 -0.1550
    1C        C  343   4.257   2.649   2.961 -0.2364 -0.2624 -0.2988
    1C        C  344   4.133   2.555   3.151  0.2969 -0.4983 -0.0915
    1C        C  345   4.009   2.585   3.087  0.2016  0.0183  0.3173
    1C        C  346   3.886   2.519   3.288  0.5212 -0.3150 -0.5749
    1C        C  347   3.884   2.561   3.151 -0.2050  0.0369 -0.4592
    1C        C  348   3.762   2.502   3.355  0.7902 -0.2358 -0.0462
    1C        C  349   3.636   2.517   3.289  0.5640  0.0020  0.4340
    1C        C  350   3.512   2.484   3.496  0.2199  0.5805 -0.4805
    1C        C  351   3.511   2.498   3.354  0.0642 -0.1087 -0.5484
    1C        C  352   3.387   2.481   3.564  0.4543  0.1797 -0.0575
    1C        C  353   3.263   2.481   3.494  0.1793  0.0618  0.4307
    1C        C  354   3.139   2.482   3.706  0.1418 -0.4792 -0.3070
    1C        C  355   3.138   2.473   3.563 -0.2254 -0.2561 -0.3166
    1C        C  356   3.015   2.492   3.774  0.1413 -0.4702 -0.3158
    1C        C  357   2.891   2.478   3.705 -0.0403 -0.0427 -0.0769
    1C        C  358   2.768   2.528   3.913 -0.0324 -0.1541 -0.1711
    1C        C  359   2.768   2.486   3.777 -0.1316  0.0801 -0.2436
    1C        C  360   2.645   2.556   3.980  0.1238 -0.4362  0.2328
    1C        C  361   2.522   2.525   3.914 -0.0038 -0.1601  0.3425
    1C        C  362   2.400   2.627   4.100  0.1469 -0.1632  0.5770
    1C        C  363   2.400   2.546   3.983  0.0668  0.1148  0.3841
    1C        C  364   2.278   2.668   4.160  0.1010 -0.2427  0.5359
    1C        C  365   2.157   2.613   4.107  0.1193 -0.4635  0.7307
    1C        C  366   2.034   2.779   4.246 -0.1283 -0.3055  0.3319
    1C        C  367   2.040   2.666   4.165 -0.0671 -0.0559 -0.0130
    1C        C  368   4.978   2.591   2.939  0.1181 -0.0907  0.3100
    1C        C  369   4.865   2.662   2.891  0.1932  0.1449  0.4781
    1C        C  370   4.744   2.563   3.084 -0.0364 -0.0875 -0.2706
    1C        C  371   4.744   2.631   2.958 -0.1963 -0.6591 -0.5796
    1C        C  372   4.622   2.541   3.154 -0.1117  0.3005 -0.2778
    1C        C  373   4.501   2.576   3.087 -0.2109 -0.2150 -0.3716
    1C        C  374   4.377   2.507   3.291  0.1241 -0.1176  0.0598
    1C        C  375   4.379   2.550   3.155  0.0029 -0.1062  0.0594
    1C        C  376   4.253   2.492   3.360  0.0297 -0.1820 -0.1238
    1C        C  377   4.132   2.513   3.288 -0.0433 -0.6092 -0.1265
    1C        C  378   4.005   2.484   3.501  0.3096  0.0889  0.2272
    1C        C  379   4.009   2.503   3.359  0.1018 -0.2432  0.1737
    1C        C  380   3.881   2.485   3.570 -0.0561  0.2377 -0.4245
    1C        C  381   3.758   2.484   3.497 -0.2772 -0.0674 -0.0477
    1C        C  382   3.632   2.487   3.711  0.1228  0.5429  0.1442
    1C        C  383   3.635   2.478   3.569 -0.1737  0.2194  0.1569
    1C        C  384   3.507   2.498   3.780 -0.1791  0.5198 -0.3913
    1C        C  385   3.385   2.487   3.707 -0.3416  0.0414 -0.0587
    1C        C  386   3.259   2.540   3.914 -0.0526 -0.2867  0.1837
    1C        C  387   3.262   2.496   3.778 -0.1898 -0.6491  0.2971
    1C        C  388   3.135   2.571   3.976 -0.3104 -0.3058 -0.3091
    1C        C  389   3.013   2.539   3.909 -0.2897 -0.0615 -0.4625
    1C        C  390   2.888   2.642   4.096  0.1040 -0.2885  0.0330
    1C        C  391   2.890   2.565   3.976 -0.0928 -0.1365 -0.0704
    1C        C  392   2.764   2.686   4.152  0.1848  0.0207 -0.0339
    1C        C  393   2.643   2.634   4.099  0.2553 -0.3452  0.1728
    1C        C  394   2.518   2.784   4.249  0.2589  0.1959 -0.2262
    1C        C  395   2.520   2.678   4.155  0.3256 -0.1360  0.1565
    1C        C  396   2.395   2.840   4.293  0.2232  0.0460 -0.1421
    1C        C  397   2.275   2.775   4.257  0.1484 -0.1105  0.3861
    1C        C  398   2.150   2.953   4.382  0.0353  0.2541 -0.6103
    1C        C  399   2.153   2.836   4.298 -0.0125  0.0493 -0.3255
    1C        C  400   2.034   3.010   4.438  0.2011 -0.1001  0.1064
    1C        C  401   4.974   2.520   3.060 -0.8810 -0.3628  0.1233
    1C        C  402   4.862   2.487   3.289  0.5035  0.2402  0.6816
    1C        C  403   4.864   2.523   3.150 -0.4234  0.2629  0.6718
    1C        C  404   4.740   2.475   3.361  0.0152  0.6216 -0.0635
    1C        C  405   4.620   2.496   3.288  0.0746  0.5506 -0.1899
    1C        C  406   4.497   2.468   3.502 -0.0850 -0.7566 -0.1444
    1C        C  407   4.498   2.484   3.361  0.2048 -0.0978 -0.0728
    1C        C  408   4.374   2.471   3.574 -0.0015 -0.5829 -0.0033
    1C        C  409   4.251   2.475   3.501  0.0799 -0.1240 -0.1145
    1C        C  410   4.127   2.484   3.715 -0.0943  0.0506  0.2988
    1C        C  411   4.128   2.476   3.573  0.3052  0.4514  0.2780
    1C        C  412   4.004   2.501   3.785 -0.1347 -0.2797  0.3097
    1C        C  413   3.881   2.492   3.713  0.2528  0.2858 -0.4288
    1C        C  414   3.755   2.546   3.916 -0.4433  0.1119 -0.1614
    1C        C  415   3.756   2.503   3.780  0.3593  0.3386 -0.2360
    1C        C  416   3.631   2.575   3.980 -0.1707  0.4532  0.2215
    1C        C  417   3.508   2.541   3.916  0.2092 -0.2264 -0.1568
    1C        C  418   3.382   2.646   4.099 -0.2220  0.4537 -0.5909
    1C        C  419   3.383   2.570   3.978  0.1668  0.2578 -0.4715
    1C        C  420   3.258   2.693   4.151 -0.1385  0.3794 -0.3262
    1C        C  421   3.135   2.648   4.096  0.1083 -0.4312 -0.2276
    1C        C  422   3.009   2.795   4.249  0.0322 -0.5873  0.1625
    1C        C  423   3.010   2.691   4.151  0.1894 -0.2978 -0.1510
    1C        C  424   2.885   2.849   4.293  0.2942  0.1019  0.0573
    1C        C  425   2.763   2.791   4.249  0.3905 -0.2405  0.2516
    1C        C  426   2.638   2.964   4.371 -0.0403 -0.2731  0.1728
    1C        C  427   2.638   2.845   4.294  0.3461 -0.2397  0.1238
    1C        C  428   2.515   3.028   4.402  0.0743  0.2273 -0.4082
    1C        C  429   2.394   2.962   4.366  0.0890  0.2480 -0.4883
    1C        C  430   2.273   3.155   4.461  0.2181  0.1736 -0.4971
    1C        C  431   2.272   3.024   4.405  0.0575  0.1701 -0.4776
    1C        C  432   2.153   3.218   4.504  0.1747 -0.1043 -0.2244
    1C        C  433   2.039   3.133   4.503  0.2005 -0.1422  0.1832
    1C        C  434   4.975   2.476   3.509  0.0849  0.1495  0.2763
    1C        C  435   4.978   2.488   3.370  0.8056 -0.1319  0.2649
    1C        C  436   4.857   2.454   3.583  0.0433 -0.2746  0.0957
    1C        C  437   4.738   2.458   3.503  0.1953  0.0658 -0.1251
    1C        C  438   4.619   2.471   3.719  0.4587 -0.1933 -0.3462
    1C        C  439   4.617   2.460   3.577  0.0618 -0.3761 -0.3305
    1C        C  440   4.496   2.492   3.786  0.3865  0.0073 -0.5321
    1C        C  441   4.373   2.484   3.716  0.1109 -0.2589 -0.0316
    1C        C  442   4.249   2.544   3.921  0.0718  0.4025 -0.2238
    1C        C  443   4.249   2.496   3.786  0.1167 -0.1234 -0.0367
    1C        C  444   4.126   2.575   3.985  0.0219  0.2771 -0.2515
    1C        C  445   4.002   2.547   3.920 -0.1828  0.4506  0.0626
    1C        C  446   3.877   2.650   4.105  0.0595  0.0434 -0.2170
    1C        C  447   3.877   2.573   3.985 -0.4067 -0.0020 -0.1851
    1C        C  448   3.752   2.695   4.156  0.0737 -0.1422 -0.0198
    1C        C  449   3.628   2.651   4.101 -0.2680  0.6686  0.0885
    1C        C  450   3.503   2.798   4.254  0.2534  0.2529  0.0371
    1C        C  451   3.504   2.694   4.157 -0.4378  0.2385  0.0443
    1C        C  452   3.377   2.852   4.295 -0.0861 -0.2635 -0.3129
    1C        C  453   3.254   2.798   4.248 -0.3666  0.3090 -0.2544
    1C        C  454   3.130   2.973   4.371  0.2797  0.1993  0.0404
    1C        C  455   3.131   2.854   4.293 -0.3045  0.1184  0.1511
    1C        C  456   3.005   3.032   4.407  0.0902 -0.2686  0.1465
    1C        C  457   2.882   2.968   4.372 -0.1005  0.2799 -0.2174
    1C        C  458   2.759   3.163   4.460  0.3488  0.0117  0.0571
    1C        C  459   2.759   3.031   4.406 -0.1649  0.0135  0.0519
    1C        C  460   2.636   3.231   4.479  0.3382  0.1033 -0.3363
    1C        C  461   2.515   3.160   4.457  0.2977  0.1039 -0.1147
    1C        C  462   2.391   3.367   4.512  0.0475 -0.0723  0.2021
    1C        C  463   2.393   3.228   4.481  0.2522 -0.0271  0.0166
    1C        C  464   2.268   3.437   4.527  0.0638  0.0151 -0.0682
    1C        C  465   2.149   3.359   4.530  0.1679 -0.1409 -0.0425
    1C        C  466   2.029   3.575   4.560 -0.2750 -0.3095 -0.1956
    1C        C  467   2.031   3.435   4.545 -0.0006 -0.2428 -0.8141
    1C        C  468   4.975   2.453   3.808 -0.4317 -0.2181  0.3559
    1C        C  469   4.860   2.460   3.726 -0.2505 -0.1172  0.1021
    1C        C  470   4.739   2.534   3.928  0.1742  0.2688  0.3373
    1C        C  471   4.738   2.482   3.795 -0.0431  0.0358  0.4240
    1C        C  472   4.616   2.573   3.988 -0.1376 -0.1667 -0.0111
    1C        C  473   4.495   2.541   3.920  0.0979  0.1114 -0.5693
    1C        C  474   4.371   2.651   4.103 -0.1642 -0.2390 -0.1404
    1C        C  475   4.373   2.572   3.985  0.2061  0.0354 -0.3216
    1C        C  476   4.249   2.696   4.161 -0.1283 -0.1815 -0.1116
    1C        C  477   4.126   2.651   4.106 -0.1991 -0.0572 -0.0452
    1C        C  478   3.998   2.798   4.258 -0.1179  0.2496 -0.0018
    1C        C  479   4.001   2.694   4.161 -0.0913  0.3907 -0.1485
    1C        C  480   3.874   2.856   4.300 -0.2658  0.0017 -0.1049
    1C        C  481   3.752   2.798   4.255 -0.2028 -0.4686  0.3241
    1C        C  482   3.624   2.973   4.375 -0.4222  0.3312  0.2205
    1C        C  483   3.627   2.853   4.298  0.1321  0.1378  0.5381
    1C        C  484   3.502   3.038   4.408 -0.5976  0.1120  0.0061
    1C        C  485   3.380   2.972   4.373 -0.2794 -0.5975  0.2153
    1C        C  486   3.252   3.166   4.459 -0.3828  0.2718  0.2558
    1C        C  487   3.255   3.034   4.404  0.1686  0.1719  0.5129
    1C        C  488   3.130   3.235   4.483 -0.2659  0.3350  0.6942
    1C        C  489   3.007   3.164   4.461  0.1695 -0.2358  0.0650
    1C        C  490   2.879   3.369   4.514 -0.4239  0.0585 -0.0861
    1C        C  491   2.883   3.230   4.485  0.3221  0.0254  0.1363
    1C        C  492   2.758   3.443   4.521 -0.3037  0.3062 -0.4843
    1C        C  493   2.636   3.370   4.512 -0.1666  0.0165  0.0378
    1C        C  494   2.511   3.583   4.522 -0.2942  0.1028  0.8027
    1C        C  495   2.512   3.440   4.521 -0.0850  0.1041  0.5452
    1C        C  496   2.388   3.653   4.516 -0.1651  0.3054  0.5215
    1C        C  497   2.267   3.579   4.527 -0.0341  0.0150  0.0866
    1C        C  498   2.147   3.784   4.472  0.2877 -0.4410 -0.3496
    1C        C  499   2.144   3.651   4.525 -0.2290 -0.3237 -0.0781
    1C        C  500   2.030   3.846   4.422  0.3716  0.2577  0.2992
    1C        C  501   4.976   2.498   3.941  0.5986  0.5896  0.0895
    1C        C  502   4.859   2.655   4.105 -0.0590 -0.0298  0.3563
    1C        C  503   4.861   2.558   3.999  0.4417  0.6000 -0.2210
    1C        C  504   4.737   2.700   4.163 -0.2524  0.0103 -0.0743
    1C        C  505   4.616   2.654   4.105 -0.2052 -0.4124  0.1603
    1C        C  506   4.491   2.798   4.262 -0.0763 -0.4235  0.1737
    1C        C  507   4.493   2.699   4.160 -0.2221 -0.1481 -0.0976
    1C        C  508   4.368   2.853   4.308  0.0331 -0.2177  0.2107
    1C        C  509   4.246   2.799   4.260  0.1417 -0.2035 -0.0829
    1C        C  510   4.121   2.974   4.381  0.2819  0.1607 -0.6144
    1C        C  511   4.122   2.856   4.300  0.1372  0.2705 -0.7735
    1C        C  512   3.997   3.036   4.413  0.3752  0.1613 -0.2471
    1C        C  513   3.873   2.975   4.378  0.4001  0.0944 -0.2337
    1C        C  514   3.752   3.168   4.464  0.2401 -0.7982  0.5115
    1C        C  515   3.748   3.035   4.411  0.1230 -0.5847 -0.0250
    1C        C  516   3.627   3.234   4.485  0.6323 -0.1064  0.7253
    1C        C  517   3.501   3.170   4.462  0.6451  0.0590  0.1671
    1C        C  518   3.379   3.374   4.515  0.1072 -0.6547 -0.0101
    1C        C  519   3.375   3.235   4.481  0.2282 -0.5094 -0.6302
    1C        C  520   3.253   3.440   4.523  0.5783  0.2010  0.4469
    1C        C  521   3.127   3.374   4.513  0.4777  0.3681  0.6174
    1C        C  522   3.005   3.585   4.524 -0.1091 -0.5247  0.0695
    1C        C  523   3.002   3.442   4.523 -0.0719 -0.5264 -0.0134
    1C        C  524   2.881   3.655   4.516  0.1506 -0.0774 -0.0842
    1C        C  525   2.756   3.586   4.524 -0.0671  0.3052 -0.1613
    1C        C  526   2.635   3.796   4.485 -0.0308  0.0846  0.5846
    1C        C  527   2.633   3.656   4.513 -0.2729  0.0037  0.1752
    1C        C  528   2.512   3.862   4.460  0.1588  0.2642  0.1202
    1C        C  529   2.390   3.792   4.485  0.2020  0.2694  0.3677
    1C        C  530   2.269   3.988   4.395 -0.0896  0.0409  0.1901
    1C        C  531   2.268   3.859   4.456  0.1055 -0.0654 -0.0196
    1C        C  532   2.148   4.050   4.351 -0.1047  0.2864  0.5688
    1C        C  533   2.031   3.972   4.362  0.0629 -0.1370 -0.5461
    1C        C  534   4.975   2.808   4.261 -0.0220  0.2505  0.1984
    1C        C  535   4.976   2.709   4.163 -0.0895  0.7302 -0.2840
    1C        C  536   4.855   2.857   4.316 -0.2230 -0.2072  0.1680
    1C        C  537   4.735   2.799   4.267 -0.2085 -0.2009  0.1260
    1C        C  538   4.610   2.967   4.398  0.5239 -0.2176  0.1641
    1C        C  539   4.612   2.853   4.312 -0.1901 -0.5554  0.5930
    1C        C  540   4.488   3.032   4.428  0.3649 -0.2355 -0.4255
    1C        C  541   4.366   2.970   4.389  0.1408 -0.0364 -0.0458
    1C        C  542   4.242   3.167   4.476  0.2577 -0.0351  0.0224
    1C        C  543   4.243   3.035   4.422  0.1624 -0.0684  0.1001
    1C        C  544   4.118   3.235   4.495  0.1059 -0.2972 -0.0150
    1C        C  545   3.996   3.168   4.468 -0.0986  0.2360 -0.4357
    1C        C  546   3.872   3.377   4.522  0.6536 -0.1083  0.5945
    1C        C  547   3.873   3.238   4.491 -0.1310 -0.0470  0.2620
    1C        C  548   3.746   3.445   4.529  0.0475 -1.1068 -0.3670
    1C        C  549   3.623   3.373   4.518 -0.6722  0.0263  0.0871
    1C        C  550   3.498   3.589   4.526  0.7330  0.2874 -0.3052
    1C        C  551   3.501   3.446   4.528 -0.4952  0.2603  0.5833
    1C        C  552   3.372   3.655   4.517 -0.0416 -1.1534 -0.1920
    1C        C  553   3.249   3.583   4.527 -0.8006  0.1731  0.2732
    1C        C  554   3.126   3.796   4.482  0.7268  0.1914 -0.8504
    1C        C  555   3.127   3.658   4.519 -0.6492  0.3922 -0.0007
    1C        C  556   3.002   3.863   4.461  0.0293 -0.7155  0.2695
    1C        C  557   2.880   3.794   4.484 -0.4265 -0.1101 -0.2403
    1C        C  558   2.757   3.991   4.396  0.0979  0.4150  0.2646
    1C        C  559   2.758   3.863   4.459 -0.2624  0.3174  0.0868
    1C        C  560   2.634   4.050   4.355 -0.0602  0.0543  0.1804
    1C        C  561   2.512   3.990   4.398 -0.1631  0.4291  0.4460
    1C        C  562   2.391   4.164   4.271 -0.0940  0.3664  0.3110
    1C        C  563   2.390   4.051   4.358 -0.1816  0.1135 -0.0063
    1C        C  564   2.271   4.221   4.222 -0.2609 -0.0439  0.2194
    1C        C  565   2.149   4.171   4.273 -0.2891  0.1652  0.3739
    1C        C  566   2.036   4.352   4.150  0.3770 -0.0174  0.0005
    1C        C  567   2.037   4.254   4.251 -0.0922  0.4596  0.4736
    1C        C  568   4.965   3.010   4.486  0.4979 -0.4592  0.4596
    1C        C  569   4.852   2.958   4.419  0.5151 -0.4130  0.3927
    1C        C  570   4.728   3.155   4.505  0.0518 -0.1576  0.0629
    1C        C  571   4.731   3.026   4.444  0.6202  0.1107 -0.4948
    1C        C  572   4.608   3.230   4.517 -0.0231 -0.1792 -0.4938
    1C        C  573   4.487   3.163   4.483  0.0003 -0.1164 -0.7046
    1C        C  574   4.365   3.374   4.529 -0.0564  0.1640 -0.2428
    1C        C  575   4.365   3.234   4.502  0.2205  0.1815 -0.3500
    1C        C  576   4.243   3.448   4.536 -0.0907  0.0885 -0.0196
    1C        C  577   4.121   3.375   4.525  0.1424 -0.3329  0.1556
    1C        C  578   3.996   3.587   4.535 -0.5446  0.2875  0.1130
    1C        C  579   3.997   3.445   4.530  0.4788  0.2807  0.1586
    1C        C  580   3.874   3.661   4.525 -0.4998  0.2916 -0.4207
    1C        C  581   3.752   3.587   4.532  0.3309 -1.1168 -0.2794
    1C        C  582   3.623   3.792   4.489 -1.0436 -0.1445 -0.5412
    1C        C  583   3.626   3.654   4.524  0.8818  0.0131  0.0327
    1C        C  584   3.502   3.863   4.462 -0.7435  0.4230 -0.3957
    1C        C  585   3.379   3.793   4.485  0.2150 -1.0066  0.4775
    1C        C  586   3.250   3.985   4.398 -0.8439  0.2156  0.0626
    1C        C  587   3.254   3.856   4.458  0.8914  0.0060 -0.4351
    1C        C  588   3.130   4.050   4.356 -0.5781  0.5232 -0.2247
    1C        C  589   3.007   3.988   4.393  0.1630 -1.0053 -0.2539
    1C        C  590   2.880   4.160   4.270 -0.4694 -0.1576  0.1981
    1C        C  591   2.882   4.048   4.359  0.3878 -0.5633 -0.3160
    1C        C  592   2.759   4.215   4.219 -0.1921 -0.1140 -0.4428
    1C        C  593   2.636   4.164   4.269  0.0154  0.3946  0.6177
    1C        C  594   2.514   4.312   4.114  0.1302 -0.0539  0.1224
    1C        C  595   2.513   4.215   4.218  0.0178 -0.2431 -0.0459
    1C        C  596   2.394   4.357   4.054  0.1381 -0.3055 -0.0899
    1C        C  597   2.273   4.318   4.117  0.2259  0.0744  0.3273
    1C        C  598   2.150   4.436   3.939 -0.0191 -0.0525 -0.1163
    1C        C  599   2.151   4.374   4.068  0.2528 -0.3702 -0.2690
    1C        C  600   2.032   4.453   3.863 -0.1689 -0.4047  0.0325
    1C        C  601   4.959   3.131   4.557  0.0449  0.0281 -0.3970
    1C        C  602   4.850   3.364   4.550 -0.2248 -0.0227 -0.0679
    1C        C  603   4.849   3.220   4.545 -0.0924 -0.0397  0.3050
    1C        C  604   4.730   3.442   4.547 -0.2325 -0.0509 -0.6829
    1C        C  605   4.608   3.370   4.542 -0.1532 -0.2215 -0.2452
    1C        C  606   4.487   3.587   4.540  0.2340 -0.0218  0.0197
    1C        C  607   4.487   3.445   4.544 -0.0202 -0.0156  0.3407
    1C        C  608   4.366   3.661   4.532  0.2307 -0.0051  0.1538
    1C        C  609   4.243   3.590   4.534  0.1666  0.0884 -0.2897
    1C        C  610   4.120   3.800   4.496 -0.0852 -0.3752  0.1724
    1C        C  611   4.119   3.660   4.527 -0.1341 -0.3979  0.0797
    1C        C  612   3.996   3.865   4.473  0.3121  0.2978 -0.1446
    1C        C  613   3.870   3.799   4.492  0.2473  0.2570 -0.6934
    1C        C  614   3.752   3.990   4.404  0.2598 -0.7016  0.4704
    1C        C  615   3.745   3.863   4.468 -0.4902 -0.9296 -0.0433
    1C        C  616   3.626   4.045   4.366  0.8036  0.4307  0.2408
    1C        C  617   3.497   3.990   4.397  0.6298  0.6491 -0.0822
    1C        C  618   3.381   4.161   4.272  0.4781 -0.6386  0.6374
    1C        C  619   3.373   4.047   4.357 -0.1944 -1.0365  0.0485
    1C        C  620   3.255   4.208   4.223  1.0207 -0.2445 -0.4008
    1C        C  621   3.128   4.160   4.265  0.7640  0.3621 -0.4729
    1C        C  622   3.009   4.306   4.112  0.2114 -0.7707  0.5626
    1C        C  623   3.003   4.212   4.219 -0.0687 -0.4226  0.8553
    1C        C  624   2.885   4.349   4.058  0.6052 -0.2741  0.0482
    1C        C  625   2.760   4.313   4.115  0.3984  0.4159  0.0451
    1C        C  626   2.638   4.426   3.932  0.0100  0.0824  0.2260
    1C        C  627   2.637   4.355   4.056  0.1644 -0.1805  0.0825
    1C        C  628   2.516   4.451   3.864  0.1392 -0.5465 -0.2530
    1C        C  629   2.392   4.427   3.930  0.1237 -0.7742 -0.3616
    1C        C  630   2.273   4.500   3.727 -0.0849 -0.1225  0.0268
    1C        C  631   2.270   4.461   3.866  0.0881 -0.1751  0.0158
    1C        C  632   2.153   4.515   3.652 -0.1254 -0.6353 -0.0131
    1C        C  633   2.037   4.500   3.731 -0.1524 -0.6537 -0.0562
    1C        C  634   4.967   3.579   4.542  0.2504  0.1666  0.0970
    1C        C  635   4.968   3.440   4.533 -0.2644  0.1407  0.3661
    1C        C  636   4.850   3.658   4.536  0.0772 -0.0886  0.0582
    1C        C  637   4.728   3.585   4.542  0.0287 -0.0119  0.0529
    1C        C  638   4.608   3.800   4.503 -0.3273  0.2550  0.6252
    1C        C  639   4.609   3.661   4.534  0.1296  0.1715  0.2497
    1C        C  640   4.487   3.869   4.477 -0.4215  0.0913  0.6306
    1C        C  641   4.364   3.800   4.498 -0.4527 -0.0640 -0.0625
    1C        C  642   4.241   3.997   4.411  0.1850  0.0638  0.2642
    1C        C  643   4.242   3.871   4.477 -0.3812  0.2927  0.7238
    1C        C  644   4.117   4.054   4.371 -0.1226 -0.8441 -0.0884
    1C        C  645   3.995   3.994   4.412 -0.7203  0.2855 -0.1699
    1C        C  646   3.871   4.168   4.280  0.4762  0.9566  0.1604
    1C        C  647   3.874   4.056   4.368 -0.5577  0.2621 -0.6529
    1C        C  648   3.745   4.214   4.229 -0.3849 -0.7659  0.6641
    1C        C  649   3.623   4.157   4.277 -1.1632 -0.4762 -0.9073
    1C        C  650   3.500   4.309   4.116  0.6023  0.8992 -0.6627
    1C        C  651   3.504   4.217   4.225 -0.6420  0.7994 -0.6740
    1C        C  652   3.376   4.351   4.059 -0.4109 -0.3874  0.5365
    1C        C  653   3.254   4.307   4.120 -0.8910  0.2068  0.0297
    1C        C  654   3.130   4.422   3.934  0.4222 -0.4653 -0.9123
    1C        C  655   3.133   4.351   4.057 -0.6107  0.4429 -0.3455
    1C        C  656   3.006   4.454   3.870 -0.1897 -0.4754  0.2587
    1C        C  657   2.883   4.424   3.936 -0.3585 -0.3394  0.0115
    1C        C  658   2.762   4.495   3.731  0.0394  0.1034 -0.1739
    1C        C  659   2.762   4.455   3.868 -0.1741 -0.1568 -0.2451
    1C        C  660   2.639   4.504   3.659 -0.0582  0.1087 -0.0124
    1C        C  661   2.515   4.491   3.728 -0.1056 -0.1886 -0.1503
    1C        C  662   2.398   4.522   3.513 -0.1028 -0.0879 -0.0952
    1C        C  663   2.394   4.509   3.655 -0.1540 -0.4019 -0.1252
    1C        C  664   2.278   4.529   3.437 -0.2851  0.0964  0.2076
    1C        C  665   2.154   4.532   3.509 -0.3881 -0.1107  0.0427
    1C        C  666   2.038   4.539   3.429 -0.1199  0.9123 -0.2630
    1C        C  667   4.969   3.875   4.478 -0.2975 -0.2264 -0.4596
    1C        C  668   4.853   3.798   4.503 -0.2759 -0.0159  0.3278
    1C        C  669   4.731   3.993   4.410 -0.0291 -0.1521 -0.0781
    1C        C  670   4.730   3.867   4.477 -0.2583 -0.0883  0.0456
    1C        C  671   4.610   4.057   4.372  0.0015  0.0243  0.1098
    1C        C  672   4.488   3.995   4.410  0.0981 -0.2397  0.0077
    1C        C  673   4.365   4.166   4.284 -0.1588 -0.5891 -0.4932
    1C        C  674   4.365   4.058   4.377  0.1865  0.1187  0.3438
    1C        C  675   4.244   4.218   4.230 -0.0720 -0.4204 -0.5352
    1C        C  676   4.121   4.164   4.280  0.2985 -0.5969  0.2193
    1C        C  677   3.996   4.306   4.122 -0.5073  0.2416 -0.0029
    1C        C  678   3.997   4.212   4.229  0.6828 -0.0032 -0.2042
    1C        C  679   3.875   4.349   4.061 -0.4561  0.4579  0.0441
    1C        C  680   3.752   4.304   4.119  0.2897 -0.6907  0.7641
    1C        C  681   3.625   4.417   3.939 -0.8700  0.4076 -0.0087
    1C        C  682   3.627   4.345   4.063  0.9954  0.7518  0.1781
    1C        C  683   3.506   4.450   3.868 -0.5848  0.4329 -0.4797
    1C        C  684   3.383   4.423   3.936  0.2155  0.2114  0.9185
    1C        C  685   3.255   4.495   3.738 -0.6487 -0.2324 -0.2378
    1C        C  686   3.257   4.450   3.874  0.6862 -0.2668 -0.2590
    1C        C  687   3.134   4.509   3.664 -0.4988 -0.2706 -0.4882
    1C        C  688   3.010   4.494   3.733 -0.0460 -0.2110  0.3413
    1C        C  689   2.886   4.518   3.522 -0.3063  0.0245 -0.0035
    1C        C  690   2.886   4.508   3.664  0.1576 -0.2920 -0.0284
    1C        C  691   2.765   4.513   3.446 -0.1523  0.2228 -0.2643
    1C        C  692   2.642   4.513   3.517  0.0013  0.3739  0.0048
    1C        C  693   2.520   4.517   3.442 -0.0154  0.2439  0.0272
    1C        C  694   4.973   3.993   4.405  0.1762  0.0682  0.0329
    1C        C  695   4.854   4.177   4.291 -0.1031 -0.0335  0.3551
    1C        C  696   4.852   4.058   4.371  0.0455  0.1247  0.5966
    1C        C  697   4.731   4.228   4.242 -0.0111 -0.1497 -0.0125
    1C        C  698   4.609   4.170   4.286 -0.0569  0.0941  0.1966
    1C        C  699   4.488   4.314   4.127  0.2414 -0.4887 -0.2317
    1C        C  700   4.487   4.221   4.234 -0.1119 -0.2157  0.0148
    1C        C  701   4.366   4.356   4.068  0.3117  0.0433 -0.0159
    1C        C  702   4.242   4.309   4.120  0.2558 -0.7097 -0.7914
    1C        C  703   4.123   4.426   3.942  0.3119 -0.7075  0.1075
    1C        C  704   4.118   4.352   4.064 -0.1354 -0.2905  0.3491
    1C        C  705   3.998   4.455   3.879  0.4714 -0.0525  0.0703
    1C        C  706   3.872   4.422   3.938  0.3041  0.2632 -0.0986
    1C        C  707   3.755   4.497   3.740  0.4298  0.4128  1.0482
    1C        C  708   3.748   4.450   3.875 -0.2682 -0.1365  0.8284
    1C        C  709   3.630   4.510   3.670  0.9550  0.4495  0.1003
    1C        C  710   3.503   4.496   3.733  0.6269  0.0536 -0.6451
    1C        C  711   3.384   4.522   3.524  0.1973 -0.4933  0.6152
    1C        C  712   3.378   4.511   3.666 -0.1148 -0.4872  0.5949
    1C        C  713   3.259   4.520   3.455  0.5308  0.0346 -0.0074
    1C        C  714   3.133   4.520   3.522  0.2936  0.2161 -0.4587
    1C        C  715   3.010   4.516   3.450 -0.1399  0.4125  0.2709
    1C        C  716   4.964   4.360   4.172  0.2261 -0.4755 -0.0669
    1C        C  717   4.969   4.254   4.265  0.0261 -0.2915  0.1538
    1C        C  718   4.851   4.385   4.090  0.0638 -0.2129  0.2385
    1C        C  719   4.729   4.327   4.139 -0.1347  0.4775  0.5806
    1C        C  720   4.612   4.438   3.952  0.1178  0.4739  0.2590
    1C        C  721   4.609   4.367   4.075  0.0312  0.5958  0.3327
    1C        C  722   4.491   4.466   3.884  0.0914  0.2783  0.2169
    1C        C  723   4.368   4.431   3.946  0.0236 -0.4419 -0.3219
    1C        C  724   4.246   4.506   3.744  0.0191  0.0498 -0.0958
    1C        C  725   4.246   4.462   3.880  0.0134 -0.1035 -0.1445
    1C        C  726   4.122   4.515   3.673 -0.3123 -0.6617  0.3775
    1C        C  727   4.000   4.501   3.744 -0.5716 -0.0320  0.0586
    1C        C  728   3.877   4.529   3.529  0.4380  0.4895 -0.3668
    1C        C  729   3.878   4.516   3.671 -0.2923  0.0607 -0.3859
    1C        C  730   3.753   4.527   3.457 -0.0001  0.0573  0.3893
    1C        C  731   3.630   4.523   3.528 -0.1912 -0.2855  0.0339
    1C        C  732   3.508   4.523   3.453 -0.1620 -0.5411 -0.0161
    1C        C  733   4.971   4.491   3.895 -0.5876  0.1677 -0.1211
    1C        C  734   4.854   4.449   3.961 -0.2708 -0.0270  0.3162
    1C        C  735   4.735   4.520   3.753 -0.4111  0.2140 -0.0919
    1C        C  736   4.734   4.473   3.888  0.0193  0.1919 -0.0919
    1C        C  737   4.614   4.531   3.680 -0.4139  0.2629 -0.0774
    1C        C  738   4.492   4.512   3.749 -0.2472  0.3971  0.2524
    1C        C  739   4.371   4.530   3.534 -0.0477  0.1014 -0.1260
    1C        C  740   4.370   4.523   3.676 -0.0335  0.3929 -0.1096
    1C        C  741   4.250   4.527   3.459 -0.1157  0.2473 -0.0183
    1C        C  742   4.126   4.527   3.531  0.1474  0.0810  0.4437
    1C        C  743   4.002   4.526   3.461  0.5171  0.3776 -0.2237
    1C        C  744   4.973   4.539   3.764 -0.7409  0.1502 -0.1300
    1C        C  745   4.855   4.563   3.541 -0.2174  0.6693 -0.2793
    1C        C  746   4.857   4.547   3.684 -0.6047  0.5930 -0.2826
    1C        C  747   4.737   4.544   3.465 -0.2263  0.1848 -0.1416
    1C        C  748   4.616   4.536   3.538 -0.1800 -0.0248 -0.0855
    1C        C  749   4.495   4.529   3.464 -0.0882 -0.4733 -0.1868
    1C        C  750   4.967   4.602   3.463 -0.0201 -0.0085 -0.3406
    1C        O  751   5.077   2.436   4.015  0.3378  0.5240  0.3938
    1C        H  752   5.157   2.400   3.965 -0.7997  0.1202 -1.2192
    1C        O  753   5.049   3.140   4.664  0.0203  0.0176 -0.3779
    1C        H  754   5.113   3.064   4.680 -1.1816 -1.0617 -0.5367
    1C        O  755   5.049   2.402   3.074  0.3397  0.2888 -0.7192
    1C        H  756   5.121   2.389   3.005  0.0385  0.5704 -1.0911
    1C        O  757   5.049   4.466   4.205 -0.1378 -0.0802 -0.4035
    1C        H  758   5.129   4.435   4.258 -1.1459  1.1007  1.9730
    1C        O  759   5.062   4.672   3.273  0.4509 -0.1502 -0.2015
    1C        H  760   5.027   4.723   3.193 -0.5998 -0.3712  0.1035
    1C        O  761   5.085   3.116   2.435 -0.1638  0.0030  0.3409
    1C        H  762   5.162   3.166   2.393 -0.3802  1.1280  1.2505
    1C        O  763   5.077   4.067   2.502 -0.0185  0.0235  0.4795
    1C        H  764   5.146   4.140   2.513  0.2858 -0.0023 -1.0521
    1C        O  765   1.924   2.429   3.976  0.3464  0.6247  0.3416
    1C        H  766   1.843   2.434   3.915 -0.7691 -1.2966  1.5553
    1C        O  767   1.970   2.355   3.268 -0.2526  0.5514  0.2071
    1C        H  768   1.888   2.323   3.317  0.0507  0.4739  0.6680
    1C        O  769   1.935   3.634   4.647  0.1106 -0.0192  0.0276
    1C        H  770   1.854   3.578   4.669 -0.5534  0.7542 -0.3927
    1C        O  771   1.955   2.902   2.489 -0.1967 -1.0075 -0.0895
    1C        H  772   1.886   2.828   2.490 -2.6832  1.1560 -0.2572
    1C        O  773   1.966   3.845   2.373  0.3662  0.1710 -0.1089
    1C        H  774   1.871   3.821   2.351  0.8044  0.0956 -2.1108
    1C        O  775   2.000   4.618   2.968  0.0753  0.3187 -0.4647
    1C        H  776   1.933   4.626   2.893  0.4902 -0.8069 -0.9644
    1C        O  777   1.942   4.449   4.185 -0.2352 -0.5309 -0.1983
    1C        H  778   1.879   4.424   4.260  0.3551  1.9952  1.2640
    1C        H  779   5.075   2.686   4.125 -0.1479 -1.2237  0.6866
    1C        H  780   5.074   2.831   4.299  0.6171  0.8509 -1.7370
    1C        H  781   5.035   2.938   4.527  3.1208  0.9502 -1.2333
    1C        H  782   5.060   3.401   4.574  0.3548 -0.7407 -1.7285
    1C        H  783   5.067   3.619   4.536  0.4699 -0.2926  0.6468
    1C        H  784   5.075   2.451   3.767  0.7649  1.6790  2.9000
    1C        H  785   5.070   2.486   3.560  0.9862  3.8891 -1.7432
    1C        H  786   5.076   2.498   3.324 -0.5682 -0.7385 -3.0540
    1C        H  787   5.060   2.576   2.870  0.9412  1.1337  0.9675
    1C        H  788   5.063   2.755   2.709  0.8358  2.3125 -1.4795
    1C        H  789   5.086   2.985   2.679  1.2541 -2.6048  2.2364
    1C        H  790   5.054   3.365   2.380  1.3765 -2.5163  0.5685
    1C        H  791   5.079   3.584   2.448 -0.1904 -1.7257  1.3971
    1C        H  792   5.088   3.808   2.531  0.1146 -0.4359  1.2478
    1C        H  793   5.076   4.219   2.709 -0.0107 -0.0145  1.6025
    1C        H  794   5.077   4.372   2.872 -0.8230 -0.7530 -2.3826
    1C        H  795   5.078   4.476   3.080 -0.0669  1.7809 -0.1632
    1C        H  796   5.008   4.696   3.496  1.3236 -0.4954 -0.5683
    1C        H  797   5.052   4.612   3.750 -0.3758 -0.0219  0.9092
    1C        H  798   5.054   4.423   3.911 -1.1314 -0.0853  1.8258
    1C        H  799   5.037   4.270   4.348 -1.5971 -0.0652  1.4856
    1C        H  800   5.061   3.995   4.342 -0.6323 -1.3102 -1.1994
    1C        H  801   5.065   3.837   4.511 -0.4592  0.0543  0.3632
    1C        H  802   1.940   3.384   4.570  0.7876 -0.2422  2.5865
    1C        H  803   1.968   3.138   4.584  0.4221  0.8570  0.3332
    1C        H  804   1.938   2.992   4.392 -0.3251  1.7183  0.3850
    1C        H  805   1.945   2.779   4.307 -0.4000  1.2324 -0.0197
    1C        H  806   1.945   2.632   4.127  0.2296 -1.2270  0.2604
    1C        H  807   1.952   2.522   3.734 -1.0022 -2.3965  0.4435
    1C        H  808   1.993   2.330   3.515 -0.9054 -0.0160 -0.3754
    1C        H  809   1.949   2.618   3.131  0.5019  0.9676  0.6808
    1C        H  810   1.964   2.746   2.940  0.5107 -0.3515 -0.5085
    1C        H  811   1.982   2.740   2.673  1.6001 -1.9868 -0.6966
    1C        H  812   1.954   3.168   2.529  0.6474  1.0125  2.6874
    1C        H  813   1.964   3.395   2.503  0.7116  0.5592 -0.0092
    1C        H  814   1.978   3.614   2.351 -0.5831 -0.1203 -0.1356
    1C        H  815   2.002   4.086   2.488  0.7798 -0.0982 -0.9727
    1C        H  816   1.962   4.351   2.862  0.4612 -1.2730  1.0576
    1C        H  817   1.974   4.244   2.634 -0.2395 -0.7098  0.1047
    1C        H  818   1.945   4.553   3.256 -1.4771 -1.8711  2.7105
    1C        H  819   1.943   4.497   3.456 -0.5902  2.0664 -0.0806
    1C        H  820   1.937   4.519   3.697 -0.3372 -0.4819  0.5669
    1C        H  821   1.946   4.472   3.924  0.2400  0.9456  0.2392
    1C        H  822   1.942   4.228   4.295  0.3322  0.9303  1.7287
    1C        H  823   1.932   4.015   4.365  0.4099  0.6707  2.6792
    1C        H  824   1.937   3.797   4.447  0.9255  0.6585  3.5882
    2V3OU   H29  825   4.088   5.518   2.592  2.1381 -0.7532 -2.4537
    2V3OU   C27  826   4.119   5.624   2.609 -0.2322 -0.2949 -0.2293
    2V3OU   H27  827   4.034   5.684   2.651  1.2770  0.6179  1.6760
    2V3OU   H28  828   4.208   5.633   2.676  0.7684 -3.3490 -0.9713
    2V3OU   O11  829   4.160   5.681   2.484 -0.1007 -0.2963 -0.1876
    2V3OU   C15  830   4.081   5.681   2.370 -0.3575  0.1599 -0.0150
    2V3OU   C13  831   4.149   5.721   2.253 -0.3072 -0.3896 -0.1746
    2V3OU   C14  832   4.081   5.766   2.139 -0.6399  0.6029  0.4036
    2V3OU   C16  833   3.943   5.749   2.129 -0.4985 -0.1584 -0.4070
    2V3OU    H6  834   3.886   5.762   2.036  0.8032 -1.8651 -1.5110
    2V3OU   C12  835   4.140   5.835   2.022 -0.1174 -0.2064  0.1781
    2V3OU    O2  836   4.084   5.898   1.930  0.5807  1.0999  0.6134
    2V3OU   C10  837   4.285   5.853   2.043 -0.1318  0.1136  0.0147
    2V3OU    C8  838   4.350   5.957   1.977  0.6622 -0.7917 -0.6471
    2V3OU   O10  839   4.286   6.031   1.882 -0.0805  0.1919  0.5874
    2V3OU   H26  840   4.190   6.017   1.889 -0.9217  3.6789 -1.8470
    2V3OU    C6  841   4.493   5.969   1.979  0.6255 -0.3514 -0.4805
    2V3OU    C5  842   4.566   5.875   2.051  0.2133 -0.1731  0.1845
    2V3OU    C4  843   4.555   6.086   1.911 -0.2520  0.0983 -0.5189
    2V3OU    H4  844   4.496   6.129   1.824 -1.4966 -2.4381 -1.0269
    2V3OU    H5  845   4.556   6.166   1.991 -1.1003 -0.3829 -0.0022
    2V3OU    C2  846   4.702   6.063   1.875 -0.0508  0.1642  0.2520
    2V3OU    O6  847   4.711   5.968   1.769 -0.2610  0.5881 -0.1481
    2V3OU   H21  848   4.731   5.899   1.834 -0.0305 -0.6283 -1.4682
    2V3OU    C3  849   4.780   5.995   1.988  0.0034  0.3042  0.2996
    2V3OU    H2  850   4.883   5.978   1.947 -0.8868 -0.3001 -1.8273
    2V3OU    H3  851   4.797   6.062   2.076 -0.7171  0.3117  0.4414
    2V3OU   C25  852   4.763   6.200   1.845  0.3195 -0.0619 -0.0189
    2V3OU    O7  853   4.790   6.280   1.935 -0.5478  0.0837  0.1186
    2V3OU   C26  854   4.810   6.218   1.702  0.4115  1.0685  0.1465
    2V3OU   H22  855   4.883   6.135   1.688 -1.0096  0.0326 -1.4614
    2V3OU   H23  856   4.861   6.318   1.691  1.7755  0.5333  1.3182
    2V3OU    O8  857   4.722   6.212   1.592  0.5000  0.4911  0.1044
    2V3OU   H24  858   4.733   6.130   1.542 -0.5904  0.2621  0.2118
    2V3OU    C1  859   4.715   5.865   2.033  0.1563 -0.0242 -0.4018
    2V3OU    H1  860   4.760   5.831   2.131 -1.0778 -1.7225 -0.3847
    2V3OU    O3  861   4.746   5.776   1.926  0.5254 -0.0567 -0.2677
    2V3OU   C19  862   4.800   5.645   1.951  0.0817 -0.1103  0.4580
    2V3OU    H9  863   4.759   5.605   2.048  0.1754  1.2179  1.0752
    2V3OU    O4  864   4.938   5.669   1.966  0.2219 -0.3585 -0.3688
    2V3OU   C20  865   5.022   5.710   1.858  0.3241  0.3905 -0.0124
    2V3OU   H10  866   4.984   5.814   1.833  0.2246  0.5278  0.7007
    2V3OU   C24  867   4.764   5.566   1.825  0.2894 -0.2507  0.4866
    2V3OU   H16  868   4.658   5.590   1.798  0.5147  0.3208  0.0877
    2V3OU   H17  869   4.774   5.457   1.848  1.9971 -0.1687  0.2721
    2V3OU   C23  870   4.852   5.611   1.707  0.0491 -0.2726  0.2986
    2V3OU   H15  871   4.824   5.717   1.678 -0.5372 -0.1517  1.2615
    2V3OU    N1  872   4.826   5.513   1.604  0.1930 -0.2693  0.2598
    2V3OU   H19  873   4.733   5.480   1.618  0.5435 -0.6751  1.8598
    2V3OU   H20  874   4.885   5.433   1.616 -0.0800 -0.5349 -0.1365
    2V3OU   C21  875   5.005   5.621   1.735  0.0572  0.3799  0.0308
    2V3OU   H11  876   5.056   5.678   1.652 -0.8050  1.1856  0.0387
    2V3OU    O5  877   5.081   5.502   1.753 -0.0407  0.2146 -0.5994
    2V3OU   H18  878   5.110   5.455   1.674  3.2073  1.5818 -0.3935
    2V3OU   C22  879   5.161   5.712   1.920  0.6425 -0.2124 -0.6892
    2V3OU   H12  880   5.175   5.632   1.996  1.1219 -0.2898 -0.8548
    2V3OU   H13  881   5.184   5.814   1.961  0.8539 -1.0233  1.3116
    2V3OU   H14  882   5.238   5.697   1.840  0.0704  1.0515 -1.5225
    2V3OU   C11  883   4.291   5.690   2.235  0.0053  0.5800  0.5721
    2V3OU    O1  884   4.349   5.591   2.285  0.2388  0.5523  0.2567
    2V3OU    C9  885   4.358   5.763   2.124 -0.3289 -0.1975 -0.1514
    2V3OU    C7  886   4.496   5.772   2.121 -0.3331 -0.1967 -0.3827
    2V3OU    O9  887   4.576   5.706   2.212  0.1536  0.1654 -0.5431
    2V3OU   H25  888   4.518   5.636   2.246 -2.1551  2.8746  1.5953
    2V3OU   C17  889   3.941   5.671   2.360 -0.3592 -0.1244  0.2790
    2V3OU    H7  890   3.875   5.674   2.446  0.2293  1.2972  0.7130
    2V3OU   C18  891   3.877   5.699   2.240  0.2601 -0.7206 -0.2010
    2V3OU    H8  892   3.767   5.698   2.245  0.3058 -0.3493  1.4292
    3V3OU   H29  893   2.391   4.811   6.247 -1.0873 -1.6893  0.4445
    3V3OU   C27  894   2.426   4.769   6.149  0.3095 -0.1517  0.2407
    3V3OU   H27  895   2.407   4.823   6.053 -0.3071  0.2476  0.5810
    3V3OU   H28  896   2.516   4.704   6.152 -0.7810 -1.6678  1.3793
    3V3OU   O11  897   2.320   4.673   6.140  0.0038  0.2623 -0.6644
    3V3OU   C15  898   2.184   4.690   6.154  0.0984  0.1780  0.4553
    3V3OU   C13  899   2.112   4.570   6.137  0.1165  0.2971 -0.5375
    3V3OU   C14  900   1.982   4.570   6.085 -0.3538  0.1596  0.6124
    3V3OU   C16  901   1.923   4.693   6.058 -0.1249  0.1165 -0.1068
    3V3OU    H6  902   1.814   4.695   6.052 -0.1972 -0.2531  0.9043
    3V3OU   C12  903   1.897   4.450   6.065  0.7282 -0.3961 -0.7720
    3V3OU    O2  904   1.794   4.440   5.995  0.0863 -0.0593  0.1024
    3V3OU   C10  905   1.942   4.330   6.137 -0.0556  0.3298  0.9929
    3V3OU    C8  906   1.864   4.215   6.148 -0.2978  0.4113  0.2434
    3V3OU   O10  907   1.753   4.204   6.071  0.0619  0.4094 -0.2782
    3V3OU   H26  908   1.740   4.293   6.033  0.4835  1.1202  1.1812
    3V3OU    C6  909   1.897   4.093   6.216  0.0127  0.4008  0.0802
    3V3OU    C5  910   2.021   4.093   6.278  0.3369 -0.2741 -0.5549
    3V3OU    C4  911   1.812   3.970   6.218 -0.0297  0.4354  0.6166
    3V3OU    H4  912   1.705   3.999   6.199  0.2388  0.4178 -1.0800
    3V3OU    H5  913   1.843   3.909   6.129 -1.9750 -0.4747  0.5230
    3V3OU    C2  914   1.829   3.879   6.340  0.0200 -0.1970  0.1427
    3V3OU    O6  915   1.782   3.949   6.456  0.3818 -0.4866  0.4686
    3V3OU   H21  916   1.867   3.981   6.490  0.0485 -1.4115  2.2957
    3V3OU    C3  917   1.979   3.864   6.365  0.0354  0.1576  0.2758
    3V3OU    H2  918   1.995   3.796   6.452 -0.1396 -0.5625 -0.2449
    3V3OU    H3  919   2.026   3.814   6.276 -0.6859 -0.3525  0.1692
    3V3OU   C25  920   1.755   3.746   6.323 -0.3432 -0.0232  0.3508
    3V3OU    O7  921   1.791   3.660   6.243  0.3210 -0.0128  0.6264
    3V3OU   C26  922   1.622   3.727   6.394 -0.4748  0.0375  0.1218
    3V3OU   H22  923   1.640   3.738   6.504  2.3478  0.4407 -0.3161
    3V3OU   H23  924   1.578   3.628   6.366 -0.1265 -0.0614 -0.0826
    3V3OU    O8  925   1.526   3.820   6.349 -0.4200 -0.1160 -0.3207
    3V3OU   H24  926   1.453   3.826   6.412 -2.1993  2.0345 -2.3839
    3V3OU    C1  927   2.055   3.994   6.386  0.1516  0.1514 -0.1016
    3V3OU    H1  928   2.165   3.973   6.400 -0.3323 -1.3801  1.7165
    3V3OU    O3  929   2.006   4.040   6.512 -0.1813  0.1142 -0.2156
    3V3OU   C19  930   2.085   4.090   6.620 -0.3068  0.0063 -0.0741
    3V3OU    H9  931   2.165   4.158   6.580  1.8468 -1.7399  1.0252
    3V3OU    O4  932   2.155   3.975   6.663 -0.2027  0.0509 -0.1234
    3V3OU   C20  933   2.080   3.871   6.726  0.1883 -0.2621 -0.1760
    3V3OU   H10  934   2.011   3.820   6.652 -0.9273  2.0759 -0.8415
    3V3OU   C24  935   1.981   4.146   6.718 -0.2465 -0.2307  0.1276
    3V3OU   H16  936   1.914   4.220   6.666  0.4899  1.2996  1.2995
    3V3OU   H17  937   2.031   4.202   6.800 -2.1511  2.8929 -0.6551
    3V3OU   C23  938   1.904   4.026   6.775 -0.0862 -0.3348  0.1257
    3V3OU   H15  939   1.855   3.970   6.688 -0.2234  0.2320 -0.1691
    3V3OU    N1  940   1.805   4.079   6.867 -0.2485 -0.2853 -0.0760
    3V3OU   H19  941   1.786   4.165   6.819 -1.1470 -1.3759 -1.8018
    3V3OU   H20  942   1.867   4.105   6.940  0.3547 -0.9366 -0.3429
    3V3OU   C21  943   1.995   3.919   6.843  0.4228 -0.0478 -0.0924
    3V3OU   H11  944   1.924   3.833   6.864  1.1707  0.1235  3.6951
    3V3OU    O5  945   2.059   3.942   6.967  0.2524  0.2395 -0.0559
    3V3OU   H18  946   1.990   3.924   7.034 -0.3744 -0.1892 -0.8033
    3V3OU   C22  947   2.186   3.774   6.776  0.0552 -0.1747  0.2750
    3V3OU   H12  948   2.141   3.696   6.843  0.9465 -0.8801  0.0784
    3V3OU   H13  949   2.263   3.831   6.833  1.7561  0.4553 -2.4788
    3V3OU   H14  950   2.238   3.725   6.690 -1.1042 -2.4010  0.7761
    3V3OU   C11  951   2.148   4.445   6.205 -0.1882  0.4282 -0.1319
    3V3OU    O1  952   2.243   4.436   6.286 -0.0013  0.1423 -0.3836
    3V3OU    C9  953   2.068   4.321   6.203  0.2700  0.1162  0.3577
    3V3OU    C7  954   2.108   4.206   6.269  0.2117 -0.1339 -0.0312
    3V3OU    O9  955   2.234   4.191   6.323  0.1545  0.6268  0.3253
    3V3OU   H25  956   2.261   4.283   6.303 -0.0709  0.6005 -0.0932
    3V3OU   C17  957   2.125   4.810   6.109  0.0922 -0.0169 -0.0687
    3V3OU    H7  958   2.175   4.906   6.121  0.6977 -0.2426 -0.7269
    3V3OU   C18  959   1.992   4.814   6.068 -0.1314  0.0676  0.6394
    3V3OU    H8  960   1.965   4.904   6.012 -0.7869  1.1617  2.6350
    4V3OU   H29  961   3.478   4.464   4.605 -0.3937  0.9319 -0.7418
    4V3OU   C27  962   3.488   4.391   4.521 -0.4962  0.2725 -0.1816
    4V3OU   H27  963   3.468   4.283   4.546 -1.0997  0.9867  2.9057
    4V3OU   H28  964   3.420   4.420   4.437 -0.6390 -1.2461 -0.6332
    4V3OU   O11  965   3.621   4.409   4.473 -0.3837 -0.2525 -0.0764
    4V3OU   C15  966   3.669   4.532   4.433  0.0830 -0.5066 -0.3030
    4V3OU   C13  967   3.810   4.533   4.418  0.0939 -0.2609 -0.1745
    4V3OU   C14  968   3.875   4.610   4.321  0.2507 -0.3519 -0.1400
    4V3OU   C16  969   3.802   4.705   4.250  0.0489 -0.1648  0.3148
    4V3OU    H6  970   3.855   4.775   4.185 -0.0083 -1.1797 -0.8621
    4V3OU   C12  971   4.022   4.604   4.305  0.2310 -0.0768 -0.4231
    4V3OU    O2  972   4.083   4.669   4.218  0.4969 -0.2187 -0.3433
    4V3OU   C10  973   4.100   4.545   4.415 -0.0505  0.6296  0.1627
    4V3OU    C8  974   4.239   4.547   4.414 -0.0292 -0.4202 -0.2176
    4V3OU   O10  975   4.305   4.591   4.304  0.1324 -0.0866  0.0108
    4V3OU   H26  976   4.244   4.644   4.249 -0.1900 -0.1796  0.2783
    4V3OU    C6  977   4.321   4.516   4.527 -0.0168 -0.0013 -0.1111
    4V3OU    C5  978   4.253   4.480   4.643 -0.3105 -0.3657 -0.3944
    4V3OU    C4  979   4.470   4.529   4.518 -0.0051 -0.2172 -0.2089
    4V3OU    H4  980   4.500   4.461   4.433  0.3770 -0.6550  0.2662
    4V3OU    H5  981   4.492   4.637   4.493 -1.2417  0.4827  1.5017
    4V3OU    C2  982   4.553   4.485   4.639  0.0018  0.1098 -0.0970
    4V3OU    O6  983   4.562   4.343   4.628  0.3236  0.1864 -0.8662
    4V3OU   H21  984   4.479   4.325   4.675  1.3638  1.1606  1.4928
    4V3OU    C3  985   4.476   4.509   4.769  0.0432 -0.4592  0.0310
    4V3OU    H2  986   4.531   4.458   4.853 -1.3378 -0.2394  1.1184
    4V3OU    H3  987   4.472   4.618   4.794  0.2340 -0.0278 -1.6906
    4V3OU   C25  988   4.688   4.556   4.633 -0.0768  0.2231 -0.5279
    4V3OU    O7  989   4.700   4.675   4.661  0.0440  0.1242 -0.1581
    4V3OU   C26  990   4.805   4.480   4.572 -0.4544 -0.5211 -0.3389
    4V3OU   H22  991   4.888   4.555   4.582  0.2652 -1.0591 -2.0061
    4V3OU   H23  992   4.784   4.461   4.464 -0.8356  0.0203 -0.3670
    4V3OU    O8  993   4.821   4.352   4.629  0.2527 -0.1217  0.3846
    4V3OU   H24  994   4.733   4.310   4.623 -0.6469  1.3227  2.2292
    4V3OU    C1  995   4.334   4.453   4.766 -0.1750  0.1137 -0.3774
    4V3OU    H1  996   4.278   4.488   4.858 -2.7486 -1.0891 -1.4123
    4V3OU    O3  997   4.351   4.311   4.766 -0.3194  0.0975 -0.2289
    4V3OU   C19  998   4.358   4.251   4.896 -0.1239 -0.1928 -0.3758
    4V3OU    H9  999   4.377   4.327   4.977  0.4002 -1.0256  0.3032
    4V3OU    O4 1000   4.478   4.177   4.897  0.1905  0.3135  0.1840
    4V3OU   C20 1001   4.472   4.049   4.833  0.0472  0.1953  0.4337
    4V3OU   H10 1002   4.471   4.059   4.721  1.6246 -0.0189  0.3755
    4V3OU   C24 1003   4.229   4.173   4.921 -0.5469  0.4676 -0.4900
    4V3OU   H16 1004   4.140   4.235   4.892 -0.5105  0.4599 -0.6181
    4V3OU   H17 1005   4.232   4.153   5.031 -0.9048  0.3202 -0.5047
    4V3OU   C23 1006   4.228   4.039   4.847 -0.0404  0.3859 -0.3501
    4V3OU   H15 1007   4.234   4.058   4.735  3.6947 -0.0649 -0.3551
    4V3OU    N1 1008   4.104   3.981   4.894  0.1640 -0.4028 -0.7671
    4V3OU   H19 1009   4.082   4.014   4.985  0.1087 -2.8785  0.1832
    4V3OU   H20 1010   4.102   3.881   4.898 -1.4791 -0.3538  0.5905
    4V3OU   C21 1011   4.358   3.957   4.876 -0.1739  0.3702  0.2158
    4V3OU   H11 1012   4.356   3.873   4.800 -1.4395  2.2120 -1.8990
    4V3OU    O5 1013   4.387   3.903   5.004  0.0304  0.6276  0.2764
    4V3OU   H18 1014   4.325   3.830   5.017  0.6608  0.2422  1.2873
    4V3OU   C22 1015   4.607   3.986   4.865  0.1699  0.1781 -0.1086
    4V3OU   H12 1016   4.603   3.875   4.846  0.9651  0.0099  0.6371
    4V3OU   H13 1017   4.624   3.993   4.976 -1.3010 -2.3206  0.3548
    4V3OU   H14 1018   4.689   4.029   4.802  0.1926  0.6861  0.2677
    4V3OU   C11 1019   3.892   4.470   4.523  0.1777  0.2218  0.0524
    4V3OU    O1 1020   3.845   4.389   4.606 -0.0017 -0.1408 -0.3995
    4V3OU    C9 1021   4.036   4.502   4.534  0.1833  0.1646  0.1205
    4V3OU    C7 1022   4.111   4.470   4.647 -0.2883 -0.4489  0.2604
    4V3OU    O9 1023   4.050   4.434   4.766 -0.2956 -0.3984  0.2701
    4V3OU   H25 1024   3.965   4.412   4.726  0.1231  0.5070 -1.2145
    4V3OU   C17 1025   3.598   4.626   4.356  0.1039 -0.4139 -0.2080
    4V3OU    H7 1026   3.492   4.627   4.381  0.2725  1.1827  0.5335
    4V3OU   C18 1027   3.663   4.705   4.262  0.0334  0.0394  0.1216
    4V3OU    H8 1028   3.604   4.740   4.176 -0.8242  0.9681  1.0647
    5V3OU   H29 1029   6.768   5.361   5.950 -0.0939 -0.0389 -0.6517
    5V3OU   C27 1030   6.791   5.258   5.987 -0.3243  0.0480 -0.2578
    5V3OU   H27 1031   6.713   5.181   5.967 -1.5209  1.3498 -0.7466
    5V3OU   H28 1032   6.900   5.233   5.977  0.0296  1.0067  0.8846
    5V3OU   O11 1033   6.766   5.280   6.126  0.5350 -0.7760  0.0425
    5V3OU   C15 1034   6.808   5.193   6.224  0.0612 -0.8931  0.1456
    5V3OU   C13 1035   6.762   5.230   6.351  0.6601  0.5118 -0.0315
    5V3OU   C14 1036   6.824   5.181   6.467 -0.0125 -0.1870  0.0360
    5V3OU   C16 1037   6.945   5.116   6.446 -0.0308 -0.4718  0.8057
    5V3OU    H6 1038   7.011   5.099   6.533 -0.1726 -0.4896  0.9074
    5V3OU   C12 1039   6.758   5.173   6.599 -0.5306 -0.2759 -0.2301
    5V3OU    O2 1040   6.816   5.120   6.696 -0.5064 -0.4541 -0.3419
    5V3OU   C10 1041   6.638   5.256   6.619 -0.2783  0.0602 -0.1458
    5V3OU    C8 1042   6.582   5.271   6.745 -0.1962 -0.9131  0.0100
    5V3OU   O10 1043   6.642   5.245   6.865  0.1535  0.2012  0.0893
    5V3OU   H26 1044   6.728   5.212   6.835  0.2642  0.3608  0.2313
    5V3OU    C6 1045   6.452   5.329   6.761  0.0559 -0.2187 -0.4162
    5V3OU    C5 1046   6.377   5.361   6.649 -0.1056 -0.2423 -0.3135
    5V3OU    C4 1047   6.392   5.343   6.897 -0.0458  0.1587 -0.5031
    5V3OU    H4 1048   6.412   5.246   6.950 -0.1906 -1.3139 -2.9948
    5V3OU    H5 1049   6.453   5.416   6.958  0.3759 -0.7882  0.2231
    5V3OU    C2 1050   6.243   5.380   6.903 -0.0698 -0.0503  0.2434
    5V3OU    O6 1051   6.159   5.266   6.885 -0.1214 -0.0004  0.1712
    5V3OU   H21 1052   6.150   5.253   6.789  1.2693 -3.1210  0.3331
    5V3OU    C3 1053   6.196   5.461   6.782 -0.6535 -0.3322  0.2825
    5V3OU    H2 1054   6.084   5.460   6.782 -0.6788  0.9524  0.6346
    5V3OU    H3 1055   6.235   5.565   6.793 -1.0880 -0.1671  0.3006
    5V3OU   C25 1056   6.211   5.450   7.035 -0.8979 -0.1200  0.0807
    5V3OU    O7 1057   6.176   5.567   7.045 -0.8257 -0.0864 -0.0668
    5V3OU   C26 1058   6.208   5.354   7.154  0.0874 -0.2555  0.0029
    5V3OU   H22 1059   6.146   5.266   7.125  2.2990 -1.5051 -1.1833
    5V3OU   H23 1060   6.163   5.406   7.243  0.1348 -0.5794  0.2161
    5V3OU    O8 1061   6.335   5.325   7.207  0.2715  0.9382  0.2541
    5V3OU   H24 1062   6.363   5.388   7.275 -0.8825  0.8984  0.7855
    5V3OU    C1 1063   6.233   5.402   6.647  0.0288  0.2691  0.2018
    5V3OU    H1 1064   6.205   5.473   6.564  0.0174 -0.7088 -0.6604
    5V3OU    O3 1065   6.158   5.280   6.640  0.0995  0.2367 -0.0129
    5V3OU   C19 1066   6.066   5.252   6.534  0.1024  0.4070 -0.0604
    5V3OU    H9 1067   5.981   5.325   6.538  1.1417  1.6143  1.5260
    5V3OU    O4 1068   6.009   5.131   6.577  0.0917  0.2454 -0.5240
    5V3OU   C20 1069   6.090   5.013   6.570  0.1460  0.2500  0.0035
    5V3OU   H10 1070   6.167   5.012   6.653 -0.5581 -2.5486  0.7382
    5V3OU   C24 1071   6.126   5.234   6.394 -0.1075  0.1161 -0.1135
    5V3OU   H16 1072   6.178   5.329   6.364 -1.3531  1.3009  1.2760
    5V3OU   H17 1073   6.038   5.220   6.326  0.2296  1.8730 -0.9829
    5V3OU   C23 1074   6.223   5.116   6.388 -0.1269  0.1054 -0.2050
    5V3OU   H15 1075   6.302   5.130   6.469 -0.1149 -1.5447  0.1019
    5V3OU    N1 1076   6.278   5.104   6.254  0.2886 -1.0688  0.0589
    5V3OU   H19 1077   6.237   5.182   6.206 -2.6693 -0.3474  3.3357
    5V3OU   H20 1078   6.233   5.018   6.230 -0.6282 -0.8829  1.0575
    5V3OU   C21 1079   6.156   4.984   6.436  0.6311 -0.0957  0.3132
    5V3OU   H11 1080   6.233   4.906   6.464 -1.2548 -2.5581 -1.0069
    5V3OU    O5 1081   6.074   4.930   6.333  0.0689  0.2703  0.5687
    5V3OU   H18 1082   6.058   4.835   6.339  0.7673 -0.0182 -1.3822
    5V3OU   C22 1083   5.992   4.904   6.614  0.2307  0.1992  0.0659
    5V3OU   H12 1084   5.910   4.888   6.540  1.2199 -2.0929 -0.6110
    5V3OU   H13 1085   5.954   4.923   6.717  2.8849 -0.3243  1.2301
    5V3OU   H14 1086   6.049   4.809   6.627  1.5864  0.9605 -0.0530
    5V3OU   C11 1087   6.636   5.303   6.373  0.5106  0.3017 -0.2152
    5V3OU    O1 1088   6.571   5.352   6.277  0.0126 -0.4181 -0.2547
    5V3OU    C9 1089   6.567   5.298   6.504  0.0524 -0.2801 -0.4735
    5V3OU    C7 1090   6.441   5.354   6.521  0.4358  0.4897 -0.0932
    5V3OU    O9 1091   6.380   5.422   6.417 -0.0102  0.5795  0.2259
    5V3OU   H25 1092   6.445   5.407   6.347  1.5279  0.2494  1.6463
    5V3OU   C17 1093   6.923   5.111   6.211  0.2932 -0.6331  0.5521
    5V3OU    H7 1094   6.935   5.060   6.115  1.1396  2.2955 -1.0227
    5V3OU   C18 1095   6.996   5.076   6.323 -0.0033 -0.4393  0.8074
    5V3OU    H8 1096   7.103   5.051   6.316 -0.0089 -0.6343  1.3268
    6V3OU   H29 1097   6.337   3.656   1.573 -2.2456  1.3695 -1.7792
    6V3OU   C27 1098   6.345   3.581   1.490 -0.1433 -0.2151 -0.2485
    6V3OU   H27 1099   6.259   3.529   1.442  1.0891 -3.9273  1.1308
    6V3OU   H28 1100   6.410   3.626   1.411 -2.3419 -1.9754 -3.2816
    6V3OU   O11 1101   6.413   3.466   1.543 -0.3840 -0.2136  0.0665
    6V3OU   C15 1102   6.435   3.345   1.481  0.2288 -0.0500 -0.0460
    6V3OU   C13 1103   6.478   3.245   1.570  0.4060  0.2152  0.1675
    6V3OU   C14 1104   6.550   3.132   1.530 -0.3429 -0.1513 -0.1631
    6V3OU   C16 1105   6.554   3.110   1.393 -0.3172 -0.4324 -0.1176
    6V3OU    H6 1106   6.603   3.018   1.358  1.4473  0.4854 -0.1299
    6V3OU   C12 1107   6.610   3.037   1.627  0.1688  0.2435 -0.0876
    6V3OU    O2 1108   6.701   2.956   1.598  0.3201  0.2582  0.3499
    6V3OU   C10 1109   6.580   3.057   1.769  0.2025  0.4141 -0.1038
    6V3OU    C8 1110   6.637   2.991   1.878  0.2609  0.7874  0.0961
    6V3OU   O10 1111   6.723   2.891   1.842 -0.6614  0.0799 -0.1984
    6V3OU   H26 1112   6.732   2.904   1.747  1.0856 -0.7810 -0.1937
    6V3OU    C6 1113   6.597   3.004   2.014 -0.3845 -0.3590  0.0330
    6V3OU    C5 1114   6.491   3.090   2.040  0.0831  0.1732  0.1976
    6V3OU    C4 1115   6.668   2.930   2.122 -0.3074  0.1221  0.3152
    6V3OU    H4 1116   6.701   2.830   2.082  0.9048  0.5029  0.3173
    6V3OU    H5 1117   6.759   2.994   2.143 -0.5555  1.0740 -1.4021
    6V3OU    C2 1118   6.590   2.912   2.253 -0.4507 -0.0061  0.2119
    6V3OU    O6 1119   6.499   2.807   2.219  0.1523 -0.3313 -0.4278
    6V3OU   H21 1120   6.419   2.861   2.212  1.4313  1.4305 -4.2948
    6V3OU    C3 1121   6.497   3.028   2.289 -0.2903  0.1742  0.0456
    6V3OU    H2 1122   6.432   3.000   2.375 -0.5383  1.6987  0.3808
    6V3OU    H3 1123   6.560   3.112   2.329  0.1492 -1.1445  2.2264
    6V3OU   C25 1124   6.688   2.869   2.362  0.0233  0.1753 -0.1391
    6V3OU    O7 1125   6.804   2.908   2.372  0.1141 -0.1313  0.0078
    6V3OU   C26 1126   6.654   2.753   2.454  0.1252 -0.0653 -0.4043
    6V3OU   H22 1127   6.734   2.737   2.531  0.7564 -0.9479 -1.2170
    6V3OU   H23 1128   6.638   2.660   2.394  1.4558 -0.0839 -0.7623
    6V3OU    O8 1129   6.527   2.770   2.513  0.1069  0.1263 -0.4983
    6V3OU   H24 1130   6.542   2.843   2.575 -2.0628  0.4489 -0.2832
    6V3OU    C1 1131   6.416   3.076   2.169 -0.4314 -0.6107 -0.1795
    6V3OU    H1 1132   6.364   3.173   2.197 -0.8521 -1.0940  0.7542
    6V3OU    O3 1133   6.321   2.974   2.138 -0.4501 -0.5700 -0.2562
    6V3OU   C19 1134   6.183   2.993   2.171 -0.2130 -0.1201  0.4999
    6V3OU    H9 1135   6.146   3.095   2.142  0.6328 -0.1393 -0.7134
    6V3OU    O4 1136   6.183   3.004   2.312 -0.3257  0.2576  0.4711
    6V3OU   C20 1137   6.185   2.885   2.392 -0.0362 -0.0302  0.0416
    6V3OU   H10 1138   6.286   2.841   2.367  0.4587  1.4502 -0.7390
    6V3OU   C24 1139   6.100   2.876   2.119  0.4791 -0.5294  0.3020
    6V3OU   H16 1140   6.132   2.850   2.014  1.1596  0.1179  0.3419
    6V3OU   H17 1141   5.992   2.905   2.115  0.2459 -1.4229 -0.3793
    6V3OU   C23 1142   6.106   2.753   2.209 -0.1583 -0.5322  0.3455
    6V3OU   H15 1143   6.212   2.710   2.203  0.4510  0.9702  0.0498
    6V3OU    N1 1144   6.023   2.652   2.147  0.3390 -0.3893 -0.5641
    6V3OU   H19 1145   5.936   2.681   2.107  1.1237  0.6684 -1.5813
    6V3OU   H20 1146   6.005   2.583   2.217  0.9024  1.6787  1.7491
    6V3OU   C21 1147   6.077   2.782   2.360 -0.1948  0.0776  0.2228
    6V3OU   H11 1148   6.104   2.684   2.410 -0.9636 -1.3791 -2.0399
    6V3OU    O5 1149   5.944   2.818   2.395 -0.2326 -0.1417  0.3039
    6V3OU   H18 1150   5.936   2.802   2.490 -0.3618 -0.0379  0.3107
    6V3OU   C22 1151   6.161   2.932   2.535  0.3857 -0.0676  0.1263
    6V3OU   H12 1152   6.184   2.849   2.607 -0.0611 -1.0776 -0.8545
    6V3OU   H13 1153   6.052   2.950   2.554  0.4564  0.2104  0.2728
    6V3OU   H14 1154   6.204   3.034   2.553 -0.2487 -0.0140  1.3984
    6V3OU   C11 1155   6.420   3.246   1.705  0.4517  0.9514  0.1854
    6V3OU    O1 1156   6.331   3.327   1.739 -0.1093  0.5287 -0.2711
    6V3OU    C9 1157   6.479   3.151   1.802 -0.3081 -0.0534 -0.3155
    6V3OU    C7 1158   6.434   3.166   1.933 -0.0409 -0.4425 -0.1775
    6V3OU    O9 1159   6.321   3.233   1.974  0.1638 -0.0133 -0.3086
    6V3OU   H25 1160   6.296   3.276   1.890  0.8316 -0.5023 -0.7628
    6V3OU   C17 1161   6.449   3.322   1.343 -0.4560 -0.0483 -0.1208
    6V3OU    H7 1162   6.423   3.399   1.270 -1.7092 -0.8655 -0.5700
    6V3OU   C18 1163   6.508   3.203   1.301  0.2463  0.1773  0.2123
    6V3OU    H8 1164   6.491   3.171   1.197 -1.1452  3.1871 -0.6048
    7V3OU   H29 1165   5.045   0.215   4.886  1.7207  3.5057 -0.6521
    7V3OU   C27 1166   4.940   0.250   4.902  0.5021  0.0182 -0.1542
    7V3OU   H27 1167   4.931   0.290   5.006 -0.1844  1.6209 -0.8000
    7V3OU   H28 1168   4.905   0.323   4.824  0.2281 -0.7371 -0.7518
    7V3OU   O11 1169   4.872   0.124   4.895 -0.4592  0.5221 -0.0184
    7V3OU   C15 1170   4.737   0.099   4.911 -0.5329  0.6324 -0.4584
    7V3OU   C13 1171   4.699  -0.034   4.883  0.6659  0.1125  0.2989
    7V3OU   C14 1172   4.579  -0.089   4.931  0.2959  0.5127 -0.1539
    7V3OU   C16 1173   4.497  -0.017   5.017  0.3027 -0.3152  0.5627
    7V3OU    H6 1174   4.401  -0.050   5.059 -0.2529  0.7360  0.1508
    7V3OU   C12 1175   4.535  -0.228   4.907 -0.3000  0.8620 -1.1270
    7V3OU    O2 1176   4.435  -0.284   4.958  0.7737 -0.4801 -0.4563
    7V3OU   C10 1177   4.615  -0.303   4.809 -0.0897 -0.1908 -0.1662
    7V3OU    C8 1178   4.571  -0.432   4.780 -0.4349 -0.0306 -0.3557
    7V3OU   O10 1179   4.455  -0.484   4.830  0.1430 -0.6667  0.3408
    7V3OU   H26 1180   4.415  -0.417   4.887 -1.5942 -0.4268 -1.0769
    7V3OU    C6 1181   4.646  -0.504   4.683 -0.5031 -0.1122 -0.3484
    7V3OU    C5 1182   4.748  -0.444   4.610 -0.0639 -0.1288  0.2542
    7V3OU    C4 1183   4.586  -0.634   4.642 -0.2823 -0.4281  0.3266
    7V3OU    H4 1184   4.535  -0.686   4.729  1.5210  0.2764  1.8794
    7V3OU    H5 1185   4.507  -0.607   4.567 -0.6807 -1.7198  0.2430
    7V3OU    C2 1186   4.685  -0.729   4.573 -0.0302 -0.2615  0.4550
    7V3OU    O6 1187   4.781  -0.774   4.668  0.3365  0.6147  0.5064
    7V3OU   H21 1188   4.846  -0.702   4.658  0.5177  0.2292 -1.4823
    7V3OU    C3 1189   4.774  -0.648   4.478 -0.2491 -0.1962  0.3031
    7V3OU    H2 1190   4.850  -0.713   4.428 -1.0619 -0.3967 -0.7124
    7V3OU    H3 1191   4.706  -0.612   4.396  0.1512 -0.7738 -0.2913
    7V3OU   C25 1192   4.603  -0.838   4.503 -0.0797  0.0730 -0.0197
    7V3OU    O7 1193   4.493  -0.817   4.454  0.1156 -0.3223 -0.6446
    7V3OU   C26 1194   4.668  -0.974   4.479  0.2053  0.1805  0.1285
    7V3OU   H22 1195   4.628  -1.003   4.378  1.0243 -2.3996  0.4719
    7V3OU   H23 1196   4.620  -1.051   4.545 -1.6629 -0.1307 -1.4990
    7V3OU    O8 1197   4.806  -0.998   4.489  0.1636 -0.0488  0.1415
    7V3OU   H24 1198   4.832  -1.091   4.473  0.3833  0.4241 -2.8738
    7V3OU    C1 1199   4.847  -0.527   4.533 -0.1790 -0.1659  0.1455
    7V3OU    H1 1200   4.894  -0.469   4.449 -2.1045  0.2536 -0.7053
    7V3OU    O3 1201   4.941  -0.580   4.627  0.2931 -0.5437 -0.5339
    7V3OU   C19 1202   5.051  -0.532   4.704 -0.4465 -0.3538  0.4302
    7V3OU    H9 1203   5.026  -0.434   4.754 -2.2983 -0.7085  0.2674
    7V3OU    O4 1204   5.150  -0.508   4.606 -0.6806  0.0228  0.2835
    7V3OU   C20 1205   5.214  -0.613   4.533  0.0781  0.6051  0.0915
    7V3OU   H10 1206   5.136  -0.674   4.478  0.7842 -0.2143 -0.0255
    7V3OU   C24 1207   5.097  -0.642   4.800  0.0796 -0.2602  0.2912
    7V3OU   H16 1208   5.006  -0.676   4.857 -0.5428  0.3189 -0.3304
    7V3OU   H17 1209   5.166  -0.592   4.873 -0.8225  1.2948  0.1470
    7V3OU   C23 1210   5.153  -0.760   4.721  0.2943 -0.0728  0.1618
    7V3OU   H15 1211   5.070  -0.794   4.651 -3.1751  0.4909  3.6758
    7V3OU    N1 1212   5.169  -0.855   4.828  0.0093 -0.1052  0.1782
    7V3OU   H19 1213   5.085  -0.907   4.843 -1.1637  1.3286 -1.1170
    7V3OU   H20 1214   5.194  -0.815   4.916  0.3959  0.2218 -0.0761
    7V3OU   C21 1215   5.274  -0.705   4.639 -0.0210  0.5450  0.0974
    7V3OU   H11 1216   5.317  -0.797   4.588  2.2013  0.2591  2.2499
    7V3OU    O5 1217   5.377  -0.646   4.717 -0.0395  0.2596  0.3431
    7V3OU   H18 1218   5.344  -0.563   4.755 -0.7488 -0.5285  1.5122
    7V3OU   C22 1219   5.301  -0.556   4.422  0.4234 -0.0745  0.0074
    7V3OU   H12 1220   5.245  -0.475   4.369 -0.1293 -0.0597  0.5840
    7V3OU   H13 1221   5.331  -0.637   4.351  2.0716 -0.1423  0.7514
    7V3OU   H14 1222   5.384  -0.497   4.467  0.9381 -1.2043  0.5834
    7V3OU   C11 1223   4.760  -0.104   4.769 -0.0957  0.5309 -0.3773
    7V3OU    O1 1224   4.837  -0.052   4.684  0.6527 -0.4732 -0.3327
    7V3OU    C9 1225   4.722  -0.243   4.738 -0.1638  0.4133  0.2210
    7V3OU    C7 1226   4.791  -0.310   4.638 -0.3041 -0.0944  0.4629
    7V3OU    O9 1227   4.889  -0.259   4.555 -0.3044  0.0664  0.5623
    7V3OU   H25 1228   4.893  -0.166   4.584 -0.4799  0.8738 -1.8440
    7V3OU   C17 1229   4.650   0.168   4.997 -0.2971  0.1606  0.1658
    7V3OU    H7 1230   4.664   0.270   5.032 -2.3402  0.3296  0.5988
    7V3OU   C18 1231   4.536   0.111   5.054 -0.2163 -0.0285  0.1398
    7V3OU    H8 1232   4.476   0.165   5.129 -0.0681  1.6183 -0.8764
    8V3OU   H29 1233   3.528   0.918   5.286 -1.2811 -1.0352 -1.6250
    8V3OU   C27 1234   3.531   0.840   5.367 -0.8263  0.2807 -0.3125
    8V3OU   H27 1235   3.633   0.801   5.387 -0.5081  2.1233  2.1109
    8V3OU   H28 1236   3.487   0.880   5.462 -2.0996  0.5165 -0.9674
    8V3OU   O11 1237   3.454   0.725   5.330 -0.1688 -0.5131  0.7696
    8V3OU   C15 1238   3.318   0.730   5.314 -0.0354 -0.0931 -0.2686
    8V3OU   C13 1239   3.245   0.610   5.299 -0.1697 -0.0037 -0.3375
    8V3OU   C14 1240   3.128   0.593   5.224 -0.0223 -0.3914 -0.4784
    8V3OU   C16 1241   3.072   0.703   5.160 -0.4810 -0.1168  0.3842
    8V3OU    H6 1242   2.998   0.696   5.079 -0.7523 -0.5382  0.6634
    8V3OU   C12 1243   3.062   0.463   5.198  0.0668 -0.4641 -0.3403
    8V3OU    O2 1244   2.964   0.456   5.120  0.1175 -0.2753 -0.4205
    8V3OU   C10 1245   3.116   0.346   5.269  0.1173 -0.0938  0.2432
    8V3OU    C8 1246   3.051   0.225   5.251  0.4075 -0.1913 -0.1743
    8V3OU   O10 1247   2.941   0.206   5.172  0.6577  0.6030 -0.7212
    8V3OU   H26 1248   2.923   0.281   5.114  1.6032  1.2556 -0.1995
    8V3OU    C6 1249   3.092   0.111   5.329 -0.2673 -0.0538  0.3908
    8V3OU    C5 1250   3.194   0.130   5.420 -0.3519  0.0883  0.4558
    8V3OU    C4 1251   3.029  -0.024   5.317 -0.3027  0.0155 -0.2341
    8V3OU    H4 1252   2.926  -0.013   5.272 -0.0786 -1.6726 -1.2299
    8V3OU    H5 1253   3.094  -0.074   5.239  0.4365  1.0788 -0.3266
    8V3OU    C2 1254   3.021  -0.107   5.445 -0.0785  0.0438 -0.2009
    8V3OU    O6 1255   2.938  -0.033   5.535  0.5865  0.2304  0.2693
    8V3OU   H21 1256   3.003   0.031   5.568  0.2136  0.3076  0.8562
    8V3OU    C3 1257   3.162  -0.108   5.506 -0.1438 -0.2918 -0.0529
    8V3OU    H2 1258   3.164  -0.169   5.600 -0.4351  1.5379  1.1933
    8V3OU    H3 1259   3.228  -0.152   5.428  0.6352 -0.1622  0.5239
    8V3OU   C25 1260   2.955  -0.240   5.409  0.1694 -0.2577  0.4523
    8V3OU    O7 1261   2.931  -0.262   5.291 -0.0700  0.2074  0.4097
    8V3OU   C26 1262   2.920  -0.333   5.524 -0.2787 -0.8104 -0.1252
    8V3OU   H22 1263   2.856  -0.419   5.492  0.0499 -0.9024 -0.5311
    8V3OU   H23 1264   2.854  -0.280   5.598  0.4861 -0.9911  0.7087
    8V3OU    O8 1265   3.029  -0.381   5.600 -0.4193 -0.0665  0.5722
    8V3OU   H24 1266   3.068  -0.450   5.543 -0.2440  0.8292 -0.4083
    8V3OU    C1 1267   3.211   0.033   5.534 -0.2822 -0.2797  0.1337
    8V3OU    H1 1268   3.320   0.030   5.565 -0.3948  1.3949  0.8052
    8V3OU    O3 1269   3.123   0.086   5.633 -0.4078  0.2113 -0.2361
    8V3OU   C19 1270   3.177   0.120   5.762  0.4991 -0.4567 -0.4308
    8V3OU    H9 1271   3.275   0.174   5.769  0.1155 -0.0368  3.6545
    8V3OU    O4 1272   3.182  -0.003   5.831  0.1654 -0.2454 -0.0301
    8V3OU   C20 1273   3.064  -0.074   5.871 -0.3525  0.2084 -0.7229
    8V3OU   H10 1274   3.007  -0.104   5.778 -0.6454  0.8670 -0.7588
    8V3OU   C24 1275   3.080   0.210   5.839  0.6288 -0.3650 -0.3757
    8V3OU   H16 1276   3.069   0.306   5.783  2.8887 -0.5019 -1.1584
    8V3OU   H17 1277   3.136   0.227   5.935  0.3892  1.3645 -0.5187
    8V3OU   C23 1278   2.947   0.143   5.872  0.3039  0.3382 -0.2379
    8V3OU   H15 1279   2.897   0.111   5.775 -0.7746 -2.6574  1.1604
    8V3OU    N1 1280   2.885   0.258   5.934  0.2950 -0.0919  0.5743
    8V3OU   H19 1281   2.946   0.335   5.911 -0.1229  0.4475  1.2436
    8V3OU   H20 1282   2.907   0.239   6.029 -1.6021 -1.5347  0.7657
    8V3OU   C21 1283   2.969   0.012   5.954  0.2187  0.3444 -0.2054
    8V3OU   H11 1284   2.868  -0.039   5.953  1.2059 -1.7466  0.9802
    8V3OU    O5 1285   3.001   0.034   6.091 -0.1084 -0.3324 -0.0140
    8V3OU   H18 1286   2.930   0.017   6.155 -1.1842 -0.4643 -1.1966
    8V3OU   C22 1287   3.117  -0.197   5.942 -0.0833  0.4678 -0.4736
    8V3OU   H12 1288   3.158  -0.168   6.043 -1.8185  1.5556 -0.0495
    8V3OU   H13 1289   3.203  -0.242   5.885  2.7188  1.9567  2.2424
    8V3OU   H14 1290   3.035  -0.273   5.952 -0.3150  0.9021  1.4389
    8V3OU   C11 1291   3.294   0.493   5.374 -0.5779  0.1891  0.2418
    8V3OU    O1 1292   3.345   0.510   5.486 -0.4138 -0.1017  0.2112
    8V3OU    C9 1293   3.227   0.362   5.355 -0.1395 -0.0817  0.5698
    8V3OU    C7 1294   3.263   0.254   5.436 -0.0044 -0.1051  0.4782
    8V3OU    O9 1295   3.382   0.249   5.505  0.1073 -0.1265  0.2831
    8V3OU   H25 1296   3.409   0.341   5.516 -0.4727 -0.0999  1.6235
    8V3OU   C17 1297   3.253   0.838   5.249 -0.4843 -0.4710 -0.4553
    8V3OU    H7 1298   3.305   0.933   5.244 -1.0421 -0.1423 -0.0256
    8V3OU   C18 1299   3.132   0.826   5.182 -0.7029  0.0917 -0.1590
    8V3OU    H8 1300   3.090   0.921   5.146 -0.4843  0.0026 -0.6534
    9V3OU   H29 1301   1.282   0.103   4.755 -1.5289  1.2906  1.6979
    9V3OU   C27 1302   1.335   0.028   4.819  0.0587  0.9288  0.0278
    9V3OU   H27 1303   1.304  -0.076   4.792 -0.5831  0.5646  2.0127
    9V3OU   H28 1304   1.446   0.037   4.831  0.4297 -2.4280  0.0582
    9V3OU   O11 1305   1.271   0.044   4.945 -0.2737  0.2547 -0.0522
    9V3OU   C15 1306   1.339   0.071   5.062 -0.0885  0.4651 -0.2093
    9V3OU   C13 1307   1.257   0.094   5.175  0.1012  1.0612 -0.1886
    9V3OU   C14 1308   1.301   0.080   5.307 -0.4932 -0.1553 -0.1028
    9V3OU   C16 1309   1.437   0.063   5.329 -0.5487 -0.0440  0.3391
    9V3OU    H6 1310   1.464   0.045   5.434 -0.1704 -0.0799  0.2405
    9V3OU   C12 1311   1.218   0.091   5.430  0.1011  0.3586  0.2585
    9V3OU    O2 1312   1.263   0.085   5.546  0.0268 -0.0076  0.2684
    9V3OU   C10 1313   1.081   0.139   5.408 -0.1415 -0.5207 -0.2015
    9V3OU    C8 1314   1.003   0.178   5.516  0.1442 -0.2354 -0.0983
    9V3OU   O10 1315   1.041   0.145   5.643  0.0282  0.1685  0.0392
    9V3OU   H26 1316   1.126   0.100   5.629  1.0064  0.6686  3.4986
    9V3OU    C6 1317   0.876   0.242   5.506 -0.0868 -0.6367  0.2359
    9V3OU    C5 1318   0.825   0.262   5.378  0.2289  0.4701  0.2761
    9V3OU    C4 1319   0.797   0.295   5.621 -0.1218 -0.2226  0.0222
    9V3OU    H4 1320   0.845   0.270   5.721 -2.2828  1.2077  1.4987
    9V3OU    H5 1321   0.807   0.407   5.612 -2.4895 -0.0117 -0.6354
    9V3OU    C2 1322   0.648   0.261   5.618 -0.1049 -0.2775 -0.1825
    9V3OU    O6 1323   0.646   0.118   5.622  0.4915 -0.2639  0.7462
    9V3OU   H21 1324   0.659   0.101   5.528  2.2343  0.7084  0.7495
    9V3OU    C3 1325   0.592   0.295   5.480 -0.0265 -0.5628 -0.2841
    9V3OU    H2 1326   0.487   0.257   5.469  0.4888 -2.3200  0.5591
    9V3OU    H3 1327   0.585   0.407   5.479 -0.7750 -0.5786  1.1405
    9V3OU   C25 1328   0.570   0.329   5.730  0.0009  0.2883 -0.4497
    9V3OU    O7 1329   0.599   0.439   5.776  0.7202  0.2057 -0.7013
    9V3OU   C26 1330   0.427   0.280   5.744  0.1343  0.0822  0.2525
    9V3OU   H22 1331   0.411   0.207   5.660  0.6628 -0.0515  0.2633
    9V3OU   H23 1332   0.355   0.366   5.738 -0.1294  0.0673  2.5294
    9V3OU    O8 1333   0.411   0.221   5.871 -0.0543  0.2029  0.2856
    9V3OU   H24 1334   0.325   0.178   5.868 -0.2560  0.4036  2.1448
    9V3OU    C1 1335   0.676   0.251   5.361  0.3214  0.0498 -0.2660
    9V3OU    H1 1336   0.640   0.303   5.267  0.2727 -1.2332 -0.9754
    9V3OU    O3 1337   0.636   0.114   5.357 -0.3868  0.2549 -0.2847
    9V3OU   C19 1338   0.608   0.024   5.250 -0.3989  0.5052 -0.4919
    9V3OU    H9 1339   0.700   0.001   5.188 -0.0678 -1.0323  0.5110
    9V3OU    O4 1340   0.535   0.099   5.155 -0.0600  0.8622 -0.4733
    9V3OU   C20 1341   0.395   0.118   5.170 -0.0977  0.3268 -0.1355
    9V3OU   H10 1342   0.373   0.182   5.261 -0.2598 -1.0041  0.8006
    9V3OU   C24 1343   0.531  -0.091   5.314  0.1757  0.2785 -0.2028
    9V3OU   H16 1344   0.571  -0.122   5.414  0.6015 -0.4682 -0.5942
    9V3OU   H17 1345   0.550  -0.175   5.242 -0.7757 -0.6712  0.6102
    9V3OU   C23 1346   0.382  -0.060   5.328  0.1066 -0.2379  0.2696
    9V3OU   H15 1347   0.373   0.031   5.397 -0.4373 -1.0926  1.3522
    9V3OU    N1 1348   0.313  -0.173   5.387 -0.1484  0.0089  0.4496
    9V3OU   H19 1349   0.375  -0.240   5.426  0.6920  0.4693 -0.0706
    9V3OU   H20 1350   0.275  -0.222   5.308  2.4140  0.1694 -1.0068
    9V3OU   C21 1351   0.322  -0.016   5.190  0.7498 -0.1126  0.0297
    9V3OU   H11 1352   0.215   0.009   5.217  0.7507  1.2807 -1.1383
    9V3OU    O5 1353   0.324  -0.116   5.089  0.3336  0.2383 -0.3290
    9V3OU   H18 1354   0.245  -0.094   5.037  1.9370  0.1472 -2.9981
    9V3OU   C22 1355   0.341   0.195   5.051 -0.2142  0.4263 -0.0198
    9V3OU   H12 1356   0.237   0.230   5.074 -0.9136 -0.7857 -1.2059
    9V3OU   H13 1357   0.323   0.124   4.966 -1.0129  0.5653  0.0268
    9V3OU   H14 1358   0.406   0.284   5.029  0.7369 -0.6181 -1.6370
    9V3OU   C11 1359   1.119   0.140   5.158 -0.3364 -0.2728 -0.3583
    9V3OU    O1 1360   1.079   0.185   5.049  0.0658  0.5430 -0.1763
    9V3OU    C9 1361   1.034   0.168   5.277 -0.0925 -0.3285 -0.1745
    9V3OU    C7 1362   0.907   0.223   5.268 -0.2245 -0.5585  0.2912
    9V3OU    O9 1363   0.860   0.275   5.149  0.0314  0.3005  0.5635
    9V3OU   H25 1364   0.918   0.233   5.084  0.7749  0.1709  1.2854
    9V3OU   C17 1365   1.476   0.052   5.087 -0.1914  0.2089  0.1592
    9V3OU    H7 1366   1.553   0.026   5.015  0.6792  2.3900  0.2068
    9V3OU   C18 1367   1.520   0.042   5.219 -0.7086 -0.4166  0.2873
    9V3OU    H8 1368   1.628   0.024   5.233 -1.0138 -1.2235  1.7307
   10V3OU   H29 1369   1.517   0.314   4.782 -0.6748 -1.1871 -3.0024
   10V3OU   C27 1370   1.435   0.390   4.780  0.4877  0.3541  0.6989
   10V3OU   H27 1371   1.457   0.490   4.734  2.2020  0.3645  1.4680
   10V3OU   H28 1372   1.351   0.349   4.719  3.4471 -3.2598 -1.3203
   10V3OU   O11 1373   1.366   0.405   4.905 -0.5617  0.3446  0.1325
   10V3OU   C15 1374   1.301   0.521   4.941  0.1337  0.8019 -0.0541
   10V3OU   C13 1375   1.250   0.507   5.072  0.4560  0.2689  0.0176
   10V3OU   C14 1376   1.129   0.564   5.113  0.2033 -0.2061 -0.0537
   10V3OU   C16 1377   1.056   0.631   5.015 -0.2935 -0.3256  0.2325
   10V3OU    H6 1378   0.947   0.633   5.027 -0.6751 -1.8754 -2.2515
   10V3OU   C12 1379   1.076   0.545   5.250 -0.2161 -0.4529 -0.2487
   10V3OU    O2 1380   0.963   0.585   5.284  0.2325  0.9201 -0.3089
   10V3OU   C10 1381   1.173   0.501   5.351 -0.1053 -0.0096 -0.1598
   10V3OU    C8 1382   1.135   0.497   5.485 -0.1652  0.7073 -0.1530
   10V3OU   O10 1383   1.013   0.540   5.525 -0.3733  0.1990 -0.2353
   10V3OU   H26 1384   0.988   0.573   5.437 -0.9270  0.5314  0.0403
   10V3OU    C6 1385   1.222   0.450   5.589 -0.5603  0.3569  0.0206
   10V3OU    C5 1386   1.349   0.407   5.553 -0.5341  0.2221  0.2816
   10V3OU    C4 1387   1.176   0.453   5.730  0.0821  0.4493  0.2319
   10V3OU    H4 1388   1.139   0.557   5.755  2.1909  1.7281 -1.5922
   10V3OU    H5 1389   1.091   0.378   5.737  1.2804 -0.8868  1.1428
   10V3OU    C2 1390   1.281   0.414   5.834  0.2693  0.0615 -0.1024
   10V3OU    O6 1391   1.370   0.519   5.875  0.1871  0.1190 -0.0736
   10V3OU   H21 1392   1.427   0.520   5.796 -0.8552 -1.0127 -0.8821
   10V3OU    C3 1393   1.384   0.315   5.780 -0.6462 -0.6921 -0.4917
   10V3OU    H2 1394   1.459   0.300   5.862 -0.5111  1.8969 -0.0503
   10V3OU    H3 1395   1.327   0.222   5.755  0.8208 -1.6859 -0.2982
   10V3OU   C25 1396   1.208   0.360   5.957  0.7477  0.0522  0.1802
   10V3OU    O7 1397   1.128   0.268   5.943  0.4875  0.2999  0.0164
   10V3OU   C26 1398   1.245   0.411   6.095 -0.0282  0.7832  0.1278
   10V3OU   H22 1399   1.164   0.372   6.163  0.5399  0.3773  0.5898
   10V3OU   H23 1400   1.248   0.523   6.096  0.3928  0.7762 -0.4370
   10V3OU    O8 1401   1.372   0.376   6.145  0.0530  0.3799 -0.3656
   10V3OU   H24 1402   1.397   0.287   6.115 -0.2228  0.2647 -0.2621
   10V3OU    C1 1403   1.452   0.359   5.652 -0.2800  0.1915  0.0009
   10V3OU    H1 1404   1.501   0.268   5.606 -1.2265 -0.7922  0.9280
   10V3OU    O3 1405   1.541   0.463   5.693  0.3911 -0.4266  0.1300
   10V3OU   C19 1406   1.684   0.457   5.678  0.4198 -0.1757  0.2951
   10V3OU    H9 1407   1.703   0.445   5.568 -0.3997  1.5451 -0.0704
   10V3OU    O4 1408   1.723   0.340   5.748  0.5397 -0.1423  0.2823
   10V3OU   C20 1409   1.726   0.352   5.890 -0.5134  0.1352  0.2905
   10V3OU   H10 1410   1.618   0.370   5.920 -0.4819  0.9781 -0.0886
   10V3OU   C24 1411   1.749   0.588   5.722 -0.5381  0.2598  0.4543
   10V3OU   H16 1412   1.688   0.670   5.678 -2.4601 -1.0872  0.4882
   10V3OU   H17 1413   1.851   0.579   5.675  0.0057  1.8613  1.2668
   10V3OU   C23 1414   1.755   0.598   5.875 -0.0744  0.3161  0.4337
   10V3OU   H15 1415   1.646   0.605   5.907  0.0859 -0.9317  1.2955
   10V3OU    N1 1416   1.829   0.721   5.898 -0.6052  0.6588  0.3234
   10V3OU   H19 1417   1.923   0.688   5.898 -0.5737  0.7480  0.5338
   10V3OU   H20 1418   1.814   0.780   5.819 -3.9622 -0.8034 -0.3228
   10V3OU   C21 1419   1.807   0.470   5.946 -0.2494  0.0518  0.0860
   10V3OU   H11 1420   1.776   0.478   6.055 -4.3835 -2.2791 -0.6812
   10V3OU    O5 1421   1.946   0.448   5.929 -0.3079  0.1621 -0.5518
   10V3OU   H18 1422   1.983   0.423   6.015  2.0475 -0.7616 -1.7506
   10V3OU   C22 1423   1.773   0.217   5.941 -0.0170  0.0622 -0.3467
   10V3OU   H12 1424   1.704   0.136   5.907 -0.8986  0.3519  0.6695
   10V3OU   H13 1425   1.792   0.224   6.052  0.3079  0.2062 -0.4109
   10V3OU   H14 1426   1.866   0.186   5.887 -1.3055  1.2193 -3.4291
   10V3OU   C11 1427   1.345   0.471   5.177  0.2409  0.1442  0.1696
   10V3OU    O1 1428   1.468   0.459   5.155  0.2541 -0.1488  0.3934
   10V3OU    C9 1429   1.305   0.457   5.319 -0.0752 -0.0773  0.0569
   10V3OU    C7 1430   1.394   0.417   5.418 -0.4583 -0.4494  0.2534
   10V3OU    O9 1431   1.524   0.382   5.390 -0.4366 -0.0412 -0.1633
   10V3OU   H25 1432   1.528   0.393   5.293  0.7028 -1.7390 -0.3571
   10V3OU   C17 1433   1.228   0.597   4.847  0.0505  0.7524 -0.0296
   10V3OU    H7 1434   1.265   0.609   4.745  2.4947 -1.6473  0.4529
   10V3OU   C18 1435   1.104   0.647   4.886  0.0829  0.4521  0.4668
   10V3OU    H8 1436   1.047   0.706   4.814  0.7999  0.1148 -0.3997
   11V3OU   H29 1437   5.183   5.337   0.775  0.0521 -0.5601  0.4717
   11V3OU   C27 1438   5.102   5.261   0.760  0.3239 -0.7372 -0.1288
   11V3OU   H27 1439   5.051   5.258   0.660  0.5024  0.8474 -0.2957
   11V3OU   H28 1440   5.142   5.164   0.797 -2.0255 -1.5648  0.3809
   11V3OU   O11 1441   5.002   5.312   0.848  0.2997  0.5391 -0.8652
   11V3OU   C15 1442   4.931   5.427   0.820 -0.3880  0.2600 -0.3134
   11V3OU   C13 1443   4.823   5.447   0.909 -0.7418 -0.3474 -0.5975
   11V3OU   C14 1444   4.760   5.570   0.927  0.1106  0.0656 -0.3504
   11V3OU   C16 1445   4.797   5.677   0.846  0.0852  0.3528  0.0161
   11V3OU    H6 1446   4.739   5.771   0.843 -0.1703  0.2366  0.9373
   11V3OU   C12 1447   4.679   5.599   1.047  0.4916 -0.0147 -0.0735
   11V3OU    O2 1448   4.619   5.709   1.058 -0.7045 -0.6342 -0.2099
   11V3OU   C10 1449   4.651   5.495   1.148 -0.9299  0.1758 -0.2571
   11V3OU    C8 1450   4.582   5.513   1.267  0.2255 -0.5358  0.5290
   11V3OU   O10 1451   4.555   5.639   1.311  0.1002 -0.2118 -0.4594
   11V3OU   H26 1452   4.573   5.694   1.233 -1.2068 -0.2967 -0.8413
   11V3OU    C6 1453   4.537   5.401   1.344 -0.0181 -0.3334  0.6824
   11V3OU    C5 1454   4.584   5.274   1.312  0.0836 -0.2215  0.3901
   11V3OU    C4 1455   4.456   5.421   1.467 -0.1081  0.1229  0.5501
   11V3OU    H4 1456   4.486   5.521   1.510  1.3188  0.1202 -0.4011
   11V3OU    H5 1457   4.348   5.435   1.437  0.0196 -1.7617 -0.9856
   11V3OU    C2 1458   4.471   5.311   1.572 -0.2608 -0.4384 -0.0106
   11V3OU    O6 1459   4.602   5.312   1.630  0.0127  0.0324 -0.6276
   11V3OU   H21 1460   4.658   5.251   1.580  2.0373  0.4627  1.0115
   11V3OU    C3 1461   4.460   5.174   1.504 -0.5565 -0.1533 -0.5402
   11V3OU    H2 1462   4.461   5.092   1.580 -0.0614  0.7197  0.4088
   11V3OU    H3 1463   4.359   5.176   1.454 -0.3884  2.6968 -0.9638
   11V3OU   C25 1464   4.368   5.328   1.684  0.3975 -0.3056  0.5779
   11V3OU    O7 1465   4.256   5.278   1.682  0.4111 -0.3227 -0.0823
   11V3OU   C26 1466   4.391   5.439   1.786  0.4991  0.1920  0.0188
   11V3OU   H22 1467   4.299   5.436   1.850  2.1805  2.7605  2.7720
   11V3OU   H23 1468   4.416   5.535   1.734 -1.5531  0.4082 -0.6452
   11V3OU    O8 1469   4.507   5.421   1.865  0.4799 -0.6523 -0.1299
   11V3OU   H24 1470   4.563   5.363   1.812 -0.3940 -2.2061  0.5606
   11V3OU    C1 1471   4.565   5.152   1.397  0.0481 -0.4177  0.1004
   11V3OU    H1 1472   4.534   5.067   1.330 -0.4843 -0.7976  0.8233
   11V3OU    O3 1473   4.682   5.123   1.474 -0.0988 -0.1298  0.4328
   11V3OU   C19 1474   4.765   5.007   1.473  0.2962  0.1523  0.5296
   11V3OU    H9 1475   4.769   4.967   1.368 -0.2467  0.5228  0.3649
   11V3OU    O4 1476   4.699   4.908   1.550 -0.0524 -0.1925 -0.2003
   11V3OU   C20 1477   4.700   4.923   1.692 -0.0251  0.4314 -0.2600
   11V3OU   H10 1478   4.649   5.021   1.714  2.8825  2.1175 -0.5548
   11V3OU   C24 1479   4.904   5.046   1.523  0.4977  0.3718 -0.1943
   11V3OU   H16 1480   4.944   5.133   1.465 -0.3491  0.0627 -1.2683
   11V3OU   H17 1481   4.978   4.965   1.502 -0.2293 -0.0450 -1.1984
   11V3OU   C23 1482   4.902   5.060   1.675 -0.3218  0.5848 -0.2232
   11V3OU   H15 1483   4.827   5.143   1.699  1.4798  2.3092 -0.3900
   11V3OU    N1 1484   5.036   5.104   1.707  0.0335 -0.2164 -0.5886
   11V3OU   H19 1485   5.087   5.029   1.748  2.1435  1.0227 -0.7486
   11V3OU   H20 1486   5.023   5.175   1.777  0.0034 -0.9084  0.1129
   11V3OU   C21 1487   4.843   4.933   1.745 -0.0338  0.4444 -0.2369
   11V3OU   H11 1488   4.843   4.958   1.855  0.0046 -1.0296  0.1180
   11V3OU    O5 1489   4.916   4.813   1.722  0.3489  0.4927  0.6760
   11V3OU   H18 1490   5.007   4.830   1.693 -0.5730  2.5294 -1.4166
   11V3OU   C22 1491   4.613   4.804   1.729  0.0707  0.3259 -0.3741
   11V3OU   H12 1492   4.669   4.709   1.707  0.2389  0.0906  1.0015
   11V3OU   H13 1493   4.517   4.806   1.672 -1.2180 -0.6842  1.6549
   11V3OU   H14 1494   4.597   4.801   1.840 -0.9382  0.6970 -0.5074
   11V3OU   C11 1495   4.765   5.338   0.989  0.0223 -0.1188  0.2875
   11V3OU    O1 1496   4.749   5.224   0.939  0.2368 -0.0021 -0.0541
   11V3OU    C9 1497   4.696   5.364   1.117 -0.0888  0.3719  0.1269
   11V3OU    C7 1498   4.669   5.255   1.198 -0.4345  0.2928 -0.0912
   11V3OU    O9 1499   4.716   5.128   1.169 -0.0566  0.4250 -0.0689
   11V3OU   H25 1500   4.745   5.150   1.079  0.4663  0.2751  0.0613
   11V3OU   C17 1501   4.961   5.537   0.737  0.2341 -0.3106 -0.8557
   11V3OU    H7 1502   5.038   5.518   0.662  0.9234  4.5704 -1.7281
   11V3OU   C18 1503   4.898   5.660   0.753 -0.2416 -0.6379 -0.1676
   11V3OU    H8 1504   4.944   5.745   0.701 -0.2465 -0.2168  0.5172
   12V3OU   H29 1505   0.347   5.275   6.088  0.0953 -1.6902 -0.1947
   12V3OU   C27 1506   0.303   5.212   6.170 -0.2739 -0.9849  0.1593
   12V3OU   H27 1507   0.268   5.110   6.141 -1.7686 -0.3962 -0.2006
   12V3OU   H28 1508   0.380   5.212   6.251  1.5689 -1.7073 -1.5189
   12V3OU   O11 1509   0.192   5.290   6.215  0.4283 -0.3168  0.7713
   12V3OU   C15 1510   0.180   5.358   6.334  0.5789  0.3431  0.4155
   12V3OU   C13 1511   0.071   5.447   6.333  0.3482  0.0587 -0.1166
   12V3OU   C14 1512   0.004   5.484   6.450  0.1255 -0.1713 -0.1717
   12V3OU   C16 1513   0.053   5.437   6.572  0.2046 -0.2628 -0.2394
   12V3OU    H6 1514  -0.013   5.450   6.659 -0.4966  1.2869 -0.9749
   12V3OU   C12 1515  -0.128   5.551   6.446 -0.2419 -0.9013 -0.3585
   12V3OU    O2 1516  -0.209   5.561   6.541 -0.1704  0.3848 -0.4168
   12V3OU   C10 1517  -0.166   5.601   6.313  0.1066 -0.1585 -0.1787
   12V3OU    C8 1518  -0.286   5.672   6.306  0.1123 -0.1802 -0.4668
   12V3OU   O10 1519  -0.384   5.661   6.400  0.3919  0.4188 -0.1023
   12V3OU   H26 1520  -0.331   5.642   6.479 -2.1174  1.2127  1.8910
   12V3OU    C6 1521  -0.321   5.740   6.185 -0.4625 -0.6199 -0.5470
   12V3OU    C5 1522  -0.237   5.740   6.075 -0.3066 -0.5137 -0.4271
   12V3OU    C4 1523  -0.446   5.821   6.187  0.0726  0.2027  0.5471
   12V3OU    H4 1524  -0.528   5.745   6.205  0.2503 -0.6208 -1.8119
   12V3OU    H5 1525  -0.448   5.891   6.276  1.9816  0.2582  0.5771
   12V3OU    C2 1526  -0.488   5.891   6.058 -0.1401 -0.0672  0.4688
   12V3OU    O6 1527  -0.544   5.807   5.957 -0.1624 -0.3221  0.6966
   12V3OU   H21 1528  -0.469   5.764   5.912 -0.6451 -1.0129  0.5345
   12V3OU    C3 1529  -0.356   5.939   5.996 -0.1822 -0.1721  0.2966
   12V3OU    H2 1530  -0.385   5.997   5.905 -0.5707 -0.4118  0.2657
   12V3OU    H3 1531  -0.305   6.006   6.070  1.5461  0.8576 -1.7153
   12V3OU   C25 1532  -0.585   6.006   6.084  0.2127  0.3175  0.0963
   12V3OU    O7 1533  -0.564   6.128   6.079 -0.1327  0.3709 -0.0645
   12V3OU   C26 1534  -0.710   5.963   6.158  0.0140  0.0430 -0.3944
   12V3OU   H22 1535  -0.755   5.872   6.112  1.4769 -1.3499  0.8302
   12V3OU   H23 1536  -0.788   6.044   6.152  0.0013  0.0734  0.0886
   12V3OU    O8 1537  -0.700   5.936   6.296 -0.1256 -0.2000 -0.4317
   12V3OU   H24 1538  -0.785   5.963   6.333  0.1179  4.9884 -2.8096
   12V3OU    C1 1539  -0.269   5.822   5.953 -0.3568 -0.1366 -0.1567
   12V3OU    H1 1540  -0.170   5.866   5.920 -0.0378 -0.1281  0.7722
   12V3OU    O3 1541  -0.322   5.742   5.847 -1.0125  0.5414 -0.3524
   12V3OU   C19 1542  -0.257   5.705   5.726  0.0363 -0.1570  0.4033
   12V3OU    H9 1543  -0.165   5.768   5.709 -0.7063  0.4024 -2.0286
   12V3OU    O4 1544  -0.335   5.765   5.624  0.0110 -0.6327  0.1390
   12V3OU   C20 1545  -0.461   5.701   5.606 -0.2025 -0.3249  0.5241
   12V3OU   H10 1546  -0.533   5.708   5.693 -1.7258  0.5270 -0.7486
   12V3OU   C24 1547  -0.232   5.554   5.711 -0.6786 -0.2941  0.5508
   12V3OU   H16 1548  -0.179   5.519   5.804  1.9516  2.6191  0.3288
   12V3OU   H17 1549  -0.166   5.542   5.621 -1.2082  1.8868 -0.1953
   12V3OU   C23 1550  -0.364   5.486   5.676 -0.3664 -0.3088 -0.6313
   12V3OU   H15 1551  -0.424   5.485   5.773  2.2035 -0.3772  1.0465
   12V3OU    N1 1552  -0.325   5.348   5.652  0.2947 -0.2195 -0.0948
   12V3OU   H19 1553  -0.289   5.356   5.559  0.5031  0.3221  0.0254
   12V3OU   H20 1554  -0.409   5.295   5.653  0.2056 -0.0798  0.6966
   12V3OU   C21 1555  -0.443   5.556   5.561 -0.6043 -0.1102 -0.3498
   12V3OU   H11 1556  -0.546   5.511   5.559 -1.7121  2.1777 -3.8173
   12V3OU    O5 1557  -0.384   5.536   5.433  0.1701 -0.0545 -0.0087
   12V3OU   H18 1558  -0.437   5.468   5.389 -0.9854 -0.6819  2.2208
   12V3OU   C22 1559  -0.524   5.785   5.496  0.0286 -0.6920  0.1066
   12V3OU   H12 1560  -0.521   5.893   5.526 -0.1780 -0.7639  0.3943
   12V3OU   H13 1561  -0.623   5.740   5.467  0.9077 -2.1334 -0.7410
   12V3OU   H14 1562  -0.459   5.787   5.406 -0.6094 -0.6848 -0.3621
   12V3OU   C11 1563   0.050   5.535   6.217  0.0531  0.3830  0.1780
   12V3OU    O1 1564   0.127   5.552   6.120  0.3427 -0.4614  0.2535
   12V3OU    C9 1565  -0.079   5.605   6.201 -0.0485  0.0933 -0.2890
   12V3OU    C7 1566  -0.112   5.671   6.083  0.3639  0.7145 -0.0617
   12V3OU    O9 1567  -0.041   5.647   5.967 -0.2630 -0.2756 -0.2544
   12V3OU   H25 1568   0.032   5.597   6.007 -1.3097 -0.0152  2.1303
   12V3OU   C17 1569   0.230   5.314   6.459  0.4884  0.1081  0.3701
   12V3OU    H7 1570   0.317   5.249   6.461  1.8541  1.7723 -1.0181
   12V3OU   C18 1571   0.167   5.358   6.575 -0.0568 -0.6195  0.3552
   12V3OU    H8 1572   0.195   5.320   6.675 -1.7487  2.0143  1.9444
   13V3OU   H29 1573   4.044   5.129   1.555  0.3009 -2.7895  1.3081
   13V3OU   C27 1574   4.042   5.072   1.459  0.2789  0.0398 -0.4761
   13V3OU   H27 1575   4.073   4.966   1.475 -3.2956 -0.8610  1.5280
   13V3OU   H28 1576   3.942   5.079   1.410  0.2223  1.0721 -0.2225
   13V3OU   O11 1577   4.134   5.133   1.367  0.6065  0.0236 -0.1623
   13V3OU   C15 1578   4.111   5.262   1.322  0.4247  0.1077  0.1710
   13V3OU   C13 1579   4.198   5.310   1.223  0.1337  0.0897 -0.0916
   13V3OU   C14 1580   4.188   5.441   1.173 -0.0497  0.0553 -0.1435
   13V3OU   C16 1581   4.096   5.524   1.234  0.0040  0.1780 -0.2304
   13V3OU    H6 1582   4.079   5.626   1.196 -2.5016 -0.3742 -0.7646
   13V3OU   C12 1583   4.266   5.491   1.057  1.0789 -0.4744  0.3725
   13V3OU    O2 1584   4.255   5.610   1.021 -0.4017 -0.3881  1.0311
   13V3OU   C10 1585   4.334   5.394   0.971  0.1957 -0.3872 -0.4332
   13V3OU    C8 1586   4.398   5.435   0.855  0.1029  0.2471 -0.2626
   13V3OU   O10 1587   4.409   5.567   0.822  0.0256  0.2213 -0.3908
   13V3OU   H26 1588   4.345   5.609   0.882  0.4538  0.2755  0.0368
   13V3OU    C6 1589   4.476   5.344   0.775 -0.2337  0.2966 -0.6494
   13V3OU    C5 1590   4.480   5.212   0.817  0.0755  0.4303 -0.2474
   13V3OU    C4 1591   4.560   5.393   0.662  0.2072  0.5128 -0.2324
   13V3OU    H4 1592   4.519   5.485   0.611  1.8449  0.1582 -2.3337
   13V3OU    H5 1593   4.663   5.424   0.697 -0.2381  3.3857 -1.2549
   13V3OU    C2 1594   4.576   5.288   0.552  0.1939  0.0052  0.2448
   13V3OU    O6 1595   4.449   5.249   0.499  0.2244 -0.3684  0.4363
   13V3OU   H21 1596   4.430   5.169   0.549  3.8239 -2.4345 -1.1430
   13V3OU    C3 1597   4.626   5.158   0.617  0.3429 -0.3986 -0.6596
   13V3OU    H2 1598   4.633   5.080   0.537  0.7172 -0.8593 -0.1852
   13V3OU    H3 1599   4.728   5.177   0.659 -0.1114 -0.0473  0.3322
   13V3OU   C25 1600   4.679   5.338   0.451  0.0540  0.3006  0.2463
   13V3OU    O7 1601   4.780   5.403   0.476  0.7461 -0.1449 -1.2255
   13V3OU   C26 1602   4.641   5.331   0.304  0.2601  0.1337  0.1995
   13V3OU   H22 1603   4.706   5.403   0.248  0.5687  0.7445  1.3180
   13V3OU   H23 1604   4.535   5.365   0.286  0.0875 -0.9904 -1.1814
   13V3OU    O8 1605   4.664   5.208   0.239 -0.2283  0.4339 -0.5723
   13V3OU   H24 1606   4.584   5.155   0.228  0.8211 -1.5564  0.6492
   13V3OU    C1 1607   4.536   5.105   0.728  0.0296  0.5675 -0.4401
   13V3OU    H1 1608   4.589   5.025   0.786 -0.8979  0.1685 -0.1238
   13V3OU    O3 1609   4.424   5.057   0.653  0.2856 -0.2392 -0.3179
   13V3OU   C19 1610   4.359   4.930   0.658 -0.7296  0.2685 -0.3526
   13V3OU    H9 1611   4.357   4.893   0.764  2.4350  0.4202 -0.1598
   13V3OU    O4 1612   4.439   4.839   0.587 -0.4307  0.0027  0.3193
   13V3OU   C20 1613   4.446   4.852   0.444  0.2912  0.5395  0.3945
   13V3OU   H10 1614   4.482   4.958   0.429  0.9307  0.6807  2.5534
   13V3OU   C24 1615   4.223   4.957   0.591 -0.9725  0.0009  0.0318
   13V3OU   H16 1616   4.188   5.059   0.622 -1.4649  0.0916 -0.8145
   13V3OU   H17 1617   4.148   4.880   0.620 -1.8513  1.6439  2.4912
   13V3OU   C23 1618   4.230   4.962   0.439  0.1418  0.0382  0.0702
   13V3OU   H15 1619   4.287   5.056   0.410 -0.6358  0.4832 -0.0685
   13V3OU    N1 1620   4.095   4.985   0.389  0.2619  0.7220  0.0475
   13V3OU   H19 1621   4.085   5.083   0.406 -2.6086  0.1083  2.8290
   13V3OU   H20 1622   4.044   4.940   0.462  0.3784  1.3176  0.5015
   13V3OU   C21 1623   4.309   4.844   0.376  0.3126 -0.0309  0.4153
   13V3OU   H11 1624   4.336   4.870   0.269 -0.0769  1.3225  0.6307
   13V3OU    O5 1625   4.236   4.722   0.369  0.0274  0.1724 -0.2365
   13V3OU   H18 1626   4.145   4.745   0.344 -1.8017 -0.6959  4.5046
   13V3OU   C22 1627   4.552   4.757   0.391 -0.0626  0.0087  0.6307
   13V3OU   H12 1628   4.652   4.805   0.405  0.4232 -0.7494 -0.1110
   13V3OU   H13 1629   4.531   4.736   0.283 -1.0232  1.0664  0.5946
   13V3OU   H14 1630   4.551   4.660   0.448 -0.6651 -0.9959 -1.0232
   13V3OU   C11 1631   4.277   5.216   1.143 -0.1182 -0.0791 -0.1403
   13V3OU    O1 1632   4.305   5.102   1.186  0.5472  0.1245 -0.0262
   13V3OU    C9 1633   4.347   5.262   1.021  0.4291 -0.1421  0.1509
   13V3OU    C7 1634   4.415   5.173   0.939 -0.2382 -0.0050 -0.5508
   13V3OU    O9 1635   4.463   5.053   0.988  0.2979  0.3324 -0.2486
   13V3OU   H25 1636   4.406   5.046   1.066  0.3232  0.0403 -0.2554
   13V3OU   C17 1637   4.017   5.348   1.383 -0.7127 -0.2550 -1.0289
   13V3OU    H7 1638   3.946   5.310   1.458  0.1354 -2.4390 -1.2449
   13V3OU   C18 1639   4.014   5.479   1.337  0.2530  0.1213 -0.0571
   13V3OU    H8 1640   3.947   5.554   1.380  0.3945  0.0637  0.2692
   14SOL     OW 1641   6.816   2.617   6.711  0.0476 -0.2745  0.1935
   14SOL    HW1 1642   6.850   2.523   6.709 -0.8730 -0.6373  0.9738
   14SOL    HW2 1643   6.770   2.634   6.798 -0.4220  0.6860 -0.2253
   15SOL     OW 1644   0.500   5.107   3.884  0.3689  0.8689 -0.2330
   15SOL    HW1 1645   0.591   5.142   3.908 -0.0396  2.3008 -0.6970
   15SOL    HW2 1646   0.443   5.182   3.851  0.0080 -0.5246 -3.0474
   16SOL     OW 1647   2.906   3.783   1.205 -0.1681  0.2659 -0.0403
   16SOL    HW1 1648   2.967   3.795   1.283  1.3937  0.6270 -1.2733
   16SOL    HW2 1649   2.958   3.788   1.120 -1.8431  0.0370 -1.1401
   17SOL     OW 1650   1.953   5.591   4.530 -0.6045 -0.3138 -0.0040
   17SOL    HW1 1651   1.913   5.677   4.563  3.9851  2.5243 -1.0530
   17SOL    HW2 1652   1.916   5.570   4.440 -0.9352  1.2617 -0.2731
   18SOL     OW 1653   6.253   5.176   4.225 -0.0124  0.0775 -0.1603
   18SOL    HW1 1654   6.264   5.249   4.157 -1.3137  0.0579 -0.4228
   18SOL    HW2 1655   6.272   5.088   4.182  0.6724  0.1855 -0.0849
   19SOL     OW 1656   2.715   0.490   5.245 -0.3498 -0.1034  0.3154
   19SOL    HW1 1657   2.802   0.508   5.199 -1.3285 -0.5446 -1.8284
   19SOL    HW2 1658   2.730   0.428   5.322  1.0813 -1.1600 -0.7614
   20SOL     OW 1659   0.964   4.283   4.829 -0.2149 -0.2034 -0.3412
   20SOL    HW1 1660   0.891   4.346   4.857 -0.7875 -0.6933 -0.6869
   20SOL    HW2 1661   1.035   4.281   4.898  0.3087  1.5755 -0.7805
   21SOL     OW 1662   5.950   4.451   5.381 -0.1334  0.7741 -0.3112
   21SOL    HW1 1663   5.925   4.357   5.360  1.9075 -0.1951  1.1909
   21SOL    HW2 1664   5.945   4.507   5.298  0.6843 -1.1593 -1.7353
   22SOL     OW 1665   2.008   0.738   3.089 -0.5520  0.0764  0.6661
   22SOL    HW1 1666   1.966   0.793   3.017 -2.2362  0.0795  1.6028
   22SOL    HW2 1667   1.994   0.641   3.070  0.5751  0.0013  0.1041
   23SOL     OW 1668   1.542   1.999   5.131 -0.2159 -0.3297 -0.1666
   23SOL    HW1 1669   1.630   2.039   5.157 -0.2233 -0.8991  0.7970
   23SOL    HW2 1670   1.544   1.974   5.034 -0.1335  1.7369 -0.7392
   24SOL     OW 1671   4.170   0.723   3.671 -0.1382 -0.8223  0.0526
   24SOL    HW1 1672   4.137   0.645   3.723 -0.2461 -0.8991 -0.1263
   24SOL    HW2 1673   4.139   0.808   3.715  1.3744 -0.8233  1.1691
   25SOL     OW 1674   5.624   3.161   1.640 -1.0407 -0.1550  0.2502
   25SOL    HW1 1675   5.712   3.114   1.629 -1.3054 -0.7366  0.5587
   25SOL    HW2 1676   5.639   3.257   1.662 -0.4852 -0.1797 -0.0147
   26SOL     OW 1677   5.657   6.277   0.071 -0.1474 -0.4548 -0.6077
   26SOL    HW1 1678   5.574   6.271   0.128  0.4956 -0.6845  0.3352
   26SOL    HW2 1679   5.737   6.279   0.131  0.5152  0.0878 -1.5002
   27SOL     OW 1680   6.894   2.850   3.756 -0.2910  0.1414 -0.2983
   27SOL    HW1 1681   6.980   2.817   3.718  0.6211  0.1112  1.6543
   27SOL    HW2 1682   6.869   2.795   3.836 -2.7321 -0.5464 -1.4481
   28SOL     OW 1683   2.368   2.328   5.003 -0.0726 -0.2433 -0.1100
   28SOL    HW1 1684   2.331   2.239   5.028  2.0032 -1.2344 -0.3694
   28SOL    HW2 1685   2.296   2.397   5.011 -1.4978 -1.7657  0.9744
   29SOL     OW 1686   6.278   1.872   0.482 -0.0810  0.3990  0.4275
   29SOL    HW1 1687   6.245   1.905   0.394 -0.9450  0.8364  0.8960
   29SOL    HW2 1688   6.317   1.948   0.533 -0.4333  0.3406  0.7909
   30SOL     OW 1689   3.296   1.500   0.842  0.1117 -0.1052  0.0768
   30SOL    HW1 1690   3.362   1.570   0.815 -0.9848  1.1198  0.4647
   30SOL    HW2 1691   3.274   1.511   0.939 -1.7315  0.4510 -0.3670
   31SOL     OW 1692   3.812   0.127   5.280  0.3252 -0.1222  0.1283
   31SOL    HW1 1693   3.712   0.122   5.275  0.2138  1.9212 -0.2857
   31SOL    HW2 1694   3.843   0.218   5.253  2.3673 -0.9390 -0.5111
   32SOL     OW 1695   5.126   0.454   5.005  0.1492  0.1063 -0.4559
   32SOL    HW1 1696   5.158   0.393   5.078  0.6413  0.8621 -0.0321
   32SOL    HW2 1697   5.131   0.549   5.036 -1.0983  0.3423 -0.9360
   33SOL     OW 1698   0.163   3.270   2.867  0.3584 -1.0544 -0.0675
   33SOL    HW1 1699   0.187   3.203   2.797  1.2282  0.5446 -1.3532
   33SOL    HW2 1700   0.229   3.264   2.942  1.8852 -0.1072 -1.2593
   34SOL     OW 1701   6.824   2.807   0.667  0.3786  0.0717 -0.6849
   34SOL    HW1 1702   6.920   2.779   0.670 -0.1038 -1.6581  1.8217
   34SOL    HW2 1703   6.768   2.737   0.712 -1.7971  2.0580 -0.1462
   35SOL     OW 1704   0.982   2.202   0.169  0.0635 -0.4283 -0.1457
   35SOL    HW1 1705   1.021   2.144   0.241 -1.2167 -0.1251  0.8464
   35SOL    HW2 1706   0.905   2.153   0.126 -0.3507  0.1050 -0.0230
   36SOL     OW 1707   5.225   1.508   2.130  0.3843 -0.1332 -0.0827
   36SOL    HW1 1708   5.250   1.552   2.043  1.6616  1.1855  0.8883
   36SOL    HW2 1709   5.126   1.514   2.143  0.0532 -1.0886 -1.7982
   37SOL     OW 1710   1.883   2.205   1.020 -0.7828  0.7901  0.3091
   37SOL    HW1 1711   1.808   2.139   1.025 -0.8360  0.7866 -0.3643
   37SOL    HW2 1712   1.915   2.211   0.925  0.2916  0.5493  0.6430
   38SOL     OW 1713   1.571   1.574   2.534  0.2876  0.2870  0.7615
   38SOL    HW1 1714   1.622   1.654   2.565  0.1695  1.0887 -0.9851
   38SOL    HW2 1715   1.483   1.570   2.582 -0.1864  1.8705  0.0781
   39SOL     OW 1716   3.215   6.868   0.547  0.5170  0.5501  0.2333
   39SOL    HW1 1717   3.196   6.837   0.454 -1.2298  0.6431  0.5344
   39SOL    HW2 1718   3.168   6.954   0.565 -1.9743 -1.0623  2.1990
   40SOL     OW 1719   5.569   1.158   5.308  0.6069  0.7123  0.3829
   40SOL    HW1 1720   5.491   1.165   5.246 -0.0947 -1.3674  0.9411
   40SOL    HW2 1721   5.540   1.175   5.402  1.1677  1.4457  0.4384
   41SOL     OW 1722   3.269   4.502   5.624  0.4494 -0.2904 -0.1896
   41SOL    HW1 1723   3.241   4.412   5.590  0.5139 -0.7317  0.8952
   41SOL    HW2 1724   3.188   4.557   5.641  0.4129 -0.0844 -0.9702
   42SOL     OW 1725   3.972   6.585   3.675 -0.5976  0.0452  0.0549
   42SOL    HW1 1726   4.067   6.560   3.693 -1.1595 -0.5306  2.6413
   42SOL    HW2 1727   3.969   6.665   3.614  1.5098 -0.0563 -0.2499
   43SOL     OW 1728   6.611   0.269   0.189  0.6213 -0.6156 -0.9646
   43SOL    HW1 1729   6.652   0.358   0.208 -4.7172  2.0059  0.1785
   43SOL    HW2 1730   6.585   0.226   0.276 -0.4783 -1.3122 -1.6153
   44SOL     OW 1731   4.225   2.407   5.313  0.0460  0.2743 -0.7214
   44SOL    HW1 1732   4.310   2.357   5.302 -0.5851 -0.4563 -2.7216
   44SOL    HW2 1733   4.245   2.501   5.341  1.2963 -0.6725  1.9475
   45SOL     OW 1734   5.716   4.948   1.435  0.2479  0.1628 -0.4650
   45SOL    HW1 1735   5.733   4.987   1.525 -0.8764 -0.0433 -0.1399
   45SOL    HW2 1736   5.771   4.996   1.366  0.0740  1.2600  0.1418
   46SOL     OW 1737   2.879   1.278   5.988  0.2221 -0.0509 -0.0350
   46SOL    HW1 1738   2.967   1.245   5.955 -1.0110 -2.1941 -1.4234
   46SOL    HW2 1739   2.812   1.204   5.987 -2.2375  1.9993 -1.3087
   47SOL     OW 1740   1.732   3.323   3.342 -0.0394 -0.5447  0.1031
   47SOL    HW1 1741   1.676   3.397   3.305 -0.7343 -1.5402 -0.9113
   47SOL    HW2 1742   1.786   3.357   3.418  0.2317  1.1883 -0.8160
   48SOL     OW 1743   4.770   0.831   3.719  0.0666  0.1710 -0.0718
   48SOL    HW1 1744   4.742   0.800   3.628  0.9130  2.8976 -1.3615
   48SOL    HW2 1745   4.722   0.916   3.741  1.1655  0.4703  1.2805
   49SOL     OW 1746   2.421   6.496   2.156 -0.0165  0.1948 -0.1616
   49SOL    HW1 1747   2.375   6.512   2.244 -1.8239  1.3136 -1.2625
   49SOL    HW2 1748   2.370   6.429   2.103  1.7956 -1.4960  0.1055
   50SOL     OW 1749   0.986   4.209   4.128  0.7962 -0.2927  0.1767
   50SOL    HW1 1750   1.028   4.170   4.210  1.9167 -0.6868 -0.5554
   50SOL    HW2 1751   0.951   4.136   4.070 -1.1150  0.0281  0.8291
   51SOL     OW 1752   1.708   0.095   2.536 -0.2685  0.6184 -0.6888
   51SOL    HW1 1753   1.797   0.134   2.562  1.1137  0.4416 -4.4188
   51SOL    HW2 1754   1.687   0.121   2.441 -4.0358  0.2228 -0.1163
   52SOL     OW 1755   0.148   2.192   5.536  0.3658  0.7779  0.1879
   52SOL    HW1 1756   0.109   2.177   5.626 -0.6267  0.4037 -0.2907
   52SOL    HW2 1757   0.232   2.137   5.527 -0.8341 -1.1316  0.0451
   53SOL     OW 1758   6.409   6.888   0.460 -0.2257  0.0453 -0.1060
   53SOL    HW1 1759   6.479   6.816   0.459 -0.2497 -0.0292  1.6332
   53SOL    HW2 1760   6.318   6.846   0.466 -0.3159  0.2023 -0.3492
   54SOL     OW 1761   6.851   2.502   2.543  0.2984 -0.0740 -0.4979
   54SOL    HW1 1762   6.930   2.443   2.560 -0.9802 -2.0371 -0.9943
   54SOL    HW2 1763   6.767   2.452   2.564 -0.9062  1.1895 -1.9996
   55SOL     OW 1764   2.620   2.991   1.620  0.4512 -0.1067 -0.3285
   55SOL    HW1 1765   2.611   3.081   1.576 -1.7698 -0.2752 -0.3394
   55SOL    HW2 1766   2.599   2.919   1.554 -1.1120 -0.4442  0.4977
   56SOL     OW 1767   6.974   4.378   1.678 -0.1202 -0.6445 -0.3655
   56SOL    HW1 1768   7.040   4.443   1.640 -0.9924  0.0812 -0.6787
   56SOL    HW2 1769   6.958   4.400   1.774 -0.0123 -0.7323 -0.3274
   57SOL     OW 1770   0.383   5.404   0.973  0.4440  0.1286 -0.1682
   57SOL    HW1 1771   0.347   5.481   0.920  1.3881  1.2082  0.7052
   57SOL    HW2 1772   0.399   5.433   1.067  0.4422 -1.2669  0.2874
   58SOL     OW 1773   0.910   6.673   0.400 -0.1189 -0.2653 -0.4814
   58SOL    HW1 1774   0.960   6.677   0.486  2.0339  0.6695 -1.6745
   58SOL    HW2 1775   0.840   6.602   0.405 -0.1529 -0.1333  2.0482
   59SOL     OW 1776   4.176   4.503   6.696 -0.0065  0.3915  0.1926
   59SOL    HW1 1777   4.154   4.439   6.769 -1.4987 -0.2030 -0.7384
   59SOL    HW2 1778   4.272   4.491   6.670 -0.2253 -1.4963  0.0596
   60SOL     OW 1779   2.069   2.321   2.655 -0.0518  0.2590 -0.5514
   60SOL    HW1 1780   2.147   2.259   2.664 -1.5748 -1.9843 -1.8076
   60SOL    HW2 1781   2.014   2.316   2.738 -0.5472 -0.6853 -0.9179
   61SOL     OW 1782   0.712   3.436   1.711 -0.4186  0.6023 -0.0104
   61SOL    HW1 1783   0.714   3.502   1.636 -2.1418 -0.3379 -0.9813
   61SOL    HW2 1784   0.805   3.413   1.739  0.3322  0.3751 -2.4536
   62SOL     OW 1785   6.936   5.974   6.953  0.3759  0.6907  0.1606
   62SOL    HW1 1786   6.849   5.984   7.001 -0.2630  1.0307 -1.0230
   62SOL    HW2 1787   6.947   5.880   6.922  0.6219  0.5536  0.6658
   63SOL     OW 1788   2.683   0.030   2.255  0.0417 -0.0992  0.0322
   63SOL    HW1 1789   2.677  -0.062   2.216 -2.5590  0.0060  0.0361
   63SOL    HW2 1790   2.621   0.091   2.206  0.1309  1.1509  1.4051
   64SOL     OW 1791   1.595   5.709   6.157 -0.1965  0.5606 -0.4167
   64SOL    HW1 1792   1.514   5.673   6.204 -0.7205 -0.1390 -1.7824
   64SOL    HW2 1793   1.572   5.796   6.113 -0.5157 -0.0812 -1.5750
   65SOL     OW 1794   3.720   6.682   1.029 -0.0764 -0.7336  0.1664
   65SOL    HW1 1795   3.777   6.763   1.014 -2.9215  1.1448 -1.5576
   65SOL    HW2 1796   3.778   6.602   1.044  2.9047  1.2824  0.2092
   66SOL     OW 1797   5.800   5.114   2.747  0.2143 -0.1636  0.4854
   66SOL    HW1 1798   5.898   5.127   2.760  0.2536  0.8988 -0.7187
   66SOL    HW2 1799   5.770   5.033   2.797  1.6800 -0.4405  0.9504
   67SOL     OW 1800   5.218   1.651   6.502 -0.1169  0.1523  0.0540
   67SOL    HW1 1801   5.296   1.667   6.441  0.7915 -1.6964  0.6403
   67SOL    HW2 1802   5.191   1.555   6.497  1.2328 -0.6163  3.8396
   68SOL     OW 1803   3.051   2.729   4.704 -0.0839 -0.1378  0.1392
   68SOL    HW1 1804   3.094   2.698   4.789  0.7066  0.3710 -0.0731
   68SOL    HW2 1805   3.047   2.829   4.703 -0.6984 -0.1555 -0.1349
   69SOL     OW 1806   6.178   4.014   0.932  0.2546 -0.4602 -0.0820
   69SOL    HW1 1807   6.147   4.094   0.982  1.3093  0.4220 -0.7834
   69SOL    HW2 1808   6.263   4.036   0.883 -1.2302 -0.9179 -3.1068
   70SOL     OW 1809   1.896   2.325   6.375 -0.1967  0.0645 -0.5274
   70SOL    HW1 1810   1.809   2.368   6.399 -0.9273 -1.4933 -0.2795
   70SOL    HW2 1811   1.968   2.360   6.435 -1.0489 -0.0858  0.6213
   71SOL     OW 1812   2.546   1.790   6.881  0.0425  0.8785 -0.4613
   71SOL    HW1 1813   2.458   1.743   6.887  1.1646 -1.2394  0.0700
   71SOL    HW2 1814   2.586   1.774   6.791 -0.0274  1.7305 -0.6541
   72SOL     OW 1815   3.812   2.151   4.413 -0.4292 -0.2512  0.4879
   72SOL    HW1 1816   3.773   2.060   4.401 -1.7835  0.4428 -0.6579
   72SOL    HW2 1817   3.740   2.216   4.437  0.4816  0.5615  1.1243
   73SOL     OW 1818   0.119   2.592   3.361 -0.1197  0.2109  0.2952
   73SOL    HW1 1819   0.131   2.689   3.343  1.0389 -0.2386 -1.6649
   73SOL    HW2 1820   0.177   2.565   3.437  1.3386  0.6414 -0.6314
   74SOL     OW 1821   5.449   5.216   1.012  1.0026  0.1274 -0.0759
   74SOL    HW1 1822   5.427   5.250   0.920 -1.2441  0.0870  0.3916
   74SOL    HW2 1823   5.430   5.118   1.016 -0.5787  0.4447  0.8697
   75SOL     OW 1824   2.463   2.324   0.699 -0.5788  0.1158  0.6863
   75SOL    HW1 1825   2.544   2.275   0.731 -0.9025  0.5965  2.3621
   75SOL    HW2 1826   2.442   2.297   0.605  2.0783  0.7055 -0.1738
   76SOL     OW 1827   5.120   0.001   6.695 -0.9385  0.0185 -0.0340
   76SOL    HW1 1828   5.119   0.008   6.595 -2.2402  1.1058  0.0383
   76SOL    HW2 1829   5.176  -0.078   6.722 -0.4193 -0.1768 -1.6038
   77SOL     OW 1830   5.712   5.881   0.817  0.4083  0.2791 -0.3588
   77SOL    HW1 1831   5.717   5.836   0.728 -0.0313  1.8769 -1.2318
   77SOL    HW2 1832   5.662   5.823   0.881  1.5956 -1.3436 -0.8324
   78SOL     OW 1833   0.103   3.106   4.801  0.2771  0.4571 -0.1963
   78SOL    HW1 1834   0.160   3.094   4.720 -0.9565 -1.8273 -0.8278
   78SOL    HW2 1835   0.068   3.016   4.830 -1.0913  1.4957  1.5269
   79SOL     OW 1836   5.843   6.221   4.530  0.1283 -0.8309  0.5631
   79SOL    HW1 1837   5.899   6.201   4.610  0.4363  0.4311  0.6908
   79SOL    HW2 1838   5.749   6.238   4.558  0.4861  0.8679  0.8561
   80SOL     OW 1839   3.860   3.150   5.685 -0.4839 -0.3077  0.1796
   80SOL    HW1 1840   3.883   3.054   5.666 -1.0155 -0.1402 -1.4418
   80SOL    HW2 1841   3.933   3.209   5.650 -1.4661  0.0092 -1.4117
   81SOL     OW 1842   5.533   1.473   5.509  0.2412 -0.2058  0.5460
   81SOL    HW1 1843   5.535   1.378   5.538  1.6105  0.1130  1.5782
   81SOL    HW2 1844   5.478   1.527   5.572 -0.2128 -0.2334  0.1808
   82SOL     OW 1845   3.005   2.563   1.141 -0.1694  0.0521  0.0509
   82SOL    HW1 1846   3.094   2.539   1.178 -0.4495 -0.3497  0.4755
   82SOL    HW2 1847   2.937   2.496   1.170 -0.5652  0.2079 -0.4807
   83SOL     OW 1848   3.412   5.968   4.267  0.0536  0.2037  0.3401
   83SOL    HW1 1849   3.401   5.950   4.169 -1.2240 -1.8623  0.8080
   83SOL    HW2 1850   3.499   5.929   4.298  0.0698  0.1372  0.2100
   84SOL     OW 1851   1.744   6.477   3.547  0.0010  0.0283 -0.6012
   84SOL    HW1 1852   1.829   6.523   3.574 -1.1921  1.9965  0.0401
   84SOL    HW2 1853   1.684   6.468   3.627 -0.8042 -0.3931 -1.2341
   85SOL     OW 1854   4.585   1.300   0.066 -0.4543  0.3189 -0.2562
   85SOL    HW1 1855   4.581   1.348   0.153  0.7024  0.2613 -0.1655
   85SOL    HW2 1856   4.498   1.311   0.018 -0.0362  3.0184 -0.5127
   86SOL     OW 1857   1.809   3.577   1.205  0.4916  0.3142  0.4603
   86SOL    HW1 1858   1.782   3.542   1.294  0.3644  0.6401  0.5540
   86SOL    HW2 1859   1.842   3.503   1.148 -3.6927 -0.8345 -0.8715
   87SOL     OW 1860   6.633   6.259   6.230  0.1571  0.3839 -0.0588
   87SOL    HW1 1861   6.580   6.218   6.156  0.7201 -0.5797  0.0536
   87SOL    HW2 1862   6.660   6.188   6.295 -0.7526  1.2860  1.3586
   88SOL     OW 1863   6.948   4.761   4.271 -0.0026  0.1766 -0.0046
   88SOL    HW1 1864   6.954   4.750   4.172  0.3290  0.5359 -0.0270
   88SOL    HW2 1865   7.026   4.814   4.304 -0.3393  0.4398  0.3887
   89SOL     OW 1866   2.301   5.957   3.157 -0.0746 -0.3208  0.7057
   89SOL    HW1 1867   2.318   5.882   3.222  2.7395  0.6775  1.2747
   89SOL    HW2 1868   2.365   5.948   3.080 -0.2992  1.0243  0.3494
   90SOL     OW 1869   4.777   3.247   5.495  0.2050  0.1446  0.0239
   90SOL    HW1 1870   4.775   3.299   5.580  0.7409  2.2809 -1.1915
   90SOL    HW2 1871   4.696   3.189   5.488  1.5276 -2.3795  3.2846
   91SOL     OW 1872   0.513   0.583   1.528 -0.4763  0.5456  0.0378
   91SOL    HW1 1873   0.562   0.530   1.597 -1.0331 -1.5470 -1.1026
   91SOL    HW2 1874   0.433   0.626   1.571 -0.7699 -0.6523  0.7432
   92SOL     OW 1875   5.856   1.479   4.764 -0.6030  0.1442  0.0500
   92SOL    HW1 1876   5.828   1.548   4.830  2.0180  2.5429 -1.1031
   92SOL    HW2 1877   5.924   1.419   4.806 -0.9043 -0.0347  0.2849
   93SOL     OW 1878   1.692   6.610   3.221 -0.1995 -0.4842 -0.3796
   93SOL    HW1 1879   1.752   6.605   3.140  0.2721  0.3525 -0.0990
   93SOL    HW2 1880   1.744   6.584   3.302  0.0678  1.0767 -0.0087
   94SOL     OW 1881   0.943   6.744   3.234  0.1371 -0.0256 -0.3413
   94SOL    HW1 1882   0.881   6.684   3.284  1.0347  0.1244  1.0103
   94SOL    HW2 1883   1.037   6.713   3.248  0.6392  1.7394  0.5186
   95SOL     OW 1884   1.741   2.481   2.209  0.2033  1.1932  0.8122
   95SOL    HW1 1885   1.741   2.560   2.269  0.1377  1.8506 -0.0424
   95SOL    HW2 1886   1.664   2.487   2.145  1.4968  1.6487 -0.7990
   96SOL     OW 1887   3.039   5.293   2.111 -0.0946  0.4567  0.6669
   96SOL    HW1 1888   3.134   5.312   2.133  0.6493 -1.7896 -0.3035
   96SOL    HW2 1889   3.015   5.338   2.024  0.1720  0.7537  0.7460
   97SOL     OW 1890   1.396   4.605   4.262 -0.3260  0.1977 -0.4160
   97SOL    HW1 1891   1.363   4.522   4.307 -1.7744  0.4072 -1.0510
   97SOL    HW2 1892   1.462   4.580   4.191 -0.6555 -0.3886 -0.5217
   98SOL     OW 1893   0.912   0.547   2.577 -0.1373  0.2431 -0.0239
   98SOL    HW1 1894   0.995   0.535   2.522 -0.2804  0.1781 -0.2256
   98SOL    HW2 1895   0.920   0.493   2.661  0.2085  0.5782  0.1625
   99SOL     OW 1896   4.900   2.807   0.729 -0.2730 -0.0479 -0.1375
   99SOL    HW1 1897   4.989   2.785   0.688  0.2500  0.4974  0.6642
   99SOL    HW2 1898   4.910   2.815   0.828 -1.1785  0.2281 -0.0598
  100SOL     OW 1899   5.893   5.587   1.962 -0.7048  0.2089 -0.2979
  100SOL    HW1 1900   5.825   5.533   2.013  0.5372 -0.5635  0.5851
  100SOL    HW2 1901   5.880   5.572   1.864 -0.7746 -1.2412 -0.0969
  101SOL     OW 1902   0.998   0.779   5.710 -0.8045  0.5614  0.1987
  101SOL    HW1 1903   1.027   0.804   5.618  1.0933  0.5422  0.7429
  101SOL    HW2 1904   0.962   0.686   5.709 -0.7128  0.5240 -0.5093
  102SOL     OW 1905   3.930   0.602   6.809  0.1143 -0.5030 -0.1916
  102SOL    HW1 1906   3.857   0.565   6.753  0.4730 -2.0910  0.3431
  102SOL    HW2 1907   3.937   0.701   6.794 -2.6433 -0.1583  0.3298
  103SOL     OW 1908   5.208   2.177   2.354  0.4750 -0.0251  0.2018
  103SOL    HW1 1909   5.199   2.211   2.447 -0.1322 -1.7854  0.8290
  103SOL    HW2 1910   5.295   2.129   2.345  1.0074  1.0420 -0.4600
  104SOL     OW 1911   4.560   6.059   0.135  0.1807  0.2144  1.2299
  104SOL    HW1 1912   4.648   6.014   0.120  0.9101  1.7219  0.8116
  104SOL    HW2 1913   4.575   6.155   0.158 -1.3855  0.8645 -0.2324
  105SOL     OW 1914   2.437   0.512   3.779 -0.1406 -0.2280 -0.2068
  105SOL    HW1 1915   2.532   0.512   3.809  0.7459  2.2656 -2.6000
  105SOL    HW2 1916   2.430   0.475   3.687 -1.4868 -0.2549 -0.1251
  106SOL     OW 1917   6.140   4.807   5.369  0.4798  0.1600 -0.0876
  106SOL    HW1 1918   6.202   4.730   5.383 -0.6195 -0.6587  0.4765
  106SOL    HW2 1919   6.054   4.774   5.329 -0.3698  0.9184  1.0227
  107SOL     OW 1920   4.833   4.458   0.346  0.6255  0.1134 -0.0231
  107SOL    HW1 1921   4.760   4.448   0.414 -0.5468 -1.1711 -1.3865
  107SOL    HW2 1922   4.913   4.405   0.374 -0.6354 -2.2470 -0.6141
  108SOL     OW 1923   5.426   3.339   6.682 -0.9596  0.1332 -0.2762
  108SOL    HW1 1924   5.443   3.412   6.747  0.2535 -0.1556 -0.2403
  108SOL    HW2 1925   5.501   3.335   6.615 -2.2123  0.4858 -1.7635
  109SOL     OW 1926   5.798   4.780   0.874  0.1975 -0.1472  0.2861
  109SOL    HW1 1927   5.778   4.866   0.921 -0.8107 -0.9926  1.4839
  109SOL    HW2 1928   5.733   4.710   0.905  1.4417 -1.5231 -0.1203
  110SOL     OW 1929   4.503   2.085   5.625  0.1163 -0.4753  1.2369
  110SOL    HW1 1930   4.518   2.058   5.530 -1.0917 -1.1303  1.2218
  110SOL    HW2 1931   4.465   2.177   5.628  0.7584 -0.1993  1.1272
  111SOL     OW 1932   6.069   3.712   0.663  0.1938 -0.2570  0.7313
  111SOL    HW1 1933   6.032   3.624   0.690  2.3907 -0.4684  3.4764
  111SOL    HW2 1934   6.163   3.701   0.630 -0.3697  0.8066 -1.4309
  112SOL     OW 1935   3.975   1.581   4.447 -0.0567  0.0195  0.7281
  112SOL    HW1 1936   3.998   1.624   4.360  1.4766  1.3516  1.7356
  112SOL    HW2 1937   4.014   1.488   4.449 -2.3504 -1.0770 -0.9778
  113SOL     OW 1938   5.602   3.620   3.456 -0.0019  0.0490  0.0581
  113SOL    HW1 1939   5.650   3.689   3.510 -1.0380  1.1293 -0.3605
  113SOL    HW2 1940   5.507   3.613   3.488 -0.0293 -0.8671 -0.1986
  114SOL     OW 1941   0.605   3.321   3.271  0.3535 -0.0039 -0.3484
  114SOL    HW1 1942   0.679   3.333   3.205 -0.1997  0.8702 -0.8323
  114SOL    HW2 1943   0.608   3.396   3.338 -1.9807  1.9444 -2.2529
  115SOL     OW 1944   0.360   0.238   3.475 -0.6127 -0.2017 -0.3489
  115SOL    HW1 1945   0.326   0.331   3.487 -0.9395 -0.2277 -1.0196
  115SOL    HW2 1946   0.351   0.211   3.379  0.4112 -0.5640 -0.3595
  116SOL     OW 1947   2.824   1.444   5.661 -0.0954 -0.8363  0.2941
  116SOL    HW1 1948   2.820   1.500   5.744 -2.0493 -1.7906  0.9123
  116SOL    HW2 1949   2.828   1.347   5.686  2.0322 -1.0741 -0.7584
  117SOL     OW 1950   5.644   0.634   3.189  0.1576  0.4440  0.8392
  117SOL    HW1 1951   5.592   0.606   3.108  1.2684 -0.3339  0.3718
  117SOL    HW2 1952   5.680   0.726   3.175  1.6947 -0.2885 -0.2633
  118SOL     OW 1953   4.823   3.000   0.538 -0.2970 -0.3126 -0.0479
  118SOL    HW1 1954   4.755   3.069   0.562 -0.0876 -0.2919  0.4974
  118SOL    HW2 1955   4.855   2.954   0.622  1.3396  0.5873 -0.1528
  119SOL     OW 1956   4.087   6.325   2.752  0.3237 -0.4174 -0.7489
  119SOL    HW1 1957   4.018   6.261   2.720 -1.0912  0.6831  0.0072
  119SOL    HW2 1958   4.047   6.388   2.820  1.3706  1.8875 -2.1264
  120SOL     OW 1959   5.068   5.202   4.278  0.1580 -0.8266 -0.1025
  120SOL    HW1 1960   5.153   5.247   4.305  0.0748 -1.3484  1.1352
  120SOL    HW2 1961   5.066   5.189   4.179  0.6891  0.8201 -0.3471
  121SOL     OW 1962   1.734   6.579   5.526  0.0936 -0.5001  0.4082
  121SOL    HW1 1963   1.773   6.500   5.479  0.8483  0.5287 -0.7552
  121SOL    HW2 1964   1.727   6.560   5.624  2.1474 -1.2783  0.4538
  122SOL     OW 1965   3.175   5.436   5.850 -0.2677 -0.3190 -0.1736
  122SOL    HW1 1966   3.234   5.463   5.773  1.3139 -2.2863  0.2777
  122SOL    HW2 1967   3.095   5.497   5.853 -0.2650 -0.0065 -3.1881
  123SOL     OW 1968   2.151   2.325   2.143 -0.0441 -0.0343  0.2722
  123SOL    HW1 1969   2.088   2.334   2.066  1.2752  1.0863 -0.7182
  123SOL    HW2 1970   2.171   2.415   2.180  0.0680 -0.4900  1.3343
  124SOL     OW 1971   5.498   1.385   4.890 -0.5403 -0.4548 -0.5174
  124SOL    HW1 1972   5.548   1.393   4.803 -1.0359 -0.3021 -0.7951
  124SOL    HW2 1973   5.512   1.294   4.929 -1.9896 -1.2797 -1.8112
  125SOL     OW 1974   0.358   2.013   5.490 -0.2964 -0.3030 -0.5046
  125SOL    HW1 1975   0.312   1.941   5.439 -0.7140  0.4364 -1.1892
  125SOL    HW2 1976   0.453   2.019   5.460  0.1623 -1.5518  0.6142
  126SOL     OW 1977   1.436   4.626   6.456  0.6724 -0.0998 -0.1668
  126SOL    HW1 1978   1.410   4.530   6.453  2.2051 -0.6229  1.3746
  126SOL    HW2 1979   1.507   4.643   6.388 -0.7150  0.3746 -1.5637
  127SOL     OW 1980   4.368   1.221   0.927  0.1891  0.5571 -0.0766
  127SOL    HW1 1981   4.371   1.246   0.830 -0.1915 -1.1389 -0.5565
  127SOL    HW2 1982   4.429   1.281   0.979 -0.0262  1.8643 -1.2653
  128SOL     OW 1983   6.105   1.764   0.665  0.0928 -0.2480  0.4715
  128SOL    HW1 1984   6.168   1.795   0.594 -0.3769 -1.3300 -0.4422
  128SOL    HW2 1985   6.144   1.784   0.755  2.2852 -1.8868 -0.0383
  129SOL     OW 1986   6.132   3.735   3.981  0.4864 -0.5838 -0.2940
  129SOL    HW1 1987   6.041   3.768   4.006  0.1787 -1.0014 -0.8521
  129SOL    HW2 1988   6.158   3.660   4.042  1.2755  0.7802  1.1144
  130SOL     OW 1989   1.813   2.202   2.288  0.4513  0.1127  0.0384
  130SOL    HW1 1990   1.779   2.292   2.260  0.3150  0.1012  0.1638
  130SOL    HW2 1991   1.868   2.162   2.214 -0.5626 -0.2642 -0.5352
  131SOL     OW 1992   2.288   0.549   0.406 -0.0422  0.4210  0.7193
  131SOL    HW1 1993   2.191   0.540   0.386  0.3244 -0.3814 -0.8045
  131SOL    HW2 1994   2.320   0.469   0.457  0.5239 -1.1133 -1.8662
  132SOL     OW 1995   0.054   6.483   1.539  0.0344  0.3924 -0.4066
  132SOL    HW1 1996   0.050   6.538   1.455  0.5416 -0.3391 -0.9238
  132SOL    HW2 1997  -0.030   6.429   1.547  1.0868 -1.6167 -1.9341
  133SOL     OW 1998   5.802   4.316   2.720  0.0161 -1.2098 -0.0164
  133SOL    HW1 1999   5.842   4.241   2.773  0.6529 -1.5651 -0.9693
  133SOL    HW2 2000   5.852   4.401   2.740 -0.7984 -0.9887  1.1734
  134SOL     OW 2001   1.554   5.130   3.559  0.0181  0.0721 -0.6351
  134SOL    HW1 2002   1.643   5.091   3.533  0.7039  1.6877 -0.8402
  134SOL    HW2 2003   1.481   5.078   3.516  0.9568  0.0495 -2.3058
  135SOL     OW 2004   6.531   2.646   5.001  0.1490 -0.2202 -0.7124
  135SOL    HW1 2005   6.505   2.553   5.027 -0.6345  0.0579 -0.4737
  135SOL    HW2 2006   6.449   2.703   4.998  0.8423  0.9440  1.0978
  136SOL     OW 2007   4.696   0.521   2.965  0.5161 -0.3751 -0.5812
  136SOL    HW1 2008   4.740   0.497   3.051  1.8101  1.4396 -0.6681
  136SOL    HW2 2009   4.600   0.546   2.981  0.5277 -0.8122  0.1923
  137SOL     OW 2010   2.971   1.046   3.319 -0.0883  0.2183 -0.0456
  137SOL    HW1 2011   2.899   1.114   3.309 -0.0697  0.1298 -0.8994
  137SOL    HW2 2012   2.934   0.955   3.296  0.3506  0.2069 -0.7230
  138SOL     OW 2013   3.939   4.094   0.963 -0.0374 -0.7238 -0.1315
  138SOL    HW1 2014   3.850   4.138   0.973  0.1464 -0.0296 -1.4291
  138SOL    HW2 2015   4.012   4.163   0.967  0.4661 -1.2833  0.9131
  139SOL     OW 2016   5.380   1.206   2.603  0.4264  0.1108 -0.3095
  139SOL    HW1 2017   5.290   1.229   2.568  0.2366  1.0961  0.7667
  139SOL    HW2 2018   5.439   1.177   2.528 -0.2719  1.1196 -1.2715
  140SOL     OW 2019   4.567   4.929   5.757  0.2934  0.0005  0.1918
  140SOL    HW1 2020   4.535   4.865   5.687 -0.3417  0.0063  0.4730
  140SOL    HW2 2021   4.501   5.004   5.767 -0.0988 -0.4755  1.4311
  141SOL     OW 2022   4.137   4.465   0.816  0.3458 -0.1681 -0.4241
  141SOL    HW1 2023   4.198   4.523   0.870  1.0016  0.3709 -1.7071
  141SOL    HW2 2024   4.175   4.452   0.725 -1.3117 -0.0752 -1.1631
  142SOL     OW 2025   0.421   2.658   3.153  0.4878 -0.0701 -0.0446
  142SOL    HW1 2026   0.419   2.560   3.132 -0.7204 -0.3933  1.4033
  142SOL    HW2 2027   0.424   2.671   3.252  1.5465  1.3747 -0.2357
  143SOL     OW 2028   2.583   5.750   3.392 -0.0839 -0.9086  0.1268
  143SOL    HW1 2029   2.599   5.711   3.482 -0.1703 -1.8498 -0.2618
  143SOL    HW2 2030   2.670   5.765   3.346  0.0533  0.7430  0.8236
  144SOL     OW 2031   6.822   1.925   2.545  0.5135 -0.2125 -0.7524
  144SOL    HW1 2032   6.811   1.920   2.644  1.4111 -0.1721 -0.6458
  144SOL    HW2 2033   6.903   1.873   2.517  0.1852 -0.3493 -1.4838
  145SOL     OW 2034   5.369   0.872   0.197 -0.3653  0.9164  0.3338
  145SOL    HW1 2035   5.338   0.933   0.125 -1.7416  0.0769  0.1897
  145SOL    HW2 2036   5.415   0.926   0.268 -1.3620  2.0962  0.1168
  146SOL     OW 2037   1.967   3.759   1.499  0.2714  0.1828  0.0616
  146SOL    HW1 2038   1.913   3.735   1.579 -0.9585  2.1205 -0.1223
  146SOL    HW2 2039   2.010   3.848   1.513  0.9276  0.0582 -1.0189
  147SOL     OW 2040   5.097   1.044   3.582 -0.4489 -0.1372 -0.1261
  147SOL    HW1 2041   5.031   1.004   3.519  0.1371  1.4476 -1.8340
  147SOL    HW2 2042   5.049   1.093   3.654 -1.1577 -2.8868  1.4408
  148SOL     OW 2043   1.861   3.068   6.988 -0.0230  0.5920 -0.2531
  148SOL    HW1 2044   1.950   3.025   7.000 -0.7010 -0.7405  0.2926
  148SOL    HW2 2045   1.812   3.068   7.075 -1.5508 -1.0981 -1.0308
  149SOL     OW 2046   1.714   4.847   0.489  0.3807  0.6631 -0.6414
  149SOL    HW1 2047   1.693   4.773   0.552 -0.1143  0.8262 -0.6134
  149SOL    HW2 2048   1.779   4.815   0.420  0.0256  0.1473 -0.7381
  150SOL     OW 2049   2.739   0.236   6.363 -0.0040 -0.4081  0.2397
  150SOL    HW1 2050   2.647   0.210   6.337 -0.3304  1.0194 -0.1344
  150SOL    HW2 2051   2.738   0.276   6.455  0.1867 -0.1102  0.1150
  151SOL     OW 2052   0.013   1.041   4.242 -0.6762  0.0838 -0.5014
  151SOL    HW1 2053   0.081   1.113   4.227 -0.8797  0.1513 -1.1554
  151SOL    HW2 2054  -0.035   1.057   4.328 -0.9844  0.9498 -0.8285
  152SOL     OW 2055   0.217   3.571   3.228 -0.1347  0.1178 -0.6385
  152SOL    HW1 2056   0.257   3.565   3.320  0.0517 -1.2137 -0.7804
  152SOL    HW2 2057   0.244   3.657   3.186  0.3330  0.4540  0.3069
  153SOL     OW 2058   5.625   1.528   2.511 -0.1080  0.2772  0.3247
  153SOL    HW1 2059   5.574   1.569   2.435 -0.6026 -0.5677  0.1916
  153SOL    HW2 2060   5.570   1.534   2.594 -1.0534 -1.7912 -0.0699
  154SOL     OW 2061   6.179   6.962   5.373  0.6070  0.2074 -0.0394
  154SOL    HW1 2062   6.237   6.995   5.298  0.1881  0.8965 -0.0686
  154SOL    HW2 2063   6.132   7.040   5.415 -0.7664 -0.3870 -0.4119
  155SOL     OW 2064   5.486   2.358   3.044  0.1173  0.0225  0.0135
  155SOL    HW1 2065   5.521   2.331   3.133 -0.0091  1.1487  0.4272
  155SOL    HW2 2066   5.559   2.352   2.976  0.1497 -1.0771  0.1261
  156SOL     OW 2067   6.293   2.135   5.122  0.4189  0.5788 -0.4331
  156SOL    HW1 2068   6.329   2.185   5.044 -0.3743 -0.1244 -1.2730
  156SOL    HW2 2069   6.208   2.089   5.097 -1.7077  3.0058  1.7422
  157SOL     OW 2070   3.562   2.984   4.901  0.0666  0.6835  0.2107
  157SOL    HW1 2071   3.601   3.070   4.868  0.9311 -0.4824 -2.0071
  157SOL    HW2 2072   3.606   2.907   4.855 -1.4901 -0.9219  1.2581
  158SOL     OW 2073   3.135   5.017   2.074 -0.4275  0.0663 -0.5155
  158SOL    HW1 2074   3.062   5.043   2.011 -2.7999 -1.2190  1.5017
  158SOL    HW2 2075   3.169   5.098   2.121 -0.3979  0.7036 -1.5896
  159SOL     OW 2076   2.695   2.684   0.693  0.0312  0.3413 -0.0998
  159SOL    HW1 2077   2.751   2.633   0.758  0.1069  0.9712  0.3359
  159SOL    HW2 2078   2.744   2.693   0.606 -0.4731 -1.3640 -0.5994
  160SOL     OW 2079   1.430   6.090   5.450 -0.0714 -0.0459 -0.1650
  160SOL    HW1 2080   1.477   6.177   5.463 -0.2762  0.3997 -2.0701
  160SOL    HW2 2081   1.467   6.044   5.370 -0.6160 -1.2743  0.2658
  161SOL     OW 2082   1.447   1.421   0.750 -0.0482  0.4145  0.1503
  161SOL    HW1 2083   1.388   1.394   0.674  1.1496 -1.2694 -0.2387
  161SOL    HW2 2084   1.418   1.510   0.784 -2.3998 -0.0589 -0.4185
  162SOL     OW 2085   5.049   5.423   0.351 -0.2950 -0.0184  0.6001
  162SOL    HW1 2086   5.007   5.452   0.265  0.7527  0.9379  0.3894
  162SOL    HW2 2087   4.989   5.448   0.427 -1.2636 -0.9347  0.1672
  163SOL     OW 2088   5.168   3.915   1.261  0.3392  0.1184 -0.4923
  163SOL    HW1 2089   5.149   3.942   1.355  0.3389 -2.0648  0.2081
  163SOL    HW2 2090   5.113   3.969   1.198 -0.0802  1.2310  0.7965
  164SOL     OW 2091   0.319   3.428   4.673 -0.1823 -0.3163 -0.4017
  164SOL    HW1 2092   0.311   3.497   4.601 -0.4413 -1.4959 -1.5441
  164SOL    HW2 2093   0.328   3.337   4.631  1.5780 -0.8693  1.0165
  165SOL     OW 2094   6.869   4.463   5.091 -0.3461 -0.0726 -0.2399
  165SOL    HW1 2095   6.858   4.548   5.039  1.8211 -0.0223 -0.6945
  165SOL    HW2 2096   6.962   4.458   5.128  0.0421 -2.8590 -1.3478
  166SOL     OW 2097   4.042   1.141   2.937  0.1658  0.3243 -0.6965
  166SOL    HW1 2098   4.078   1.234   2.949  1.2013 -0.1061 -0.3247
  166SOL    HW2 2099   4.064   1.109   2.845  0.1350  0.3092 -0.6983
  167SOL     OW 2100   3.399   4.675   6.074 -0.1634 -0.2370 -0.0880
  167SOL    HW1 2101   3.324   4.733   6.106  0.5794  0.9824 -0.5121
  167SOL    HW2 2102   3.366   4.613   6.003 -1.5052 -1.9770  1.8954
  168SOL     OW 2103   1.665   2.670   1.311 -0.5043 -0.0267 -0.1382
  168SOL    HW1 2104   1.665   2.584   1.362  0.8475  0.4311  0.7016
  168SOL    HW2 2105   1.753   2.716   1.323 -0.7066  0.8436 -1.6709
  169SOL     OW 2106   3.587   3.397   5.183 -0.0508 -0.0840  0.5936
  169SOL    HW1 2107   3.526   3.476   5.193  1.2777  1.4758 -2.2053
  169SOL    HW2 2108   3.612   3.388   5.086  2.9426 -1.5619  1.4183
  170SOL     OW 2109   2.688   1.819   3.389  0.3221  0.5326 -0.1735
  170SOL    HW1 2110   2.741   1.832   3.305  1.7087 -1.1341  0.3901
  170SOL    HW2 2111   2.593   1.844   3.373  1.2916  4.3853 -1.0453
  171SOL     OW 2112   0.479   4.191   1.806  0.0423  0.0382 -0.1413
  171SOL    HW1 2113   0.420   4.260   1.765 -1.0886  0.2539  1.7165
  171SOL    HW2 2114   0.423   4.114   1.838  0.6607  0.3934  1.9458
  172SOL     OW 2115   2.573   1.528   3.197  0.0457 -0.1532 -0.4367
  172SOL    HW1 2116   2.484   1.485   3.213 -0.3897  0.7117 -0.4697
  172SOL    HW2 2117   2.559   1.623   3.167  0.9883  1.5585  3.8745
  173SOL     OW 2118   0.179   2.073   2.181  0.1413  0.4966 -0.3466
  173SOL    HW1 2119   0.241   2.004   2.218 -1.2975 -0.4776  0.3788
  173SOL    HW2 2120   0.214   2.107   2.094 -0.3333 -3.0546 -2.0861
  174SOL     OW 2121   2.991   3.994   0.464 -0.1017 -0.0540 -0.0444
  174SOL    HW1 2122   3.075   4.003   0.517  0.4023 -2.5616 -0.2958
  174SOL    HW2 2123   2.998   3.916   0.402 -2.0695  0.5806 -1.1745
  175SOL     OW 2124   5.850   6.204   3.986  0.0194 -0.5136 -0.1262
  175SOL    HW1 2125   5.771   6.238   3.935  1.7852  1.6665 -1.6481
  175SOL    HW2 2126   5.897   6.134   3.932 -0.5512 -1.4209  0.5363
  176SOL     OW 2127   3.335   4.070   0.737  0.0612  0.1566  0.1369
  176SOL    HW1 2128   3.243   4.107   0.745  0.6100  1.3696  1.0981
  176SOL    HW2 2129   3.376   4.061   0.828  1.2979  0.7065 -0.3474
  177SOL     OW 2130   3.146   5.995   1.537 -0.0466 -0.0076  0.0953
  177SOL    HW1 2131   3.212   5.940   1.589 -0.0176  0.1658  0.2445
  177SOL    HW2 2132   3.058   5.948   1.535  0.6323 -1.3566 -2.0192
  178SOL     OW 2133   0.558   5.693   6.314  0.0269  0.1134 -0.0195
  178SOL    HW1 2134   0.635   5.691   6.377  1.5626  1.9226 -1.6860
  178SOL    HW2 2135   0.573   5.626   6.241 -0.6160 -0.3966  0.3085
  179SOL     OW 2136   6.953   2.002   4.630  0.4803  0.0791 -0.5044
  179SOL    HW1 2137   7.000   2.086   4.602 -0.8524  0.6167 -1.2249
  179SOL    HW2 2138   6.938   2.004   4.729  2.4594 -0.3790 -0.1641
  180SOL     OW 2139   6.016   4.190   4.148  0.5188  0.1805 -0.1686
  180SOL    HW1 2140   5.962   4.252   4.205  2.1845  1.0255  0.5748
  180SOL    HW2 2141   5.958   4.148   4.078 -1.0621  1.0134  0.6059
  181SOL     OW 2142   6.447   2.105   2.154 -0.1425 -0.1408  0.1297
  181SOL    HW1 2143   6.526   2.046   2.173 -1.5492 -2.3418 -0.4398
  181SOL    HW2 2144   6.409   2.138   2.240  0.6444 -0.0932  0.4721
  182SOL     OW 2145   5.015   0.838   6.773  0.4072  0.4993 -0.1245
  182SOL    HW1 2146   5.070   0.781   6.711  1.1965  1.2487 -0.1296
  182SOL    HW2 2147   4.982   0.782   6.849  0.7266 -0.0815 -0.4083
  183SOL     OW 2148   3.770   4.460   6.016  0.1723 -0.1610 -0.5189
  183SOL    HW1 2149   3.716   4.543   5.999  2.4323  1.3109 -0.9418
  183SOL    HW2 2150   3.799   4.459   6.112  0.1850 -0.4543 -0.5261
  184SOL     OW 2151   6.307   6.583   0.076 -0.6532  0.3092 -0.6955
  184SOL    HW1 2152   6.297   6.511   0.144  0.8616  0.5741 -0.1603
  184SOL    HW2 2153   6.242   6.568   0.001 -1.4199 -0.7206  0.1578
  185SOL     OW 2154   1.274   5.003   2.743  0.2833  0.0577 -0.3156
  185SOL    HW1 2155   1.181   4.968   2.751  0.0900  0.5795 -0.1885
  185SOL    HW2 2156   1.320   4.961   2.665  1.0303 -2.5789  1.3886
  186SOL     OW 2157   3.628   5.798   1.802 -0.6077 -0.0711 -0.2766
  186SOL    HW1 2158   3.689   5.876   1.817 -0.0568 -0.3498 -0.9557
  186SOL    HW2 2159   3.533   5.827   1.812 -0.4026 -0.1979  3.5547
  187SOL     OW 2160   5.621   6.606   3.096  0.3245  0.0762 -0.2652
  187SOL    HW1 2161   5.720   6.596   3.082  0.3977 -0.0901  0.3224
  187SOL    HW2 2162   5.603   6.687   3.151  0.3195 -1.0727  1.5125
  188SOL     OW 2163   2.121   3.896   3.031  0.3093  0.0076  0.5652
  188SOL    HW1 2164   2.200   3.855   2.986  0.4971  0.0935  0.8174
  188SOL    HW2 2165   2.151   3.971   3.090 -0.1520  1.5211 -1.0219
  189SOL     OW 2166   1.687   5.868   1.159 -0.3089  0.5442 -0.5378
  189SOL    HW1 2167   1.611   5.890   1.221 -1.7452  0.7041 -2.2717
  189SOL    HW2 2168   1.685   5.770   1.138 -0.4269  0.6567 -1.0661
  190SOL     OW 2169   6.677   1.120   1.939 -0.2305 -0.4453  0.0177
  190SOL    HW1 2170   6.630   1.179   2.004  1.0433 -0.7132  1.2451
  190SOL    HW2 2171   6.722   1.046   1.989  0.2028 -1.0697 -1.2555
  191SOL     OW 2172   1.321   1.394   4.548 -0.2072 -0.0972 -0.1029
  191SOL    HW1 2173   1.386   1.381   4.473  2.1236 -0.8866  1.9123
  191SOL    HW2 2174   1.306   1.492   4.562  0.9562  0.1258 -0.2971
  192SOL     OW 2175   5.078   4.020   6.005  0.3498  0.1060 -0.0873
  192SOL    HW1 2176   5.078   3.921   5.990 -0.4501  0.1699 -0.5743
  192SOL    HW2 2177   5.080   4.067   5.917 -1.3051  0.5100  0.0649
  193SOL     OW 2178   0.834   4.349   3.840  0.5085 -0.2205 -0.3344
  193SOL    HW1 2179   0.896   4.291   3.893  1.4026 -0.0416 -1.1367
  193SOL    HW2 2180   0.790   4.294   3.769 -1.3027 -0.6329  1.0690
  194SOL     OW 2181   2.401   4.848   2.440  0.6001  0.4332 -0.1405
  194SOL    HW1 2182   2.329   4.865   2.372 -0.1676  1.7880  0.9677
  194SOL    HW2 2183   2.444   4.760   2.421 -1.9236 -0.8395 -0.3384
  195SOL     OW 2184   0.480   5.870   0.606  0.6242  0.0547 -0.1095
  195SOL    HW1 2185   0.426   5.819   0.674 -0.2615 -1.1142 -1.6096
  195SOL    HW2 2186   0.575   5.872   0.634  0.6146 -2.0622  0.2908
  196SOL     OW 2187   0.850   5.051   2.855  0.0761  0.2024 -0.4894
  196SOL    HW1 2188   0.791   5.126   2.824 -0.8708 -0.0314  0.6507
  196SOL    HW2 2189   0.900   5.080   2.937 -1.0833 -0.7054  0.5876
  197SOL     OW 2190   6.124   4.824   0.746  0.4980  0.0480 -0.0422
  197SOL    HW1 2191   6.047   4.842   0.685  0.7080  2.4766  0.3078
  197SOL    HW2 2192   6.090   4.789   0.833 -0.5580  3.1468  0.9276
  198SOL     OW 2193   3.372   6.165   6.637  0.0807 -0.3999 -0.4844
  198SOL    HW1 2194   3.443   6.176   6.706 -0.5652  2.2037 -0.1386
  198SOL    HW2 2195   3.408   6.192   6.547  0.2771 -1.6753 -0.8084
  199SOL     OW 2196   2.733   2.988   4.866 -0.0954  0.1643  0.6607
  199SOL    HW1 2197   2.703   3.083   4.874  0.9051  0.4260  1.4861
  199SOL    HW2 2198   2.813   2.982   4.805  1.0803  0.1550  2.1587
  200SOL     OW 2199   2.803   5.128   3.805 -0.3953  0.0870 -0.2751
  200SOL    HW1 2200   2.822   5.034   3.832 -0.7650  0.3248  0.8528
  200SOL    HW2 2201   2.862   5.153   3.728  0.5263 -0.6963  0.1536
  201SOL     OW 2202   1.394   2.579   1.128 -0.3754  0.7112 -0.2109
  201SOL    HW1 2203   1.465   2.601   1.194 -2.1981  0.6019  1.9212
  201SOL    HW2 2204   1.353   2.491   1.152 -0.0752 -0.1032 -2.4610
  202SOL     OW 2205   1.969   6.579   3.606  0.2569  0.0700 -0.0402
  202SOL    HW1 2206   1.987   6.632   3.688  0.9284  2.2100 -1.4792
  202SOL    HW2 2207   2.055   6.543   3.570 -0.0948 -1.3008  0.4356
  203SOL     OW 2208   5.507   2.826   4.333 -0.6698  0.2193  0.5875
  203SOL    HW1 2209   5.593   2.874   4.349 -1.9071  2.5749  0.6170
  203SOL    HW2 2210   5.503   2.795   4.238 -0.5231  1.7416  0.0575
  204SOL     OW 2211   3.168   0.647   3.268  0.7159  0.3603 -0.5041
  204SOL    HW1 2212   3.240   0.698   3.315 -0.6616  2.1944 -0.2618
  204SOL    HW2 2213   3.209   0.580   3.207  2.6058  0.8618  0.1465
  205SOL     OW 2214   1.501   2.339   6.872 -0.2218 -0.1370  0.4057
  205SOL    HW1 2215   1.427   2.320   6.936 -1.0781 -2.6562 -1.1714
  205SOL    HW2 2216   1.476   2.418   6.815 -0.6652  0.4087  1.3230
  206SOL     OW 2217   0.554   6.463   5.065  0.5973  0.2394  0.7100
  206SOL    HW1 2218   0.477   6.525   5.076  1.9278  2.5239 -1.7801
  206SOL    HW2 2219   0.532   6.393   4.998 -0.1377 -0.7449  1.9246
  207SOL     OW 2220   5.432   4.829   3.604 -0.3888  0.0571 -0.3920
  207SOL    HW1 2221   5.526   4.799   3.583  0.1688  0.1861  1.6560
  207SOL    HW2 2222   5.414   4.917   3.561  0.2696 -0.1900 -1.1870
  208SOL     OW 2223   3.343   6.942   4.388 -0.3455 -0.2227 -0.2578
  208SOL    HW1 2224   3.388   6.953   4.299 -1.0880  1.3846 -0.4656
  208SOL    HW2 2225   3.253   6.985   4.386  0.1192  0.9640  1.6453
  209SOL     OW 2226   0.361   1.357   2.320 -0.4017  0.1745 -0.3176
  209SOL    HW1 2227   0.331   1.385   2.229  0.1795 -0.9904 -0.8888
  209SOL    HW2 2228   0.388   1.437   2.372 -1.6684  0.9609 -0.8105
  210SOL     OW 2229   1.912   6.292   3.818  0.0260  0.2197 -0.3296
  210SOL    HW1 2230   1.898   6.352   3.740  0.1115  0.0975 -0.4391
  210SOL    HW2 2231   1.928   6.347   3.900  0.6376  0.3417 -0.5281
  211SOL     OW 2232   0.069   2.940   6.408 -0.0254  0.0456  0.8713
  211SOL    HW1 2233   0.020   2.930   6.321 -0.9762 -1.3293  1.5340
  211SOL    HW2 2234   0.018   2.895   6.481  0.5505  1.5426  2.2486
  212SOL     OW 2235   3.114   2.026   1.866 -0.0775  0.0387 -0.1027
  212SOL    HW1 2236   3.017   2.047   1.873 -0.5695 -1.4999 -1.5999
  212SOL    HW2 2237   3.137   2.008   1.770  1.3759 -1.0095  0.4064
  213SOL     OW 2238   0.922   0.046   3.760  0.0426  0.1197 -0.1137
  213SOL    HW1 2239   0.978   0.125   3.786 -0.3326 -0.3594  2.4604
  213SOL    HW2 2240   0.895  -0.003   3.843 -0.7154 -2.0505 -1.5807
  214SOL     OW 2241   5.230   4.135   3.192 -0.1908  0.2135 -0.2359
  214SOL    HW1 2242   5.262   4.227   3.215 -0.6807  0.6268 -1.1584
  214SOL    HW2 2243   5.308   4.075   3.177  0.1344  0.4082  0.5987
  215SOL     OW 2244   2.432   4.212   2.281 -1.0914 -0.3889  0.7218
  215SOL    HW1 2245   2.528   4.201   2.305 -0.5502  0.0693 -1.0722
  215SOL    HW2 2246   2.383   4.256   2.356  0.3099  0.2748  1.2765
  216SOL     OW 2247   3.745   0.358   3.568 -0.0066 -0.5105 -0.1990
  216SOL    HW1 2248   3.720   0.415   3.490  0.1336 -0.9808 -0.5992
  216SOL    HW2 2249   3.673   0.362   3.637 -0.6268 -0.9024 -0.8092
  217SOL     OW 2250   4.789   5.810   4.174  0.2423 -0.2478 -0.6102
  217SOL    HW1 2251   4.689   5.800   4.178  0.1695  0.6331 -0.0326
  217SOL    HW2 2252   4.825   5.822   4.266  0.7333  0.7568 -0.9216
  218SOL     OW 2253   0.360   6.025   4.023  0.1745  0.2358 -0.7803
  218SOL    HW1 2254   0.310   6.020   4.109  0.9965 -0.5880 -0.3281
  218SOL    HW2 2255   0.295   6.021   3.947 -0.4735 -0.6381 -0.2111
  219SOL     OW 2256   2.983   3.553   2.908  0.0609  0.1861  0.6734
  219SOL    HW1 2257   2.951   3.464   2.874 -0.2544  0.7818 -0.6513
  219SOL    HW2 2258   3.082   3.559   2.896 -0.0241  0.3232 -0.0172
  220SOL     OW 2259   0.909   1.146   3.467 -1.0686  0.1092 -0.1492
  220SOL    HW1 2260   0.859   1.217   3.517  0.2636  1.2130 -0.3255
  220SOL    HW2 2261   0.938   1.074   3.531  0.8681  1.6472  0.8015
  221SOL     OW 2262   0.139   4.588   1.550  0.2074 -0.3865  0.1562
  221SOL    HW1 2263   0.234   4.617   1.541 -0.3060  0.6954 -3.3099
  221SOL    HW2 2264   0.081   4.668   1.565 -0.3936 -0.6645 -0.6000
  222SOL     OW 2265   2.102   0.541   5.534 -0.3327  0.4980  0.3823
  222SOL    HW1 2266   2.128   0.514   5.627 -0.2660 -0.8491 -0.0050
  222SOL    HW2 2267   2.016   0.497   5.509  0.4035 -0.3845 -0.7113
  223SOL     OW 2268   3.715   4.675   2.670  0.2744  0.1775 -0.0887
  223SOL    HW1 2269   3.803   4.651   2.628 -0.0918  2.5011 -2.4002
  223SOL    HW2 2270   3.650   4.601   2.654  1.4629 -1.1099  0.7378
  224SOL     OW 2271   1.038   0.254   4.787 -0.4179  0.2382 -0.0350
  224SOL    HW1 2272   1.047   0.169   4.735 -2.4475  0.4230 -0.7867
  224SOL    HW2 2273   1.056   0.235   4.884 -0.4377 -0.9668 -0.2507
  225SOL     OW 2274   0.775   3.596   2.288  0.7526  0.0653 -0.1994
  225SOL    HW1 2275   0.846   3.531   2.262  2.7883  0.8927  2.7397
  225SOL    HW2 2276   0.791   3.683   2.241  1.1751 -0.0238 -0.2271
  226SOL     OW 2277   0.581   1.404   5.157 -0.0972  0.3772 -0.4702
  226SOL    HW1 2278   0.659   1.466   5.167  0.6227 -0.5729  0.0047
  226SOL    HW2 2279   0.508   1.431   5.220  0.7580 -0.0701  0.7467
  227SOL     OW 2280   2.902   0.558   3.244 -0.2405  0.5485 -0.0444
  227SOL    HW1 2281   2.894   0.458   3.238 -1.9922  0.6255  0.4289
  227SOL    HW2 2282   2.995   0.582   3.272  0.0720 -0.9718  0.3483
  228SOL     OW 2283   5.588   3.008   3.011 -0.4492  0.2604 -0.2078
  228SOL    HW1 2284   5.493   2.980   3.021 -0.3180 -0.8837 -1.7183
  228SOL    HW2 2285   5.646   2.927   2.998  1.1136  0.7358  2.8600
  229SOL     OW 2286   2.081   1.265   4.174  0.3192  0.3175  0.7472
  229SOL    HW1 2287   2.151   1.335   4.186  0.8879 -0.0154 -0.4201
  229SOL    HW2 2288   2.116   1.193   4.114 -0.8599 -0.0945  0.5174
  230SOL     OW 2289   3.383   1.030   1.088  0.4212  0.3063  0.0556
  230SOL    HW1 2290   3.349   1.017   0.995 -0.8166  1.7028  0.2847
  230SOL    HW2 2291   3.317   0.992   1.153  0.4950  0.8143  0.4274
  231SOL     OW 2292   6.903   1.217   0.335  0.0355  0.6792 -0.2713
  231SOL    HW1 2293   6.930   1.138   0.281 -0.3416 -0.1857  0.7552
  231SOL    HW2 2294   6.971   1.233   0.407  0.1303  1.3193 -0.4975
  232SOL     OW 2295   2.657   3.560   6.916  0.0750 -0.4913 -0.3848
  232SOL    HW1 2296   2.596   3.603   6.850 -2.2867 -0.5465  1.5969
  232SOL    HW2 2297   2.638   3.462   6.921  0.9912 -0.6775 -0.3854
  233SOL     OW 2298   0.625   1.025   2.614  0.0516  0.0009 -0.1346
  233SOL    HW1 2299   0.716   0.988   2.594  0.2241  0.0023  0.6372
  233SOL    HW2 2300   0.627   1.076   2.700 -0.8034 -0.4815  0.1937
  234SOL     OW 2301   6.492   5.236   5.431 -0.4740 -0.2381 -0.1588
  234SOL    HW1 2302   6.447   5.271   5.348  0.6204  1.1194 -0.2172
  234SOL    HW2 2303   6.424   5.193   5.490 -1.3523 -0.8183 -1.5409
  235SOL     OW 2304   0.087   0.084   0.507 -0.5828 -0.1178  0.2432
  235SOL    HW1 2305   0.073   0.180   0.484  1.4282  0.5646  1.5410
  235SOL    HW2 2306   0.141   0.041   0.434  1.8956  0.8529  1.3646
  236SOL     OW 2307   6.834   2.079   1.318 -0.5387  0.9656 -1.1143
  236SOL    HW1 2308   6.807   2.145   1.388  0.4065 -1.4497  1.7383
  236SOL    HW2 2309   6.929   2.096   1.292  1.6793 -2.0452  3.5905
  237SOL     OW 2310   6.397   2.837   1.173 -0.1610 -0.0446  0.4111
  237SOL    HW1 2311   6.328   2.765   1.164  0.3390 -0.3350 -1.5342
  237SOL    HW2 2312   6.462   2.813   1.245  0.8482 -2.2988 -1.1519
  238SOL     OW 2313   3.981   0.712   6.486  0.1716  0.0196 -0.3954
  238SOL    HW1 2314   4.068   0.707   6.535  0.3700  0.6138 -0.6752
  238SOL    HW2 2315   3.996   0.755   6.397 -0.5794  1.0379 -0.0476
  239SOL     OW 2316   1.415   4.631   3.921 -0.6291 -0.6867  0.5969
  239SOL    HW1 2317   1.359   4.712   3.903  0.7879 -0.0060 -1.0994
  239SOL    HW2 2318   1.359   4.549   3.911 -1.3749 -0.0325 -0.9406
  240SOL     OW 2319   5.714   3.446   5.740  0.4554 -0.1825  0.8748
  240SOL    HW1 2320   5.648   3.518   5.762  0.2546  0.1923 -0.8311
  240SOL    HW2 2321   5.667   3.357   5.741 -0.3059  0.1534 -1.0697
  241SOL     OW 2322   1.314   5.420   4.912 -0.0469 -0.1055  0.4118
  241SOL    HW1 2323   1.374   5.379   4.843 -1.1791 -0.4568 -0.3920
  241SOL    HW2 2324   1.221   5.428   4.875 -0.3269  1.2115  1.3201
  242SOL     OW 2325   5.150   4.159   5.730  0.1685 -0.0150  0.1794
  242SOL    HW1 2326   5.212   4.136   5.655 -0.9354  0.5095 -0.9267
  242SOL    HW2 2327   5.159   4.256   5.752 -1.4394  0.4865 -1.1694
  243SOL     OW 2328   3.691   1.457   5.037  0.2748  0.0046 -0.3457
  243SOL    HW1 2329   3.595   1.428   5.032  0.9145 -2.3770  0.2230
  243SOL    HW2 2330   3.696   1.555   5.017 -2.4367  0.5402  0.9921
  244SOL     OW 2331   6.172   2.376   6.371 -0.5692  0.0582 -0.0545
  244SOL    HW1 2332   6.106   2.450   6.362 -0.5075 -0.0159 -1.2672
  244SOL    HW2 2333   6.233   2.395   6.448 -1.9741  0.1179  1.0897
  245SOL     OW 2334   2.002   6.185   5.557 -0.0906 -0.4345  0.1013
  245SOL    HW1 2335   1.979   6.215   5.649  0.5368  0.2827  0.0354
  245SOL    HW2 2336   2.100   6.164   5.552 -0.3257 -1.5353 -0.1202
  246SOL     OW 2337   2.613   2.469   5.797  0.0365 -0.0565  0.7748
  246SOL    HW1 2338   2.651   2.542   5.854  0.9634 -0.2250  0.3924
  246SOL    HW2 2339   2.549   2.414   5.852  0.6964 -0.0508  1.5719
  247SOL     OW 2340   5.788   1.701   3.982  0.1031 -0.8280 -0.4179
  247SOL    HW1 2341   5.775   1.714   4.081 -0.2823 -0.8143 -0.4714
  247SOL    HW2 2342   5.811   1.605   3.965 -0.9416 -1.0808 -0.4271
  248SOL     OW 2343   0.656   5.511   4.663 -0.1379 -0.1704 -0.1982
  248SOL    HW1 2344   0.602   5.430   4.641  2.1657 -2.1574  1.0179
  248SOL    HW2 2345   0.635   5.541   4.756 -0.3650  0.1299 -0.3430
  249SOL     OW 2346   6.344   3.278   5.727  0.8701  0.2948 -0.2749
  249SOL    HW1 2347   6.360   3.360   5.672  1.1607  0.3424 -0.1215
  249SOL    HW2 2348   6.420   3.265   5.790 -0.8519  1.9968  2.3423
  250SOL     OW 2349   1.769   4.895   3.436  0.7389 -0.1728  0.2441
  250SOL    HW1 2350   1.781   4.845   3.522  0.0265 -0.5123  0.1547
  250SOL    HW2 2351   1.855   4.939   3.411  1.7946 -2.4275 -0.3575
  251SOL     OW 2352   5.996   4.508   3.258 -0.2838 -0.8672  0.8983
  251SOL    HW1 2353   6.065   4.469   3.197  0.6721  0.5414  1.0280
  251SOL    HW2 2354   5.983   4.448   3.336  0.2946 -1.4873  0.5290
  252SOL     OW 2355   6.320   5.188   2.504  0.9605  0.3760  0.2531
  252SOL    HW1 2356   6.226   5.175   2.537  0.2594  3.0270 -0.4430
  252SOL    HW2 2357   6.341   5.118   2.436 -1.4334  1.0993 -1.3681
  253SOL     OW 2358   5.880   3.965   0.354 -0.1402 -0.2848  0.2869
  253SOL    HW1 2359   5.798   3.959   0.297  0.7330  1.6489 -1.2831
  253SOL    HW2 2360   5.951   3.906   0.316  0.1381  0.2962 -0.1108
  254SOL     OW 2361   3.166   0.806   1.458 -0.1244 -0.1845  0.5820
  254SOL    HW1 2362   3.242   0.817   1.522 -0.1489 -1.2915  0.8386
  254SOL    HW2 2363   3.103   0.736   1.494  1.0113 -2.5432 -1.6605
  255SOL     OW 2364   3.148   6.665   4.540  0.6704 -0.2501 -0.3799
  255SOL    HW1 2365   3.222   6.707   4.593  0.3053  0.5912 -0.5254
  255SOL    HW2 2366   3.181   6.644   4.448  0.9481 -0.5948 -0.2067
  256SOL     OW 2367   2.369   6.361   5.284 -0.1097 -0.1571  0.4650
  256SOL    HW1 2368   2.442   6.306   5.245 -0.8158 -0.4184 -0.5318
  256SOL    HW2 2369   2.312   6.303   5.344 -0.3110 -0.3009  0.1401
  257SOL     OW 2370   1.306   6.997   1.459  0.1811 -0.2294 -0.5967
  257SOL    HW1 2371   1.214   7.013   1.495 -0.1595 -2.0060 -0.5928
  257SOL    HW2 2372   1.354   7.084   1.452 -0.8715  0.5441  1.0582
  258SOL     OW 2373   0.590   6.277   5.432  0.4662 -0.0564 -0.1301
  258SOL    HW1 2374   0.501   6.308   5.398 -1.5671 -4.7486  0.1746
  258SOL    HW2 2375   0.640   6.233   5.357  1.2011 -0.1137  0.3851
  259SOL     OW 2376   5.760   1.145   3.570  0.0171  0.2099  0.3907
  259SOL    HW1 2377   5.783   1.054   3.537 -0.2468  0.0701  0.5782
  259SOL    HW2 2378   5.776   1.213   3.499 -2.5775 -0.3262 -0.8144
  260SOL     OW 2379   1.762   5.572   1.115 -0.0362 -0.3680 -0.6539
  260SOL    HW1 2380   1.824   5.497   1.135 -0.1155 -0.1324  0.5162
  260SOL    HW2 2381   1.790   5.616   1.029 -1.1479 -2.9181 -2.4530
  261SOL     OW 2382   1.027   2.920   2.581  0.1333 -0.2258 -0.2475
  261SOL    HW1 2383   0.949   2.863   2.558  0.9024 -1.1515 -0.6588
  261SOL    HW2 2384   0.998   2.994   2.642 -1.1630 -0.1736 -0.8978
  262SOL     OW 2385   3.963   1.077   1.517  0.3109  0.8466 -0.1547
  262SOL    HW1 2386   3.880   1.023   1.504  0.4614  0.5854 -0.0363
  262SOL    HW2 2387   3.947   1.170   1.485 -0.1275  0.8794  0.1506
  263SOL     OW 2388   0.393   0.962   1.566  0.7970 -0.0751 -0.4383
  263SOL    HW1 2389   0.426   0.913   1.647  1.4488  0.6706 -0.2354
  263SOL    HW2 2390   0.394   1.060   1.584 -0.8526  0.0162 -0.7065
  264SOL     OW 2391   1.701   4.408   2.658  0.1782  0.1530  0.6213
  264SOL    HW1 2392   1.713   4.322   2.607 -0.4112  0.6412 -0.3645
  264SOL    HW2 2393   1.680   4.387   2.754 -1.2485 -0.8531  0.1277
  265SOL     OW 2394   3.120   6.659   6.295  0.2122  0.0072  0.1556
  265SOL    HW1 2395   3.023   6.637   6.294 -0.2790  2.0046 -0.2752
  265SOL    HW2 2396   3.137   6.735   6.358  1.3774  0.1554 -0.3070
  266SOL     OW 2397   4.128   6.427   6.486  0.3171  0.4100 -0.3018
  266SOL    HW1 2398   4.091   6.359   6.549  0.2713 -0.2071 -0.9869
  266SOL    HW2 2399   4.226   6.412   6.474  0.1477 -0.0798 -1.1212
  267SOL     OW 2400   1.710   0.681   2.700 -0.2474  0.4331 -0.1006
  267SOL    HW1 2401   1.627   0.729   2.726 -0.9518 -0.9624  0.3578
  267SOL    HW2 2402   1.687   0.587   2.673  1.3031 -0.4806  1.5005
  268SOL     OW 2403   0.710   2.534   3.442 -0.1525  0.4000  0.2305
  268SOL    HW1 2404   0.621   2.580   3.436  0.8498  2.5098  0.2889
  268SOL    HW2 2405   0.698   2.436   3.432 -2.6370  0.4825  1.5040
  269SOL     OW 2406   5.385   1.630   4.291 -0.2434 -0.6839 -0.4946
  269SOL    HW1 2407   5.297   1.621   4.244 -0.5218 -0.7905  0.0465
  269SOL    HW2 2408   5.409   1.544   4.334  0.0497 -0.6049 -0.4957
  270SOL     OW 2409   0.128   0.756   6.583  0.1165  0.2079 -0.4170
  270SOL    HW1 2410   0.159   0.667   6.550  2.8145  0.7240  0.4665
  270SOL    HW2 2411   0.091   0.746   6.675 -0.9491 -0.2044 -0.8854
  271SOL     OW 2412   6.346   6.086   3.728  0.1990  0.0007  0.0768
  271SOL    HW1 2413   6.412   6.122   3.794 -0.1565  2.2669 -0.7098
  271SOL    HW2 2414   6.386   6.087   3.636  0.4358 -2.4535  0.0809
  272SOL     OW 2415   1.275   6.534   2.339 -0.3031 -0.3942 -0.3345
  272SOL    HW1 2416   1.272   6.481   2.253  2.6047 -0.0302 -0.7441
  272SOL    HW2 2417   1.300   6.628   2.319 -1.9111  0.3137  0.7658
  273SOL     OW 2418   2.396   1.550   1.451  0.0338 -0.2711 -0.1415
  273SOL    HW1 2419   2.450   1.540   1.534  0.3945 -0.8107 -0.4378
  273SOL    HW2 2420   2.395   1.464   1.400 -0.5143 -0.0627 -0.4966
  274SOL     OW 2421   5.559   3.843   4.891  0.3372 -0.4519 -0.3258
  274SOL    HW1 2422   5.507   3.771   4.937  1.5718  0.0686  1.9955
  274SOL    HW2 2423   5.519   3.932   4.912  1.0766 -0.1855 -0.0243
  275SOL     OW 2424   0.284   2.428   1.050 -0.1731 -0.3413  0.6397
  275SOL    HW1 2425   0.215   2.420   1.122 -0.9158  0.9069  0.0945
  275SOL    HW2 2426   0.348   2.502   1.074 -0.4731  0.1358 -0.0081
  276SOL     OW 2427   6.749   2.187   2.133  0.1547 -0.3456  0.2661
  276SOL    HW1 2428   6.814   2.238   2.189  0.0110 -0.7513  0.8136
  276SOL    HW2 2429   6.758   2.215   2.037  1.1707 -0.4363  0.3228
  277SOL     OW 2430   0.136   1.661   5.372 -0.2509  0.1880  0.3401
  277SOL    HW1 2431   0.158   1.660   5.470  1.8121 -1.1057 -0.0820
  277SOL    HW2 2432   0.055   1.604   5.356  1.1706 -2.1608  0.9897
  278SOL     OW 2433   0.957   2.599   3.565  0.2256 -0.2203  0.5340
  278SOL    HW1 2434   1.011   2.516   3.554 -0.9452 -1.2769  2.2965
  278SOL    HW2 2435   0.865   2.584   3.527 -0.0892  0.1543  1.1387
  279SOL     OW 2436   1.193   5.415   6.174 -0.2669  0.1904  0.6542
  279SOL    HW1 2437   1.136   5.442   6.097 -1.1322  2.1899  1.9110
  279SOL    HW2 2438   1.134   5.396   6.253  0.7307  0.9318  1.5921
  280SOL     OW 2439   4.441   1.692   3.536 -0.4654 -0.6489  0.6628
  280SOL    HW1 2440   4.359   1.719   3.485  0.1986 -0.4244 -0.3275
  280SOL    HW2 2441   4.505   1.648   3.473  0.9684  0.8861  0.9968
  281SOL     OW 2442   1.120   2.457   3.935 -0.3241  0.3168  0.2180
  281SOL    HW1 2443   1.175   2.540   3.947  1.0326 -0.5724  0.3210
  281SOL    HW2 2444   1.180   2.378   3.929 -1.5542 -0.5679 -0.8724
  282SOL     OW 2445   5.039   2.418   0.856  0.7128  0.3907  0.2147
  282SOL    HW1 2446   4.958   2.476   0.848  0.8997  0.4102 -2.5769
  282SOL    HW2 2447   5.026   2.335   0.801  1.8021 -0.5915  1.3774
  283SOL     OW 2448   5.829   6.422   4.344  0.3749  0.2557 -0.9082
  283SOL    HW1 2449   5.757   6.488   4.364  0.1097 -0.0908 -0.7005
  283SOL    HW2 2450   5.844   6.364   4.424  1.2445  0.6555 -0.7707
  284SOL     OW 2451   5.113   0.845   0.297 -0.1733  0.7344  0.0322
  284SOL    HW1 2452   5.104   0.750   0.269 -0.6737  0.8813 -0.3152
  284SOL    HW2 2453   5.208   0.875   0.284 -0.7280  1.3824 -3.4382
  285SOL     OW 2454   6.775   2.301   4.990  0.1588 -0.5553  0.7124
  285SOL    HW1 2455   6.872   2.297   5.013  0.4101 -0.5967 -0.2898
  285SOL    HW2 2456   6.764   2.285   4.892 -0.8195 -0.0651  0.7343
  286SOL     OW 2457   0.208   5.967   1.017 -0.0408  0.9970 -0.2583
  286SOL    HW1 2458   0.153   5.918   1.085 -2.0563 -0.3661 -2.6843
  286SOL    HW2 2459   0.194   6.065   1.026 -0.1476  0.8585  1.3216
  287SOL     OW 2460   2.772   2.197   4.173 -0.6075 -0.1583  0.6473
  287SOL    HW1 2461   2.711   2.251   4.232 -0.0346  2.4620 -0.9965
  287SOL    HW2 2462   2.729   2.186   4.083 -0.2935 -1.7048  0.6723
  288SOL     OW 2463   1.217   6.687   1.016 -0.1069 -0.5098 -0.0565
  288SOL    HW1 2464   1.272   6.729   0.944  0.1245  1.1421  1.0382
  288SOL    HW2 2465   1.137   6.743   1.033  0.5744 -0.0785  1.9385
  289SOL     OW 2466   2.946   6.770   4.896  0.0979  0.2744 -0.6313
  289SOL    HW1 2467   2.874   6.734   4.837 -0.4930  0.2589  0.0899
  289SOL    HW2 2468   3.026   6.710   4.892 -0.1723 -0.0689 -0.9220
  290SOL     OW 2469   0.016   0.139   3.618  0.0210  0.1395  0.9348
  290SOL    HW1 2470   0.065   0.166   3.535 -1.2252  0.7615  0.3874
  290SOL    HW2 2471   0.010   0.039   3.622  0.6399  0.0842  0.6216
  291SOL     OW 2472   5.858   1.144   1.681 -0.2267 -0.2313 -0.6442
  291SOL    HW1 2473   5.819   1.183   1.597 -3.6387 -2.1144 -0.1204
  291SOL    HW2 2474   5.798   1.165   1.758  1.2885 -1.0578  0.8212
  292SOL     OW 2475   5.106   5.114   4.020 -0.4949 -0.2269  0.0904
  292SOL    HW1 2476   5.200   5.145   4.010 -1.4279  2.3225 -2.3093
  292SOL    HW2 2477   5.096   5.022   3.982  0.9628 -0.4430  0.1923
  293SOL     OW 2478   6.926   6.914   5.344 -0.2750 -0.3791  0.3185
  293SOL    HW1 2479   6.942   6.932   5.247 -0.7780 -1.3417  0.0414
  293SOL    HW2 2480   6.976   6.831   5.371 -0.6207 -0.4572  0.7348
  294SOL     OW 2481   6.115   2.241   2.255 -0.1052  0.4706 -0.1011
  294SOL    HW1 2482   6.124   2.144   2.232 -0.5335  0.4419 -0.1646
  294SOL    HW2 2483   6.076   2.290   2.177  0.6875  0.8060 -0.2885
  295SOL     OW 2484   5.636   1.174   4.609 -0.8158 -0.7018  0.5973
  295SOL    HW1 2485   5.654   1.147   4.704 -0.8949 -0.8264  0.5773
  295SOL    HW2 2486   5.556   1.124   4.575 -0.1595 -1.4580  0.1215
  296SOL     OW 2487   4.291   1.229   0.660 -0.5158 -0.6515  0.0505
  296SOL    HW1 2488   4.313   1.148   0.605  0.8971 -0.1100 -0.2244
  296SOL    HW2 2489   4.239   1.293   0.604 -0.8904 -0.9981 -0.0008
  297SOL     OW 2490   5.463   1.875   3.093 -0.5824 -0.7245 -0.1961
  297SOL    HW1 2491   5.436   1.848   3.186 -0.8405 -1.5664 -0.5105
  297SOL    HW2 2492   5.546   1.825   3.067 -0.0881  0.0585 -0.1462
  298SOL     OW 2493   3.049   0.807   6.404  0.7390 -0.1304  0.0304
  298SOL    HW1 2494   2.996   0.868   6.345 -0.0367 -0.3843  0.4390
  298SOL    HW2 2495   3.132   0.853   6.434  0.3853  0.5649 -0.0323
  299SOL     OW 2496   4.596   4.838   6.341  0.7154  0.0573 -0.5771
  299SOL    HW1 2497   4.573   4.928   6.304 -1.2621  0.9143  2.3419
  299SOL    HW2 2498   4.695   4.826   6.341  1.1081  2.6401 -0.3019
  300SOL     OW 2499   4.360   4.430   2.113  0.1122  0.1566 -0.5783
  300SOL    HW1 2500   4.262   4.439   2.129  0.2122  1.3059 -0.5260
  300SOL    HW2 2501   4.408   4.506   2.157  1.2220 -1.3396  0.9439
  301SOL     OW 2502   1.137   0.162   6.738 -0.4262  0.0046 -0.0065
  301SOL    HW1 2503   1.102   0.069   6.743 -0.0336 -0.1622 -0.3029
  301SOL    HW2 2504   1.091   0.211   6.664  1.4736 -0.8920 -1.8826
  302SOL     OW 2505   2.072   3.621   6.095  0.6997 -0.5182  0.2835
  302SOL    HW1 2506   1.994   3.649   6.039  0.2536 -1.0431  0.6404
  302SOL    HW2 2507   2.052   3.534   6.140  0.0849  0.9708  3.1152
  303SOL     OW 2508   2.739   1.891   2.294  0.5184  0.0937  0.0633
  303SOL    HW1 2509   2.701   1.812   2.246  0.9986  0.1128 -0.3590
  303SOL    HW2 2510   2.773   1.862   2.384  1.5969 -0.4033 -0.4813
  304SOL     OW 2511   2.511   1.633   2.326  0.0414  0.3363 -0.1895
  304SOL    HW1 2512   2.439   1.563   2.333  1.5748 -1.1964  1.3122
  304SOL    HW2 2513   2.565   1.616   2.244  0.4324 -0.3076  0.1903
  305SOL     OW 2514   6.635   0.021   0.672 -0.2717 -0.0519  0.0828
  305SOL    HW1 2515   6.559   0.085   0.656 -0.2519 -0.3602 -1.3840
  305SOL    HW2 2516   6.696   0.059   0.741 -0.4946  1.3297 -0.4476
  306SOL     OW 2517   1.234   0.265   0.180  0.1397  0.0518  0.4198
  306SOL    HW1 2518   1.257   0.262   0.083  0.7727 -0.0475  0.5716
  306SOL    HW2 2519   1.136   0.282   0.190  0.2586  1.2599 -0.2328
  307SOL     OW 2520   5.549   5.561   0.440 -0.1520  0.0648 -0.3929
  307SOL    HW1 2521   5.520   5.466   0.430 -1.6453  0.6395 -1.9526
  307SOL    HW2 2522   5.593   5.591   0.355 -1.1579  1.2340 -0.5124
  308SOL     OW 2523   5.591   1.217   5.589  0.8633  0.1324 -0.4276
  308SOL    HW1 2524   5.534   1.186   5.665  1.7791  0.7906  0.5563
  308SOL    HW2 2525   5.687   1.218   5.618  1.3696 -0.7726 -1.9900
  309SOL     OW 2526   6.085   0.578   4.122 -0.6190  0.2609  0.0584
  309SOL    HW1 2527   6.016   0.640   4.086 -1.3763 -0.6624 -0.1130
  309SOL    HW2 2528   6.081   0.579   4.222 -0.3568  0.7807  0.0672
  310SOL     OW 2529   1.472   5.683   4.021 -0.8052  0.4866  0.3658
  310SOL    HW1 2530   1.495   5.586   4.031 -0.4632  0.3731 -1.2896
  310SOL    HW2 2531   1.442   5.701   3.928  1.4441  2.4146 -0.1048
  311SOL     OW 2532   2.548   3.709   6.681  0.8585 -0.2673  0.1087
  311SOL    HW1 2533   2.524   3.806   6.677 -0.0364 -0.4516  0.7476
  311SOL    HW2 2534   2.528   3.666   6.593  3.3764  0.5728 -0.9437
  312SOL     OW 2535   4.774   0.645   4.740 -0.4728  0.5578 -0.5492
  312SOL    HW1 2536   4.690   0.697   4.751 -1.5045 -1.1486  0.0830
  312SOL    HW2 2537   4.799   0.603   4.827  1.1913  1.2337 -0.6703
  313SOL     OW 2538   1.465   1.142   5.216  0.4983 -0.2623  0.4168
  313SOL    HW1 2539   1.541   1.085   5.182  1.7263  0.3777  1.9788
  313SOL    HW2 2540   1.472   1.233   5.176 -0.2759 -0.5782 -0.4876
  314SOL     OW 2541   4.187   6.975   6.580 -0.0873 -0.6605 -0.0198
  314SOL    HW1 2542   4.179   7.065   6.623 -0.5753 -0.9354  0.4728
  314SOL    HW2 2543   4.099   6.951   6.538 -0.1023 -1.1098  0.2638
  315SOL     OW 2544   4.226   6.216   4.570  0.7710 -0.3344  0.2960
  315SOL    HW1 2545   4.209   6.309   4.602 -1.4845 -0.6419  0.1371
  315SOL    HW2 2546   4.322   6.207   4.543  1.3445  1.5403  1.5614
  316SOL     OW 2547   3.292   6.110   0.246  0.0524 -0.7271  0.0003
  316SOL    HW1 2548   3.322   6.029   0.298  0.8386 -0.0130  0.6997
  316SOL    HW2 2549   3.368   6.175   0.239 -1.1989  1.0096  1.5331
  317SOL     OW 2550   1.689   1.272   4.576  0.0495 -0.1202 -0.1401
  317SOL    HW1 2551   1.784   1.273   4.543  0.1730 -0.5738  0.1954
  317SOL    HW2 2552   1.640   1.197   4.533 -0.0607 -0.1074 -0.0354
  318SOL     OW 2553   3.662   3.716   2.101 -0.4548  0.3564 -0.2339
  318SOL    HW1 2554   3.644   3.815   2.099  0.5437  0.5623  0.0916
  318SOL    HW2 2555   3.754   3.700   2.138 -1.4081 -0.8093  1.7991
  319SOL     OW 2556   6.919   2.893   6.185  0.2012 -0.2688  0.2179
  319SOL    HW1 2557   6.886   2.937   6.102  1.2979  1.3205  0.5732
  319SOL    HW2 2558   6.895   2.796   6.183 -0.9587  0.0078 -1.3123
  320SOL     OW 2559   6.457   3.590   1.063  0.1695 -0.4008 -0.0178
  320SOL    HW1 2560   6.487   3.683   1.042 -1.5582  0.4383  1.0168
  320SOL    HW2 2561   6.360   3.580   1.043 -0.3429 -1.1048  2.4148
  321SOL     OW 2562   5.243   0.658   0.043 -0.6482 -0.6368 -0.0266
  321SOL    HW1 2563   5.282   0.746   0.070 -0.3608 -1.0172  0.8366
  321SOL    HW2 2564   5.229   0.656  -0.056 -0.2477  0.2123 -0.1039
  322SOL     OW 2565   5.837   5.887   3.689 -0.2277  0.0607  0.2711
  322SOL    HW1 2566   5.933   5.914   3.698 -0.5004  0.7241  1.3194
  322SOL    HW2 2567   5.828   5.790   3.715  0.6531 -1.0142 -2.9621
  323SOL     OW 2568   1.953   5.690   4.059 -0.0954  0.1503 -0.2504
  323SOL    HW1 2569   1.874   5.704   3.999 -0.6193 -1.0930  0.1162
  323SOL    HW2 2570   2.028   5.749   4.029 -0.9958  1.0057 -0.8966
  324SOL     OW 2571   4.714   2.227   5.657  0.3205  0.5532 -0.1417
  324SOL    HW1 2572   4.703   2.290   5.579 -1.1388  0.0856 -0.3386
  324SOL    HW2 2573   4.658   2.146   5.643  0.4760  0.1986  1.1484
  325SOL     OW 2574   6.850   4.089   3.433 -0.1342 -0.3907 -0.7399
  325SOL    HW1 2575   6.863   3.998   3.473  2.1504  0.1423 -0.1005
  325SOL    HW2 2576   6.771   4.087   3.371 -1.3337 -2.2713  0.7166
  326SOL     OW 2577   6.923   2.744   1.974  0.0508 -0.1800  0.6991
  326SOL    HW1 2578   6.858   2.782   1.908 -0.3389 -2.0701 -0.0911
  326SOL    HW2 2579   6.879   2.671   2.026  1.3466 -1.0802  0.5792
  327SOL     OW 2580   6.711   2.013   6.912  0.4228 -0.1159 -0.3340
  327SOL    HW1 2581   6.766   1.936   6.878  1.5695  0.2397  0.6636
  327SOL    HW2 2582   6.687   2.073   6.835  3.4611  0.9825 -0.5643
  328SOL     OW 2583   2.159   6.489   5.157  0.1451 -0.3880 -0.2219
  328SOL    HW1 2584   2.077   6.511   5.210  1.0109  1.0311  0.5919
  328SOL    HW2 2585   2.218   6.429   5.211  0.3430 -0.1558 -0.1793
  329SOL     OW 2586   3.981   0.400   0.295 -0.1408  0.1131 -0.2017
  329SOL    HW1 2587   4.075   0.434   0.296 -0.0569 -0.1004  0.7671
  329SOL    HW2 2588   3.922   0.464   0.246  0.6030 -0.0297 -1.3137
  330SOL     OW 2589   4.564   0.157   0.581 -0.0405 -0.4496 -0.2854
  330SOL    HW1 2590   4.663   0.173   0.587  0.2449 -1.4213 -1.6677
  330SOL    HW2 2591   4.515   0.239   0.607  1.1486  0.1703  0.0657
  331SOL     OW 2592   0.307   2.119   4.090 -0.3502 -0.0543  0.2287
  331SOL    HW1 2593   0.215   2.084   4.071  0.1982 -1.8227  0.5646
  331SOL    HW2 2594   0.330   2.101   4.186  1.1535 -1.7308 -0.3795
  332SOL     OW 2595   6.499   2.470   5.626 -0.1213 -0.0785 -0.0664
  332SOL    HW1 2596   6.536   2.516   5.545  0.4602  2.9281  1.7557
  332SOL    HW2 2597   6.407   2.506   5.645 -0.5575 -1.3066  0.2171
  333SOL     OW 2598   0.154   3.876   2.869 -0.3028 -0.1311  0.4491
  333SOL    HW1 2599   0.088   3.807   2.901 -0.3223  0.7610  2.4604
  333SOL    HW2 2600   0.112   3.929   2.795 -0.8556 -1.2816 -0.0821
  334SOL     OW 2601   2.830   4.995   2.700  0.2999 -0.7047 -0.3182
  334SOL    HW1 2602   2.740   4.993   2.656  0.4350 -1.0661 -0.5822
  334SOL    HW2 2603   2.880   4.912   2.677 -1.3682 -3.3325  4.2378
  335SOL     OW 2604   5.632   6.450   2.024 -0.2906 -0.2223 -0.0945
  335SOL    HW1 2605   5.654   6.547   2.034  0.7122 -0.4650  0.2052
  335SOL    HW2 2606   5.717   6.397   2.016 -0.8162 -1.0960 -0.0850
  336SOL     OW 2607   2.134   0.997   5.044  0.1175  0.7681  0.2559
  336SOL    HW1 2608   2.160   1.092   5.059  1.8294  0.2007  1.1312
  336SOL    HW2 2609   2.078   0.966   5.121  2.5338  0.0944  1.8742
  337SOL     OW 2610   3.733   1.678   0.861  0.0079 -0.5066 -0.0064
  337SOL    HW1 2611   3.663   1.671   0.789 -0.5090 -0.6001  0.5003
  337SOL    HW2 2612   3.824   1.678   0.819 -0.1206 -3.8370 -0.5036
  338SOL     OW 2613   5.021   4.487   5.960 -0.0729  0.0784  0.2416
  338SOL    HW1 2614   5.096   4.474   5.894 -1.6605 -0.9583 -1.4421
  338SOL    HW2 2615   5.010   4.404   6.015  0.1092  0.3022  0.6242
  339SOL     OW 2616   3.052   2.362   0.410  0.0703  0.0340  0.0908
  339SOL    HW1 2617   3.127   2.427   0.413  0.8462 -0.8666  1.0261
  339SOL    HW2 2618   2.967   2.408   0.435  0.3398  1.0016 -0.7097
  340SOL     OW 2619   0.167   3.538   1.076 -0.0116  0.6099  0.8106
  340SOL    HW1 2620   0.129   3.563   0.987 -0.3883  0.6068  0.9671
  340SOL    HW2 2621   0.193   3.441   1.074 -1.3026  0.2324  1.1236
  341SOL     OW 2622   1.399   2.264   4.635 -0.2013  0.3510 -0.1524
  341SOL    HW1 2623   1.391   2.274   4.735 -0.1239 -0.2126 -0.0848
  341SOL    HW2 2624   1.377   2.351   4.591  1.0372  0.9741  0.4109
  342SOL     OW 2625   6.601   3.728   2.179 -0.3492 -0.4046  0.5219
  342SOL    HW1 2626   6.555   3.717   2.267 -2.8399 -1.3256 -0.7952
  342SOL    HW2 2627   6.656   3.646   2.159  0.9766  0.1899  1.5622
  343SOL     OW 2628   3.946   1.201   3.794  0.3841  0.1576  0.6596
  343SOL    HW1 2629   3.851   1.186   3.769  1.3506 -0.9050 -2.9341
  343SOL    HW2 2630   3.978   1.288   3.756  1.3305 -0.3954  0.1497
  344SOL     OW 2631   5.533   1.966   3.799 -0.0898  0.4502 -0.0066
  344SOL    HW1 2632   5.493   1.900   3.863  0.4091 -0.6056 -0.7430
  344SOL    HW2 2633   5.460   2.008   3.745 -0.2841 -1.0554 -0.9634
  345SOL     OW 2634   1.264   0.799   2.338 -0.3089 -0.3026 -0.2848
  345SOL    HW1 2635   1.212   0.782   2.254 -1.4152  0.1632  0.2832
  345SOL    HW2 2636   1.204   0.788   2.417  0.0615  1.6353  0.3325
  346SOL     OW 2637   0.422   4.380   2.775 -0.0330 -0.3004  0.7781
  346SOL    HW1 2638   0.346   4.358   2.713 -0.3597  0.2137  0.9833
  346SOL    HW2 2639   0.474   4.297   2.796 -0.7900 -0.7364  0.9658
  347SOL     OW 2640   3.979   6.033   6.089 -0.2601 -0.3466  0.0675
  347SOL    HW1 2641   3.901   6.018   6.027 -0.4589 -0.3264  0.3120
  347SOL    HW2 2642   4.063   6.040   6.035 -0.2248 -1.8093 -0.1101
  348SOL     OW 2643   6.398   1.764   4.490  0.1067 -0.1062 -0.1350
  348SOL    HW1 2644   6.403   1.759   4.590 -0.0954 -1.4555 -0.1633
  348SOL    HW2 2645   6.405   1.671   4.453  0.1722  0.3844 -1.3787
  349SOL     OW 2646   6.125   5.171   4.854  0.6637  0.0647  0.2728
  349SOL    HW1 2647   6.112   5.199   4.759 -0.5015 -1.9495 -0.2335
  349SOL    HW2 2648   6.075   5.233   4.915  0.5842  0.7884 -0.5198
  350SOL     OW 2649   2.860   1.840   2.530  0.0548  0.3245  0.3597
  350SOL    HW1 2650   2.890   1.902   2.603  0.4245  1.5165 -0.7633
  350SOL    HW2 2651   2.827   1.755   2.570  1.1590  0.5660  1.8642
  351SOL     OW 2652   0.583   0.858   3.443 -0.4618  0.5330  0.2017
  351SOL    HW1 2653   0.561   0.761   3.448 -0.7806  0.5883 -0.0781
  351SOL    HW2 2654   0.645   0.874   3.366 -1.6182  0.7577 -0.7214
  352SOL     OW 2655   2.908   0.126   2.824  0.6998  0.7165  0.6929
  352SOL    HW1 2656   2.988   0.186   2.831  1.2176  0.0906  0.1914
  352SOL    HW2 2657   2.901   0.071   2.907  1.2746  0.1793  0.3902
  353SOL     OW 2658   3.125   1.953   0.662 -0.5343  0.1050 -0.4632
  353SOL    HW1 2659   3.130   1.876   0.599 -1.8597 -0.3999  0.0104
  353SOL    HW2 2660   3.144   1.922   0.755 -4.1133 -0.3954  0.2370
  354SOL     OW 2661   6.179   3.019   3.885 -0.0885  0.3022  0.2791
  354SOL    HW1 2662   6.196   3.026   3.983  0.9425  1.1497  0.0623
  354SOL    HW2 2663   6.082   3.002   3.869 -0.2711  0.1823  1.4414
  355SOL     OW 2664   0.909   2.039   6.584  0.2396  0.7212  0.0015
  355SOL    HW1 2665   0.884   1.950   6.545  2.9624  0.5149 -1.4997
  355SOL    HW2 2666   0.827   2.081   6.623 -1.0556 -2.6736  1.3774
  356SOL     OW 2667   6.476   4.360   2.653 -0.1542 -0.2951  0.6628
  356SOL    HW1 2668   6.518   4.451   2.649  0.5518 -0.6532 -0.6630
  356SOL    HW2 2669   6.484   4.316   2.564 -1.7018 -1.1376  0.9045
  357SOL     OW 2670   3.635   1.309   5.442  0.3596  0.1756 -0.6748
  357SOL    HW1 2671   3.646   1.408   5.431 -3.2903  1.3180  3.2121
  357SOL    HW2 2672   3.721   1.269   5.474  1.2628  2.5454  0.0313
  358SOL     OW 2673   4.036   4.731   5.699  0.1735  0.8134  0.2531
  358SOL    HW1 2674   3.976   4.708   5.623  0.3618 -1.0597  0.6272
  358SOL    HW2 2675   3.987   4.716   5.785  0.5023  1.2965  0.5266
  359SOL     OW 2676   0.292   2.924   1.083  0.1957  0.1333  0.1283
  359SOL    HW1 2677   0.201   2.933   1.041 -0.3633 -0.2504  1.2225
  359SOL    HW2 2678   0.362   2.954   1.018 -0.3075 -3.5252 -2.4617
  360SOL     OW 2679   4.663   0.759   2.769 -0.3711  0.0455 -0.6207
  360SOL    HW1 2680   4.702   0.689   2.709  0.3537 -0.9008  0.9117
  360SOL    HW2 2681   4.638   0.719   2.857 -0.9653  1.4999 -0.0846
  361SOL     OW 2682   4.208   1.275   5.070 -0.1305 -0.0456  0.2686
  361SOL    HW1 2683   4.234   1.371   5.054 -0.7917  0.2274  0.7631
  361SOL    HW2 2684   4.290   1.218   5.068  0.2827  0.5372  0.0181
  362SOL     OW 2685   6.662   3.345   5.548  0.1844 -0.1060  0.0953
  362SOL    HW1 2686   6.589   3.413   5.561  0.5602  0.4064 -0.3873
  362SOL    HW2 2687   6.657   3.309   5.455 -0.1154 -0.8723  0.4030
  363SOL     OW 2688   0.404   2.005   0.096 -0.3239 -0.5728  0.2940
  363SOL    HW1 2689   0.315   1.980   0.058  0.0245 -0.0110 -0.9544
  363SOL    HW2 2690   0.469   2.020   0.021  0.3478  0.7616  1.1024
  364SOL     OW 2691   0.822   6.512   6.362 -0.1092 -0.3648 -0.3042
  364SOL    HW1 2692   0.791   6.606   6.348 -1.6861 -0.6623  0.8350
  364SOL    HW2 2693   0.745   6.457   6.395  0.9964 -1.8506 -0.1311
  365SOL     OW 2694   6.310   6.632   4.402 -0.0580 -0.4061 -0.5130
  365SOL    HW1 2695   6.325   6.621   4.500 -0.0036  1.1979 -0.3066
  365SOL    HW2 2696   6.218   6.599   4.379 -0.2913 -0.2822  0.1967
  366SOL     OW 2697   3.911   6.679   3.288 -0.5190  0.1015  0.1856
  366SOL    HW1 2698   3.818   6.702   3.317  0.2364  3.8333  0.1512
  366SOL    HW2 2699   3.934   6.731   3.206  1.3634 -1.4009 -0.3104
  367SOL     OW 2700   2.148   3.082   3.060 -0.4432  0.2988 -0.0081
  367SOL    HW1 2701   2.244   3.053   3.061 -0.2816  0.7963 -0.4452
  367SOL    HW2 2702   2.093   3.017   3.112  0.1838  0.1959  0.5352
  368SOL     OW 2703   0.780   0.378   4.803  0.3962  0.4836  0.3919
  368SOL    HW1 2704   0.781   0.473   4.834 -0.0073  0.9985 -1.1011
  368SOL    HW2 2705   0.875   0.345   4.797  0.4869  0.2182  2.4724
  369SOL     OW 2706   3.549   2.903   3.260  0.4885 -0.0549 -0.1984
  369SOL    HW1 2707   3.516   2.985   3.307  0.5873  0.4741 -1.0418
  369SOL    HW2 2708   3.513   2.901   3.167  1.0850 -0.5802 -0.4262
  370SOL     OW 2709   3.150   5.202   4.363 -0.2369  0.0835 -0.5808
  370SOL    HW1 2710   3.200   5.119   4.339  1.9068  1.4419 -1.0540
  370SOL    HW2 2711   3.052   5.188   4.346  0.4078 -1.2068 -4.1922
  371SOL     OW 2712   3.480   3.325   1.982  0.1388 -0.2561 -0.1679
  371SOL    HW1 2713   3.550   3.267   2.024  1.0327  2.0129  1.6793
  371SOL    HW2 2714   3.503   3.339   1.885  0.6679 -1.8048 -0.2889
  372SOL     OW 2715   6.658   3.707   4.850  0.2728  0.1181 -0.5584
  372SOL    HW1 2716   6.719   3.628   4.834 -1.7173 -1.4101 -1.0136
  372SOL    HW2 2717   6.686   3.754   4.934  2.0696 -0.5054 -0.7579
  373SOL     OW 2718   0.100   6.644   1.281  0.2975  0.1361  0.2910
  373SOL    HW1 2719   0.197   6.639   1.259  0.3658  3.1602 -0.6186
  373SOL    HW2 2720   0.046   6.632   1.198 -0.1496 -1.5169  0.7886
  374SOL     OW 2721   6.797   6.680   4.141 -0.2850 -0.2613 -0.2416
  374SOL    HW1 2722   6.745   6.724   4.068 -2.0156  0.9545  1.6003
  374SOL    HW2 2723   6.741   6.678   4.224  1.0828 -2.8292  0.7068
  375SOL     OW 2724   5.848   4.968   4.028 -0.4228  0.6789 -0.1169
  375SOL    HW1 2725   5.855   5.047   3.967 -1.7932  0.2426 -0.8862
  375SOL    HW2 2726   5.751   4.944   4.041 -0.0419 -1.2854 -0.4811
  376SOL     OW 2727   6.044   4.694   0.980 -0.0013 -0.0485  0.5637
  376SOL    HW1 2728   5.955   4.700   0.935 -0.0767  1.6391  0.8885
  376SOL    HW2 2729   6.038   4.736   1.071  0.6710 -1.5783  1.3576
  377SOL     OW 2730   0.872   1.189   3.199  0.4755 -0.3873  0.3795
  377SOL    HW1 2731   0.907   1.174   3.292  2.9894 -1.9202 -0.7118
  377SOL    HW2 2732   0.830   1.280   3.194  0.9878  0.0594  2.8002
  378SOL     OW 2733   2.394   2.138   4.536 -0.3017  0.3724 -0.5487
  378SOL    HW1 2734   2.294   2.138   4.535 -0.3297  2.0312 -0.8287
  378SOL    HW2 2735   2.428   2.177   4.450  0.5630  0.5818 -0.1230
  379SOL     OW 2736   1.460   5.468   6.181  0.4343 -0.0368  0.5939
  379SOL    HW1 2737   1.503   5.441   6.095  0.2878  0.5816  0.3235
  379SOL    HW2 2738   1.361   5.475   6.168  0.4018 -0.0370  0.8370
  380SOL     OW 2739   4.004   4.021   5.158 -0.1395  0.5971  0.3408
  380SOL    HW1 2740   3.999   4.118   5.184  1.8008  1.0551 -0.7730
  380SOL    HW2 2741   4.026   3.967   5.238 -1.8761  0.9480  1.1112
  381SOL     OW 2742   0.758   2.279   3.821  0.3993 -0.1225  0.0881
  381SOL    HW1 2743   0.791   2.289   3.915  0.1462  0.1530  0.1477
  381SOL    HW2 2744   0.678   2.337   3.807 -0.1552 -0.8915 -0.0075
  382SOL     OW 2745   1.990   4.282   0.197  0.3199  0.8753  0.5273
  382SOL    HW1 2746   1.931   4.205   0.221  2.5064 -0.4452  2.0012
  382SOL    HW2 2747   1.949   4.333   0.122 -2.4777 -0.1528  1.2256
  383SOL     OW 2748   3.441   4.948   2.523 -0.1260  0.1073 -0.1128
  383SOL    HW1 2749   3.532   4.987   2.531  0.2611 -0.8721  0.6242
  383SOL    HW2 2750   3.446   4.859   2.477 -1.0654  1.1371 -2.3551
  384SOL     OW 2751   3.727   6.818   0.640 -0.2845  0.7972  0.1599
  384SOL    HW1 2752   3.688   6.900   0.599 -1.0641  0.5026  0.2960
  384SOL    HW2 2753   3.662   6.780   0.707 -1.4159 -1.7597 -2.2111
  385SOL     OW 2754   6.441   1.700   3.732 -0.4234  0.1720  0.1810
  385SOL    HW1 2755   6.461   1.609   3.768 -0.9883  0.4962  1.3752
  385SOL    HW2 2756   6.464   1.704   3.635  0.6171 -0.9110  0.3700
  386SOL     OW 2757   5.519   5.562   3.008 -0.0148 -0.1698  0.2894
  386SOL    HW1 2758   5.549   5.584   3.101  0.6225 -0.5568  0.1772
  386SOL    HW2 2759   5.450   5.629   2.980  0.4788  0.5256  0.6852
  387SOL     OW 2760   1.831   5.561   6.061 -0.1184 -0.4466  0.1208
  387SOL    HW1 2761   1.750   5.601   6.105 -1.0087  1.3492 -2.8519
  387SOL    HW2 2762   1.913   5.603   6.099 -0.7942  0.5675  0.5288
  388SOL     OW 2763   3.156   2.845   4.999 -0.4893  0.5699 -0.1088
  388SOL    HW1 2764   3.161   2.747   4.980  0.8788  0.5750  0.0785
  388SOL    HW2 2765   3.131   2.860   5.094  1.5838  0.3043  0.5380
  389SOL     OW 2766   6.059   0.908   5.067 -0.2015  0.3725  0.2984
  389SOL    HW1 2767   5.988   0.977   5.057  0.1089  0.9979  2.0039
  389SOL    HW2 2768   6.143   0.938   5.022 -0.5955  0.2685 -0.5127
  390SOL     OW 2769   2.567   5.764   2.447 -0.0109  0.6542  0.3859
  390SOL    HW1 2770   2.473   5.731   2.455 -0.0954  1.0544  1.1330
  390SOL    HW2 2771   2.626   5.688   2.421 -0.7723  0.7394 -1.8437
  391SOL     OW 2772   5.720   6.149   4.218  0.0584  0.2915 -0.8774
  391SOL    HW1 2773   5.705   6.234   4.269 -0.3542 -0.1405 -0.2767
  391SOL    HW2 2774   5.781   6.168   4.140  0.5008  1.0025 -0.3717
  392SOL     OW 2775   1.077   4.340   0.223 -0.2789 -0.1208  0.0869
  392SOL    HW1 2776   1.038   4.248   0.234 -0.1547  0.0155  1.9708
  392SOL    HW2 2777   1.005   4.408   0.239 -0.6598  0.1761 -2.4389
  393SOL     OW 2778   2.169   0.442   5.782 -0.3814 -0.8083 -0.3165
  393SOL    HW1 2779   2.077   0.416   5.812 -0.2302 -1.0551 -0.0593
  393SOL    HW2 2780   2.231   0.443   5.860 -0.2303 -0.3330 -0.4365
  394SOL     OW 2781   1.786   5.631   6.911  0.4664  0.1976  0.2895
  394SOL    HW1 2782   1.751   5.543   6.879  0.8567  0.4048 -0.7643
  394SOL    HW2 2783   1.885   5.624   6.926  0.1820 -0.0798  2.1553
  395SOL     OW 2784   5.511   6.766   5.849  0.0312  0.4184  0.0264
  395SOL    HW1 2785   5.468   6.856   5.854  2.0643  1.6558 -2.2730
  395SOL    HW2 2786   5.609   6.775   5.871  0.4083 -1.0508 -0.9030
  396SOL     OW 2787   5.319   5.834   6.342 -0.1509  0.4382  0.0020
  396SOL    HW1 2788   5.374   5.918   6.344  1.2131 -0.2509 -2.7962
  396SOL    HW2 2789   5.366   5.763   6.395 -0.8343  1.1344  1.5949
  397SOL     OW 2790   4.058   5.676   5.074 -0.2147 -0.6534  0.3373
  397SOL    HW1 2791   4.017   5.585   5.072 -1.0640 -0.2695 -2.0151
  397SOL    HW2 2792   3.989   5.744   5.051  0.3766  0.6447  2.2005
  398SOL     OW 2793   3.033   1.830   2.094  0.4180  0.2991  0.0076
  398SOL    HW1 2794   2.990   1.896   2.032 -1.8738 -1.3898 -0.3284
  398SOL    HW2 2795   3.047   1.873   2.183  0.9995  1.8717 -0.8048
  399SOL     OW 2796   6.606   0.835   3.118  0.7191 -0.1144 -0.5379
  399SOL    HW1 2797   6.647   0.744   3.114 -0.6783 -0.7614 -0.8743
  399SOL    HW2 2798   6.607   0.875   3.027 -0.6793 -0.7495 -0.8559
  400SOL     OW 2799   0.924   0.280   6.563  0.5357 -0.8271  0.2017
  400SOL    HW1 2800   0.977   0.351   6.517 -1.3897  1.0045  0.7045
  400SOL    HW2 2801   0.884   0.219   6.494 -1.2457  1.1210 -0.5740
  401SOL     OW 2802   1.996   0.943   4.512  0.2071  0.5654 -0.4866
  401SOL    HW1 2803   1.897   0.947   4.499  0.0867  0.9383  0.4464
  401SOL    HW2 2804   2.039   0.902   4.432 -0.5717  1.7081 -1.5292
  402SOL     OW 2805   0.997   0.763   3.909  0.1807  0.2890 -0.0421
  402SOL    HW1 2806   1.090   0.731   3.894  0.9094  1.0766  2.3141
  402SOL    HW2 2807   0.933   0.709   3.853  1.8889 -1.2584 -0.5819
  403SOL     OW 2808   0.408   0.472   2.043 -0.9203 -0.7123 -0.3600
  403SOL    HW1 2809   0.416   0.561   2.088 -2.8973 -1.0287  0.7263
  403SOL    HW2 2810   0.349   0.480   1.962 -1.0846 -1.0222 -0.2736
  404SOL     OW 2811   5.117   0.768   4.721 -0.4054 -0.6746  0.3452
  404SOL    HW1 2812   5.138   0.822   4.640  1.5539  0.3896  1.4892
  404SOL    HW2 2813   5.122   0.670   4.699  0.7361 -0.4084 -0.6824
  405SOL     OW 2814   0.156   1.922   5.765  0.0197  0.6715  0.0320
  405SOL    HW1 2815   0.247   1.945   5.801  0.4468  0.3587 -0.8077
  405SOL    HW2 2816   0.090   1.989   5.798  0.7892  1.6463 -0.3272
  406SOL     OW 2817   1.079   4.647   3.348 -0.4434  0.3436 -0.4268
  406SOL    HW1 2818   1.162   4.593   3.357  0.0812  1.2171  0.1967
  406SOL    HW2 2819   1.093   4.717   3.278  0.0902  1.7423  0.9998
  407SOL     OW 2820   4.903   5.889   0.380 -0.0964 -0.1094 -0.1422
  407SOL    HW1 2821   4.873   5.953   0.451  2.3506 -0.9745  1.8474
  407SOL    HW2 2822   4.851   5.805   0.385  0.8788 -0.6587  1.5920
  408SOL     OW 2823   6.204   0.579   5.850 -0.1987  0.0907  0.4172
  408SOL    HW1 2824   6.174   0.651   5.789 -0.2202 -0.1162  0.1829
  408SOL    HW2 2825   6.271   0.616   5.915 -1.5699  0.7635  1.5006
  409SOL     OW 2826   1.380   4.008   2.819  0.0077  0.0365  0.4873
  409SOL    HW1 2827   1.399   4.089   2.764 -0.6253  1.3652  2.1128
  409SOL    HW2 2828   1.361   3.930   2.760  0.7040  1.0419 -1.1282
  410SOL     OW 2829   6.209   2.331   0.311  0.7616 -0.5822 -0.5105
  410SOL    HW1 2830   6.139   2.401   0.298  1.2469  0.0926  0.4058
  410SOL    HW2 2831   6.167   2.241   0.304 -0.3991 -0.1988  0.9168
  411SOL     OW 2832   3.352   6.369   1.693 -0.8462  0.0242 -0.4531
  411SOL    HW1 2833   3.365   6.270   1.697  2.0685  0.3282  3.1892
  411SOL    HW2 2834   3.277   6.396   1.754 -1.2868  0.1267 -1.0310
  412SOL     OW 2835   4.231   3.377   2.850 -0.2326 -0.1521 -0.3710
  412SOL    HW1 2836   4.162   3.437   2.891 -1.6253 -2.2488  0.5473
  412SOL    HW2 2837   4.322   3.414   2.868 -1.0073  1.3734  0.6630
  413SOL     OW 2838   3.548   3.189   3.674 -0.0716 -0.3415 -0.3662
  413SOL    HW1 2839   3.619   3.251   3.704  0.7624 -1.3470 -0.2019
  413SOL    HW2 2840   3.510   3.141   3.753 -0.6289 -0.1315 -0.5008
  414SOL     OW 2841   6.229   5.079   5.823 -0.3901 -0.8428  0.0832
  414SOL    HW1 2842   6.157   5.148   5.832 -0.1483 -0.5340 -0.3382
  414SOL    HW2 2843   6.215   5.008   5.892  0.8332  0.9443  2.3007
  415SOL     OW 2844   1.054   3.850   1.192 -0.9424  0.5538  0.5764
  415SOL    HW1 2845   1.106   3.936   1.184 -1.0278  0.7659  2.0193
  415SOL    HW2 2846   0.964   3.861   1.150  0.2818  0.0093 -2.4883
  416SOL     OW 2847   6.795   2.589   2.171 -0.1077 -0.2240  0.0500
  416SOL    HW1 2848   6.877   2.591   2.228  0.8232  1.2958 -1.2386
  416SOL    HW2 2849   6.737   2.512   2.198  0.8350 -0.2399  2.2191
  417SOL     OW 2850   3.724   2.795   6.589 -0.3897  0.2948 -0.1643
  417SOL    HW1 2851   3.808   2.752   6.622 -0.4888 -0.5187 -0.9584
  417SOL    HW2 2852   3.648   2.772   6.651 -0.0391  1.0701  0.5804
  418SOL     OW 2853   5.293   6.513   1.574  0.3501  0.0410  0.0896
  418SOL    HW1 2854   5.349   6.574   1.518 -0.8663  1.3748  0.2604
  418SOL    HW2 2855   5.351   6.466   1.640  1.6967 -0.9507 -1.6923
  419SOL     OW 2856   2.363   2.726   5.198  0.4425 -0.1048  0.1314
  419SOL    HW1 2857   2.421   2.679   5.132  1.3167 -0.0075  0.8236
  419SOL    HW2 2858   2.407   2.811   5.228 -0.5994  0.5956 -0.2342
  420SOL     OW 2859   0.407   0.608   0.594  0.5448 -0.2958 -0.3181
  420SOL    HW1 2860   0.364   0.676   0.654  0.0514  1.4426 -2.4980
  420SOL    HW2 2861   0.506   0.615   0.601  0.4946  0.2750 -0.0957
  421SOL     OW 2862   5.173   4.813   1.668  0.0867 -0.0608 -0.8641
  421SOL    HW1 2863   5.254   4.811   1.726  0.2083 -0.0642 -1.0343
  421SOL    HW2 2864   5.199   4.799   1.572  0.1905  2.3265 -1.2596
  422SOL     OW 2865   5.950   1.459   3.612  0.2531  0.4774  0.2596
  422SOL    HW1 2866   5.909   1.410   3.690  1.7337  1.6603  1.8624
  422SOL    HW2 2867   5.918   1.554   3.612 -0.8267  0.1500 -1.4680
  423SOL     OW 2868   0.982   4.084   5.902 -0.0759 -0.5956 -0.2745
  423SOL    HW1 2869   1.049   4.042   5.841  1.0457 -0.5521  0.8867
  423SOL    HW2 2870   1.026   4.155   5.957 -0.5656 -1.8838  1.9168
  424SOL     OW 2871   0.048   1.981   1.582 -0.5054 -0.1957 -0.7494
  424SOL    HW1 2872   0.124   1.929   1.542 -1.5387 -1.4203 -1.2161
  424SOL    HW2 2873   0.015   2.048   1.515 -1.1788 -1.1188 -1.3660
  425SOL     OW 2874   1.005   5.139   0.604  0.3923  0.5013  0.1603
  425SOL    HW1 2875   1.019   5.059   0.545 -0.0031  0.8548 -0.4243
  425SOL    HW2 2876   1.088   5.194   0.607  1.3856 -0.9640  2.2005
  426SOL     OW 2877   3.414   5.611   0.156 -0.5926 -0.3591  0.1039
  426SOL    HW1 2878   3.381   5.521   0.127 -0.8091 -0.5621  0.9452
  426SOL    HW2 2879   3.401   5.677   0.081  0.6791 -1.2680 -0.9555
  427SOL     OW 2880   3.472   3.401   0.626 -0.7314 -0.4234 -0.3103
  427SOL    HW1 2881   3.534   3.471   0.592 -0.0060 -1.3275 -0.9074
  427SOL    HW2 2882   3.415   3.439   0.699  1.3059  0.1445  1.0906
  428SOL     OW 2883   0.309   0.428   2.637 -0.1471 -0.5437 -0.0425
  428SOL    HW1 2884   0.328   0.514   2.588  0.3088 -0.6547 -0.0654
  428SOL    HW2 2885   0.295   0.355   2.570 -0.3878 -0.5188 -0.0201
  429SOL     OW 2886   4.416   1.427   1.611 -0.1909 -0.2008 -0.3008
  429SOL    HW1 2887   4.385   1.521   1.600 -0.5210 -0.3756 -0.9176
  429SOL    HW2 2888   4.338   1.365   1.605 -0.2190 -0.4245  1.7882
  430SOL     OW 2889   0.057   6.447   1.856  0.2759  0.3297 -0.0737
  430SOL    HW1 2890   0.002   6.473   1.776 -2.6237 -0.3743  1.5399
  430SOL    HW2 2891   0.082   6.351   1.849 -1.0838 -0.0865  0.3808
  431SOL     OW 2892   1.910   3.420   5.883 -0.2399  1.1476 -0.2561
  431SOL    HW1 2893   1.850   3.499   5.900 -1.3239 -0.1632  2.5613
  431SOL    HW2 2894   1.872   3.339   5.927  1.4734 -0.7427 -2.0303
  432SOL     OW 2895   6.888   0.598   5.406 -0.1718 -0.2045 -0.8416
  432SOL    HW1 2896   6.933   0.515   5.371 -0.2607 -0.8229  0.4456
  432SOL    HW2 2897   6.883   0.593   5.506  0.5107  1.7199 -0.6805
  433SOL     OW 2898   0.912   6.399   0.117  0.1172  0.0496  0.3846
  433SOL    HW1 2899   0.843   6.469   0.103  0.3794 -0.1771 -2.5388
  433SOL    HW2 2900   0.869   6.308   0.114  0.3371 -0.0428 -0.0616
  434SOL     OW 2901   0.107   1.967   3.251  0.1849 -0.5011 -0.5486
  434SOL    HW1 2902   0.046   2.000   3.178 -1.0170 -1.4823 -0.0241
  434SOL    HW2 2903   0.128   1.871   3.234  0.1661 -0.6400  0.2171
  435SOL     OW 2904   3.200   3.302   3.332  0.1042 -0.1195 -0.4616
  435SOL    HW1 2905   3.202   3.205   3.357 -1.5428 -0.2956 -0.8790
  435SOL    HW2 2906   3.159   3.312   3.241 -2.2585  1.0974  0.6265
  436SOL     OW 2907   0.152   6.959   4.870 -0.1967  0.1558  0.1276
  436SOL    HW1 2908   0.244   6.944   4.835 -0.2891  0.6191 -0.3258
  436SOL    HW2 2909   0.086   6.953   4.795 -0.3615  1.4873  0.1464
  437SOL     OW 2910   4.864   1.062   2.412 -0.1665  0.4950 -0.1488
  437SOL    HW1 2911   4.885   1.084   2.507  0.1276  0.5969 -0.2347
  437SOL    HW2 2912   4.769   1.084   2.392  0.3947  2.8114 -0.5419
  438SOL     OW 2913   1.139   1.337   3.331 -0.1774 -0.2338  0.0780
  438SOL    HW1 2914   1.118   1.239   3.335 -1.0019 -0.0382  1.0981
  438SOL    HW2 2915   1.103   1.381   3.413  0.7382  0.8257 -0.0796
  439SOL     OW 2916   3.048   1.928   2.349 -0.2097 -0.2287 -0.0608
  439SOL    HW1 2917   3.137   1.915   2.393 -0.3830 -0.4400  0.2347
  439SOL    HW2 2918   2.977   1.891   2.408 -0.6455  1.3083  0.4279
  440SOL     OW 2919   5.231   0.238   5.706 -0.0833  0.2651  0.1504
  440SOL    HW1 2920   5.244   0.237   5.805 -2.8750 -0.4712  0.6082
  440SOL    HW2 2921   5.185   0.153   5.678 -0.4702  1.0092 -1.5746
  441SOL     OW 2922   1.198   6.295   6.738  0.2567 -0.4740  0.1305
  441SOL    HW1 2923   1.174   6.391   6.726  1.3260 -0.1019  0.7766
  441SOL    HW2 2924   1.271   6.271   6.674 -0.3197 -0.9934 -0.3451
  442SOL     OW 2925   5.105   1.113   0.658 -0.1883 -0.1063 -0.5962
  442SOL    HW1 2926   5.063   1.030   0.623 -1.9824 -0.5313  2.2921
  442SOL    HW2 2927   5.042   1.190   0.643  0.9380  0.5728 -2.1382
  443SOL     OW 2928   5.614   6.333   4.617  0.7198  0.2632  0.4464
  443SOL    HW1 2929   5.631   6.428   4.643  0.4484  0.8924 -1.5284
  443SOL    HW2 2930   5.521   6.307   4.645  0.4027  0.9412  0.0321
  444SOL     OW 2931   5.363   5.776   5.996  0.2814  0.1720 -0.8726
  444SOL    HW1 2932   5.329   5.713   6.066  1.7249 -0.0364 -0.3093
  444SOL    HW2 2933   5.342   5.870   6.023 -0.3615  0.0248 -0.8459
  445SOL     OW 2934   3.302   3.878   1.543  0.5181 -0.3758 -0.0147
  445SOL    HW1 2935   3.296   3.941   1.466  1.5153  1.4258  1.2951
  445SOL    HW2 2936   3.329   3.929   1.625  0.9549 -2.4658  1.2053
  446SOL     OW 2937   5.891   5.031   1.192 -0.5432  0.1308  0.2504
  446SOL    HW1 2938   5.902   5.127   1.219  2.5652  0.3778 -1.4370
  446SOL    HW2 2939   5.851   5.027   1.100 -0.4570 -0.1822  0.2280
  447SOL     OW 2940   5.754   3.726   6.553 -0.1086 -0.4724 -0.2747
  447SOL    HW1 2941   5.791   3.669   6.626  0.0971 -1.5771 -1.2060
  447SOL    HW2 2942   5.813   3.806   6.539  0.9008 -1.2453 -0.4923
  448SOL     OW 2943   1.311   5.528   3.012  0.2649  0.0034  0.4183
  448SOL    HW1 2944   1.371   5.541   3.091  0.3061  0.0477  0.3796
  448SOL    HW2 2945   1.218   5.557   3.035  0.4305  0.7062  0.2169
  449SOL     OW 2946   0.491   6.432   3.259  0.1506  0.3730  0.2632
  449SOL    HW1 2947   0.539   6.519   3.245 -0.8349  1.0462  0.9356
  449SOL    HW2 2948   0.423   6.420   3.186  1.7218 -0.8893 -1.0620
  450SOL     OW 2949   0.948   4.032   0.077  0.2519 -0.3697  0.2515
  450SOL    HW1 2950   0.977   3.937   0.086  0.2255 -0.2429  1.9377
  450SOL    HW2 2951   1.005   4.078   0.010  0.9231 -1.3114  0.1549
  451SOL     OW 2952   1.905   6.293   4.385  0.0293  0.3287  0.0336
  451SOL    HW1 2953   1.968   6.292   4.462 -0.9292  2.6034  0.9441
  451SOL    HW2 2954   1.939   6.233   4.313  1.4191 -1.1645  1.8423
  452SOL     OW 2955   5.732   5.726   0.592  0.0903  0.3452 -0.0097
  452SOL    HW1 2956   5.823   5.702   0.559 -0.0928  1.1624 -1.1925
  452SOL    HW2 2957   5.663   5.692   0.527 -0.4154  0.3384  0.5176
  453SOL     OW 2958   6.451   2.350   0.901 -0.1934 -0.1629 -0.1471
  453SOL    HW1 2959   6.524   2.327   0.966  0.0713  0.9088 -0.0364
  453SOL    HW2 2960   6.363   2.327   0.941  0.0983 -2.3315 -0.6508
  454SOL     OW 2961   3.127   6.026   5.013 -0.0807 -0.1949 -0.0125
  454SOL    HW1 2962   3.159   6.017   4.919  0.0410 -2.2188  0.1742
  454SOL    HW2 2963   3.100   6.121   5.031  1.0997  0.4996 -1.6791
  455SOL     OW 2964   4.363   0.918   6.011  0.1138 -0.2032 -0.2465
  455SOL    HW1 2965   4.458   0.894   5.991  0.6405 -0.0096  1.8631
  455SOL    HW2 2966   4.309   0.834   6.025 -0.3249 -0.3588 -2.4302
  456SOL     OW 2967   1.438   0.804   2.741  0.3879  0.3213  0.0206
  456SOL    HW1 2968   1.476   0.893   2.718  0.3280  0.3028 -0.1552
  456SOL    HW2 2969   1.400   0.806   2.834  0.6592  0.3894  0.1288
  457SOL     OW 2970   6.600   1.437   4.409  0.5405 -0.0720 -0.1564
  457SOL    HW1 2971   6.690   1.394   4.405  0.3594 -0.6106  1.0780
  457SOL    HW2 2972   6.549   1.417   4.325  0.8588 -1.3992 -0.0594
  458SOL     OW 2973   3.274   5.860   3.242 -0.2191 -0.3518  0.3739
  458SOL    HW1 2974   3.354   5.819   3.197 -1.2249 -0.3636 -1.4780
  458SOL    HW2 2975   3.206   5.789   3.261 -0.5655 -0.0547  0.2457
  459SOL     OW 2976   2.451   4.547   5.659 -0.2471  0.0595  0.4027
  459SOL    HW1 2977   2.399   4.621   5.617 -1.8515 -0.7035  0.9472
  459SOL    HW2 2978   2.420   4.459   5.622  0.1841 -0.4591  1.2454
  460SOL     OW 2979   1.715   5.794   2.973  0.3654  0.3574  0.2665
  460SOL    HW1 2980   1.771   5.725   3.018  0.3371 -0.5636 -1.0325
  460SOL    HW2 2981   1.651   5.749   2.910 -1.2515  1.4370  1.0794
  461SOL     OW 2982   1.648   0.327   4.526  0.1641  0.5068 -0.0450
  461SOL    HW1 2983   1.712   0.398   4.556  1.8079 -0.5505 -0.9393
  461SOL    HW2 2984   1.685   0.237   4.548 -2.6366 -0.1725  2.6238
  462SOL     OW 2985   6.209   5.740   6.627  0.3904 -0.3268  0.8684
  462SOL    HW1 2986   6.133   5.783   6.577  0.8239 -0.7871 -0.2114
  462SOL    HW2 2987   6.296   5.769   6.586  0.7420 -0.9589  1.1616
  463SOL     OW 2988   3.364   1.721   3.117  0.2013 -0.1350  0.3543
  463SOL    HW1 2989   3.463   1.712   3.103  0.2094  0.3757  0.0394
  463SOL    HW2 2990   3.316   1.650   3.065  0.4272 -0.7551  0.9842
  464SOL     OW 2991   3.370   2.347   2.158 -0.8641 -0.1099  0.3173
  464SOL    HW1 2992   3.385   2.293   2.076  1.2035 -0.0665  0.6226
  464SOL    HW2 2993   3.348   2.441   2.133 -0.2185 -0.0891 -0.1807
  465SOL     OW 2994   2.859   5.376   3.908 -0.8385  0.1603  0.3321
  465SOL    HW1 2995   2.770   5.400   3.946 -1.1750  0.1376 -0.4068
  465SOL    HW2 2996   2.853   5.289   3.860  0.3263 -1.4113  2.8247
  466SOL     OW 2997   3.616   5.620   0.531 -0.3659 -0.4153 -0.1078
  466SOL    HW1 2998   3.691   5.589   0.590 -1.4074 -1.6683  0.6166
  466SOL    HW2 2999   3.596   5.716   0.550 -1.6368 -1.1246  2.7839
  467SOL     OW 3000   1.958   6.676   6.203 -0.1982  0.2897  0.1390
  467SOL    HW1 3001   1.874   6.624   6.219 -0.6833 -0.0577 -2.8983
  467SOL    HW2 3002   2.034   6.612   6.189 -0.2883  0.4390 -1.1220
  468SOL     OW 3003   2.189   4.283   4.661  0.1916  0.3004 -0.5097
  468SOL    HW1 3004   2.127   4.352   4.697  0.2332 -0.0437  0.2217
  468SOL    HW2 3005   2.139   4.223   4.598  0.1283  0.9078 -1.0573
  469SOL     OW 3006   1.091   1.870   0.645 -0.4569 -0.3466 -0.6013
  469SOL    HW1 3007   1.038   1.951   0.623  0.5037  0.3972 -0.2501
  469SOL    HW2 3008   1.037   1.809   0.704 -0.5127  0.9661  0.7710
  470SOL     OW 3009   6.028   5.322   4.359  0.2962 -0.1310 -0.5651
  470SOL    HW1 3010   6.117   5.287   4.328  1.0837  0.6725  0.7105
  470SOL    HW2 3011   5.962   5.312   4.285  2.0787  1.6663 -2.5549
  471SOL     OW 3012   1.736   2.629   0.432 -0.1347 -0.0707 -0.6439
  471SOL    HW1 3013   1.800   2.661   0.502 -0.0847 -1.8103  0.1571
  471SOL    HW2 3014   1.647   2.674   0.445  0.5457  1.4465 -1.0131
  472SOL     OW 3015   1.968   4.476   6.733  0.8827 -0.3498 -0.0370
  472SOL    HW1 3016   2.046   4.474   6.670 -0.8587  0.3309 -2.3324
  472SOL    HW2 3017   1.979   4.552   6.797  4.1827 -2.7913  2.7044
  473SOL     OW 3018   6.624   6.667   3.043 -0.0902 -0.7489 -0.3121
  473SOL    HW1 3019   6.608   6.595   2.975  0.3800 -1.6249  0.4706
  473SOL    HW2 3020   6.559   6.657   3.119  0.2835 -0.6550  0.0269
  474SOL     OW 3021   1.150   5.227   3.695 -0.5468  0.1284 -0.2005
  474SOL    HW1 3022   1.089   5.155   3.662 -1.4239 -0.2263  2.0257
  474SOL    HW2 3023   1.119   5.258   3.785  1.6598  1.0792  0.2944
  475SOL     OW 3024   0.414   4.020   4.442  0.7926 -0.5761 -0.3460
  475SOL    HW1 3025   0.498   4.007   4.389  1.0378  0.5523 -0.2591
  475SOL    HW2 3026   0.362   4.097   4.405 -1.7916 -3.0667 -2.3399
  476SOL     OW 3027   3.640   0.544   2.744  0.2086  0.3502 -0.2558
  476SOL    HW1 3028   3.654   0.452   2.782  0.6335  0.5203  0.0088
  476SOL    HW2 3029   3.545   0.555   2.717  0.0274  0.0269  0.2345
  477SOL     OW 3030   0.479   0.582   3.497 -0.6284  0.2169 -0.7332
  477SOL    HW1 3031   0.396   0.553   3.449 -1.3492 -1.9280  1.5807
  477SOL    HW2 3032   0.517   0.504   3.547  2.2049  1.4161 -0.8297
  478SOL     OW 3033   0.861   2.064   5.641 -0.1786 -0.2231  0.6286
  478SOL    HW1 3034   0.820   2.053   5.550 -0.6175  0.0038  0.8004
  478SOL    HW2 3035   0.959   2.044   5.635 -0.6433 -2.8140  0.6367
  479SOL     OW 3036   0.576   3.443   6.796 -0.5073 -0.0972 -0.4287
  479SOL    HW1 3037   0.543   3.366   6.850  0.5573  0.4111  0.9904
  479SOL    HW2 3038   0.512   3.519   6.804  0.2586  0.4157  1.1976
  480SOL     OW 3039   4.540   1.327   0.370 -0.0602 -0.1502  0.1766
  480SOL    HW1 3040   4.576   1.292   0.457  0.8004  2.8438  1.1292
  480SOL    HW2 3041   4.549   1.426   0.367 -2.5231  0.1300 -2.2687
  481SOL     OW 3042   1.656   3.795   1.160 -0.2041  0.1819  0.3174
  481SOL    HW1 3043   1.710   3.710   1.155 -1.2765 -0.5486  0.7289
  481SOL    HW2 3044   1.667   3.836   1.250 -2.2779 -1.3366  1.3289
  482SOL     OW 3045   5.933   6.731   0.707 -0.1450  0.2433  0.1268
  482SOL    HW1 3046   5.973   6.701   0.793 -0.8101 -1.1473 -0.0232
  482SOL    HW2 3047   5.994   6.797   0.663  1.7224 -1.3720  0.1574
  483SOL     OW 3048   2.791   1.975   4.319 -0.1224  0.2231  0.7734
  483SOL    HW1 3049   2.790   2.068   4.282  1.4169  0.7383  1.9117
  483SOL    HW2 3050   2.721   1.965   4.390  0.2395  0.7681  1.2085
  484SOL     OW 3051   5.341   6.654   2.484 -0.1068 -0.3365  0.3596
  484SOL    HW1 3052   5.417   6.711   2.515  2.4075 -2.1618 -1.9454
  484SOL    HW2 3053   5.266   6.713   2.454  2.0551  1.8098 -1.2560
  485SOL     OW 3054   2.620   0.621   6.465 -0.4809  0.5125  0.2523
  485SOL    HW1 3055   2.577   0.579   6.386  2.7490 -0.7177 -1.0058
  485SOL    HW2 3056   2.669   0.704   6.436 -0.6386  0.9961  1.3130
  486SOL     OW 3057   6.178   5.274   3.803  0.2003  0.1910  0.4596
  486SOL    HW1 3058   6.147   5.213   3.875  1.0303 -1.8578 -0.8195
  486SOL    HW2 3059   6.278   5.270   3.797  0.0838 -0.9653 -1.7903
  487SOL     OW 3060   0.425   1.263   2.720 -0.0311 -0.1211 -0.5400
  487SOL    HW1 3061   0.463   1.245   2.811  0.7768  0.0909 -0.8223
  487SOL    HW2 3062   0.496   1.304   2.662 -0.1794 -1.3383 -1.6261
  488SOL     OW 3063   5.920   4.814   2.337  0.1620  0.3297 -0.1202
  488SOL    HW1 3064   5.863   4.811   2.419 -1.2505 -0.1124 -1.0926
  488SOL    HW2 3065   5.871   4.773   2.260  1.1831  1.3695 -1.3740
  489SOL     OW 3066   0.291   5.934   0.358 -0.1115  0.3193 -0.0893
  489SOL    HW1 3067   0.286   5.880   0.443 -1.2821 -0.3607 -0.5733
  489SOL    HW2 3068   0.212   5.912   0.300  0.2259  1.4152 -0.9830
  490SOL     OW 3069   3.772   1.020   3.561  0.3298 -0.1866 -0.0737
  490SOL    HW1 3070   3.702   1.001   3.492 -0.8755 -2.6792  1.6942
  490SOL    HW2 3071   3.732   1.075   3.635  0.6166 -0.5070  0.3218
  491SOL     OW 3072   1.712   2.602   4.324  0.2367  0.2408  0.5579
  491SOL    HW1 3073   1.708   2.677   4.390 -2.1187  0.0673  0.7224
  491SOL    HW2 3074   1.791   2.545   4.344  0.7123  1.3225  1.9730
  492SOL     OW 3075   1.093   5.818   4.445  0.2578 -0.2669 -0.2354
  492SOL    HW1 3076   1.130   5.726   4.445  0.4886 -0.1771 -0.7570
  492SOL    HW2 3077   1.095   5.855   4.352  0.3236  0.3241 -0.0050
  493SOL     OW 3078   6.116   1.976   2.156 -0.3854  0.4651 -0.3561
  493SOL    HW1 3079   6.104   1.878   2.169 -0.1733  0.4263 -0.4415
  493SOL    HW2 3080   6.115   1.998   2.059  0.3371  0.4401 -0.3780
  494SOL     OW 3081   3.082   2.168   1.060 -0.0073 -0.2867 -0.2389
  494SOL    HW1 3082   3.116   2.192   0.969  3.1146  0.4176  0.9965
  494SOL    HW2 3083   3.039   2.077   1.056 -0.3311 -0.1086 -2.4419
  495SOL     OW 3084   2.149   3.265   0.516  0.0966  0.1069 -0.4289
  495SOL    HW1 3085   2.078   3.312   0.463 -0.4888 -0.2213  0.0568
  495SOL    HW2 3086   2.175   3.322   0.594 -0.6350 -0.3563  0.1778
  496SOL     OW 3087   2.170   4.877   4.296  0.2854 -0.5492  0.2784
  496SOL    HW1 3088   2.168   4.901   4.393 -0.0044  0.0360  0.1317
  496SOL    HW2 3089   2.195   4.957   4.242  1.1346 -1.0456 -0.0865
  497SOL     OW 3090   5.326   5.397   1.888 -0.0170 -0.4630  0.0864
  497SOL    HW1 3091   5.396   5.394   1.958 -0.0414  1.0983  0.2095
  497SOL    HW2 3092   5.236   5.405   1.931  0.0493  1.7879 -0.0689
  498SOL     OW 3093   6.626   3.276   5.898  0.3576  0.4863  0.0447
  498SOL    HW1 3094   6.660   3.275   5.992 -0.4408 -2.6474  0.4184
  498SOL    HW2 3095   6.683   3.216   5.842 -1.6959 -1.1857 -0.3784
  499SOL     OW 3096   4.716   4.295   4.987 -0.0692  0.2066 -0.1590
  499SOL    HW1 3097   4.639   4.238   4.960 -0.1480 -0.5492  1.5262
  499SOL    HW2 3098   4.698   4.337   5.076  0.9165  1.1007 -0.3477
  500SOL     OW 3099   5.384   3.287   1.457  0.1013  0.0052  0.0644
  500SOL    HW1 3100   5.451   3.227   1.501 -0.5917 -1.0852 -0.3439
  500SOL    HW2 3101   5.295   3.242   1.454  0.2945 -0.4085 -3.3416
  501SOL     OW 3102   3.788   3.472   4.183  0.2166  0.5255 -0.6414
  501SOL    HW1 3103   3.844   3.415   4.124 -0.4053  1.2318 -1.9722
  501SOL    HW2 3104   3.836   3.558   4.203  0.0800  0.6529 -0.8509
  502SOL     OW 3105   0.836   5.980   5.110 -0.4874  0.1502  0.8405
  502SOL    HW1 3106   0.851   5.898   5.055 -3.6661 -0.7500  1.1224
  502SOL    HW2 3107   0.893   5.976   5.192  2.1216  0.0910 -0.8423
  503SOL     OW 3108   4.691   5.404   4.072  0.1405  0.1683  0.0486
  503SOL    HW1 3109   4.722   5.469   4.141  1.2854  1.1991 -1.3617
  503SOL    HW2 3110   4.765   5.342   4.048 -0.1292  0.0304 -0.4663
  504SOL     OW 3111   0.541   4.943   2.786 -0.0866 -0.5595 -0.3346
  504SOL    HW1 3112   0.635   4.942   2.750 -0.3220 -0.5807 -0.9715
  504SOL    HW2 3113   0.499   5.031   2.766 -0.7895 -1.1574 -1.6701
  505SOL     OW 3114   4.198   2.872   5.007 -0.1966 -0.2462  0.2170
  505SOL    HW1 3115   4.243   2.862   4.919  0.2766  2.4079  0.0795
  505SOL    HW2 3116   4.106   2.832   5.002  0.2767 -1.2429 -1.0448
  506SOL     OW 3117   6.416   6.745   1.221 -0.1323  0.0589 -0.4400
  506SOL    HW1 3118   6.460   6.824   1.264  0.0384 -1.0612  1.5433
  506SOL    HW2 3119   6.427   6.751   1.121  0.9617  1.8716 -0.2558
  507SOL     OW 3120   1.783   4.730   1.735  0.2248 -0.0684  0.1407
  507SOL    HW1 3121   1.872   4.770   1.714  0.6717 -1.1478 -0.0808
  507SOL    HW2 3122   1.720   4.802   1.766  0.8659  0.8635 -0.6666
  508SOL     OW 3123   0.187   1.657   5.650  0.1738  0.6656  0.5325
  508SOL    HW1 3124   0.186   1.755   5.671  0.7588  1.0442 -1.0592
  508SOL    HW2 3125   0.251   1.611   5.711 -1.0474  1.0304  2.1654
  509SOL     OW 3126   3.951   5.850   2.906  0.5061 -0.1648  0.2268
  509SOL    HW1 3127   3.877   5.820   2.845  0.6267  1.4912 -0.8084
  509SOL    HW2 3128   3.920   5.846   3.001  0.2386 -2.6065  0.0979
  510SOL     OW 3129   0.248   1.645   4.035  0.4043  0.5584 -0.4582
  510SOL    HW1 3130   0.268   1.595   4.119 -0.2640 -1.2896 -1.3444
  510SOL    HW2 3131   0.299   1.731   4.034  2.9873 -0.8580  0.3798
  511SOL     OW 3132   4.938   6.351   0.059 -0.3231 -0.0183  0.6375
  511SOL    HW1 3133   4.888   6.333   0.144 -0.9352 -0.5677  0.1788
  511SOL    HW2 3134   4.872   6.361  -0.016  0.2297 -0.0878  0.1391
  512SOL     OW 3135   5.016   6.122   4.357  0.3799  0.3089 -0.0656
  512SOL    HW1 3136   5.089   6.054   4.360 -1.0105 -1.2035  0.4714
  512SOL    HW2 3137   4.945   6.098   4.422  1.0178  3.7340  2.2075
  513SOL     OW 3138   2.673   1.739   5.316  0.0105 -0.0535  0.2561
  513SOL    HW1 3139   2.608   1.797   5.364  1.2283  0.0368  1.8907
  513SOL    HW2 3140   2.675   1.648   5.359  1.1020  0.0141  0.3851
  514SOL     OW 3141   1.340   6.280   4.957 -0.2815  0.5292  0.3592
  514SOL    HW1 3142   1.436   6.287   4.983 -0.0677 -2.4369  0.7481
  514SOL    HW2 3143   1.328   6.204   4.892 -2.3924  0.6555  0.5094
  515SOL     OW 3144   5.304   2.828   0.343 -0.1281  0.3421  0.2023
  515SOL    HW1 3145   5.397   2.793   0.354  0.0359  0.5414 -0.5037
  515SOL    HW2 3146   5.298   2.881   0.258 -1.0498 -0.2288 -0.1083
  516SOL     OW 3147   3.866   1.711   1.346  0.3182  0.0175  0.0783
  516SOL    HW1 3148   3.830   1.768   1.272  0.2098 -0.3788 -0.1770
  516SOL    HW2 3149   3.792   1.657   1.386  0.0465  1.3982  1.5573
  517SOL     OW 3150   2.517   0.394   6.907 -0.0823 -0.5101  0.4977
  517SOL    HW1 3151   2.540   0.460   6.836 -1.5563 -0.6983 -0.1964
  517SOL    HW2 3152   2.578   0.315   6.900  1.3320  0.4912  0.9892
  518SOL     OW 3153   6.794   0.575   6.800 -0.1167 -0.4899 -0.0728
  518SOL    HW1 3154   6.835   0.656   6.842  1.7223 -1.6991  0.5877
  518SOL    HW2 3155   6.821   0.571   6.704  0.1013 -0.5039 -0.0131
  519SOL     OW 3156   6.778   5.428   4.459  0.1110 -0.0045 -0.3803
  519SOL    HW1 3157   6.702   5.394   4.516  0.2152  1.1524  0.4867
  519SOL    HW2 3158   6.801   5.521   4.487  0.7840  0.2568 -1.7337
  520SOL     OW 3159   0.446   4.330   6.447 -0.1346 -0.6184  0.1617
  520SOL    HW1 3160   0.503   4.258   6.487 -1.3755 -1.0581  1.2190
  520SOL    HW2 3161   0.495   4.374   6.372  1.5036 -1.0958  0.9124
  521SOL     OW 3162   4.164   1.145   5.528 -0.0343 -0.2474  0.5140
  521SOL    HW1 3163   4.207   1.235   5.523  0.9930 -0.7728 -0.7834
  521SOL    HW2 3164   4.189   1.099   5.613  0.9492 -0.0302  0.3475
  522SOL     OW 3165   1.439   1.167   2.041 -0.3839  0.2577  0.5443
  522SOL    HW1 3166   1.441   1.089   2.104 -0.5097  0.8087  1.2449
  522SOL    HW2 3167   1.521   1.165   1.984 -0.9809 -1.0809 -0.3263
  523SOL     OW 3168   5.880   0.318   2.929  0.5447  0.3581 -0.1060
  523SOL    HW1 3169   5.896   0.276   3.018  3.0336 -0.0309 -0.6589
  523SOL    HW2 3170   5.785   0.350   2.923  0.3658  0.5693  2.7160
  524SOL     OW 3171   2.114   1.263   3.002  0.0120  0.7752  0.0597
  524SOL    HW1 3172   2.192   1.289   2.945 -0.1886 -0.5451 -0.8564
  524SOL    HW2 3173   2.038   1.233   2.944 -0.6639  0.6454  0.9813
  525SOL     OW 3174   3.450   0.496   3.718 -0.7508 -0.3419  0.2852
  525SOL    HW1 3175   3.510   0.576   3.719  2.2225 -2.4017 -0.1237
  525SOL    HW2 3176   3.403   0.490   3.629 -0.1777  0.3827 -0.0753
  526SOL     OW 3177   6.388   6.322   1.397  0.2648  0.4309 -0.1627
  526SOL    HW1 3178   6.398   6.411   1.442 -4.0725  2.1731 -2.1952
  526SOL    HW2 3179   6.403   6.332   1.299 -1.3699 -0.7745 -0.5760
  527SOL     OW 3180   6.763   5.071   1.402 -0.0672 -0.2488 -0.2651
  527SOL    HW1 3181   6.852   5.063   1.448 -0.2840 -1.1002  0.0204
  527SOL    HW2 3182   6.702   5.127   1.458  0.2331  0.2250 -0.3966
  528SOL     OW 3183   6.399   1.559   4.819  0.2439  0.1177 -0.9016
  528SOL    HW1 3184   6.462   1.636   4.825 -0.2365  0.4885 -0.5234
  528SOL    HW2 3185   6.399   1.509   4.906 -0.5209  0.5571 -0.6376
  529SOL     OW 3186   5.795   4.371   1.060 -0.3672  0.7199 -0.3513
  529SOL    HW1 3187   5.824   4.452   1.111  0.3433  0.7443 -0.7767
  529SOL    HW2 3188   5.770   4.397   0.967  0.0463  0.4308 -0.5477
  530SOL     OW 3189   5.193   0.324   3.546 -0.0664 -0.7607  0.3610
  530SOL    HW1 3190   5.191   0.263   3.467  1.2579  1.0606 -1.1575
  530SOL    HW2 3191   5.265   0.393   3.534 -2.3852  2.0177  1.3008
  531SOL     OW 3192   4.095   4.230   6.125 -0.1674 -0.0696 -0.3570
  531SOL    HW1 3193   4.087   4.313   6.181  0.5580 -0.8491  0.9700
  531SOL    HW2 3194   4.023   4.166   6.149 -0.5896  0.0752 -1.2155
  532SOL     OW 3195   3.727   2.239   1.074 -0.5056  0.2943  0.3711
  532SOL    HW1 3196   3.692   2.298   1.147 -0.1455  0.1779  0.6425
  532SOL    HW2 3197   3.671   2.156   1.069  0.4700 -0.4873  1.6635
  533SOL     OW 3198   5.210   6.106   4.009  0.2481  0.5523 -0.0138
  533SOL    HW1 3199   5.287   6.072   4.064  1.3685  1.7538 -0.7614
  533SOL    HW2 3200   5.188   6.200   4.038 -1.3056  0.0420  0.5387
  534SOL     OW 3201   0.930   0.455   4.443 -0.0532 -0.1277  0.1768
  534SOL    HW1 3202   0.973   0.520   4.380 -1.8981  1.6000  0.6107
  534SOL    HW2 3203   1.001   0.401   4.488  1.5996  1.7470 -0.0254
  535SOL     OW 3204   4.530   0.444   6.508 -0.4680  0.9398 -0.4270
  535SOL    HW1 3205   4.567   0.376   6.445  0.2907  0.4477  0.5204
  535SOL    HW2 3206   4.604   0.504   6.540 -0.9674  1.6333 -0.5361
  536SOL     OW 3207   3.390   3.958   4.857  0.6549  0.2293  0.0779
  536SOL    HW1 3208   3.455   4.027   4.824  0.4114 -1.2216 -4.0794
  536SOL    HW2 3209   3.439   3.878   4.891  0.9578  0.7250  0.8338
  537SOL     OW 3210   6.061   5.599   0.942  0.1358 -0.5292  0.3891
  537SOL    HW1 3211   6.013   5.539   1.007 -2.0541  0.2461 -0.4106
  537SOL    HW2 3212   6.150   5.625   0.980 -0.8393 -0.5198  2.8567
  538SOL     OW 3213   4.098   1.196   6.035 -0.6287  0.2425 -0.0597
  538SOL    HW1 3214   4.140   1.153   6.115 -2.1368 -2.7675 -0.7278
  538SOL    HW2 3215   4.163   1.196   5.959 -0.0138  0.8215  0.4569
  539SOL     OW 3216   4.594   1.348   1.837  0.0916 -0.9911 -0.1326
  539SOL    HW1 3217   4.552   1.411   1.772  0.7241  1.7380  1.9242
  539SOL    HW2 3218   4.664   1.294   1.790 -0.8419 -0.6008 -2.0846
  540SOL     OW 3219   6.400   5.165   2.049  0.5214  0.1786  0.3676
  540SOL    HW1 3220   6.358   5.074   2.054 -0.0877  0.5008  1.3073
  540SOL    HW2 3221   6.422   5.185   1.953  1.2522 -1.2028  0.2128
  541SOL     OW 3222   1.317   2.861   6.070  0.1341 -0.3751  0.2463
  541SOL    HW1 3223   1.345   2.954   6.094 -1.2799  0.3165 -0.6551
  541SOL    HW2 3224   1.218   2.858   6.058  0.4225 -1.3182 -2.5593
  542SOL     OW 3225   0.347   3.775   4.898 -0.3687  0.4871  0.2682
  542SOL    HW1 3226   0.341   3.802   4.802 -1.2404 -1.0595 -0.1358
  542SOL    HW2 3227   0.440   3.793   4.932 -0.2865  1.8425 -0.5875
  543SOL     OW 3228   0.752   0.669   0.854  0.1450  0.6067 -0.1014
  543SOL    HW1 3229   0.795   0.759   0.849  0.7859  0.3134  0.0371
  543SOL    HW2 3230   0.724   0.640   0.763 -3.1548  2.3863  0.1741
  544SOL     OW 3231   1.885   1.073   2.052 -0.0796  0.0630 -0.0732
  544SOL    HW1 3232   1.968   1.028   2.018 -0.3660 -0.5314 -0.0057
  544SOL    HW2 3233   1.870   1.047   2.148 -0.1985  0.3739 -0.0083
  545SOL     OW 3234   3.481   4.236   4.847 -0.1986 -0.2851  0.1066
  545SOL    HW1 3235   3.407   4.210   4.784 -0.0802  0.2870 -0.2802
  545SOL    HW2 3236   3.569   4.221   4.802 -0.1261  0.5684 -0.0374
  546SOL     OW 3237   6.449   1.642   6.537  0.3199  0.0084  0.2777
  546SOL    HW1 3238   6.461   1.598   6.626  1.3480  3.8268  2.2539
  546SOL    HW2 3239   6.536   1.680   6.506 -0.7597  2.1151 -0.3727
  547SOL     OW 3240   2.322   6.717   0.210  0.0661 -0.3840  0.6109
  547SOL    HW1 3241   2.223   6.731   0.208 -0.0095 -0.9729  0.2065
  547SOL    HW2 3242   2.367   6.801   0.178 -0.3742 -0.7888 -1.1809
  548SOL     OW 3243   4.202   2.748   0.760 -0.0285  0.7336  0.4286
  548SOL    HW1 3244   4.159   2.818   0.817  1.6863  2.8847 -0.7533
  548SOL    HW2 3245   4.163   2.752   0.668 -2.3173 -2.2664  1.1377
  549SOL     OW 3246   1.410   0.032   1.826  0.2108 -0.0360 -0.3899
  549SOL    HW1 3247   1.429   0.077   1.914  1.9171 -0.0313 -0.7207
  549SOL    HW2 3248   1.362  -0.054   1.843  0.5726 -0.0684  0.5626
  550SOL     OW 3249   4.351   2.530   0.908  0.1036  0.0341 -0.1038
  550SOL    HW1 3250   4.310   2.605   0.858  1.1287  0.0107 -1.0097
  550SOL    HW2 3251   4.444   2.554   0.936  0.2256 -0.6673  0.1372
  551SOL     OW 3252   6.538   6.940   4.794  0.3040  0.2910  0.3030
  551SOL    HW1 3253   6.627   6.973   4.826 -0.2533  2.3167 -0.1062
  551SOL    HW2 3254   6.465   6.993   4.836 -0.7085 -0.8765  0.0896
  552SOL     OW 3255   0.477   0.466   4.691 -0.3454  0.2042  0.2226
  552SOL    HW1 3256   0.569   0.444   4.723 -0.2409  0.5257  0.1439
  552SOL    HW2 3257   0.427   0.381   4.672  0.0671  0.0329 -0.1129
  553SOL     OW 3258   3.266   6.873   6.925 -0.2864  0.2356  0.3394
  553SOL    HW1 3259   3.274   6.849   7.021 -3.1328  1.5424  0.9993
  553SOL    HW2 3260   3.232   6.794   6.873  3.3111 -1.2083 -0.1740
  554SOL     OW 3261   3.952   0.701   4.256  0.4035  0.3777 -0.2804
  554SOL    HW1 3262   3.893   0.692   4.176 -1.8269 -1.0241  1.4013
  554SOL    HW2 3263   4.035   0.648   4.243 -0.9997 -1.7927 -0.7708
  555SOL     OW 3264   0.405   6.508   7.000 -0.0401 -0.6814 -0.2715
  555SOL    HW1 3265   0.416   6.583   6.934 -0.6301 -0.0329  0.3438
  555SOL    HW2 3266   0.310   6.505   7.031  0.2579 -0.8921  0.6492
  556SOL     OW 3267   2.235   5.342   3.052  0.0273  0.6740 -0.0662
  556SOL    HW1 3268   2.141   5.320   3.080  0.2385  1.0922  1.0398
  556SOL    HW2 3269   2.248   5.317   2.956 -0.3925 -2.0021  0.4984
  557SOL     OW 3270   4.980   6.375   4.221  0.1568  0.0303 -0.4487
  557SOL    HW1 3271   5.046   6.388   4.147  0.3847  2.4535  0.0828
  557SOL    HW2 3272   5.004   6.293   4.273  1.5133 -0.2865 -1.5180
  558SOL     OW 3273   1.155   1.127   1.505  0.2945 -0.4234 -0.1891
  558SOL    HW1 3274   1.166   1.053   1.439 -0.4119 -0.0964 -0.6812
  558SOL    HW2 3275   1.245   1.154   1.540  0.6244 -0.9613 -0.6120
  559SOL     OW 3276   4.455   4.456   6.663 -0.0415 -0.0185 -0.6219
  559SOL    HW1 3277   4.458   4.546   6.618  0.8546  0.6818  0.7465
  559SOL    HW2 3278   4.465   4.469   6.762 -0.6027 -1.5950 -0.3372
  560SOL     OW 3279   2.466   5.121   5.071  0.0929 -0.1141  0.4708
  560SOL    HW1 3280   2.442   5.181   5.148 -0.5088  0.1454  0.0874
  560SOL    HW2 3281   2.546   5.158   5.025 -0.5364  0.6719 -0.0394
  561SOL     OW 3282   0.087   3.477   1.569 -0.0397  0.1559  0.4109
  561SOL    HW1 3283   0.157   3.490   1.498  0.9584 -0.5025  1.2412
  561SOL    HW2 3284   0.104   3.539   1.645 -1.4310  1.2438 -0.1242
  562SOL     OW 3285   5.873   6.533   1.328 -0.2126  0.2422 -0.1255
  562SOL    HW1 3286   5.954   6.554   1.383 -0.0824 -0.1091 -0.1804
  562SOL    HW2 3287   5.804   6.488   1.386 -1.2161  2.3810  0.4372
  563SOL     OW 3288   2.656   6.922   5.488 -0.1211 -0.3472  0.6070
  563SOL    HW1 3289   2.746   6.950   5.519 -0.6854  1.8712  0.4458
  563SOL    HW2 3290   2.625   6.983   5.415 -2.1387 -0.4085  1.3236
  564SOL     OW 3291   1.748   3.710   1.643  0.1690  0.0363 -0.1799
  564SOL    HW1 3292   1.688   3.779   1.683 -0.1846 -0.3253 -0.0813
  564SOL    HW2 3293   1.705   3.620   1.650  0.6070 -0.1899 -0.3460
  565SOL     OW 3294   5.752   1.614   4.984  0.1060  0.3442  0.7185
  565SOL    HW1 3295   5.787   1.701   5.019  0.9189  0.3818 -0.1136
  565SOL    HW2 3296   5.657   1.602   5.011  0.0546  1.3904  1.0401
  566SOL     OW 3297   4.463   0.638   5.478  0.5592  0.6410  0.1561
  566SOL    HW1 3298   4.463   0.589   5.565  1.3544 -0.5268 -0.4690
  566SOL    HW2 3299   4.369   0.652   5.447  0.2821 -2.0458 -0.4534
  567SOL     OW 3300   3.467   2.134   5.835  0.1822 -0.7443  0.2211
  567SOL    HW1 3301   3.532   2.059   5.844  1.5069  0.4332  0.8804
  567SOL    HW2 3302   3.511   2.211   5.790 -0.3291  0.5260  1.7891
  568SOL     OW 3303   6.917   6.252   2.204  0.4452 -0.3380  0.1912
  568SOL    HW1 3304   7.007   6.273   2.242  0.6517 -1.4422  0.3173
  568SOL    HW2 3305   6.892   6.158   2.225 -1.2121  0.2612  1.0867
  569SOL     OW 3306   4.310   6.904   1.331 -0.3287  0.5823  0.2501
  569SOL    HW1 3307   4.339   6.997   1.352 -0.8088  0.6293  0.7396
  569SOL    HW2 3308   4.389   6.848   1.308 -0.1117  1.2910 -0.7657
  570SOL     OW 3309   1.772   1.834   5.345 -0.2069 -0.3908  0.4805
  570SOL    HW1 3310   1.735   1.750   5.304 -1.8415  0.7588 -0.5395
  570SOL    HW2 3311   1.757   1.833   5.444 -0.4295 -1.1947  0.4422
  571SOL     OW 3312   0.389   6.192   1.678  0.1704 -0.0608 -0.0674
  571SOL    HW1 3313   0.461   6.154   1.620  0.4038  0.6162 -0.2380
  571SOL    HW2 3314   0.316   6.125   1.689  0.7034 -0.6595 -0.1105
  572SOL     OW 3315   3.705   6.354   4.051  0.3749 -0.3137  0.6675
  572SOL    HW1 3316   3.724   6.321   4.143  1.2114 -2.7104 -0.2814
  572SOL    HW2 3317   3.725   6.452   4.046  1.2424 -0.3302  2.7494
  573SOL     OW 3318   5.588   1.933   6.217  0.0352  0.0113 -0.7350
  573SOL    HW1 3319   5.541   1.980   6.143  0.1009 -0.0049 -0.7863
  573SOL    HW2 3320   5.590   1.993   6.297 -1.1548 -0.4426 -0.3330
  574SOL     OW 3321   0.138   5.443   4.316  0.4946 -0.4233 -0.0760
  574SOL    HW1 3322   0.099   5.359   4.280 -0.2175 -0.5291  0.8966
  574SOL    HW2 3323   0.237   5.433   4.326  0.3751 -1.2566  0.3170
  575SOL     OW 3324   2.474   4.741   4.109  0.0295  0.7187  0.5276
  575SOL    HW1 3325   2.390   4.741   4.055 -0.1057  1.4005  0.7220
  575SOL    HW2 3326   2.459   4.693   4.195 -0.4539  1.6385  0.9782
  576SOL     OW 3327   5.516   3.202   4.943  0.6173 -0.1013  0.1923
  576SOL    HW1 3328   5.560   3.281   4.902 -0.0946 -0.0736 -0.5504
  576SOL    HW2 3329   5.475   3.228   5.030  0.2719  0.3876 -0.1121
  577SOL     OW 3330   1.801   4.481   1.687 -0.4175  0.3720  0.1995
  577SOL    HW1 3331   1.886   4.456   1.641  0.0373  1.8524  0.2013
  577SOL    HW2 3332   1.800   4.579   1.706 -1.6763  0.2063  1.1439
  578SOL     OW 3333   5.005   3.528   5.253  0.3616  0.7162 -0.4102
  578SOL    HW1 3334   5.093   3.541   5.300  0.4269 -1.5292  0.1956
  578SOL    HW2 3335   4.989   3.605   5.192  2.1105  1.8447  0.4571
  579SOL     OW 3336   3.174   0.938   0.351  0.2775 -0.6799  0.3606
  579SOL    HW1 3337   3.111   0.947   0.273  0.1500 -2.1969  0.2636
  579SOL    HW2 3338   3.229   1.021   0.359 -1.5154  0.5781  0.2637
  580SOL     OW 3339   3.206   5.167   0.078 -0.9912 -0.2385 -0.0278
  580SOL    HW1 3340   3.118   5.190   0.121 -0.9310  1.0707 -0.5734
  580SOL    HW2 3341   3.191   5.148  -0.019 -0.5256  1.1544 -0.3879
  581SOL     OW 3342   4.452   2.438   6.313  0.1876  0.2750  0.1843
  581SOL    HW1 3343   4.377   2.438   6.247  0.6653  0.9135 -0.3747
  581SOL    HW2 3344   4.431   2.502   6.388  0.5768  1.1824 -0.4624
  582SOL     OW 3345   5.573   4.017   2.145 -0.3801  0.1705 -0.0115
  582SOL    HW1 3346   5.648   4.073   2.111  0.7419 -0.6517  1.0168
  582SOL    HW2 3347   5.585   3.923   2.114  0.9442 -0.7336  2.8213
  583SOL     OW 3348   2.867   0.053   1.864 -0.1408 -0.0638 -0.0539
  583SOL    HW1 3349   2.967   0.057   1.867 -0.1243 -0.0728 -0.5802
  583SOL    HW2 3350   2.837   0.008   1.780 -0.5906  0.0131  0.0607
  584SOL     OW 3351   2.250   2.532   1.454  0.1998 -0.0349  0.1204
  584SOL    HW1 3352   2.336   2.505   1.497  0.6957  0.1422 -0.7321
  584SOL    HW2 3353   2.229   2.627   1.479  0.6691  0.1868 -0.2918
  585SOL     OW 3354   4.437   4.069   5.210 -0.3369 -0.2925  0.2841
  585SOL    HW1 3355   4.528   4.086   5.171  0.2091  0.4893  1.7989
  585SOL    HW2 3356   4.396   3.989   5.166  1.4856 -1.2291  0.1965
  586SOL     OW 3357   3.159   6.156   0.007  0.3165  0.2594  0.4610
  586SOL    HW1 3358   3.213   6.135   0.089  0.1935  1.8004  0.9757
  586SOL    HW2 3359   3.218   6.200  -0.060  0.2528 -0.3571 -0.0042
  587SOL     OW 3360   5.436   0.357   0.732  0.0758  0.1881 -0.1689
  587SOL    HW1 3361   5.493   0.336   0.812  0.5606  1.0614 -0.2715
  587SOL    HW2 3362   5.495   0.377   0.654 -0.3943 -0.9769 -0.8456
  588SOL     OW 3363   3.680   1.636   6.905  0.4507  0.2231  0.0906
  588SOL    HW1 3364   3.686   1.687   6.819 -0.3812  0.2187  0.0252
  588SOL    HW2 3365   3.612   1.563   6.896 -0.3194  0.7998  1.0316
  589SOL     OW 3366   4.278   0.276   2.151 -0.6179  0.4988 -0.1014
  589SOL    HW1 3367   4.289   0.366   2.109  0.2988  0.7470  0.6372
  589SOL    HW2 3368   4.254   0.286   2.247  0.6078 -0.0164  0.2784
  590SOL     OW 3369   0.306   1.885   6.463  0.1371 -0.3848 -0.2489
  590SOL    HW1 3370   0.211   1.854   6.473  0.4476 -1.0054  1.0013
  590SOL    HW2 3371   0.315   1.940   6.379 -1.0309 -1.4115 -1.0865
  591SOL     OW 3372   3.622   5.249   1.806 -0.1494 -0.4598  0.0658
  591SOL    HW1 3373   3.672   5.182   1.751  0.7343 -0.9459  1.4343
  591SOL    HW2 3374   3.676   5.333   1.812 -1.2882  0.4852 -1.7163
  592SOL     OW 3375   5.288   1.692   4.674  0.1179  0.0997  0.0506
  592SOL    HW1 3376   5.324   1.649   4.757  2.1885 -1.5731 -1.5931
  592SOL    HW2 3377   5.205   1.645   4.645 -0.4966  0.5572  1.0336
  593SOL     OW 3378   3.454   6.426   4.615 -0.3163 -0.0581  0.3375
  593SOL    HW1 3379   3.542   6.422   4.662 -0.1384 -1.3285 -0.0721
  593SOL    HW2 3380   3.469   6.456   4.520 -0.1036 -1.6962 -0.1803
  594SOL     OW 3381   3.689   3.583   2.904  0.0197  0.4387 -0.2381
  594SOL    HW1 3382   3.653   3.643   2.975 -2.3152  0.4107 -1.3150
  594SOL    HW2 3383   3.671   3.622   2.814 -0.6516 -1.3665 -0.9383
  595SOL     OW 3384   0.898   3.874   6.083 -0.0151  0.0487  0.2507
  595SOL    HW1 3385   0.913   3.942   6.011  1.9274  0.1204  0.6537
  595SOL    HW2 3386   0.811   3.893   6.129  0.2645  2.0171  0.0795
  596SOL     OW 3387   7.000   6.397   4.196 -0.4597  0.4219  0.1714
  596SOL    HW1 3388   7.098   6.398   4.212 -0.5105  3.8759  1.0407
  596SOL    HW2 3389   6.982   6.389   4.098  0.5714 -1.7410  0.1173
  597SOL     OW 3390   4.798   3.805   0.701  0.0353  0.2849  0.2789
  597SOL    HW1 3391   4.721   3.824   0.640 -0.4203  0.0704  0.7746
  597SOL    HW2 3392   4.792   3.710   0.733  1.4513 -0.2846 -1.0040
  598SOL     OW 3393   4.083   0.110   1.863 -0.4832  0.5945  0.4406
  598SOL    HW1 3394   4.108   0.141   1.772 -2.0088 -0.6951 -0.4642
  598SOL    HW2 3395   4.164   0.071   1.908  0.0322  0.1172 -0.8538
  599SOL     OW 3396   0.406   5.549   3.323  0.4551  0.5272  0.2339
  599SOL    HW1 3397   0.429   5.644   3.301  0.9246 -0.0712 -2.0963
  599SOL    HW2 3398   0.483   5.490   3.299 -0.0716 -0.5337  1.0574
  600SOL     OW 3399   0.767   2.355   3.201 -0.4933  0.7429  0.2905
  600SOL    HW1 3400   0.821   2.274   3.225  0.6225  0.7975 -1.7971
  600SOL    HW2 3401   0.698   2.371   3.272 -2.0280 -3.1246 -0.0793
  601SOL     OW 3402   2.785   4.099   6.601 -0.0170 -0.1575 -0.3581
  601SOL    HW1 3403   2.860   4.164   6.585 -0.4954 -0.1191 -2.8528
  601SOL    HW2 3404   2.767   4.093   6.699  1.2129  2.1341  0.0905
  602SOL     OW 3405   4.657   1.529   6.048 -0.9879 -0.4178 -0.1569
  602SOL    HW1 3406   4.686   1.571   5.962  0.8843 -2.5760 -0.6833
  602SOL    HW2 3407   4.715   1.563   6.123 -0.4430 -0.9492 -0.3306
  603SOL     OW 3408   5.528   6.727   0.703  0.1104 -0.4392 -0.9504
  603SOL    HW1 3409   5.610   6.776   0.675 -0.4988  0.4786 -1.1794
  603SOL    HW2 3410   5.453   6.750   0.641 -1.4034  1.9914  1.5288
  604SOL     OW 3411   0.120   3.511   2.748  0.1980  0.0973  0.1620
  604SOL    HW1 3412   0.091   3.541   2.658  0.5408  0.6149  0.2164
  604SOL    HW2 3413   0.109   3.412   2.756 -0.7045  0.1674 -0.1167
  605SOL     OW 3414   4.398   6.111   4.195  0.3022  0.5659  0.1897
  605SOL    HW1 3415   4.312   6.157   4.176  1.1416  2.4903  0.7731
  605SOL    HW2 3416   4.427   6.133   4.288  1.2010 -0.4317  0.1645
  606SOL     OW 3417   3.841   0.454   4.665  0.2341 -0.4057  0.3094
  606SOL    HW1 3418   3.940   0.443   4.663  0.3585  0.4611  0.7902
  606SOL    HW2 3419   3.816   0.537   4.614 -0.6880 -2.9213 -3.8033
  607SOL     OW 3420   1.778   0.820   1.031  0.0045  0.6114 -0.0111
  607SOL    HW1 3421   1.724   0.764   0.968  0.1749 -0.0538  0.4254
  607SOL    HW2 3422   1.753   0.799   1.125  1.8343 -0.6032  0.2637
  608SOL     OW 3423   1.363   2.252   1.844  0.0252  0.1939 -0.2563
  608SOL    HW1 3424   1.349   2.291   1.935  0.2131  0.0789 -0.1780
  608SOL    HW2 3425   1.317   2.309   1.776  0.3210  0.5692 -0.1457
  609SOL     OW 3426   1.082   5.952   6.002  0.3613  0.1808  0.1209
  609SOL    HW1 3427   1.029   6.020   5.953 -2.5842 -1.5793  0.6281
  609SOL    HW2 3428   1.111   5.990   6.090  0.8996  1.5320 -0.6168
  610SOL     OW 3429   0.038   6.851   3.653 -0.5605  0.0147  0.1108
  610SOL    HW1 3430  -0.002   6.822   3.741 -1.9837 -1.3485 -0.9329
  610SOL    HW2 3431   0.074   6.771   3.605 -0.9630  0.5435 -1.1054
  611SOL     OW 3432   1.345   5.536   6.691 -0.0129 -0.0464  0.5519
  611SOL    HW1 3433   1.273   5.478   6.728 -0.2740 -0.1021 -0.0317
  611SOL    HW2 3434   1.386   5.492   6.611  0.2203  0.2839  0.4846
  612SOL     OW 3435   4.066   2.289   4.940  0.0869  0.4253 -0.5370
  612SOL    HW1 3436   4.020   2.250   4.859  0.7169  1.7564 -1.5751
  612SOL    HW2 3437   4.050   2.229   5.019  0.7178 -1.7542 -1.9552
  613SOL     OW 3438   2.741   4.537   0.012 -0.0291 -0.6199  0.1087
  613SOL    HW1 3439   2.726   4.457  -0.046 -0.7907  1.0487 -2.1664
  613SOL    HW2 3440   2.772   4.508   0.102 -0.9480 -3.4804 -0.3908
  614SOL     OW 3441   5.455   6.072   4.130  0.1988  0.1257 -0.6217
  614SOL    HW1 3442   5.500   5.986   4.106  0.7585  0.9166 -2.5731
  614SOL    HW2 3443   5.523   6.136   4.167  0.3869  0.7343 -1.9750
  615SOL     OW 3444   3.548   2.289   4.499 -0.2018 -0.2424  0.2321
  615SOL    HW1 3445   3.574   2.371   4.550 -2.1313  0.0170  0.8812
  615SOL    HW2 3446   3.498   2.227   4.559 -1.3196 -0.5668 -0.9873
  616SOL     OW 3447   4.800   4.199   1.846 -0.2534  0.1241 -0.8714
  616SOL    HW1 3448   4.837   4.110   1.821 -0.6638 -0.7666  1.4343
  616SOL    HW2 3449   4.872   4.255   1.887 -0.9596 -1.1242  2.3950
  617SOL     OW 3450   3.245   6.083   0.871  0.4104 -0.3759 -0.5415
  617SOL    HW1 3451   3.268   5.995   0.829  1.7350 -0.9602  1.3040
  617SOL    HW2 3452   3.147   6.086   0.888  0.1724 -1.0016 -1.6693
  618SOL     OW 3453   2.199   6.216   3.994  0.0127 -0.1897 -0.2285
  618SOL    HW1 3454   2.285   6.256   3.963 -0.8983  1.0464 -1.3030
  618SOL    HW2 3455   2.125   6.245   3.934 -1.0781 -1.7512  0.2795
  619SOL     OW 3456   3.425   3.540   0.863 -0.4627  0.0527  0.3030
  619SOL    HW1 3457   3.338   3.589   0.862  0.2330  1.3996  1.6546
  619SOL    HW2 3458   3.444   3.507   0.956  0.9969  0.7994  0.2994
  620SOL     OW 3459   0.958   2.896   0.680  0.1226  0.1002  0.0653
  620SOL    HW1 3460   0.922   2.903   0.773 -0.1113 -2.2814  0.2240
  620SOL    HW2 3461   1.057   2.884   0.684  0.1196  0.0547 -0.0054
  621SOL     OW 3462   4.375   2.341   1.139 -0.2957  0.5203 -0.2303
  621SOL    HW1 3463   4.418   2.264   1.092  0.1356  1.4773 -1.4687
  621SOL    HW2 3464   4.371   2.420   1.077 -0.0306  1.7284  1.2292
  622SOL     OW 3465   3.576   3.663   0.376 -0.0587 -0.3896 -0.1103
  622SOL    HW1 3466   3.595   3.753   0.414 -0.8984  0.0563 -0.7049
  622SOL    HW2 3467   3.566   3.670   0.277  0.2297 -1.2032 -0.2064
  623SOL     OW 3468   5.537   5.883   2.141  0.5488 -0.2733  0.5304
  623SOL    HW1 3469   5.548   5.831   2.226 -0.0600  1.1181  1.5152
  623SOL    HW2 3470   5.535   5.981   2.163 -3.0084  0.0829 -0.6231
  624SOL     OW 3471   2.536   6.447   5.678 -0.3861 -0.1470 -0.6686
  624SOL    HW1 3472   2.510   6.510   5.605 -0.2374 -1.8826 -2.2947
  624SOL    HW2 3473   2.567   6.361   5.638 -1.0071 -1.4355  1.4618
  625SOL     OW 3474   4.361   3.611   5.822  0.2730  0.0317  0.2750
  625SOL    HW1 3475   4.338   3.568   5.734  0.5554 -1.1743  0.7647
  625SOL    HW2 3476   4.281   3.659   5.857 -0.9439 -2.2847  0.9192
  626SOL     OW 3477   1.160   4.641   1.236 -0.8243  0.0706  0.4159
  626SOL    HW1 3478   1.231   4.617   1.169 -1.6243 -0.9704 -0.0748
  626SOL    HW2 3479   1.071   4.608   1.205 -1.7533  2.2998  0.4898
  627SOL     OW 3480   3.749   4.276   0.485 -0.3026 -0.2929 -0.2545
  627SOL    HW1 3481   3.771   4.359   0.535  0.1758  0.1206 -1.1320
  627SOL    HW2 3482   3.658   4.244   0.511  0.3780 -0.7615  1.7356
  628SOL     OW 3483   1.584   0.216   0.950  0.2370  0.3658  0.1954
  628SOL    HW1 3484   1.646   0.267   1.011  0.2669 -1.1550  1.4919
  628SOL    HW2 3485   1.617   0.223   0.856  3.0402 -1.2369  0.9477
  629SOL     OW 3486   1.601   5.309   0.880 -0.0839  0.0784 -0.1406
  629SOL    HW1 3487   1.692   5.316   0.922  0.1832 -0.8651 -0.5147
  629SOL    HW2 3488   1.547   5.240   0.929 -0.3767  0.1965 -0.2949
  630SOL     OW 3489   6.413   0.910   5.017  0.0618  0.2839 -0.3323
  630SOL    HW1 3490   6.445   1.005   5.014 -3.1794  1.5562  0.6506
  630SOL    HW2 3491   6.417   0.871   4.925  0.9692  1.5117 -0.8558
  631SOL     OW 3492   1.323   0.482   2.244  0.6612  0.2181  0.4082
  631SOL    HW1 3493   1.415   0.470   2.283  1.5340  0.1770 -1.5535
  631SOL    HW2 3494   1.322   0.563   2.186 -0.4216 -0.0575  0.0258
  632SOL     OW 3495   4.531   5.516   5.072  0.1789 -0.0629 -0.2658
  632SOL    HW1 3496   4.612   5.457   5.076  1.1346  1.0930 -1.8790
  632SOL    HW2 3497   4.471   5.485   4.999  0.3291  0.5212 -0.6396
  633SOL     OW 3498   5.923   6.092   2.883  0.7145 -0.1706  0.1950
  633SOL    HW1 3499   6.009   6.097   2.832  0.7147 -1.6333  0.0066
  633SOL    HW2 3500   5.923   6.008   2.938  0.5782  1.1860  2.3637
  634SOL     OW 3501   3.620   4.986   2.171  0.0992  0.2650 -0.5966
  634SOL    HW1 3502   3.558   4.930   2.117  1.3920 -1.0610 -0.8022
  634SOL    HW2 3503   3.571   5.064   2.210 -1.4111 -0.1470 -1.6014
  635SOL     OW 3504   1.839   6.095   5.170 -0.0588 -0.8192 -0.2610
  635SOL    HW1 3505   1.880   6.167   5.115  0.0876 -0.2377  0.5902
  635SOL    HW2 3506   1.900   6.016   5.172  1.1983  0.1394  1.2197
  636SOL     OW 3507   1.277   1.596   0.938 -0.1070  0.6868  0.4457
  636SOL    HW1 3508   1.315   1.610   1.030  0.1028  0.7064  0.3576
  636SOL    HW2 3509   1.210   1.522   0.941  0.9136 -0.2734  0.3617
  637SOL     OW 3510   5.081   6.905   4.847 -0.4226  0.3725  0.1591
  637SOL    HW1 3511   5.038   6.838   4.907  0.0167  0.1359  0.2185
  637SOL    HW2 3512   5.014   6.942   4.784 -1.1774  1.5168  1.5670
  638SOL     OW 3513   2.090   2.733   5.601  0.2084  0.2320  0.0969
  638SOL    HW1 3514   2.063   2.776   5.688 -0.5215  2.0892 -0.9874
  638SOL    HW2 3515   2.016   2.741   5.535  0.8765 -0.8519 -0.8152
  639SOL     OW 3516   0.239   6.714   2.195 -0.2705  0.7078 -0.2977
  639SOL    HW1 3517   0.285   6.741   2.111 -0.4349  0.7625 -0.3723
  639SOL    HW2 3518   0.257   6.780   2.267  0.1097  0.5056 -0.2068
  640SOL     OW 3519   2.915   0.711   1.622  0.1219  0.6904 -0.2488
  640SOL    HW1 3520   2.960   0.621   1.618  1.3498  1.2527  0.3647
  640SOL    HW2 3521   2.890   0.731   1.716 -0.9150  0.6354 -0.5080
  641SOL     OW 3522   1.709   3.857   5.635  0.2498 -0.5400  0.6822
  641SOL    HW1 3523   1.652   3.903   5.566  1.2042 -0.2878  0.0450
  641SOL    HW2 3524   1.787   3.915   5.658  2.4717 -2.4913 -1.4697
  642SOL     OW 3525   1.873   2.930   1.452 -0.3095 -0.2135  0.2324
  642SOL    HW1 3526   1.892   2.888   1.541  0.6827 -0.1727  0.0497
  642SOL    HW2 3527   1.907   2.871   1.379 -0.5185  0.0688 -0.0950
  643SOL     OW 3528   6.197   4.487   2.751 -0.0640  0.2646  0.0600
  643SOL    HW1 3529   6.202   4.584   2.778 -2.0817  1.2097 -2.5123
  643SOL    HW2 3530   6.280   4.462   2.702  0.0448  0.9949 -0.1387
  644SOL     OW 3531   2.583   2.451   4.557 -0.1747  0.0214  0.4354
  644SOL    HW1 3532   2.633   2.532   4.588  1.4553 -0.5065 -0.7555
  644SOL    HW2 3533   2.643   2.372   4.557 -0.7462 -0.4745 -1.8321
  645SOL     OW 3534   2.071   3.428   0.254 -0.1440 -0.3412 -0.0540
  645SOL    HW1 3535   1.972   3.423   0.263 -0.1920 -1.6523 -1.0163
  645SOL    HW2 3536   2.096   3.514   0.209 -0.5743  1.4188  2.7856
  646SOL     OW 3537   5.354   2.625   3.917  0.0409  0.2412 -0.0536
  646SOL    HW1 3538   5.332   2.716   3.952 -0.4537  0.3941 -0.7455
  646SOL    HW2 3539   5.439   2.593   3.959  0.3264  1.1037  0.0468
  647SOL     OW 3540   1.670   3.818   0.269 -0.4413 -0.3844 -0.1067
  647SOL    HW1 3541   1.645   3.777   0.182  1.6896 -0.8786 -0.5426
  647SOL    HW2 3542   1.701   3.747   0.332  0.6999  0.2311  0.0604
  648SOL     OW 3543   2.548   2.921   2.192 -0.6602 -0.3824 -0.2844
  648SOL    HW1 3544   2.515   2.930   2.098  2.0491 -0.3818 -1.3094
  648SOL    HW2 3545   2.622   2.986   2.208 -0.7415 -0.7217  1.7287
  649SOL     OW 3546   3.700   1.561   5.359 -0.8464 -0.1394 -0.1691
  649SOL    HW1 3547   3.685   1.568   5.261 -1.7225  0.4563  0.0053
  649SOL    HW2 3548   3.654   1.636   5.406 -0.5477 -0.4933  0.7119
  650SOL     OW 3549   3.409   0.240   6.947 -0.4247 -0.0913  0.4595
  650SOL    HW1 3550   3.373   0.193   7.028  1.0188  0.5340  1.5058
  650SOL    HW2 3551   3.504   0.215   6.934  0.6379  2.9674  1.4931
  651SOL     OW 3552   2.729   6.109   3.309 -0.8679 -0.3374  0.2899
  651SOL    HW1 3553   2.683   6.133   3.395 -1.9760 -0.5635 -0.2265
  651SOL    HW2 3554   2.698   6.171   3.237  3.1945  2.7902  0.8152
  652SOL     OW 3555   4.590   4.183   0.524 -0.4611 -0.5538  0.7668
  652SOL    HW1 3556   4.503   4.177   0.477  0.1025 -1.9820 -0.1407
  652SOL    HW2 3557   4.603   4.102   0.582  0.2433 -0.3327  0.9343
  653SOL     OW 3558   0.870   2.799   1.531 -0.5386 -0.7968  0.5732
  653SOL    HW1 3559   0.893   2.757   1.443 -2.3174 -1.9193  0.5971
  653SOL    HW2 3560   0.771   2.796   1.544 -0.2526 -1.5098  3.0432
  654SOL     OW 3561   5.699   5.016   4.703 -0.0598  0.0826  0.0472
  654SOL    HW1 3562   5.730   5.059   4.788 -1.0274  0.0030  0.4589
  654SOL    HW2 3563   5.599   5.023   4.698  0.0232  0.5020 -1.3128
  655SOL     OW 3564   5.454   0.430   3.502  0.0165  0.0871 -0.1120
  655SOL    HW1 3565   5.481   0.336   3.523  0.1612 -0.0837 -1.0222
  655SOL    HW2 3566   5.531   0.480   3.463 -0.5935 -0.0377 -1.5560
  656SOL     OW 3567   4.341   6.866   2.906  0.2160  0.0458 -0.4653
  656SOL    HW1 3568   4.292   6.933   2.850 -1.9789 -0.5490  0.6186
  656SOL    HW2 3569   4.438   6.889   2.908 -0.2853  2.5281 -1.0418
  657SOL     OW 3570   1.398   6.507   5.530 -0.0313 -0.0289  0.0615
  657SOL    HW1 3571   1.465   6.435   5.514 -0.7045 -0.1927 -2.6448
  657SOL    HW2 3572   1.319   6.468   5.578 -0.1000 -0.9830 -0.7683
  658SOL     OW 3573   0.293   3.528   5.479  0.0439  0.2549 -0.5295
  658SOL    HW1 3574   0.389   3.503   5.462  0.3679  1.5408 -0.7341
  658SOL    HW2 3575   0.259   3.479   5.559  0.6544 -0.7365 -0.8604
  659SOL     OW 3576   0.722   4.730   1.935  0.3037 -0.8172 -0.1644
  659SOL    HW1 3577   0.679   4.803   1.881  2.0190 -1.6402 -2.8457
  659SOL    HW2 3578   0.779   4.771   2.007  0.4541  0.4951 -0.9926
  660SOL     OW 3579   2.646   3.831   1.245 -0.0398 -0.0726  0.0267
  660SOL    HW1 3580   2.634   3.870   1.336 -0.5470 -0.3789  0.0951
  660SOL    HW2 3581   2.741   3.803   1.233 -0.3015 -1.5224  1.0621
  661SOL     OW 3582   6.573   5.722   1.361 -0.0875 -0.1163  0.4495
  661SOL    HW1 3583   6.477   5.750   1.356  0.2413  1.2970  1.3145
  661SOL    HW2 3584   6.629   5.800   1.390  1.2123 -1.1435  0.8225
  662SOL     OW 3585   0.449   6.597   5.643 -0.1126  0.2693 -0.4822
  662SOL    HW1 3586   0.456   6.550   5.731 -0.6206 -1.3311 -1.2483
  662SOL    HW2 3587   0.540   6.624   5.612  0.1878 -0.1331  0.0365
  663SOL     OW 3588   0.239   4.720   5.368 -0.5190 -0.4498 -0.3890
  663SOL    HW1 3589   0.286   4.708   5.456 -1.1349 -0.5032 -0.0667
  663SOL    HW2 3590   0.141   4.706   5.380 -1.4223  4.4744  0.0063
  664SOL     OW 3591   5.774   5.032   4.388 -0.3854  0.8495  0.7382
  664SOL    HW1 3592   5.871   5.024   4.367 -0.4510 -0.3691  0.8033
  664SOL    HW2 3593   5.762   5.041   4.487 -0.4140 -1.5797  1.0177
  665SOL     OW 3594   5.779   1.475   1.306  0.5624 -0.3531  0.0021
  665SOL    HW1 3595   5.876   1.461   1.287  0.5107 -0.3779 -0.2476
  665SOL    HW2 3596   5.739   1.531   1.233  0.1787 -1.1252 -0.3864
  666SOL     OW 3597   2.565   3.277   1.660 -0.2034  0.4175  0.5414
  666SOL    HW1 3598   2.644   3.241   1.709 -0.3314  0.7439  1.0004
  666SOL    HW2 3599   2.511   3.334   1.722 -0.8526  0.1208  0.2595
  667SOL     OW 3600   6.182   4.096   5.517 -0.3818 -0.5427 -0.2939
  667SOL    HW1 3601   6.273   4.062   5.495 -0.2291 -0.2106 -0.1773
  667SOL    HW2 3602   6.139   4.036   5.585 -0.4057 -0.9198 -0.6374
  668SOL     OW 3603   6.313   5.079   5.564 -0.2806 -0.3544  0.1506
  668SOL    HW1 3604   6.246   5.005   5.563  0.9147 -1.4999  0.6794
  668SOL    HW2 3605   6.289   5.144   5.635 -0.1642 -1.4321  1.2154
  669SOL     OW 3606   4.428   6.407   6.855  0.2403 -0.0588  0.3253
  669SOL    HW1 3607   4.329   6.393   6.858  0.4873 -1.9116  1.4853
  669SOL    HW2 3608   4.450   6.497   6.893 -0.9425 -0.0861  1.1346
  670SOL     OW 3609   1.308   3.942   4.542 -0.0509  0.2439  0.3704
  670SOL    HW1 3610   1.322   3.937   4.443 -0.3038 -0.2840  0.3596
  670SOL    HW2 3611   1.323   4.036   4.573  1.9976  0.0532  0.1325
  671SOL     OW 3612   1.083   1.143   6.689  1.0347  0.3218 -0.2705
  671SOL    HW1 3613   1.014   1.213   6.670  1.5355  0.6021 -1.0914
  671SOL    HW2 3614   1.149   1.178   6.755 -0.3321 -0.4168  1.5691
  672SOL     OW 3615   4.619   0.776   0.073 -0.8289  0.0165  0.1095
  672SOL    HW1 3616   4.538   0.782   0.015  0.3733  0.1579 -1.6555
  672SOL    HW2 3617   4.654   0.869   0.090 -0.1181 -0.1217 -0.5423
  673SOL     OW 3618   0.681   2.530   1.349 -0.1615  0.2672 -0.6122
  673SOL    HW1 3619   0.619   2.504   1.275  0.1921  1.5427 -1.4022
  673SOL    HW2 3620   0.735   2.451   1.377 -0.9979 -0.4708 -1.0394
  674SOL     OW 3621   1.588   6.298   5.815  0.7251 -0.0728 -0.8574
  674SOL    HW1 3622   1.637   6.220   5.853  1.8102  1.2006  0.4586
  674SOL    HW2 3623   1.490   6.280   5.816  0.9676 -1.5086 -0.8395
  675SOL     OW 3624   3.068   2.722   2.269 -0.0711  0.1061 -0.6221
  675SOL    HW1 3625   3.058   2.685   2.361  1.8443  0.8110 -0.0774
  675SOL    HW2 3626   2.997   2.684   2.209 -1.9389  0.3672  1.3332
  676SOL     OW 3627   0.484   3.474   4.881 -0.2053  0.5389  0.0622
  676SOL    HW1 3628   0.446   3.538   4.948 -1.7380  0.1642 -0.4047
  676SOL    HW2 3629   0.434   3.483   4.795 -1.9628 -2.7015  0.5766
  677SOL     OW 3630   3.221   3.258   6.990 -0.1643 -0.1679 -0.2739
  677SOL    HW1 3631   3.162   3.214   6.923  0.4273 -0.0509 -0.8723
  677SOL    HW2 3632   3.263   3.189   7.048 -2.4602 -0.1844  1.5319
  678SOL     OW 3633   5.080   6.715   5.441  0.9039 -0.0008  0.6301
  678SOL    HW1 3634   5.089   6.779   5.364 -0.5836 -2.2751 -1.5655
  678SOL    HW2 3635   5.008   6.748   5.502 -0.0703  0.3049 -0.6352
  679SOL     OW 3636   1.509   6.808   1.177 -0.2798  0.0815  0.4441
  679SOL    HW1 3637   1.459   6.780   1.259 -2.1974  1.2204 -0.2616
  679SOL    HW2 3638   1.533   6.727   1.123 -1.1911 -0.5283  0.9194
  680SOL     OW 3639   1.807   5.815   5.303 -0.3437 -0.0248 -0.4952
  680SOL    HW1 3640   1.839   5.721   5.314 -1.2524 -0.1827  1.1149
  680SOL    HW2 3641   1.710   5.814   5.275 -0.9887  0.3813  1.5749
  681SOL     OW 3642   4.152   1.983   5.785  0.5478  0.8682 -0.8809
  681SOL    HW1 3643   4.239   2.008   5.828 -0.1572 -0.4400  1.5206
  681SOL    HW2 3644   4.080   2.042   5.821  0.0748  0.3515 -0.9710
  682SOL     OW 3645   1.992   4.176   3.554 -0.0788  0.0032  0.0508
  682SOL    HW1 3646   2.011   4.203   3.649 -1.3240  2.1879 -0.2740
  682SOL    HW2 3647   2.077   4.147   3.511  0.4490 -1.5110  1.9361
  683SOL     OW 3648   3.664   6.551   6.310 -0.2607 -0.1332 -0.3917
  683SOL    HW1 3649   3.679   6.649   6.293 -0.5600  0.0830  0.5529
  683SOL    HW2 3650   3.589   6.518   6.252 -2.4906  1.0043  1.6831
  684SOL     OW 3651   4.698   3.343   6.395 -0.1142  0.1330 -0.6548
  684SOL    HW1 3652   4.708   3.404   6.317 -0.5982  1.0005 -0.0505
  684SOL    HW2 3653   4.643   3.388   6.466  0.9633 -0.3373  0.5055
  685SOL     OW 3654   1.866   2.712   5.254  0.5397  0.1797  0.2512
  685SOL    HW1 3655   1.812   2.748   5.178  0.6355 -0.2810 -0.0353
  685SOL    HW2 3656   1.918   2.787   5.296  0.7911  0.3706 -0.3869
  686SOL     OW 3657   6.043   6.022   1.580 -0.3722  0.3123 -0.4724
  686SOL    HW1 3658   6.141   6.040   1.589 -0.4279 -0.2493  1.9419
  686SOL    HW2 3659   5.993   6.108   1.582  0.0317  0.5696 -1.1311
  687SOL     OW 3660   4.102   5.648   6.288 -0.0572  0.0601  0.2132
  687SOL    HW1 3661   4.097   5.609   6.196 -1.5624  0.9985 -0.1265
  687SOL    HW2 3662   4.080   5.577   6.355  0.1801 -0.4077 -0.1989
  688SOL     OW 3663   2.196   3.311   1.988 -0.0710  0.3578  0.1820
  688SOL    HW1 3664   2.276   3.364   2.014 -0.6450  1.7678 -0.8194
  688SOL    HW2 3665   2.214   3.266   1.900  0.0598 -0.3379  0.5590
  689SOL     OW 3666   4.198   5.333   6.177  0.0753  0.1992  0.1867
  689SOL    HW1 3667   4.246   5.342   6.264  0.9622  0.7981 -0.3551
  689SOL    HW2 3668   4.181   5.236   6.158 -0.3972  0.0847  1.1650
  690SOL     OW 3669   6.445   1.516   2.110 -0.6940 -0.2089  0.1114
  690SOL    HW1 3670   6.466   1.504   2.207  1.8858 -1.0058 -0.4455
  690SOL    HW2 3671   6.438   1.614   2.089  4.4977  0.4940  0.2577
  691SOL     OW 3672   3.595   3.423   1.252  0.2251 -0.1853  0.2080
  691SOL    HW1 3673   3.511   3.477   1.244  0.3589  0.6613  3.3047
  691SOL    HW2 3674   3.610   3.372   1.168 -3.4249 -0.4196 -0.4400
  692SOL     OW 3675   1.070   4.435   5.138 -0.2900  0.1000 -1.2131
  692SOL    HW1 3676   0.994   4.401   5.193  1.6862 -0.4510  1.3693
  692SOL    HW2 3677   1.050   4.527   5.106 -0.3484  1.8367  3.2276
  693SOL     OW 3678   0.186   0.622   5.136  0.0608  0.1832 -0.5890
  693SOL    HW1 3679   0.207   0.575   5.051  0.4026  1.2381 -1.1099
  693SOL    HW2 3680   0.132   0.562   5.195 -1.1100 -0.1911 -1.9722
  694SOL     OW 3681   1.887   4.434   0.662  0.2062  0.0824 -0.0422
  694SOL    HW1 3682   1.971   4.414   0.712  0.4074  0.4281 -0.2321
  694SOL    HW2 3683   1.907   4.437   0.564 -0.1023 -0.1913 -0.1169
  695SOL     OW 3684   0.601   6.710   3.269  0.0295 -0.5729 -0.5262
  695SOL    HW1 3685   0.677   6.664   3.315  1.8565  1.2408 -1.5247
  695SOL    HW2 3686   0.585   6.799   3.312  0.8168  0.5281 -2.3719
  696SOL     OW 3687   6.199   0.201   0.573  0.1928 -0.4190 -0.5439
  696SOL    HW1 3688   6.218   0.165   0.482 -0.1068 -1.3647 -0.2442
  696SOL    HW2 3689   6.196   0.301   0.570 -1.2405 -0.4769 -1.8445
  697SOL     OW 3690   6.778   6.965   2.817 -0.1085  0.0134  0.7603
  697SOL    HW1 3691   6.822   6.903   2.752 -1.2306  0.7834 -0.8164
  697SOL    HW2 3692   6.713   7.024   2.768  0.4461  2.0086  2.2624
  698SOL     OW 3693   0.087   1.160   2.100 -0.1245  0.2261  0.7981
  698SOL    HW1 3694   0.173   1.130   2.142  1.7844  3.3482 -0.5567
  698SOL    HW2 3695   0.056   1.244   2.144 -1.9392 -0.2524  0.5169
  699SOL     OW 3696   4.413   1.267   6.701 -0.1016  0.1371  0.1915
  699SOL    HW1 3697   4.394   1.344   6.640 -0.0386 -1.1787 -1.5718
  699SOL    HW2 3698   4.372   1.184   6.663  1.2928 -1.0234  1.1263
  700SOL     OW 3699   1.176   6.439   1.546 -0.0510 -0.3310 -0.1254
  700SOL    HW1 3700   1.204   6.481   1.459  1.9135  0.7016  0.9596
  700SOL    HW2 3701   1.080   6.462   1.564 -0.3164 -0.0694 -1.7202
  701SOL     OW 3702   1.867   2.690   6.451  0.0443 -0.0564  0.5686
  701SOL    HW1 3703   1.871   2.659   6.546 -1.5309  0.6249  0.8910
  701SOL    HW2 3704   1.781   2.661   6.410 -0.3194  1.5905  0.0722
  702SOL     OW 3705   6.808   0.065   6.790 -0.5991  0.2306 -0.1632
  702SOL    HW1 3706   6.758   0.138   6.838 -2.5010 -1.8703  1.2768
  702SOL    HW2 3707   6.893   0.045   6.839 -1.5024 -0.4551  1.1961
  703SOL     OW 3708   3.389   6.065   2.515  0.4159 -0.0265  0.1393
  703SOL    HW1 3709   3.403   6.040   2.419  0.1262 -1.5904  0.4676
  703SOL    HW2 3710   3.330   6.146   2.520  3.4753  2.4594 -1.0651
  704SOL     OW 3711   3.643   5.726   4.960  0.3545  0.2649 -0.5192
  704SOL    HW1 3712   3.568   5.743   5.025  0.5154  3.3355 -0.9946
  704SOL    HW2 3713   3.673   5.631   4.969 -0.1834  0.2732  3.2996
  705SOL     OW 3714   2.935   1.419   1.998 -0.6942  0.3858  0.4170
  705SOL    HW1 3715   2.997   1.494   1.975  0.4226 -0.9283 -1.0330
  705SOL    HW2 3716   2.870   1.405   1.924 -0.1981 -0.7657  0.1852
  706SOL     OW 3717   2.638   0.362   0.694 -0.4087  0.4623 -0.2073
  706SOL    HW1 3718   2.634   0.446   0.748  3.2098  1.0109 -0.4957
  706SOL    HW2 3719   2.616   0.383   0.598 -0.6394  0.8618 -0.0672
  707SOL     OW 3720   6.260   2.522   5.949  0.2246  0.0014  0.2587
  707SOL    HW1 3721   6.288   2.427   5.963 -1.3110 -0.4358  0.5964
  707SOL    HW2 3722   6.255   2.542   5.851 -0.0703 -0.4768  0.1744
  708SOL     OW 3723   0.223   2.075   5.226 -0.1055  0.4939  0.4747
  708SOL    HW1 3724   0.127   2.088   5.200 -0.0728  0.6448  0.4295
  708SOL    HW2 3725   0.231   2.078   5.325  0.2086  3.0326  0.4369
  709SOL     OW 3726   4.861   5.545   2.330  0.1286  0.5049  0.0750
  709SOL    HW1 3727   4.833   5.597   2.411 -0.4642  0.2685  0.0301
  709SOL    HW2 3728   4.780   5.502   2.289  0.5530 -0.0834 -0.1482
  710SOL     OW 3729   6.026   3.650   5.145 -0.5862 -0.4474 -0.3232
  710SOL    HW1 3730   6.039   3.737   5.096 -1.0929 -0.2096 -0.0380
  710SOL    HW2 3731   5.931   3.622   5.137 -0.3170 -1.2419 -0.8428
  711SOL     OW 3732   3.249   0.712   2.312  0.3538  0.0769 -1.0285
  711SOL    HW1 3733   3.215   0.621   2.338  2.8208 -0.3757  0.9947
  711SOL    HW2 3734   3.335   0.703   2.263  1.4207  1.2961  0.5093
  712SOL     OW 3735   6.845   3.320   1.328 -0.1579  0.2502 -0.1656
  712SOL    HW1 3736   6.821   3.301   1.423 -1.2092  1.1697 -0.2223
  712SOL    HW2 3737   6.934   3.281   1.307 -0.4691 -1.0441  0.8362
  713SOL     OW 3738   3.450   6.284   3.922  0.0536 -0.2544 -0.1985
  713SOL    HW1 3739   3.370   6.266   3.978 -0.7406  2.3592 -0.3373
  713SOL    HW2 3740   3.526   6.311   3.980  0.5841 -1.7788 -0.1392
  714SOL     OW 3741   5.566   4.743   5.220  1.0106 -0.3635  0.0718
  714SOL    HW1 3742   5.652   4.760   5.267  1.7589 -1.2775 -0.9173
  714SOL    HW2 3743   5.538   4.826   5.171 -0.5032  1.0830  3.0920
  715SOL     OW 3744   0.599   0.275   2.030 -0.3882  0.0891 -0.0619
  715SOL    HW1 3745   0.554   0.365   2.025  0.6032  0.6335  0.5649
  715SOL    HW2 3746   0.607   0.238   1.937 -0.2391  0.9413 -0.4067
  716SOL     OW 3747   2.660   1.154   4.073  0.0452 -0.1126 -0.1470
  716SOL    HW1 3748   2.681   1.062   4.105 -0.4264 -0.5073 -0.9343
  716SOL    HW2 3749   2.706   1.221   4.131  0.1503 -0.8314  0.6151
  717SOL     OW 3750   6.532   1.291   3.306  0.4635 -0.0304  0.6902
  717SOL    HW1 3751   6.558   1.388   3.304  1.8643 -0.3487  1.6666
  717SOL    HW2 3752   6.599   1.238   3.254  0.1121 -0.5639  0.7798
  718SOL     OW 3753   0.622   0.517   6.455 -0.6268  0.2417 -0.4377
  718SOL    HW1 3754   0.704   0.511   6.399 -0.6470  0.6136 -0.5072
  718SOL    HW2 3755   0.556   0.578   6.411 -0.8043  0.2132 -0.2113
  719SOL     OW 3756   5.214   4.848   0.825  0.1244 -0.2429  0.0338
  719SOL    HW1 3757   5.146   4.916   0.853 -1.6093 -1.4371 -1.0503
  719SOL    HW2 3758   5.304   4.875   0.859 -0.7061  1.9007  0.7195
  720SOL     OW 3759   2.866   2.277   5.455  0.4687  0.1873  0.2076
  720SOL    HW1 3760   2.796   2.295   5.385  0.8951  0.1673 -0.2232
  720SOL    HW2 3761   2.823   2.229   5.532  0.0799 -0.1405 -0.2073
  721SOL     OW 3762   0.689   5.702   2.738  0.6099 -0.1703  0.4650
  721SOL    HW1 3763   0.726   5.793   2.721 -1.4714  0.4560 -1.1968
  721SOL    HW2 3764   0.701   5.679   2.835  1.4736  1.7303  0.8584
  722SOL     OW 3765   5.340   3.919   2.666 -0.5400 -0.1096  0.6205
  722SOL    HW1 3766   5.320   3.997   2.725 -3.7139  0.5890 -1.1577
  722SOL    HW2 3767   5.376   3.950   2.579 -0.0540 -0.7893  0.5679
  723SOL     OW 3768   0.776   4.857   1.302  0.3276  0.5645  0.1236
  723SOL    HW1 3769   0.739   4.831   1.392  0.1853  1.4241  0.3211
  723SOL    HW2 3770   0.724   4.810   1.230 -0.8273  1.3494  0.4214
  724SOL     OW 3771   2.384   1.046   1.450 -0.3715 -0.4770 -0.0457
  724SOL    HW1 3772   2.425   1.021   1.362 -1.8017 -0.5995 -0.7010
  724SOL    HW2 3773   2.284   1.052   1.440 -0.6301 -1.2083  1.7398
  725SOL     OW 3774   4.353   6.231   1.244  0.4540 -0.5530 -0.2427
  725SOL    HW1 3775   4.362   6.156   1.310  0.7483 -0.7016 -0.4476
  725SOL    HW2 3776   4.311   6.310   1.289  0.4046 -0.7429  0.0509
  726SOL     OW 3777   3.932   5.330   3.722  0.0240 -0.1699 -0.3227
  726SOL    HW1 3778   4.013   5.315   3.664  0.4258  2.3629 -0.5260
  726SOL    HW2 3779   3.866   5.257   3.706  1.9245 -1.9130 -0.7146
  727SOL     OW 3780   0.793   6.242   4.912  0.5618  0.3253  0.1952
  727SOL    HW1 3781   0.850   6.161   4.926 -0.4977 -0.4265  0.2790
  727SOL    HW2 3782   0.756   6.272   5.000  1.0834  1.0205  0.1909
  728SOL     OW 3783   6.481   0.020   6.449 -0.1852  0.2226 -0.0415
  728SOL    HW1 3784   6.469  -0.079   6.445 -0.7204  0.3081 -1.0712
  728SOL    HW2 3785   6.517   0.052   6.361  1.6305  0.7516  0.8437
  729SOL     OW 3786   6.596   6.472   0.127 -0.6706 -0.6270 -0.0107
  729SOL    HW1 3787   6.588   6.383   0.081 -0.3644 -0.4734 -0.3720
  729SOL    HW2 3788   6.505   6.505   0.152 -0.7117 -1.5400  1.0934
  730SOL     OW 3789   0.296   1.459   2.072  0.5275  0.1983 -0.9184
  730SOL    HW1 3790   0.340   1.453   1.982 -0.9008 -1.3721 -1.5525
  730SOL    HW2 3791   0.208   1.505   2.063  0.0543 -0.6061 -0.4487
  731SOL     OW 3792   3.754   0.544   0.616 -0.3468 -0.1969  0.1687
  731SOL    HW1 3793   3.761   0.527   0.714  0.7456 -1.6521 -0.1226
  731SOL    HW2 3794   3.667   0.508   0.582 -0.6779  0.2092  0.5826
  732SOL     OW 3795   0.561   4.684   4.765 -0.2331 -0.1732 -0.6136
  732SOL    HW1 3796   0.516   4.650   4.847 -0.5473 -0.6225 -0.9659
  732SOL    HW2 3797   0.658   4.700   4.785 -0.3743  0.0220 -0.0720
  733SOL     OW 3798   4.235   0.893   2.458 -0.0644 -0.2248 -0.2140
  733SOL    HW1 3799   4.236   0.982   2.412 -1.4199  0.0003  0.1437
  733SOL    HW2 3800   4.222   0.821   2.390 -0.9243  0.0116 -0.3071
  734SOL     OW 3801   0.097   1.493   4.674  0.0383  0.5681 -0.2434
  734SOL    HW1 3802   0.093   1.593   4.675  1.6261  0.6479  0.1023
  734SOL    HW2 3803   0.068   1.457   4.763 -1.8206  0.6257 -0.7827
  735SOL     OW 3804   0.672   6.806   4.896  0.1497  0.2788 -0.4291
  735SOL    HW1 3805   0.717   6.771   4.978 -2.1803  1.3444  1.4338
  735SOL    HW2 3806   0.705   6.899   4.876 -0.7946  0.8613  0.6293
  736SOL     OW 3807   6.823   2.517   4.101  0.4284 -0.3505  0.2648
  736SOL    HW1 3808   6.857   2.608   4.078 -1.1694  0.3251  0.4733
  736SOL    HW2 3809   6.731   2.505   4.064  0.3001 -1.5885  0.9229
  737SOL     OW 3810   1.591   0.628   6.688 -0.0904 -0.5611  0.0060
  737SOL    HW1 3811   1.554   0.540   6.659  1.0725 -0.5022 -1.7747
  737SOL    HW2 3812   1.524   0.700   6.670 -1.3160 -1.0856  2.0662
  738SOL     OW 3813   3.992   5.671   3.391 -0.4226  0.0402  0.0530
  738SOL    HW1 3814   3.914   5.641   3.445 -0.2503 -0.0685  0.2438
  738SOL    HW2 3815   4.003   5.770   3.401  1.4179 -0.3331  2.6824
  739SOL     OW 3816   2.793   0.299   3.305  0.3911  0.3052 -0.5944
  739SOL    HW1 3817   2.698   0.308   3.275  0.3119  0.2185 -0.3680
  739SOL    HW2 3818   2.803   0.217   3.361  0.6772  0.1141 -0.9234
  740SOL     OW 3819   5.919   3.841   4.133 -0.1848 -0.1420 -0.0732
  740SOL    HW1 3820   5.941   3.778   4.207 -0.6979  0.2907  0.4669
  740SOL    HW2 3821   5.858   3.913   4.168  2.5472  2.2795  0.0804
  741SOL     OW 3822   2.067   2.135   5.168 -0.3071 -0.4464 -0.0671
  741SOL    HW1 3823   2.126   2.055   5.182  0.9531  0.5730  0.7635
  741SOL    HW2 3824   2.052   2.181   5.256  0.4875  1.2169 -0.7611
  742SOL     OW 3825   0.653   3.221   1.073  0.4977  0.3026 -0.0027
  742SOL    HW1 3826   0.586   3.274   1.124 -2.5221 -1.5634 -1.7278
  742SOL    HW2 3827   0.684   3.144   1.129 -2.7651 -1.7217 -0.7390
  743SOL     OW 3828   3.438   1.565   0.337  0.4059  0.0764 -0.0864
  743SOL    HW1 3829   3.530   1.561   0.299  0.4985  0.5545  0.0807
  743SOL    HW2 3830   3.421   1.657   0.373 -0.0359 -0.0897  0.1330
  744SOL     OW 3831   1.088   2.519   2.998  0.2844 -0.2478  0.3323
  744SOL    HW1 3832   1.115   2.582   2.925  0.1039  1.2468  1.5093
  744SOL    HW2 3833   1.102   2.562   3.087  1.1854 -2.2999  1.2512
  745SOL     OW 3834   3.172   2.808   0.144  0.4831 -0.0637 -0.0653
  745SOL    HW1 3835   3.134   2.728   0.099  0.1408  0.7664 -1.2990
  745SOL    HW2 3836   3.128   2.890   0.109 -0.5476  0.5868  2.5511
  746SOL     OW 3837   0.989   5.278   4.430  0.5670  0.1658 -0.7006
  746SOL    HW1 3838   0.930   5.230   4.495  1.1706  0.6394  0.2007
  746SOL    HW2 3839   1.071   5.223   4.413  1.7498  1.2607  1.1081
  747SOL     OW 3840   1.104   1.960   6.122  0.1184  0.7469  0.3558
  747SOL    HW1 3841   1.137   2.047   6.158 -0.0853  0.7785  0.4675
  747SOL    HW2 3842   1.004   1.957   6.127 -0.0575  1.4087 -1.6877
  748SOL     OW 3843   0.757   3.868   2.197 -0.0360  0.4458  0.4083
  748SOL    HW1 3844   0.697   3.861   2.117 -0.6626 -1.1631  0.9768
  748SOL    HW2 3845   0.720   3.935   2.261 -0.1254  0.9357 -0.1497
  749SOL     OW 3846   4.633   3.527   5.407 -0.7144  0.2064 -0.2815
  749SOL    HW1 3847   4.608   3.490   5.317 -2.2498 -1.5104  0.7728
  749SOL    HW2 3848   4.710   3.476   5.444  0.3419  1.3390 -0.8578
  750SOL     OW 3849   2.489   6.359   1.791  0.4582 -0.4570 -0.7411
  750SOL    HW1 3850   2.478   6.351   1.692 -1.2390 -0.6075 -0.5667
  750SOL    HW2 3851   2.439   6.286   1.837 -1.7918  1.5657  0.2983
  751SOL     OW 3852   5.574   6.915   3.688 -0.3351  0.3342  0.5512
  751SOL    HW1 3853   5.545   6.995   3.636 -3.0075 -1.0815 -0.3208
  751SOL    HW2 3854   5.636   6.860   3.631 -0.9588  0.2446 -0.0554
  752SOL     OW 3855   6.585   3.362   2.261  0.2351  0.1022  0.1611
  752SOL    HW1 3856   6.645   3.361   2.342 -1.6528 -1.9549  1.6604
  752SOL    HW2 3857   6.510   3.426   2.276  0.1251  0.0571 -0.1872
  753SOL     OW 3858   0.677   0.638   1.901  0.3484  0.5921  0.8865
  753SOL    HW1 3859   0.669   0.560   1.839 -0.9777  1.9615 -0.7413
  753SOL    HW2 3860   0.772   0.671   1.900  0.2858  0.7994 -0.7170
  754SOL     OW 3861   0.115   5.228   0.297  0.5793 -0.5448 -0.2999
  754SOL    HW1 3862   0.179   5.199   0.368  0.8687  0.4345 -0.1541
  754SOL    HW2 3863   0.117   5.163   0.222  0.7733 -1.2254  0.2816
  755SOL     OW 3864   0.277   5.866   4.388 -0.1333 -0.1329  0.2131
  755SOL    HW1 3865   0.364   5.912   4.406  0.5977 -1.3291 -0.1948
  755SOL    HW2 3866   0.223   5.921   4.324  1.0543 -0.1926 -0.8672
  756SOL     OW 3867   0.734   6.630   5.213  0.2699 -0.3354  0.2510
  756SOL    HW1 3868   0.756   6.597   5.306 -3.0155  0.4500  1.4327
  756SOL    HW2 3869   0.682   6.560   5.165 -0.7704  0.4434  0.2147
  757SOL     OW 3870   4.416   6.722   5.239  0.3510  0.5270 -0.3716
  757SOL    HW1 3871   4.494   6.694   5.295  1.4898  0.4490 -1.9462
  757SOL    HW2 3872   4.420   6.676   5.150 -1.2383  0.8948 -0.6648
  758SOL     OW 3873   0.729   6.987   0.670  0.1285  0.0119  0.1549
  758SOL    HW1 3874   0.629   6.978   0.678  0.1655  0.3448  1.1575
  758SOL    HW2 3875   0.754   6.993   0.574 -0.5215 -3.5434 -0.4022
  759SOL     OW 3876   0.602   5.528   3.804  0.1476 -0.3783  1.1894
  759SOL    HW1 3877   0.553   5.443   3.785  0.9461 -0.9328  1.5593
  759SOL    HW2 3878   0.589   5.593   3.729 -0.0549 -1.0123  0.6769
  760SOL     OW 3879   6.274   5.209   1.328 -0.1709 -0.1061 -0.6936
  760SOL    HW1 3880   6.297   5.284   1.267 -0.3671  0.0158 -0.6176
  760SOL    HW2 3881   6.308   5.123   1.290 -1.0021 -0.1402 -1.3835
  761SOL     OW 3882   6.100   5.041   1.463  0.1367  0.1196 -0.1493
  761SOL    HW1 3883   6.011   5.074   1.492  0.9693  1.9843  0.4417
  761SOL    HW2 3884   6.149   5.113   1.415  0.2253 -1.7870 -3.1555
  762SOL     OW 3885   5.860   0.861   4.754  0.1054 -0.6742 -0.4511
  762SOL    HW1 3886   5.913   0.844   4.671  2.1067  0.8645  0.4229
  762SOL    HW2 3887   5.899   0.808   4.829  0.2740  0.2936  0.1593
  763SOL     OW 3888   5.468   1.556   1.602 -0.0523 -0.2413  0.3332
  763SOL    HW1 3889   5.427   1.469   1.629  2.0220 -1.7453 -1.0210
  763SOL    HW2 3890   5.563   1.560   1.635  0.8909  0.0794 -2.1888
  764SOL     OW 3891   3.657   5.410   2.228 -0.5675 -0.1439  0.2466
  764SOL    HW1 3892   3.743   5.360   2.235  0.1707  1.1418  0.7518
  764SOL    HW2 3893   3.650   5.452   2.138 -0.6882 -0.3001  0.1840
  765SOL     OW 3894   1.907   6.334   2.767  0.2263 -0.5294 -0.1374
  765SOL    HW1 3895   1.872   6.250   2.808 -0.2860 -1.0024 -1.4824
  765SOL    HW2 3896   1.850   6.359   2.689 -0.3190  1.7240  0.9286
  766SOL     OW 3897   2.678   3.467   4.129 -0.0944 -0.0540 -0.0941
  766SOL    HW1 3898   2.690   3.444   4.032  1.2032 -1.9312  0.4354
  766SOL    HW2 3899   2.765   3.454   4.176 -1.1334 -1.0156  1.6515
  767SOL     OW 3900   6.657   0.926   2.874 -0.2459  0.1299 -0.1766
  767SOL    HW1 3901   6.611   1.014   2.866  0.7487  0.9205  2.0505
  767SOL    HW2 3902   6.606   0.857   2.822 -1.6263  1.7765 -1.1091
  768SOL     OW 3903   2.073   0.016   1.431 -0.5622 -0.4839  0.2927
  768SOL    HW1 3904   1.981   0.011   1.467  0.0993  0.8847  2.3381
  768SOL    HW2 3905   2.104   0.111   1.431  0.9665 -0.9508 -0.0306
  769SOL     OW 3906   0.559   1.010   5.484  0.7011 -0.0823 -0.0272
  769SOL    HW1 3907   0.546   1.001   5.385  0.8537  1.5152 -0.2137
  769SOL    HW2 3908   0.597   0.925   5.520 -0.5382 -1.1505 -1.1206
  770SOL     OW 3909   5.964   5.750   4.753  0.4341  0.1548  0.1159
  770SOL    HW1 3910   5.875   5.715   4.782  1.1596 -0.1201  2.2763
  770SOL    HW2 3911   6.019   5.675   4.717 -0.5413  0.5286 -2.3410
  771SOL     OW 3912   1.408   2.894   1.444  0.0643 -0.1738  0.2891
  771SOL    HW1 3913   1.330   2.840   1.476  0.1521 -0.4969 -0.0329
  771SOL    HW2 3914   1.389   2.927   1.351  1.0306 -1.7540 -0.5095
  772SOL     OW 3915   2.766   6.739   0.064  0.2091  0.5960  0.2395
  772SOL    HW1 3916   2.682   6.685   0.063 -0.3747  1.4927  0.0982
  772SOL    HW2 3917   2.795   6.754   0.159  0.3540  0.0645  0.2795
  773SOL     OW 3918   3.746   4.436   6.681 -0.8439 -0.3475  0.0210
  773SOL    HW1 3919   3.802   4.478   6.752 -2.2705  2.8649 -0.5917
  773SOL    HW2 3920   3.792   4.444   6.593 -1.3085  0.3670 -0.1635
  774SOL     OW 3921   0.927   6.480   0.979  0.5007  0.0472  0.1516
  774SOL    HW1 3922   0.879   6.496   0.893  1.3382 -0.8802 -0.4971
  774SOL    HW2 3923   1.019   6.517   0.973  0.9551 -1.0494  0.2228
  775SOL     OW 3924   5.560   5.946   5.607 -0.0415 -0.7398 -0.3907
  775SOL    HW1 3925   5.619   5.898   5.672  0.5873  0.2371 -0.2197
  775SOL    HW2 3926   5.464   5.924   5.627 -0.0349  1.2019  2.3040
  776SOL     OW 3927   3.195   6.513   6.519  0.2840 -0.1378  0.1144
  776SOL    HW1 3928   3.251   6.564   6.584 -0.3700 -0.9119  1.3313
  776SOL    HW2 3929   3.184   6.566   6.435  0.8399  1.0548  0.7673
  777SOL     OW 3930   4.416   3.310   2.104  0.0965 -0.1276 -0.3284
  777SOL    HW1 3931   4.435   3.246   2.178 -1.8509 -0.7195 -0.3023
  777SOL    HW2 3932   4.449   3.272   2.018 -1.5103 -1.4505 -0.3966
  778SOL     OW 3933   6.521   4.575   5.140  0.1619 -0.2405 -0.4225
  778SOL    HW1 3934   6.565   4.506   5.199  0.0675  0.0459 -0.0095
  778SOL    HW2 3935   6.429   4.543   5.116  0.6632 -0.9448 -1.4740
  779SOL     OW 3936   6.113   1.641   1.387  0.2093 -0.1908 -0.1765
  779SOL    HW1 3937   6.027   1.667   1.432  0.3311  1.3428 -0.7891
  779SOL    HW2 3938   6.157   1.568   1.439 -1.4046 -0.9471  0.2069
  780SOL     OW 3939   5.547   0.240   1.240 -0.4659 -0.4148  0.3273
  780SOL    HW1 3940   5.535   0.290   1.326 -0.2652 -0.8262  0.5971
  780SOL    HW2 3941   5.575   0.146   1.260  2.8909  0.3628 -0.2399
  781SOL     OW 3942   5.699   3.394   3.787 -0.3232 -0.2301 -0.3268
  781SOL    HW1 3943   5.752   3.310   3.774  0.7294  0.5278 -1.0835
  781SOL    HW2 3944   5.748   3.471   3.746 -2.1679  0.4581 -1.3532
  782SOL     OW 3945   4.577   5.768   3.451 -0.4797  0.4102  0.5697
  782SOL    HW1 3946   4.512   5.691   3.453 -0.5182  0.3899 -0.7153
  782SOL    HW2 3947   4.559   5.825   3.371  1.9835 -0.4036 -0.6581
  783SOL     OW 3948   4.736   3.295   5.875  1.2707 -0.4591 -0.0869
  783SOL    HW1 3949   4.669   3.335   5.936  3.8081  1.4244  1.6923
  783SOL    HW2 3950   4.743   3.349   5.791  2.1496  0.7747  0.7511
  784SOL     OW 3951   1.985   2.941   3.232  0.0139  0.4433 -0.5851
  784SOL    HW1 3952   2.004   3.005   3.307 -0.0084  1.7361 -1.6474
  784SOL    HW2 3953   1.890   2.912   3.236 -0.2724  1.3509 -0.7359
  785SOL     OW 3954   5.124   4.258   6.790  0.3954 -0.1553  0.0459
  785SOL    HW1 3955   5.222   4.259   6.771  0.6308 -0.7104  1.1742
  785SOL    HW2 3956   5.087   4.167   6.772 -0.0325  0.1812 -0.8676
  786SOL     OW 3957   0.300   4.458   0.332 -0.0570  0.3977 -0.5072
  786SOL    HW1 3958   0.272   4.429   0.240 -1.9760  0.1911  0.1038
  786SOL    HW2 3959   0.222   4.499   0.379  0.8040  0.1764  1.1745
  787SOL     OW 3960   0.477   1.188   6.218 -0.0279 -0.1600 -0.2350
  787SOL    HW1 3961   0.479   1.187   6.118 -1.2985 -1.5021 -0.2752
  787SOL    HW2 3962   0.418   1.115   6.251  0.7630 -0.0595  1.5278
  788SOL     OW 3963   6.825   4.823   5.458 -0.2773  0.4004  0.0563
  788SOL    HW1 3964   6.884   4.787   5.386 -2.0238 -2.0977 -0.2233
  788SOL    HW2 3965   6.731   4.829   5.425 -1.0226 -0.2034  1.9172
  789SOL     OW 3966   2.478   6.670   1.289 -0.2713 -0.3065  0.0283
  789SOL    HW1 3967   2.448   6.623   1.206  0.2775  0.9453 -0.9024
  789SOL    HW2 3968   2.544   6.612   1.338 -0.2853 -0.8802 -0.6113
  790SOL     OW 3969   6.239   2.038   1.916 -0.0471 -0.5342  0.6064
  790SOL    HW1 3970   6.335   2.048   1.945 -0.1994  0.4245  0.8310
  790SOL    HW2 3971   6.201   2.128   1.895 -0.7149 -0.9704 -0.1213
  791SOL     OW 3972   3.695   5.734   3.832  0.4547  0.0987  0.3129
  791SOL    HW1 3973   3.780   5.693   3.800 -0.1446 -1.3752  0.5055
  791SOL    HW2 3974   3.702   5.834   3.827  2.0520  0.0054  0.0088
  792SOL     OW 3975   1.557   3.127   5.112  0.3261 -0.4916 -0.0127
  792SOL    HW1 3976   1.604   3.170   5.035 -1.0985 -0.4580 -0.9055
  792SOL    HW2 3977   1.508   3.196   5.165  0.6716 -0.6170  0.4820
  793SOL     OW 3978   4.522   0.613   0.322 -0.3806  0.2405  0.1922
  793SOL    HW1 3979   4.580   0.542   0.362 -0.8891 -0.5758 -0.4765
  793SOL    HW2 3980   4.568   0.652   0.242 -1.2994 -1.4129 -1.2116
  794SOL     OW 3981   4.000   4.342   5.898  0.6243  0.3285 -0.0582
  794SOL    HW1 3982   4.047   4.290   5.968 -0.2814 -2.2113 -1.2312
  794SOL    HW2 3983   3.922   4.391   5.939  1.9826  1.5444  1.2011
  795SOL     OW 3984   0.086   1.210   1.058 -0.0012  0.0514  0.4622
  795SOL    HW1 3985   0.176   1.249   1.035 -0.4466  0.7455 -0.1775
  795SOL    HW2 3986   0.076   1.122   1.013  0.3499 -0.0181  0.5144
  796SOL     OW 3987   6.371   2.532   2.532  0.0696 -0.0873 -0.0690
  796SOL    HW1 3988   6.374   2.493   2.624 -0.6727  0.7355  0.3161
  796SOL    HW2 3989   6.425   2.616   2.530  1.0397 -0.6999 -0.7025
  797SOL     OW 3990   1.362   1.343   4.237 -0.0132  0.7154 -0.1942
  797SOL    HW1 3991   1.374   1.306   4.145  0.2766  0.6941 -0.1492
  797SOL    HW2 3992   1.394   1.438   4.239  2.8965 -0.1668  0.5993
  798SOL     OW 3993   5.678   4.834   3.395 -0.3199 -0.1577 -0.1633
  798SOL    HW1 3994   5.742   4.901   3.359 -0.1486 -0.2306 -0.0017
  798SOL    HW2 3995   5.618   4.802   3.322 -1.5330  1.4079  0.1028
  799SOL     OW 3996   1.716   0.851   3.929 -0.2822 -0.1307 -0.0676
  799SOL    HW1 3997   1.645   0.831   3.996 -1.5528  1.3740 -0.8862
  799SOL    HW2 3998   1.805   0.854   3.974 -0.9324 -0.4811  1.2971
  800SOL     OW 3999   4.199   5.615   0.184  0.2864  0.0830 -0.6439
  800SOL    HW1 4000   4.155   5.610   0.094 -2.8740  2.1813  0.6555
  800SOL    HW2 4001   4.277   5.677   0.179 -0.8849  1.5372 -1.5947
  801SOL     OW 4002   0.056   2.275   6.093  0.7924 -0.7263  0.4521
  801SOL    HW1 4003   0.106   2.329   6.162  0.3738  1.0999 -0.6087
  801SOL    HW2 4004   0.028   2.188   6.133  2.0646 -0.4605  2.0444
  802SOL     OW 4005   5.342   0.016   2.653 -0.1059  0.0303  0.2108
  802SOL    HW1 4006   5.314   0.003   2.748 -1.9844 -0.6980 -0.4069
  802SOL    HW2 4007   5.261   0.028   2.595  0.9565 -0.3250 -1.4229
  803SOL     OW 4008   3.519   3.136   4.030 -0.0733 -0.5423 -0.5285
  803SOL    HW1 4009   3.424   3.104   4.032 -0.1263 -0.3666  0.6567
  803SOL    HW2 4010   3.525   3.227   4.070  0.4473 -0.0991 -1.5927
  804SOL     OW 4011   3.773   2.570   5.773  0.1385 -0.7977  0.4180
  804SOL    HW1 4012   3.706   2.597   5.842  1.0763  0.8767  0.7415
  804SOL    HW2 4013   3.731   2.573   5.682 -1.0403 -2.7912  0.8353
  805SOL     OW 4014   3.458   4.819   2.009 -0.2689  0.3613 -0.5727
  805SOL    HW1 4015   3.364   4.851   2.003  0.1937  2.1770  0.7574
  805SOL    HW2 4016   3.496   4.807   1.917 -2.3117 -2.2723 -1.1905
  806SOL     OW 4017   5.375   5.568   6.821  0.0269  0.2775 -0.4374
  806SOL    HW1 4018   5.356   5.470   6.816 -0.3154  0.3645 -0.9901
  806SOL    HW2 4019   5.388   5.604   6.728 -0.4653  0.8683 -0.2913
  807SOL     OW 4020   3.518   2.886   1.556 -0.1074  0.5870 -0.6882
  807SOL    HW1 4021   3.455   2.919   1.626  0.5408  1.6882 -0.5985
  807SOL    HW2 4022   3.564   2.964   1.513  0.1093 -0.1100 -1.7777
  808SOL     OW 4023   1.734   2.942   4.790  0.4438 -0.2827  0.2612
  808SOL    HW1 4024   1.668   2.993   4.846  0.3846 -0.9900  0.8550
  808SOL    HW2 4025   1.825   2.983   4.800  0.3862 -0.2509  0.6910
  809SOL     OW 4026   0.146   4.364   2.504  0.1364  0.2194 -0.4270
  809SOL    HW1 4027   0.201   4.282   2.518  1.6455  1.1261 -0.8848
  809SOL    HW2 4028   0.050   4.343   2.520  0.5286 -1.5716 -0.3125
  810SOL     OW 4029   6.622   2.787   4.762  0.2198  0.2245 -0.2324
  810SOL    HW1 4030   6.706   2.839   4.776  0.3684 -0.2997  0.9182
  810SOL    HW2 4031   6.596   2.741   4.847  0.6153 -2.3798 -1.4051
  811SOL     OW 4032   5.144   2.375   5.009  0.6309  0.4136  0.1374
  811SOL    HW1 4033   5.182   2.413   4.924 -0.6038  1.5274  0.0485
  811SOL    HW2 4034   5.132   2.449   5.076  1.6730 -0.4628  1.3394
  812SOL     OW 4035   6.932   0.112   6.396 -0.0872  0.5222 -0.0909
  812SOL    HW1 4036   6.848   0.064   6.422 -0.4194  1.6342  0.9699
  812SOL    HW2 4037   6.996   0.110   6.473 -0.5198  2.6399  0.3862
  813SOL     OW 4038   3.958   6.555   2.597  0.8254 -0.3678  0.3126
  813SOL    HW1 4039   3.949   6.508   2.685  1.3411 -2.3467 -0.6153
  813SOL    HW2 4040   3.918   6.497   2.525 -0.1256  1.4613 -0.7005
  814SOL     OW 4041   0.993   0.184   1.928 -0.3703 -0.6336  0.0280
  814SOL    HW1 4042   0.901   0.145   1.923 -0.5658 -0.2321  0.4495
  814SOL    HW2 4043   1.011   0.236   1.845 -0.2145 -1.3831 -0.4129
  815SOL     OW 4044   5.352   5.072   1.549 -0.6241  0.4827  0.3554
  815SOL    HW1 4045   5.385   4.978   1.545 -1.3725 -0.0410  3.5917
  815SOL    HW2 4046   5.369   5.117   1.462  2.3560 -1.7654 -0.3801
  816SOL     OW 4047   4.820   3.308   1.752 -0.0386 -0.1845 -0.0712
  816SOL    HW1 4048   4.806   3.219   1.795  2.1319 -0.3421  0.4400
  816SOL    HW2 4049   4.766   3.377   1.800 -0.1601 -0.8930  0.8474
  817SOL     OW 4050   5.639   3.910   5.731  0.1282  0.8552 -0.3197
  817SOL    HW1 4051   5.673   3.834   5.675  0.4251 -0.7988  1.9651
  817SOL    HW2 4052   5.707   3.983   5.733  1.4111 -0.3044  0.1954
  818SOL     OW 4053   3.951   6.298   1.758 -0.2441 -0.6004  0.0234
  818SOL    HW1 4054   3.980   6.233   1.688  0.3508 -1.2907  0.8777
  818SOL    HW2 4055   3.852   6.309   1.755 -0.2891 -1.0941 -0.5134
  819SOL     OW 4056   0.014   1.741   3.397  0.4424 -0.2024 -0.1771
  819SOL    HW1 4057   0.073   1.716   3.321  1.3106  1.5792 -0.1482
  819SOL    HW2 4058   0.066   1.798   3.462 -0.8873  0.1542  0.6127
  820SOL     OW 4059   3.247   1.521   2.947  0.0886 -1.0271  0.0428
  820SOL    HW1 4060   3.278   1.435   2.988  0.8865 -0.7617  0.0112
  820SOL    HW2 4061   3.190   1.501   2.866  0.7995 -1.5192 -0.3414
  821SOL     OW 4062   6.817   0.719   5.874 -0.0352  0.0751  0.5326
  821SOL    HW1 4063   6.768   0.730   5.960 -0.7162 -0.8786  0.2852
  821SOL    HW2 4064   6.752   0.716   5.798  0.4365 -0.5230  0.1336
  822SOL     OW 4065   1.867   5.031   4.748  0.1767 -0.0825 -0.3270
  822SOL    HW1 4066   1.945   4.968   4.743  0.1129 -0.0828 -1.6147
  822SOL    HW2 4067   1.826   5.041   4.658  0.0683  1.6702 -0.1250
  823SOL     OW 4068   3.008   2.199   2.436 -0.1171  0.2348  0.7027
  823SOL    HW1 4069   3.010   2.103   2.410  1.7203  0.0011  1.5321
  823SOL    HW2 4070   3.055   2.211   2.524  0.6925  2.0269  0.0820
  824SOL     OW 4071   4.486   5.399   2.143 -0.1442  0.5649 -0.1739
  824SOL    HW1 4072   4.391   5.380   2.170 -0.4638 -0.2253 -1.7284
  824SOL    HW2 4073   4.489   5.420   2.045  1.4487 -0.7374 -0.4372
  825SOL     OW 4074   6.964   1.007   3.504  0.2855  0.0337  0.4806
  825SOL    HW1 4075   6.969   0.951   3.421  2.4335  0.9807 -0.1051
  825SOL    HW2 4076   6.887   0.976   3.560 -1.8760 -0.0064 -2.2731
  826SOL     OW 4077   3.249   2.081   2.165  0.6059  0.3217 -0.8960
  826SOL    HW1 4078   3.290   2.167   2.197  1.3822 -0.9150  1.6905
  826SOL    HW2 4079   3.154   2.098   2.139  0.0912  1.6316  1.5402
  827SOL     OW 4080   1.027   4.727   2.007  0.2303  0.5009 -0.0633
  827SOL    HW1 4081   0.957   4.736   2.078 -1.8048  2.1894 -2.1055
  827SOL    HW2 4082   1.071   4.638   2.014 -2.1331 -0.6400  1.3307
  828SOL     OW 4083   5.455   2.968   0.588  0.1401  0.1228  0.8235
  828SOL    HW1 4084   5.365   3.012   0.581  0.2519  0.2262 -0.1370
  828SOL    HW2 4085   5.445   2.878   0.630 -0.3886  0.2179  0.9049
  829SOL     OW 4086   0.345   5.050   5.859 -0.2855  0.0118 -0.6345
  829SOL    HW1 4087   0.261   5.029   5.910 -0.1102 -3.4587 -1.5243
  829SOL    HW2 4088   0.323   5.068   5.764 -0.0390 -1.0656 -0.9044
  830SOL     OW 4089   1.812   1.535   4.978 -0.0019  0.2635  0.1009
  830SOL    HW1 4090   1.860   1.461   4.932  1.1902 -1.4841  3.7420
  830SOL    HW2 4091   1.876   1.609   4.998  0.9571 -1.1913  3.1456
  831SOL     OW 4092   4.861   1.280   1.110 -0.2883  0.1724  0.3902
  831SOL    HW1 4093   4.840   1.204   1.171  0.2552 -0.3961 -0.1160
  831SOL    HW2 4094   4.956   1.308   1.123 -0.8362  1.6403  1.4988
  832SOL     OW 4095   6.039   1.927   6.720 -0.0939 -0.2717  0.6241
  832SOL    HW1 4096   5.957   1.981   6.698 -0.6696 -1.4692 -0.2875
  832SOL    HW2 4097   6.119   1.967   6.675 -0.5089 -0.1747 -0.0364
  833SOL     OW 4098   4.955   6.683   0.582  0.0091  0.0053 -0.2182
  833SOL    HW1 4099   5.001   6.765   0.617 -0.5994  0.1365  0.2943
  833SOL    HW2 4100   5.017   6.633   0.522  1.2812 -0.5110  1.4662
  834SOL     OW 4101   4.044   4.068   1.602 -0.4935 -0.1816  0.2009
  834SOL    HW1 4102   3.990   4.074   1.686 -0.7255 -1.7668  0.1991
  834SOL    HW2 4103   4.013   4.137   1.537 -0.8327  0.5525  1.1158
  835SOL     OW 4104   2.216   5.495   5.488 -0.0998  0.1420  0.2529
  835SOL    HW1 4105   2.256   5.495   5.579 -0.3367  1.1782  0.3631
  835SOL    HW2 4106   2.140   5.560   5.484  0.0498  0.2766 -0.7434
  836SOL     OW 4107   6.666   1.958   2.216 -0.7993 -0.3794 -0.5065
  836SOL    HW1 4108   6.726   2.033   2.187 -2.0657  0.4888 -0.9580
  836SOL    HW2 4109   6.722   1.884   2.255  0.4601  0.8426  0.0908
  837SOL     OW 4110   3.650   0.298   2.853 -0.6179  0.6173 -0.3429
  837SOL    HW1 4111   3.729   0.288   2.914  0.5457  2.7206 -1.3869
  837SOL    HW2 4112   3.567   0.307   2.908  0.2165  1.1030  0.8950
  838SOL     OW 4113   0.125   0.872   1.698  0.5872 -0.2713 -0.2119
  838SOL    HW1 4114   0.207   0.927   1.713  0.3473  0.4530 -1.4387
  838SOL    HW2 4115   0.138   0.814   1.618  0.6600 -1.6823  0.8010
  839SOL     OW 4116   1.194   0.629   0.391  0.3492  0.1975 -0.1161
  839SOL    HW1 4117   1.232   0.537   0.385  1.2466  0.6169 -1.3667
  839SOL    HW2 4118   1.149   0.641   0.480 -1.2162 -1.9607 -0.5379
  840SOL     OW 4119   2.363   1.154   5.254 -0.8966 -0.3784 -0.3981
  840SOL    HW1 4120   2.275   1.201   5.261 -1.5243 -1.4534 -0.7571
  840SOL    HW2 4121   2.391   1.149   5.159  0.3106  1.2571 -0.1603
  841SOL     OW 4122   3.404   3.154   5.723  0.0194  0.5194 -0.1971
  841SOL    HW1 4123   3.414   3.252   5.739 -0.0676  0.5528 -0.3412
  841SOL    HW2 4124   3.317   3.123   5.758  0.0083  0.5115 -0.2319
  842SOL     OW 4125   1.709   1.231   6.957 -0.2001 -0.1718 -0.7235
  842SOL    HW1 4126   1.739   1.137   6.976  1.4520  0.3110 -0.7587
  842SOL    HW2 4127   1.697   1.242   6.858 -0.3447 -0.3252 -0.7243
  843SOL     OW 4128   5.421   6.896   6.311  0.7699 -0.2174 -0.3289
  843SOL    HW1 4129   5.518   6.887   6.288  1.1784  1.0694  0.7773
  843SOL    HW2 4130   5.406   6.865   6.405 -0.1148 -1.4136 -0.8278
  844SOL     OW 4131   4.471   2.480   6.952  0.4977  0.0256  0.1229
  844SOL    HW1 4132   4.388   2.456   7.003  0.6488  0.4752  0.5854
  844SOL    HW2 4133   4.469   2.577   6.930  0.7914 -0.0131 -0.0705
  845SOL     OW 4134   5.074   6.779   1.541 -0.6393 -0.2760  0.2177
  845SOL    HW1 4135   5.153   6.723   1.518  1.2993  2.4091 -0.1302
  845SOL    HW2 4136   5.051   6.767   1.638  1.1743  0.0078  0.7119
  846SOL     OW 4137   0.710   5.161   5.287 -0.2851  0.1997 -0.2591
  846SOL    HW1 4138   0.697   5.260   5.291 -1.0319  0.0806  1.0692
  846SOL    HW2 4139   0.646   5.120   5.223 -0.5926  0.4924 -0.1355
  847SOL     OW 4140   6.006   1.528   6.153 -0.1688 -0.5851  0.5483
  847SOL    HW1 4141   5.918   1.573   6.137  0.4597  1.8183  3.1256
  847SOL    HW2 4142   5.994   1.453   6.218 -0.3050 -0.1456  1.0335
  848SOL     OW 4143   1.464   2.106   3.120 -0.1763 -0.3108  0.3644
  848SOL    HW1 4144   1.455   2.176   3.049 -0.9653 -0.1947  0.5655
  848SOL    HW2 4145   1.513   2.027   3.084 -2.2390 -1.0763 -0.9468
  849SOL     OW 4146   1.061   5.563   6.995  0.0072  0.9062  0.5439
  849SOL    HW1 4147   1.053   5.640   6.932 -0.0150 -0.8516 -1.7310
  849SOL    HW2 4148   1.115   5.591   7.075  2.1197  2.6506 -1.3387
  850SOL     OW 4149   4.405   6.244   2.192  0.3359  0.4830  0.3825
  850SOL    HW1 4150   4.356   6.324   2.225 -1.2537 -0.8270  1.4029
  850SOL    HW2 4151   4.492   6.235   2.241 -0.0956  0.8497  1.2295
  851SOL     OW 4152   6.943   4.808   1.705 -0.1212  0.2333  0.0529
  851SOL    HW1 4153   6.896   4.873   1.765  0.1439  0.7014 -0.2354
  851SOL    HW2 4154   6.972   4.729   1.758 -0.4603  0.3459  0.4097
  852SOL     OW 4155   4.504   0.728   2.295 -0.2084 -0.1634 -0.2538
  852SOL    HW1 4156   4.531   0.768   2.383  0.9687 -0.6509 -0.3771
  852SOL    HW2 4157   4.404   0.734   2.285 -0.0828  3.1320 -0.4594
  853SOL     OW 4158   6.360   2.108   0.633  0.6589  0.7229  0.0495
  853SOL    HW1 4159   6.393   2.168   0.560  1.4500 -0.3673 -0.5227
  853SOL    HW2 4160   6.437   2.081   0.691  0.3583  0.1488  0.1932
  854SOL     OW 4161   2.825   0.819   3.290 -0.5559 -0.6901  0.1650
  854SOL    HW1 4162   2.838   0.722   3.268 -1.2663 -0.7226 -0.1569
  854SOL    HW2 4163   2.758   0.827   3.364  0.2126 -0.4780  0.8522
  855SOL     OW 4164   2.710   1.446   1.847  0.5649 -0.0652  0.1585
  855SOL    HW1 4165   2.654   1.426   1.926  1.1747 -0.2623  0.5477
  855SOL    HW2 4166   2.715   1.545   1.834  0.5059 -0.0313  0.3972
  856SOL     OW 4167   3.413   3.732   3.658  0.3170  0.2914 -0.2321
  856SOL    HW1 4168   3.404   3.682   3.744  0.8873  0.1272 -0.2630
  856SOL    HW2 4169   3.390   3.671   3.582  0.4953  0.2277 -0.2362
  857SOL     OW 4170   1.361   4.814   3.236  0.9388  0.0124 -0.2580
  857SOL    HW1 4171   1.303   4.829   3.156  0.2316  1.7896  0.5287
  857SOL    HW2 4172   1.456   4.833   3.213  0.8711 -0.4350 -0.9148
  858SOL     OW 4173   0.591   0.324   0.717 -0.0038  0.4043  0.0234
  858SOL    HW1 4174   0.668   0.297   0.775 -1.0361 -0.7653  0.9068
  858SOL    HW2 4175   0.529   0.246   0.705 -1.4148  1.4922 -0.0904
  859SOL     OW 4176   1.508   6.111   1.050  0.2915 -0.2308 -0.7983
  859SOL    HW1 4177   1.536   6.016   1.065  0.4809 -0.2900 -1.4577
  859SOL    HW2 4178   1.470   6.149   1.134 -1.2575 -1.3810 -0.9390
  860SOL     OW 4179   0.811   0.993   2.339  0.2148  0.1003  0.6879
  860SOL    HW1 4180   0.815   1.091   2.321  0.0358  0.0555  0.4035
  860SOL    HW2 4181   0.886   0.968   2.401  0.7704  0.2766  0.0963
  861SOL     OW 4182   0.034   2.932   6.993  0.0379  0.4412  0.2371
  861SOL    HW1 4183   0.132   2.915   6.988 -0.2396 -1.1034 -0.3963
  861SOL    HW2 4184   0.018   3.026   7.024  1.7253  1.4944 -1.8125
  862SOL     OW 4185   6.862   3.302   1.590 -0.2279  0.5372 -0.0426
  862SOL    HW1 4186   6.946   3.351   1.567 -0.6469  1.4798  0.4083
  862SOL    HW2 4187   6.800   3.362   1.640 -1.2505 -0.0912 -0.5160
  863SOL     OW 4188   4.938   0.174   0.912  0.1066 -0.1381 -0.0317
  863SOL    HW1 4189   4.888   0.177   0.825 -1.9317  1.3603  1.0815
  863SOL    HW2 4190   4.976   0.265   0.931  1.5419 -0.7515  0.1292
  864SOL     OW 4191   0.844   6.534   6.820  0.3006 -0.5217 -0.3607
  864SOL    HW1 4192   0.780   6.464   6.849 -0.6486  0.2949 -0.4236
  864SOL    HW2 4193   0.796   6.601   6.763  0.7741  1.0692  1.0313
  865SOL     OW 4194   2.718   0.159   4.265  0.5460  0.0466 -0.2695
  865SOL    HW1 4195   2.696   0.221   4.341 -0.1960  0.3084 -0.6883
  865SOL    HW2 4196   2.743   0.213   4.185 -1.6443 -0.1107 -1.1212
  866SOL     OW 4197   4.538   4.446   0.213  0.1000 -0.2772  0.2093
  866SOL    HW1 4198   4.623   4.440   0.161  0.2656 -3.0009  0.6412
  866SOL    HW2 4199   4.553   4.413   0.307 -1.5635 -1.7113  0.0355
  867SOL     OW 4200   0.744   2.044   3.315 -0.0970  1.0446  0.4188
  867SOL    HW1 4201   0.687   2.050   3.233  2.2808  3.1212 -1.2343
  867SOL    HW2 4202   0.721   1.961   3.365 -1.7583 -0.2557 -2.2579
  868SOL     OW 4203   1.436   1.892   4.250  0.1180  0.5849 -0.0953
  868SOL    HW1 4204   1.463   1.845   4.167  2.9406  0.0772  0.9984
  868SOL    HW2 4205   1.505   1.960   4.274 -0.2289  0.2323  2.1695
  869SOL     OW 4206   2.092   1.906   4.426  0.6766 -0.1983 -0.2100
  869SOL    HW1 4207   2.060   1.830   4.481  0.5254 -1.8304 -2.4189
  869SOL    HW2 4208   2.039   1.910   4.341  2.2430  0.9028 -1.1841
  870SOL     OW 4209   5.784   1.373   3.400  0.4269 -0.2800 -0.2260
  870SOL    HW1 4210   5.807   1.415   3.488 -1.0291  0.6416 -0.2543
  870SOL    HW2 4211   5.856   1.391   3.334  0.9250  0.1276  0.4163
  871SOL     OW 4212   2.592   6.250   2.531  0.0683 -0.7207 -0.0114
  871SOL    HW1 4213   2.540   6.166   2.548  0.4967 -0.9370  0.2332
  871SOL    HW2 4214   2.582   6.276   2.435  0.3699 -1.3527 -0.2213
  872SOL     OW 4215   6.281   5.038   0.825 -0.4988 -0.2508 -0.5948
  872SOL    HW1 4216   6.370   4.996   0.840  0.6993  1.6612 -1.8859
  872SOL    HW2 4217   6.220   4.974   0.778  0.0556 -1.6858  0.5878
  873SOL     OW 4218   5.556   0.490   4.274  0.4325  0.3281  0.1211
  873SOL    HW1 4219   5.623   0.439   4.328  1.2865  2.6664  1.4247
  873SOL    HW2 4220   5.533   0.438   4.192  2.8360 -1.1626  0.2843
  874SOL     OW 4221   0.762   6.614   4.052  0.1556 -0.0753 -0.1562
  874SOL    HW1 4222   0.858   6.612   4.022 -0.1807  0.0628 -1.2960
  874SOL    HW2 4223   0.718   6.528   4.025  0.1238 -0.4275  0.9781
  875SOL     OW 4224   1.330   5.002   3.440  0.9289 -0.9441 -0.0481
  875SOL    HW1 4225   1.344   4.918   3.389  1.4172 -0.5300 -0.6063
  875SOL    HW2 4226   1.232   5.018   3.453  0.8181 -1.2528 -0.5029
  876SOL     OW 4227   4.511   2.874   5.642 -0.6329  0.0412  0.4559
  876SOL    HW1 4228   4.528   2.779   5.616  1.6089  0.5617 -0.1427
  876SOL    HW2 4229   4.565   2.897   5.723 -1.5118  0.7014  0.8774
  877SOL     OW 4230   5.535   4.387   3.064  0.1756  0.5091  0.5628
  877SOL    HW1 4231   5.590   4.444   3.126  0.4320  0.0485  0.7686
  877SOL    HW2 4232   5.458   4.349   3.115  1.5027 -1.5196  1.1838
  878SOL     OW 4233   0.338   4.838   4.697 -0.2421  0.3422  0.2661
  878SOL    HW1 4234   0.420   4.791   4.729  0.1628 -0.1468 -1.3812
  878SOL    HW2 4235   0.364   4.908   4.630 -1.0098  1.6250  1.2594
  879SOL     OW 4236   1.204   1.840   3.134  0.4361  0.5661  0.4590
  879SOL    HW1 4237   1.125   1.898   3.155 -0.3440  0.2361 -1.2951
  879SOL    HW2 4238   1.214   1.770   3.204  0.2924  1.7128  1.6583
  880SOL     OW 4239   4.687   6.560   6.643 -0.0409  0.1405 -0.1495
  880SOL    HW1 4240   4.593   6.543   6.615 -0.5413  1.3253  0.7618
  880SOL    HW2 4241   4.740   6.595   6.565 -0.6093  0.4586 -0.3943
  881SOL     OW 4242   1.748   2.249   3.379 -0.0664  0.0750  0.2176
  881SOL    HW1 4243   1.768   2.189   3.457 -2.2112  0.7540  1.3838
  881SOL    HW2 4244   1.724   2.193   3.300  3.7236 -0.6866 -0.5788
  882SOL     OW 4245   3.540   5.163   4.931  0.0069 -0.3497 -0.6882
  882SOL    HW1 4246   3.640   5.161   4.936  0.0594  1.4502 -0.0389
  882SOL    HW2 4247   3.502   5.154   5.024 -0.3953 -0.1445 -0.8299
  883SOL     OW 4248   1.032   5.021   2.084  0.2834 -0.0680 -0.0139
  883SOL    HW1 4249   0.956   5.072   2.124  0.6843  0.4683  0.0760
  883SOL    HW2 4250   0.996   4.943   2.031 -0.3744  0.7005 -0.7316
  884SOL     OW 4251   1.179   4.287   1.065  0.9316  0.0229 -0.1895
  884SOL    HW1 4252   1.269   4.277   1.108  0.1143 -0.4522  1.4985
  884SOL    HW2 4253   1.147   4.198   1.033  1.6722  0.4162 -2.2066
  885SOL     OW 4254   4.462   0.668   6.402  0.0989  0.2773  0.3203
  885SOL    HW1 4255   4.460   0.577   6.445  1.8176  0.3729  0.6723
  885SOL    HW2 4256   4.542   0.675   6.342 -0.2474  1.4132 -0.0325
  886SOL     OW 4257   1.681   4.644   0.649 -0.8351 -0.2583  0.0172
  886SOL    HW1 4258   1.711   4.555   0.612  1.0273 -0.0684  0.9564
  886SOL    HW2 4259   1.714   4.654   0.743 -0.8655  1.5118 -0.1277
  887SOL     OW 4260   6.138   3.627   5.656 -0.4580  0.2100 -0.0699
  887SOL    HW1 4261   6.082   3.573   5.720  0.2190  0.4135  0.7104
  887SOL    HW2 4262   6.233   3.599   5.664 -0.4219 -0.0960 -1.3593
  888SOL     OW 4263   6.409   1.921   1.268  0.1943 -0.3829  0.2486
  888SOL    HW1 4264   6.361   1.850   1.217 -1.5809  0.1960  1.0453
  888SOL    HW2 4265   6.402   1.903   1.366 -0.9601  1.2625  0.5093
  889SOL     OW 4266   3.142   6.879   4.029  0.3946  0.8304  0.6682
  889SOL    HW1 4267   3.103   6.885   3.937 -2.7168  1.1588  1.8665
  889SOL    HW2 4268   3.206   6.802   4.034 -0.1788  0.1601 -1.4876
  890SOL     OW 4269   6.360   3.613   3.727 -0.1118  0.7728  0.0513
  890SOL    HW1 4270   6.278   3.587   3.778  0.1848  1.4926  0.9245
  890SOL    HW2 4271   6.345   3.701   3.682 -0.1442  0.4519 -0.5713
  891SOL     OW 4272   1.727   0.924   4.480 -0.9852  0.1230  0.1059
  891SOL    HW1 4273   1.663   0.849   4.496 -0.2089 -0.8363 -1.1985
  891SOL    HW2 4274   1.678   1.001   4.439 -1.5252 -0.1611  0.2050
  892SOL     OW 4275   0.867   3.486   5.303  0.0293 -0.2576 -0.1876
  892SOL    HW1 4276   0.780   3.451   5.268  0.0761 -0.3232 -0.2380
  892SOL    HW2 4277   0.898   3.428   5.378 -0.7223  0.6173  0.8438
  893SOL     OW 4278   2.876   1.706   5.100  0.4954 -0.2134  0.0287
  893SOL    HW1 4279   2.959   1.760   5.118 -0.6571  1.2956  1.1333
  893SOL    HW2 4280   2.840   1.671   5.187 -0.1265 -0.6731 -0.4119
  894SOL     OW 4281   1.993   6.422   1.011  0.5737  0.0453 -0.6668
  894SOL    HW1 4282   1.952   6.388   0.926  0.6632 -0.4721 -0.5048
  894SOL    HW2 4283   2.036   6.347   1.060 -0.5588  0.0868  0.4550
  895SOL     OW 4284   5.422   6.525   5.374 -0.0625 -1.0624  0.3628
  895SOL    HW1 4285   5.472   6.532   5.460 -0.6405  1.8580  0.5642
  895SOL    HW2 4286   5.325   6.511   5.393 -0.1464 -0.7241  0.1931
  896SOL     OW 4287   6.162   0.139   0.266  0.2803 -0.3647 -0.8735
  896SOL    HW1 4288   6.193   0.232   0.286 -0.0469 -0.5775  0.7386
  896SOL    HW2 4289   6.237   0.088   0.222  0.5304  0.5758 -1.5735
  897SOL     OW 4290   2.783   1.336   3.251  0.2845  0.4441 -0.2219
  897SOL    HW1 4291   2.792   1.329   3.350 -0.2426 -1.5643 -0.2668
  897SOL    HW2 4292   2.739   1.422   3.227  0.2016  0.8450  1.2918
  898SOL     OW 4293   2.896   5.875   5.876  0.1924  0.1790  0.0486
  898SOL    HW1 4294   2.927   5.949   5.934  1.1961 -0.3159  0.1558
  898SOL    HW2 4295   2.804   5.896   5.841 -0.1017  0.8234  1.1779
  899SOL     OW 4296   2.692   0.835   6.741  0.0465 -0.5710  0.0131
  899SOL    HW1 4297   2.774   0.779   6.728  0.1967 -0.9931  2.3961
  899SOL    HW2 4298   2.718   0.932   6.743 -0.0986 -0.3662 -3.2088
  900SOL     OW 4299   5.098   1.634   4.188 -0.0192 -0.2805  0.0928
  900SOL    HW1 4300   5.012   1.634   4.239 -0.3859 -2.9202 -0.3473
  900SOL    HW2 4301   5.092   1.698   4.112 -1.8789 -0.8532 -0.2984
  901SOL     OW 4302   5.365   2.831   5.932 -0.1598  0.3665  0.2718
  901SOL    HW1 4303   5.375   2.809   6.029 -1.0088 -2.0598 -0.1212
  901SOL    HW2 4304   5.272   2.808   5.902  0.3991  0.0423 -1.3338
  902SOL     OW 4305   0.834   2.333   5.137  0.1112 -0.4691  0.1221
  902SOL    HW1 4306   0.918   2.353   5.087 -0.8748 -0.3044 -1.5427
  902SOL    HW2 4307   0.805   2.414   5.188  0.7989 -0.4505  0.5050
  903SOL     OW 4308   1.327   2.195   0.556 -0.0141 -0.0230  0.1429
  903SOL    HW1 4309   1.377   2.227   0.475 -0.3322 -0.6024 -0.2867
  903SOL    HW2 4310   1.334   2.096   0.563  0.3540  0.0595  1.0628
  904SOL     OW 4311   2.138   2.762   0.048 -0.4368  0.0712 -0.3544
  904SOL    HW1 4312   2.175   2.728   0.134  1.4816 -1.1773 -1.6129
  904SOL    HW2 4313   2.160   2.859   0.039 -0.1560  0.0747  0.2935
  905SOL     OW 4314   5.261   4.834   0.423 -0.2433  0.2233 -0.5569
  905SOL    HW1 4315   5.196   4.765   0.457  0.7969 -0.6403 -0.2834
  905SOL    HW2 4316   5.273   4.822   0.324  3.2462 -2.9955  0.0322
  906SOL     OW 4317   6.365   6.131   1.140  0.6255  0.1231  0.8929
  906SOL    HW1 4318   6.267   6.119   1.128  0.4094  0.6996  1.9967
  906SOL    HW2 4319   6.385   6.159   1.234  1.3609  4.6912 -0.3628
  907SOL     OW 4320   5.596   0.394   2.423  0.2636 -0.6351 -0.0722
  907SOL    HW1 4321   5.696   0.389   2.432  0.4191 -2.3559 -1.8667
  907SOL    HW2 4322   5.572   0.474   2.367  0.5063  0.4938  1.3892
  908SOL     OW 4323   4.776   3.037   3.065 -0.1792  0.2080  0.5813
  908SOL    HW1 4324   4.813   3.008   3.153  1.5741  0.1604 -0.1436
  908SOL    HW2 4325   4.834   3.005   2.991 -0.6455  1.7306 -0.5151
  909SOL     OW 4326   4.872   5.230   3.955 -0.0623  0.0088  0.3732
  909SOL    HW1 4327   4.837   5.189   3.871 -1.0727 -0.2010  0.8897
  909SOL    HW2 4328   4.954   5.180   3.984 -1.9306 -2.5635  1.6668
  910SOL     OW 4329   0.152   0.702   1.480  0.1251  0.7151 -0.4496
  910SOL    HW1 4330   0.206   0.673   1.401 -2.7258  0.8340 -2.5823
  910SOL    HW2 4331   0.121   0.622   1.531 -0.4569  0.4572 -1.1971
  911SOL     OW 4332   0.497   4.578   4.509 -0.2689  0.0273 -0.1238
  911SOL    HW1 4333   0.471   4.490   4.549 -0.9050  0.2848  0.0538
  911SOL    HW2 4334   0.542   4.634   4.579 -1.0730  0.3467  0.1522
  912SOL     OW 4335   2.851   3.225   0.591 -0.1258 -0.7207 -0.5139
  912SOL    HW1 4336   2.914   3.223   0.513 -0.5051 -0.0135 -0.8569
  912SOL    HW2 4337   2.834   3.132   0.623  1.0194 -0.9183 -0.4697
  913SOL     OW 4338   1.115   6.731   5.935  0.3697 -0.4392  0.2239
  913SOL    HW1 4339   1.055   6.759   6.010 -1.2542 -3.0043 -0.0073
  913SOL    HW2 4340   1.070   6.749   5.848  1.3314  0.5069 -0.1022
  914SOL     OW 4341   4.374   2.710   2.288 -0.1686 -0.0838  0.0212
  914SOL    HW1 4342   4.354   2.633   2.227 -1.2960  0.7001 -0.6209
  914SOL    HW2 4343   4.467   2.700   2.324  0.0004 -1.3077 -0.6914
  915SOL     OW 4344   1.323   6.816   6.225 -0.2293  0.1071  0.2277
  915SOL    HW1 4345   1.394   6.762   6.180  0.5314  1.2241  0.0455
  915SOL    HW2 4346   1.286   6.884   6.160 -0.4553  0.4806  0.7403
  916SOL     OW 4347   3.808   6.438   5.622  0.1023 -0.3459 -0.0367
  916SOL    HW1 4348   3.814   6.470   5.527 -1.3701  0.6649  0.1732
  916SOL    HW2 4349   3.848   6.347   5.629  1.6619  0.2014 -1.3006
  917SOL     OW 4350   5.557   6.472   6.847 -0.0908  0.2928 -0.3213
  917SOL    HW1 4351   5.493   6.433   6.782  0.4164  0.2503 -0.7995
  917SOL    HW2 4352   5.509   6.496   6.931 -0.7399  0.2980 -0.6906
  918SOL     OW 4353   0.939   2.053   3.871  0.1537  0.1288  0.1049
  918SOL    HW1 4354   0.927   1.959   3.903  2.7115  0.6049  3.0463
  918SOL    HW2 4355   0.852   2.090   3.840 -1.1327 -2.8210 -0.0747
  919SOL     OW 4356   5.823   1.587   2.090  0.6895 -0.0101  0.6663
  919SOL    HW1 4357   5.910   1.629   2.117  1.0903  0.0602 -0.6887
  919SOL    HW2 4358   5.834   1.488   2.081  0.7844  0.0617 -0.0560
  920SOL     OW 4359   6.487   3.948   5.588 -0.4021  0.4245 -0.4590
  920SOL    HW1 4360   6.537   4.024   5.629  1.7549 -0.9698 -0.3378
  920SOL    HW2 4361   6.479   3.874   5.655  0.0832 -0.5317 -1.4245
  921SOL     OW 4362   3.954   0.834   5.063  0.0555 -0.4093 -0.2422
  921SOL    HW1 4363   3.998   0.922   5.077 -0.4273 -0.1149 -0.5642
  921SOL    HW2 4364   4.022   0.761   5.071  0.2208 -0.1136  1.3852
  922SOL     OW 4365   2.994   3.064   2.215 -0.8425  0.5114  0.0693
  922SOL    HW1 4366   3.071   3.125   2.197  0.1971 -0.2661  1.6754
  922SOL    HW2 4367   3.027   2.970   2.222 -1.8249  0.2303  1.3321
  923SOL     OW 4368   0.277   4.637   1.816  0.7032  0.1767 -0.0831
  923SOL    HW1 4369   0.192   4.611   1.861 -0.6213  1.2938 -1.7805
  923SOL    HW2 4370   0.351   4.640   1.883 -1.2321  2.2550  2.1620
  924SOL     OW 4371   2.828   1.686   6.986  0.4429  0.3973 -0.3203
  924SOL    HW1 4372   2.829   1.705   6.888  1.3619  1.8707 -0.0648
  924SOL    HW2 4373   2.789   1.765   7.034  0.1196 -0.2566  0.5226
  925SOL     OW 4374   6.292   0.493   2.316  0.1566 -0.7273  0.4137
  925SOL    HW1 4375   6.258   0.408   2.274  0.4659 -0.6049 -0.0828
  925SOL    HW2 4376   6.222   0.564   2.308 -0.6878 -1.3128  2.0910
  926SOL     OW 4377   6.824   1.004   2.621  0.1592 -0.4503 -0.1733
  926SOL    HW1 4378   6.807   0.939   2.695 -0.2654 -0.1891 -0.0355
  926SOL    HW2 4379   6.775   0.975   2.539  0.8576 -0.8931 -0.4460
  927SOL     OW 4380   1.725   3.981   2.051  0.7602  0.2250 -0.7395
  927SOL    HW1 4381   1.777   3.897   2.037  1.0259  0.3634 -0.5852
  927SOL    HW2 4382   1.691   4.014   1.963  0.8230  0.0637 -0.8247
  928SOL     OW 4383   6.352   1.583   2.658 -0.3158 -0.0388 -0.9093
  928SOL    HW1 4384   6.352   1.600   2.756 -0.3620  0.7566 -1.0414
  928SOL    HW2 4385   6.441   1.607   2.620  0.0078 -1.2108 -0.9269
  929SOL     OW 4386   1.088   6.396   2.636 -0.1606 -0.4600 -0.3180
  929SOL    HW1 4387   1.185   6.379   2.617  0.0602  0.4950 -0.0646
  929SOL    HW2 4388   1.054   6.326   2.699  0.5891 -0.3008  0.2726
  930SOL     OW 4389   2.806   1.969   1.784  0.2058  0.3040  0.3284
  930SOL    HW1 4390   2.748   2.019   1.720 -0.2624 -1.0519 -0.3500
  930SOL    HW2 4391   2.798   2.009   1.875 -1.8648  0.1429  0.2697
  931SOL     OW 4392   4.443   4.028   5.872  0.1703 -0.0747  1.0015
  931SOL    HW1 4393   4.513   3.980   5.925  1.5759 -0.0275 -0.6991
  931SOL    HW2 4394   4.469   4.124   5.862  0.7818 -0.3807 -0.9728
  932SOL     OW 4395   3.426   0.269   0.591  0.4482 -0.2527  0.2583
  932SOL    HW1 4396   3.443   0.364   0.566  2.3482 -1.1259 -2.2102
  932SOL    HW2 4397   3.337   0.241   0.554  0.9297 -0.0544 -1.1013
  933SOL     OW 4398   2.547   5.083   4.567  0.4927  0.4909  0.1817
  933SOL    HW1 4399   2.617   5.025   4.609 -1.5653 -1.5785  1.0340
  933SOL    HW2 4400   2.494   5.129   4.639  0.2840  1.1664 -0.3913
  934SOL     OW 4401   2.379   2.230   1.908 -0.2698  0.0156 -0.3494
  934SOL    HW1 4402   2.280   2.214   1.910 -0.1568 -0.7555 -0.5330
  934SOL    HW2 4403   2.426   2.146   1.882  0.5419 -0.0632  1.2598
  935SOL     OW 4404   1.202   6.974   3.684 -0.2315  0.3289 -0.1328
  935SOL    HW1 4405   1.175   6.953   3.590 -1.0084 -0.9843  0.3546
  935SOL    HW2 4406   1.126   7.016   3.732  0.1515  0.9653 -0.0768
  936SOL     OW 4407   5.581   0.129   2.635  0.0931 -0.1950 -0.0112
  936SOL    HW1 4408   5.487   0.095   2.626 -0.5676  1.5037  0.1676
  936SOL    HW2 4409   5.631   0.110   2.551 -1.0564  0.7492 -0.9503
  937SOL     OW 4410   3.743   5.575   3.475 -0.5691  0.5346  0.1028
  937SOL    HW1 4411   3.665   5.590   3.536  1.0192  1.0706  2.1046
  937SOL    HW2 4412   3.728   5.493   3.420 -1.8406 -0.2674  1.5966
  938SOL     OW 4413   0.031   3.845   4.563  0.1049  0.2747  0.0377
  938SOL    HW1 4414   0.013   3.796   4.477 -1.1637  0.0453  0.4019
  938SOL    HW2 4415  -0.003   3.938   4.556 -0.2964  0.1603  0.3843
  939SOL     OW 4416   3.275   0.812   4.026 -0.0760  0.0247  0.0517
  939SOL    HW1 4417   3.302   0.864   3.945  0.6559  0.2926  0.4571
  939SOL    HW2 4418   3.304   0.861   4.108  3.4890 -2.3721  0.4641
  940SOL     OW 4419   6.448   1.971   6.710  0.2505  0.3421 -0.6394
  940SOL    HW1 4420   6.371   2.005   6.657  0.8681  3.1741  0.0923
  940SOL    HW2 4421   6.415   1.920   6.789 -1.0510  2.8467  0.5526
  941SOL     OW 4422   4.036   3.317   5.997  0.2668 -0.6536  0.2012
  941SOL    HW1 4423   4.010   3.391   5.934 -1.8878 -1.6874 -0.2206
  941SOL    HW2 4424   4.119   3.273   5.964 -0.0841 -0.3139 -1.1955
  942SOL     OW 4425   4.013   6.764   1.629  0.1043  0.4744 -0.2325
  942SOL    HW1 4426   4.087   6.707   1.662  0.1340 -0.2895 -1.5691
  942SOL    HW2 4427   3.936   6.758   1.692  0.1486 -0.9547 -0.2858
  943SOL     OW 4428   5.620   3.595   6.328 -0.5191 -0.2072 -0.0180
  943SOL    HW1 4429   5.654   3.634   6.414  0.4209 -0.7118 -0.1516
  943SOL    HW2 4430   5.592   3.500   6.345  2.0366 -1.1769 -0.7591
  944SOL     OW 4431   1.603   4.637   5.464  0.2965 -0.2166 -0.2077
  944SOL    HW1 4432   1.668   4.567   5.494 -0.8887 -1.0802  0.4387
  944SOL    HW2 4433   1.540   4.657   5.539  0.9591  1.9866 -0.1874
  945SOL     OW 4434   4.298   5.672   3.412 -0.0968  0.0117  0.3522
  945SOL    HW1 4435   4.307   5.758   3.463  0.6405 -0.5726  1.2460
  945SOL    HW2 4436   4.232   5.684   3.338 -0.4774  1.1662  0.8504
  946SOL     OW 4437   0.839   5.383   3.725 -0.3796  0.6437 -0.3562
  946SOL    HW1 4438   0.859   5.378   3.627 -0.0827 -2.5717 -0.2186
  946SOL    HW2 4439   0.740   5.396   3.738 -0.3057  2.1620 -1.0100
  947SOL     OW 4440   6.820   3.820   3.440  0.2741  0.1167 -0.2650
  947SOL    HW1 4441   6.846   3.742   3.383  0.0589 -1.0041  1.1130
  947SOL    HW2 4442   6.721   3.820   3.453  0.5267 -1.2342  2.2177
  948SOL     OW 4443   5.801   0.230   0.133  0.2243  0.1441 -0.0130
  948SOL    HW1 4444   5.783   0.207   0.038 -1.7150  1.8245 -0.1252
  948SOL    HW2 4445   5.840   0.151   0.180 -0.3463 -1.2541 -1.7918
  949SOL     OW 4446   6.478   1.060   2.666  0.5200  0.4319 -0.2542
  949SOL    HW1 4447   6.433   1.145   2.639  0.7802  0.7917  0.4103
  949SOL    HW2 4448   6.576   1.075   2.673  0.8301 -0.4670 -2.1245
  950SOL     OW 4449   4.314   5.851   3.625  0.7530 -0.7657  0.4923
  950SOL    HW1 4450   4.307   5.760   3.665  0.6331 -0.3920  1.3374
  950SOL    HW2 4451   4.330   5.918   3.697  1.2335 -0.1574 -0.1618
  951SOL     OW 4452   1.370   2.942   2.043  0.1930  0.5588  0.5256
  951SOL    HW1 4453   1.327   3.032   2.043 -1.0612 -0.0125  0.9712
  951SOL    HW2 4454   1.460   2.947   1.998 -0.2563  1.8310 -0.2749
  952SOL     OW 4455   1.846   0.284   1.399  0.0997 -0.1861 -0.3752
  952SOL    HW1 4456   1.834   0.217   1.326 -0.2764  1.3792 -1.8012
  952SOL    HW2 4457   1.860   0.375   1.360 -1.1252  0.8839  1.5127
  953SOL     OW 4458   0.949   5.294   6.211  0.0446 -0.0195 -0.0218
  953SOL    HW1 4459   0.926   5.198   6.198 -2.1809  0.4351  0.2295
  953SOL    HW2 4460   0.887   5.335   6.278  3.1884  0.7831  2.6463
  954SOL     OW 4461   3.125   4.257   5.509  0.0506 -0.0625  0.0632
  954SOL    HW1 4462   3.209   4.205   5.494 -0.2789 -0.9044  1.0410
  954SOL    HW2 4463   3.094   4.296   5.422  2.6851  2.2410  0.0228
  955SOL     OW 4464   5.576   3.348   6.411  0.1213 -0.5998  0.0885
  955SOL    HW1 4465   5.669   3.314   6.423  0.4654  0.5467  0.7479
  955SOL    HW2 4466   5.518   3.274   6.377  1.3964 -1.1642 -0.9271
  956SOL     OW 4467   3.390   4.812   4.570 -0.3618  0.3703 -0.2102
  956SOL    HW1 4468   3.323   4.738   4.577  0.4022 -0.2172  1.4347
  956SOL    HW2 4469   3.405   4.852   4.660 -0.6352  2.4680 -1.0438
  957SOL     OW 4470   2.314   6.610   2.366 -0.3213  0.0990 -0.8753
  957SOL    HW1 4471   2.272   6.695   2.399 -0.2633 -0.3892  0.5425
  957SOL    HW2 4472   2.291   6.536   2.429  2.1032 -0.3263 -0.3987
  958SOL     OW 4473   6.091   1.970   1.690 -0.7260  0.0933 -0.0632
  958SOL    HW1 4474   6.104   2.042   1.622 -0.5116  0.4893  0.3866
  958SOL    HW2 4475   6.153   1.985   1.767 -1.6897  0.2525  0.7050
  959SOL     OW 4476   2.144   2.639   5.959  1.1388  0.7786 -0.2199
  959SOL    HW1 4477   2.045   2.635   5.952  1.0640 -0.8182  1.0114
  959SOL    HW2 4478   2.177   2.730   5.933 -0.9818  2.6483  2.9262
  960SOL     OW 4479   2.408   5.544   6.987 -0.0439 -0.0352 -0.2648
  960SOL    HW1 4480   2.382   5.602   7.064  0.0071 -0.6042  0.1775
  960SOL    HW2 4481   2.393   5.595   6.901  1.7855  1.3538  0.1773
  961SOL     OW 4482   0.491   2.621   5.422  0.0288 -0.1407  0.3965
  961SOL    HW1 4483   0.501   2.525   5.396 -0.0159  0.2937 -1.4096
  961SOL    HW2 4484   0.578   2.656   5.455  0.4258 -0.4451 -0.3051
  962SOL     OW 4485   6.032   6.066   0.297 -0.1008 -0.2938 -0.2440
  962SOL    HW1 4486   6.125   6.027   0.301 -0.4813 -1.2656 -0.5000
  962SOL    HW2 4487   5.992   6.065   0.388 -0.5853 -1.7548 -0.4435
  963SOL     OW 4488   2.500   4.450   5.047 -0.4365 -0.1687 -0.6965
  963SOL    HW1 4489   2.555   4.389   4.990  0.6947  1.2891 -1.2183
  963SOL    HW2 4490   2.560   4.519   5.089 -1.3432 -0.7152  1.6448
  964SOL     OW 4491   6.888   3.149   5.309  0.4201 -0.4611  0.0589
  964SOL    HW1 4492   6.863   3.054   5.324  0.6225 -0.6702 -0.8377
  964SOL    HW2 4493   6.805   3.206   5.308  0.4159 -0.3732  2.1531
  965SOL     OW 4494   0.522   5.935   4.496 -0.1365 -0.2831 -0.3767
  965SOL    HW1 4495   0.561   5.991   4.570  0.0712  1.2493 -1.5957
  965SOL    HW2 4496   0.595   5.884   4.451 -0.0553 -0.1642 -0.3824
  966SOL     OW 4497   6.182   4.979   4.028 -0.5431  0.2248  0.0884
  966SOL    HW1 4498   6.144   4.901   4.078 -3.3440  1.9649  0.8876
  966SOL    HW2 4499   6.157   4.972   3.931 -0.0082 -0.2987 -0.0163
  967SOL     OW 4500   6.321   6.163   6.489 -0.2614  0.2564  0.4075
  967SOL    HW1 4501   6.311   6.151   6.391  0.7333  1.5304  0.1297
  967SOL    HW2 4502   6.233   6.147   6.534 -0.6210 -0.7783 -0.6151
  968SOL     OW 4503   4.793   2.037   2.673 -0.2333 -0.0387  0.3971
  968SOL    HW1 4504   4.826   2.044   2.579  0.9363  0.7287  0.8350
  968SOL    HW2 4505   4.716   1.974   2.677  0.8633 -1.5442 -0.7878
  969SOL     OW 4506   4.523   6.845   3.541 -0.4143 -0.0723 -0.8066
  969SOL    HW1 4507   4.568   6.931   3.564 -1.0391  0.3670 -1.1959
  969SOL    HW2 4508   4.549   6.817   3.449 -1.3159  0.4588 -1.2439
  970SOL     OW 4509   4.313   6.514   2.263 -0.6799  0.0225 -0.1245
  970SOL    HW1 4510   4.328   6.580   2.337  1.0950 -1.8170  1.2620
  970SOL    HW2 4511   4.298   6.563   2.177  1.9147  2.2471  0.5795
  971SOL     OW 4512   0.877   1.538   0.610  0.1154  0.3407 -0.0547
  971SOL    HW1 4513   0.839   1.544   0.518  0.8780  2.2623 -0.2968
  971SOL    HW2 4514   0.817   1.483   0.667 -1.8090  1.3575 -0.9940
  972SOL     OW 4515   1.399   1.186   6.196  0.0149 -0.8382 -0.7386
  972SOL    HW1 4516   1.478   1.137   6.157  0.5168  1.4767 -2.8959
  972SOL    HW2 4517   1.328   1.193   6.127  0.6015  2.7406 -1.1285
  973SOL     OW 4518   1.347   5.811   6.585  0.4849  0.0750  0.2756
  973SOL    HW1 4519   1.347   5.713   6.607  2.6520 -0.1256 -0.3810
  973SOL    HW2 4520   1.256   5.849   6.603 -0.0176 -1.7286  1.9259
  974SOL     OW 4521   6.319   3.745   4.916 -0.3728 -0.1042 -0.5234
  974SOL    HW1 4522   6.315   3.784   4.824  0.0754  1.5038  0.0999
  974SOL    HW2 4523   6.241   3.684   4.930 -0.0240 -1.0016 -2.2114
  975SOL     OW 4524   1.269   6.601   3.014 -0.6170  0.6137 -0.3607
  975SOL    HW1 4525   1.361   6.638   3.003 -0.4248 -0.2737 -2.1361
  975SOL    HW2 4526   1.204   6.661   2.967 -0.7360  0.4539 -0.3985
  976SOL     OW 4527   2.751   3.656   0.936 -0.1431 -0.3731  0.1600
  976SOL    HW1 4528   2.740   3.559   0.912  2.1574 -0.3573 -1.3080
  976SOL    HW2 4529   2.774   3.663   1.033  0.5070 -1.4125  0.1060
  977SOL     OW 4530   3.459   2.221   2.868 -0.4304 -0.3760  0.6033
  977SOL    HW1 4531   3.365   2.230   2.834  0.4783 -0.4670 -2.2384
  977SOL    HW2 4532   3.492   2.310   2.900 -0.8212  0.1700 -0.4453
  978SOL     OW 4533   6.377   5.708   3.068 -0.1940  0.1815  0.1842
  978SOL    HW1 4534   6.448   5.666   3.124  0.3886  0.1830 -0.5402
  978SOL    HW2 4535   6.290   5.706   3.117 -0.0416 -1.2712  0.4297
  979SOL     OW 4536   2.293   3.562   5.090  0.2204  0.0011 -0.1281
  979SOL    HW1 4537   2.260   3.468   5.102 -0.6722  0.5277  1.7992
  979SOL    HW2 4538   2.387   3.559   5.055  0.1317 -1.5882 -0.3345
  980SOL     OW 4539   5.561   4.909   3.995  0.2511 -0.1089  0.1385
  980SOL    HW1 4540   5.579   4.921   4.092  0.8712 -1.4010  0.1996
  980SOL    HW2 4541   5.505   4.828   3.980 -0.6003  0.5768 -0.5294
  981SOL     OW 4542   3.925   6.514   2.877  0.2275  0.4774 -0.7230
  981SOL    HW1 4543   3.982   6.595   2.864 -0.4106  0.8445 -1.3114
  981SOL    HW2 4544   3.835   6.541   2.911  0.7249 -0.1833  1.2771
  982SOL     OW 4545   1.490   4.937   4.191  0.4970 -0.2563 -0.0156
  982SOL    HW1 4546   1.451   5.029   4.198  1.5966  0.3407 -1.2004
  982SOL    HW2 4547   1.422   4.870   4.219 -0.2525  0.9237  1.1023
  983SOL     OW 4548   5.307   6.926   1.918 -0.3139 -0.3842 -0.1026
  983SOL    HW1 4549   5.232   6.949   1.980  0.2379  0.6471  0.1940
  983SOL    HW2 4550   5.314   6.995   1.846  0.3601 -0.4575 -0.1162
  984SOL     OW 4551   2.075   5.239   3.348 -0.1040 -0.9404  0.6880
  984SOL    HW1 4552   2.077   5.142   3.326  1.5240 -0.4751 -1.5683
  984SOL    HW2 4553   2.160   5.265   3.393 -0.2735 -0.4444  0.7346
  985SOL     OW 4554   1.407   3.167   3.080  0.1618  0.2309  0.2278
  985SOL    HW1 4555   1.478   3.162   3.149 -0.9920  1.0503  1.5299
  985SOL    HW2 4556   1.429   3.239   3.014  1.8591 -1.3444 -1.0317
  986SOL     OW 4557   1.619   4.171   0.493 -0.0985 -0.7808  0.3865
  986SOL    HW1 4558   1.574   4.260   0.498  0.8389 -0.2995  0.5581
  986SOL    HW2 4559   1.581   4.118   0.418 -2.0135 -1.0152  1.4490
  987SOL     OW 4560   4.230   4.222   0.989 -0.4038 -0.2282 -0.4751
  987SOL    HW1 4561   4.239   4.141   1.047  0.0924 -0.0704 -0.3209
  987SOL    HW2 4562   4.316   4.236   0.940  0.0538  1.0581  0.6275
  988SOL     OW 4563   0.802   6.249   0.593  0.2047  0.4900 -0.0133
  988SOL    HW1 4564   0.881   6.311   0.596  0.8614 -0.1950 -1.7775
  988SOL    HW2 4565   0.726   6.295   0.547  0.4508  0.2363 -0.6732
  989SOL     OW 4566   5.545   2.830   4.707 -0.2145 -0.2175 -0.0148
  989SOL    HW1 4567   5.478   2.769   4.665 -1.2924 -0.3080  1.7362
  989SOL    HW2 4568   5.513   2.857   4.798  1.3170  1.1519  0.1610
  990SOL     OW 4569   6.123   6.389   1.450 -0.2625  0.1372  0.1048
  990SOL    HW1 4570   6.215   6.350   1.446 -0.8378 -1.4936  1.6577
  990SOL    HW2 4571   6.120   6.459   1.520 -0.2269  0.1470  0.0971
  991SOL     OW 4572   0.952   0.973   4.063  0.2246 -0.0996  0.0083
  991SOL    HW1 4573   0.945   0.929   4.152  0.2981 -0.2420 -0.0557
  991SOL    HW2 4574   0.973   0.904   3.994  2.3998  0.3154  0.2008
  992SOL     OW 4575   6.985   4.761   5.234 -0.3752  0.0887  0.2240
  992SOL    HW1 4576   6.952   4.696   5.166 -3.9080  2.5294 -0.6504
  992SOL    HW2 4577   7.011   4.846   5.188  1.5656  0.2817  1.5811
  993SOL     OW 4578   5.903   6.961   1.498 -0.5116 -0.0746 -0.1226
  993SOL    HW1 4579   5.851   6.883   1.463  2.2187 -1.3355 -1.6927
  993SOL    HW2 4580   5.970   6.928   1.565 -0.1838  1.1354  0.1689
  994SOL     OW 4581   3.044   1.465   6.344 -0.4038 -0.1073 -0.3096
  994SOL    HW1 4582   3.006   1.462   6.436 -1.5988 -1.2391 -0.7989
  994SOL    HW2 4583   3.034   1.558   6.307  0.9226  0.5843  0.9998
  995SOL     OW 4584   0.055   2.112   6.530 -0.3874 -0.3439  0.0034
  995SOL    HW1 4585   0.081   2.171   6.453 -0.1506 -1.8660 -1.1280
  995SOL    HW2 4586  -0.044   2.118   6.545 -0.3067  0.6604  0.2042
  996SOL     OW 4587   2.817   1.459   4.947 -0.0981 -0.1838 -0.2154
  996SOL    HW1 4588   2.764   1.483   4.865 -0.9981  0.1584  0.4531
  996SOL    HW2 4589   2.842   1.543   4.996 -0.0494 -0.4162  0.1585
  997SOL     OW 4590   1.069   3.257   3.937 -0.0209 -0.1691 -0.3674
  997SOL    HW1 4591   1.073   3.171   3.887  0.0645 -1.5804  1.9142
  997SOL    HW2 4592   0.979   3.300   3.923  0.3102 -0.0513 -2.3571
  998SOL     OW 4593   2.011   1.952   6.274  0.3307 -0.3162  0.2657
  998SOL    HW1 4594   2.040   1.899   6.354 -1.0734 -1.2214  0.2042
  998SOL    HW2 4595   1.911   1.963   6.276  0.3637  0.3773 -0.9322
  999SOL     OW 4596   3.792   2.347   2.789 -0.0607  0.1584 -0.5213
  999SOL    HW1 4597   3.774   2.251   2.808  0.2016 -0.2520 -2.1941
  999SOL    HW2 4598   3.824   2.392   2.872 -0.5506 -1.0969  0.3766
 1000SOL     OW 4599   4.327   0.980   5.716 -0.3790  0.5245 -0.3137
 1000SOL    HW1 4600   4.404   0.948   5.662 -0.7669 -1.3099  0.1655
 1000SOL    HW2 4601   4.269   0.903   5.741 -0.3456  1.3254  2.5304
 1001SOL     OW 4602   0.294   4.338   1.673 -0.0079  0.4161  0.3596
 1001SOL    HW1 4603   0.264   4.432   1.692 -2.2576 -0.2122  0.1659
 1001SOL    HW2 4604   0.270   4.315   1.578  0.0170 -0.5355  0.5794
 1002SOL     OW 4605   3.912   5.390   5.806  0.8301  0.0778  0.0132
 1002SOL    HW1 4606   3.886   5.414   5.713 -1.7438  0.1798  0.6965
 1002SOL    HW2 4607   3.830   5.376   5.862  2.2830  0.1753  2.3252
 1003SOL     OW 4608   6.431   3.155   0.970 -0.0726  0.2230 -0.2214
 1003SOL    HW1 4609   6.393   3.234   0.923  1.0299  0.4477 -0.7671
 1003SOL    HW2 4610   6.357   3.094   0.999 -0.7970 -0.2536 -2.8060
 1004SOL     OW 4611   4.725   0.647   0.852  0.6411  0.1453 -0.1729
 1004SOL    HW1 4612   4.678   0.573   0.900 -0.2488  0.0149 -1.2215
 1004SOL    HW2 4613   4.776   0.702   0.918 -1.3982  0.6095  1.0925
 1005SOL     OW 4614   0.098   0.888   2.757 -0.0473  0.1380 -0.2808
 1005SOL    HW1 4615   0.038   0.824   2.709 -0.1340 -1.2106  1.5316
 1005SOL    HW2 4616   0.186   0.893   2.710 -0.4104 -0.5013 -1.0467
 1006SOL     OW 4617   6.992   4.940   0.421  0.3721 -0.0966 -0.7544
 1006SOL    HW1 4618   7.023   4.873   0.488 -1.0928  0.9654  1.0763
 1006SOL    HW2 4619   7.023   4.912   0.329  1.2053 -2.3500  0.1386
 1007SOL     OW 4620   6.909   3.523   3.928 -0.2063  0.6358  1.1087
 1007SOL    HW1 4621   6.994   3.470   3.932 -0.9770 -0.6411  0.7805
 1007SOL    HW2 4622   6.927   3.610   3.881  0.3762 -0.6797 -1.2430
 1008SOL     OW 4623   0.653   3.241   4.816 -0.0466 -0.1148  0.2237
 1008SOL    HW1 4624   0.576   3.284   4.863 -1.0398 -1.5010 -0.0468
 1008SOL    HW2 4625   0.695   3.306   4.753 -2.2227  0.1413 -1.0499
 1009SOL     OW 4626   3.430   4.716   2.366  0.2783  0.0169  0.1568
 1009SOL    HW1 4627   3.511   4.693   2.311  0.6487 -2.5075  1.6301
 1009SOL    HW2 4628   3.348   4.709   2.309  0.7559 -1.4286 -0.3952
 1010SOL     OW 4629   6.536   0.759   0.408  0.2035  0.5032  0.3072
 1010SOL    HW1 4630   6.492   0.674   0.378 -1.1474  0.9616  0.8848
 1010SOL    HW2 4631   6.535   0.763   0.508  0.2645  1.1888  0.2852
 1011SOL     OW 4632   3.505   0.994   1.842  0.4281 -0.0718 -0.4415
 1011SOL    HW1 4633   3.483   0.939   1.762  0.3804 -1.5227  0.5186
 1011SOL    HW2 4634   3.596   1.034   1.831  1.1610 -1.6608 -0.5439
 1012SOL     OW 4635   1.449   1.812   2.384 -0.3992  0.2464  0.5411
 1012SOL    HW1 4636   1.531   1.869   2.387  0.6332 -1.1538 -0.1112
 1012SOL    HW2 4637   1.392   1.832   2.463  0.3827  1.5085  0.8183
 1013SOL     OW 4638   0.350   4.891   4.127 -0.0163  0.0832  0.5398
 1013SOL    HW1 4639   0.440   4.848   4.137  0.8084  1.8548  1.2522
 1013SOL    HW2 4640   0.325   4.894   4.031  0.6435 -0.5029  0.3390
 1014SOL     OW 4641   6.622   2.972   3.735  0.1981 -0.0089  0.3886
 1014SOL    HW1 4642   6.605   3.046   3.800  2.5233 -1.0999  2.3906
 1014SOL    HW2 4643   6.719   2.949   3.735 -0.0693 -1.4910 -1.9586
 1015SOL     OW 4644   6.233   4.490   0.907  0.3585 -0.1858  0.3092
 1015SOL    HW1 4645   6.309   4.529   0.854  0.0769  2.2316  1.5492
 1015SOL    HW2 4646   6.159   4.557   0.914 -1.3496 -1.9662  0.3428
 1016SOL     OW 4647   2.317   5.409   2.036  0.0882  0.2336 -0.2370
 1016SOL    HW1 4648   2.360   5.321   2.056  0.7855  1.1115  2.4948
 1016SOL    HW2 4649   2.271   5.443   2.118 -1.3002  1.8377 -1.6028
 1017SOL     OW 4650   2.854   0.975   3.716  0.3724 -0.3842  0.2639
 1017SOL    HW1 4651   2.856   1.073   3.734 -0.0275 -0.1690 -0.7833
 1017SOL    HW2 4652   2.921   0.929   3.774 -0.3850  0.3337  1.7442
 1018SOL     OW 4653   2.431   5.386   2.361 -0.0812 -0.5692 -0.0189
 1018SOL    HW1 4654   2.502   5.448   2.394 -0.0433 -0.6703  0.0885
 1018SOL    HW2 4655   2.349   5.439   2.338 -0.4040 -0.5908  1.0385
 1019SOL     OW 4656   2.242   1.740   5.950 -0.6158 -0.3346 -0.3055
 1019SOL    HW1 4657   2.151   1.773   5.977 -0.2017  0.5441  0.0531
 1019SOL    HW2 4658   2.274   1.672   6.016 -0.1054  0.9462  0.8047
 1020SOL     OW 4659   3.354   2.856   4.746  0.3029 -0.1884 -0.1571
 1020SOL    HW1 4660   3.376   2.942   4.792 -0.9529  0.4106 -0.6016
 1020SOL    HW2 4661   3.273   2.815   4.788  0.1588 -0.5118 -0.7252
 1021SOL     OW 4662   5.300   2.031   3.392  0.2104  0.3302 -0.3293
 1021SOL    HW1 4663   5.229   2.014   3.324  0.0570  0.7512 -0.2746
 1021SOL    HW2 4664   5.257   2.045   3.482  0.2622  1.8012 -0.5064
 1022SOL     OW 4665   0.308   6.061   5.979 -0.0679 -0.0472  0.0582
 1022SOL    HW1 4666   0.314   5.967   6.010 -0.6267 -0.2047 -0.2852
 1022SOL    HW2 4667   0.212   6.084   5.962  0.0448  0.6440  0.3278
 1023SOL     OW 4668   3.501   6.489   0.658  0.8430  0.4092  0.2021
 1023SOL    HW1 4669   3.465   6.396   0.661  0.3719  0.5372 -0.9858
 1023SOL    HW2 4670   3.428   6.554   0.675  1.1537  0.5862  0.9287
 1024SOL     OW 4671   4.758   1.735   1.954  0.5347  0.0203 -0.1704
 1024SOL    HW1 4672   4.737   1.808   1.889 -1.3397 -0.8255 -0.5663
 1024SOL    HW2 4673   4.676   1.710   2.004  1.6361 -0.3518  1.5282
 1025SOL     OW 4674   0.801   6.316   1.162 -0.2777 -0.7023  0.7000
 1025SOL    HW1 4675   0.812   6.219   1.137 -1.7346 -0.2460 -2.0736
 1025SOL    HW2 4676   0.841   6.373   1.091  0.1661  0.7989  2.0965
 1026SOL     OW 4677   0.170   3.307   5.352  0.1632  0.6442 -0.2405
 1026SOL    HW1 4678   0.071   3.326   5.350  0.2097  0.9130 -0.0535
 1026SOL    HW2 4679   0.214   3.366   5.420 -0.1942 -2.5177  3.0680
 1027SOL     OW 4680   3.144   0.711   3.635 -0.0793  0.3921 -0.6819
 1027SOL    HW1 4681   3.210   0.650   3.590 -1.4889 -0.9787 -0.9663
 1027SOL    HW2 4682   3.139   0.798   3.584 -0.3377 -0.4565 -2.1779
 1028SOL     OW 4683   0.943   5.920   3.210 -0.2900 -0.4460  0.7338
 1028SOL    HW1 4684   1.024   5.889   3.158 -1.3220 -0.3257 -1.0244
 1028SOL    HW2 4685   0.954   5.894   3.306  1.3031 -1.5020  0.3181
 1029SOL     OW 4686   4.513   6.392   5.928  0.3106 -0.4230  0.4971
 1029SOL    HW1 4687   4.425   6.420   5.889  1.2218  0.4779 -1.0430
 1029SOL    HW2 4688   4.580   6.384   5.854  2.0867  1.1378  1.8656
 1030SOL     OW 4689   6.760   0.834   0.751 -0.2674 -0.2582  0.0299
 1030SOL    HW1 4690   6.696   0.897   0.705 -0.5568 -0.5771 -0.0046
 1030SOL    HW2 4691   6.851   0.877   0.755 -0.6377  0.4759  0.6863
 1031SOL     OW 4692   6.143   1.475   3.124 -0.4613  0.1737 -0.3819
 1031SOL    HW1 4693   6.190   1.528   3.195  0.3937  2.4631 -2.4926
 1031SOL    HW2 4694   6.049   1.458   3.151  0.4210 -1.0262  2.2226
 1032SOL     OW 4695   5.913   2.366   1.046 -0.1269  0.2183 -0.1378
 1032SOL    HW1 4696   5.939   2.273   1.021  1.5346  0.9933 -1.4755
 1032SOL    HW2 4697   5.947   2.387   1.137  0.1233 -0.2259 -0.1276
 1033SOL     OW 4698   0.828   0.956   0.806 -0.5292 -0.5020 -0.2790
 1033SOL    HW1 4699   0.761   1.031   0.805 -0.3555 -0.3420  0.1690
 1033SOL    HW2 4700   0.866   0.946   0.714 -0.4148  0.0880 -0.3028
 1034SOL     OW 4701   6.544   2.791   6.680 -0.3005  0.3111  0.2966
 1034SOL    HW1 4702   6.610   2.786   6.605  0.0462  0.3495  0.5934
 1034SOL    HW2 4703   6.558   2.714   6.742 -1.7875 -0.7465 -0.6363
 1035SOL     OW 4704   3.869   4.502   1.671 -0.2590  0.0177  0.0176
 1035SOL    HW1 4705   3.946   4.499   1.735 -1.4342 -3.0364  1.4704
 1035SOL    HW2 4706   3.872   4.421   1.612 -1.4115  0.7672 -1.1209
 1036SOL     OW 4707   4.307   4.698   1.811 -0.3278  0.0792  0.1947
 1036SOL    HW1 4708   4.261   4.781   1.779 -2.1638 -1.0225 -0.2130
 1036SOL    HW2 4709   4.238   4.626   1.826  1.0411 -0.9593  1.8672
 1037SOL     OW 4710   4.703   4.319   0.919  0.2047  0.3057 -0.3625
 1037SOL    HW1 4711   4.612   4.293   0.888  0.7521 -0.3384 -1.4815
 1037SOL    HW2 4712   4.768   4.247   0.894  1.0592  0.8554  0.2386
 1038SOL     OW 4713   3.428   1.641   4.908 -0.8614 -0.3258  0.2801
 1038SOL    HW1 4714   3.338   1.677   4.882 -1.1631 -0.7992  0.6673
 1038SOL    HW2 4715   3.418   1.548   4.942 -0.1475 -0.5900 -0.2191
 1039SOL     OW 4716   4.125   2.516   1.577 -0.2667  0.4737 -0.0255
 1039SOL    HW1 4717   4.107   2.418   1.573  1.5458 -0.0304  2.0849
 1039SOL    HW2 4718   4.186   2.543   1.503  0.5760 -0.3665  0.3432
 1040SOL     OW 4719   1.931   6.060   2.297  0.3745 -0.5825  0.1454
 1040SOL    HW1 4720   2.004   6.039   2.362 -0.5318  0.7596  1.6811
 1040SOL    HW2 4721   1.845   6.069   2.346 -0.5599 -0.6729 -1.4257
 1041SOL     OW 4722   3.906   1.071   6.540 -0.5639 -0.0995 -0.3658
 1041SOL    HW1 4723   3.968   1.107   6.471  1.0197  1.0962  1.5721
 1041SOL    HW2 4724   3.812   1.100   6.520  0.0436  1.3064 -1.3020
 1042SOL     OW 4725   1.213   0.940   4.391 -0.4168 -0.1696 -0.4622
 1042SOL    HW1 4726   1.188   0.855   4.438 -0.4898  0.6068  0.9427
 1042SOL    HW2 4727   1.298   0.926   4.341  1.4401 -0.1852  2.4873
 1043SOL     OW 4728   1.906   5.048   5.398  0.7910 -0.1747  0.4940
 1043SOL    HW1 4729   1.954   5.016   5.316 -0.3203 -1.1135  0.1785
 1043SOL    HW2 4730   1.908   4.976   5.467  0.8919  0.2481  0.9294
 1044SOL     OW 4731   2.726   4.460   6.238  0.5808 -0.6038 -0.0357
 1044SOL    HW1 4732   2.737   4.366   6.271  0.6197 -0.6247 -0.1094
 1044SOL    HW2 4733   2.772   4.470   6.150  0.8234 -0.4386  0.1103
 1045SOL     OW 4734   4.205   6.841   5.380 -0.0040  0.4562  0.2764
 1045SOL    HW1 4735   4.167   6.906   5.314  0.7489  2.0273  1.3268
 1045SOL    HW2 4736   4.271   6.781   5.334 -0.2919  0.8103 -0.6075
 1046SOL     OW 4737   5.246   1.244   5.734  0.2360  0.0968  0.0030
 1046SOL    HW1 4738   5.314   1.171   5.729  0.5177  0.2363  1.4961
 1046SOL    HW2 4739   5.254   1.292   5.821 -0.5778  1.3046 -0.5549
 1047SOL     OW 4740   1.525   2.633   4.985 -0.1177 -0.2878 -0.4102
 1047SOL    HW1 4741   1.600   2.699   4.991  0.0231 -0.3942 -0.9218
 1047SOL    HW2 4742   1.542   2.557   5.047  0.3074 -0.4126 -0.6733
 1048SOL     OW 4743   0.914   3.817   3.206 -0.6594 -0.2045  0.1823
 1048SOL    HW1 4744   0.891   3.893   3.145  0.3795  1.0239  1.2716
 1048SOL    HW2 4745   0.951   3.741   3.153 -0.8412  0.4018 -0.8320
 1049SOL     OW 4746   6.132   2.091   1.223 -0.1974 -0.2344  0.3738
 1049SOL    HW1 4747   6.106   2.039   1.304  1.0673 -1.1143  0.2362
 1049SOL    HW2 4748   6.223   2.063   1.192  0.3971  1.8040  0.0771
 1050SOL     OW 4749   3.357   1.995   6.901 -1.1523 -0.2630  0.0695
 1050SOL    HW1 4750   3.430   1.932   6.930 -2.2045 -1.7747 -0.4286
 1050SOL    HW2 4751   3.290   2.004   6.974 -0.8484  0.5698  0.2587
 1051SOL     OW 4752   3.976   1.104   3.384 -0.4276 -0.1041  0.1784
 1051SOL    HW1 4753   3.908   1.084   3.454 -0.7825 -1.7528 -0.5837
 1051SOL    HW2 4754   3.974   1.202   3.363 -1.1583  0.2105  1.5780
 1052SOL     OW 4755   1.485   1.124   0.118 -0.1765  0.1371 -0.0488
 1052SOL    HW1 4756   1.553   1.175   0.065  0.0696 -1.0330 -0.9079
 1052SOL    HW2 4757   1.525   1.096   0.205 -0.2458  1.2183  0.3326
 1053SOL     OW 4758   0.110   5.189   3.694 -0.2270 -0.3441  0.1868
 1053SOL    HW1 4759   0.194   5.236   3.721 -0.3265  0.5498 -0.9617
 1053SOL    HW2 4760   0.098   5.198   3.595 -1.1130 -1.4032  0.1857
 1054SOL     OW 4761   1.237   5.264   0.650  0.4283  0.2222 -0.1856
 1054SOL    HW1 4762   1.280   5.314   0.725  2.0074  0.8671 -1.4524
 1054SOL    HW2 4763   1.284   5.285   0.565 -0.6634 -1.2794 -1.2183
 1055SOL     OW 4764   1.982   1.037   4.761 -0.5027  0.4051 -0.4413
 1055SOL    HW1 4765   1.987   1.002   4.667 -1.4136  2.6674 -1.4078
 1055SOL    HW2 4766   2.070   1.076   4.786 -0.2334 -0.2742 -0.3162
 1056SOL     OW 4767   5.539   2.807   4.065  0.1833  0.0093  0.6103
 1056SOL    HW1 4768   5.618   2.854   4.024 -0.2491 -0.1584 -0.4341
 1056SOL    HW2 4769   5.458   2.864   4.055 -0.3563 -0.9369 -0.6981
 1057SOL     OW 4770   5.716   6.892   6.151  0.0736 -0.2578 -0.2798
 1057SOL    HW1 4771   5.797   6.862   6.101 -0.3395 -2.9751  0.5235
 1057SOL    HW2 4772   5.740   6.968   6.211  1.3335  0.8317 -2.0817
 1058SOL     OW 4773   2.248   5.190   5.736 -0.0730 -0.3866 -0.1705
 1058SOL    HW1 4774   2.174   5.126   5.714  0.0159 -0.4592 -0.2591
 1058SOL    HW2 4775   2.323   5.177   5.671  0.6783 -1.3796  0.8687
 1059SOL     OW 4776   5.173   0.912   1.593  0.2355 -0.0488 -0.7438
 1059SOL    HW1 4777   5.215   0.932   1.504 -0.6974  1.0013 -0.9755
 1059SOL    HW2 4778   5.238   0.935   1.666  0.6144  0.1152 -1.1271
 1060SOL     OW 4779   6.519   5.455   1.270 -0.0901  0.0976 -0.0832
 1060SOL    HW1 4780   6.568   5.406   1.342  1.0633  1.9669  0.5021
 1060SOL    HW2 4781   6.535   5.553   1.281 -1.5912  0.5658 -1.6865
 1061SOL     OW 4782   5.265   0.891   3.762 -0.5595 -0.2527 -0.5529
 1061SOL    HW1 4783   5.198   0.845   3.821 -0.2478 -0.6379 -0.4939
 1061SOL    HW2 4784   5.218   0.957   3.703 -0.6451  1.8072  1.6707
 1062SOL     OW 4785   4.110   0.376   4.681 -0.2157  0.2158 -0.2213
 1062SOL    HW1 4786   4.183   0.408   4.740  0.1163 -1.3689  0.2720
 1062SOL    HW2 4787   4.141   0.376   4.586  0.4821 -0.5559 -0.0026
 1063SOL     OW 4788   4.444   2.663   5.007  0.1444 -0.3716  0.3385
 1063SOL    HW1 4789   4.540   2.679   4.988  0.1013  0.3107  0.6552
 1063SOL    HW2 4790   4.388   2.706   4.936  0.0580 -0.2672  0.4696
 1064SOL     OW 4791   6.224   2.462   2.056  0.0119 -0.2829 -0.1288
 1064SOL    HW1 4792   6.151   2.529   2.070  0.5432  1.0831 -2.9538
 1064SOL    HW2 4793   6.313   2.509   2.056  0.3529 -0.7487 -2.8361
 1065SOL     OW 4794   6.666   1.136   1.305 -0.2263  0.2842 -0.2399
 1065SOL    HW1 4795   6.704   1.220   1.343 -0.5907  0.1628  0.3979
 1065SOL    HW2 4796   6.576   1.154   1.266 -0.6391  0.0311  0.5919
 1066SOL     OW 4797   2.467   3.972   5.036  0.3879  0.4689  0.1098
 1066SOL    HW1 4798   2.416   4.038   4.980 -0.6234 -1.1353 -0.9492
 1066SOL    HW2 4799   2.409   3.941   5.111  0.3220 -0.2427 -0.2248
 1067SOL     OW 4800   0.058   4.791   4.732 -0.1817 -0.1306 -0.1558
 1067SOL    HW1 4801   0.152   4.816   4.708 -0.2674  0.7195  0.3518
 1067SOL    HW2 4802   0.007   4.772   4.648  0.2869 -0.0301 -0.4695
 1068SOL     OW 4803   0.753   2.257   1.100 -0.2136  0.0951 -0.2015
 1068SOL    HW1 4804   0.818   2.183   1.081 -0.0276 -0.2293  1.5553
 1068SOL    HW2 4805   0.675   2.221   1.150  0.1032  1.1492  1.0986
 1069SOL     OW 4806   2.511   1.275   1.417  0.2279 -0.5989  0.8378
 1069SOL    HW1 4807   2.454   1.195   1.437 -0.2553 -0.8981 -1.4725
 1069SOL    HW2 4808   2.573   1.254   1.341  2.5889  0.1344  2.4574
 1070SOL     OW 4809   6.107   6.983   2.875 -0.2581  0.2651  0.5900
 1070SOL    HW1 4810   6.167   6.910   2.844 -1.2488 -0.8479  1.1721
 1070SOL    HW2 4811   6.024   6.943   2.915 -0.8505  1.7161  0.8938
 1071SOL     OW 4812   4.647   4.960   2.041  0.5151 -0.2435 -0.1928
 1071SOL    HW1 4813   4.587   5.008   1.977 -1.2510 -1.3722  0.5392
 1071SOL    HW2 4814   4.597   4.883   2.082  2.9157 -2.1797 -0.6646
 1072SOL     OW 4815   2.073   5.224   2.229 -0.0335 -0.2002 -0.4067
 1072SOL    HW1 4816   2.126   5.302   2.263 -1.6043  0.8481 -0.2582
 1072SOL    HW2 4817   2.085   5.216   2.130  1.2940 -0.6962 -0.2195
 1073SOL     OW 4818   2.675   3.662   3.549  0.6477  0.0740  0.2777
 1073SOL    HW1 4819   2.604   3.615   3.602  1.3058 -1.4514 -0.1521
 1073SOL    HW2 4820   2.632   3.713   3.474 -0.0058 -0.7628  0.0704
 1074SOL     OW 4821   5.185   2.601   0.011  0.6427  0.2197 -0.2069
 1074SOL    HW1 4822   5.122   2.652   0.069 -1.2104 -1.5696 -0.5621
 1074SOL    HW2 4823   5.275   2.645   0.015 -0.2451  2.0898  1.3411
 1075SOL     OW 4824   0.409   5.371   4.341 -0.4800 -0.6490  0.2427
 1075SOL    HW1 4825   0.409   5.298   4.274  1.2682 -1.3886  0.9930
 1075SOL    HW2 4826   0.488   5.431   4.326 -1.5880  0.8190 -0.0316
 1076SOL     OW 4827   3.200   3.900   3.790 -0.2410 -0.6773 -0.0824
 1076SOL    HW1 4828   3.197   3.875   3.887  0.7352 -1.5591 -0.2579
 1076SOL    HW2 4829   3.272   3.847   3.745  1.1799  1.6918 -0.7226
 1077SOL     OW 4830   4.172   6.312   3.555 -0.2356 -0.4168  0.7009
 1077SOL    HW1 4831   4.170   6.391   3.617 -1.8525 -0.0524  0.2410
 1077SOL    HW2 4832   4.266   6.277   3.549  0.5453  1.5165  0.8487
 1078SOL     OW 4833   6.518   5.777   0.029  0.1643 -0.3240  0.1392
 1078SOL    HW1 4834   6.560   5.690   0.057 -0.8117 -0.9753 -0.3499
 1078SOL    HW2 4835   6.484   5.769  -0.064 -1.3537  0.0495  0.6359
 1079SOL     OW 4836   4.236   5.042   2.170  0.1796  0.3921  0.6995
 1079SOL    HW1 4837   4.230   4.942   2.175  1.6422  0.0168 -2.5136
 1079SOL    HW2 4838   4.329   5.071   2.194 -0.6419  1.2326  3.1709
 1080SOL     OW 4839   2.614   5.568   4.662  0.0405  0.4574 -1.0649
 1080SOL    HW1 4840   2.562   5.495   4.617  0.1932  0.0190 -0.5414
 1080SOL    HW2 4841   2.617   5.551   4.760  1.8511  0.0246 -1.1569
 1081SOL     OW 4842   6.091   6.806   4.173 -0.3640  0.2746  0.3345
 1081SOL    HW1 4843   6.083   6.715   4.213  0.6982 -0.3200 -0.7299
 1081SOL    HW2 4844   6.178   6.847   4.202  0.3984 -0.1401 -1.2218
 1082SOL     OW 4845   5.641   1.616   3.745 -0.1730 -0.0704  0.0664
 1082SOL    HW1 4846   5.562   1.675   3.724 -2.0829 -1.9877  1.3521
 1082SOL    HW2 4847   5.686   1.651   3.827  0.3385  1.0229 -0.6530
 1083SOL     OW 4848   1.338   1.615   2.726  0.7864  0.0126  0.3421
 1083SOL    HW1 4849   1.275   1.685   2.760  0.3188  1.0567 -2.3928
 1083SOL    HW2 4850   1.288   1.529   2.714  0.9516 -0.3672  2.0803
 1084SOL     OW 4851   4.882   3.575   3.640 -0.5979  0.2023 -0.2479
 1084SOL    HW1 4852   4.881   3.568   3.540 -0.9772  1.6697 -0.3779
 1084SOL    HW2 4853   4.845   3.664   3.667 -1.4234 -0.5615  1.2537
 1085SOL     OW 4854   0.935   2.395   2.403  0.0830 -0.0343 -0.2483
 1085SOL    HW1 4855   0.932   2.449   2.319  1.1985 -1.0066 -0.9460
 1085SOL    HW2 4856   1.028   2.361   2.417 -0.0216  0.3546  1.5535
 1086SOL     OW 4857   2.498   4.934   1.298 -0.5394 -0.4373 -0.1843
 1086SOL    HW1 4858   2.437   5.013   1.291 -0.3424 -0.2587  0.0617
 1086SOL    HW2 4859   2.461   4.858   1.244 -1.8142 -0.8537  1.1912
 1087SOL     OW 4860   1.083   0.904   2.760  0.0924  0.1250 -0.3087
 1087SOL    HW1 4861   1.140   0.985   2.775  0.4210  0.1980 -1.8470
 1087SOL    HW2 4862   1.134   0.836   2.709 -0.0551 -1.2515  1.2868
 1088SOL     OW 4863   0.443   2.597   6.978 -0.1336 -0.2596 -0.0307
 1088SOL    HW1 4864   0.529   2.546   6.972  1.1518  1.5911  1.2597
 1088SOL    HW2 4865   0.381   2.551   7.042  1.4918  0.3119  2.1088
 1089SOL     OW 4866   6.153   1.768   3.999 -0.3303 -0.0789  0.1496
 1089SOL    HW1 4867   6.184   1.863   4.000 -0.3689  0.0169 -1.9426
 1089SOL    HW2 4868   6.120   1.743   4.090 -1.4667  2.3060  0.4933
 1090SOL     OW 4869   2.131   2.165   3.130 -0.6936 -0.5178  0.1030
 1090SOL    HW1 4870   2.076   2.103   3.074  0.5540 -1.0941 -0.5058
 1090SOL    HW2 4871   2.070   2.225   3.182 -2.1216 -4.1878  3.1174
 1091SOL     OW 4872   0.768   5.324   2.312 -0.5550  0.0904 -0.4582
 1091SOL    HW1 4873   0.682   5.321   2.364 -0.8123 -0.7804 -0.9107
 1091SOL    HW2 4874   0.819   5.406   2.336 -1.7024  0.8211 -0.4742
 1092SOL     OW 4875   4.189   3.671   1.795 -0.1782  0.4380  0.3719
 1092SOL    HW1 4876   4.208   3.698   1.701 -0.2043 -0.8320 -0.0191
 1092SOL    HW2 4877   4.193   3.572   1.803 -0.8179  0.4808  1.5719
 1093SOL     OW 4878   3.157   0.246   3.836  0.2578  0.3201 -0.0668
 1093SOL    HW1 4879   3.256   0.261   3.839 -0.0614  2.5920  1.2967
 1093SOL    HW2 4880   3.122   0.234   3.928 -0.8433  0.2391 -0.4802
 1094SOL     OW 4881   0.097   0.260   5.391 -0.3208  0.3736  0.0989
 1094SOL    HW1 4882   0.026   0.208   5.438 -0.2882  0.6076  0.4127
 1094SOL    HW2 4883   0.057   0.310   5.314 -0.4613  0.3576  0.1620
 1095SOL     OW 4884   4.680   1.730   0.967  1.2603 -0.5873  0.1441
 1095SOL    HW1 4885   4.757   1.763   0.912 -0.3280  0.7180 -1.4602
 1095SOL    HW2 4886   4.667   1.633   0.951  2.1265 -0.6676 -0.1349
 1096SOL     OW 4887   0.723   2.853   4.609  0.2009  0.1711  0.6176
 1096SOL    HW1 4888   0.801   2.895   4.656  0.6142 -0.2288  0.3004
 1096SOL    HW2 4889   0.638   2.897   4.639  0.7182  2.3109 -0.8042
 1097SOL     OW 4890   3.017   4.981   1.803  0.4694 -0.0959  0.3704
 1097SOL    HW1 4891   3.013   4.958   1.705  0.0050 -0.3657  0.4496
 1097SOL    HW2 4892   2.934   5.030   1.829  0.2406 -0.6975  0.7984
 1098SOL     OW 4893   3.968   4.628   2.518 -0.1798  0.1701  0.4948
 1098SOL    HW1 4894   4.036   4.674   2.576  1.0254 -1.1918  0.2279
 1098SOL    HW2 4895   4.004   4.540   2.489 -1.2064  0.3469 -1.4727
 1099SOL     OW 4896   1.614   0.433   2.691 -0.1526  0.6603 -0.6267
 1099SOL    HW1 4897   1.563   0.393   2.767 -0.8640  0.5904 -1.1327
 1099SOL    HW2 4898   1.557   0.434   2.609  0.9544 -0.2394 -1.4431
 1100SOL     OW 4899   3.373   5.934   5.867 -0.6068 -0.2700 -0.3843
 1100SOL    HW1 4900   3.331   6.020   5.899 -0.9150 -0.9624  1.1956
 1100SOL    HW2 4901   3.471   5.948   5.854  0.0596 -0.4596  3.3263
 1101SOL     OW 4902   1.568   0.077   6.289  0.3254  0.3829 -0.4556
 1101SOL    HW1 4903   1.475   0.065   6.322  0.3535  1.5209  0.0896
 1101SOL    HW2 4904   1.625   0.002   6.323 -0.2628  0.0072 -0.2825
 1102SOL     OW 4905   2.206   4.859   5.044 -0.3447 -0.3609  0.4054
 1102SOL    HW1 4906   2.128   4.902   5.090  0.9936  1.2140  1.2704
 1102SOL    HW2 4907   2.219   4.767   5.079 -1.4382 -0.4218  0.6812
 1103SOL     OW 4908   4.453   1.996   5.880 -0.2538  0.7756  0.0565
 1103SOL    HW1 4909   4.515   2.063   5.920 -0.6769  1.7377 -0.8770
 1103SOL    HW2 4910   4.476   1.983   5.784 -0.7942  0.2938 -0.0107
 1104SOL     OW 4911   2.886   2.558   6.477  0.1094 -0.2902 -0.2319
 1104SOL    HW1 4912   2.857   2.512   6.561  1.3553 -0.3183  0.2031
 1104SOL    HW2 4913   2.849   2.509   6.398  0.4740 -1.3822  0.2570
 1105SOL     OW 4914   5.483   5.634   0.073 -0.3840 -0.3037 -0.0588
 1105SOL    HW1 4915   5.410   5.612   0.137  0.1056 -0.7876  0.3447
 1105SOL    HW2 4916   5.448   5.630  -0.021 -0.6094 -1.6625  0.0649
 1106SOL     OW 4917   3.421   1.677   2.530  0.3830  0.2324  0.2693
 1106SOL    HW1 4918   3.364   1.759   2.525  0.3904  0.1981 -0.3935
 1106SOL    HW2 4919   3.368   1.602   2.571  0.2757  0.4784  0.5804
 1107SOL     OW 4920   4.628   2.975   3.820 -0.6893 -0.6791 -0.2756
 1107SOL    HW1 4921   4.616   3.074   3.832 -1.3917 -0.7506 -0.3402
 1107SOL    HW2 4922   4.714   2.946   3.862 -0.0991  0.0879 -0.9198
 1108SOL     OW 4923   4.952   5.635   5.670  0.2768  0.5036 -0.8273
 1108SOL    HW1 4924   4.995   5.722   5.645 -0.1037  1.0392  0.3121
 1108SOL    HW2 4925   4.891   5.605   5.596  3.5898 -1.0326 -3.1941
 1109SOL     OW 4926   4.056   5.566   6.949 -0.3547  0.2081 -0.1732
 1109SOL    HW1 4927   3.978   5.511   6.978  0.7320 -1.6413 -0.5873
 1109SOL    HW2 4928   4.042   5.597   6.855  0.4674 -2.3556 -1.2318
 1110SOL     OW 4929   6.527   2.389   4.507 -0.1072  0.1392  0.5528
 1110SOL    HW1 4930   6.428   2.390   4.524  0.1004  2.1724  2.0121
 1110SOL    HW2 4931   6.568   2.470   4.547  2.4910 -1.6711  1.8382
 1111SOL     OW 4932   6.777   6.934   4.300  0.1614  0.3463 -0.0274
 1111SOL    HW1 4933   6.766   6.974   4.209  1.3609 -0.4050 -0.5235
 1111SOL    HW2 4934   6.687   6.919   4.341 -0.3574  2.3653 -0.3198
 1112SOL     OW 4935   4.389   3.792   4.103 -0.2096  0.2224  0.3870
 1112SOL    HW1 4936   4.411   3.885   4.073  1.4512  0.3477  1.8820
 1112SOL    HW2 4937   4.397   3.730   4.026 -1.1237  1.2454 -0.5855
 1113SOL     OW 4938   1.767   6.096   3.478 -0.3351  0.1911  0.1566
 1113SOL    HW1 4939   1.674   6.067   3.453 -0.9283  1.7348  0.5025
 1113SOL    HW2 4940   1.825   6.015   3.487 -1.6437 -0.8069 -0.0296
 1114SOL     OW 4941   6.839   4.733   1.465 -0.2363  0.4426 -0.0665
 1114SOL    HW1 4942   6.866   4.779   1.550  1.1564  1.8578 -1.2061
 1114SOL    HW2 4943   6.891   4.772   1.389  0.4321 -2.4902 -1.2420
 1115SOL     OW 4944   1.642   4.874   3.160  0.0789  0.4575 -0.1135
 1115SOL    HW1 4945   1.687   4.947   3.109 -2.4360  1.7124 -0.7120
 1115SOL    HW2 4946   1.688   4.862   3.248  1.5128  1.6683 -0.6579
 1116SOL     OW 4947   6.538   1.240   0.143 -0.1051 -0.5850 -0.2165
 1116SOL    HW1 4948   6.438   1.246   0.137 -0.1582 -0.8655  0.2768
 1116SOL    HW2 4949   6.564   1.147   0.170  0.1630 -0.0070  1.6977
 1117SOL     OW 4950   0.128   1.550   2.659  0.1099 -0.0590  0.1093
 1117SOL    HW1 4951   0.096   1.554   2.754  0.5412  0.2497  0.2435
 1117SOL    HW2 4952   0.052   1.570   2.598 -0.5262 -1.6191  0.3182
 1118SOL     OW 4953   1.219   5.144   5.579 -0.5053  0.3788  0.6100
 1118SOL    HW1 4954   1.214   5.231   5.628 -0.4597  1.5561 -1.3509
 1118SOL    HW2 4955   1.208   5.161   5.481  2.2269 -1.4755 -0.1280
 1119SOL     OW 4956   5.913   4.105   4.556 -0.1041 -0.2982 -0.2801
 1119SOL    HW1 4957   6.002   4.127   4.515 -0.7208 -0.5186 -1.8132
 1119SOL    HW2 4958   5.914   4.130   4.653  1.0390  1.3674 -0.6692
 1120SOL     OW 4959   2.315   0.004   0.723 -0.1083 -0.5440  0.0598
 1120SOL    HW1 4960   2.343  -0.043   0.639  2.7863 -0.9352  1.1441
 1120SOL    HW2 4961   2.233  -0.040   0.759 -0.9544 -0.8798 -2.0947
 1121SOL     OW 4962   6.971   6.872   3.214 -0.4690  0.0442  0.2512
 1121SOL    HW1 4963   7.013   6.782   3.200  0.4988  0.6595 -0.8904
 1121SOL    HW2 4964   6.876   6.859   3.245  0.2066 -1.3592  1.9407
 1122SOL     OW 4965   2.165   5.567   0.683  0.2340  0.0325  0.3641
 1122SOL    HW1 4966   2.155   5.631   0.607 -0.4434  0.0344  0.4408
 1122SOL    HW2 4967   2.207   5.613   0.761  1.1482 -0.0348 -0.0826
 1123SOL     OW 4968   2.746   4.123   3.361  0.1003 -0.9046  0.0711
 1123SOL    HW1 4969   2.648   4.111   3.372 -0.3831  1.8788 -0.4255
 1123SOL    HW2 4970   2.786   4.151   3.448 -0.0304  0.4550 -0.2847
 1124SOL     OW 4971   0.956   0.486   3.465 -0.4241 -0.2844 -0.0614
 1124SOL    HW1 4972   1.002   0.564   3.508  2.0549 -1.1307 -1.0168
 1124SOL    HW2 4973   0.888   0.520   3.399  0.0083  1.0477  0.1479
 1125SOL     OW 4974   4.469   5.050   2.809 -0.2397 -0.5559 -0.4204
 1125SOL    HW1 4975   4.375   5.016   2.805  0.2497 -2.2135  0.7215
 1125SOL    HW2 4976   4.516   5.006   2.886  0.7599  2.0974  0.5800
 1126SOL     OW 4977   1.168   0.219   4.130  0.0962  0.2494  0.1393
 1126SOL    HW1 4978   1.233   0.294   4.142  0.3542  0.1590 -0.6393
 1126SOL    HW2 4979   1.216   0.132   4.137  0.2680  0.1844 -1.3791
 1127SOL     OW 4980   2.700   4.931   4.166  0.6706  0.2335 -0.4387
 1127SOL    HW1 4981   2.623   4.868   4.162  0.3979  0.6374 -1.9422
 1127SOL    HW2 4982   2.689   5.003   4.098  2.2008  0.5077 -0.4422
 1128SOL     OW 4983   4.934   4.746   5.575 -0.0667  0.0008  0.0744
 1128SOL    HW1 4984   5.021   4.794   5.559  0.2224 -1.0399 -1.7967
 1128SOL    HW2 4985   4.899   4.712   5.487 -1.3243 -1.3877  1.0748
 1129SOL     OW 4986   6.387   5.498   4.347  0.7647  0.5840  0.4988
 1129SOL    HW1 4987   6.452   5.491   4.272 -0.1457 -0.5516 -0.2086
 1129SOL    HW2 4988   6.410   5.430   4.417 -1.3552 -2.0207 -1.1404
 1130SOL     OW 4989   1.360   6.324   2.474  0.2543 -0.1186 -0.1926
 1130SOL    HW1 4990   1.357   6.258   2.399 -3.5716 -1.6459  1.0252
 1130SOL    HW2 4991   1.329   6.413   2.441 -0.8052 -0.6254 -0.6188
 1131SOL     OW 4992   3.354   3.623   3.895 -0.7909  0.1995  0.1059
 1131SOL    HW1 4993   3.312   3.625   3.985  0.9942 -0.4221  0.9900
 1131SOL    HW2 4994   3.339   3.533   3.853  0.4586 -0.3819  0.8508
 1132SOL     OW 4995   1.460   6.972   6.665  0.3655 -0.3828 -0.0972
 1132SOL    HW1 4996   1.471   7.049   6.728 -1.5540 -1.1685  1.2878
 1132SOL    HW2 4997   1.519   6.897   6.694  1.3838  0.1247 -0.7818
 1133SOL     OW 4998   0.883   4.064   4.491 -0.0646 -0.0757 -0.0316
 1133SOL    HW1 4999   0.791   4.091   4.520 -0.3819 -0.9017 -0.2552
 1133SOL    HW2 5000   0.886   3.965   4.476  0.7088  0.0222 -0.5866
 1134SOL     OW 5001   3.538   1.841   3.599  0.0131 -0.3063  0.0250
 1134SOL    HW1 5002   3.617   1.842   3.660 -0.7968 -1.6535  1.1360
 1134SOL    HW2 5003   3.565   1.805   3.509  0.5294 -1.4062  0.6062
 1135SOL     OW 5004   5.722   1.491   1.694 -0.6238  1.1689 -0.5107
 1135SOL    HW1 5005   5.677   1.422   1.750  0.4568  1.1084  0.3111
 1135SOL    HW2 5006   5.761   1.562   1.753  1.5281  0.5275 -1.0742
 1136SOL     OW 5007   2.615   1.581   1.051  0.2840 -0.3351  0.2134
 1136SOL    HW1 5008   2.708   1.555   1.076  0.2248 -0.9357 -0.1515
 1136SOL    HW2 5009   2.559   1.498   1.045 -0.0150 -0.0790 -0.5857
 1137SOL     OW 5010   6.074   2.096   0.346  0.6012  0.2132  0.4569
 1137SOL    HW1 5011   6.023   2.050   0.419 -0.0695  1.6800  0.9453
 1137SOL    HW2 5012   6.098   2.029   0.276 -1.3580 -0.7016  0.5769
 1138SOL     OW 5013   1.628   1.266   4.871 -0.3471 -0.1892 -0.3134
 1138SOL    HW1 5014   1.636   1.274   4.772 -0.6696 -0.3424 -0.3548
 1138SOL    HW2 5015   1.717   1.242   4.911 -0.9387 -4.1810 -0.9635
 1139SOL     OW 5016   2.960   1.250   2.227  0.4168  0.0415 -0.3674
 1139SOL    HW1 5017   2.961   1.312   2.147  0.0275  1.3052  0.5730
 1139SOL    HW2 5018   3.009   1.166   2.204  1.3281  0.8560 -1.5762
 1140SOL     OW 5019   0.185   3.888   1.638  0.1781 -0.0146  0.4426
 1140SOL    HW1 5020   0.163   3.838   1.554 -1.0719  0.6062  0.3774
 1140SOL    HW2 5021   0.143   3.978   1.635  0.7504  0.2955  1.4198
 1141SOL     OW 5022   4.429   6.575   2.706 -0.0550 -0.3618 -0.3296
 1141SOL    HW1 5023   4.453   6.482   2.677 -0.2737 -1.0142  1.4601
 1141SOL    HW2 5024   4.357   6.571   2.775  0.9861  1.0272  0.9027
 1142SOL     OW 5025   6.780   5.903   0.318  0.1458  0.5159 -0.2288
 1142SOL    HW1 5026   6.826   5.816   0.337  0.1433  0.4770 -0.4009
 1142SOL    HW2 5027   6.729   5.932   0.399  0.3705  0.4957 -0.0778
 1143SOL     OW 5028   1.072   3.714   4.170  0.6365 -0.1530  0.4023
 1143SOL    HW1 5029   1.113   3.685   4.084 -0.5105 -0.5882 -0.0184
 1143SOL    HW2 5030   1.038   3.633   4.219  2.2434 -0.0299  1.7965
 1144SOL     OW 5031   1.938   5.698   0.241  0.1800  0.8042 -0.3087
 1144SOL    HW1 5032   1.887   5.784   0.237 -0.2849  0.6680  1.6791
 1144SOL    HW2 5033   1.875   5.623   0.263  0.8309  0.1822 -0.5085
 1145SOL     OW 5034   4.493   4.130   0.173  0.9646  0.3055  0.0659
 1145SOL    HW1 5035   4.548   4.061   0.221  0.7868  0.8379  1.0566
 1145SOL    HW2 5036   4.427   4.169   0.236  0.7031  1.0080 -0.6334
 1146SOL     OW 5037   0.324   1.604   0.736 -0.1891  0.1917 -0.6924
 1146SOL    HW1 5038   0.293   1.699   0.733 -1.7288 -0.2883 -0.8116
 1146SOL    HW2 5039   0.411   1.599   0.786 -0.6297  1.5130  0.2687
 1147SOL     OW 5040   2.331   5.702   6.762 -0.0849 -0.3772 -0.0527
 1147SOL    HW1 5041   2.376   5.639   6.698  2.2335  0.9726  0.1294
 1147SOL    HW2 5042   2.388   5.784   6.774 -2.8505  1.7318 -0.1391
 1148SOL     OW 5043   5.277   6.590   1.116 -0.4925 -0.1011 -0.4820
 1148SOL    HW1 5044   5.363   6.624   1.077  0.1513  0.7445  1.5100
 1148SOL    HW2 5045   5.206   6.660   1.107 -0.0595  0.5287  0.6937
 1149SOL     OW 5046   2.795   1.900   4.037 -0.6973 -0.2304  0.1216
 1149SOL    HW1 5047   2.850   1.865   4.113  2.3163  1.8182 -0.9280
 1149SOL    HW2 5048   2.802   1.838   3.960  3.6437  1.6708 -1.3252
 1150SOL     OW 5049   6.981   4.043   3.166  0.3126 -0.0686 -0.0787
 1150SOL    HW1 5050   6.910   4.032   3.236 -1.0940  1.1700 -1.2442
 1150SOL    HW2 5051   6.963   4.126   3.113  3.7209  1.3630  0.7526
 1151SOL     OW 5052   5.514   4.798   0.153  0.2264  0.2570 -0.0061
 1151SOL    HW1 5053   5.541   4.850   0.071 -0.5456  2.8141  1.2776
 1151SOL    HW2 5054   5.569   4.827   0.231  0.1869 -1.3526  0.6732
 1152SOL     OW 5055   1.151   0.193   1.172 -0.2811 -0.4958 -0.1062
 1152SOL    HW1 5056   1.221   0.200   1.243  0.1436 -0.3107 -0.5348
 1152SOL    HW2 5057   1.178   0.122   1.106  0.1656  0.4735 -0.9977
 1153SOL     OW 5058   1.500   2.752   0.494  0.0838 -0.5816  0.3097
 1153SOL    HW1 5059   1.498   2.852   0.490 -0.0276 -0.5867  0.2031
 1153SOL    HW2 5060   1.420   2.716   0.446 -0.0452 -0.7154  0.6225
 1154SOL     OW 5061   5.962   3.477   0.743  0.5115 -0.0182 -0.4399
 1154SOL    HW1 5062   6.028   3.447   0.812  0.2338  1.0840  0.3426
 1154SOL    HW2 5063   5.869   3.456   0.776  0.4304 -1.7856 -1.6397
 1155SOL     OW 5064   3.599   6.536   2.950 -0.0903 -0.3905 -0.3050
 1155SOL    HW1 5065   3.518   6.502   2.996  0.1347 -0.8612 -0.2494
 1155SOL    HW2 5066   3.572   6.595   2.874 -0.6301 -3.0060 -2.3220
 1156SOL     OW 5067   0.698   1.006   6.257 -0.0247 -0.5201  0.0150
 1156SOL    HW1 5068   0.616   1.030   6.206 -0.0916  0.1010  0.4077
 1156SOL    HW2 5069   0.774   0.991   6.193 -0.3780 -0.8522 -0.3301
 1157SOL     OW 5070   4.708   0.754   4.391 -0.0389 -0.3437 -0.3633
 1157SOL    HW1 5071   4.779   0.728   4.325  0.4742 -0.5160  0.2450
 1157SOL    HW2 5072   4.743   0.827   4.450  0.3150 -1.7071  1.1576
 1158SOL     OW 5073   2.699   0.768   2.270  0.1272 -0.3759  0.0984
 1158SOL    HW1 5074   2.684   0.669   2.270  1.3495 -0.5729 -0.2445
 1158SOL    HW2 5075   2.732   0.798   2.180  1.0108  0.1256  0.5653
 1159SOL     OW 5076   1.492   1.191   6.458 -0.2692  0.2425  0.5747
 1159SOL    HW1 5077   1.454   1.235   6.378  1.8743  0.8798 -0.1600
 1159SOL    HW2 5078   1.485   1.091   6.448  0.1056  0.3126 -0.4827
 1160SOL     OW 5079   4.463   0.239   6.703  0.5328 -0.4817 -0.0541
 1160SOL    HW1 5080   4.364   0.251   6.703  0.6172  0.4370  1.1972
 1160SOL    HW2 5081   4.504   0.302   6.637  0.3711  0.1302  0.4226
 1161SOL     OW 5082   4.321   0.306   1.299  1.0192  0.3230  0.0408
 1161SOL    HW1 5083   4.336   0.399   1.332  0.1651  0.5144 -0.0811
 1161SOL    HW2 5084   4.295   0.309   1.202 -1.2051  0.1716  0.5614
 1162SOL     OW 5085   3.187   2.273   0.850 -0.2711 -0.0948  0.2825
 1162SOL    HW1 5086   3.207   2.367   0.823 -0.8731  0.5254  1.8603
 1162SOL    HW2 5087   3.117   2.234   0.791  0.3489  0.2629 -0.6989
 1163SOL     OW 5088   0.329   1.818   5.278  0.0084  0.0394  0.6531
 1163SOL    HW1 5089   0.254   1.765   5.318  0.5005 -0.2451  1.2169
 1163SOL    HW2 5090   0.299   1.859   5.192 -0.5935 -0.5950  0.5523
 1164SOL     OW 5091   4.893   2.988   3.917 -0.0783  0.6128  0.0540
 1164SOL    HW1 5092   4.924   3.006   3.824  0.5154  2.1109  0.5124
 1164SOL    HW2 5093   4.929   2.899   3.948  2.1518  1.3970 -0.1381
 1165SOL     OW 5094   1.837   4.747   0.862  0.6933  0.4299 -0.0749
 1165SOL    HW1 5095   1.805   4.836   0.830  0.0183  0.4883  0.7140
 1165SOL    HW2 5096   1.935   4.737   0.842  0.6976  1.2052 -0.4664
 1166SOL     OW 5097   2.908   3.482   3.751  0.2600 -0.0226 -0.2212
 1166SOL    HW1 5098   2.951   3.460   3.663  1.5660  2.2359 -0.2403
 1166SOL    HW2 5099   2.930   3.576   3.775 -0.9017 -0.2818  2.0786
 1167SOL     OW 5100   6.000   2.592   4.477  0.8838 -0.4262  0.0627
 1167SOL    HW1 5101   5.903   2.611   4.497  0.7179 -1.1004 -0.0668
 1167SOL    HW2 5102   6.006   2.511   4.419  1.5431 -0.5136  0.2510
 1168SOL     OW 5103   1.426   2.964   3.862 -0.0679  0.0883 -0.4853
 1168SOL    HW1 5104   1.343   2.952   3.807  0.5179 -0.7483 -1.2226
 1168SOL    HW2 5105   1.489   3.023   3.813  0.2418 -0.2320 -0.4782
 1169SOL     OW 5106   6.146   4.465   0.548  0.0447 -0.3846  0.4643
 1169SOL    HW1 5107   6.087   4.440   0.626 -0.3351 -0.3343  0.1990
 1169SOL    HW2 5108   6.177   4.559   0.558  1.9462 -1.0897  1.7621
 1170SOL     OW 5109   1.235   5.911   5.148  0.0088 -0.0965  0.6004
 1170SOL    HW1 5110   1.183   5.994   5.129  1.0897  0.5284  0.2892
 1170SOL    HW2 5111   1.303   5.898   5.077  0.7314 -0.5235  1.3604
 1171SOL     OW 5112   1.781   0.578   1.736 -0.3833  0.4162  0.4338
 1171SOL    HW1 5113   1.849   0.640   1.699  1.1480 -1.0531  0.6549
 1171SOL    HW2 5114   1.804   0.554   1.831 -1.2342 -0.0527  0.5380
 1172SOL     OW 5115   1.170   1.452   0.341  0.0653  0.0623  0.2555
 1172SOL    HW1 5116   1.229   1.382   0.382 -0.3494 -0.3886  0.0919
 1172SOL    HW2 5117   1.126   1.505   0.413  1.2344  0.8932  0.3822
 1173SOL     OW 5118   5.214   0.270   5.195 -0.2126 -0.5286  0.7395
 1173SOL    HW1 5119   5.252   0.195   5.141  1.1123  0.3001  0.4761
 1173SOL    HW2 5120   5.267   0.280   5.279 -2.3586 -1.9316  2.3745
 1174SOL     OW 5121   5.276   1.261   1.964  0.2824 -0.0602  0.2411
 1174SOL    HW1 5122   5.216   1.183   1.952  0.5449 -0.2395  0.0823
 1174SOL    HW2 5123   5.236   1.324   2.031 -1.2502  0.9982 -1.5454
 1175SOL     OW 5124   5.945   1.787   4.713  0.3179 -0.1112  0.2849
 1175SOL    HW1 5125   6.000   1.747   4.787 -0.0196 -0.2882  0.4387
 1175SOL    HW2 5126   5.849   1.787   4.739  0.3255  0.9156  0.3442
 1176SOL     OW 5127   5.005   4.878   3.091 -0.0540  0.2768  0.1460
 1176SOL    HW1 5128   5.039   4.970   3.073  0.0410  0.3546  0.6900
 1176SOL    HW2 5129   4.940   4.851   3.020  2.6842 -0.6853 -2.2009
 1177SOL     OW 5130   6.903   0.569   0.953 -0.1919 -0.1782  0.1911
 1177SOL    HW1 5131   6.841   0.635   0.995  0.4009  0.3974  0.1740
 1177SOL    HW2 5132   6.967   0.535   1.021  0.1369  0.0123 -0.0204
 1178SOL     OW 5133   3.043   5.270   6.394 -0.3413 -0.3292 -0.1009
 1178SOL    HW1 5134   2.975   5.258   6.322  0.3634 -2.1764 -0.4982
 1178SOL    HW2 5135   3.116   5.330   6.360 -1.3449  1.0623  0.0783
 1179SOL     OW 5136   5.601   4.148   3.009 -0.9422  0.0331  0.4569
 1179SOL    HW1 5137   5.696   4.138   2.980 -0.9085 -0.8739  0.8461
 1179SOL    HW2 5138   5.583   4.244   3.034  0.3890 -0.1115  2.1501
 1180SOL     OW 5139   1.899   5.053   1.062 -0.2201  0.5266  0.2417
 1180SOL    HW1 5140   1.864   5.005   1.143 -0.0876 -0.7584 -0.4415
 1180SOL    HW2 5141   1.990   5.019   1.040 -1.4312 -1.4648 -2.2433
 1181SOL     OW 5142   6.779   3.921   2.296 -0.6355  0.2497  0.1823
 1181SOL    HW1 5143   6.730   3.870   2.226  1.4716  0.2402 -1.3530
 1181SOL    HW2 5144   6.721   3.996   2.328 -2.4919 -1.0678  0.1038
 1182SOL     OW 5145   1.748   5.767   4.599  0.5024 -0.2523 -0.4588
 1182SOL    HW1 5146   1.678   5.697   4.583  2.4462 -2.2140 -0.9199
 1182SOL    HW2 5147   1.751   5.830   4.522 -1.2869  0.3815 -0.0388
 1183SOL     OW 5148   2.142   5.365   0.106 -0.2035 -0.1027  0.0115
 1183SOL    HW1 5149   2.171   5.391   0.198  0.1536 -1.2177  0.2254
 1183SOL    HW2 5150   2.212   5.309   0.063  0.6440  2.1864 -1.8074
 1184SOL     OW 5151   6.797   4.136   5.919 -0.2432  0.0262 -0.1793
 1184SOL    HW1 5152   6.766   4.214   5.973  0.6835 -0.0533  0.4938
 1184SOL    HW2 5153   6.780   4.051   5.969 -1.9104 -0.3029 -1.2090
 1185SOL     OW 5154   6.172   1.839   3.729 -0.4791 -0.3627  0.4050
 1185SOL    HW1 5155   6.255   1.784   3.724 -0.3961 -0.2776  0.8507
 1185SOL    HW2 5156   6.117   1.810   3.807 -0.2478  0.4470  0.8797
 1186SOL     OW 5157   2.974   4.598   6.511 -0.4133 -0.1194  0.1828
 1186SOL    HW1 5158   3.005   4.679   6.561  0.6165 -0.6014  0.3465
 1186SOL    HW2 5159   2.875   4.602   6.499 -0.2919  1.5831 -0.5506
 1187SOL     OW 5160   2.341   1.840   3.450 -0.5531 -0.1715 -0.4067
 1187SOL    HW1 5161   2.243   1.847   3.430 -0.6051 -0.9392 -0.4562
 1187SOL    HW2 5162   2.358   1.758   3.505 -0.0560  0.4697  0.4190
 1188SOL     OW 5163   2.493   0.136   2.560 -0.5212 -0.0917  0.4260
 1188SOL    HW1 5164   2.491   0.235   2.574 -0.9966  0.1697 -1.2903
 1188SOL    HW2 5165   2.587   0.102   2.570  0.1568  0.9964 -1.7070
 1189SOL     OW 5166   2.408   2.239   1.463 -0.1897 -0.0937  1.2348
 1189SOL    HW1 5167   2.457   2.326   1.463  0.2105 -0.2954 -0.2087
 1189SOL    HW2 5168   2.412   2.198   1.372 -1.2823 -1.1187  1.6168
 1190SOL     OW 5169   1.980   0.126   0.753  0.5857  0.4554 -0.5344
 1190SOL    HW1 5170   2.028   0.041   0.774 -0.5634 -0.4091 -1.2744
 1190SOL    HW2 5171   2.039   0.184   0.697  1.6883  0.5263  0.6657
 1191SOL     OW 5172   4.716   2.098   0.816 -0.1962 -0.3659 -0.4275
 1191SOL    HW1 5173   4.769   2.132   0.894 -1.3559 -0.2889  0.3601
 1191SOL    HW2 5174   4.639   2.159   0.800 -1.8837 -2.1318  0.5256
 1192SOL     OW 5175   3.894   2.884   5.762 -0.1537  0.3049 -0.9240
 1192SOL    HW1 5176   3.801   2.873   5.798 -0.4851 -1.1116 -2.1397
 1192SOL    HW2 5177   3.959   2.882   5.838 -0.8938 -1.9126 -0.2582
 1193SOL     OW 5178   4.230   3.934   3.185 -0.2427  0.4675  0.0160
 1193SOL    HW1 5179   4.289   3.854   3.168 -4.2130 -2.7191 -0.2469
 1193SOL    HW2 5180   4.217   3.945   3.283  0.2639  0.8224  0.0500
 1194SOL     OW 5181   0.292   2.661   6.257 -0.2283  0.1814 -0.2716
 1194SOL    HW1 5182   0.383   2.646   6.217  0.2168  1.6168  0.1266
 1194SOL    HW2 5183   0.237   2.579   6.246  1.1330 -0.7418 -0.4873
 1195SOL     OW 5184   0.274   0.358   2.355 -0.6125  0.6701 -0.0054
 1195SOL    HW1 5185   0.334   0.395   2.283  1.2070  0.1211  1.1437
 1195SOL    HW2 5186   0.218   0.285   2.317 -1.1025  1.6827 -1.2939
 1196SOL     OW 5187   5.976   2.016   5.304  0.5961 -0.1796  0.2350
 1196SOL    HW1 5188   5.966   2.036   5.206  1.1230 -0.3295  0.1442
 1196SOL    HW2 5189   5.903   2.060   5.355  1.1338  1.1077 -0.0676
 1197SOL     OW 5190   0.471   3.320   1.256  0.0396  0.6449 -0.4026
 1197SOL    HW1 5191   0.438   3.380   1.329  0.3162  1.7683 -1.1614
 1197SOL    HW2 5192   0.460   3.225   1.283 -2.6659  0.9723 -0.1107
 1198SOL     OW 5193   2.426   1.380   6.554  0.0179  0.2842 -0.2537
 1198SOL    HW1 5194   2.519   1.406   6.579  0.2385 -0.4308 -0.2894
 1198SOL    HW2 5195   2.378   1.344   6.635  0.0041  0.0045 -0.3857
 1199SOL     OW 5196   0.654   3.787   6.692  0.1138 -0.1180 -0.0419
 1199SOL    HW1 5197   0.668   3.837   6.777  1.4653 -1.6795  0.7204
 1199SOL    HW2 5198   0.558   3.793   6.665 -0.5022 -0.1441  1.9744
 1200SOL     OW 5199   4.838   6.178   3.635 -0.4317 -0.0716  0.4016
 1200SOL    HW1 5200   4.897   6.214   3.708  1.1758 -1.6956 -0.0081
 1200SOL    HW2 5201   4.758   6.133   3.675 -0.0853 -0.0561  1.1227
 1201SOL     OW 5202   4.995   3.086   0.879  0.2225 -0.0235 -0.2268
 1201SOL    HW1 5203   5.052   3.137   0.944 -1.4986  1.2596  0.3685
 1201SOL    HW2 5204   4.962   3.002   0.922 -1.2336  1.0114  0.7842
 1202SOL     OW 5205   1.750   2.330   6.689  0.2407  0.5929 -0.0772
 1202SOL    HW1 5206   1.697   2.367   6.613 -0.3201 -0.1232 -0.0520
 1202SOL    HW2 5207   1.703   2.349   6.775  0.5713  0.8833  0.0414
 1203SOL     OW 5208   1.957   6.322   5.055 -0.5795  0.1403  0.1086
 1203SOL    HW1 5209   1.930   6.299   4.961 -0.6129 -1.8402  0.5711
 1203SOL    HW2 5210   2.053   6.352   5.055 -0.5070 -0.0764 -0.5294
 1204SOL     OW 5211   1.151   1.175   4.972  0.7978 -0.5287 -0.4554
 1204SOL    HW1 5212   1.243   1.164   4.933  1.0426 -0.3233  0.0691
 1204SOL    HW2 5213   1.126   1.092   5.022  1.7029  0.3240  1.5070
 1205SOL     OW 5214   4.573   5.288   2.825  0.5405  0.3142 -0.3211
 1205SOL    HW1 5215   4.530   5.198   2.826  0.8235  0.1854  0.5552
 1205SOL    HW2 5216   4.544   5.337   2.743 -0.5789 -0.1036 -0.1923
 1206SOL     OW 5217   1.346   1.048   2.876  0.2369 -0.3402 -0.2731
 1206SOL    HW1 5218   1.268   1.089   2.924 -0.2260 -0.9014 -0.5266
 1206SOL    HW2 5219   1.327   1.044   2.778  0.3735 -0.9303 -0.2794
 1207SOL     OW 5220   6.171   3.333   6.732  0.3588 -0.1470  0.0428
 1207SOL    HW1 5221   6.256   3.287   6.709  0.3459 -0.4846  0.6583
 1207SOL    HW2 5222   6.098   3.266   6.743 -0.4719  0.2727 -2.4462
 1208SOL     OW 5223   5.378   3.072   2.568  0.1569  0.3432 -0.3285
 1208SOL    HW1 5224   5.344   3.119   2.486 -2.8537 -1.3053 -0.1748
 1208SOL    HW2 5225   5.413   2.982   2.543  0.4364  0.3457  0.0456
 1209SOL     OW 5226   1.186   2.336   2.727 -0.6907 -0.5534  0.1532
 1209SOL    HW1 5227   1.157   2.308   2.818  0.8313 -2.8113  0.0241
 1209SOL    HW2 5228   1.251   2.411   2.734  0.0507 -1.2604  1.0048
 1210SOL     OW 5229   0.627   6.639   1.264 -0.2706 -0.3357 -0.0548
 1210SOL    HW1 5230   0.653   6.637   1.168 -3.0527 -0.9026 -0.8894
 1210SOL    HW2 5231   0.670   6.562   1.312 -0.2142 -1.0706 -1.2517
 1211SOL     OW 5232   6.886   6.082   1.596 -0.6374  0.2668  0.3254
 1211SOL    HW1 5233   6.914   6.127   1.511 -1.2377 -2.2489 -1.3025
 1211SOL    HW2 5234   6.962   6.084   1.661  0.2403  1.2457 -0.6876
 1212SOL     OW 5235   4.805   2.064   3.332  0.3564  0.6138  0.6382
 1212SOL    HW1 5236   4.781   2.116   3.250  1.0570 -1.7492 -1.1725
 1212SOL    HW2 5237   4.822   2.128   3.408  0.2249  2.9258 -1.1576
 1213SOL     OW 5238   3.656   6.862   3.021 -0.3246 -0.2274  0.1799
 1213SOL    HW1 5239   3.565   6.878   2.982 -0.6886  0.5565  1.2905
 1213SOL    HW2 5240   3.649   6.795   3.095  0.0496 -0.3491  0.1082
 1214SOL     OW 5241   2.513   0.400   3.528  0.0606  0.7734 -0.2264
 1214SOL    HW1 5242   2.467   0.385   3.441  0.1310 -1.1934  0.0278
 1214SOL    HW2 5243   2.587   0.467   3.515  0.0952  0.4943 -1.6865
 1215SOL     OW 5244   6.110   1.949   4.567 -0.1026 -0.0751 -0.1309
 1215SOL    HW1 5245   6.110   1.927   4.469 -0.7151  1.6673 -0.5625
 1215SOL    HW2 5246   6.046   1.889   4.615  1.1426 -1.8054 -0.5536
 1216SOL     OW 5247   1.011   2.147   4.135  0.3528 -0.1656 -0.1353
 1216SOL    HW1 5248   0.939   2.121   4.070  1.4193 -0.8787 -1.0729
 1216SOL    HW2 5249   0.970   2.179   4.220 -1.0655 -0.9200 -0.5121
 1217SOL     OW 5250   1.564   1.943   6.918  0.0151  0.2046  0.8504
 1217SOL    HW1 5251   1.476   1.925   6.876  0.8789 -0.0484 -0.9413
 1217SOL    HW2 5252   1.556   2.018   6.983 -1.5221  0.0999  0.8050
 1218SOL     OW 5253   0.154   3.507   4.914 -0.4227 -0.2202 -0.1630
 1218SOL    HW1 5254   0.219   3.461   4.853  1.5202 -0.3889  1.8911
 1218SOL    HW2 5255   0.112   3.439   4.975 -1.7116  0.0573 -0.7031
 1219SOL     OW 5256   6.993   5.501   1.454 -0.1762 -0.5956  0.5797
 1219SOL    HW1 5257   7.012   5.598   1.464  2.6642 -0.9508 -0.4399
 1219SOL    HW2 5258   6.925   5.487   1.382  2.0931  0.5496 -1.9400
 1220SOL     OW 5259   4.658   1.865   6.692 -0.1856 -0.0175 -0.0035
 1220SOL    HW1 5260   4.751   1.893   6.667  0.2976  0.9512  2.5729
 1220SOL    HW2 5261   4.622   1.803   6.622  1.4075  1.5351 -2.3652
 1221SOL     OW 5262   4.281   2.652   5.379 -0.3934  0.8403  0.3227
 1221SOL    HW1 5263   4.212   2.721   5.397  1.6014  2.5796  1.7519
 1221SOL    HW2 5264   4.357   2.693   5.329  0.0638 -0.7766 -0.3765
 1222SOL     OW 5265   0.067   3.600   0.825  0.3278  0.6359  0.8975
 1222SOL    HW1 5266  -0.030   3.583   0.843  0.0605  1.4382  0.2919
 1222SOL    HW2 5267   0.092   3.690   0.862  0.4618  1.0709 -0.2006
 1223SOL     OW 5268   6.505   6.477   5.915 -0.2593  0.1772 -0.0454
 1223SOL    HW1 5269   6.455   6.431   5.842 -0.0946  2.0480 -1.4096
 1223SOL    HW2 5270   6.578   6.533   5.875  1.4996 -0.6938  1.7427
 1224SOL     OW 5271   0.970   3.695   0.485  0.1103  0.0967 -0.0702
 1224SOL    HW1 5272   1.059   3.652   0.502 -1.2999 -2.1073  2.6990
 1224SOL    HW2 5273   0.900   3.648   0.540 -2.8169  1.6462 -2.2272
 1225SOL     OW 5274   4.048   3.916   3.902  0.2984 -0.2743 -0.5795
 1225SOL    HW1 5275   4.051   3.973   3.820 -0.6417 -1.2346 -1.3060
 1225SOL    HW2 5276   3.955   3.914   3.938  0.7881  0.5338  0.8317
 1226SOL     OW 5277   5.213   0.267   4.193  0.8262  0.5108 -0.1191
 1226SOL    HW1 5278   5.279   0.235   4.261  0.3175  0.9469  0.5908
 1226SOL    HW2 5279   5.132   0.302   4.239 -0.6029 -1.4451 -0.9891
 1227SOL     OW 5280   4.237   5.972   5.984 -0.3652 -0.1097  0.6921
 1227SOL    HW1 5281   4.309   6.019   6.033  0.4487 -1.8359  1.2327
 1227SOL    HW2 5282   4.274   5.932   5.900 -0.7706 -0.6898  0.7820
 1228SOL     OW 5283   2.992   3.479   4.139  0.2274  0.0876 -0.9451
 1228SOL    HW1 5284   2.987   3.556   4.076 -0.8573 -1.1406 -2.4154
 1228SOL    HW2 5285   2.989   3.394   4.088  1.3093 -0.9643  0.6577
 1229SOL     OW 5286   1.201   5.563   4.475 -0.0640  0.5917 -0.4488
 1229SOL    HW1 5287   1.108   5.528   4.468 -0.4805  1.8553 -1.9392
 1229SOL    HW2 5288   1.265   5.496   4.437 -0.6617  0.7152 -1.7443
 1230SOL     OW 5289   6.597   0.589   0.010 -0.6181 -0.5176  0.2007
 1230SOL    HW1 5290   6.658   0.552   0.080 -2.0175 -3.8223 -0.1052
 1230SOL    HW2 5291   6.646   0.592  -0.078 -0.7414 -3.2329 -0.0663
 1231SOL     OW 5292   3.081   0.689   4.445 -0.1647 -0.2677 -0.5277
 1231SOL    HW1 5293   3.105   0.786   4.440 -2.6844  0.6518  2.1653
 1231SOL    HW2 5294   3.144   0.642   4.507  0.2466 -0.0345 -0.7700
 1232SOL     OW 5295   3.703   5.547   1.953 -0.1184 -0.0610  0.0208
 1232SOL    HW1 5296   3.789   5.511   1.916  0.4112 -0.2274  1.3595
 1232SOL    HW2 5297   3.660   5.606   1.885  0.0016 -1.6107 -1.4796
 1233SOL     OW 5298   5.154   2.618   0.432  0.0452  0.3210 -0.0840
 1233SOL    HW1 5299   5.153   2.623   0.532 -2.2995  1.0876 -0.0958
 1233SOL    HW2 5300   5.207   2.695   0.396 -0.3341  0.8880  0.5375
 1234SOL     OW 5301   4.144   0.373   4.391 -0.1838  0.0789  0.4043
 1234SOL    HW1 5302   4.083   0.358   4.314 -0.0986 -0.5574  0.4562
 1234SOL    HW2 5303   4.175   0.468   4.391 -0.7550  0.2660  0.0769
 1235SOL     OW 5304   3.860   0.069   4.866 -0.8727 -0.1920 -0.3837
 1235SOL    HW1 5305   3.885  -0.013   4.917 -3.1538 -1.0422 -0.5144
 1235SOL    HW2 5306   3.923   0.083   4.790  1.1085 -0.3027  1.1678
 1236SOL     OW 5307   3.495   6.061   5.200  0.1087  0.7305 -0.2296
 1236SOL    HW1 5308   3.573   6.029   5.254 -0.4702  0.4894  0.4794
 1236SOL    HW2 5309   3.417   6.075   5.260 -0.3008  1.3069 -0.8837
 1237SOL     OW 5310   4.831   0.163   2.904 -0.3957 -0.1272 -0.3530
 1237SOL    HW1 5311   4.870   0.204   2.822  0.8086 -0.7010 -0.0989
 1237SOL    HW2 5312   4.863   0.068   2.912 -1.0874 -0.3092  0.3890
 1238SOL     OW 5313   6.167   6.762   0.442  0.4704 -0.1524 -0.5014
 1238SOL    HW1 5314   6.204   6.669   0.440 -3.6690 -2.0136 -0.6030
 1238SOL    HW2 5315   6.101   6.773   0.367 -0.3771  2.2748  0.5097
 1239SOL     OW 5316   6.880   1.240   6.901  0.2973  0.1692 -0.5295
 1239SOL    HW1 5317   6.890   1.201   6.809 -0.4747 -1.9701  0.2393
 1239SOL    HW2 5318   6.961   1.217   6.955 -0.7566 -1.6784  0.3463
 1240SOL     OW 5319   6.504   1.682   5.166 -0.0745 -0.2484  0.4399
 1240SOL    HW1 5320   6.520   1.780   5.154 -0.1874 -0.4775 -2.1999
 1240SOL    HW2 5321   6.418   1.667   5.215 -0.4996  0.9771  0.0921
 1241SOL     OW 5322   6.488   3.009   6.859 -0.6447 -0.0646  0.2686
 1241SOL    HW1 5323   6.464   2.914   6.841 -2.6647 -0.1547  2.7991
 1241SOL    HW2 5324   6.472   3.030   6.956  0.1565  2.7338 -0.1093
 1242SOL     OW 5325   4.323   3.004   3.118 -0.5140 -0.4283 -0.3709
 1242SOL    HW1 5326   4.411   3.039   3.087 -0.8339  0.9909  0.2115
 1242SOL    HW2 5327   4.250   3.046   3.064 -0.8385 -1.7515 -0.9861
 1243SOL     OW 5328   0.657   3.261   5.746 -0.3895  0.3247 -0.7433
 1243SOL    HW1 5329   0.701   3.341   5.705 -1.0310 -0.1420 -2.3950
 1243SOL    HW2 5330   0.560   3.278   5.758 -0.4534 -0.0534 -0.6986
 1244SOL     OW 5331   2.681   0.685   0.189  0.0933  0.0512 -0.2001
 1244SOL    HW1 5332   2.684   0.755   0.260 -1.3872 -1.9600  2.0107
 1244SOL    HW2 5333   2.601   0.699   0.132 -0.2064  0.1816  0.2455
 1245SOL     OW 5334   6.903   2.956   4.613 -0.3302  0.1430  0.3921
 1245SOL    HW1 5335   6.903   3.054   4.596 -1.3260  0.3862  1.6546
 1245SOL    HW2 5336   6.886   2.938   4.711 -0.3752 -1.2799  0.1554
 1246SOL     OW 5337   2.992   4.880   1.495  0.7436 -0.7124 -0.0831
 1246SOL    HW1 5338   3.061   4.828   1.444  0.8608 -0.1645 -0.4895
 1246SOL    HW2 5339   2.914   4.820   1.516  0.8241 -1.0200 -0.6529
 1247SOL     OW 5340   0.819   6.858   1.537 -0.0774 -0.2636 -0.0473
 1247SOL    HW1 5341   0.847   6.816   1.451  0.0347 -0.1283 -0.0772
 1247SOL    HW2 5342   0.779   6.788   1.596 -0.6298 -0.2576 -0.4098
 1248SOL     OW 5343   3.969   2.429   5.444 -0.2993 -0.2187  0.2031
 1248SOL    HW1 5344   4.059   2.431   5.399  0.2914 -1.9428  1.1742
 1248SOL    HW2 5345   3.974   2.479   5.531  0.0032 -1.0390  0.6728
 1249SOL     OW 5346   2.240   0.457   2.547  0.0994  0.2500  0.2399
 1249SOL    HW1 5347   2.182   0.451   2.628 -0.3825 -0.4521 -0.1494
 1249SOL    HW2 5348   2.336   0.453   2.575 -0.0402  0.8015  0.8353
 1250SOL     OW 5349   2.276   1.250   6.722 -0.3193 -0.5770  0.2392
 1250SOL    HW1 5350   2.359   1.199   6.746 -0.0347 -0.6555 -0.8720
 1250SOL    HW2 5351   2.200   1.187   6.707 -0.0486 -0.6629 -0.8125
 1251SOL     OW 5352   0.756   3.646   4.568  0.6075  0.3637 -0.0892
 1251SOL    HW1 5353   0.702   3.691   4.639 -0.0282 -0.9383  0.2952
 1251SOL    HW2 5354   0.712   3.560   4.543  1.6537  0.0600 -0.9605
 1252SOL     OW 5355   0.304   2.055   6.251 -0.0336 -0.1635  0.3664
 1252SOL    HW1 5356   0.211   2.061   6.216  0.2771 -1.2514 -0.7436
 1252SOL    HW2 5357   0.369   2.060   6.175  0.7860 -0.1879  1.0408
 1253SOL     OW 5358   1.972   5.011   2.842  0.6899 -0.1735  0.9077
 1253SOL    HW1 5359   2.054   4.978   2.797  0.6888 -2.7089  2.5561
 1253SOL    HW2 5360   1.914   5.059   2.776  2.5127 -0.1678 -0.7510
 1254SOL     OW 5361   0.381   5.774   3.771  0.2098  0.1944 -0.5813
 1254SOL    HW1 5362   0.398   5.690   3.720  0.4812  0.1673 -0.4474
 1254SOL    HW2 5363   0.329   5.753   3.853  0.0329  0.1960 -0.6932
 1255SOL     OW 5364   1.930   1.352   0.466  0.2484  0.2784 -0.3790
 1255SOL    HW1 5365   1.895   1.272   0.513  0.6784  0.3853  0.1301
 1255SOL    HW2 5366   2.004   1.325   0.404  1.5202  0.4762  1.0033
 1256SOL     OW 5367   2.270   1.936   1.078  0.2509 -0.6405  0.5394
 1256SOL    HW1 5368   2.341   1.867   1.063  0.1242 -0.6183 -0.2064
 1256SOL    HW2 5369   2.220   1.952   0.993  0.0373  0.1090  0.7946
 1257SOL     OW 5370   6.843   6.709   4.631 -0.1579 -0.0068 -0.2845
 1257SOL    HW1 5371   6.745   6.693   4.621 -0.0759 -0.3248 -0.5990
 1257SOL    HW2 5372   6.893   6.631   4.594  0.1998 -0.1662  0.4975
 1258SOL     OW 5373   0.385   3.362   5.159  0.2001 -0.1890 -0.6649
 1258SOL    HW1 5374   0.364   3.459   5.154  0.8790  0.0911  1.2514
 1258SOL    HW2 5375   0.311   3.314   5.206  1.3010 -0.0411  1.3170
 1259SOL     OW 5376   3.082   6.504   5.864  0.0593  0.2007  0.0656
 1259SOL    HW1 5377   3.066   6.575   5.796  1.1340  0.6977  0.3040
 1259SOL    HW2 5378   3.013   6.433   5.855 -0.4127  0.7566 -0.8704
 1260SOL     OW 5379   5.522   4.608   1.671  0.4059 -0.0565  0.4647
 1260SOL    HW1 5380   5.461   4.529   1.662 -0.5654  0.4096  2.3521
 1260SOL    HW2 5381   5.617   4.577   1.668  0.2955 -0.6371 -4.1714
 1261SOL     OW 5382   3.101   4.122   3.317 -0.8062  0.5115 -0.8118
 1261SOL    HW1 5383   3.079   4.159   3.407  3.0211 -1.1032  1.0225
 1261SOL    HW2 5384   3.035   4.051   3.292 -2.4167  1.5667  0.2538
 1262SOL     OW 5385   5.199   5.916   3.803 -0.4217  0.9254 -0.2052
 1262SOL    HW1 5386   5.197   5.993   3.866 -1.4500  1.3594 -0.7539
 1262SOL    HW2 5387   5.134   5.931   3.729  0.0760 -0.0176 -0.8617
 1263SOL     OW 5388   5.149   3.715   3.717  0.7710 -0.1746  0.3264
 1263SOL    HW1 5389   5.143   3.705   3.817 -2.6897 -0.3817  0.2238
 1263SOL    HW2 5390   5.203   3.641   3.679  1.1076 -0.8118  1.9617
 1264SOL     OW 5391   6.582   2.380   2.216  0.0175 -0.4007  0.5099
 1264SOL    HW1 5392   6.616   2.293   2.181  1.0764  0.1383  0.1418
 1264SOL    HW2 5393   6.487   2.370   2.245  0.6764 -2.1923  2.3038
 1265SOL     OW 5394   1.808   0.999   2.311 -0.3127 -0.0072  0.8652
 1265SOL    HW1 5395   1.834   0.904   2.326  2.5704  0.9369  2.6177
 1265SOL    HW2 5396   1.800   1.046   2.399 -3.9306  0.9664  0.1964
 1266SOL     OW 5397   5.741   2.005   3.416  0.3789 -0.0847  0.2649
 1266SOL    HW1 5398   5.692   1.921   3.438  1.2962 -1.1107 -1.4557
 1266SOL    HW2 5399   5.832   2.002   3.456  0.5013 -0.0191 -0.0089
 1267SOL     OW 5400   0.295   3.353   3.110 -0.2607 -0.1563  0.1068
 1267SOL    HW1 5401   0.379   3.345   3.164  0.7089  3.2364 -0.6641
 1267SOL    HW2 5402   0.233   3.418   3.154 -1.8766 -1.4835 -0.1210
 1268SOL     OW 5403   1.318   2.006   1.721  0.1338  0.5036 -0.3396
 1268SOL    HW1 5404   1.377   1.941   1.769 -1.4020 -0.0386  0.9084
 1268SOL    HW2 5405   1.326   2.096   1.764 -0.1441  0.3586  0.0290
 1269SOL     OW 5406   0.270   5.715   5.125 -0.2832  0.6557 -0.2490
 1269SOL    HW1 5407   0.202   5.777   5.164 -0.8095  0.1454 -0.3480
 1269SOL    HW2 5408   0.234   5.674   5.042 -0.1948 -0.2748  0.1619
 1270SOL     OW 5409   1.631   2.710   3.478 -0.3516  0.4159  0.2028
 1270SOL    HW1 5410   1.540   2.751   3.486 -0.1712  0.8415  0.0687
 1270SOL    HW2 5411   1.625   2.612   3.499 -0.6873  0.6113  1.0484
 1271SOL     OW 5412   3.797   2.382   0.649 -0.3706  0.3969  0.1769
 1271SOL    HW1 5413   3.808   2.480   0.661  1.1513  0.2911 -0.1886
 1271SOL    HW2 5414   3.742   2.365   0.567 -0.1883  0.9346 -0.0610
 1272SOL     OW 5415   2.674   6.499   5.962  0.1859  0.5575  0.2784
 1272SOL    HW1 5416   2.613   6.523   5.887  1.3975 -0.3353 -1.0540
 1272SOL    HW2 5417   2.730   6.578   5.987  0.5928  0.5564 -0.5829
 1273SOL     OW 5418   2.229   0.103   4.944 -0.5202 -0.0557 -0.0794
 1273SOL    HW1 5419   2.284   0.172   4.897  0.0917 -0.1775  0.4496
 1273SOL    HW2 5420   2.216   0.128   5.039  1.1464 -1.4695  0.5693
 1274SOL     OW 5421   1.242   6.848   2.454  0.3061 -0.4111  0.0191
 1274SOL    HW1 5422   1.259   6.918   2.523 -0.7693 -1.0974  1.0169
 1274SOL    HW2 5423   1.151   6.862   2.415 -0.1875 -1.5888  0.6853
 1275SOL     OW 5424   4.543   1.764   2.106 -0.7801  0.1125  0.4434
 1275SOL    HW1 5425   4.586   1.853   2.119 -1.5670  0.5598  0.0657
 1275SOL    HW2 5426   4.447   1.777   2.081 -0.1611 -0.7212 -2.9003
 1276SOL     OW 5427   5.023   4.480   2.363  0.2313 -0.2980  0.4619
 1276SOL    HW1 5428   5.061   4.564   2.325 -1.0284 -0.6589 -1.7569
 1276SOL    HW2 5429   5.021   4.409   2.292 -1.3889 -1.3005  1.4486
 1277SOL     OW 5430   1.329   3.046   4.704  0.3040 -0.2015 -0.3105
 1277SOL    HW1 5431   1.376   3.000   4.780  0.6873  0.1856 -0.3100
 1277SOL    HW2 5432   1.251   3.097   4.739  0.1379 -0.4894 -0.2542
 1278SOL     OW 5433   4.120   3.077   0.078 -0.5455  0.3251  0.2119
 1278SOL    HW1 5434   4.065   3.067   0.161 -0.2722  1.4254  0.5405
 1278SOL    HW2 5435   4.216   3.056   0.100 -0.3982  1.0565  0.2936
 1279SOL     OW 5436   1.787   5.303   1.261  0.9249 -0.6088 -0.5815
 1279SOL    HW1 5437   1.858   5.264   1.319  0.4671  1.3539  1.4305
 1279SOL    HW2 5438   1.805   5.278   1.166  2.4959 -2.7748  0.1906
 1280SOL     OW 5439   3.435   2.878   0.401 -0.0337  0.5782 -0.0500
 1280SOL    HW1 5440   3.492   2.809   0.355 -1.0645 -1.1413  1.1244
 1280SOL    HW2 5441   3.462   2.886   0.496 -1.9036 -0.5199  0.6192
 1281SOL     OW 5442   5.566   1.180   3.999 -0.4204 -0.1230 -0.5858
 1281SOL    HW1 5443   5.471   1.207   4.014 -0.4874  0.3425 -1.7384
 1281SOL    HW2 5444   5.576   1.143   3.907  0.0553 -2.3792  0.3015
 1282SOL     OW 5445   0.771   1.424   6.847  0.4580  0.1120 -0.3480
 1282SOL    HW1 5446   0.696   1.403   6.908  0.9257  0.0584  0.2127
 1282SOL    HW2 5447   0.852   1.449   6.900  1.1551 -0.8874 -0.9162
 1283SOL     OW 5448   6.362   0.773   5.942  0.1618 -0.3240 -0.2570
 1283SOL    HW1 5449   6.434   0.840   5.929 -0.2781  0.0734 -0.6886
 1283SOL    HW2 5450   6.300   0.804   6.014  0.1107 -0.4005 -0.2674
 1284SOL     OW 5451   5.687   4.889   5.557 -0.3303 -0.5796  0.2950
 1284SOL    HW1 5452   5.690   4.937   5.645 -0.9158 -1.3589  0.7469
 1284SOL    HW2 5453   5.746   4.808   5.562 -0.0681 -0.4155 -0.1570
 1285SOL     OW 5454   0.585   5.854   1.587 -0.7346 -0.8152  0.0046
 1285SOL    HW1 5455   0.592   5.952   1.570 -0.3039 -0.9836 -0.8275
 1285SOL    HW2 5456   0.671   5.810   1.562 -0.1789 -1.1507  2.2557
 1286SOL     OW 5457   6.686   2.325   6.256 -0.0230 -0.3297 -0.2193
 1286SOL    HW1 5458   6.588   2.342   6.267 -0.2192 -1.2064 -0.5331
 1286SOL    HW2 5459   6.703   2.286   6.166  0.7726  0.9106 -0.6318
 1287SOL     OW 5460   5.502   5.869   6.814 -0.3924  0.6588  0.2060
 1287SOL    HW1 5461   5.481   5.870   6.912 -3.2112 -1.0925 -0.2461
 1287SOL    HW2 5462   5.452   5.944   6.769 -0.0376  0.7494 -0.0407
 1288SOL     OW 5463   1.858   2.459   6.129 -0.0958  0.2158 -0.0745
 1288SOL    HW1 5464   1.907   2.546   6.133  0.2677 -0.0142  0.6266
 1288SOL    HW2 5465   1.869   2.410   6.216  0.5908 -1.0075 -0.8055
 1289SOL     OW 5466   5.880   6.515   5.759  0.2321 -0.4976  0.0094
 1289SOL    HW1 5467   5.857   6.419   5.742 -0.6371 -0.0754 -1.4316
 1289SOL    HW2 5468   5.938   6.522   5.839  0.2690 -2.2251  0.1691
 1290SOL     OW 5469   4.442   0.808   3.712  0.2871 -0.1511 -0.4368
 1290SOL    HW1 5470   4.370   0.757   3.665  2.0387 -1.9846 -1.2807
 1290SOL    HW2 5471   4.476   0.755   3.789 -0.4131  1.4753  1.0635
 1291SOL     OW 5472   4.760   0.858   6.614  0.0473 -0.1378  0.3769
 1291SOL    HW1 5473   4.782   0.909   6.530 -1.1987 -1.6981 -0.9617
 1291SOL    HW2 5474   4.834   0.870   6.680 -0.2967  3.6669  0.3211
 1292SOL     OW 5475   3.145   1.243   5.180 -0.3267  0.1957 -0.2152
 1292SOL    HW1 5476   3.236   1.250   5.222  0.0874  0.0700 -1.0807
 1292SOL    HW2 5477   3.083   1.309   5.223 -0.1178 -0.4297  1.0984
 1293SOL     OW 5478   0.631   4.627   0.545  0.2293 -0.6547  0.2853
 1293SOL    HW1 5479   0.690   4.663   0.473  0.7379 -0.7320  0.6570
 1293SOL    HW2 5480   0.577   4.551   0.510 -0.0904 -0.1987 -0.2220
 1294SOL     OW 5481   1.628   2.640   5.387  0.0759 -0.0069  0.1566
 1294SOL    HW1 5482   1.706   2.669   5.333  0.5256 -1.6962 -0.1567
 1294SOL    HW2 5483   1.621   2.540   5.386 -0.5085 -0.0577  2.3592
 1295SOL     OW 5484   3.338   0.025   1.192 -0.0904  0.2118 -0.1277
 1295SOL    HW1 5485   3.316   0.068   1.104  2.6329 -2.7343 -2.5391
 1295SOL    HW2 5486   3.421   0.066   1.229  1.0174 -1.0744 -1.0805
 1296SOL     OW 5487   6.012   3.990   2.763 -0.1712 -0.8928  0.0171
 1296SOL    HW1 5488   5.975   3.897   2.755 -0.3447 -0.7634 -0.7459
 1296SOL    HW2 5489   6.111   3.987   2.758 -0.2207 -0.9307 -1.2678
 1297SOL     OW 5490   3.850   6.828   0.396 -0.4304  0.6008  0.2105
 1297SOL    HW1 5491   3.781   6.786   0.337 -0.5076 -1.9039  1.9184
 1297SOL    HW2 5492   3.831   6.805   0.491  2.6529 -0.0529  0.7683
 1298SOL     OW 5493   4.668   3.307   0.222 -0.2532 -0.0714  0.4163
 1298SOL    HW1 5494   4.737   3.292   0.293  0.9523 -0.8666 -0.8683
 1298SOL    HW2 5495   4.706   3.366   0.150 -1.0197 -0.2605 -0.1553
 1299SOL     OW 5496   5.282   2.633   6.385 -0.1617 -0.1622  0.2200
 1299SOL    HW1 5497   5.379   2.637   6.410 -0.4563  1.6520  1.2294
 1299SOL    HW2 5498   5.229   2.601   6.464 -0.4104 -1.2395 -0.3571
 1300SOL     OW 5499   5.452   2.139   4.058 -0.2869  0.5211  0.5254
 1300SOL    HW1 5500   5.537   2.096   4.088 -0.1859  1.3517  1.5176
 1300SOL    HW2 5501   5.469   2.194   3.976 -0.4049 -1.2202 -0.7131
 1301SOL     OW 5502   6.868   0.847   1.690 -0.1004  0.0782 -0.3268
 1301SOL    HW1 5503   6.967   0.859   1.699  0.4836 -4.0045  0.4613
 1301SOL    HW2 5504   6.844   0.840   1.593  0.0348  2.6521 -0.6151
 1302SOL     OW 5505   6.914   3.511   2.182 -0.0205  0.1645  0.3790
 1302SOL    HW1 5506   6.854   3.498   2.261 -1.2252  1.7779 -0.1967
 1302SOL    HW2 5507   6.884   3.453   2.107 -0.2952  0.2732  0.4022
 1303SOL     OW 5508   3.401   0.317   2.979 -0.3727 -0.0202 -0.3885
 1303SOL    HW1 5509   3.327   0.318   2.911 -3.3407 -2.6345  2.4418
 1303SOL    HW2 5510   3.398   0.402   3.032 -1.2602 -0.0191 -0.4272
 1304SOL     OW 5511   0.342   6.629   1.187  0.3749  0.7747  0.3933
 1304SOL    HW1 5512   0.325   6.650   1.091 -0.2226 -0.2306  0.2653
 1304SOL    HW2 5513   0.440   6.639   1.206  0.7593 -0.5270 -0.7242
 1305SOL     OW 5514   6.205   0.305   1.955 -0.5769  0.1617 -0.1171
 1305SOL    HW1 5515   6.151   0.373   1.906  1.3603  2.0571  0.2418
 1305SOL    HW2 5516   6.187   0.312   2.053 -1.2718 -0.7080 -0.1707
 1306SOL     OW 5517   2.610   0.208   1.125  0.2088 -0.7442 -0.1720
 1306SOL    HW1 5518   2.575   0.134   1.067  0.2324 -1.5413  0.7929
 1306SOL    HW2 5519   2.569   0.295   1.098  1.1337 -0.8830 -2.1601
 1307SOL     OW 5520   3.819   4.575   1.305 -0.1327  0.5088  0.0766
 1307SOL    HW1 5521   3.800   4.656   1.361  1.7600  0.7245  0.4636
 1307SOL    HW2 5522   3.734   4.545   1.261 -1.4260  1.1144  2.0062
 1308SOL     OW 5523   4.585   6.969   6.157  0.3810 -0.1185  0.4590
 1308SOL    HW1 5524   4.587   7.010   6.248  0.6080  0.1477  0.3379
 1308SOL    HW2 5525   4.614   6.873   6.162 -0.3423 -0.3254  0.7717
 1309SOL     OW 5526   6.689   3.948   0.048 -0.1609 -0.7794  0.3386
 1309SOL    HW1 5527   6.694   4.046   0.071  1.2376 -0.8024  0.2371
 1309SOL    HW2 5528   6.652   3.898   0.126  1.5342 -0.4578  1.4030
 1310SOL     OW 5529   1.188   0.773   3.532 -0.5621  0.0865  0.0132
 1310SOL    HW1 5530   1.261   0.821   3.579  0.0066 -1.4063  0.7323
 1310SOL    HW2 5531   1.100   0.815   3.554  0.0726  2.2390 -1.2972
 1311SOL     OW 5532   2.047   5.929   1.246  0.2001  0.5039  0.5237
 1311SOL    HW1 5533   1.984   5.940   1.323  0.1664  0.7667  0.4585
 1311SOL    HW2 5534   1.996   5.936   1.160 -0.2090 -2.1532  0.4444
 1312SOL     OW 5535   0.624   6.423   3.782 -0.0791 -0.8210 -0.0686
 1312SOL    HW1 5536   0.596   6.493   3.717 -1.0857  0.2708  1.4679
 1312SOL    HW2 5537   0.547   6.362   3.802  0.6870 -2.2184 -1.1197
 1313SOL     OW 5538   6.791   3.450   2.435  0.2817 -0.0988 -0.0978
 1313SOL    HW1 5539   6.836   3.530   2.475  0.0871  0.4776 -1.0067
 1313SOL    HW2 5540   6.754   3.393   2.509 -0.2200  1.0248  0.5498
 1314SOL     OW 5541   4.808   4.554   6.788  0.1085 -0.4990 -0.3008
 1314SOL    HW1 5542   4.900   4.557   6.749 -0.0179  0.5802 -0.5353
 1314SOL    HW2 5543   4.759   4.637   6.765 -0.4746 -0.4668  0.9595
 1315SOL     OW 5544   5.519   6.688   2.840 -0.3800  0.2442  0.0308
 1315SOL    HW1 5545   5.511   6.639   2.927  1.4096 -2.9771 -1.4231
 1315SOL    HW2 5546   5.592   6.756   2.847 -1.5449  1.3958  1.5424
 1316SOL     OW 5547   0.157   5.366   1.279  0.1566 -0.3675  0.1975
 1316SOL    HW1 5548   0.129   5.383   1.185  0.8411 -0.1270  0.0277
 1316SOL    HW2 5549   0.111   5.431   1.340  1.5517  1.1127 -0.2665
 1317SOL     OW 5550   1.845   4.310   1.927 -0.0685  0.6437  0.5840
 1317SOL    HW1 5551   1.855   4.363   1.843  1.2241 -2.0329 -1.0693
 1317SOL    HW2 5552   1.747   4.301   1.949 -0.6593 -0.7861 -2.1998
 1318SOL     OW 5553   0.286   5.081   5.589 -0.6213  0.3050 -0.6722
 1318SOL    HW1 5554   0.206   5.039   5.548 -1.9578  2.9500 -0.9764
 1318SOL    HW2 5555   0.318   5.156   5.531  2.6299 -1.1377 -0.9740
 1319SOL     OW 5556   6.479   5.097   5.013  0.6253  0.0757 -0.4707
 1319SOL    HW1 5557   6.403   5.052   4.966 -1.3902  1.3026  1.4415
 1319SOL    HW2 5558   6.472   5.083   5.111  1.9235  1.6260 -0.0951
 1320SOL     OW 5559   4.312   5.225   6.695 -0.2805 -0.5410  0.5371
 1320SOL    HW1 5560   4.322   5.307   6.750 -0.4041 -0.5041  0.5053
 1320SOL    HW2 5561   4.372   5.230   6.615 -0.3809 -0.4262  0.4691
 1321SOL     OW 5562   0.353   0.133   4.378 -0.1144 -0.3707  0.1494
 1321SOL    HW1 5563   0.429   0.119   4.315 -0.2110  0.0860 -0.0751
 1321SOL    HW2 5564   0.267   0.131   4.328 -0.1972 -0.1139  0.2778
 1322SOL     OW 5565   3.074   2.265   6.055 -0.2256 -0.0870 -0.2360
 1322SOL    HW1 5566   3.110   2.355   6.082  2.0618 -1.3596  1.2727
 1322SOL    HW2 5567   2.989   2.247   6.106 -0.8396  1.2657 -0.7260
 1323SOL     OW 5568   0.466   4.526   3.952  0.0558  0.2204  0.0055
 1323SOL    HW1 5569   0.445   4.597   3.885 -0.4250  0.5006  0.4509
 1323SOL    HW2 5570   0.562   4.534   3.979  0.0611  0.5618 -0.1069
 1324SOL     OW 5571   6.730   1.613   0.576 -0.5248 -0.1625 -0.4428
 1324SOL    HW1 5572   6.674   1.683   0.532  1.8887  1.2073 -1.5912
 1324SOL    HW2 5573   6.718   1.526   0.529 -0.8634  0.3638 -1.3550
 1325SOL     OW 5574   1.610   3.221   3.896 -0.0491  0.2181  0.2220
 1325SOL    HW1 5575   1.622   3.252   3.990  2.4270  1.0773 -0.3152
 1325SOL    HW2 5576   1.533   3.270   3.855  1.1456  2.6250  0.6942
 1326SOL     OW 5577   5.412   4.149   1.501  0.1411  0.4237  0.5276
 1326SOL    HW1 5578   5.347   4.211   1.457 -1.0737 -0.5402  0.9020
 1326SOL    HW2 5579   5.394   4.055   1.473  1.6773  0.1658  0.3046
 1327SOL     OW 5580   3.585   5.167   6.632 -0.1494 -0.0468  0.0760
 1327SOL    HW1 5581   3.661   5.177   6.568  0.2843  0.8031  0.6931
 1327SOL    HW2 5582   3.542   5.078   6.619  1.3044 -0.7929  0.0880
 1328SOL     OW 5583   6.023   0.097   4.809 -0.6424 -0.0326  0.0281
 1328SOL    HW1 5584   5.973   0.109   4.723 -1.3544 -1.9807  0.1098
 1328SOL    HW2 5585   5.959   0.066   4.880  0.0226  1.0766  1.1500
 1329SOL     OW 5586   5.767   2.949   1.938 -0.2257  0.3702 -0.2785
 1329SOL    HW1 5587   5.819   2.879   1.889  0.2023 -1.0552  2.0582
 1329SOL    HW2 5588   5.710   2.905   2.008 -1.0687  2.2602  0.2715
 1330SOL     OW 5589   2.874   4.790   5.894 -0.0428  0.4191 -0.2482
 1330SOL    HW1 5590   2.796   4.730   5.875  0.4678  0.1507 -1.6277
 1330SOL    HW2 5591   2.917   4.762   5.980  0.2475 -1.3059 -0.9083
 1331SOL     OW 5592   3.387   0.826   3.437  0.1148 -0.5135  0.4362
 1331SOL    HW1 5593   3.398   0.809   3.535  1.2847 -1.2637  0.1990
 1331SOL    HW2 5594   3.472   0.864   3.400 -0.1944 -0.5755 -0.3584
 1332SOL     OW 5595   0.022   0.759   6.849 -0.1671  0.2637 -0.0469
 1332SOL    HW1 5596  -0.020   0.819   6.915 -0.2338  0.5239 -0.3237
 1332SOL    HW2 5597   0.096   0.707   6.892 -1.2047 -0.7030  0.6182
 1333SOL     OW 5598   5.191   3.810   6.476  0.4449  0.0302  0.8689
 1333SOL    HW1 5599   5.288   3.789   6.481  0.8833  1.7667  0.4836
 1333SOL    HW2 5600   5.178   3.890   6.417 -1.2671 -0.4276  0.5676
 1334SOL     OW 5601   1.616   0.449   3.576 -0.5445  0.2401 -0.2882
 1334SOL    HW1 5602   1.679   0.502   3.633 -1.2686 -0.7255  1.4907
 1334SOL    HW2 5603   1.667   0.383   3.521  0.0297 -0.9769  1.6119
 1335SOL     OW 5604   3.193   3.914   5.937 -0.2212  0.3929  0.3675
 1335SOL    HW1 5605   3.118   3.967   5.897 -1.1614  0.0629  1.6308
 1335SOL    HW2 5606   3.278   3.935   5.888 -1.4851 -1.0589 -2.7829
 1336SOL     OW 5607   2.676   0.577   3.992  0.0439  0.4392 -0.2525
 1336SOL    HW1 5608   2.755   0.585   3.930  0.7912 -0.0831  0.6019
 1336SOL    HW2 5609   2.634   0.667   4.004  1.9609  1.2179  1.1156
 1337SOL     OW 5610   6.132   3.877   2.486  0.0043  0.1053  0.8194
 1337SOL    HW1 5611   6.171   3.874   2.394 -0.9185  3.5059  0.1844
 1337SOL    HW2 5612   6.033   3.861   2.480 -0.1231  0.7492  1.1559
 1338SOL     OW 5613   6.550   5.370   2.615  0.3388  0.4619  0.0174
 1338SOL    HW1 5614   6.649   5.377   2.601  0.0887  1.1434 -1.7713
 1338SOL    HW2 5615   6.509   5.324   2.536 -0.9094  1.4387  0.0637
 1339SOL     OW 5616   2.592   0.466   1.828  0.4603  0.0397 -0.2411
 1339SOL    HW1 5617   2.678   0.418   1.810  0.9907  1.0665 -0.5221
 1339SOL    HW2 5618   2.516   0.402   1.820  1.1722 -0.8271 -0.2498
 1340SOL     OW 5619   4.886   3.291   0.435  0.0128 -0.0885 -0.3771
 1340SOL    HW1 5620   4.895   3.204   0.386  0.0298 -0.3980  0.1644
 1340SOL    HW2 5621   4.862   3.272   0.531 -0.3116  0.5157 -0.3383
 1341SOL     OW 5622   4.860   0.683   6.952 -0.0518  0.0837 -0.2235
 1341SOL    HW1 5623   4.891   0.597   6.990  0.3954 -0.9577 -2.7380
 1341SOL    HW2 5624   4.768   0.704   6.985  0.4580 -0.5014  1.6528
 1342SOL     OW 5625   0.802   5.007   2.352  0.6417 -0.8794 -0.3399
 1342SOL    HW1 5626   0.791   4.968   2.443  1.3258 -1.0348 -0.3143
 1342SOL    HW2 5627   0.757   5.096   2.348  0.6762 -0.8371  0.1710
 1343SOL     OW 5628   0.653   3.702   0.339  0.0828 -0.2241 -0.5088
 1343SOL    HW1 5629   0.638   3.632   0.269 -0.4323 -0.2500 -0.3695
 1343SOL    HW2 5630   0.688   3.785   0.295 -2.1132  0.4436 -1.0841
 1344SOL     OW 5631   3.651   2.510   4.675 -0.6719  0.1378 -0.1174
 1344SOL    HW1 5632   3.684   2.478   4.763 -0.6808 -0.8279 -0.4504
 1344SOL    HW2 5633   3.726   2.551   4.624 -1.1149  2.8069  1.2075
 1345SOL     OW 5634   5.046   5.011   0.202 -0.1975  0.0643 -0.0376
 1345SOL    HW1 5635   4.980   5.014   0.127 -2.9598 -1.5331  2.1364
 1345SOL    HW2 5636   5.115   4.941   0.184 -1.7526 -1.4197 -0.4362
 1346SOL     OW 5637   1.298   6.261   5.300  0.2984 -0.2506 -0.3810
 1346SOL    HW1 5638   1.390   6.224   5.309  0.2897 -0.0139  0.7364
 1346SOL    HW2 5639   1.301   6.350   5.254  0.6887  0.0346  0.1931
 1347SOL     OW 5640   0.321   2.891   5.904 -0.4818  0.0696  0.3790
 1347SOL    HW1 5641   0.416   2.861   5.902 -0.0356  1.3956  0.8433
 1347SOL    HW2 5642   0.296   2.919   5.996 -0.4841  2.2529 -0.2447
 1348SOL     OW 5643   0.326   6.606   5.113  0.0358 -0.4996 -0.0282
 1348SOL    HW1 5644   0.226   6.608   5.115 -0.1378 -0.7831 -3.2257
 1348SOL    HW2 5645   0.360   6.700   5.103  0.0191 -0.5094 -0.1795
 1349SOL     OW 5646   4.012   2.269   2.332  0.3879 -0.3033  0.3306
 1349SOL    HW1 5647   4.047   2.311   2.416 -0.1488 -0.8059  0.8151
 1349SOL    HW2 5648   3.914   2.285   2.325  0.4216 -0.3076 -0.1775
 1350SOL     OW 5649   2.118   6.573   5.715  0.1687  0.9565  0.6153
 1350SOL    HW1 5650   2.170   6.492   5.743 -1.4473 -1.0336 -1.7110
 1350SOL    HW2 5651   2.036   6.582   5.771  0.0852  0.6517  0.5438
 1351SOL     OW 5652   5.548   2.784   3.383  0.3225 -0.1425  0.7590
 1351SOL    HW1 5653   5.517   2.716   3.317 -0.6520  0.0697  0.9824
 1351SOL    HW2 5654   5.644   2.767   3.406  0.6154 -0.3363 -0.5540
 1352SOL     OW 5655   4.575   0.848   3.479 -0.5519 -0.1512 -0.0742
 1352SOL    HW1 5656   4.520   0.848   3.562  0.0387 -0.3033  0.3234
 1352SOL    HW2 5657   4.521   0.883   3.403 -1.5718 -1.3600  0.0597
 1353SOL     OW 5658   0.204   0.073   5.832 -0.2307 -0.0650 -0.2324
 1353SOL    HW1 5659   0.137   0.074   5.757  0.8348 -1.6161 -1.2534
 1353SOL    HW2 5660   0.219  -0.021   5.862  1.1150  0.3168  0.3316
 1354SOL     OW 5661   5.704   6.556   3.719  0.2378  0.0658 -0.1907
 1354SOL    HW1 5662   5.617   6.558   3.769  1.8102  1.6143  2.7270
 1354SOL    HW2 5663   5.735   6.461   3.711 -1.1598 -0.4102 -0.2784
 1355SOL     OW 5664   1.966   4.722   6.869 -0.2174  0.2868 -0.5601
 1355SOL    HW1 5665   1.943   4.794   6.804  1.5103  0.0998 -1.4315
 1355SOL    HW2 5666   2.039   4.754   6.930 -3.1324  1.2087  2.7283
 1356SOL     OW 5667   6.700   3.190   6.137  0.0386 -0.4593 -0.0758
 1356SOL    HW1 5668   6.639   3.112   6.146  0.5947 -0.6785  2.4067
 1356SOL    HW2 5669   6.793   3.158   6.117 -0.1857 -0.2446 -1.6035
 1357SOL     OW 5670   4.255   0.808   2.720 -0.2798 -0.4297 -0.0768
 1357SOL    HW1 5671   4.252   0.710   2.740 -1.6973 -0.8126 -1.9310
 1357SOL    HW2 5672   4.242   0.823   2.622  1.8286  1.5603 -0.1305
 1358SOL     OW 5673   5.420   0.807   4.047 -0.5844 -0.9592  0.6575
 1358SOL    HW1 5674   5.337   0.773   4.093 -1.7966  1.7801  0.7157
 1358SOL    HW2 5675   5.408   0.800   3.948 -1.2592  0.1245  0.6447
 1359SOL     OW 5676   5.064   0.051   4.308  0.6907 -0.2031  0.7016
 1359SOL    HW1 5677   5.030   0.098   4.390 -1.5541 -0.3618 -0.0637
 1359SOL    HW2 5678   5.129   0.110   4.260  0.1324  0.9157  1.2856
 1360SOL     OW 5679   2.970   2.024   2.733  0.0568  0.0622 -0.5263
 1360SOL    HW1 5680   3.035   1.975   2.791 -0.8528 -1.2594 -0.5865
 1360SOL    HW2 5681   2.922   2.093   2.788  0.9564  0.5271 -0.3089
 1361SOL     OW 5682   3.931   5.259   4.179  0.3157  0.2230 -0.1761
 1361SOL    HW1 5683   3.839   5.296   4.195 -0.2244 -1.8055  2.2280
 1361SOL    HW2 5684   3.926   5.187   4.110  0.0690  0.0513  0.0180
 1362SOL     OW 5685   0.347   1.398   5.521 -0.7178  0.4082  0.2591
 1362SOL    HW1 5686   0.330   1.300   5.531  0.3316 -0.0088 -1.5829
 1362SOL    HW2 5687   0.339   1.423   5.425 -0.1328  1.9665  0.5925
 1363SOL     OW 5688   6.850   1.879   1.961 -0.8714  1.0724  0.8215
 1363SOL    HW1 5689   6.870   1.883   2.059  1.0938  4.0009  0.4246
 1363SOL    HW2 5690   6.902   1.804   1.919 -1.8592 -0.3092  1.9940
 1364SOL     OW 5691   0.100   2.376   2.529  0.1486 -0.0214  0.1192
 1364SOL    HW1 5692   0.152   2.461   2.522  0.0414  0.1434  1.2271
 1364SOL    HW2 5693   0.163   2.298   2.531  0.2968  0.1005  0.2165
 1365SOL     OW 5694   0.810   4.149   1.211 -0.3080 -0.3342  0.3512
 1365SOL    HW1 5695   0.884   4.168   1.275 -0.8130 -0.2835  0.9300
 1365SOL    HW2 5696   0.728   4.199   1.239 -0.2187  0.6062 -0.9846
 1366SOL     OW 5697   0.962   5.133   1.006  0.5806 -0.4474 -0.9612
 1366SOL    HW1 5698   0.976   5.138   1.105 -1.2313 -0.2999 -0.6833
 1366SOL    HW2 5699   0.865   5.120   0.987  0.7787  0.4820 -2.7672
 1367SOL     OW 5700   6.107   6.075   1.119  0.2534  0.2536  0.7700
 1367SOL    HW1 5701   6.102   6.016   1.199  0.2083 -0.2810  0.3771
 1367SOL    HW2 5702   6.042   6.043   1.050 -0.2863  1.1879  0.8277
 1368SOL     OW 5703   0.176   6.375   6.155 -0.3303  0.2234 -0.2054
 1368SOL    HW1 5704   0.186   6.364   6.056 -0.1533  1.3431 -0.3319
 1368SOL    HW2 5705   0.179   6.286   6.200 -0.9339 -0.3455 -1.2533
 1369SOL     OW 5706   4.071   2.869   5.429  0.7203 -0.0205  0.2353
 1369SOL    HW1 5707   4.009   2.800   5.393 -0.4043 -0.1793  2.3322
 1369SOL    HW2 5708   4.054   2.956   5.383 -0.9069 -0.1251  0.5839
 1370SOL     OW 5709   2.461   6.027   2.592  0.4572 -0.0468 -1.4079
 1370SOL    HW1 5710   2.378   6.031   2.647  0.0713  0.7458 -2.0173
 1370SOL    HW2 5711   2.472   5.935   2.555  0.6828 -0.5637 -0.0909
 1371SOL     OW 5712   3.489   5.413   2.995 -0.3428  0.3909  0.1543
 1371SOL    HW1 5713   3.588   5.421   2.982 -0.3851  0.1611 -0.3176
 1371SOL    HW2 5714   3.442   5.463   2.922 -0.5767  0.4224  0.3254
 1372SOL     OW 5715   6.265   3.832   4.657 -0.1012  0.1436 -0.1999
 1372SOL    HW1 5716   6.279   3.750   4.601  0.9109  1.3500 -1.7982
 1372SOL    HW2 5717   6.350   3.884   4.662 -1.0670  1.8366 -0.4564
 1373SOL     OW 5718   5.592   6.155   0.687 -0.2242  0.3636 -0.6457
 1373SOL    HW1 5719   5.681   6.140   0.730 -1.4386  1.6467  2.6825
 1373SOL    HW2 5720   5.539   6.070   0.689 -0.0006  0.2310 -0.1941
 1374SOL     OW 5721   5.813   0.321   1.191  0.1269 -0.0237  0.7078
 1374SOL    HW1 5722   5.725   0.275   1.175  1.2969 -1.9330 -0.6270
 1374SOL    HW2 5723   5.815   0.407   1.141 -0.8688 -0.1277  0.4674
 1375SOL     OW 5724   0.734   1.113   0.124  0.5656 -0.2202  0.1160
 1375SOL    HW1 5725   0.827   1.084   0.101  0.9232  0.8599  0.1294
 1375SOL    HW2 5726   0.707   1.073   0.212  1.7274  0.8711  1.0127
 1376SOL     OW 5727   5.447   3.154   5.342  0.6994  0.6563  0.1270
 1376SOL    HW1 5728   5.360   3.202   5.342  0.8150  0.8735 -0.4465
 1376SOL    HW2 5729   5.447   3.083   5.412 -1.1353 -1.5519 -1.9342
 1377SOL     OW 5730   4.799   5.917   0.121  0.6385 -0.6509 -0.1030
 1377SOL    HW1 5731   4.842   5.908   0.210  1.7436 -0.6679 -0.6208
 1377SOL    HW2 5732   4.799   5.828   0.075  1.4142 -0.3580 -0.6982
 1378SOL     OW 5733   4.291   3.619   0.902 -0.4645 -0.0866 -0.5037
 1378SOL    HW1 5734   4.233   3.626   0.821  1.1318 -0.0296 -1.6793
 1378SOL    HW2 5735   4.245   3.562   0.971 -2.1608  0.4551 -1.1334
 1379SOL     OW 5736   6.659   4.957   1.154 -0.3011  0.3501  0.3092
 1379SOL    HW1 5737   6.726   4.884   1.139  0.6712  1.2556  0.0380
 1379SOL    HW2 5738   6.680   5.003   1.241 -1.2185 -0.0107  0.7297
 1380SOL     OW 5739   3.075   4.510   0.622  0.1902 -0.1228 -0.4589
 1380SOL    HW1 5740   3.112   4.566   0.697  0.0921 -0.4006 -0.2018
 1380SOL    HW2 5741   3.071   4.565   0.539  1.8167 -0.2871 -0.6645
 1381SOL     OW 5742   0.413   5.919   6.347  0.8932 -0.0029  0.0979
 1381SOL    HW1 5743   0.461   5.833   6.327  1.9581  0.9243 -1.6392
 1381SOL    HW2 5744   0.467   5.973   6.412  1.2506  0.1955 -0.3546
 1382SOL     OW 5745   4.284   3.929   5.664 -0.8679 -0.6879 -0.3139
 1382SOL    HW1 5746   4.305   3.905   5.758 -1.1769  0.2533  0.0040
 1382SOL    HW2 5747   4.335   4.012   5.638 -2.3021  0.2337 -0.3066
 1383SOL     OW 5748   6.514   6.115   2.114 -0.4394 -0.1336 -0.3529
 1383SOL    HW1 5749   6.605   6.140   2.147 -0.8500  0.1559  0.5845
 1383SOL    HW2 5750   6.503   6.016   2.118  0.3786 -0.3352 -1.9535
 1384SOL     OW 5751   5.395   3.726   0.723  0.5387 -0.0372  0.5028
 1384SOL    HW1 5752   5.332   3.669   0.776  0.0704 -0.3779 -0.4004
 1384SOL    HW2 5753   5.476   3.747   0.779  0.3663 -0.9417  1.1175
 1385SOL     OW 5754   5.926   5.694   5.294 -0.1901 -0.0279  0.0834
 1385SOL    HW1 5755   5.863   5.627   5.257 -0.2402  0.0108  0.0993
 1385SOL    HW2 5756   5.932   5.772   5.233  0.2844 -0.2872 -0.2122
 1386SOL     OW 5757   0.614   5.375   3.126 -0.2625 -0.1024 -0.5474
 1386SOL    HW1 5758   0.712   5.352   3.124 -0.1992  0.1837 -0.7711
 1386SOL    HW2 5759   0.563   5.298   3.164  0.0889 -0.1145 -0.0850
 1387SOL     OW 5760   3.181   1.133   2.727 -0.2839 -0.4753  0.0707
 1387SOL    HW1 5761   3.100   1.078   2.747 -1.0416  0.4101 -0.4985
 1387SOL    HW2 5762   3.257   1.072   2.705 -0.7974 -1.3231  0.5734
 1388SOL     OW 5763   2.220   5.423   5.160  0.6212 -0.2133  0.5075
 1388SOL    HW1 5764   2.169   5.442   5.244 -0.2101 -2.4420  0.5629
 1388SOL    HW2 5765   2.245   5.509   5.116 -1.2180  0.9770  1.6644
 1389SOL     OW 5766   1.638   5.387   3.211 -0.1010 -0.8671 -0.3563
 1389SOL    HW1 5767   1.728   5.345   3.203 -0.0575 -0.7869 -0.3031
 1389SOL    HW2 5768   1.649   5.483   3.238 -0.2523 -1.3809  1.6871
 1390SOL     OW 5769   0.148   2.119   4.872 -0.3497  0.5320 -0.5026
 1390SOL    HW1 5770   0.203   2.173   4.807 -0.4776 -0.6182 -1.6134
 1390SOL    HW2 5771   0.122   2.177   4.949  2.3431  1.1640  0.0500
 1391SOL     OW 5772   2.718   4.143   5.699 -0.5211 -0.0326 -0.2317
 1391SOL    HW1 5773   2.636   4.186   5.737 -0.8068 -1.2005  0.5221
 1391SOL    HW2 5774   2.693   4.061   5.649 -0.0121  0.8363 -1.9902
 1392SOL     OW 5775   5.227   4.918   6.044 -0.1035 -0.1174 -0.1550
 1392SOL    HW1 5776   5.243   4.949   6.138  0.7841  1.2783 -0.7416
 1392SOL    HW2 5777   5.185   4.991   5.991  0.3717 -0.5270 -1.1169
 1393SOL     OW 5778   2.973   4.705   6.130 -0.2651  0.1259  0.2687
 1393SOL    HW1 5779   2.976   4.606   6.120  1.4254  0.0443  1.2888
 1393SOL    HW2 5780   3.053   4.736   6.182 -1.0262  1.9706  0.4078
 1394SOL     OW 5781   6.496   2.619   0.823  0.0099  0.0042 -0.1165
 1394SOL    HW1 5782   6.591   2.589   0.828 -0.0212 -0.1481 -0.4037
 1394SOL    HW2 5783   6.435   2.541   0.838 -0.0757  0.2544  0.9128
 1395SOL     OW 5784   0.858   0.137   2.478 -0.3916 -0.2703 -0.2331
 1395SOL    HW1 5785   0.816   0.163   2.565 -0.9483  0.5862 -0.7421
 1395SOL    HW2 5786   0.787   0.129   2.408  0.3506  2.1955 -1.3517
 1396SOL     OW 5787   6.547   0.965   6.673  0.2859  0.2329  0.4191
 1396SOL    HW1 5788   6.533   0.867   6.687  0.2705  0.3893  1.6144
 1396SOL    HW2 5789   6.635   0.981   6.629  1.0937 -0.2355  1.8111
 1397SOL     OW 5790   1.831   1.025   4.256 -0.3195 -0.2614  1.0362
 1397SOL    HW1 5791   1.890   0.985   4.187  1.5584  0.9363  1.8630
 1397SOL    HW2 5792   1.792   0.953   4.313  0.9732 -1.0477  0.9558
 1398SOL     OW 5793   1.526   6.974   3.465 -0.2756 -0.3790  0.1992
 1398SOL    HW1 5794   1.553   6.985   3.561 -1.4253 -1.1708  0.6361
 1398SOL    HW2 5795   1.523   7.064   3.421 -0.3862  0.0658  1.0902
 1399SOL     OW 5796   6.487   1.892   5.853 -0.1399  0.3336  0.2084
 1399SOL    HW1 5797   6.486   1.792   5.853 -1.6385  0.3154 -0.6926
 1399SOL    HW2 5798   6.396   1.926   5.827 -0.1365  1.9417  2.0882
 1400SOL     OW 5799   5.877   4.203   0.647 -0.2251  0.7404 -0.1204
 1400SOL    HW1 5800   5.965   4.239   0.676 -0.2344  1.7192 -1.2522
 1400SOL    HW2 5801   5.877   4.104   0.657  1.0636  0.7062 -0.2826
 1401SOL     OW 5802   1.682   2.001   0.995  0.2327 -0.0863 -0.2866
 1401SOL    HW1 5803   1.683   1.931   0.923  0.1563 -1.1977  0.7606
 1401SOL    HW2 5804   1.710   1.960   1.082 -0.5278  1.0166  0.5113
 1402SOL     OW 5805   3.504   1.097   2.275  0.3507  0.1196  0.3050
 1402SOL    HW1 5806   3.603   1.092   2.288  0.3615 -0.4237  0.0183
 1402SOL    HW2 5807   3.476   1.040   2.198 -0.1023  0.8636 -0.1047
 1403SOL     OW 5808   6.874   5.054   2.461  0.3312 -0.4783  0.1141
 1403SOL    HW1 5809   6.848   4.960   2.437  0.9179 -0.9060  1.1316
 1403SOL    HW2 5810   6.887   5.061   2.559 -0.4837  0.8774  0.1531
 1404SOL     OW 5811   0.873   5.643   6.260  0.3473  0.3174 -0.2598
 1404SOL    HW1 5812   0.938   5.710   6.297  1.4426 -0.9962  0.2517
 1404SOL    HW2 5813   0.903   5.612   6.170 -0.5432  1.0144 -0.8205
 1405SOL     OW 5814   3.790   0.879   2.727  0.2898  0.3797 -0.4684
 1405SOL    HW1 5815   3.813   0.802   2.668  1.3987  0.4052 -0.0990
 1405SOL    HW2 5816   3.774   0.846   2.820 -0.6360  0.4356 -0.6016
 1406SOL     OW 5817   3.771   6.782   6.967  0.5370  0.9306  0.3501
 1406SOL    HW1 5818   3.839   6.843   6.927 -1.4520  3.0715  0.0328
 1406SOL    HW2 5819   3.728   6.827   7.046 -1.7811  0.4922 -0.5735
 1407SOL     OW 5820   5.576   6.995   4.301  0.2649  0.0685 -0.0779
 1407SOL    HW1 5821   5.628   6.999   4.216  0.6288 -0.1274  0.1318
 1407SOL    HW2 5822   5.530   6.907   4.309 -1.1289  0.7048 -0.8538
 1408SOL     OW 5823   2.509   5.107   6.055  0.0466  0.0612  0.1834
 1408SOL    HW1 5824   2.577   5.093   5.983  2.1453  0.5417  1.9594
 1408SOL    HW2 5825   2.553   5.101   6.145 -2.4347 -0.3874  1.4780
 1409SOL     OW 5826   6.888   3.861   1.008  0.4515 -0.0342  0.0506
 1409SOL    HW1 5827   6.956   3.932   0.991  0.6653 -0.5670 -1.4557
 1409SOL    HW2 5828   6.904   3.820   1.098 -0.3262  2.4931  1.4444
 1410SOL     OW 5829   6.322   5.646   1.572  0.5614  0.1073  0.0076
 1410SOL    HW1 5830   6.319   5.723   1.509  1.5935  1.8429  1.9346
 1410SOL    HW2 5831   6.240   5.647   1.630 -0.2079 -1.2573 -1.0033
 1411SOL     OW 5832   6.869   1.734   1.077 -0.3211  0.1100 -0.5355
 1411SOL    HW1 5833   6.845   1.648   1.032 -0.3112  0.6109 -1.5221
 1411SOL    HW2 5834   6.893   1.802   1.008 -0.9478  1.0968  0.1949
 1412SOL     OW 5835   3.718   5.343   3.296 -0.4920  0.8799 -0.2763
 1412SOL    HW1 5836   3.759   5.254   3.277  0.2359  1.1621 -0.0511
 1412SOL    HW2 5837   3.626   5.346   3.257  0.0693  0.6099 -1.6834
 1413SOL     OW 5838   3.892   6.926   1.456 -0.4233  0.0772 -0.0322
 1413SOL    HW1 5839   3.941   6.878   1.529  1.0596  0.2510 -0.8731
 1413SOL    HW2 5840   3.876   6.864   1.380 -0.2894  0.3756 -0.3090
 1414SOL     OW 5841   1.055   4.205   6.192  0.3424 -0.2302 -0.1668
 1414SOL    HW1 5842   1.082   4.142   6.264  2.1740  2.1915  1.4391
 1414SOL    HW2 5843   1.137   4.244   6.149 -0.6975  0.7033 -1.4014
 1415SOL     OW 5844   0.533   0.090   0.249  0.1051 -0.1626  0.2111
 1415SOL    HW1 5845   0.601   0.161   0.264  0.9986 -1.5666  3.7968
 1415SOL    HW2 5846   0.483   0.073   0.334 -1.3671 -2.5229 -1.0186
 1416SOL     OW 5847   3.746   4.629   4.861  0.2426 -0.1266 -0.0875
 1416SOL    HW1 5848   3.706   4.700   4.919  0.5208  0.3229 -0.4396
 1416SOL    HW2 5849   3.783   4.670   4.777 -0.4782 -0.8049 -0.7626
 1417SOL     OW 5850   5.197   3.234   1.048 -0.0354  0.0704  0.1054
 1417SOL    HW1 5851   5.274   3.201   1.103  0.3146  2.0975  0.9015
 1417SOL    HW2 5852   5.210   3.330   1.026 -2.9305  0.8477  1.3445
 1418SOL     OW 5853   6.949   1.206   2.897  0.1872  0.3486 -0.0231
 1418SOL    HW1 5854   6.940   1.230   2.800  1.4389 -1.1897 -0.5551
 1418SOL    HW2 5855   6.897   1.123   2.916  1.3791 -0.3785  0.1757
 1419SOL     OW 5856   1.636   2.411   6.438 -0.3160  0.1618 -0.4602
 1419SOL    HW1 5857   1.596   2.341   6.379 -1.1121 -1.0078  1.3537
 1419SOL    HW2 5858   1.640   2.498   6.389  2.3646 -1.4509 -3.4196
 1420SOL     OW 5859   1.490   1.996   3.403  0.8767  0.8654  0.3086
 1420SOL    HW1 5860   1.463   2.028   3.493 -2.0294 -1.6209  0.4663
 1420SOL    HW2 5861   1.471   2.067   3.335 -0.5475  1.3879  1.2046
 1421SOL     OW 5862   2.187   1.275   5.076  0.1247 -0.1854 -0.2730
 1421SOL    HW1 5863   2.114   1.312   5.132  1.1389  0.6973  0.5194
 1421SOL    HW2 5864   2.214   1.343   5.007  0.5229 -0.2999 -0.2352
 1422SOL     OW 5865   1.756   1.747   2.265 -0.3057 -0.4195 -0.1235
 1422SOL    HW1 5866   1.733   1.650   2.252 -0.0109 -1.1640  3.7090
 1422SOL    HW2 5867   1.842   1.767   2.218  0.9310 -2.7579  0.9328
 1423SOL     OW 5868   5.623   3.184   5.699 -0.0034  0.1583 -0.2676
 1423SOL    HW1 5869   5.597   3.111   5.763  1.7795 -1.1534 -0.9758
 1423SOL    HW2 5870   5.704   3.157   5.648 -2.0718  0.5256 -4.1651
 1424SOL     OW 5871   0.953   0.163   3.196 -0.0935  1.0560 -0.4221
 1424SOL    HW1 5872   0.889   0.086   3.198  0.1017  0.8968 -0.2110
 1424SOL    HW2 5873   0.984   0.183   3.289  2.4839 -0.8306 -0.7350
 1425SOL     OW 5874   2.202   3.037   6.995 -0.0683 -0.5450 -0.4634
 1425SOL    HW1 5875   2.255   3.090   6.928 -0.4793 -0.7024 -0.9214
 1425SOL    HW2 5876   2.202   3.084   7.082 -1.2962  0.7539 -1.1372
 1426SOL     OW 5877   1.551   3.181   5.809 -0.3373 -0.6708 -0.1004
 1426SOL    HW1 5878   1.541   3.243   5.886 -1.4478 -0.8860 -0.0626
 1426SOL    HW2 5879   1.559   3.234   5.724  1.0499 -0.4303  0.1537
 1427SOL     OW 5880   6.276   3.536   6.515  0.1686  0.3438 -0.2825
 1427SOL    HW1 5881   6.231   3.465   6.570 -1.8263  0.8621 -1.1823
 1427SOL    HW2 5882   6.288   3.619   6.570 -0.1246  0.2559 -0.0876
 1428SOL     OW 5883   3.820   0.967   4.867 -0.0740  0.2983  0.2226
 1428SOL    HW1 5884   3.847   0.911   4.945  0.3595  0.7050  0.3683
 1428SOL    HW2 5885   3.897   1.023   4.838 -0.2337  0.1492 -0.5040
 1429SOL     OW 5886   6.809   0.404   1.652  0.2692  0.5633 -0.1529
 1429SOL    HW1 5887   6.737   0.382   1.718 -1.1961 -1.1283 -2.1553
 1429SOL    HW2 5888   6.808   0.502   1.633 -0.2804  0.8425  1.2127
 1430SOL     OW 5889   2.546   0.023   1.569 -0.0722 -0.1695  0.6817
 1430SOL    HW1 5890   2.463  -0.016   1.528  0.3162 -1.0800  0.7246
 1430SOL    HW2 5891   2.567   0.110   1.525  0.6529 -1.3623 -1.5313
 1431SOL     OW 5892   5.642   1.233   1.476  0.3322 -0.1251 -0.5701
 1431SOL    HW1 5893   5.684   1.318   1.446 -0.0955  0.1241 -0.4656
 1431SOL    HW2 5894   5.621   1.176   1.396  1.6786 -0.6484 -0.5795
 1432SOL     OW 5895   3.247   1.303   4.308 -0.1654 -0.2472 -0.4203
 1432SOL    HW1 5896   3.245   1.309   4.208 -0.8852 -0.2004 -0.4043
 1432SOL    HW2 5897   3.306   1.376   4.344 -2.4292  1.8143 -0.6566
 1433SOL     OW 5898   0.655   2.103   1.364 -0.0703  0.1214 -0.1237
 1433SOL    HW1 5899   0.753   2.117   1.349  0.3326 -2.4018 -0.1451
 1433SOL    HW2 5900   0.621   2.172   1.428  1.6847  1.0572 -0.1366
 1434SOL     OW 5901   0.253   2.994   4.022 -0.2496 -0.2215 -0.2074
 1434SOL    HW1 5902   0.172   3.050   4.007 -1.0814 -1.2596  0.2586
 1434SOL    HW2 5903   0.226   2.898   4.030  1.1240 -0.6997 -0.9032
 1435SOL     OW 5904   5.617   6.789   3.316 -0.0727 -0.0243  0.8664
 1435SOL    HW1 5905   5.689   6.774   3.384  0.7149  1.3105  0.3688
 1435SOL    HW2 5906   5.572   6.877   3.335 -1.1026 -0.5032  0.7340
 1436SOL     OW 5907   6.049   4.165   1.582 -0.3302  0.2050  1.0240
 1436SOL    HW1 5908   5.975   4.149   1.647 -0.4025  0.0355  0.9033
 1436SOL    HW2 5909   6.084   4.258   1.592 -2.4939  1.3364 -0.8373
 1437SOL     OW 5910   3.890   1.025   0.613  0.1204 -0.4830  0.1298
 1437SOL    HW1 5911   3.873   1.029   0.515 -0.2038  1.0617  0.2244
 1437SOL    HW2 5912   3.980   0.985   0.629  0.3817 -0.3117 -0.8229
 1438SOL     OW 5913   4.833   6.556   1.883  0.2539 -0.6607 -0.4977
 1438SOL    HW1 5914   4.897   6.563   1.806  1.1190 -1.0528  0.1645
 1438SOL    HW2 5915   4.829   6.462   1.915  0.8541 -0.2949  0.7159
 1439SOL     OW 5916   3.447   6.034   6.235 -0.0693  0.4118 -0.6315
 1439SOL    HW1 5917   3.371   6.039   6.170  0.0391 -1.6852 -0.9872
 1439SOL    HW2 5918   3.453   6.120   6.285 -1.4381  1.3413 -1.9604
 1440SOL     OW 5919   4.953   2.010   0.119 -0.0780  0.0239 -0.0140
 1440SOL    HW1 5920   5.024   1.988   0.052  0.4038 -0.0874  0.5211
 1440SOL    HW2 5921   4.953   2.109   0.136  0.7424 -0.1024  0.8314
 1441SOL     OW 5922   5.646   0.287   3.779 -0.4877 -0.0961 -0.1804
 1441SOL    HW1 5923   5.638   0.352   3.854  2.4022 -0.2476  0.3574
 1441SOL    HW2 5924   5.725   0.311   3.722 -0.7959 -1.7541 -1.3935
 1442SOL     OW 5925   5.424   4.639   6.457 -0.2079  0.2940  0.2465
 1442SOL    HW1 5926   5.515   4.608   6.483 -0.4713 -0.2260  0.5845
 1442SOL    HW2 5927   5.425   4.672   6.363  0.0403 -1.0585 -0.2544
 1443SOL     OW 5928   5.667   4.127   1.380 -0.1718  0.4175 -0.2191
 1443SOL    HW1 5929   5.689   4.034   1.351  0.2742 -0.4336  2.5121
 1443SOL    HW2 5930   5.592   4.124   1.446 -0.5298  2.0776 -0.5143
 1444SOL     OW 5931   2.718   0.179   5.025 -0.2671  0.0577  0.5649
 1444SOL    HW1 5932   2.798   0.163   5.083  1.5605  3.9235 -0.5358
 1444SOL    HW2 5933   2.728   0.127   4.940 -0.3246 -1.5187  1.4810
 1445SOL     OW 5934   3.331   1.301   2.227 -0.4415  0.0608  0.1612
 1445SOL    HW1 5935   3.238   1.267   2.218 -0.2339 -0.3397 -0.5637
 1445SOL    HW2 5936   3.392   1.226   2.252 -0.2875  0.2886  0.4766
 1446SOL     OW 5937   6.863   2.937   5.919 -0.5751 -0.8731 -0.3404
 1446SOL    HW1 5938   6.880   2.846   5.880 -1.2371 -1.4214  0.5897
 1446SOL    HW2 5939   6.877   3.006   5.849  2.0075 -1.4965 -0.5393
 1447SOL     OW 5940   1.455   1.693   5.514  0.4207 -0.2282  0.0107
 1447SOL    HW1 5941   1.508   1.613   5.485  0.8150 -1.5811  3.8124
 1447SOL    HW2 5942   1.518   1.762   5.551 -0.0868  1.0175 -1.3565
 1448SOL     OW 5943   3.260   2.909   2.150  0.0038 -0.1705 -0.0006
 1448SOL    HW1 5944   3.210   2.835   2.196  0.4154 -0.6304 -0.2840
 1448SOL    HW2 5945   3.341   2.871   2.106  0.4732  0.5390  0.2523
 1449SOL     OW 5946   1.932   6.556   1.393  0.0478 -0.4328  0.4932
 1449SOL    HW1 5947   1.908   6.459   1.386 -0.3826 -0.2713 -0.3362
 1449SOL    HW2 5948   1.874   6.600   1.462 -0.3195 -0.5924  0.2893
 1450SOL     OW 5949   2.062   2.356   1.398  0.4391  0.1334 -0.4529
 1450SOL    HW1 5950   2.106   2.281   1.348  0.6533  0.0902 -0.1979
 1450SOL    HW2 5951   2.125   2.433   1.404  0.4482  0.1027 -0.1606
 1451SOL     OW 5952   5.575   6.132   6.050  0.4328  0.3261  0.1826
 1451SOL    HW1 5953   5.608   6.211   6.101 -2.0676  0.4547  1.8049
 1451SOL    HW2 5954   5.608   6.048   6.093  1.7732  0.4530 -0.5699
 1452SOL     OW 5955   5.659   1.748   2.953  0.2491 -0.5538 -0.2300
 1452SOL    HW1 5956   5.758   1.761   2.960  0.4132 -0.3304 -2.2227
 1452SOL    HW2 5957   5.624   1.805   2.878 -1.7769  1.1125  1.8512
 1453SOL     OW 5958   1.207   5.750   1.967  0.1816  0.6804 -0.3249
 1453SOL    HW1 5959   1.148   5.817   1.922  0.8979  0.9053 -0.9421
 1453SOL    HW2 5960   1.294   5.793   1.993  0.4394  0.1269 -0.2507
 1454SOL     OW 5961   5.817   0.031   5.712 -0.0964  0.5733  0.1208
 1454SOL    HW1 5962   5.818  -0.061   5.751  0.0189  1.4176  2.2427
 1454SOL    HW2 5963   5.807   0.025   5.612  0.5366 -1.7241  0.1436
 1455SOL     OW 5964   5.543   6.937   5.065 -0.0345  0.4830  0.2899
 1455SOL    HW1 5965   5.639   6.944   5.038  0.1390 -0.9332  0.4419
 1455SOL    HW2 5966   5.536   6.892   5.153 -0.8885 -0.5853 -0.2911
 1456SOL     OW 5967   1.807   6.400   2.152  0.6556 -0.1894 -0.2955
 1456SOL    HW1 5968   1.756   6.396   2.067 -1.8621 -0.3566  1.1197
 1456SOL    HW2 5969   1.893   6.349   2.142  0.0168 -0.9500 -2.4365
 1457SOL     OW 5970   1.999   2.065   2.438 -0.2721 -0.8289 -0.1684
 1457SOL    HW1 5971   2.085   2.113   2.422 -1.2701  0.5242 -1.7992
 1457SOL    HW2 5972   1.923   2.120   2.402 -1.8380 -1.9721  1.2263
 1458SOL     OW 5973   1.373   0.559   6.946 -0.1184 -0.3897  0.2658
 1458SOL    HW1 5974   1.440   0.487   6.965  0.5638  0.5168  1.4200
 1458SOL    HW2 5975   1.301   0.523   6.886  0.7353 -1.7316  0.0133
 1459SOL     OW 5976   4.077   3.251   5.530  0.0630  0.6413  0.1856
 1459SOL    HW1 5977   4.068   3.211   5.439  1.1034  0.5427  0.1163
 1459SOL    HW2 5978   4.155   3.210   5.577 -2.7075 -2.2660  2.7029
 1460SOL     OW 5979   0.248   6.125   3.229 -0.4056 -0.1512  0.5869
 1460SOL    HW1 5980   0.251   6.058   3.155  0.2640  0.3058  0.1846
 1460SOL    HW2 5981   0.338   6.133   3.271 -0.6968 -0.1496  1.2217
 1461SOL     OW 5982   6.241   1.755   2.442 -0.1018 -0.2794 -0.1326
 1461SOL    HW1 5983   6.283   1.693   2.509 -0.3442 -0.6935 -0.3600
 1461SOL    HW2 5984   6.310   1.782   2.374  0.1601  0.1902  0.3124
 1462SOL     OW 5985   1.237   6.519   4.740  0.0465  0.4826  0.3654
 1462SOL    HW1 5986   1.152   6.515   4.791 -0.1406 -1.1726 -0.0308
 1462SOL    HW2 5987   1.267   6.427   4.716  1.1746  1.1070 -0.7908
 1463SOL     OW 5988   0.863   5.487   6.645  0.1368  0.0231  0.6171
 1463SOL    HW1 5989   0.921   5.565   6.622 -0.7680  0.1945 -1.2658
 1463SOL    HW2 5990   0.767   5.515   6.640 -0.1773 -0.9136  1.1557
 1464SOL     OW 5991   6.821   3.568   6.024  0.3444  0.5876  0.4215
 1464SOL    HW1 5992   6.844   3.577   5.927  2.1361  0.7157  0.8262
 1464SOL    HW2 5993   6.722   3.563   6.035  0.1034  1.0702 -1.3676
 1465SOL     OW 5994   6.242   2.546   2.861 -0.1157 -0.9991 -0.6074
 1465SOL    HW1 5995   6.256   2.452   2.829  0.7214 -0.0010 -3.4996
 1465SOL    HW2 5996   6.145   2.569   2.856 -0.5729 -2.1393  1.6841
 1466SOL     OW 5997   2.986   1.363   1.522 -0.5017 -0.4766  0.0103
 1466SOL    HW1 5998   2.887   1.370   1.530 -0.4689  0.1166 -0.0524
 1466SOL    HW2 5999   3.022   1.447   1.482 -0.0939 -1.1744 -1.1325
 1467SOL     OW 6000   1.252   1.365   6.845  0.0582  0.0104  0.2647
 1467SOL    HW1 6001   1.255   1.296   6.917  3.9617 -0.0776  0.2573
 1467SOL    HW2 6002   1.243   1.456   6.887  1.0727 -0.1323  0.8443
 1468SOL     OW 6003   6.954   4.059   6.774  0.2398  0.3344  0.0381
 1468SOL    HW1 6004   6.998   4.056   6.864 -0.4635 -0.1480  0.3742
 1468SOL    HW2 6005   6.866   4.012   6.778  0.0472  0.5993 -0.8230
 1469SOL     OW 6006   3.652   5.884   6.128 -0.2221 -0.5180 -0.4724
 1469SOL    HW1 6007   3.646   5.866   6.030 -1.1591 -1.2154 -0.2971
 1469SOL    HW2 6008   3.589   5.957   6.153 -0.0017 -0.3571 -0.3823
 1470SOL     OW 6009   5.704   2.602   5.788  0.5463  0.1211 -0.4608
 1470SOL    HW1 6010   5.745   2.662   5.857  0.8328  0.3640 -0.8372
 1470SOL    HW2 6011   5.609   2.582   5.813  0.9068 -0.4940  0.4532
 1471SOL     OW 6012   4.367   2.481   5.862  0.1848 -0.1022 -0.0920
 1471SOL    HW1 6013   4.328   2.395   5.829 -1.1205 -0.0266  1.1776
 1471SOL    HW2 6014   4.353   2.552   5.793  0.3279 -0.6517 -0.7016
 1472SOL     OW 6015   4.951   1.415   3.066 -0.3144 -0.1701  0.5774
 1472SOL    HW1 6016   4.923   1.510   3.052  0.2552 -0.1571 -0.5251
 1472SOL    HW2 6017   5.006   1.384   2.989 -0.7060 -1.4865  0.7976
 1473SOL     OW 6018   6.182   2.917   5.743  0.2254 -0.1150  0.3148
 1473SOL    HW1 6019   6.231   2.927   5.656  0.2342  0.1428  0.3484
 1473SOL    HW2 6020   6.113   2.845   5.734  0.8733 -0.7547  0.3895
 1474SOL     OW 6021   6.829   1.773   6.737  0.3883 -0.2901 -0.0182
 1474SOL    HW1 6022   6.923   1.803   6.757  0.1338 -1.0199  2.5729
 1474SOL    HW2 6023   6.831   1.677   6.710  0.4004 -0.1868 -0.3996
 1475SOL     OW 6024   0.053   0.493   3.724 -0.0157  0.5219  0.3049
 1475SOL    HW1 6025   0.012   0.576   3.688  0.3159  0.4686 -0.1965
 1475SOL    HW2 6026   0.008   0.413   3.685  0.9035  0.4552 -0.6776
 1476SOL     OW 6027   4.839   5.457   3.198  0.9581  0.4146 -0.1208
 1476SOL    HW1 6028   4.806   5.436   3.106  0.6585  1.0830 -0.1702
 1476SOL    HW2 6029   4.801   5.544   3.228 -1.8093 -1.3731  2.0331
 1477SOL     OW 6030   0.864   3.055   4.775  0.2724  0.1014  0.2094
 1477SOL    HW1 6031   0.793   3.125   4.786  0.6443  0.5708 -0.3258
 1477SOL    HW2 6032   0.954   3.098   4.780  0.5081 -0.4025  0.2985
 1478SOL     OW 6033   3.573   3.960   3.319  0.1651 -0.5020 -0.5488
 1478SOL    HW1 6034   3.560   3.945   3.417  0.2699 -0.7771 -0.5752
 1478SOL    HW2 6035   3.489   3.999   3.280 -0.4041 -1.7389 -0.6114
 1479SOL     OW 6036   0.099   6.719   4.202  0.2939 -0.3059  0.0758
 1479SOL    HW1 6037   0.118   6.687   4.294 -0.9532  0.1076  0.5027
 1479SOL    HW2 6038   0.000   6.731   4.191  0.4044 -0.6133 -1.4050
 1480SOL     OW 6039   3.703   0.921   1.242  0.0131 -0.4307 -0.2052
 1480SOL    HW1 6040   3.729   0.927   1.338  0.4301  0.8314 -0.3736
 1480SOL    HW2 6041   3.632   0.852   1.230  0.5687 -1.2137  0.8708
 1481SOL     OW 6042   5.647   5.904   2.802  0.2171 -0.0905  0.0806
 1481SOL    HW1 6043   5.591   5.942   2.875 -0.8805  0.5693 -1.0703
 1481SOL    HW2 6044   5.682   5.814   2.829 -1.6994 -0.6847  0.6861
 1482SOL     OW 6045   6.164   4.251   4.448 -0.0610 -0.0595  0.0517
 1482SOL    HW1 6046   6.181   4.221   4.542 -1.0844 -0.0916  0.2394
 1482SOL    HW2 6047   6.214   4.192   4.384  1.2978  0.4662  0.5935
 1483SOL     OW 6048   4.083   4.733   6.118  0.3599  0.0001 -0.3600
 1483SOL    HW1 6049   4.149   4.678   6.067  1.6528  0.5692  0.6432
 1483SOL    HW2 6050   4.128   4.814   6.154 -1.0733  0.7620 -0.2155
 1484SOL     OW 6051   6.885   2.846   6.584 -0.2248  0.2968 -0.2360
 1484SOL    HW1 6052   6.883   2.754   6.623  1.5133  0.3415  0.0230
 1484SOL    HW2 6053   6.878   2.913   6.658 -0.9804  0.3961 -0.3835
 1485SOL     OW 6054   1.597   1.598   3.257  0.3033 -0.0375 -0.3060
 1485SOL    HW1 6055   1.679   1.549   3.226  0.3441 -0.7630  0.8980
 1485SOL    HW2 6056   1.603   1.612   3.356 -0.1026  1.6830 -0.4981
 1486SOL     OW 6057   0.197   6.163   6.873 -0.2217 -0.1179 -0.8387
 1486SOL    HW1 6058   0.114   6.218   6.864  0.1430  0.4658 -0.6998
 1486SOL    HW2 6059   0.240   6.155   6.783  1.8014  3.1560 -0.3375
 1487SOL     OW 6060   1.338   4.737   1.661  0.2181 -0.0266 -1.1735
 1487SOL    HW1 6061   1.418   4.778   1.704  0.2389  1.9913 -2.9941
 1487SOL    HW2 6062   1.364   4.694   1.575 -0.1868 -2.1143 -0.3203
 1488SOL     OW 6063   0.146   3.884   3.473  0.3602  0.2662  0.6263
 1488SOL    HW1 6064   0.047   3.867   3.472  0.4904 -0.7843  2.0649
 1488SOL    HW2 6065   0.164   3.970   3.521  0.1045  1.0057 -0.5652
 1489SOL     OW 6066   6.720   2.217   4.726 -0.0318  0.3874 -0.3585
 1489SOL    HW1 6067   6.689   2.139   4.671  1.9141  0.7000 -2.0018
 1489SOL    HW2 6068   6.772   2.280   4.669 -1.4550  2.9112  0.9423
 1490SOL     OW 6069   2.524   5.469   2.846 -0.8521 -0.7449  0.3012
 1490SOL    HW1 6070   2.586   5.395   2.872  2.9906  1.9853 -0.2544
 1490SOL    HW2 6071   2.528   5.542   2.914  1.4701  2.1165 -2.6123
 1491SOL     OW 6072   1.207   2.932   4.354 -0.5477  0.4870  0.1090
 1491SOL    HW1 6073   1.261   2.981   4.286  0.0528  1.0087  0.9460
 1491SOL    HW2 6074   1.118   2.977   4.364 -1.3983 -0.6859 -1.6562
 1492SOL     OW 6075   3.012   4.683   6.919 -0.0075  0.1659  0.1982
 1492SOL    HW1 6076   2.927   4.644   6.956  1.6818 -3.4746  0.6930
 1492SOL    HW2 6077   3.022   4.657   6.823  0.8562 -0.0664  0.3438
 1493SOL     OW 6078   6.541   1.376   2.350  0.2971  0.3411  0.0715
 1493SOL    HW1 6079   6.554   1.417   2.440  1.7832  1.1520 -0.4964
 1493SOL    HW2 6080   6.450   1.334   2.346  0.3574 -0.0673  2.0719
 1494SOL     OW 6081   5.243   0.714   3.110 -0.6502 -0.3205  0.4511
 1494SOL    HW1 6082   5.209   0.678   3.197  0.7961 -2.1412  0.3254
 1494SOL    HW2 6083   5.233   0.645   3.039  1.9678 -0.4780  0.1245
 1495SOL     OW 6084   6.711   6.353   3.686 -0.1481 -0.5697  0.5446
 1495SOL    HW1 6085   6.670   6.441   3.707  0.8823 -0.4288  2.1974
 1495SOL    HW2 6086   6.774   6.362   3.609 -0.6007 -0.0347  0.2372
 1496SOL     OW 6087   4.114   4.357   1.645 -0.4257 -0.0691  0.4729
 1496SOL    HW1 6088   4.198   4.305   1.626  0.2126  1.3453 -0.8313
 1496SOL    HW2 6089   4.064   4.372   1.560 -2.8708 -2.1619  1.4082
 1497SOL     OW 6090   1.164   4.050   6.382 -0.5045  0.7829 -0.0413
 1497SOL    HW1 6091   1.164   3.953   6.407  0.6695  0.3032 -1.6955
 1497SOL    HW2 6092   1.180   4.106   6.463 -2.7405 -0.2631  1.2238
 1498SOL     OW 6093   6.364   0.229   5.497 -0.6012 -0.1889 -0.4235
 1498SOL    HW1 6094   6.296   0.160   5.520 -0.3820 -0.2994 -0.0831
 1498SOL    HW2 6095   6.323   0.301   5.441 -0.9232 -0.4015 -0.4577
 1499SOL     OW 6096   0.594   1.578   1.292 -0.3709 -0.3690  0.3294
 1499SOL    HW1 6097   0.510   1.576   1.237  0.9056  1.7822 -1.8960
 1499SOL    HW2 6098   0.649   1.496   1.273 -0.3484 -0.0618 -0.9799
 1500SOL     OW 6099   4.625   3.538   3.469  0.0737 -0.2576  0.2430
 1500SOL    HW1 6100   4.688   3.557   3.395  0.1954 -2.1412 -0.1981
 1500SOL    HW2 6101   4.637   3.443   3.499  0.9752  0.7801  3.6089
 1501SOL     OW 6102   4.219   0.190   3.123  0.3267  0.1083  0.0144
 1501SOL    HW1 6103   4.288   0.177   3.194  0.3433  0.8861  0.1506
 1501SOL    HW2 6104   4.262   0.226   3.040 -0.0157  1.2796  0.3382
 1502SOL     OW 6105   0.349   4.701   5.996  0.0961  0.3258 -0.1354
 1502SOL    HW1 6106   0.252   4.695   5.976 -0.1060 -0.0310  0.9143
 1502SOL    HW2 6107   0.395   4.750   5.922 -1.0176  1.3500 -0.1782
 1503SOL     OW 6108   5.652   0.657   0.760  1.1762  0.6987 -0.2145
 1503SOL    HW1 6109   5.619   0.600   0.684 -0.4277 -0.5588  1.3504
 1503SOL    HW2 6110   5.591   0.735   0.771  0.5611  0.1238  0.6185
 1504SOL     OW 6111   2.873   2.047   6.850 -0.4073 -0.0726 -0.0653
 1504SOL    HW1 6112   2.786   2.007   6.882 -0.1882 -1.3681 -1.0055
 1504SOL    HW2 6113   2.901   2.120   6.913 -1.3955 -0.6655  1.1129
 1505SOL     OW 6114   3.581   5.698   6.607 -0.5990 -0.1750  0.0024
 1505SOL    HW1 6115   3.551   5.729   6.517  0.6153 -1.8555 -1.0511
 1505SOL    HW2 6116   3.542   5.609   6.626  1.5068 -1.2342 -0.2750
 1506SOL     OW 6117   4.138   4.863   4.641  0.3928 -0.5778  0.2011
 1506SOL    HW1 6118   4.122   4.895   4.548 -0.3807  2.4745  1.2753
 1506SOL    HW2 6119   4.229   4.820   4.646  0.2686 -1.2212 -2.0063
 1507SOL     OW 6120   3.919   3.479   3.457 -0.4474 -0.3193 -0.1528
 1507SOL    HW1 6121   3.821   3.478   3.476 -0.4758  1.1047 -0.1814
 1507SOL    HW2 6122   3.950   3.573   3.445  1.0873 -0.6875  0.7316
 1508SOL     OW 6123   2.544   5.609   5.116 -0.1483 -0.4566 -0.1807
 1508SOL    HW1 6124   2.512   5.563   5.199 -0.9282  1.0056  0.3597
 1508SOL    HW2 6125   2.477   5.677   5.088  2.1458  2.3067  0.6409
 1509SOL     OW 6126   1.306   4.324   6.098 -0.2354 -0.0017 -0.0363
 1509SOL    HW1 6127   1.330   4.418   6.074 -1.1677  0.4783  0.8249
 1509SOL    HW2 6128   1.331   4.263   6.023 -2.6916  1.3494 -2.1298
 1510SOL     OW 6129   1.232   5.116   4.025 -0.8992 -0.2131  1.1150
 1510SOL    HW1 6130   1.302   5.186   4.026 -1.1161  0.2273 -2.3857
 1510SOL    HW2 6131   1.142   5.159   4.019 -1.0311 -0.6393 -1.1464
 1511SOL     OW 6132   1.719   6.481   0.155 -0.5110  0.7356 -0.1731
 1511SOL    HW1 6133   1.773   6.507   0.236 -0.7836  0.8341 -0.0209
 1511SOL    HW2 6134   1.628   6.520   0.163 -0.3214  1.3379 -0.8645
 1512SOL     OW 6135   4.425   0.169   3.311 -0.0701 -0.8796  0.0970
 1512SOL    HW1 6136   4.453   0.073   3.305  0.6884 -0.6477 -0.1965
 1512SOL    HW2 6137   4.423   0.197   3.406  1.1867 -0.7733  0.1069
 1513SOL     OW 6138   1.812   0.138   4.917 -0.5783  0.1477 -0.2081
 1513SOL    HW1 6139   1.851   0.085   4.993  0.5040 -1.3402 -1.7182
 1513SOL    HW2 6140   1.769   0.076   4.852 -0.7816  1.3182 -1.2261
 1514SOL     OW 6141   4.941   3.109   0.227 -0.0296  0.0843 -0.9774
 1514SOL    HW1 6142   5.018   3.086   0.168  0.1124 -1.1497 -0.3391
 1514SOL    HW2 6143   4.861   3.055   0.201  0.4156 -1.5709  0.7839
 1515SOL     OW 6144   3.421   5.002   3.292  0.1145  0.4098 -0.3079
 1515SOL    HW1 6145   3.444   5.045   3.205  1.1220  2.5848  0.9496
 1515SOL    HW2 6146   3.500   4.951   3.326 -0.0665  0.1042 -0.3350
 1516SOL     OW 6147   3.811   6.118   3.304 -0.9445 -0.0381 -0.1658
 1516SOL    HW1 6148   3.868   6.116   3.222 -0.1914  0.1549  0.3418
 1516SOL    HW2 6149   3.862   6.161   3.378 -2.2633  1.4395 -0.0783
 1517SOL     OW 6150   5.841   6.263   0.268 -0.3212 -0.2141 -0.0071
 1517SOL    HW1 6151   5.924   6.208   0.269 -0.2308 -0.1012 -0.8081
 1517SOL    HW2 6152   5.787   6.243   0.350 -0.0304 -1.0888 -0.0170
 1518SOL     OW 6153   1.297   3.664   2.429  0.2084 -0.1247  0.4874
 1518SOL    HW1 6154   1.237   3.698   2.501 -2.2065 -2.4062 -0.2667
 1518SOL    HW2 6155   1.340   3.578   2.458  0.0046 -0.5389 -0.4023
 1519SOL     OW 6156   5.424   4.513   1.083  0.2048  0.1986 -0.1814
 1519SOL    HW1 6157   5.361   4.491   1.009  0.3328 -0.2604 -0.1588
 1519SOL    HW2 6158   5.476   4.431   1.108 -0.3910  0.1440  0.9456
 1520SOL     OW 6159   5.333   6.733   0.506 -0.2560  0.1595  0.1243
 1520SOL    HW1 6160   5.271   6.801   0.544 -2.9061 -1.1134 -1.5719
 1520SOL    HW2 6161   5.360   6.761   0.414  2.2152  0.9498  1.0391
 1521SOL     OW 6162   6.354   2.170   3.719  0.5743 -0.3620  0.1958
 1521SOL    HW1 6163   6.299   2.109   3.776  0.6966 -0.7571 -0.1065
 1521SOL    HW2 6164   6.360   2.133   3.626 -1.5911  1.4126 -0.7706
 1522SOL     OW 6165   2.171   3.476   6.615  0.3077 -0.1925  0.9026
 1522SOL    HW1 6166   2.198   3.507   6.706  1.4358 -2.3524  1.3770
 1522SOL    HW2 6167   2.098   3.408   6.623 -0.0123  0.0499  0.1376
 1523SOL     OW 6168   3.467   2.193   6.538  0.0999  0.1005  0.1076
 1523SOL    HW1 6169   3.387   2.142   6.571  0.6844 -0.7722  0.2069
 1523SOL    HW2 6170   3.533   2.129   6.499  0.4054  0.8934 -0.7187
 1524SOL     OW 6171   0.885   0.864   5.206 -0.0358 -0.7471 -0.4700
 1524SOL    HW1 6172   0.872   0.960   5.182  0.5243  0.2694  2.7449
 1524SOL    HW2 6173   0.796   0.824   5.230 -0.0073 -0.2746  0.4892
 1525SOL     OW 6174   4.911   4.874   2.089 -0.8917  0.3473  0.7982
 1525SOL    HW1 6175   4.823   4.904   2.053 -0.3071  0.8918 -0.2079
 1525SOL    HW2 6176   4.936   4.785   2.050 -1.3094 -0.1487  1.6256
 1526SOL     OW 6177   5.915   1.494   6.815 -0.5036  0.0320  0.0127
 1526SOL    HW1 6178   5.929   1.396   6.807 -2.4046 -0.4036  1.3976
 1526SOL    HW2 6179   5.864   1.528   6.735  0.0616 -0.1083 -0.4124
 1527SOL     OW 6180   2.418   6.409   0.074 -0.1576  0.1343 -0.1973
 1527SOL    HW1 6181   2.484   6.484   0.079 -0.2637  0.3684 -1.7768
 1527SOL    HW2 6182   2.423   6.355   0.158  0.5521  1.3719  0.5877
 1528SOL     OW 6183   6.157   4.118   6.329  0.3347 -0.3134  0.4665
 1528SOL    HW1 6184   6.248   4.092   6.298  0.3251 -0.5424  0.6349
 1528SOL    HW2 6185   6.088   4.058   6.289  0.3004 -0.4542  0.7305
 1529SOL     OW 6186   0.931   2.137   0.638 -0.1613 -0.8785 -0.6654
 1529SOL    HW1 6187   0.836   2.121   0.666 -0.4357  1.9482  0.3313
 1529SOL    HW2 6188   0.987   2.158   0.718  1.1680 -1.7039 -1.3274
 1530SOL     OW 6189   3.965   2.527   6.157  0.3738 -0.4670 -0.2919
 1530SOL    HW1 6190   3.990   2.621   6.178  1.3648 -1.3501  3.0333
 1530SOL    HW2 6191   3.871   2.525   6.123 -0.3836  1.5611  1.4527
 1531SOL     OW 6192   3.048   5.911   2.382 -0.1271  0.1348 -0.0736
 1531SOL    HW1 6193   3.079   5.998   2.343 -1.3411  0.3775 -0.5353
 1531SOL    HW2 6194   2.956   5.923   2.421 -0.4699 -1.0410 -0.4947
 1532SOL     OW 6195   3.012   1.005   1.757  0.2348  0.5561  0.3303
 1532SOL    HW1 6196   3.038   1.036   1.666  0.0064  0.3465  0.1927
 1532SOL    HW2 6197   3.042   1.072   1.825  1.6225  0.0687  0.2325
 1533SOL     OW 6198   0.652   6.656   1.794 -0.1369  0.1114 -0.6192
 1533SOL    HW1 6199   0.681   6.653   1.890 -0.0139 -2.3432 -0.6686
 1533SOL    HW2 6200   0.594   6.735   1.779 -1.8505 -0.5335  1.9961
 1534SOL     OW 6201   1.482   0.254   0.556 -0.1460  0.0932 -0.2643
 1534SOL    HW1 6202   1.545   0.289   0.626  0.5860  0.3205 -1.0265
 1534SOL    HW2 6203   1.465   0.157   0.572  3.4635 -1.0237 -2.2068
 1535SOL     OW 6204   2.919   3.776   3.679 -0.1879  0.3483 -0.6537
 1535SOL    HW1 6205   2.850   3.782   3.607 -0.7349  1.9138 -0.0567
 1535SOL    HW2 6206   2.993   3.840   3.660  0.6152 -0.6005 -0.7776
 1536SOL     OW 6207   4.432   1.402   4.483  0.1128  0.1586  0.1501
 1536SOL    HW1 6208   4.450   1.342   4.560  0.7821  0.4002  0.1937
 1536SOL    HW2 6209   4.344   1.379   4.442  0.3878 -0.8959  0.1196
 1537SOL     OW 6210   2.527   4.979   3.613  0.0450 -0.1356 -0.1316
 1537SOL    HW1 6211   2.508   5.077   3.611 -0.7452 -0.2904 -1.3182
 1537SOL    HW2 6212   2.531   4.948   3.708 -0.9311  0.8220  0.2509
 1538SOL     OW 6213   3.048   4.264   6.033 -0.3509 -0.3436 -0.6938
 1538SOL    HW1 6214   3.041   4.181   6.087  1.4506 -0.0087  0.1559
 1538SOL    HW2 6215   3.143   4.276   6.003 -0.8910  0.5894 -2.1507
 1539SOL     OW 6216   5.169   0.867   4.272  0.4786 -0.0585 -0.3869
 1539SOL    HW1 6217   5.085   0.818   4.248  1.5588 -2.0017 -0.3807
 1539SOL    HW2 6218   5.232   0.805   4.318  1.0494  1.9379  1.6893
 1540SOL     OW 6219   5.541   3.711   5.331  0.6016 -0.6993 -0.0142
 1540SOL    HW1 6220   5.604   3.787   5.318 -0.4720  0.0395 -1.1028
 1540SOL    HW2 6221   5.588   3.636   5.377  2.1607 -0.0273 -0.4568
 1541SOL     OW 6222   2.491   4.025   6.267  0.0567 -0.2608  0.2817
 1541SOL    HW1 6223   2.562   3.972   6.314 -1.8442 -2.8788  0.4185
 1541SOL    HW2 6224   2.418   4.049   6.331 -1.3645 -1.6883 -0.7139
 1542SOL     OW 6225   5.741   4.624   3.775  0.2156  0.3829 -0.2279
 1542SOL    HW1 6226   5.642   4.613   3.783 -0.1061  2.4108 -0.7874
 1542SOL    HW2 6227   5.779   4.648   3.865  0.1197  0.0560 -0.1014
 1543SOL     OW 6228   3.261   5.599   1.302 -0.1195  0.1492 -0.7830
 1543SOL    HW1 6229   3.263   5.560   1.210 -1.8773 -0.4620 -0.5908
 1543SOL    HW2 6230   3.236   5.696   1.297  0.9588  0.4322 -1.0096
 1544SOL     OW 6231   2.137   0.851   5.774  0.5002 -0.4940 -0.2694
 1544SOL    HW1 6232   2.058   0.850   5.713  0.2449 -1.2321  0.0581
 1544SOL    HW2 6233   2.215   0.808   5.729  0.1434 -1.5958  0.1165
 1545SOL     OW 6234   0.327   3.074   6.762 -0.9358 -0.0298  0.3634
 1545SOL    HW1 6235   0.314   2.990   6.815  0.9442 -1.3672 -1.1239
 1545SOL    HW2 6236   0.394   3.132   6.808 -0.0997 -0.7018  0.0419
 1546SOL     OW 6237   3.627   4.656   2.187  0.1221  0.5830  0.0760
 1546SOL    HW1 6238   3.723   4.645   2.214 -0.3422 -0.4983  1.3925
 1546SOL    HW2 6239   3.621   4.721   2.111  2.0382 -0.4626 -1.0381
 1547SOL     OW 6240   3.053   5.167   0.858 -0.2976  0.3425 -0.2264
 1547SOL    HW1 6241   3.115   5.116   0.917 -1.7168 -0.4032  0.6809
 1547SOL    HW2 6242   3.074   5.265   0.864  0.3225  0.1663  0.6196
 1548SOL     OW 6243   3.444   0.628   2.113  0.2321 -0.2946  0.2783
 1548SOL    HW1 6244   3.405   0.536   2.114 -0.0832 -0.1751  2.0574
 1548SOL    HW2 6245   3.506   0.637   2.035 -0.3229 -1.7477 -0.3689
 1549SOL     OW 6246   4.739   0.361   0.435 -0.4235 -0.2956  0.1650
 1549SOL    HW1 6247   4.700   0.344   0.345  1.8910 -0.3195 -0.8979
 1549SOL    HW2 6248   4.767   0.274   0.476  0.1601 -0.1216  0.1312
 1550SOL     OW 6249   1.937   0.026   3.996 -0.6205  0.4025  0.3105
 1550SOL    HW1 6250   1.933   0.086   4.076 -0.6583  0.7967  0.0169
 1550SOL    HW2 6251   2.033   0.012   3.970 -0.5765 -0.1738  0.7509
 1551SOL     OW 6252   5.638   5.344   1.774  0.3022 -0.1800 -0.4268
 1551SOL    HW1 6253   5.553   5.386   1.739  0.0879  1.6921  2.0662
 1551SOL    HW2 6254   5.716   5.395   1.739  0.1529  0.7725  0.5557
 1552SOL     OW 6255   0.014   5.058   0.930 -0.6277 -0.5235 -0.0590
 1552SOL    HW1 6256  -0.039   5.142   0.947  0.8270  0.3369  0.4400
 1552SOL    HW2 6257   0.054   5.062   0.839 -0.8652 -0.8531 -0.1772
 1553SOL     OW 6258   5.300   2.691   4.607  0.3889 -0.1595  0.4362
 1553SOL    HW1 6259   5.263   2.665   4.517  1.3671  1.3043 -0.4262
 1553SOL    HW2 6260   5.309   2.609   4.664 -0.1508 -1.1340 -0.8275
 1554SOL     OW 6261   3.872   2.055   4.883 -0.2738  0.3112 -0.5510
 1554SOL    HW1 6262   3.790   2.077   4.937  0.1588  0.7904 -0.0794
 1554SOL    HW2 6263   3.948   2.034   4.944 -0.6212 -2.4922 -0.9703
 1555SOL     OW 6264   5.685   0.896   5.277  0.4852  0.0163  0.9369
 1555SOL    HW1 6265   5.782   0.894   5.300  0.3912  1.2038  1.4990
 1555SOL    HW2 6266   5.655   0.990   5.265 -0.7156 -0.3012  1.2779
 1556SOL     OW 6267   1.059   0.832   0.031 -0.4515  0.1878  0.7275
 1556SOL    HW1 6268   1.156   0.836   0.007  0.0337 -1.4872  2.1562
 1556SOL    HW2 6269   1.005   0.808  -0.051  0.1051  2.5146 -0.4015
 1557SOL     OW 6270   2.287   2.284   6.840  0.5479  0.1874 -0.6627
 1557SOL    HW1 6271   2.306   2.376   6.805  1.5580  0.1585 -0.2183
 1557SOL    HW2 6272   2.193   2.259   6.818 -0.4696  2.1802  1.0369
 1558SOL     OW 6273   3.873   4.010   6.598  0.3393  0.5226 -0.0032
 1558SOL    HW1 6274   3.789   4.056   6.568 -0.1502  0.2580  0.9241
 1558SOL    HW2 6275   3.911   4.058   6.677 -0.6159 -1.0641  1.4948
 1559SOL     OW 6276   2.528   6.850   5.769 -0.2993 -0.3819  0.0029
 1559SOL    HW1 6277   2.595   6.856   5.696 -0.7481 -0.4064 -0.4143
 1559SOL    HW2 6278   2.436   6.848   5.730 -0.5028 -1.5000  0.5027
 1560SOL     OW 6279   6.612   1.402   0.399  0.0247  0.4738 -0.0673
 1560SOL    HW1 6280   6.626   1.311   0.438  0.2246  0.6596  0.2993
 1560SOL    HW2 6281   6.613   1.397   0.299  0.3134  0.1167 -0.0453
 1561SOL     OW 6282   3.063   2.184   3.009  0.7114  0.2888  0.0629
 1561SOL    HW1 6283   3.085   2.184   3.107 -1.4181 -1.1973  0.6228
 1561SOL    HW2 6284   2.965   2.197   2.997  0.6310 -1.4984 -1.7568
 1562SOL     OW 6285   4.577   4.885   2.989  0.3894 -0.0815  0.2438
 1562SOL    HW1 6286   4.617   4.943   3.060 -0.6467 -0.5592  1.2535
 1562SOL    HW2 6287   4.649   4.835   2.943  1.2139  1.2611  0.0120
 1563SOL     OW 6288   1.004   3.273   6.335 -0.3526  0.1638 -0.4963
 1563SOL    HW1 6289   1.071   3.305   6.402  1.3852 -2.2599 -0.9319
 1563SOL    HW2 6290   0.916   3.316   6.353  0.2791  0.3540  2.7064
 1564SOL     OW 6291   4.595   3.993   3.827  0.4361  0.1836 -0.0610
 1564SOL    HW1 6292   4.504   3.956   3.849  1.8682 -3.2222  0.6961
 1564SOL    HW2 6293   4.591   4.038   3.738 -1.4488 -2.4675 -1.4805
 1565SOL     OW 6294   4.595   4.078   1.663  0.2251 -0.5165 -0.6831
 1565SOL    HW1 6295   4.662   4.135   1.616 -0.3899  1.4432  0.6530
 1565SOL    HW2 6296   4.607   4.087   1.762 -0.2135 -2.3866 -0.4197
 1566SOL     OW 6297   2.675   4.097   2.019 -0.3674 -0.3239  0.5354
 1566SOL    HW1 6298   2.648   4.162   1.948 -1.0179 -0.1899  0.8977
 1566SOL    HW2 6299   2.622   4.114   2.102 -0.6657 -1.4126  0.5846
 1567SOL     OW 6300   3.069   4.155   0.057 -0.3232 -0.3098  0.9276
 1567SOL    HW1 6301   3.054   4.160  -0.042 -0.5814  0.1789  0.9877
 1567SOL    HW2 6302   3.094   4.062   0.082 -0.1885 -0.4213  0.3904
 1568SOL     OW 6303   3.799   1.205   2.332 -0.7503  0.1292 -0.0831
 1568SOL    HW1 6304   3.892   1.202   2.368 -0.4883  1.3512 -0.5967
 1568SOL    HW2 6305   3.786   1.291   2.282 -1.9977 -0.2541 -0.4439
 1569SOL     OW 6306   5.136   0.248   0.163 -0.8722 -0.0146  0.7088
 1569SOL    HW1 6307   5.227   0.261   0.125 -0.3319  0.8991  2.1859
 1569SOL    HW2 6308   5.080   0.195   0.100  0.3954  0.1759 -0.6330
 1570SOL     OW 6309   6.211   5.397   3.544  0.1938  0.0666 -0.0928
 1570SOL    HW1 6310   6.163   5.318   3.582 -1.4056  1.5528  1.1569
 1570SOL    HW2 6311   6.244   5.455   3.618  1.2447  0.6396 -0.9836
 1571SOL     OW 6312   4.238   0.663   6.071  0.1954  0.6353  0.1839
 1571SOL    HW1 6313   4.324   0.616   6.092  0.3986  1.5662  1.5273
 1571SOL    HW2 6314   4.202   0.628   5.984  2.8522  1.5113 -1.3856
 1572SOL     OW 6315   5.787   0.809   1.787 -0.4148 -0.3778 -0.1000
 1572SOL    HW1 6316   5.745   0.883   1.840 -0.4722 -0.9085  0.6010
 1572SOL    HW2 6317   5.733   0.726   1.798 -0.9689 -0.2729 -1.7517
 1573SOL     OW 6318   4.044   6.443   3.307  0.3123 -0.4536  0.3572
 1573SOL    HW1 6319   3.990   6.527   3.304  2.8256  1.3520  1.7567
 1573SOL    HW2 6320   3.989   6.370   3.348 -1.2869  1.0675  1.0914
 1574SOL     OW 6321   6.301   4.733   1.152 -0.1466  0.3215  0.3537
 1574SOL    HW1 6322   6.329   4.724   1.057  0.8128 -0.3690  0.6776
 1574SOL    HW2 6323   6.205   4.759   1.157 -0.1105  0.7074 -0.7979
 1575SOL     OW 6324   4.886   5.050   3.311 -0.3230  0.0891  0.4257
 1575SOL    HW1 6325   4.958   5.100   3.359  0.2865 -0.2775 -0.0737
 1575SOL    HW2 6326   4.926   5.003   3.232 -1.5089  1.6363 -1.1498
 1576SOL     OW 6327   1.105   5.028   3.083 -0.3996 -0.0060  0.5410
 1576SOL    HW1 6328   1.126   5.098   3.152  1.7823  0.9087 -0.9246
 1576SOL    HW2 6329   1.178   5.027   3.014 -1.4593 -2.3012 -0.6461
 1577SOL     OW 6330   6.215   6.695   6.202  0.0636 -0.0999  0.1443
 1577SOL    HW1 6331   6.194   6.611   6.252  0.4442 -0.3023 -0.0301
 1577SOL    HW2 6332   6.313   6.699   6.183  0.0787  0.4706  0.2995
 1578SOL     OW 6333   1.458   0.284   4.333  0.6060 -0.0304  0.0858
 1578SOL    HW1 6334   1.507   0.215   4.280  1.2293  0.3574  0.1377
 1578SOL    HW2 6335   1.513   0.309   4.413 -1.0568 -1.8319  1.8849
 1579SOL     OW 6336   2.496   2.622   4.957 -0.3991 -0.4902 -0.4124
 1579SOL    HW1 6337   2.517   2.623   4.859  1.7061 -0.8626 -0.0119
 1579SOL    HW2 6338   2.448   2.538   4.980 -0.0652 -0.8407 -0.9729
 1580SOL     OW 6339   6.857   2.807   0.340  0.1340 -0.1183  0.8046
 1580SOL    HW1 6340   6.861   2.772   0.433 -1.8850 -0.4330  0.8141
 1580SOL    HW2 6341   6.926   2.760   0.284 -0.4134 -1.8594  1.5306
 1581SOL     OW 6342   6.871   4.370   2.495  0.4723  0.5708 -0.2855
 1581SOL    HW1 6343   6.841   4.411   2.409 -2.4774 -0.4519  0.1395
 1581SOL    HW2 6344   6.874   4.440   2.566 -1.0628  0.7561 -0.3627
 1582SOL     OW 6345   6.252   0.385   0.344  0.1114  0.3007 -0.4009
 1582SOL    HW1 6346   6.254   0.437   0.430 -0.7332 -0.7907  0.3039
 1582SOL    HW2 6347   6.170   0.410   0.293  0.3213  0.5263 -0.6316
 1583SOL     OW 6348   2.082   6.819   0.422 -0.1003 -0.5922  0.3264
 1583SOL    HW1 6349   2.058   6.800   0.327 -0.2348 -0.2994  0.3013
 1583SOL    HW2 6350   2.007   6.867   0.467  1.0310  1.8208 -0.2081
 1584SOL     OW 6351   1.619   4.061   2.311  0.7919  0.5277 -0.3483
 1584SOL    HW1 6352   1.638   4.052   2.213  0.5665 -0.6894 -0.2945
 1584SOL    HW2 6353   1.544   4.001   2.336  1.5574  0.0062  0.7790
 1585SOL     OW 6354   4.487   3.238   4.883  0.1223  0.1432  0.3641
 1585SOL    HW1 6355   4.563   3.242   4.948  0.0811  0.0139  0.4224
 1585SOL    HW2 6356   4.517   3.191   4.800  0.4282  1.0788 -0.0688
 1586SOL     OW 6357   4.255   0.694   6.659  0.2409 -0.4200  0.2280
 1586SOL    HW1 6358   4.233   0.739   6.745  1.1334  0.4565  0.0201
 1586SOL    HW2 6359   4.350   0.714   6.634  0.2473 -1.3374 -0.5487
 1587SOL     OW 6360   0.248   6.187   0.187 -0.0379 -0.5895  0.0879
 1587SOL    HW1 6361   0.290   6.202   0.098  0.2233  1.5287  0.5049
 1587SOL    HW2 6362   0.275   6.097   0.223 -1.4112 -2.1873 -2.5899
 1588SOL     OW 6363   3.816   3.038   1.615 -0.1165 -0.6478 -0.7578
 1588SOL    HW1 6364   3.760   3.055   1.534  1.0899 -0.8697 -1.6627
 1588SOL    HW2 6365   3.910   3.018   1.587  0.2906 -0.8691  0.6951
 1589SOL     OW 6366   4.822   1.910   1.476  0.0292 -0.6406  0.1207
 1589SOL    HW1 6367   4.910   1.871   1.449  1.2066  2.1733 -0.4367
 1589SOL    HW2 6368   4.749   1.868   1.422  1.2960 -1.4002 -1.0673
 1590SOL     OW 6369   2.643   1.829   0.446  0.2018  0.2118  0.6763
 1590SOL    HW1 6370   2.656   1.920   0.485  2.6646  0.1257  0.2142
 1590SOL    HW2 6371   2.645   1.761   0.519  0.9302  0.3447  0.7865
 1591SOL     OW 6372   0.463   0.652   2.233 -0.2545 -0.0440  0.4712
 1591SOL    HW1 6373   0.492   0.747   2.244  0.9517 -0.4009  0.5102
 1591SOL    HW2 6374   0.435   0.615   2.321  0.9330 -0.2376  0.7802
 1592SOL     OW 6375   0.264   2.708   0.367 -0.9033  0.2561 -0.1197
 1592SOL    HW1 6376   0.344   2.769   0.366 -0.5335 -0.1202  1.7701
 1592SOL    HW2 6377   0.291   2.617   0.336 -1.3941  0.9121 -2.6775
 1593SOL     OW 6378   3.672   6.111   2.336 -0.2498  0.6775 -0.4435
 1593SOL    HW1 6379   3.645   6.029   2.385 -0.7976  0.9702 -0.2549
 1593SOL    HW2 6380   3.719   6.085   2.251  1.2366  0.1637  0.4984
 1594SOL     OW 6381   5.704   3.134   0.737 -0.0049  0.1446  0.3889
 1594SOL    HW1 6382   5.799   3.129   0.767 -0.0871 -0.8179  0.5235
 1594SOL    HW2 6383   5.700   3.120   0.638 -0.1040 -1.3111  0.5672
 1595SOL     OW 6384   4.985   6.469   1.568 -0.1023  0.3467 -0.1914
 1595SOL    HW1 6385   4.951   6.532   1.499  1.0791  0.5624 -0.5965
 1595SOL    HW2 6386   5.084   6.461   1.561  0.0949  0.5941  1.6480
 1596SOL     OW 6387   6.537   2.961   2.672  0.2072  0.0837  0.4858
 1596SOL    HW1 6388   6.443   2.955   2.706  0.0833  2.3803  0.6544
 1596SOL    HW2 6389   6.601   2.959   2.748  0.2478 -0.4141  0.4419
 1597SOL     OW 6390   6.275   2.102   4.705  0.0804  0.0008  0.6641
 1597SOL    HW1 6391   6.219   2.020   4.693 -2.2362  1.3372  1.4862
 1597SOL    HW2 6392   6.301   2.139   4.616 -0.2842 -0.7133  0.2573
 1598SOL     OW 6393   1.609   3.467   1.711  0.0567 -0.9263  0.0612
 1598SOL    HW1 6394   1.514   3.497   1.717  0.3084 -0.1491  0.3576
 1598SOL    HW2 6395   1.619   3.376   1.749 -0.0954  0.0565  2.6098
 1599SOL     OW 6396   0.977   1.090   5.753  0.0389 -0.5000  0.5833
 1599SOL    HW1 6397   0.998   1.115   5.847 -2.1831  0.0213  1.0126
 1599SOL    HW2 6398   1.060   1.062   5.706  1.4832  0.8631  2.1931
 1600SOL     OW 6399   0.889   5.338   3.046  0.1611  0.6399  0.4639
 1600SOL    HW1 6400   0.890   5.395   2.964  0.5067  1.3094  0.9300
 1600SOL    HW2 6401   0.971   5.355   3.101 -0.3089  0.5727  1.2043
 1601SOL     OW 6402   3.722   1.801   6.681 -0.0728  0.0892  0.2194
 1601SOL    HW1 6403   3.649   1.769   6.619 -0.2892 -2.7806  1.7665
 1601SOL    HW2 6404   3.753   1.891   6.651 -1.6225 -0.2059 -2.7547
 1602SOL     OW 6405   4.338   2.004   0.837  0.0843 -0.0899 -0.0731
 1602SOL    HW1 6406   4.363   1.908   0.846 -2.9827 -0.8434  2.0765
 1602SOL    HW2 6407   4.279   2.016   0.757  0.0911 -0.0853 -0.0775
 1603SOL     OW 6408   2.196   4.128   5.610  0.7868  0.2636  0.0452
 1603SOL    HW1 6409   2.201   4.028   5.610 -3.6521 -0.1554 -1.6599
 1603SOL    HW2 6410   2.173   4.160   5.702 -1.4770 -0.6983 -0.1411
 1604SOL     OW 6411   1.520   6.623   0.636 -0.3128  0.0112  0.5002
 1604SOL    HW1 6412   1.480   6.573   0.713 -0.5340  1.0647  1.0772
 1604SOL    HW2 6413   1.450   6.679   0.592 -0.4720 -1.4035 -1.1997
 1605SOL     OW 6414   5.728   1.036   2.459  0.1260 -0.4419  0.2434
 1605SOL    HW1 6415   5.643   0.991   2.434  0.5055 -0.1860 -1.6512
 1605SOL    HW2 6416   5.739   1.034   2.558 -0.8164 -2.7664  0.3612
 1606SOL     OW 6417   0.472   6.826   0.759  0.1758  0.0003  0.3418
 1606SOL    HW1 6418   0.492   6.771   0.841  1.6886 -1.1927 -0.7653
 1606SOL    HW2 6419   0.521   6.787   0.681  0.6298  2.4661 -0.6745
 1607SOL     OW 6420   6.658   1.645   5.790 -0.6743  0.0419  0.1099
 1607SOL    HW1 6421   6.745   1.694   5.796 -0.7598  0.2126 -0.0430
 1607SOL    HW2 6422   6.676   1.547   5.781 -0.4949  0.0824  0.0059
 1608SOL     OW 6423   1.891   2.688   5.865 -0.8622  0.6147  0.1569
 1608SOL    HW1 6424   1.839   2.750   5.924 -1.2035  1.2210 -0.7553
 1608SOL    HW2 6425   1.852   2.689   5.773 -0.5671 -0.5975  0.0016
 1609SOL     OW 6426   0.744   2.366   6.733 -0.3807  0.4200 -0.1584
 1609SOL    HW1 6427   0.651   2.330   6.749  0.0987 -0.4514  0.8091
 1609SOL    HW2 6428   0.745   2.420   6.649 -1.8963  0.9352  0.1268
 1610SOL     OW 6429   3.490   1.217   1.300  0.4240 -0.3359 -0.4096
 1610SOL    HW1 6430   3.590   1.211   1.302  0.5320  0.9713 -0.9982
 1610SOL    HW2 6431   3.454   1.151   1.234  1.1260  1.1925 -2.4308
 1611SOL     OW 6432   1.969   6.048   0.807 -0.0745 -0.1509  0.1484
 1611SOL    HW1 6433   1.945   6.032   0.902  0.6641  1.7641  0.7220
 1611SOL    HW2 6434   1.945   6.142   0.782  0.7027 -0.2909 -1.2328
 1612SOL     OW 6435   2.904   6.927   3.017 -0.6831  0.3340 -0.1760
 1612SOL    HW1 6436   2.887   6.842   2.967 -0.2090  0.8014 -1.1431
 1612SOL    HW2 6437   2.823   6.950   3.071 -0.7208 -0.8714  0.3172
 1613SOL     OW 6438   6.059   0.845   1.939 -0.1331 -0.1204  0.9467
 1613SOL    HW1 6439   6.086   0.892   1.855  1.2747 -1.5926  0.5194
 1613SOL    HW2 6440   6.035   0.912   2.009  1.9894  1.2558  0.4425
 1614SOL     OW 6441   0.571   1.197   2.956 -0.2319  0.7066 -0.0167
 1614SOL    HW1 6442   0.607   1.283   2.991  0.4009 -0.0854  1.3721
 1614SOL    HW2 6443   0.646   1.134   2.937 -0.7497 -0.3203  1.1538
 1615SOL     OW 6444   4.068   6.756   1.279  0.4982  0.0596  0.6942
 1615SOL    HW1 6445   4.132   6.813   1.330  0.1896 -1.3780  2.8253
 1615SOL    HW2 6446   4.106   6.736   1.189  2.2993  0.5711  1.2957
 1616SOL     OW 6447   2.855   4.547   1.483  0.1760  0.2582  0.0242
 1616SOL    HW1 6448   2.870   4.556   1.582 -0.5218  1.7881  0.0133
 1616SOL    HW2 6449   2.822   4.633   1.446  1.9947  0.2436 -1.8585
 1617SOL     OW 6450   2.366   3.097   0.375  0.1336  0.3528  0.0385
 1617SOL    HW1 6451   2.273   3.123   0.348 -0.4982 -2.8685 -1.4226
 1617SOL    HW2 6452   2.367   3.067   0.470 -0.4673 -0.1801 -0.1222
 1618SOL     OW 6453   3.051   3.509   2.129  0.4488  0.1589 -0.1423
 1618SOL    HW1 6454   3.092   3.421   2.151  0.4843  0.4793  1.1445
 1618SOL    HW2 6455   3.120   3.582   2.140  0.0181  0.5057  0.2692
 1619SOL     OW 6456   6.417   0.600   2.973 -0.0891 -0.0370 -0.0996
 1619SOL    HW1 6457   6.460   0.548   3.047  0.5960 -1.3500 -1.3722
 1619SOL    HW2 6458   6.333   0.554   2.944 -0.9280  1.0381  0.5236
 1620SOL     OW 6459   4.984   2.072   1.865 -0.1173 -0.1098 -0.2882
 1620SOL    HW1 6460   5.058   2.137   1.847 -0.7477  0.6388 -0.2376
 1620SOL    HW2 6461   5.015   2.003   1.930 -0.2061  1.6345  1.6973
 1621SOL     OW 6462   4.742   3.520   6.196  0.3402  0.4805 -0.0633
 1621SOL    HW1 6463   4.704   3.604   6.237  0.0333  0.5809 -0.5443
 1621SOL    HW2 6464   4.674   3.480   6.134  0.6974  0.1789 -0.2610
 1622SOL     OW 6465   0.747   1.174   5.173  0.2920 -0.6634 -0.0526
 1622SOL    HW1 6466   0.788   1.192   5.263  0.3391 -1.5669  0.1178
 1622SOL    HW2 6467   0.678   1.243   5.154  1.0723  0.1966  0.1772
 1623SOL     OW 6468   0.198   1.703   3.197  0.4751  0.5052  0.2054
 1623SOL    HW1 6469   0.198   1.607   3.168  1.7627 -0.0438  1.8964
 1623SOL    HW2 6470   0.232   1.761   3.123 -0.2200 -0.3365 -0.7951
 1624SOL     OW 6471   0.339   5.845   2.492  0.4740 -0.4209  0.4656
 1624SOL    HW1 6472   0.303   5.765   2.444  0.8460 -0.8460  0.8836
 1624SOL    HW2 6473   0.314   5.928   2.443  1.3855 -0.8734 -0.8086
 1625SOL     OW 6474   1.869   3.254   3.775 -0.1658  0.3060  0.0604
 1625SOL    HW1 6475   1.845   3.203   3.693 -0.2426 -0.8402  0.7763
 1625SOL    HW2 6476   1.788   3.266   3.832  0.0465  0.3820  0.3519
 1626SOL     OW 6477   1.717   0.428   3.011  0.3401 -0.1923 -0.7573
 1626SOL    HW1 6478   1.675   0.346   3.048  2.8388 -1.6270 -0.8538
 1626SOL    HW2 6479   1.661   0.463   2.936 -1.3719 -1.0896  0.0383
 1627SOL     OW 6480   5.215   1.544   1.451 -0.0689  0.0276 -0.5979
 1627SOL    HW1 6481   5.181   1.637   1.470  1.0402  0.4900 -0.8028
 1627SOL    HW2 6482   5.161   1.504   1.377  0.0887  0.9043 -1.1966
 1628SOL     OW 6483   0.586   5.889   6.070 -0.3601 -0.0497  0.3805
 1628SOL    HW1 6484   0.589   5.885   6.170  0.2101  0.4372  0.3879
 1628SOL    HW2 6485   0.659   5.833   6.032  0.4561  1.0350  0.2820
 1629SOL     OW 6486   3.258   4.333   6.245  0.5207 -0.1797  0.2253
 1629SOL    HW1 6487   3.312   4.318   6.162 -2.4008  0.3391 -1.9085
 1629SOL    HW2 6488   3.226   4.428   6.248  0.4766 -0.2099  1.9395
 1630SOL     OW 6489   3.360   0.801   2.948 -0.0899 -0.0104 -1.1593
 1630SOL    HW1 6490   3.301   0.860   3.002  1.0975  0.6648 -0.5576
 1630SOL    HW2 6491   3.304   0.743   2.889 -1.5056 -1.5853  1.5480
 1631SOL     OW 6492   2.450   0.350   0.171 -0.0839 -0.3781 -0.1763
 1631SOL    HW1 6493   2.360   0.313   0.152  0.4688 -1.7185 -0.2696
 1631SOL    HW2 6494   2.490   0.385   0.086 -0.0316 -0.8827 -0.3603
 1632SOL     OW 6495   3.500   3.734   0.121  1.1007  0.0325 -0.1108
 1632SOL    HW1 6496   3.571   3.723   0.051  0.5712 -0.3650 -0.5901
 1632SOL    HW2 6497   3.414   3.694   0.088  0.2420  1.8254 -0.1431
 1633SOL     OW 6498   1.157   3.354   6.542  0.1247  0.4806 -0.7553
 1633SOL    HW1 6499   1.129   3.441   6.580  1.4687  1.5860 -2.1620
 1633SOL    HW2 6500   1.239   3.321   6.590  0.3557  0.6283 -1.0454
 1634SOL     OW 6501   3.893   4.049   0.202  0.8798 -0.0210 -0.2598
 1634SOL    HW1 6502   3.919   3.952   0.210  0.7975  0.0405  1.0619
 1634SOL    HW2 6503   3.908   4.094   0.290 -3.2067  0.1423  0.5599
 1635SOL     OW 6504   1.457   3.340   0.548  0.2418 -0.1518  0.8560
 1635SOL    HW1 6505   1.364   3.312   0.571  0.7576 -0.5431  2.6423
 1635SOL    HW2 6506   1.491   3.403   0.618  0.9896  0.7512 -0.2879
 1636SOL     OW 6507   1.427   3.955   3.090  0.1266 -0.1754  0.0489
 1636SOL    HW1 6508   1.417   3.992   2.997  0.8292  0.1718  0.1096
 1636SOL    HW2 6509   1.474   4.021   3.148  0.5605 -0.7810  0.4018
 1637SOL     OW 6510   1.755   0.524   6.893 -0.1911  0.0697  0.2943
 1637SOL    HW1 6511   1.701   0.581   6.831 -1.6996  1.7721  2.9728
 1637SOL    HW2 6512   1.824   0.580   6.940  0.1106 -0.8806  1.0347
 1638SOL     OW 6513   3.077   5.793   1.073  0.2131  0.3300  0.1914
 1638SOL    HW1 6514   3.145   5.825   1.138  0.0640  0.9317  0.0617
 1638SOL    HW2 6515   2.985   5.819   1.104  0.1737  0.9952 -0.4631
 1639SOL     OW 6516   1.771   0.366   0.416  0.4290 -0.4136 -0.3976
 1639SOL    HW1 6517   1.722   0.304   0.476  1.5586  0.3459  1.4193
 1639SOL    HW2 6518   1.764   0.335   0.321 -2.0104 -1.2628 -0.0000
 1640SOL     OW 6519   6.946   6.585   0.833 -0.1969  0.2851  0.9275
 1640SOL    HW1 6520   6.920   6.499   0.788 -1.1502  0.1032  1.7951
 1640SOL    HW2 6521   6.954   6.657   0.765 -0.8447 -0.1558  0.3717
 1641SOL     OW 6522   6.122   1.694   6.905  0.4998 -0.0635  0.2358
 1641SOL    HW1 6523   6.113   1.736   6.814 -1.1148 -0.3849  0.2222
 1641SOL    HW2 6524   6.060   1.617   6.912  2.0353 -1.2789  0.9565
 1642SOL     OW 6525   5.773   2.946   4.301  0.1356 -0.2617 -0.7448
 1642SOL    HW1 6526   5.859   2.996   4.291  1.4733 -2.3859 -0.5524
 1642SOL    HW2 6527   5.767   2.907   4.393  0.2166 -2.1960 -1.5050
 1643SOL     OW 6528   5.665   6.069   3.785  0.0882 -0.0534 -0.7014
 1643SOL    HW1 6529   5.573   6.030   3.796 -0.4506  1.3116 -0.1510
 1643SOL    HW2 6530   5.728   5.997   3.756 -1.2587 -0.9118 -1.6334
 1644SOL     OW 6531   4.454   1.757   0.828  0.0199 -0.0447  0.2003
 1644SOL    HW1 6532   4.453   1.671   0.777 -0.2371 -0.6426  1.1880
 1644SOL    HW2 6533   4.528   1.755   0.895 -0.7843 -0.0534  1.1246
 1645SOL     OW 6534   0.978   0.589   2.210 -0.5914  0.2770  0.5461
 1645SOL    HW1 6535   0.880   0.578   2.223 -0.7398  1.4162  0.4865
 1645SOL    HW2 6536   1.024   0.502   2.230 -1.6122 -0.3077  0.4370
 1646SOL     OW 6537   0.833   4.669   5.732 -0.4420  0.8300  0.0930
 1646SOL    HW1 6538   0.889   4.612   5.793 -1.0468 -0.1832 -0.2708
 1646SOL    HW2 6539   0.875   4.672   5.641 -1.6221 -1.1065 -0.5945
 1647SOL     OW 6540   0.182   5.465   2.725 -0.6509 -0.0762  0.1490
 1647SOL    HW1 6541   0.238   5.547   2.719  0.7284 -1.1019 -2.9192
 1647SOL    HW2 6542   0.085   5.490   2.732 -0.3410  1.8521 -1.7156
 1648SOL     OW 6543   3.372   1.233   5.731  0.2022  0.0363 -0.6119
 1648SOL    HW1 6544   3.335   1.203   5.643  1.9679  0.7835 -1.6560
 1648SOL    HW2 6545   3.401   1.328   5.724 -0.0880  0.2773  0.9633
 1649SOL     OW 6546   0.637   1.218   2.382 -0.3621  0.3186  0.0601
 1649SOL    HW1 6547   0.611   1.308   2.416 -2.8125 -0.1508 -0.3824
 1649SOL    HW2 6548   0.631   1.151   2.457  1.3052  0.4509  0.3525
 1650SOL     OW 6549   2.557   2.927   1.350  0.5552  0.4055 -0.5298
 1650SOL    HW1 6550   2.484   2.909   1.283 -0.8532  0.5939  0.9032
 1650SOL    HW2 6551   2.608   3.009   1.322 -0.5019  0.9349 -0.9812
 1651SOL     OW 6552   0.655   1.050   6.854 -0.3635 -0.2114 -0.1657
 1651SOL    HW1 6553   0.681   1.080   6.945 -0.6889 -2.9101  0.9158
 1651SOL    HW2 6554   0.730   1.070   6.790  0.5802  0.2209  1.0234
 1652SOL     OW 6555   2.557   5.267   6.374 -0.3320  0.2665  0.3666
 1652SOL    HW1 6556   2.608   5.200   6.321  1.1010  1.1170  0.6217
 1652SOL    HW2 6557   2.577   5.359   6.340 -1.7328  0.6318  0.4658
 1653SOL     OW 6558   2.097   3.676   3.242  0.0662  0.0080  0.0277
 1653SOL    HW1 6559   2.161   3.615   3.195  2.0483  2.5594 -0.7737
 1653SOL    HW2 6560   2.033   3.715   3.176 -0.6935 -0.5812  0.4062
 1654SOL     OW 6561   0.534   1.225   5.971 -0.5490  0.1168 -0.3952
 1654SOL    HW1 6562   0.471   1.194   5.899  0.9191 -1.6379 -0.9857
 1654SOL    HW2 6563   0.580   1.308   5.941 -0.4274 -0.2350 -1.2144
 1655SOL     OW 6564   1.430   5.029   5.752  0.3963  0.0394 -0.5397
 1655SOL    HW1 6565   1.355   5.087   5.721  0.7566  0.9002  0.1643
 1655SOL    HW2 6566   1.463   5.062   5.841 -0.3950 -2.1309  0.6431
 1656SOL     OW 6567   6.029   4.091   2.094 -0.2447 -0.3339  0.1927
 1656SOL    HW1 6568   6.029   3.997   2.062  0.1516  0.1790 -1.4002
 1656SOL    HW2 6569   6.090   4.100   2.173  0.1941 -1.2737 -0.0311
 1657SOL     OW 6570   0.175   5.386   5.008  0.0119 -0.0296 -0.6416
 1657SOL    HW1 6571   0.128   5.450   4.947 -1.0371  2.8813  2.8207
 1657SOL    HW2 6572   0.109   5.352   5.076  1.6394 -0.7847  0.6208
 1658SOL     OW 6573   6.325   0.666   0.719  0.0354  0.1036  0.5029
 1658SOL    HW1 6574   6.304   0.698   0.626  0.0771  0.9327  0.7734
 1658SOL    HW2 6575   6.296   0.735   0.785 -1.1407 -1.0057  1.1985
 1659SOL     OW 6576   0.264   3.067   4.310  0.3201 -0.1121  0.2885
 1659SOL    HW1 6577   0.361   3.077   4.290 -0.0395 -0.0020 -1.6349
 1659SOL    HW2 6578   0.220   3.015   4.237 -1.2330  0.6745  0.6085
 1660SOL     OW 6579   0.388   6.814   1.996  0.6665  0.2993  0.5143
 1660SOL    HW1 6580   0.440   6.797   1.913  1.4917  0.1347  1.0474
 1660SOL    HW2 6581   0.413   6.903   2.034  0.6512  0.1671  0.8378
 1661SOL     OW 6582   3.335   6.371   2.088 -0.0209 -0.8497 -0.2191
 1661SOL    HW1 6583   3.407   6.317   2.044 -0.1301 -1.1711 -0.0095
 1661SOL    HW2 6584   3.374   6.455   2.124  0.9031 -2.3101  2.4835
 1662SOL     OW 6585   5.821   0.497   3.342  0.3628 -0.4552  0.4019
 1662SOL    HW1 6586   5.738   0.519   3.290  0.2418  1.6115  1.3557
 1662SOL    HW2 6587   5.901   0.532   3.293  0.3462  0.4816  1.0125
 1663SOL     OW 6588   4.372   0.141   1.493  0.0477 -0.2493 -0.1345
 1663SOL    HW1 6589   4.336   0.191   1.415 -1.0540 -0.5650  0.1591
 1663SOL    HW2 6590   4.465   0.173   1.514 -0.7470  1.9348  0.2711
 1664SOL     OW 6591   0.093   4.724   2.255 -0.0759 -0.1701 -0.0979
 1664SOL    HW1 6592   0.124   4.654   2.319 -0.0442  0.4746  0.5947
 1664SOL    HW2 6593   0.170   4.756   2.201  0.2608  0.6117  0.8314
 1665SOL     OW 6594   0.658   3.892   1.269 -0.1516  0.7942 -0.0453
 1665SOL    HW1 6595   0.688   3.809   1.222  0.4866 -0.4921  2.4284
 1665SOL    HW2 6596   0.721   3.967   1.248  0.7002 -0.0073 -0.4165
 1666SOL     OW 6597   3.564   6.898   5.554 -0.1917 -0.4499 -0.1635
 1666SOL    HW1 6598   3.497   6.849   5.610 -1.1862  1.4573  0.4026
 1666SOL    HW2 6599   3.558   6.867   5.459 -1.8251 -0.4074 -0.1030
 1667SOL     OW 6600   5.864   1.785   5.206  0.0289  0.1435  0.5433
 1667SOL    HW1 6601   5.908   1.868   5.240  1.3860 -0.9981  1.7276
 1667SOL    HW2 6602   5.765   1.793   5.214  0.1403  1.6328  0.6297
 1668SOL     OW 6603   6.166   4.148   2.383  0.0873 -0.1104 -0.1432
 1668SOL    HW1 6604   6.145   4.065   2.434  0.5757 -0.5593 -0.6578
 1668SOL    HW2 6605   6.110   4.224   2.417 -0.0255 -0.5413  0.6397
 1669SOL     OW 6606   1.337   4.590   4.943  0.2149 -1.1496 -0.1140
 1669SOL    HW1 6607   1.273   4.520   4.913 -2.0853  0.7369  0.0457
 1669SOL    HW2 6608   1.299   4.681   4.922  1.9334  0.1060  1.8211
 1670SOL     OW 6609   5.785   4.106   1.999  0.8859  0.9135  0.1089
 1670SOL    HW1 6610   5.821   4.090   1.907 -0.7910  0.9444 -0.5820
 1670SOL    HW2 6611   5.859   4.096   2.065  1.8462 -0.5161 -1.1097
 1671SOL     OW 6612   5.450   0.239   2.122  0.3777 -0.4180 -0.4692
 1671SOL    HW1 6613   5.547   0.218   2.132  0.0847 -0.7915  2.4101
 1671SOL    HW2 6614   5.397   0.182   2.185 -1.5296  1.1775 -0.5248
 1672SOL     OW 6615   4.931   4.691   0.308  0.0576 -0.0904 -0.7461
 1672SOL    HW1 6616   4.987   4.707   0.389 -0.5680 -1.4565  0.0073
 1672SOL    HW2 6617   4.877   4.607   0.322 -2.9357  1.6341 -0.9984
 1673SOL     OW 6618   5.634   6.926   4.049  0.2444  0.1830  0.4680
 1673SOL    HW1 6619   5.608   6.830   4.044  0.7217  0.1046 -1.1693
 1673SOL    HW2 6620   5.733   6.934   4.037  0.0981  0.9247 -0.3600
 1674SOL     OW 6621   6.381   5.828   3.824  0.3418  0.3001  0.1052
 1674SOL    HW1 6622   6.373   5.920   3.787 -0.2280  0.0449 -0.4402
 1674SOL    HW2 6623   6.367   5.829   3.923  1.2615  0.9176  0.2333
 1675SOL     OW 6624   1.561   5.402   4.280 -0.8460 -0.0480 -0.2668
 1675SOL    HW1 6625   1.484   5.386   4.343 -1.4703 -0.6139 -1.1418
 1675SOL    HW2 6626   1.529   5.391   4.186  0.3299 -0.3420 -0.6443
 1676SOL     OW 6627   5.261   6.800   0.836 -0.5422 -0.1428 -0.1915
 1676SOL    HW1 6628   5.317   6.719   0.846 -0.2921  0.1777  1.2007
 1676SOL    HW2 6629   5.188   6.800   0.905 -1.4569  0.0983 -1.1185
 1677SOL     OW 6630   4.204   1.570   0.867  0.1188 -0.7751  0.6172
 1677SOL    HW1 6631   4.243   1.576   0.959 -0.1755 -0.3648  0.7186
 1677SOL    HW2 6632   4.274   1.540   0.803  0.2093 -1.5179  1.0519
 1678SOL     OW 6633   5.055   4.126   0.309  0.4108  0.7194 -0.2897
 1678SOL    HW1 6634   4.996   4.152   0.232  0.1877  3.1185  0.5916
 1678SOL    HW2 6635   5.150   4.122   0.279  0.2390  0.8531 -0.8647
 1679SOL     OW 6636   2.366   3.577   1.395  0.1203 -0.0878  0.1015
 1679SOL    HW1 6637   2.291   3.599   1.333 -0.5637 -1.1707  0.5078
 1679SOL    HW2 6638   2.373   3.646   1.466 -0.6626 -0.0976  0.1969
 1680SOL     OW 6639   0.420   0.343   0.978 -0.4224  0.5339  0.0910
 1680SOL    HW1 6640   0.478   0.275   1.024 -0.8485 -0.5407 -0.9044
 1680SOL    HW2 6641   0.459   0.365   0.888 -0.9623  0.6439 -0.1179
 1681SOL     OW 6642   6.959   2.579   5.594 -0.2136 -0.3784 -0.4438
 1681SOL    HW1 6643   7.032   2.581   5.525 -1.1965  1.3742 -1.4857
 1681SOL    HW2 6644   6.919   2.488   5.597  1.0248 -0.9687 -0.8871
 1682SOL     OW 6645   1.322   3.978   1.198  0.3067 -0.2196  0.0546
 1682SOL    HW1 6646   1.413   3.939   1.181  0.4264  0.1719 -0.2032
 1682SOL    HW2 6647   1.330   4.063   1.249  0.0362 -0.5580  0.6836
 1683SOL     OW 6648   5.907   5.171   6.934  0.4063 -0.3063  0.4349
 1683SOL    HW1 6649   5.879   5.076   6.927 -0.1710 -0.1627  0.7553
 1683SOL    HW2 6650   6.007   5.176   6.943  0.5906 -0.8060 -1.0403
 1684SOL     OW 6651   6.012   5.404   0.561  0.6266  0.1416  0.0120
 1684SOL    HW1 6652   6.020   5.320   0.507  1.8583  0.8748 -0.9896
 1684SOL    HW2 6653   6.058   5.392   0.648 -1.0987 -0.9419  0.8340
 1685SOL     OW 6654   4.309   5.959   4.649  0.3343 -0.2502  0.2278
 1685SOL    HW1 6655   4.257   5.891   4.597 -1.5170  0.0458  1.5734
 1685SOL    HW2 6656   4.256   6.044   4.655  1.7966  0.7077  0.1538
 1686SOL     OW 6657   0.887   6.868   5.494  0.4323 -0.1536 -0.1379
 1686SOL    HW1 6658   0.926   6.840   5.406 -2.0939 -1.7508 -0.8590
 1686SOL    HW2 6659   0.960   6.904   5.552  2.2097  0.9428 -2.8179
 1687SOL     OW 6660   0.917   5.314   5.593  0.1831  0.2039 -0.2268
 1687SOL    HW1 6661   0.886   5.408   5.584  1.8748  0.7726 -0.4403
 1687SOL    HW2 6662   0.878   5.259   5.519 -0.4187  0.8404 -0.3899
 1688SOL     OW 6663   0.401   5.141   2.269 -0.3858  0.1598 -0.1453
 1688SOL    HW1 6664   0.459   5.114   2.193 -2.5925 -1.7991 -1.2649
 1688SOL    HW2 6665   0.335   5.209   2.239  1.0192  2.1454  1.0381
 1689SOL     OW 6666   6.236   5.724   2.543 -0.0846 -0.5885  0.0612
 1689SOL    HW1 6667   6.153   5.702   2.594  0.0131  0.1034  0.5258
 1689SOL    HW2 6668   6.264   5.818   2.563  0.1162 -0.3972 -1.0420
 1690SOL     OW 6669   4.898   0.254   6.511 -0.4340  0.2130 -0.1163
 1690SOL    HW1 6670   4.847   0.238   6.596  0.3114  2.6059  0.8958
 1690SOL    HW2 6671   4.840   0.302   6.446 -0.2053  0.8769  0.1537
 1691SOL     OW 6672   1.479   1.849   2.003 -0.0245 -0.2247  0.0635
 1691SOL    HW1 6673   1.494   1.836   1.905  0.8824 -0.1255  0.1803
 1691SOL    HW2 6674   1.465   1.761   2.048  0.7603 -0.3782  0.0234
 1692SOL     OW 6675   2.378   3.148   4.025  0.3905 -0.1525 -0.1711
 1692SOL    HW1 6676   2.299   3.101   3.986 -0.0114  0.3647  0.0037
 1692SOL    HW2 6677   2.461   3.097   4.003  0.1529 -0.0149 -1.5156
 1693SOL     OW 6678   6.837   5.729   2.761  0.6654 -0.4936 -0.1671
 1693SOL    HW1 6679   6.917   5.725   2.700 -0.0549 -3.0165 -1.0781
 1693SOL    HW2 6680   6.754   5.715   2.707 -0.2944  0.5706  0.9810
 1694SOL     OW 6681   1.269   0.685   1.496  0.3229  0.4017 -0.2260
 1694SOL    HW1 6682   1.227   0.596   1.517  0.3200  0.3443 -0.4726
 1694SOL    HW2 6683   1.281   0.737   1.581  0.1115  0.2597 -0.1078
 1695SOL     OW 6684   0.983   3.312   5.476 -0.3256  0.0976  0.1348
 1695SOL    HW1 6685   1.077   3.344   5.460 -0.1131 -1.1091 -1.1821
 1695SOL    HW2 6686   0.980   3.213   5.469 -1.4313 -0.0173  1.7609
 1696SOL     OW 6687   6.101   0.112   5.962  0.7255  0.0904  0.2534
 1696SOL    HW1 6688   6.200   0.103   5.948  0.5698  0.1197 -0.9432
 1696SOL    HW2 6689   6.071   0.201   5.928  0.4228  0.4905  1.5024
 1697SOL     OW 6690   0.977   6.645   2.416 -0.4210  0.6776  0.2455
 1697SOL    HW1 6691   1.072   6.619   2.434 -0.5169  1.4599  2.0265
 1697SOL    HW2 6692   0.963   6.741   2.439 -1.4754  0.7845 -0.7488
 1698SOL     OW 6693   1.619   4.536   5.005  0.1970 -0.7106  0.0601
 1698SOL    HW1 6694   1.546   4.570   4.947  2.1183  0.5159 -1.7787
 1698SOL    HW2 6695   1.636   4.601   5.079 -1.5566 -1.7740  1.4795
 1699SOL     OW 6696   6.038   2.806   3.075 -0.0030  0.4425 -0.1286
 1699SOL    HW1 6697   6.089   2.892   3.086 -0.1470  0.5596 -0.3696
 1699SOL    HW2 6698   6.035   2.758   3.162 -0.2562  0.8668  0.0975
 1700SOL     OW 6699   0.333   5.485   1.446 -0.5656 -0.3107 -0.2991
 1700SOL    HW1 6700   0.404   5.482   1.376  1.3061 -2.0572  1.5239
 1700SOL    HW2 6701   0.264   5.415   1.427  0.4767 -1.4774  0.0522
 1701SOL     OW 6702   3.556   5.886   3.418 -0.0127 -0.5655  0.6206
 1701SOL    HW1 6703   3.650   5.919   3.428  0.0003  0.0185 -1.0751
 1701SOL    HW2 6704   3.496   5.964   3.401  0.1444 -1.2155 -4.3902
 1702SOL     OW 6705   6.612   2.957   6.346 -0.1331 -0.0214  0.5715
 1702SOL    HW1 6706   6.565   2.940   6.260 -0.1229  0.4213  0.4720
 1702SOL    HW2 6707   6.628   2.871   6.393  1.9803 -0.5312 -0.9662
 1703SOL     OW 6708   4.602   6.282   4.059  0.0797 -0.4540  1.0124
 1703SOL    HW1 6709   4.578   6.249   3.967 -1.2780  1.0870  0.7710
 1703SOL    HW2 6710   4.542   6.239   4.126 -1.5013  1.1675  0.7266
 1704SOL     OW 6711   3.086   6.597   5.138 -0.2311  0.4016 -0.3584
 1704SOL    HW1 6712   3.006   6.647   5.171 -0.0250  0.1994  0.4852
 1704SOL    HW2 6713   3.162   6.660   5.126 -0.1101  0.3803  0.2386
 1705SOL     OW 6714   5.947   6.999   3.379 -0.3961 -0.4841 -0.0279
 1705SOL    HW1 6715   5.983   6.948   3.457  2.3429  0.4889 -0.5103
 1705SOL    HW2 6716   6.002   6.978   3.298 -1.1577  0.8956 -0.9478
 1706SOL     OW 6717   0.590   1.992   6.535 -1.0200 -0.5013  0.3389
 1706SOL    HW1 6718   0.545   1.974   6.623 -1.9826  0.6893  0.1090
 1706SOL    HW2 6719   0.564   2.083   6.502 -0.0487 -0.6192 -0.8062
 1707SOL     OW 6720   5.717   3.943   5.308  0.6278  0.1654 -0.5335
 1707SOL    HW1 6721   5.758   4.012   5.367 -0.1443  0.8751 -0.8160
 1707SOL    HW2 6722   5.634   3.979   5.265  0.0759 -1.0038 -0.5092
 1708SOL     OW 6723   4.546   4.678   5.083  0.4820 -0.2917  0.1999
 1708SOL    HW1 6724   4.612   4.744   5.120 -0.3263 -0.4857  2.1067
 1708SOL    HW2 6725   4.462   4.726   5.059  0.0448 -0.5433  1.1911
 1709SOL     OW 6726   4.084   1.408   3.651  0.5028 -0.2655 -0.3064
 1709SOL    HW1 6727   4.116   1.412   3.557 -0.1920  1.0692 -0.5141
 1709SOL    HW2 6728   4.019   1.483   3.668 -0.5973 -1.4020  0.7759
 1710SOL     OW 6729   4.123   3.920   1.343 -0.3755 -0.4246 -0.3136
 1710SOL    HW1 6730   4.045   3.872   1.303 -1.5954 -0.4803  1.9846
 1710SOL    HW2 6731   4.156   3.870   1.423  1.4561  0.0846 -0.7051
 1711SOL     OW 6732   4.125   6.447   4.400 -0.2480  0.1150 -0.0840
 1711SOL    HW1 6733   4.198   6.480   4.340 -0.8825 -0.1595 -1.0174
 1711SOL    HW2 6734   4.132   6.348   4.408 -0.8181  0.0355 -0.5725
 1712SOL     OW 6735   4.731   4.851   5.235 -0.2126 -0.1939 -0.1987
 1712SOL    HW1 6736   4.701   4.916   5.165 -0.5386  0.1698  0.2764
 1712SOL    HW2 6737   4.776   4.901   5.309 -1.1800 -0.4216  0.5534
 1713SOL     OW 6738   2.828   1.153   5.661 -0.1764 -0.5215  0.5933
 1713SOL    HW1 6739   2.834   1.136   5.563  1.5618  0.5335  0.4710
 1713SOL    HW2 6740   2.839   1.067   5.711  1.1245 -0.7877 -0.1168
 1714SOL     OW 6741   0.516   5.669   0.071  0.0124  0.3743  0.6067
 1714SOL    HW1 6742   0.592   5.670   0.007  0.6917  0.7385  1.4042
 1714SOL    HW2 6743   0.430   5.671   0.020  0.4867 -1.5408 -0.3573
 1715SOL     OW 6744   1.125   0.032   6.134  0.4102  0.4732 -0.1909
 1715SOL    HW1 6745   1.130   0.091   6.215  0.6964  0.2106 -0.0171
 1715SOL    HW2 6746   1.169   0.079   6.056  2.8623 -0.4627  0.5225
 1716SOL     OW 6747   0.292   1.878   2.700 -0.5368 -0.4373 -0.4524
 1716SOL    HW1 6748   0.323   1.842   2.789 -0.6669 -1.2931 -0.7417
 1716SOL    HW2 6749   0.344   1.834   2.627  0.5151  1.2478 -0.7562
 1717SOL     OW 6750   1.263   1.615   3.291 -0.0199  0.1063  0.2759
 1717SOL    HW1 6751   1.337   1.548   3.284  1.1141  1.1983  1.2474
 1717SOL    HW2 6752   1.175   1.569   3.284  0.7232 -1.1740 -1.5742
 1718SOL     OW 6753   4.825   5.075   2.354 -0.4133 -0.3357 -0.1326
 1718SOL    HW1 6754   4.907   5.124   2.322  0.6909 -2.2185 -0.3212
 1718SOL    HW2 6755   4.778   5.130   2.423  0.3151  1.3190 -0.9040
 1719SOL     OW 6756   2.776   1.651   2.191  0.0357  0.4196  0.6324
 1719SOL    HW1 6757   2.858   1.673   2.244 -0.2745  0.6203  1.0410
 1719SOL    HW2 6758   2.798   1.584   2.121  0.6146  0.6964  0.5414
 1720SOL     OW 6759   4.531   3.348   3.189  0.0893 -0.0070  0.2998
 1720SOL    HW1 6760   4.539   3.271   3.126  1.2710  1.6069 -1.6551
 1720SOL    HW2 6761   4.445   3.395   3.172  0.6575  0.7608 -0.5891
 1721SOL     OW 6762   3.550   1.302   4.611  0.0700  0.0042 -0.3129
 1721SOL    HW1 6763   3.463   1.321   4.657  0.1187 -1.0797  0.2629
 1721SOL    HW2 6764   3.542   1.217   4.559  0.4381  0.5160 -1.2267
 1722SOL     OW 6765   1.168   5.543   5.863 -0.5516 -0.3851  0.9014
 1722SOL    HW1 6766   1.186   5.546   5.765  0.3763  0.2472  1.0810
 1722SOL    HW2 6767   1.179   5.634   5.902 -0.1059 -0.7840  1.7259
 1723SOL     OW 6768   3.441   0.574   6.678 -0.4242 -0.9100 -0.8750
 1723SOL    HW1 6769   3.383   0.524   6.613 -1.7257 -1.6379  0.7734
 1723SOL    HW2 6770   3.419   0.546   6.771  2.0412 -0.5851 -0.1139
 1724SOL     OW 6771   0.577   4.449   1.290  0.5714  0.4167 -0.8649
 1724SOL    HW1 6772   0.559   4.350   1.288  0.2824  0.2450  2.8519
 1724SOL    HW2 6773   0.669   4.465   1.326 -0.7480  1.4156  2.3580
 1725SOL     OW 6774   5.478   5.967   3.009  0.0643 -0.2571 -0.4429
 1725SOL    HW1 6775   5.447   6.057   2.977  0.3359 -0.3216 -0.9007
 1725SOL    HW2 6776   5.417   5.896   2.973  0.6508 -0.3733 -1.2420
 1726SOL     OW 6777   6.872   1.567   2.523  0.2827 -0.4665 -0.0690
 1726SOL    HW1 6778   6.786   1.542   2.568  0.7427 -0.6305  0.7361
 1726SOL    HW2 6779   6.909   1.488   2.475  0.9879 -0.9759  1.2540
 1727SOL     OW 6780   4.912   5.025   0.924  0.2133 -0.2488  0.1772
 1727SOL    HW1 6781   4.921   4.970   0.841 -0.4445  0.1095 -0.1404
 1727SOL    HW2 6782   4.867   5.112   0.901 -0.5088 -0.3919  1.0120
 1728SOL     OW 6783   4.964   6.082   1.271  0.2595 -0.3683  0.1072
 1728SOL    HW1 6784   4.967   6.177   1.304  1.6981 -0.3927  0.1368
 1728SOL    HW2 6785   4.937   6.081   1.175  1.7928  0.2422 -0.3625
 1729SOL     OW 6786   1.212   4.438   3.674  0.0330  0.4244  0.0731
 1729SOL    HW1 6787   1.182   4.530   3.649  2.2287  1.2861  0.3606
 1729SOL    HW2 6788   1.299   4.418   3.630 -0.3048 -1.4758  0.1730
 1730SOL     OW 6789   4.001   0.445   2.452 -0.5663  0.5479 -0.1479
 1730SOL    HW1 6790   3.977   0.528   2.503 -2.0611  1.7211 -2.5760
 1730SOL    HW2 6791   3.980   0.458   2.355 -0.5950 -2.6214 -0.6749
 1731SOL     OW 6792   0.533   2.483   2.473  0.1972  0.5009  0.3138
 1731SOL    HW1 6793   0.568   2.577   2.470  2.8581 -0.4232 -0.9032
 1731SOL    HW2 6794   0.478   2.471   2.555  0.3966  2.9260  0.8871
 1732SOL     OW 6795   5.332   3.212   3.251  0.1018  0.4988  0.0871
 1732SOL    HW1 6796   5.414   3.169   3.289  0.5154 -0.3029 -1.6502
 1732SOL    HW2 6797   5.316   3.299   3.298  2.1899  0.8779  0.1906
 1733SOL     OW 6798   2.757   2.126   3.722  0.3833 -0.5213  0.4410
 1733SOL    HW1 6799   2.716   2.038   3.698  0.5313 -0.4448 -0.1025
 1733SOL    HW2 6800   2.854   2.112   3.745 -0.3193 -1.0149  3.6250
 1734SOL     OW 6801   3.266   2.919   1.256 -0.5193  0.1011  0.1917
 1734SOL    HW1 6802   3.290   2.892   1.163  0.8966  2.3177 -0.1842
 1734SOL    HW2 6803   3.272   2.840   1.317  2.7204 -0.6257 -0.8792
 1735SOL     OW 6804   2.065   1.833   3.376 -0.5001 -1.4211 -0.4422
 1735SOL    HW1 6805   1.973   1.872   3.371 -0.2751 -0.8680 -0.3478
 1735SOL    HW2 6806   2.060   1.734   3.359 -1.0575 -1.3298 -0.8619
 1736SOL     OW 6807   4.261   0.070   5.756  0.3185  0.1443 -0.1423
 1736SOL    HW1 6808   4.314   0.145   5.796  1.2838 -0.6259  0.0637
 1736SOL    HW2 6809   4.247  -0.001   5.825 -0.8970  0.2685 -0.2299
 1737SOL     OW 6810   4.763   4.503   0.044 -0.0334 -0.4439  0.1869
 1737SOL    HW1 6811   4.778   4.527  -0.052  0.2254 -1.1930  0.0310
 1737SOL    HW2 6812   4.852   4.488   0.089 -0.1688 -0.5883  0.4096
 1738SOL     OW 6813   0.277   6.073   0.641  0.0910  0.0890 -0.2506
 1738SOL    HW1 6814   0.188   6.029   0.632  0.0025  0.4191 -1.0936
 1738SOL    HW2 6815   0.349   6.010   0.610 -0.0928  0.7225 -2.1246
 1739SOL     OW 6816   6.813   5.608   2.084 -0.3394 -0.3055  0.1100
 1739SOL    HW1 6817   6.722   5.611   2.126 -0.8434 -1.3123 -0.8486
 1739SOL    HW2 6818   6.835   5.514   2.058 -0.1014  0.2586 -1.9404
 1740SOL     OW 6819   6.190   3.816   6.889  0.4446  0.7102  0.7999
 1740SOL    HW1 6820   6.260   3.835   6.958  0.8465 -1.8313  1.1891
 1740SOL    HW2 6821   6.151   3.725   6.905 -2.1522  1.5694 -0.1064
 1741SOL     OW 6822   6.155   5.689   3.194 -0.3473 -0.0722 -0.3733
 1741SOL    HW1 6823   6.093   5.736   3.131 -0.1548  2.6176  1.2647
 1741SOL    HW2 6824   6.106   5.667   3.279  0.2441 -0.5077 -0.1412
 1742SOL     OW 6825   0.021   4.538   0.367  0.0368 -0.5073 -0.4885
 1742SOL    HW1 6826  -0.069   4.578   0.383 -1.1490 -3.0970 -0.1850
 1742SOL    HW2 6827   0.067   4.589   0.294 -1.9613  0.4614 -1.1468
 1743SOL     OW 6828   0.291   0.654   3.150  0.0970 -0.1512 -0.4775
 1743SOL    HW1 6829   0.282   0.739   3.202 -1.7771 -1.1830  1.0058
 1743SOL    HW2 6830   0.202   0.629   3.112  0.7064 -1.2646 -1.2174
 1744SOL     OW 6831   4.158   2.149   2.682  0.0409  0.4209  0.1456
 1744SOL    HW1 6832   4.139   2.052   2.696  1.8395 -0.0795 -0.5271
 1744SOL    HW2 6833   4.254   2.160   2.655  0.3449  2.5472  1.8450
 1745SOL     OW 6834   0.288   6.014   5.427 -0.0812  0.0495  0.9410
 1745SOL    HW1 6835   0.312   6.087   5.491  1.0233  0.7607 -0.2618
 1745SOL    HW2 6836   0.316   6.039   5.335 -1.7829 -0.9002  0.1181
 1746SOL     OW 6837   1.110   6.194   1.025  0.5878 -0.3769 -0.0176
 1746SOL    HW1 6838   1.013   6.173   1.012  0.1641 -0.9352  3.1924
 1746SOL    HW2 6839   1.165   6.117   0.993 -0.1941 -1.1074  0.3496
 1747SOL     OW 6840   6.993   6.927   4.640 -0.1321 -0.0331  0.1413
 1747SOL    HW1 6841   6.922   6.857   4.637 -1.6864  1.4837 -2.7253
 1747SOL    HW2 6842   7.075   6.893   4.593 -0.2786 -0.5030  0.2217
 1748SOL     OW 6843   1.073   5.800   3.556 -0.2354  0.0458  0.9879
 1748SOL    HW1 6844   1.003   5.867   3.582  0.6699  0.2526  3.1493
 1748SOL    HW2 6845   1.088   5.738   3.633 -0.5970 -2.2894 -0.7390
 1749SOL     OW 6846   4.773   0.380   5.225  0.0367  0.3938 -0.3298
 1749SOL    HW1 6847   4.689   0.345   5.266  0.7447 -0.0878  0.7704
 1749SOL    HW2 6848   4.851   0.327   5.260  0.9773  2.0182  0.1076
 1750SOL     OW 6849   6.371   2.265   6.856 -0.6605 -0.2443  0.0998
 1750SOL    HW1 6850   6.287   2.213   6.848 -1.1295  0.4106  0.5946
 1750SOL    HW2 6851   6.368   2.319   6.940 -0.2145  0.6177 -0.4253
 1751SOL     OW 6852   3.813   6.063   0.900  0.8918 -0.5901  0.5909
 1751SOL    HW1 6853   3.795   6.095   0.807  0.5247 -2.2403  0.0652
 1751SOL    HW2 6854   3.912   6.060   0.915  0.9391  0.4501  0.5520
 1752SOL     OW 6855   2.467   5.937   6.852  0.2237  0.1566 -0.3465
 1752SOL    HW1 6856   2.542   5.916   6.913  0.0858 -1.0052 -0.5592
 1752SOL    HW2 6857   2.405   6.002   6.896  0.4767 -0.1500  0.4758
 1753SOL     OW 6858   6.645   1.318   5.238  0.2519 -0.2405  0.3557
 1753SOL    HW1 6859   6.606   1.357   5.322  0.4510 -0.2891  0.4717
 1753SOL    HW2 6860   6.690   1.390   5.186 -0.9704  0.0366 -0.3418
 1754SOL     OW 6861   5.061   4.693   0.554  0.1989 -0.2206  0.0589
 1754SOL    HW1 6862   5.117   4.700   0.636 -0.5000 -1.2869  0.6624
 1754SOL    HW2 6863   4.983   4.633   0.572 -1.3297  1.4549 -0.6389
 1755SOL     OW 6864   3.192   5.635   2.129  0.0874  0.2384  0.4194
 1755SOL    HW1 6865   3.286   5.664   2.147  0.9960 -1.2957 -1.5056
 1755SOL    HW2 6866   3.169   5.653   2.034 -0.7985 -1.3343  0.2990
 1756SOL     OW 6867   1.301   2.116   5.062  0.0844  0.0332 -0.0603
 1756SOL    HW1 6868   1.306   2.189   4.994 -0.3416  1.7261  1.6555
 1756SOL    HW2 6869   1.394   2.087   5.087  0.2995  1.0480  0.3408
 1757SOL     OW 6870   2.488   6.655   0.425 -0.1128  0.8597  0.4682
 1757SOL    HW1 6871   2.557   6.606   0.371  1.0384  1.0464  1.7143
 1757SOL    HW2 6872   2.411   6.681   0.366 -0.1821 -1.3246 -0.4896
 1758SOL     OW 6873   0.650   2.958   5.395 -0.0031 -0.7048  0.4940
 1758SOL    HW1 6874   0.591   2.956   5.475  1.5321  2.3375  1.8597
 1758SOL    HW2 6875   0.602   3.002   5.319 -0.7086 -1.6277  0.3855
 1759SOL     OW 6876   2.173   1.361   2.704  0.2375 -0.1289 -0.6987
 1759SOL    HW1 6877   2.153   1.298   2.629 -0.1084  1.1027 -1.6743
 1759SOL    HW2 6878   2.251   1.418   2.680  1.1726 -0.8110  0.5863
 1760SOL     OW 6879   3.878   5.986   1.808 -0.0027  0.1683  0.2094
 1760SOL    HW1 6880   3.857   6.064   1.867 -2.5157 -0.1134 -0.2051
 1760SOL    HW2 6881   3.955   5.935   1.847  2.4680  3.3683 -0.0918
 1761SOL     OW 6882   6.604   4.327   6.712  0.4035 -0.2258 -0.5419
 1761SOL    HW1 6883   6.663   4.252   6.681  1.3975  0.5963 -0.6905
 1761SOL    HW2 6884   6.660   4.407   6.732 -0.4465 -0.0857  1.4316
 1762SOL     OW 6885   3.419   1.696   1.543  0.3175 -0.5216 -0.4787
 1762SOL    HW1 6886   3.344   1.640   1.578  1.2106 -1.3454  0.1954
 1762SOL    HW2 6887   3.459   1.747   1.619  0.5692 -0.2572 -0.7915
 1763SOL     OW 6888   6.797   6.235   5.899 -0.3090  0.1462  0.4730
 1763SOL    HW1 6889   6.807   6.322   5.948  2.0546  1.1668 -1.5850
 1763SOL    HW2 6890   6.719   6.240   5.837  0.0235  0.9882  0.0971
 1764SOL     OW 6891   5.933   0.166   0.994  0.2264  0.0713 -0.7573
 1764SOL    HW1 6892   5.863   0.196   0.929 -2.0343 -1.3235  0.8281
 1764SOL    HW2 6893   5.934   0.228   1.072 -2.9075 -2.3463  1.4999
 1765SOL     OW 6894   1.634   3.281   4.875 -0.6296 -0.5170 -0.1972
 1765SOL    HW1 6895   1.597   3.364   4.919  1.7666 -0.1071  1.1853
 1765SOL    HW2 6896   1.614   3.285   4.777  0.7653  2.5512 -0.4874
 1766SOL     OW 6897   6.327   1.992   3.132 -0.7166 -0.1730  0.5835
 1766SOL    HW1 6898   6.263   2.019   3.060 -0.0792  1.5160  0.6071
 1766SOL    HW2 6899   6.395   2.063   3.144  0.4218 -1.3612  1.4548
 1767SOL     OW 6900   4.786   5.942   6.649  0.1658 -0.1468 -0.3224
 1767SOL    HW1 6901   4.861   5.898   6.697 -1.3869  0.0061  2.4680
 1767SOL    HW2 6902   4.797   6.042   6.655 -0.8131 -0.0971  1.1897
 1768SOL     OW 6903   3.653   2.326   0.374 -0.4481  0.5691  0.5690
 1768SOL    HW1 6904   3.644   2.414   0.326 -1.3508  0.6921  0.9315
 1768SOL    HW2 6905   3.628   2.252   0.312  0.0935  0.5826  0.3303
 1769SOL     OW 6906   3.825   4.751   6.180 -0.3575  0.1227  0.3680
 1769SOL    HW1 6907   3.922   4.727   6.175 -0.3215  0.2948  0.2359
 1769SOL    HW2 6908   3.808   4.806   6.262  0.0990  2.1035 -0.8199
 1770SOL     OW 6909   2.939   5.658   1.361 -0.3079  0.5354  0.0189
 1770SOL    HW1 6910   2.860   5.606   1.327  0.0934  1.2126 -2.0958
 1770SOL    HW2 6911   3.019   5.598   1.364 -0.5188  0.2777  0.4921
 1771SOL     OW 6912   1.866   2.156   1.422 -0.3130  0.8997  0.0400
 1771SOL    HW1 6913   1.933   2.230   1.426  0.8537 -0.1231 -0.1560
 1771SOL    HW2 6914   1.842   2.129   1.515  0.1185  0.7701  0.1168
 1772SOL     OW 6915   2.603   6.871   1.129  0.2348  0.1214  0.2222
 1772SOL    HW1 6916   2.536   6.934   1.089 -2.2165 -2.4857 -0.1551
 1772SOL    HW2 6917   2.557   6.812   1.195  2.6465 -0.5751  1.3782
 1773SOL     OW 6918   6.589   1.526   1.705  0.2124  0.0414 -0.7635
 1773SOL    HW1 6919   6.653   1.602   1.690  1.4304 -0.7356  0.3817
 1773SOL    HW2 6920   6.622   1.445   1.658 -0.7477 -0.0021 -1.4179
 1774SOL     OW 6921   4.964   3.695   6.377 -0.8935  0.0384  0.3109
 1774SOL    HW1 6922   5.039   3.734   6.430  0.2672 -0.0436 -1.2199
 1774SOL    HW2 6923   5.000   3.632   6.308 -1.9233  2.8846 -3.0956
 1775SOL     OW 6924   2.113   3.331   1.560 -0.5704  0.3480  0.4742
 1775SOL    HW1 6925   2.044   3.369   1.621  1.0077  0.2159  2.4387
 1775SOL    HW2 6926   2.199   3.382   1.569  0.0798 -0.4684 -0.7218
 1776SOL     OW 6927   4.808   0.186   6.933  0.0155 -0.1514  0.2658
 1776SOL    HW1 6928   4.899   0.146   6.943  0.0040  0.1041  1.5773
 1776SOL    HW2 6929   4.741   0.127   6.979 -0.1877  0.6415  1.0241
 1777SOL     OW 6930   1.441   6.211   6.611 -0.4678 -0.2334 -0.0943
 1777SOL    HW1 6931   1.474   6.125   6.572  1.1951 -0.3385  1.4001
 1777SOL    HW2 6932   1.396   6.265   6.540  0.9437 -1.1122 -1.7295
 1778SOL     OW 6933   0.485   3.738   2.384  0.0959  0.1149 -0.6300
 1778SOL    HW1 6934   0.424   3.755   2.306 -1.5232 -1.1485  0.2870
 1778SOL    HW2 6935   0.576   3.714   2.351  0.0772  1.8333 -2.0547
 1779SOL     OW 6936   2.836   6.306   2.289  0.8148 -0.2730  0.2196
 1779SOL    HW1 6937   2.862   6.344   2.378  0.8464  0.6001 -0.1512
 1779SOL    HW2 6938   2.908   6.244   2.257  1.5047  0.5554  0.1321
 1780SOL     OW 6939   1.474   4.975   0.417 -0.4257  0.1928  0.4761
 1780SOL    HW1 6940   1.556   4.924   0.441 -1.1023 -1.9772 -1.4325
 1780SOL    HW2 6941   1.408   4.968   0.492  0.4018  0.3823  1.2476
 1781SOL     OW 6942   2.466   0.132   3.594  0.6629 -0.0918 -0.9523
 1781SOL    HW1 6943   2.502   0.121   3.687 -2.9843  0.4683  0.7410
 1781SOL    HW2 6944   2.501   0.217   3.555  1.5740  0.1475  0.3138
 1782SOL     OW 6945   3.424   5.904   3.981 -0.0125  0.3451 -0.1050
 1782SOL    HW1 6946   3.334   5.871   3.953 -0.4890 -0.4777  2.1945
 1782SOL    HW2 6947   3.459   5.968   3.912 -2.0126  0.1476 -1.3853
 1783SOL     OW 6948   1.744   3.111   6.448  0.1437  0.0598 -0.5935
 1783SOL    HW1 6949   1.721   3.051   6.371  1.9291  1.0576 -1.9777
 1783SOL    HW2 6950   1.830   3.081   6.489  0.0417  0.5203 -0.0309
 1784SOL     OW 6951   4.802   4.467   6.506  0.0657 -0.3569 -0.0550
 1784SOL    HW1 6952   4.847   4.553   6.483 -0.6027 -0.2002 -0.8429
 1784SOL    HW2 6953   4.788   4.462   6.605 -0.2890  0.6607 -0.0348
 1785SOL     OW 6954   5.195   1.316   5.094  0.2297 -0.8963 -0.2580
 1785SOL    HW1 6955   5.263   1.335   5.165 -1.2287  0.0885  0.9599
 1785SOL    HW2 6956   5.142   1.236   5.119  0.8150 -1.5649 -1.1210
 1786SOL     OW 6957   4.502   0.107   5.551  0.6909 -0.0440 -0.0007
 1786SOL    HW1 6958   4.418   0.077   5.596  1.0355 -1.1147 -0.0452
 1786SOL    HW2 6959   4.577   0.108   5.617  0.8384  0.0127 -0.1686
 1787SOL     OW 6960   3.757   4.847   3.970 -0.1957 -0.8565 -0.0839
 1787SOL    HW1 6961   3.797   4.768   3.924 -1.2517 -0.8407 -1.0753
 1787SOL    HW2 6962   3.666   4.866   3.932 -1.5729 -1.4288  2.6418
 1788SOL     OW 6963   1.423   0.925   1.274  0.6085  0.5269 -0.1346
 1788SOL    HW1 6964   1.326   0.902   1.279  0.2916  1.7297 -0.3822
 1788SOL    HW2 6965   1.478   0.842   1.282 -0.4354 -0.1472  0.1560
 1789SOL     OW 6966   2.714   4.572   6.488 -0.0755 -0.0361 -0.4537
 1789SOL    HW1 6967   2.699   4.538   6.396 -0.3018  0.5721 -0.6456
 1789SOL    HW2 6968   2.631   4.616   6.522 -0.0831 -0.4961  0.1459
 1790SOL     OW 6969   4.790   6.663   2.230  0.3590  0.4121 -0.1511
 1790SOL    HW1 6970   4.751   6.749   2.197  0.6758  0.8454  0.5524
 1790SOL    HW2 6971   4.827   6.610   2.154 -0.1930  0.7220 -0.6339
 1791SOL     OW 6972   2.729   2.179   4.568 -0.2608 -0.3956 -0.8177
 1791SOL    HW1 6973   2.827   2.163   4.556 -0.0375 -0.8450  1.2116
 1791SOL    HW2 6974   2.679   2.097   4.540  0.0054 -0.5137 -0.9645
 1792SOL     OW 6975   5.306   2.645   1.967  0.1081  0.0087  0.6307
 1792SOL    HW1 6976   5.364   2.599   1.900 -1.1691 -0.0866 -0.4329
 1792SOL    HW2 6977   5.306   2.591   2.052 -0.2411 -1.2251 -0.1200
 1793SOL     OW 6978   2.599   0.959   1.269 -0.1261  0.6844  0.2193
 1793SOL    HW1 6979   2.628   1.055   1.274  2.8974  0.0981 -2.4887
 1793SOL    HW2 6980   2.669   0.901   1.310 -1.5270 -0.4463  1.0822
 1794SOL     OW 6981   6.332   6.018   0.389 -0.1483 -0.5903 -0.3550
 1794SOL    HW1 6982   6.383   6.046   0.471 -1.9613 -2.1035  1.4121
 1794SOL    HW2 6983   6.361   6.073   0.311  2.0150  0.5983  1.1766
 1795SOL     OW 6984   0.231   3.897   0.389  0.0100 -0.4378 -0.2284
 1795SOL    HW1 6985   0.322   3.898   0.430  0.2920  0.3163 -0.8582
 1795SOL    HW2 6986   0.200   3.802   0.379 -0.4452 -0.6562  2.5232
 1796SOL     OW 6987   2.655   5.950   0.044  0.1530  0.1417 -0.6144
 1796SOL    HW1 6988   2.680   5.853   0.042  2.1222  0.6143 -0.8844
 1796SOL    HW2 6989   2.642   5.979   0.139 -2.6029 -0.8359 -0.6042
 1797SOL     OW 6990   1.532   1.035   0.378  0.1228  0.2827 -0.1781
 1797SOL    HW1 6991   1.512   1.097   0.454 -0.7373 -0.3510  0.1300
 1797SOL    HW2 6992   1.456   0.972   0.365  0.4559  0.0766 -1.2794
 1798SOL     OW 6993   2.541   4.524   1.438 -0.0824 -0.5630  0.2043
 1798SOL    HW1 6994   2.553   4.425   1.446  0.3194 -0.7199 -1.8043
 1798SOL    HW2 6995   2.623   4.570   1.473 -0.0022 -0.9627  0.5518
 1799SOL     OW 6996   0.843   2.802   5.323 -0.3586 -0.3485  0.2591
 1799SOL    HW1 6997   0.777   2.868   5.360  0.0038  0.0982  0.1117
 1799SOL    HW2 6998   0.936   2.834   5.340 -0.1812 -0.6086 -0.1888
 1800SOL     OW 6999   2.210   5.947   5.339 -0.0671  0.4718 -0.2709
 1800SOL    HW1 7000   2.125   5.909   5.376 -0.2877  0.4901 -0.7540
 1800SOL    HW2 7001   2.249   6.012   5.405  0.4624 -0.7774  0.6988
 1801SOL     OW 7002   0.321   2.519   4.170 -0.2388 -0.3039 -0.1908
 1801SOL    HW1 7003   0.241   2.474   4.210  0.7264 -0.9182  1.1189
 1801SOL    HW2 7004   0.383   2.548   4.243  0.4456  0.7402 -1.1587
 1802SOL     OW 7005   3.172   0.683   2.797 -0.0364 -0.0491  0.2029
 1802SOL    HW1 7006   3.121   0.710   2.715  0.9461 -2.2216 -1.2127
 1802SOL    HW2 7007   3.110   0.638   2.861 -0.6905  1.1092  0.4169
 1803SOL     OW 7008   0.526   5.175   1.516  0.1587 -0.3871 -0.2846
 1803SOL    HW1 7009   0.505   5.193   1.612 -1.3782  0.5827 -0.7604
 1803SOL    HW2 7010   0.577   5.252   1.478  0.2046 -0.4724 -0.3958
 1804SOL     OW 7011   1.131   5.943   4.192  0.2579  0.4508  0.2282
 1804SOL    HW1 7012   1.068   5.946   4.114 -1.9147  0.8624  1.9181
 1804SOL    HW2 7013   1.205   6.008   4.176  0.1263  0.2145 -1.6641
 1805SOL     OW 7014   2.037   1.838   0.142 -0.4651  0.0427 -0.4567
 1805SOL    HW1 7015   2.135   1.851   0.131 -0.2837 -1.9875 -1.9212
 1805SOL    HW2 7016   2.002   1.900   0.212  2.0214  0.0975  0.8388
 1806SOL     OW 7017   3.228   5.902   1.281  0.3078  0.0687 -0.0908
 1806SOL    HW1 7018   3.275   5.965   1.219 -0.0187 -0.1425 -0.5535
 1806SOL    HW2 7019   3.201   5.952   1.364  0.4953  0.4204 -0.2379
 1807SOL     OW 7020   4.640   0.457   1.046  0.0164  0.0627  0.0329
 1807SOL    HW1 7021   4.605   0.539   1.090 -0.5270 -0.1370 -0.0281
 1807SOL    HW2 7022   4.565   0.397   1.022  0.2905  0.1866 -1.2124
 1808SOL     OW 7023   4.350   3.484   5.552 -0.5122 -0.2428  0.2558
 1808SOL    HW1 7024   4.444   3.517   5.542 -0.1466 -1.4836 -0.6402
 1808SOL    HW2 7025   4.304   3.484   5.463 -1.4327  0.5026  0.7073
 1809SOL     OW 7026   6.385   2.199   1.526  0.0959  0.2866 -0.4670
 1809SOL    HW1 7027   6.483   2.187   1.542  0.4418  1.5978 -1.4381
 1809SOL    HW2 7028   6.342   2.110   1.513  0.9293 -0.3943  1.1371
 1810SOL     OW 7029   4.200   4.571   5.938 -0.0649  0.3456  0.2303
 1810SOL    HW1 7030   4.170   4.487   5.893  0.0048  0.9090 -0.9303
 1810SOL    HW2 7031   4.300   4.571   5.946 -0.0071  0.5839 -0.3763
 1811SOL     OW 7032   2.429   6.504   4.657 -0.0806  0.4793  0.0008
 1811SOL    HW1 7033   2.400   6.530   4.748  0.2515  2.0995 -0.3332
 1811SOL    HW2 7034   2.423   6.582   4.595  0.2757 -0.4226 -1.2358
 1812SOL     OW 7035   3.708   2.352   6.484 -0.5255 -0.3058 -0.0451
 1812SOL    HW1 7036   3.697   2.349   6.583  0.8868 -0.7949  0.1088
 1812SOL    HW2 7037   3.622   2.324   6.441 -0.9394 -0.7661  1.0397
 1813SOL     OW 7038   5.849   3.362   4.260 -0.6874 -0.0581 -0.0363
 1813SOL    HW1 7039   5.767   3.313   4.231 -2.2929  2.1802  0.4510
 1813SOL    HW2 7040   5.868   3.437   4.197  1.5642 -1.0381 -0.6359
 1814SOL     OW 7041   6.473   0.207   1.992 -0.1691 -0.4564  0.0094
 1814SOL    HW1 7042   6.381   0.234   1.964 -0.4571 -2.2276 -0.8732
 1814SOL    HW2 7043   6.474   0.110   2.017  1.4884 -0.5299 -0.1856
 1815SOL     OW 7044   5.359   4.200   4.794 -0.8547  0.0142  0.4336
 1815SOL    HW1 7045   5.384   4.290   4.757 -1.2576 -0.2038 -0.3913
 1815SOL    HW2 7046   5.356   4.133   4.719 -0.0254 -0.8137  1.1160
 1816SOL     OW 7047   0.565   2.850   3.577  0.4450 -0.1994 -0.4762
 1816SOL    HW1 7048   0.647   2.844   3.633 -0.6893  1.7349  1.5746
 1816SOL    HW2 7049   0.582   2.913   3.501  0.7203  0.6905  0.2971
 1817SOL     OW 7050   1.244   5.097   1.250  0.3727 -0.3367 -0.4786
 1817SOL    HW1 7051   1.194   5.064   1.329 -0.1615  0.1243 -0.6237
 1817SOL    HW2 7052   1.325   5.148   1.280 -0.3501  0.6709 -0.2058
 1818SOL     OW 7053   3.192   6.269   3.176  0.6746 -0.4739  0.0168
 1818SOL    HW1 7054   3.153   6.257   3.267  1.4560  1.1102  0.5844
 1818SOL    HW2 7055   3.155   6.199   3.115 -1.4991 -0.2523  1.0048
 1819SOL     OW 7056   4.432   2.933   2.014  0.3495 -0.0150  0.1296
 1819SOL    HW1 7057   4.457   3.024   1.982  1.2453  0.3537  1.8032
 1819SOL    HW2 7058   4.339   2.934   2.051  0.4053  0.2431  0.2580
 1820SOL     OW 7059   4.020   6.228   0.408  0.9795  0.0933  0.2040
 1820SOL    HW1 7060   3.969   6.253   0.491  0.7367  0.4326 -0.0442
 1820SOL    HW2 7061   3.977   6.271   0.328  0.7349 -0.8706 -0.1958
 1821SOL     OW 7062   5.564   2.078   4.514  0.1990  0.2486 -0.1547
 1821SOL    HW1 7063   5.527   1.986   4.498  0.2133  0.5682 -2.3249
 1821SOL    HW2 7064   5.588   2.088   4.611 -0.2881 -1.8363  0.2318
 1822SOL     OW 7065   1.665   2.950   1.980 -0.2682  0.1195  0.4317
 1822SOL    HW1 7066   1.744   3.003   2.010 -0.0071  0.9060 -1.5304
 1822SOL    HW2 7067   1.695   2.867   1.932 -0.6298  0.1961  0.0646
 1823SOL     OW 7068   2.005   6.369   3.230  0.4459 -0.2693 -0.3386
 1823SOL    HW1 7069   2.009   6.468   3.244  1.6017 -0.5347  1.7033
 1823SOL    HW2 7070   1.910   6.340   3.223 -0.0437  0.7449  1.4406
 1824SOL     OW 7071   0.699   0.407   1.359  0.4413 -0.2974  0.3186
 1824SOL    HW1 7072   0.609   0.362   1.363 -0.8015  2.0457  0.5817
 1824SOL    HW2 7073   0.703   0.468   1.280  1.5556  0.1112  0.6643
 1825SOL     OW 7074   2.630   1.885   3.654  0.2438  0.0479  0.4113
 1825SOL    HW1 7075   2.598   1.794   3.680 -0.3641  0.0423 -0.2957
 1825SOL    HW2 7076   2.670   1.881   3.562  0.4505  0.4396  0.4846
 1826SOL     OW 7077   2.501   3.679   2.876  0.1556 -0.4050 -0.0821
 1826SOL    HW1 7078   2.405   3.693   2.852  0.5331  0.0464 -1.4209
 1826SOL    HW2 7079   2.546   3.768   2.886  0.6485 -0.6194 -0.3646
 1827SOL     OW 7080   1.058   2.242   0.862  0.0998 -0.0853  0.2666
 1827SOL    HW1 7081   1.064   2.254   0.961  1.2964 -1.2430  0.3602
 1827SOL    HW2 7082   1.140   2.280   0.818 -0.1562 -0.0783 -0.2164
 1828SOL     OW 7083   5.251   4.251   3.790  0.4468 -0.2992  0.2246
 1828SOL    HW1 7084   5.221   4.164   3.828  1.0588  0.2363  2.0495
 1828SOL    HW2 7085   5.350   4.252   3.781  0.6224  0.7169  1.7481
 1829SOL     OW 7086   2.594   5.970   4.179  0.0969  0.5840  0.6597
 1829SOL    HW1 7087   2.498   5.996   4.180  0.0289  0.6493 -1.7859
 1829SOL    HW2 7088   2.627   5.962   4.273 -2.3036  0.4227  1.5656
 1830SOL     OW 7089   3.096   3.746   3.067 -0.2350 -0.0507 -0.3851
 1830SOL    HW1 7090   3.037   3.672   3.034 -1.3849  0.5007  0.3606
 1830SOL    HW2 7091   3.040   3.816   3.111  0.9365  0.7734 -0.1599
 1831SOL     OW 7092   0.400   0.216   6.596 -0.3255 -0.2014 -0.2783
 1831SOL    HW1 7093   0.411   0.242   6.500 -0.2638  2.9159  0.4722
 1831SOL    HW2 7094   0.482   0.242   6.647 -1.1621  0.0919  0.9624
 1832SOL     OW 7095   4.297   5.636   5.223 -0.1512  0.4318  0.6101
 1832SOL    HW1 7096   4.370   5.611   5.158 -0.2515 -1.3790  1.1307
 1832SOL    HW2 7097   4.208   5.619   5.181 -0.2258 -0.0799  0.9718
 1833SOL     OW 7098   6.961   0.244   1.468  0.1626  0.5832 -0.8442
 1833SOL    HW1 7099   6.898   0.290   1.531  1.1220 -1.2445  1.6082
 1833SOL    HW2 7100   6.920   0.157   1.438  1.5498 -0.7846  1.0417
 1834SOL     OW 7101   4.280   4.956   5.330  0.1665 -0.1850 -0.0403
 1834SOL    HW1 7102   4.374   4.927   5.345  0.5932  1.1516 -0.0922
 1834SOL    HW2 7103   4.275   5.055   5.324 -0.9349 -0.3103 -2.0924
 1835SOL     OW 7104   3.521   4.835   6.958 -0.3234 -0.0314  0.7697
 1835SOL    HW1 7105   3.516   4.908   7.025  0.7960 -0.9854  1.9492
 1835SOL    HW2 7106   3.477   4.752   6.994 -1.8926  0.1181 -0.6850
 1836SOL     OW 7107   5.538   5.612   3.502 -0.3883 -0.5590  0.0502
 1836SOL    HW1 7108   5.510   5.648   3.591 -1.4204 -0.9038 -0.1255
 1836SOL    HW2 7109   5.457   5.593   3.446  0.2518  2.5396 -2.1891
 1837SOL     OW 7110   5.269   6.263   1.468 -0.0211 -0.0552  0.2929
 1837SOL    HW1 7111   5.235   6.208   1.545 -0.5309  0.4439  0.4307
 1837SOL    HW2 7112   5.270   6.359   1.493 -1.3502  0.2503 -0.7206
 1838SOL     OW 7113   2.493   5.660   0.560 -0.0220 -0.5685  0.4439
 1838SOL    HW1 7114   2.513   5.721   0.637 -0.3755 -0.1546  0.2107
 1838SOL    HW2 7115   2.478   5.567   0.595  0.4067 -0.5053  0.8121
 1839SOL     OW 7116   6.326   2.061   3.477  0.2720 -0.1461  0.0560
 1839SOL    HW1 7117   6.257   2.058   3.404 -0.6706 -2.1119  0.9467
 1839SOL    HW2 7118   6.389   1.985   3.465  1.7651  1.0964 -0.2065
 1840SOL     OW 7119   1.268   3.498   6.224 -0.2743 -0.3749 -0.5955
 1840SOL    HW1 7120   1.172   3.488   6.198 -1.0338 -0.4984  2.0027
 1840SOL    HW2 7121   1.281   3.583   6.274  0.7927 -0.7400 -0.2198
 1841SOL     OW 7122   2.302   3.244   6.847  1.1272  0.3347 -0.1539
 1841SOL    HW1 7123   2.364   3.264   6.772 -0.5911  2.5950 -1.1158
 1841SOL    HW2 7124   2.301   3.321   6.911  0.4002 -0.2849  0.6178
 1842SOL     OW 7125   5.866   1.684   4.455  0.0492 -0.5144 -0.3873
 1842SOL    HW1 7126   5.888   1.728   4.542  0.8145  1.4916 -1.5433
 1842SOL    HW2 7127   5.894   1.588   4.458 -1.1242 -0.8402  2.0086
 1843SOL     OW 7128   1.421   0.265   3.885  0.3930  0.4132 -0.1738
 1843SOL    HW1 7129   1.498   0.291   3.944  1.7007  1.6472 -2.2602
 1843SOL    HW2 7130   1.379   0.348   3.848  0.1100 -0.3062 -1.5192
 1844SOL     OW 7131   1.058   3.408   0.916  1.1071  0.1729 -0.4668
 1844SOL    HW1 7132   0.977   3.356   0.888  1.6243 -0.8194 -0.1823
 1844SOL    HW2 7133   1.035   3.505   0.924 -0.0809 -0.1161 -0.2583
 1845SOL     OW 7134   1.534   2.758   6.674 -0.0875 -0.0902 -0.2877
 1845SOL    HW1 7135   1.622   2.796   6.702  0.0514  0.7510 -1.7403
 1845SOL    HW2 7136   1.492   2.817   6.605 -2.1664 -0.0636  0.8914
 1846SOL     OW 7137   0.153   3.392   5.660  0.2305 -0.2220  0.3318
 1846SOL    HW1 7138   0.175   3.296   5.676  0.8121 -0.5616 -2.0594
 1846SOL    HW2 7139   0.061   3.411   5.693 -0.6431 -2.1293 -0.8306
 1847SOL     OW 7140   1.675   1.954   2.388  0.2361  0.0919 -0.6765
 1847SOL    HW1 7141   1.706   2.034   2.336 -0.2351 -1.0519 -2.8340
 1847SOL    HW2 7142   1.711   1.871   2.345  0.7454 -0.9057  1.5273
 1848SOL     OW 7143   5.380   5.644   4.937 -0.1144  0.0202  0.2226
 1848SOL    HW1 7144   5.370   5.554   4.896  0.0833  0.3607 -0.5799
 1848SOL    HW2 7145   5.289   5.678   4.965 -0.2779 -0.1153 -0.1433
 1849SOL     OW 7146   1.357   6.427   6.161 -0.0943 -0.9665  0.0573
 1849SOL    HW1 7147   1.289   6.419   6.088 -0.3091 -1.4018  0.2998
 1849SOL    HW2 7148   1.447   6.402   6.125  0.3214  1.4897 -0.7863
 1850SOL     OW 7149   1.047   2.446   6.433  0.2960 -0.5143  0.3423
 1850SOL    HW1 7150   1.077   2.465   6.340  0.8987 -0.2811  0.5746
 1850SOL    HW2 7151   1.041   2.347   6.448 -2.0606 -0.5853 -0.6341
 1851SOL     OW 7152   6.108   5.511   4.651 -0.4397 -0.0714  0.6069
 1851SOL    HW1 7153   6.196   5.472   4.680 -0.8576  0.4372  2.7851
 1851SOL    HW2 7154   6.035   5.446   4.669 -0.7997  0.5405  1.4537
 1852SOL     OW 7155   2.325   1.487   0.079 -0.1718  1.0868  0.3640
 1852SOL    HW1 7156   2.327   1.392   0.108 -0.9278  0.0152 -2.7109
 1852SOL    HW2 7157   2.404   1.535   0.117  0.3422 -0.7897  1.8144
 1853SOL     OW 7158   6.903   6.480   3.510  0.3401  0.5863  0.3557
 1853SOL    HW1 7159   6.967   6.508   3.582  1.7371  1.2148 -1.0471
 1853SOL    HW2 7160   6.940   6.508   3.421 -1.1991 -0.3934 -0.6350
 1854SOL     OW 7161   6.479   3.096   5.282  0.4208 -0.0058  0.2264
 1854SOL    HW1 7162   6.506   3.000   5.285  1.5130  0.3081  1.0275
 1854SOL    HW2 7163   6.402   3.111   5.344  0.8812 -0.1907  0.8565
 1855SOL     OW 7164   0.743   1.370   0.796  0.1164 -0.2096 -0.1491
 1855SOL    HW1 7165   0.673   1.303   0.769 -0.7885  0.4952  0.3957
 1855SOL    HW2 7166   0.821   1.322   0.835 -0.7476 -0.9414  0.7494
 1856SOL     OW 7167   6.632   6.342   0.957 -0.1429 -0.3268 -0.1382
 1856SOL    HW1 7168   6.622   6.257   1.010  1.4097 -0.7464 -0.4800
 1856SOL    HW2 7169   6.592   6.417   1.009 -2.6071 -1.3884 -0.3225
 1857SOL     OW 7170   1.864   1.204   1.446 -0.3097 -0.1137  0.1530
 1857SOL    HW1 7171   1.887   1.208   1.349 -0.8628  1.8002  0.0665
 1857SOL    HW2 7172   1.813   1.120   1.465  0.2384 -0.7506 -1.0921
 1858SOL     OW 7173   2.800   6.902   4.292  0.8505  0.0971  0.0171
 1858SOL    HW1 7174   2.768   6.996   4.280  0.3724  0.1276  1.3412
 1858SOL    HW2 7175   2.817   6.861   4.202  0.3008  1.1834 -0.6059
 1859SOL     OW 7176   6.390   5.242   2.944  0.4810 -1.1574 -0.1672
 1859SOL    HW1 7177   6.418   5.257   2.849  0.3265 -1.6542 -0.2906
 1859SOL    HW2 7178   6.460   5.187   2.991  1.9596  1.3645  0.7901
 1860SOL     OW 7179   4.827   4.085   6.561  0.1731  0.7516  0.2681
 1860SOL    HW1 7180   4.744   4.140   6.552  0.3517  1.8930  3.9394
 1860SOL    HW2 7181   4.906   4.138   6.529 -0.0445  1.3287  0.6776
 1861SOL     OW 7182   0.394   4.914   1.735  0.3026  0.3554  0.1326
 1861SOL    HW1 7183   0.474   4.892   1.679  0.7231  0.9695  0.4816
 1861SOL    HW2 7184   0.340   4.831   1.749  1.0152 -0.1248  0.1062
 1862SOL     OW 7185   4.120   3.494   6.786 -0.2965  0.4775  0.4216
 1862SOL    HW1 7186   4.123   3.594   6.784  0.3428  0.4623 -0.4897
 1862SOL    HW2 7187   4.067   3.461   6.708 -2.5064  0.1277  1.9976
 1863SOL     OW 7188   6.527   6.346   6.532 -0.1670  0.0491  0.1384
 1863SOL    HW1 7189   6.480   6.426   6.496 -0.3799 -0.9400 -1.9840
 1863SOL    HW2 7190   6.483   6.263   6.498  1.6268 -0.9360  0.0559
 1864SOL     OW 7191   6.734   6.579   5.849 -0.5871 -0.0415  0.1027
 1864SOL    HW1 7192   6.828   6.550   5.829 -0.5367  0.2104 -0.0337
 1864SOL    HW2 7193   6.731   6.679   5.852 -0.8956 -0.0454 -0.0967
 1865SOL     OW 7194   0.400   1.532   2.839  0.3224  0.5665  0.4471
 1865SOL    HW1 7195   0.347   1.611   2.869 -0.9655  0.3452 -1.1379
 1865SOL    HW2 7196   0.339   1.457   2.818  1.5116 -0.7865  1.5984
 1866SOL     OW 7197   5.174   0.382   6.541 -0.1543  1.1715 -0.7598
 1866SOL    HW1 7198   5.096   0.320   6.531  0.8590 -0.6794  1.6838
 1866SOL    HW2 7199   5.146   0.463   6.592 -0.7867  1.2505 -1.2118
 1867SOL     OW 7200   4.222   1.765   3.421 -0.1468 -0.0078 -0.1717
 1867SOL    HW1 7201   4.211   1.860   3.449 -0.0201 -0.1358  0.3225
 1867SOL    HW2 7202   4.141   1.735   3.370 -0.6852  0.0253  0.6515
 1868SOL     OW 7203   1.010   5.853   0.213 -0.1081 -0.2226  0.0352
 1868SOL    HW1 7204   1.052   5.763   0.214 -0.1132 -0.2382 -0.5947
 1868SOL    HW2 7205   0.931   5.854   0.274 -0.5184 -0.8471 -0.4759
 1869SOL     OW 7206   2.422   1.976   1.759  0.3622  0.2387  0.3851
 1869SOL    HW1 7207   2.457   1.931   1.842  0.4116 -0.2667  0.0972
 1869SOL    HW2 7208   2.491   1.971   1.687 -0.3922 -1.0198 -0.2817
 1870SOL     OW 7209   2.442   2.969   6.623 -0.1392  0.1743  0.1455
 1870SOL    HW1 7210   2.393   3.040   6.672 -1.4877 -0.1694 -0.6546
 1870SOL    HW2 7211   2.535   3.001   6.601 -0.2250  1.1015  1.0626
 1871SOL     OW 7212   1.934   1.634   0.641  0.3485  0.0529  0.4829
 1871SOL    HW1 7213   1.924   1.553   0.583  0.3767 -0.0065  0.5606
 1871SOL    HW2 7214   1.991   1.702   0.595 -0.4905  0.4361 -0.0077
 1872SOL     OW 7215   2.243   6.219   1.867 -0.1373  0.8168  1.0693
 1872SOL    HW1 7216   2.199   6.249   1.782  0.7899  2.9898  1.2814
 1872SOL    HW2 7217   2.184   6.240   1.945  0.3309  1.7576  1.1845
 1873SOL     OW 7218   3.404   3.495   6.980  0.3830  0.1580 -0.9457
 1873SOL    HW1 7219   3.316   3.460   7.014 -0.4485  0.4636 -2.6817
 1873SOL    HW2 7220   3.478   3.462   7.039 -0.9694  0.7872  1.2097
 1874SOL     OW 7221   4.374   4.869   3.165  0.4985  0.2091  0.0022
 1874SOL    HW1 7222   4.405   4.853   3.259  1.8280 -0.7840 -0.5629
 1874SOL    HW2 7223   4.454   4.874   3.104 -0.3738 -0.1551 -1.2206
 1875SOL     OW 7224   5.885   1.615   5.490 -0.5526 -0.0137  0.0460
 1875SOL    HW1 7225   5.955   1.548   5.466 -1.3353 -0.4225 -1.1724
 1875SOL    HW2 7226   5.845   1.653   5.407 -1.1836  0.8547  0.7240
 1876SOL     OW 7227   4.941   1.260   2.260 -0.5894  0.7848  0.5860
 1876SOL    HW1 7228   4.915   1.188   2.324 -1.0227  0.7152  0.3369
 1876SOL    HW2 7229   4.877   1.261   2.183 -0.2825  1.0976  0.3297
 1877SOL     OW 7230   0.928   3.485   1.325  0.0669 -0.1156 -0.6696
 1877SOL    HW1 7231   0.864   3.421   1.282 -0.0841 -1.5824  1.5544
 1877SOL    HW2 7232   1.016   3.440   1.339  0.0742  0.2531  0.5836
 1878SOL     OW 7233   2.094   5.367   2.523 -0.0179  0.1712  0.2216
 1878SOL    HW1 7234   2.114   5.405   2.614  0.0952 -2.0728  1.2136
 1878SOL    HW2 7235   2.132   5.275   2.517  2.0065  1.0732 -2.9790
 1879SOL     OW 7236   0.418   1.858   4.058  0.0140  0.2584 -0.0056
 1879SOL    HW1 7237   0.463   1.798   4.123  0.5404  0.4109 -0.2248
 1879SOL    HW2 7238   0.363   1.926   4.107  1.6433  1.3672  0.3633
 1880SOL     OW 7239   5.879   0.707   4.003 -0.3277  0.3724  0.2673
 1880SOL    HW1 7240   5.839   0.647   3.933 -1.1145  0.0937  0.9365
 1880SOL    HW2 7241   5.808   0.768   4.039  0.6162  2.3220 -0.9712
 1881SOL     OW 7242   3.828   5.427   0.060  0.1492 -0.1628  0.4164
 1881SOL    HW1 7243   3.787   5.404  -0.029  1.8099 -0.1811 -0.3779
 1881SOL    HW2 7244   3.759   5.472   0.117 -0.4448  1.7439 -1.6383
 1882SOL     OW 7245   2.308   1.417   1.099  0.3444  0.6047 -0.2324
 1882SOL    HW1 7246   2.315   1.511   1.067 -0.7874  0.2349 -1.7018
 1882SOL    HW2 7247   2.240   1.410   1.172  0.4420  0.9256 -0.1119
 1883SOL     OW 7248   0.001   2.513   4.820 -0.1292  0.1274 -0.4294
 1883SOL    HW1 7249  -0.083   2.519   4.874 -0.2833  0.4689 -0.7015
 1883SOL    HW2 7250   0.010   2.595   4.763  1.5056  1.1516  1.2090
 1884SOL     OW 7251   6.988   5.758   1.073  0.5364  0.1620  0.3848
 1884SOL    HW1 7252   6.938   5.672   1.067 -1.0761  1.0785  0.2014
 1884SOL    HW2 7253   7.009   5.791   0.981 -0.6245  0.9393  0.3795
 1885SOL     OW 7254   3.647   3.096   6.480  0.0379  0.5508  0.7331
 1885SOL    HW1 7255   3.585   3.082   6.557 -0.4042 -1.7429  0.0493
 1885SOL    HW2 7256   3.742   3.088   6.510 -0.0866  1.0338  1.2612
 1886SOL     OW 7257   5.139   5.212   1.274  0.1492  0.2720  0.8889
 1886SOL    HW1 7258   5.239   5.221   1.270  0.0568  1.0112 -1.5850
 1886SOL    HW2 7259   5.112   5.124   1.235 -0.2209  0.9205 -0.3774
 1887SOL     OW 7260   4.819   2.560   0.762 -0.3572  0.3913  0.2058
 1887SOL    HW1 7261   4.831   2.657   0.742  0.5836  0.1329 -0.5727
 1887SOL    HW2 7262   4.820   2.508   0.676  0.3253 -0.4182  0.6857
 1888SOL     OW 7263   4.795   6.800   6.792 -0.0009 -0.7012 -0.7203
 1888SOL    HW1 7264   4.871   6.768   6.848  0.6538 -0.3117 -1.3747
 1888SOL    HW2 7265   4.755   6.722   6.743  0.3993 -0.8022 -0.8838
 1889SOL     OW 7266   3.116   6.223   1.683  0.0695  1.4820 -0.2954
 1889SOL    HW1 7267   3.136   6.144   1.624  4.5931 -1.2825  4.0389
 1889SOL    HW2 7268   3.030   6.208   1.731  1.4227 -2.0221  1.4804
 1890SOL     OW 7269   6.477   5.919   1.779 -0.0022 -0.6073 -0.7286
 1890SOL    HW1 7270   6.536   5.982   1.829 -1.8905  2.1928 -1.7210
 1890SOL    HW2 7271   6.403   5.888   1.838  0.5411 -1.3842 -0.4380
 1891SOL     OW 7272   2.518   4.159   1.357  0.5653 -0.3207 -0.2437
 1891SOL    HW1 7273   2.458   4.080   1.370 -0.6963  0.6302 -0.0973
 1891SOL    HW2 7274   2.547   4.164   1.262  1.7569 -1.6920  0.0087
 1892SOL     OW 7275   4.802   6.087   5.481  0.1243  0.1644  0.2053
 1892SOL    HW1 7276   4.762   6.006   5.524  2.1476 -0.3918  1.1655
 1892SOL    HW2 7277   4.796   6.078   5.381 -0.1990 -0.8967  0.3084
 1893SOL     OW 7278   3.356   2.302   6.838 -0.5922  0.3531 -0.0656
 1893SOL    HW1 7279   3.338   2.319   6.741  0.3158 -1.5645 -0.6079
 1893SOL    HW2 7280   3.363   2.204   6.855  1.0514  0.6824  1.5981
 1894SOL     OW 7281   3.895   2.203   5.629  0.4850  0.1286 -0.2465
 1894SOL    HW1 7282   3.903   2.105   5.613 -0.3737  0.3410 -2.2318
 1894SOL    HW2 7283   3.945   2.253   5.558  2.6032  1.1722  1.8380
 1895SOL     OW 7284   6.629   4.953   6.029 -0.0263 -0.2724  0.1499
 1895SOL    HW1 7285   6.591   4.861   6.027  0.9681 -0.7133  0.4853
 1895SOL    HW2 7286   6.607   4.997   6.116  0.3063 -0.5666  0.3863
 1896SOL     OW 7287   0.619   6.594   4.643 -0.3937  0.3070 -0.3252
 1896SOL    HW1 7288   0.623   6.673   4.705  0.0051  0.0336 -0.0012
 1896SOL    HW2 7289   0.684   6.524   4.673 -2.9395 -1.5423  1.3346
 1897SOL     OW 7290   1.694   2.840   3.871  0.1643 -0.3605 -0.2630
 1897SOL    HW1 7291   1.608   2.887   3.891  0.6947  0.7831 -0.5962
 1897SOL    HW2 7292   1.691   2.748   3.910 -0.9362 -0.0978  0.3222
 1898SOL     OW 7293   6.309   5.004   3.114  0.6463  0.7312  0.4339
 1898SOL    HW1 7294   6.322   5.065   3.036  0.5374  0.2290  0.0205
 1898SOL    HW2 7295   6.397   4.962   3.137  0.6256  0.6801  0.4185
 1899SOL     OW 7296   1.459   3.718   1.470 -0.1176  0.1343 -0.1542
 1899SOL    HW1 7297   1.457   3.709   1.570 -0.5989  2.7126  0.1251
 1899SOL    HW2 7298   1.389   3.659   1.430 -1.0942  0.3503  1.1661
 1900SOL     OW 7299   1.718   6.512   4.808 -0.0037 -0.2402 -0.2578
 1900SOL    HW1 7300   1.720   6.429   4.863  0.3046  0.2846  0.5366
 1900SOL    HW2 7301   1.634   6.562   4.826  0.5356  0.4221  0.4922
 1901SOL     OW 7302   1.084   6.350   4.441  0.2846 -0.0261  0.3076
 1901SOL    HW1 7303   1.049   6.442   4.462 -1.3299 -0.9470  1.9132
 1901SOL    HW2 7304   1.170   6.336   4.489  0.9774  0.9001 -0.6028
 1902SOL     OW 7305   3.881   3.605   3.880  0.2390  0.5249 -0.2420
 1902SOL    HW1 7306   3.843   3.513   3.887  0.9557  0.1144 -1.4129
 1902SOL    HW2 7307   3.972   3.600   3.840  0.0529  1.7981 -0.8666
 1903SOL     OW 7308   1.150   6.698   6.403  0.3693 -0.1632  0.4325
 1903SOL    HW1 7309   1.218   6.714   6.331  1.3364  0.5121  1.4706
 1903SOL    HW2 7310   1.196   6.687   6.491 -0.8484 -0.0546  1.1034
 1904SOL     OW 7311   3.795   6.950   3.549  0.6156 -0.2246  0.0418
 1904SOL    HW1 7312   3.795   6.852   3.526  0.1254 -0.2506  0.1509
 1904SOL    HW2 7313   3.851   7.000   3.483 -1.2404 -0.2030 -1.6009
 1905SOL     OW 7314   1.487   1.384   5.119  0.1285 -0.0089  0.3525
 1905SOL    HW1 7315   1.435   1.457   5.164 -1.0657 -0.5613 -0.1040
 1905SOL    HW2 7316   1.533   1.422   5.038  0.7352  0.5557  0.9432
 1906SOL     OW 7317   3.088   1.661   4.669 -0.4449 -0.2166  0.6140
 1906SOL    HW1 7318   3.003   1.610   4.677  0.6300 -2.1476  0.5312
 1906SOL    HW2 7319   3.118   1.691   4.760  0.1507 -1.9632  1.0275
 1907SOL     OW 7320   6.789   0.537   0.182  0.3693 -0.0221  0.0846
 1907SOL    HW1 7321   6.852   0.459   0.190  1.6424  0.8353 -1.1613
 1907SOL    HW2 7322   6.820   0.611   0.240  0.0939  0.1538  0.0094
 1908SOL     OW 7323   0.548   1.692   3.176 -0.1049  0.1874  0.3959
 1908SOL    HW1 7324   0.609   1.765   3.205  1.2987 -1.0162  0.6017
 1908SOL    HW2 7325   0.506   1.650   3.257  1.3684 -1.1084  0.5357
 1909SOL     OW 7326   0.610   5.264   6.439  0.6121  0.7877 -0.0862
 1909SOL    HW1 7327   0.551   5.189   6.470  2.5267 -0.9608 -0.4579
 1909SOL    HW2 7328   0.589   5.347   6.491 -2.1579  0.2726 -0.2564
 1910SOL     OW 7329   1.530   6.725   3.004  0.6649 -0.0723 -0.3363
 1910SOL    HW1 7330   1.574   6.662   3.068  0.2338  1.1568  1.2408
 1910SOL    HW2 7331   1.592   6.802   2.986  0.4160  0.0507 -0.6768
 1911SOL     OW 7332   6.392   6.479   4.985  0.3668  0.4355 -0.0994
 1911SOL    HW1 7333   6.454   6.492   5.062 -0.7193  1.5081  0.6374
 1911SOL    HW2 7334   6.405   6.553   4.919  0.6584  0.0275 -0.5029
 1912SOL     OW 7335   0.879   4.397   6.666 -0.3423 -0.2689  0.0894
 1912SOL    HW1 7336   0.785   4.432   6.668 -0.5489 -0.8387  0.5592
 1912SOL    HW2 7337   0.924   4.419   6.752 -0.4136 -0.9822  0.3133
 1913SOL     OW 7338   1.085   2.727   2.344  0.3490  0.7186 -0.0564
 1913SOL    HW1 7339   1.137   2.782   2.408 -0.2499  3.6617 -1.8719
 1913SOL    HW2 7340   0.996   2.704   2.384  1.4238 -0.9122  1.5400
 1914SOL     OW 7341   0.764   6.948   2.740  0.0951 -0.6508 -0.1658
 1914SOL    HW1 7342   0.861   6.927   2.729  0.3116  0.9610 -1.8749
 1914SOL    HW2 7343   0.746   6.975   2.834  1.1299 -1.7071  0.3527
 1915SOL     OW 7344   6.522   1.137   4.882 -0.0669  0.1209  0.0929
 1915SOL    HW1 7345   6.498   1.233   4.901  0.7112  0.0804  1.4277
 1915SOL    HW2 7346   6.613   1.118   4.918 -0.7454 -1.4785  1.0546
 1916SOL     OW 7347   6.642   6.687   0.460  0.4211 -0.0123 -0.7479
 1916SOL    HW1 7348   6.665   6.590   0.461  1.9428  0.3131 -0.6249
 1916SOL    HW2 7349   6.727   6.741   0.452 -0.1585  1.3562  1.4102
 1917SOL     OW 7350   0.642   2.022   3.071  0.4746  0.0589  0.3159
 1917SOL    HW1 7351   0.554   2.041   3.026 -0.3522 -0.9361  1.4555
 1917SOL    HW2 7352   0.707   1.987   3.003 -0.3260 -0.1586 -0.3598
 1918SOL     OW 7353   5.951   5.817   1.713 -0.0912 -0.3495  0.7515
 1918SOL    HW1 7354   5.976   5.888   1.648  0.4576 -1.5208 -0.3613
 1918SOL    HW2 7355   5.864   5.776   1.685 -0.6136  0.1282  1.6173
 1919SOL     OW 7356   4.441   2.929   3.384 -0.3107 -1.0585 -0.0893
 1919SOL    HW1 7357   4.382   3.002   3.418  1.7946  0.0979  1.3279
 1919SOL    HW2 7358   4.448   2.935   3.284  1.0712  1.8345  0.0568
 1920SOL     OW 7359   6.827   0.737   2.161  0.3495  0.2459 -0.1546
 1920SOL    HW1 7360   6.916   0.771   2.191  1.1617 -0.6076 -1.5113
 1920SOL    HW2 7361   6.794   0.793   2.085 -0.4127  0.7031  0.4869
 1921SOL     OW 7362   6.446   4.870   4.003 -0.0628  0.7432  0.5077
 1921SOL    HW1 7363   6.355   4.911   3.997 -0.4011  0.0206  0.6822
 1921SOL    HW2 7364   6.504   4.926   4.062 -1.0081  0.1087  2.1071
 1922SOL     OW 7365   1.536   4.505   3.103  0.6633 -0.0719 -0.4683
 1922SOL    HW1 7366   1.588   4.535   3.183 -0.8484  0.3415  0.4057
 1922SOL    HW2 7367   1.521   4.583   3.042 -0.8535  0.3889  0.4243
 1923SOL     OW 7368   0.536   6.844   1.440 -0.2894 -0.4278 -0.4764
 1923SOL    HW1 7369   0.446   6.806   1.461 -0.3540 -0.2218 -0.3833
 1923SOL    HW2 7370   0.590   6.775   1.390 -0.4756 -0.5717 -0.4814
 1924SOL     OW 7371   0.432   0.266   1.356 -0.1661 -0.2283  0.1167
 1924SOL    HW1 7372   0.343   0.247   1.314 -0.7047 -2.2058  1.9604
 1924SOL    HW2 7373   0.439   0.217   1.443  2.7638 -0.1476  0.0292
 1925SOL     OW 7374   5.511   1.817   4.910  0.2917 -0.5040 -0.3945
 1925SOL    HW1 7375   5.556   1.795   4.823  0.2093 -0.4486 -0.4515
 1925SOL    HW2 7376   5.472   1.909   4.904  1.0101 -0.1688 -0.0098
 1926SOL     OW 7377   5.272   5.391   3.659 -0.7885 -0.2274  0.0660
 1926SOL    HW1 7378   5.210   5.450   3.711  1.4203  2.3796 -0.0022
 1926SOL    HW2 7379   5.262   5.410   3.561  0.5298  0.7821  0.0904
 1927SOL     OW 7380   3.788   0.031   4.287  0.0701 -0.9118  0.1433
 1927SOL    HW1 7381   3.791   0.025   4.187  1.3599 -0.4420  0.1291
 1927SOL    HW2 7382   3.784   0.127   4.315  0.1900 -1.0192  0.5384
 1928SOL     OW 7383   3.660   1.241   6.993  0.1274 -0.2406 -0.1689
 1928SOL    HW1 7384   3.721   1.301   6.942  0.1260 -0.4390 -0.4068
 1928SOL    HW2 7385   3.623   1.171   6.931 -0.1645 -0.2558  0.0223
 1929SOL     OW 7386   6.479   1.960   5.215 -0.0626  0.3509  0.3041
 1929SOL    HW1 7387   6.446   2.034   5.157  3.7080  1.5511 -0.5775
 1929SOL    HW2 7388   6.455   1.978   5.310 -0.2987  2.0593 -0.0541
 1930SOL     OW 7389   2.526   1.783   3.146  0.9207 -0.5070 -0.5104
 1930SOL    HW1 7390   2.462   1.860   3.145  1.7427  0.2415  0.8371
 1930SOL    HW2 7391   2.611   1.810   3.100  0.6635 -1.1405 -1.3770
 1931SOL     OW 7392   2.164   6.037   4.797  0.0245  0.2569 -0.5690
 1931SOL    HW1 7393   2.193   6.132   4.809 -0.2647  0.1212  1.4304
 1931SOL    HW2 7394   2.189   5.983   4.878 -1.6952 -0.9078 -0.7579
 1932SOL     OW 7395   6.034   0.958   5.807  0.1446  0.1278 -0.1800
 1932SOL    HW1 7396   6.058   0.997   5.895  0.9155  1.2412 -0.8647
 1932SOL    HW2 7397   6.079   1.009   5.734  0.3052 -1.3618 -1.1740
 1933SOL     OW 7398   4.348   4.741   1.473 -0.3401 -0.5298 -0.4238
 1933SOL    HW1 7399   4.437   4.728   1.429 -0.1183 -0.2803 -0.0557
 1933SOL    HW2 7400   4.355   4.716   1.570 -0.7477 -0.7873 -0.4565
 1934SOL     OW 7401   1.884   0.415   0.144 -0.0855 -0.0659 -0.2425
 1934SOL    HW1 7402   1.921   0.492   0.092  0.1449 -0.1292 -0.1762
 1934SOL    HW2 7403   1.929   0.331   0.114  2.0011  0.1967  1.8519
 1935SOL     OW 7404   1.578   6.060   5.227  0.5537  0.0529  0.1396
 1935SOL    HW1 7405   1.669   6.089   5.198  0.6772 -0.2475  0.2283
 1935SOL    HW2 7406   1.555   5.973   5.183 -0.2170  0.7647 -0.8999
 1936SOL     OW 7407   5.442   4.059   5.590 -0.1854  0.0856  0.2401
 1936SOL    HW1 7408   5.472   3.997   5.662  0.0819 -0.2514 -0.1553
 1936SOL    HW2 7409   5.407   4.006   5.513 -1.6454  0.4670  0.6186
 1937SOL     OW 7410   5.336   1.318   4.104  0.0046  0.1795  0.3261
 1937SOL    HW1 7411   5.268   1.249   4.128  1.2045 -1.0515  0.3782
 1937SOL    HW2 7412   5.364   1.368   4.185 -0.3439  0.2221  0.4203
 1938SOL     OW 7413   0.665   6.037   4.722 -0.1530 -0.7624 -0.6176
 1938SOL    HW1 7414   0.754   6.017   4.680 -0.3436  0.7280 -1.7892
 1938SOL    HW2 7415   0.680   6.083   4.810  0.2642  0.3397 -1.2433
 1939SOL     OW 7416   5.325   5.008   6.311 -0.0610  0.3808  0.2973
 1939SOL    HW1 7417   5.347   5.105   6.323 -0.6942  0.4880  0.6651
 1939SOL    HW2 7418   5.399   4.952   6.349  0.3205  0.7182  0.0552
 1940SOL     OW 7419   3.255   5.274   5.414 -0.5337  0.2354  0.3224
 1940SOL    HW1 7420   3.164   5.284   5.375 -0.1762  0.2191 -0.5514
 1940SOL    HW2 7421   3.263   5.331   5.496 -1.2147  0.5046  0.2056
 1941SOL     OW 7422   5.417   1.822   1.643 -0.2792 -0.0563  0.3370
 1941SOL    HW1 7423   5.492   1.865   1.692 -1.7253 -0.4878  3.1018
 1941SOL    HW2 7424   5.438   1.725   1.627  1.7991  0.7960 -3.4918
 1942SOL     OW 7425   6.568   5.098   0.925 -0.1274  1.2797 -0.4060
 1942SOL    HW1 7426   6.556   5.194   0.952 -0.2823  0.9119  0.8751
 1942SOL    HW2 7427   6.613   5.048   0.998 -0.4287  0.2729 -0.8920
 1943SOL     OW 7428   4.951   1.152   4.601 -0.0373  0.3652  0.4329
 1943SOL    HW1 7429   5.000   1.198   4.675 -2.4218  2.8772  0.6319
 1943SOL    HW2 7430   4.916   1.221   4.537 -0.4676 -1.5349 -1.4985
 1944SOL     OW 7431   4.026   1.631   2.930 -0.7513  0.1202 -0.2063
 1944SOL    HW1 7432   3.996   1.699   2.998  1.2741 -1.4673  2.4765
 1944SOL    HW2 7433   4.107   1.666   2.883  0.8930 -0.6896  1.8753
 1945SOL     OW 7434   2.926   2.030   6.447 -0.5905  0.0804  0.0282
 1945SOL    HW1 7435   2.886   2.109   6.494 -0.2790  0.7811 -0.8608
 1945SOL    HW2 7436   3.020   2.050   6.421 -0.2792 -0.8508  0.4013
 1946SOL     OW 7437   0.294   4.518   3.647 -0.3849  0.6055  0.6728
 1946SOL    HW1 7438   0.261   4.588   3.710  0.1381  2.2570 -0.8283
 1946SOL    HW2 7439   0.381   4.481   3.680  0.3895  2.1677  0.4406
 1947SOL     OW 7440   1.345   2.137   6.724  0.4818 -0.3975 -0.4829
 1947SOL    HW1 7441   1.416   2.199   6.757 -1.0643  1.4445 -0.4955
 1947SOL    HW2 7442   1.312   2.081   6.800 -1.1210  1.8873  0.6301
 1948SOL     OW 7443   3.812   3.843   3.988  0.0106 -0.3852  0.2121
 1948SOL    HW1 7444   3.713   3.845   4.001  0.0252  0.4542  0.2617
 1948SOL    HW2 7445   3.841   3.751   3.962 -0.9767 -0.2587 -1.4295
 1949SOL     OW 7446   6.025   5.738   2.728 -0.3578  0.5822 -0.6598
 1949SOL    HW1 7447   5.996   5.786   2.645  1.9450 -0.6507 -2.3010
 1949SOL    HW2 7448   5.994   5.643   2.724  0.6070  0.2562 -0.6179
 1950SOL     OW 7449   4.083   4.542   1.853 -0.1537 -0.1064 -0.0335
 1950SOL    HW1 7450   4.104   4.505   1.944  1.4099  0.9082  0.0636
 1950SOL    HW2 7451   4.090   4.469   1.785 -1.4055 -0.8919  0.6377
 1951SOL     OW 7452   4.628   6.364   1.284 -0.1156  0.1876 -0.5687
 1951SOL    HW1 7453   4.618   6.438   1.218 -0.4999  0.3332 -0.3504
 1951SOL    HW2 7454   4.593   6.279   1.244 -0.3296  0.2717 -0.5612
 1952SOL     OW 7455   6.617   2.185   1.674  0.6318 -0.4509 -0.4819
 1952SOL    HW1 7456   6.667   2.099   1.677 -0.7638 -1.2534  1.0647
 1952SOL    HW2 7457   6.565   2.197   1.758  0.0462  1.4700 -1.0576
 1953SOL     OW 7458   5.380   2.651   2.582  0.3417  0.6494  0.1774
 1953SOL    HW1 7459   5.424   2.724   2.529  2.9019 -1.5068 -0.8766
 1953SOL    HW2 7460   5.308   2.609   2.527  1.2259  0.1380 -0.6207
 1954SOL     OW 7461   3.944   0.629   1.339  0.4434 -0.2536  0.5750
 1954SOL    HW1 7462   3.921   0.652   1.433  1.1886  1.0652  0.4671
 1954SOL    HW2 7463   4.043   0.635   1.326  0.1719  3.3368 -1.1300
 1955SOL     OW 7464   3.756   2.034   2.393 -0.2511 -0.3100  0.3266
 1955SOL    HW1 7465   3.843   2.027   2.441  1.1110  2.4506 -1.4765
 1955SOL    HW2 7466   3.682   2.001   2.452  1.6901 -0.3591  2.8832
 1956SOL     OW 7467   5.908   3.971   6.546 -0.5181 -0.5944 -0.0126
 1956SOL    HW1 7468   5.849   4.047   6.518  1.5789  1.4802  0.8676
 1956SOL    HW2 7469   5.983   4.006   6.603  2.4850 -2.8168 -2.2923
 1957SOL     OW 7470   0.287   6.116   6.618  0.2312  0.6257 -0.5489
 1957SOL    HW1 7471   0.218   6.047   6.596 -0.1714  1.5811 -2.5124
 1957SOL    HW2 7472   0.378   6.080   6.596 -0.0327  0.9348 -2.3036
 1958SOL     OW 7473   4.721   1.840   1.205 -0.2794  0.1664 -0.4824
 1958SOL    HW1 7474   4.634   1.883   1.228 -1.1943 -1.9279  0.2537
 1958SOL    HW2 7475   4.707   1.776   1.129  0.2809 -1.1999  0.5320
 1959SOL     OW 7476   1.410   0.014   0.645 -0.4982  0.3150  0.0016
 1959SOL    HW1 7477   1.316   0.015   0.613  0.1176 -0.2987 -1.9329
 1959SOL    HW2 7478   1.421  -0.057   0.715 -1.3014 -0.1227 -0.3065
 1960SOL     OW 7479   2.041   0.923   0.958 -0.1933 -1.0279  0.7291
 1960SOL    HW1 7480   2.028   1.019   0.935  0.0220 -1.6880 -2.6203
 1960SOL    HW2 7481   1.954   0.875   0.951 -0.1512 -1.2432  1.5806
 1961SOL     OW 7482   0.971   6.707   0.667 -0.9783 -0.2129 -0.2510
 1961SOL    HW1 7483   0.970   6.783   0.731  0.9207  0.0635 -0.5009
 1961SOL    HW2 7484   0.888   6.652   0.679 -2.1242  1.5556  0.3005
 1962SOL     OW 7485   2.466   5.343   5.245  0.3419  0.1152  0.3160
 1962SOL    HW1 7486   2.485   5.377   5.337  0.7311 -2.3501  1.2498
 1962SOL    HW2 7487   2.368   5.350   5.226 -0.0224 -0.8239  1.6382
 1963SOL     OW 7488   4.323   5.790   5.447 -0.0544  0.7131  0.2276
 1963SOL    HW1 7489   4.314   5.768   5.350 -0.9472  0.1944  0.4055
 1963SOL    HW2 7490   4.278   5.718   5.501 -0.2523  1.3934  0.9873
 1964SOL     OW 7491   6.338   3.007   3.380 -0.0095 -0.2495  1.0416
 1964SOL    HW1 7492   6.295   3.093   3.354 -3.0959 -1.7028  0.8514
 1964SOL    HW2 7493   6.382   2.965   3.301 -1.6565 -0.4992  0.2209
 1965SOL     OW 7494   5.212   3.641   1.210 -0.0235  0.7042  0.4494
 1965SOL    HW1 7495   5.231   3.610   1.303 -1.3171  1.4610  1.0027
 1965SOL    HW2 7496   5.138   3.709   1.212  1.4734  2.4972 -0.8614
 1966SOL     OW 7497   3.314   6.952   3.598  0.1195 -0.0027 -0.0722
 1966SOL    HW1 7498   3.404   6.991   3.582 -0.4480  1.5392  0.3937
 1966SOL    HW2 7499   3.262   7.010   3.660 -0.8115 -1.4495  0.5745
 1967SOL     OW 7500   2.079   1.747   4.677 -0.3296  0.2294 -0.4256
 1967SOL    HW1 7501   2.122   1.798   4.752  0.5427 -1.5136  0.3056
 1967SOL    HW2 7502   1.980   1.757   4.683 -0.2380  0.6637  0.5556
 1968SOL     OW 7503   3.997   2.859   0.932  0.4911 -0.2770 -0.0949
 1968SOL    HW1 7504   4.004   2.769   0.976 -1.0334  0.0287  0.8374
 1968SOL    HW2 7505   4.005   2.931   1.001 -0.8808  0.2313 -0.4273
 1969SOL     OW 7506   2.437   4.271   6.805 -0.3245 -0.1761  0.4944
 1969SOL    HW1 7507   2.438   4.239   6.711 -1.6416  0.1489  0.3501
 1969SOL    HW2 7508   2.360   4.231   6.853  0.1264 -0.0565  1.3405
 1970SOL     OW 7509   1.407   6.131   0.811 -0.2146  0.1961  0.0763
 1970SOL    HW1 7510   1.437   6.108   0.903 -1.9915 -0.7172  0.4796
 1970SOL    HW2 7511   1.353   6.055   0.773  0.6860  0.4444 -1.8267
 1971SOL     OW 7512   0.593   2.261   3.399 -0.2501  0.2616  0.1109
 1971SOL    HW1 7513   0.653   2.184   3.382 -1.5022 -0.6611 -0.2849
 1971SOL    HW2 7514   0.511   2.230   3.448 -0.9333  1.2594 -0.3621
 1972SOL     OW 7515   6.359   3.006   0.141  0.1365 -0.3242 -0.2327
 1972SOL    HW1 7516   6.269   3.042   0.117  0.9946  2.4161  0.3205
 1972SOL    HW2 7517   6.391   3.051   0.225  3.0247  0.6420 -1.7284
 1973SOL     OW 7518   2.248   0.351   4.665 -0.1983 -0.6547  0.6596
 1973SOL    HW1 7519   2.319   0.319   4.728 -1.3802 -1.2915  1.7161
 1973SOL    HW2 7520   2.160   0.353   4.712 -0.7288  1.1535 -0.3103
 1974SOL     OW 7521   3.880   4.673   6.806 -0.1024  0.6383 -0.1529
 1974SOL    HW1 7522   3.936   4.723   6.873  1.4669  0.3504 -1.1848
 1974SOL    HW2 7523   3.794   4.721   6.792 -1.1640 -0.0183  3.0796
 1975SOL     OW 7524   5.676   2.664   3.153 -1.1041 -0.0790  0.2979
 1975SOL    HW1 7525   5.586   2.621   3.151 -1.4081  0.4753  1.1288
 1975SOL    HW2 7526   5.730   2.625   3.228 -1.3446  0.8616  0.9894
 1976SOL     OW 7527   5.802   6.762   5.785  0.8216  0.6445 -0.6581
 1976SOL    HW1 7528   5.869   6.791   5.854 -1.6677  1.2458  1.6820
 1976SOL    HW2 7529   5.825   6.670   5.753  2.3819  0.5717  0.5689
 1977SOL     OW 7530   6.469   4.678   4.618 -0.4344 -0.0152 -0.5789
 1977SOL    HW1 7531   6.444   4.603   4.557  0.0761 -3.5577  3.1123
 1977SOL    HW2 7532   6.387   4.725   4.649 -1.3242 -2.0825  0.4072
 1978SOL     OW 7533   0.322   0.336   6.114  0.3551 -0.1081  0.3066
 1978SOL    HW1 7534   0.369   0.290   6.038 -0.8919  0.2385 -0.6897
 1978SOL    HW2 7535   0.379   0.330   6.196  0.5263 -2.9400  0.0837
 1979SOL     OW 7536   0.060   4.301   0.588 -0.3974 -0.3398  0.0338
 1979SOL    HW1 7537   0.047   4.358   0.507 -0.1026  0.4382  0.5178
 1979SOL    HW2 7538  -0.007   4.327   0.657 -1.1710 -1.5523 -0.2466
 1980SOL     OW 7539   1.806   0.158   3.524 -0.0635 -0.1755  0.1690
 1980SOL    HW1 7540   1.851   0.225   3.465  4.2952 -1.0401  2.1321
 1980SOL    HW2 7541   1.845   0.068   3.508 -0.4787 -0.8700  2.6946
 1981SOL     OW 7542   5.312   3.568   5.628  0.1734 -0.2171 -0.7478
 1981SOL    HW1 7543   5.300   3.665   5.649 -0.7262 -0.3692 -0.5156
 1981SOL    HW2 7544   5.348   3.521   5.709  0.0820 -0.1753 -0.6828
 1982SOL     OW 7545   0.018   6.851   6.014 -0.1241  0.1793 -0.3439
 1982SOL    HW1 7546   0.051   6.759   6.036 -1.0473 -0.5856 -2.0207
 1982SOL    HW2 7547   0.079   6.918   6.056  1.0229 -1.1799  0.2646
 1983SOL     OW 7548   5.356   1.436   0.043 -0.0357 -0.5681 -0.6642
 1983SOL    HW1 7549   5.297   1.374  -0.009  0.6789 -0.8601 -1.1406
 1983SOL    HW2 7550   5.351   1.527   0.002 -0.8426 -0.3711 -0.1540
 1984SOL     OW 7551   1.170   1.714   6.215 -0.2358 -0.0351  0.0296
 1984SOL    HW1 7552   1.161   1.812   6.199  1.1833  0.0873 -0.1266
 1984SOL    HW2 7553   1.250   1.697   6.273 -2.1705 -0.8766  2.6759
 1985SOL     OW 7554   4.660   2.274   4.246 -0.1693 -0.4715 -0.2005
 1985SOL    HW1 7555   4.743   2.284   4.192 -1.0282  0.9689 -1.3294
 1985SOL    HW2 7556   4.671   2.322   4.333  1.1233 -2.5862  0.8806
 1986SOL     OW 7557   1.158   4.104   3.018 -0.1135  0.1006 -0.1706
 1986SOL    HW1 7558   1.230   4.049   2.974  0.7709  1.0524  0.0374
 1986SOL    HW2 7559   1.170   4.101   3.118  0.5825  1.4636 -0.1860
 1987SOL     OW 7560   0.247   5.128   1.651  0.6953 -0.3209  0.3038
 1987SOL    HW1 7561   0.281   5.217   1.683 -0.1373  0.3821 -0.7029
 1987SOL    HW2 7562   0.303   5.055   1.691  1.6352  0.6644  0.8528
 1988SOL     OW 7563   4.913   4.906   0.673 -0.4645 -0.6140  0.6880
 1988SOL    HW1 7564   4.906   4.974   0.600  1.6366  0.2040  1.1591
 1988SOL    HW2 7565   4.969   4.829   0.641  0.7224 -0.1090  1.4807
 1989SOL     OW 7566   1.851   5.896   4.851  0.5383  0.1589 -0.3319
 1989SOL    HW1 7567   1.830   5.859   4.761 -0.6829 -0.4338  0.1868
 1989SOL    HW2 7568   1.897   5.827   4.906 -1.9181 -0.7467  0.7045
 1990SOL     OW 7569   0.744   3.306   0.248  0.5064  0.1219  0.2368
 1990SOL    HW1 7570   0.718   3.402   0.234 -1.0147 -0.1877  0.7281
 1990SOL    HW2 7571   0.811   3.279   0.179 -0.0392  1.1794 -0.7448
 1991SOL     OW 7572   1.090   1.152   2.423  0.2290  0.4061  0.4094
 1991SOL    HW1 7573   1.054   1.141   2.331 -1.0247 -0.6044  0.9858
 1991SOL    HW2 7574   1.029   1.211   2.476  0.1600 -0.1694  0.9891
 1992SOL     OW 7575   6.476   1.092   3.510  0.5066 -0.1056 -0.5737
 1992SOL    HW1 7576   6.483   1.012   3.451  2.0093 -0.0199 -0.5403
 1992SOL    HW2 7577   6.467   1.174   3.453 -1.5699 -0.2816 -0.6079
 1993SOL     OW 7578   5.410   4.268   5.172 -0.6153  0.4439  0.3687
 1993SOL    HW1 7579   5.375   4.296   5.083 -0.7830  1.3291  0.7049
 1993SOL    HW2 7580   5.339   4.278   5.241 -0.5491 -0.4224  0.5836
 1994SOL     OW 7581   5.664   1.661   0.867 -0.0321 -0.0324  0.5593
 1994SOL    HW1 7582   5.667   1.562   0.850 -0.2507  0.0697 -0.1073
 1994SOL    HW2 7583   5.727   1.707   0.805  0.2794  0.2288  1.0601
 1995SOL     OW 7584   6.235   1.482   1.022  0.0122 -0.7161  0.2062
 1995SOL    HW1 7585   6.303   1.470   0.949 -1.2530 -0.8590 -0.9911
 1995SOL    HW2 7586   6.145   1.497   0.981 -0.8674 -1.5751  1.7607
 1996SOL     OW 7587   0.596   2.251   5.043 -0.0722  0.0666  0.1449
 1996SOL    HW1 7588   0.545   2.200   5.112  0.2562  0.6524  0.8307
 1996SOL    HW2 7589   0.689   2.268   5.076  0.4295 -0.5832 -0.8963
 1997SOL     OW 7590   1.932   6.428   4.050 -0.0602  0.3892 -0.1660
 1997SOL    HW1 7591   1.970   6.508   4.097 -1.0370  0.3340  0.7772
 1997SOL    HW2 7592   1.945   6.347   4.108 -0.8301  0.2284 -0.2069
 1998SOL     OW 7593   0.794   6.565   3.384  0.1413 -0.6368 -0.9905
 1998SOL    HW1 7594   0.824   6.578   3.479 -0.7325  0.6399 -0.8583
 1998SOL    HW2 7595   0.812   6.471   3.356 -1.0139 -1.5214  0.9674
 1999SOL     OW 7596   1.097   3.993   5.682  0.2408  0.2263 -0.3609
 1999SOL    HW1 7597   1.025   3.968   5.617  0.1305 -0.5081  0.0283
 1999SOL    HW2 7598   1.186   3.968   5.645  0.2532  0.6614 -0.6239
 2000SOL     OW 7599   1.208   2.193   3.216  0.1072  0.1102  0.0414
 2000SOL    HW1 7600   1.138   2.123   3.221 -0.8029  1.0674  3.0876
 2000SOL    HW2 7601   1.297   2.151   3.199 -0.4952 -1.7293  1.2418
 2001SOL     OW 7602   0.028   0.384   1.914  0.3945  0.3168 -0.7252
 2001SOL    HW1 7603  -0.060   0.430   1.914 -1.6947 -3.2604  0.6724
 2001SOL    HW2 7604   0.042   0.337   1.827  0.4635  0.1000 -0.5984
 2002SOL     OW 7605   1.334   3.325   5.549  0.0032  0.8716  0.3059
 2002SOL    HW1 7606   1.354   3.410   5.597 -0.6283  0.9570  0.4217
 2002SOL    HW2 7607   1.419   3.275   5.533  0.4227  1.6878 -0.0705
 2003SOL     OW 7608   1.775   6.807   0.729  0.3618 -0.3975  0.0309
 2003SOL    HW1 7609   1.700   6.742   0.734 -0.1290  0.1548  0.0415
 2003SOL    HW2 7610   1.802   6.834   0.822 -1.3134  1.4943  0.0444
 2004SOL     OW 7611   2.898   5.794   0.214  0.2474  0.1935  0.4620
 2004SOL    HW1 7612   2.838   5.777   0.292 -0.5831  1.0666  0.0304
 2004SOL    HW2 7613   2.973   5.853   0.243  2.2056 -2.6009  1.5449
 2005SOL     OW 7614   4.483   1.440   3.729  0.0923 -0.4630  0.4970
 2005SOL    HW1 7615   4.440   1.391   3.652 -0.3224  1.3310 -0.4564
 2005SOL    HW2 7616   4.538   1.516   3.694 -1.3320  1.3513  2.0105
 2006SOL     OW 7617   3.466   3.601   4.909 -0.9153 -0.8587 -0.4857
 2006SOL    HW1 7618   3.368   3.601   4.890 -0.7916 -1.4505 -1.1821
 2006SOL    HW2 7619   3.503   3.509   4.894 -0.5855 -1.1334  1.6524
 2007SOL     OW 7620   0.464   4.503   3.398 -0.1576 -0.1756  0.4074
 2007SOL    HW1 7621   0.485   4.543   3.488 -0.3695  0.2594  0.2685
 2007SOL    HW2 7622   0.368   4.475   3.396 -1.0201  2.5399 -0.6462
 2008SOL     OW 7623   1.432   6.765   2.080 -0.8801  0.2672 -0.3119
 2008SOL    HW1 7624   1.366   6.790   2.009 -0.5420 -0.7405 -0.9917
 2008SOL    HW2 7625   1.524   6.761   2.040 -0.3507  1.8368  0.6626
 2009SOL     OW 7626   0.984   5.221   3.913  0.4609 -0.1914 -0.2655
 2009SOL    HW1 7627   0.945   5.178   3.995  1.8112  0.7638  0.9299
 2009SOL    HW2 7628   0.914   5.279   3.870  0.2271  0.7482  1.2900
 2010SOL     OW 7629   0.055   1.855   0.198 -0.1558  0.1910 -0.5683
 2010SOL    HW1 7630   0.107   1.781   0.242 -1.0272 -0.8771 -1.2689
 2010SOL    HW2 7631   0.112   1.899   0.129  0.2251 -0.1372 -0.4671
 2011SOL     OW 7632   6.391   4.123   3.824 -0.5095  0.2803 -0.2605
 2011SOL    HW1 7633   6.383   4.215   3.861 -0.9138 -0.8061  2.6408
 2011SOL    HW2 7634   6.299   4.085   3.809 -0.3473  0.1396 -0.9571
 2012SOL     OW 7635   2.215   4.794   2.258 -0.0061 -0.1355 -0.0738
 2012SOL    HW1 7636   2.264   4.717   2.217 -0.8377  0.1964 -1.8130
 2012SOL    HW2 7637   2.207   4.868   2.191 -0.5185  0.8919  1.0689
 2013SOL     OW 7638   3.812   4.376   4.952  0.0409 -0.1216 -0.1959
 2013SOL    HW1 7639   3.760   4.458   4.929  1.1982  0.6181 -0.2104
 2013SOL    HW2 7640   3.903   4.401   4.983  0.0285 -1.3481  0.9247
 2014SOL     OW 7641   6.474   5.692   6.763  0.9433  0.0696  0.6379
 2014SOL    HW1 7642   6.499   5.776   6.715  0.0440 -0.5656 -1.0290
 2014SOL    HW2 7643   6.401   5.646   6.713  0.1338 -0.7801  2.5291
 2015SOL     OW 7644   2.614   4.661   2.287  0.0611  0.0337 -0.1277
 2015SOL    HW1 7645   2.643   4.724   2.215 -2.4555  0.1263 -1.1681
 2015SOL    HW2 7646   2.531   4.614   2.258  0.0673 -1.3820  1.9678
 2016SOL     OW 7647   4.843   0.806   5.394 -0.1271 -0.5272 -0.6445
 2016SOL    HW1 7648   4.779   0.738   5.358 -0.1574 -1.6916  1.5143
 2016SOL    HW2 7649   4.902   0.765   5.463 -0.1429  1.6084  0.7524
 2017SOL     OW 7650   1.923   0.711   6.970  0.1948 -0.2528 -0.0207
 2017SOL    HW1 7651   1.933   0.787   7.034  0.8285 -0.7209  0.4546
 2017SOL    HW2 7652   1.985   0.723   6.892  1.9830 -1.3578  1.1495
 2018SOL     OW 7653   4.713   6.708   5.334 -0.5827 -0.5810  0.0038
 2018SOL    HW1 7654   4.756   6.628   5.374  1.2189  0.6561  0.6428
 2018SOL    HW2 7655   4.671   6.764   5.406  1.8427  1.1579  0.1946
 2019SOL     OW 7656   0.916   1.348   2.591  0.0965 -0.1991 -0.1298
 2019SOL    HW1 7657   0.888   1.407   2.515  0.7434  1.2923  0.7509
 2019SOL    HW2 7658   0.857   1.365   2.669 -0.2746 -1.3965 -0.1362
 2020SOL     OW 7659   1.153   5.599   0.238 -0.7957  0.0500  0.1978
 2020SOL    HW1 7660   1.078   5.576   0.300 -2.0650  1.4827 -0.7291
 2020SOL    HW2 7661   1.240   5.594   0.288 -1.3861 -2.2461  1.1312
 2021SOL     OW 7662   5.967   6.338   6.980  0.1924 -0.0202  0.3817
 2021SOL    HW1 7663   6.059   6.341   7.019  0.5754 -0.1918 -0.4877
 2021SOL    HW2 7664   5.911   6.412   7.020  0.4339 -0.4551  1.5543
 2022SOL     OW 7665   3.288   1.724   3.676  0.4389  0.1235  0.1984
 2022SOL    HW1 7666   3.365   1.783   3.652  1.2378 -1.8751 -2.7862
 2022SOL    HW2 7667   3.243   1.693   3.593 -1.7520 -1.1728  1.7682
 2023SOL     OW 7668   2.767   0.122   0.132 -0.6623 -1.0408  0.2345
 2023SOL    HW1 7669   2.718   0.043   0.095 -0.2873 -1.6907  1.0922
 2023SOL    HW2 7670   2.813   0.170   0.058 -2.0748 -0.7736 -0.5065
 2024SOL     OW 7671   5.681   2.011   4.150 -0.2827 -0.0089 -0.1351
 2024SOL    HW1 7672   5.736   2.011   4.067 -1.3316 -0.1183 -0.8479
 2024SOL    HW2 7673   5.696   1.925   4.200  0.7676  0.2902  0.0960
 2025SOL     OW 7674   4.493   3.175   1.877 -0.0432  0.2137 -0.4456
 2025SOL    HW1 7675   4.590   3.153   1.868 -0.1346  0.4916 -2.4632
 2025SOL    HW2 7676   4.447   3.162   1.789 -1.5986  1.2184  0.1723
 2026SOL     OW 7677   0.508   3.051   4.621 -0.4316  0.3689 -0.1023
 2026SOL    HW1 7678   0.544   3.084   4.708 -0.6039  1.0951 -0.3013
 2026SOL    HW2 7679   0.571   3.077   4.547  0.3010 -1.2202 -0.0901
 2027SOL     OW 7680   0.462   5.169   4.169  0.0321  0.1172 -0.3741
 2027SOL    HW1 7681   0.516   5.125   4.241 -1.6576 -0.6352  0.4871
 2027SOL    HW2 7682   0.478   5.122   4.082  2.0778  1.0230 -0.5383
 2028SOL     OW 7683   3.737   0.781   0.428 -0.2885  0.4965 -0.7667
 2028SOL    HW1 7684   3.801   0.744   0.361  0.0960  1.0125 -0.6858
 2028SOL    HW2 7685   3.728   0.717   0.504  1.8882  1.4082  0.3406
 2029SOL     OW 7686   6.939   3.965   4.093  0.5072  0.2287  0.3737
 2029SOL    HW1 7687   6.859   3.909   4.117  1.2044 -0.7366  0.4899
 2029SOL    HW2 7688   6.916   4.062   4.103 -0.8764  0.0007 -0.2893
 2030SOL     OW 7689   1.274   1.914   1.311 -0.1990  0.3105  0.1292
 2030SOL    HW1 7690   1.192   1.890   1.362  0.2460  0.1430  0.7779
 2030SOL    HW2 7691   1.339   1.960   1.372  1.2087 -1.7518  0.2589
 2031SOL     OW 7692   6.912   3.421   6.814  0.0451 -0.0718  0.5545
 2031SOL    HW1 7693   7.005   3.390   6.795  0.2904 -0.5748  2.3920
 2031SOL    HW2 7694   6.912   3.521   6.826  0.1050  0.0880 -0.5896
 2032SOL     OW 7695   4.467   1.393   5.737 -0.7274 -0.6763  0.3629
 2032SOL    HW1 7696   4.561   1.364   5.722 -1.0804 -0.3585 -3.4346
 2032SOL    HW2 7697   4.462   1.493   5.737 -1.0046 -0.6724  1.4406
 2033SOL     OW 7698   1.437   5.270   4.707  0.6312  0.2548  0.0932
 2033SOL    HW1 7699   1.532   5.258   4.735  0.1317 -1.2533  1.2901
 2033SOL    HW2 7700   1.412   5.196   4.643  0.7343  1.6586 -1.6541
 2034SOL     OW 7701   4.056   3.845   0.999 -0.0845  0.5838  0.2870
 2034SOL    HW1 7702   4.012   3.935   0.997 -0.3044  0.4821  0.5950
 2034SOL    HW2 7703   4.155   3.857   1.014 -0.1839  0.7503  0.8415
 2035SOL     OW 7704   2.323   5.959   1.288  0.3069  0.4729 -0.0207
 2035SOL    HW1 7705   2.231   5.927   1.312 -0.5660  2.3147 -0.7239
 2035SOL    HW2 7706   2.391   5.894   1.322 -1.2841 -1.4023 -0.2776
 2036SOL     OW 7707   6.033   2.597   4.056 -0.2658 -0.1402 -0.2711
 2036SOL    HW1 7708   6.016   2.562   4.148  0.7240  0.8103  0.2903
 2036SOL    HW2 7709   6.122   2.643   4.053 -0.3950  0.0659 -1.6409
 2037SOL     OW 7710   6.827   2.191   0.810  0.3894 -1.0405 -0.2529
 2037SOL    HW1 7711   6.792   2.285   0.817  1.3271 -0.8083  2.0307
 2037SOL    HW2 7712   6.907   2.190   0.750  0.7227 -0.2664  0.1693
 2038SOL     OW 7713   6.353   4.654   3.139  0.3271  0.2443 -0.0729
 2038SOL    HW1 7714   6.357   4.698   3.229 -2.3339  0.8711 -0.1664
 2038SOL    HW2 7715   6.418   4.579   3.135  2.6737  2.0765  1.2744
 2039SOL     OW 7716   5.837   4.763   5.321  0.5368  0.3472  0.7564
 2039SOL    HW1 7717   5.848   4.680   5.267 -0.0690 -0.0516  1.2287
 2039SOL    HW2 7718   5.853   4.743   5.417  2.0191  1.1449  0.7042
 2040SOL     OW 7719   4.418   4.234   6.156  0.3944 -0.0915  0.5010
 2040SOL    HW1 7720   4.380   4.308   6.211  2.6260  0.1327  1.8729
 2040SOL    HW2 7721   4.459   4.166   6.216 -0.4898 -1.8452 -0.7909
 2041SOL     OW 7722   2.726   5.215   5.298  0.1146 -0.0045  0.5984
 2041SOL    HW1 7723   2.645   5.182   5.251 -0.2576  0.3457  0.9871
 2041SOL    HW2 7724   2.764   5.142   5.355  0.5140 -0.4019 -0.1547
 2042SOL     OW 7725   2.443   1.582   4.558 -0.4442  0.0437 -0.2689
 2042SOL    HW1 7726   2.440   1.666   4.613  0.1560 -2.1419  3.3856
 2042SOL    HW2 7727   2.463   1.606   4.463 -1.0283  4.0486  0.4238
 2043SOL     OW 7728   1.497   4.486   1.161  0.2661 -0.3460 -0.0390
 2043SOL    HW1 7729   1.460   4.579   1.158  0.0639 -0.4385 -1.4543
 2043SOL    HW2 7730   1.591   4.486   1.127  0.4333 -0.5956  0.4165
 2044SOL     OW 7731   1.567   2.050   4.644 -0.4078  0.0603  0.0297
 2044SOL    HW1 7732   1.530   2.142   4.658 -0.9602 -0.2248  0.4809
 2044SOL    HW2 7733   1.511   1.984   4.694 -0.2806 -0.5759 -0.6468
 2045SOL     OW 7734   0.258   6.947   0.338  0.0208  0.2906  1.2313
 2045SOL    HW1 7735   0.207   6.894   0.271 -2.1820  2.4559  1.0554
 2045SOL    HW2 7736   0.349   6.907   0.350 -1.0079 -2.6616  0.1784
 2046SOL     OW 7737   4.559   3.104   0.412  0.4285  0.2207  0.0080
 2046SOL    HW1 7738   4.573   3.163   0.333 -1.6911 -0.9461 -1.3429
 2046SOL    HW2 7739   4.523   3.158   0.488 -0.8690  0.8350 -0.9898
 2047SOL     OW 7740   2.721   1.229   1.233 -0.0513 -0.6384 -0.0124
 2047SOL    HW1 7741   2.771   1.306   1.192 -1.3024  0.6934  0.8504
 2047SOL    HW2 7742   2.776   1.189   1.306  1.2402 -1.5717 -1.4367
 2048SOL     OW 7743   6.299   5.844   1.390  0.1490 -0.3286  0.2295
 2048SOL    HW1 7744   6.213   5.874   1.349  0.1650 -1.3061 -0.5659
 2048SOL    HW2 7745   6.339   5.919   1.443 -0.7127  0.4297 -0.1657
 2049SOL     OW 7746   6.289   6.567   6.554 -0.3555 -0.2556 -0.4353
 2049SOL    HW1 7747   6.238   6.525   6.479 -0.3022 -1.0085 -0.0559
 2049SOL    HW2 7748   6.235   6.641   6.593 -0.1353  0.5448 -1.5927
 2050SOL     OW 7749   3.172   2.531   0.067  0.0069  0.4290  0.4709
 2050SOL    HW1 7750   3.093   2.499   0.015  0.6040 -0.2395 -0.0478
 2050SOL    HW2 7751   3.205   2.458   0.126  0.0662  0.8006  0.9049
 2051SOL     OW 7752   1.829   2.334   1.958 -0.7582  0.3083  0.0540
 2051SOL    HW1 7753   1.802   2.378   2.044 -1.3912  0.4558 -0.2159
 2051SOL    HW2 7754   1.780   2.248   1.948 -0.4155  0.1191  0.0098
 2052SOL     OW 7755   3.296   0.653   1.038 -0.6712  0.2032  0.2905
 2052SOL    HW1 7756   3.378   0.670   0.984 -1.2986  0.2225 -0.6926
 2052SOL    HW2 7757   3.317   0.662   1.135  0.1256  1.8020  0.0072
 2053SOL     OW 7758   1.228   0.187   1.704 -0.2385 -0.1502 -0.4343
 2053SOL    HW1 7759   1.150   0.144   1.658  1.0266 -0.6810 -2.2128
 2053SOL    HW2 7760   1.279   0.117   1.754 -0.4704  0.0543  0.0906
 2054SOL     OW 7761   2.196   0.134   2.114  0.5332 -0.1442  0.3701
 2054SOL    HW1 7762   2.150   0.210   2.159 -0.0441 -1.2881  1.8084
 2054SOL    HW2 7763   2.148   0.110   2.031 -1.0588 -0.8049  1.4360
 2055SOL     OW 7764   3.677   1.413   0.215  0.0793  0.3672 -0.2601
 2055SOL    HW1 7765   3.683   1.356   0.297 -1.5470 -0.1925 -0.4906
 2055SOL    HW2 7766   3.678   1.355   0.134 -0.8624  0.7030 -0.5270
 2056SOL     OW 7767   3.679   3.772   4.961  0.0953  0.2870  0.4748
 2056SOL    HW1 7768   3.712   3.830   4.887 -0.6319  1.0172  0.7049
 2056SOL    HW2 7769   3.608   3.711   4.927  0.8218 -0.4332  0.2449
 2057SOL     OW 7770   2.233   0.473   6.868 -0.1141  0.9623 -0.8420
 2057SOL    HW1 7771   2.212   0.533   6.945 -0.0587 -0.5327  0.3862
 2057SOL    HW2 7772   2.316   0.420   6.889  0.1846  0.8761 -2.1506
 2058SOL     OW 7773   5.532   2.131   3.529 -0.9397  0.3094 -0.3791
 2058SOL    HW1 7774   5.613   2.083   3.497 -1.1320 -0.9148  0.8538
 2058SOL    HW2 7775   5.450   2.089   3.491 -1.0263  2.3909 -2.7214
 2059SOL     OW 7776   3.975   6.179   3.931 -0.1265  0.4202  0.2861
 2059SOL    HW1 7777   3.901   6.152   3.993 -0.4664  0.2396 -0.1916
 2059SOL    HW2 7778   3.941   6.246   3.865 -0.1660 -0.4815 -0.6333
 2060SOL     OW 7779   3.667   1.405   5.987  0.1576 -0.0972  0.2136
 2060SOL    HW1 7780   3.699   1.426   6.079 -2.3209  1.6027  0.7986
 2060SOL    HW2 7781   3.613   1.321   5.989 -2.7355  1.6041  1.1862
 2061SOL     OW 7782   4.013   5.997   2.473 -0.7225 -0.1240 -0.3431
 2061SOL    HW1 7783   4.075   6.028   2.401 -0.6950  1.1885  0.2343
 2061SOL    HW2 7784   3.939   5.943   2.431 -0.3675  0.0965 -1.2810
 2062SOL     OW 7785   3.568   5.066   4.310  0.1621 -0.4749 -0.0296
 2062SOL    HW1 7786   3.476   5.027   4.305 -0.4656  0.9733 -0.5845
 2062SOL    HW2 7787   3.582   5.128   4.232  1.3189 -0.0826  0.4644
 2063SOL     OW 7788   3.959   3.908   2.146  0.0874 -0.1864  0.3129
 2063SOL    HW1 7789   3.982   3.929   2.051  1.8320  0.7461  0.9120
 2063SOL    HW2 7790   3.958   3.809   2.159 -0.6250 -0.3406 -0.7591
 2064SOL     OW 7791   4.163   4.346   0.038  0.1406 -0.1085 -0.4548
 2064SOL    HW1 7792   4.207   4.435   0.048 -0.9449  0.4742 -0.7349
 2064SOL    HW2 7793   4.148   4.306   0.128  1.0942 -0.2426 -0.3527
 2065SOL     OW 7794   5.597   2.991   5.895  0.1079  0.1388  0.7675
 2065SOL    HW1 7795   5.521   2.931   5.871 -0.4691  1.1281  0.0712
 2065SOL    HW2 7796   5.563   3.070   5.946  0.5416  1.0080 -0.2622
 2066SOL     OW 7797   2.524   6.858   6.311 -0.0978 -0.1585  0.1740
 2066SOL    HW1 7798   2.445   6.913   6.335 -0.1966 -0.8709  1.5816
 2066SOL    HW2 7799   2.499   6.793   6.239 -0.4565  0.4023 -0.2145
 2067SOL     OW 7800   4.383   3.881   0.879 -0.4628 -0.1822 -0.0255
 2067SOL    HW1 7801   4.393   3.921   0.970  0.1327  0.7603 -0.4869
 2067SOL    HW2 7802   4.369   3.783   0.887 -0.4175 -0.1114  1.0789
 2068SOL     OW 7803   6.773   4.886   6.996  0.0789 -0.1580  0.0966
 2068SOL    HW1 7804   6.673   4.895   6.991 -0.2708 -3.4775 -1.2039
 2068SOL    HW2 7805   6.813   4.907   6.907  0.3709 -0.4625  0.1561
 2069SOL     OW 7806   0.020   4.929   3.589 -0.6026 -0.1885 -0.1830
 2069SOL    HW1 7807   0.082   5.001   3.621  0.6307 -0.8276 -1.0730
 2069SOL    HW2 7808   0.043   4.903   3.496 -0.1893 -2.5913  0.5049
 2070SOL     OW 7809   5.740   5.523   5.166  0.0859  0.2718 -0.5890
 2070SOL    HW1 7810   5.645   5.501   5.146 -0.8747  1.5984  2.0541
 2070SOL    HW2 7811   5.758   5.619   5.146 -0.2702  1.0263  2.2475
 2071SOL     OW 7812   6.813   1.236   0.704  0.3148 -0.5519 -0.5906
 2071SOL    HW1 7813   6.761   1.238   0.789  1.9185 -1.5023  0.4737
 2071SOL    HW2 7814   6.753   1.211   0.629 -0.9902 -0.4353  0.3803
 2072SOL     OW 7815   3.063   1.815   3.832  0.2837 -0.2132  0.7284
 2072SOL    HW1 7816   3.113   1.769   3.758 -2.6048 -0.5543 -1.1716
 2072SOL    HW2 7817   2.981   1.762   3.853  0.2527  0.7184  3.1802
 2073SOL     OW 7818   4.960   0.653   6.401  0.5159  0.6601  0.0936
 2073SOL    HW1 7819   5.043   0.695   6.437  0.8069  0.3592 -0.2153
 2073SOL    HW2 7820   4.984   0.594   6.324  0.0607  0.2831  0.2381
 2074SOL     OW 7821   2.294   5.327   6.449 -0.3286  0.5063 -0.5172
 2074SOL    HW1 7822   2.386   5.300   6.422 -0.9784 -2.4088 -0.1641
 2074SOL    HW2 7823   2.298   5.382   6.532  1.1121  0.8048 -0.7714
 2075SOL     OW 7824   1.264   3.037   2.500 -0.2064  0.1599 -0.0381
 2075SOL    HW1 7825   1.184   2.987   2.533  0.4656 -1.4776 -0.7498
 2075SOL    HW2 7826   1.256   3.052   2.402  0.9418 -1.2621 -0.3828
 2076SOL     OW 7827   4.304   0.604   1.137 -0.2655  0.0595 -1.2529
 2076SOL    HW1 7828   4.395   0.640   1.119  0.6113 -0.8331  0.9597
 2076SOL    HW2 7829   4.252   0.670   1.192  0.1054 -0.5698 -0.1124
 2077SOL     OW 7830   5.917   3.355   4.874 -0.0457  0.0653  1.2174
 2077SOL    HW1 7831   5.895   3.307   4.959 -2.0770 -0.2269  0.5793
 2077SOL    HW2 7832   5.832   3.384   4.829  1.0383  1.6647  0.0996
 2078SOL     OW 7833   6.180   3.260   6.278  0.0143  0.3627  0.3941
 2078SOL    HW1 7834   6.272   3.242   6.312  0.0945  2.1686  1.2623
 2078SOL    HW2 7835   6.166   3.359   6.269 -1.8976  0.1456  0.4658
 2079SOL     OW 7836   6.336   6.361   6.078 -0.2038 -0.1541  0.5794
 2079SOL    HW1 7837   6.398   6.432   6.045 -0.5355  0.6500  1.6581
 2079SOL    HW2 7838   6.382   6.272   6.071 -1.1822 -0.5424 -4.6471
 2080SOL     OW 7839   3.137   3.315   3.077 -0.7897 -0.4955  0.1034
 2080SOL    HW1 7840   3.203   3.378   3.036  1.7828 -3.2532 -0.2913
 2080SOL    HW2 7841   3.056   3.308   3.018  1.5764 -2.1982 -3.2708
 2081SOL     OW 7842   5.709   4.558   3.245  0.3687 -0.1073 -0.5586
 2081SOL    HW1 7843   5.808   4.555   3.258  0.2046 -0.0760  0.8660
 2081SOL    HW2 7844   5.664   4.517   3.324 -0.7487 -1.1686 -1.7079
 2082SOL     OW 7845   2.311   1.921   0.119 -0.4242 -0.3101  0.1883
 2082SOL    HW1 7846   2.385   1.986   0.101 -0.5461 -0.1607  0.2266
 2082SOL    HW2 7847   2.326   1.878   0.208  1.5108 -2.8384 -1.2211
 2083SOL     OW 7848   3.483   6.633   1.241  0.0077 -0.2493  0.5984
 2083SOL    HW1 7849   3.464   6.588   1.328  2.3076 -0.2497  1.1643
 2083SOL    HW2 7850   3.553   6.704   1.255  3.2525 -2.6883 -1.7792
 2084SOL     OW 7851   5.999   5.331   5.031  0.0034 -0.0043  0.2817
 2084SOL    HW1 7852   6.037   5.420   5.053  0.6879 -0.0675 -0.5737
 2084SOL    HW2 7853   5.943   5.298   5.107  1.0880  0.4178  1.2923
 2085SOL     OW 7854   0.141   4.994   0.146  0.3600 -0.5489  0.4489
 2085SOL    HW1 7855   0.127   4.937   0.065  1.1170 -0.7191  0.4310
 2085SOL    HW2 7856   0.239   5.002   0.165  0.1748 -1.0831  1.7534
 2086SOL     OW 7857   2.596   6.578   4.033 -0.6168 -0.3056 -0.3292
 2086SOL    HW1 7858   2.687   6.590   4.072 -1.7560  1.7308  1.9842
 2086SOL    HW2 7859   2.604   6.558   3.936  2.2773 -1.2211 -0.0135
 2087SOL     OW 7860   5.128   5.558   6.496 -0.8359  0.1411 -0.9618
 2087SOL    HW1 7861   5.075   5.641   6.515  0.3660  0.7265  0.0068
 2087SOL    HW2 7862   5.217   5.583   6.457 -0.7400 -0.7462 -1.3523
 2088SOL     OW 7863   6.026   0.946   4.075  0.1182  0.6725 -0.5794
 2088SOL    HW1 7864   5.963   1.016   4.108  0.1003  0.9159 -1.1158
 2088SOL    HW2 7865   5.975   0.879   4.020  0.1775  0.3774 -0.2748
 2089SOL     OW 7866   6.129   4.419   1.609 -0.5946  0.0778  1.0538
 2089SOL    HW1 7867   6.109   4.473   1.691 -3.2112  0.4787  0.2537
 2089SOL    HW2 7868   6.139   4.481   1.531 -0.6662 -0.4353  0.6322
 2090SOL     OW 7869   0.344   6.277   0.813 -0.2994  0.1532  0.3928
 2090SOL    HW1 7870   0.324   6.199   0.753  1.0321 -0.8210  1.1606
 2090SOL    HW2 7871   0.277   6.279   0.888  0.0632 -0.6957  0.7580
 2091SOL     OW 7872   3.121   1.199   1.933 -0.0505 -0.0454 -0.5598
 2091SOL    HW1 7873   3.135   1.157   2.022 -0.3224  1.1911  0.0841
 2091SOL    HW2 7874   3.053   1.272   1.940 -0.8506 -0.5835 -1.9909
 2092SOL     OW 7875   1.116   5.180   6.677  0.3864 -0.2960 -0.2133
 2092SOL    HW1 7876   1.141   5.236   6.756  1.9191  2.4608 -2.4716
 2092SOL    HW2 7877   1.018   5.191   6.659  0.4621  0.8706 -0.0106
 2093SOL     OW 7878   5.410   4.472   4.725 -0.6722 -0.0086 -0.5146
 2093SOL    HW1 7879   5.335   4.523   4.682 -2.6169 -1.8848  0.4154
 2093SOL    HW2 7880   5.495   4.487   4.675 -2.0067  0.9090 -2.6359
 2094SOL     OW 7881   5.268   5.588   0.266 -0.0388  0.4198  0.1452
 2094SOL    HW1 7882   5.203   5.514   0.284 -1.4213  0.8886 -2.4636
 2094SOL    HW2 7883   5.244   5.668   0.323 -0.3691 -0.1331  0.7965
 2095SOL     OW 7884   3.331   2.643   6.300  0.0968  0.2025  0.3698
 2095SOL    HW1 7885   3.333   2.742   6.287  0.8162 -0.0565 -1.8776
 2095SOL    HW2 7886   3.422   2.611   6.325  0.3712 -0.1071 -0.9776
 2096SOL     OW 7887   3.138   0.265   3.551  0.1340  0.0620  0.1411
 2096SOL    HW1 7888   3.125   0.264   3.650 -1.5420  0.2840 -0.0561
 2096SOL    HW2 7889   3.112   0.176   3.512 -0.7477  0.4829 -0.2602
 2097SOL     OW 7890   5.550   2.666   6.418 -0.1655 -0.4512 -0.2401
 2097SOL    HW1 7891   5.649   2.666   6.435 -0.6233 -1.0060  3.2441
 2097SOL    HW2 7892   5.521   2.756   6.387  1.2237  0.2145  0.3291
 2098SOL     OW 7893   6.121   0.993   0.621  0.7449  0.2279  0.3543
 2098SOL    HW1 7894   6.033   0.972   0.662  0.8106  0.3045  0.5378
 2098SOL    HW2 7895   6.121   1.088   0.587  1.2295  0.7179  1.6528
 2099SOL     OW 7896   1.019   6.128   1.439 -0.0735 -0.1038  0.0670
 2099SOL    HW1 7897   1.000   6.117   1.536  2.2205 -0.2872  0.5423
 2099SOL    HW2 7898   0.972   6.056   1.387 -1.1372 -0.1301  1.0354
 2100SOL     OW 7899   1.080   6.552   6.666 -0.4323 -0.5477 -0.2868
 2100SOL    HW1 7900   0.987   6.565   6.702 -0.6800  0.8067 -1.3378
 2100SOL    HW2 7901   1.075   6.504   6.579  0.0596 -2.5486  0.7442
 2101SOL     OW 7902   3.050   6.662   1.263 -0.3283 -0.2187 -0.4373
 2101SOL    HW1 7903   3.088   6.675   1.354 -0.5566 -2.0170 -0.0434
 2101SOL    HW2 7904   3.020   6.750   1.226  0.3768  0.6324  0.9311
 2102SOL     OW 7905   0.489   5.534   0.311  0.4245 -0.1814  0.1219
 2102SOL    HW1 7906   0.544   5.561   0.391  1.2188 -0.9947 -0.1402
 2102SOL    HW2 7907   0.528   5.575   0.229  0.3223 -0.3286 -0.0002
 2103SOL     OW 7908   3.657   1.024   4.384 -0.0483 -0.0130  0.3271
 2103SOL    HW1 7909   3.731   0.958   4.373 -1.1975 -0.9920 -2.3366
 2103SOL    HW2 7910   3.681   1.110   4.339 -0.3233 -0.1721 -0.1316
 2104SOL     OW 7911   5.470   4.825   1.504  0.6100 -0.2076 -0.0425
 2104SOL    HW1 7912   5.555   4.862   1.467  0.5832  1.1183  1.1195
 2104SOL    HW2 7913   5.491   4.767   1.583  0.5107 -0.8561 -0.4937
 2105SOL     OW 7914   3.291   5.700   5.974 -0.2965  0.3560  0.2812
 2105SOL    HW1 7915   3.207   5.654   5.945 -0.5553  0.8261  0.2732
 2105SOL    HW2 7916   3.302   5.784   5.922  1.4649 -0.8815 -1.4939
 2106SOL     OW 7917   5.644   0.154   3.085 -0.5937  0.8436  0.1614
 2106SOL    HW1 7918   5.731   0.196   3.112 -0.0849  0.2143 -0.4566
 2106SOL    HW2 7919   5.596   0.123   3.166 -0.1297  0.9845  0.4966
 2107SOL     OW 7920   4.635   6.276   5.046  0.0978  0.3144 -0.4563
 2107SOL    HW1 7921   4.560   6.229   4.998  0.6394 -1.0386 -0.0282
 2107SOL    HW2 7922   4.680   6.212   5.108  0.8293  1.4472  0.2109
 2108SOL     OW 7923   2.850   4.626   4.726  0.3783 -0.3507 -0.2782
 2108SOL    HW1 7924   2.853   4.680   4.810  1.0662  2.1512 -1.8228
 2108SOL    HW2 7925   2.759   4.634   4.684  1.3134  2.2826 -2.0582
 2109SOL     OW 7926   5.322   2.339   0.870 -0.0453  0.4996  0.0839
 2109SOL    HW1 7927   5.300   2.407   0.939 -1.3032 -0.5961  0.8226
 2109SOL    HW2 7928   5.260   2.261   0.880  0.7063 -0.3186 -1.3585
 2110SOL     OW 7929   6.082   5.990   5.881  0.3218  0.5891 -0.5754
 2110SOL    HW1 7930   6.151   6.059   5.863  0.2119  0.8007 -0.1957
 2110SOL    HW2 7931   6.028   5.973   5.798  1.4107 -0.2329 -1.1337
 2111SOL     OW 7932   5.736   3.386   0.887 -0.1395  0.4547 -0.0596
 2111SOL    HW1 7933   5.766   3.310   0.944 -0.3226 -0.3544 -1.0037
 2111SOL    HW2 7934   5.679   3.351   0.813 -0.5012  1.5592 -0.3270
 2112SOL     OW 7935   2.055   2.131   0.548  0.4510  0.4661 -0.4040
 2112SOL    HW1 7936   1.975   2.073   0.562  1.7813 -1.2008  0.7958
 2112SOL    HW2 7937   2.129   2.076   0.510  1.8156  1.3102  0.9054
 2113SOL     OW 7938   2.429   3.774   4.851 -0.3704  0.6044 -0.5751
 2113SOL    HW1 7939   2.457   3.844   4.917 -1.3926 -1.2345  1.9382
 2113SOL    HW2 7940   2.336   3.795   4.819 -0.5407  0.6122 -0.0949
 2114SOL     OW 7941   2.093   2.885   0.501 -0.0358  0.1926 -0.0608
 2114SOL    HW1 7942   2.173   2.931   0.538 -0.1179  0.5209 -0.2926
 2114SOL    HW2 7943   2.045   2.945   0.437 -1.5318  0.7200  1.4713
 2115SOL     OW 7944   0.073   0.340   0.426  0.0140 -0.0430 -0.7308
 2115SOL    HW1 7945   0.025   0.324   0.339  1.6979  1.0931 -1.9496
 2115SOL    HW2 7946   0.048   0.430   0.461  1.5525  0.8058 -1.6708
 2116SOL     OW 7947   5.960   4.888   4.866 -0.2677 -0.2889  0.2539
 2116SOL    HW1 7948   5.914   4.888   4.955 -1.8703  0.7249 -0.5497
 2116SOL    HW2 7949   6.025   4.964   4.863  1.4935 -1.6500  1.3410
 2117SOL     OW 7950   3.697   1.386   3.109 -0.3197 -0.1137 -0.1489
 2117SOL    HW1 7951   3.729   1.440   3.031 -0.6787 -0.9751 -0.9209
 2117SOL    HW2 7952   3.728   1.291   3.098  0.3195 -0.0759  1.1868
 2118SOL     OW 7953   5.962   5.798   6.512 -0.2882  0.1342  0.2151
 2118SOL    HW1 7954   5.895   5.828   6.580 -0.7313 -0.7666  0.1872
 2118SOL    HW2 7955   5.920   5.731   6.451 -0.1215  1.4946 -1.4497
 2119SOL     OW 7956   5.519   4.333   4.447  0.2242  0.4520 -0.0842
 2119SOL    HW1 7957   5.562   4.419   4.475  1.7669 -0.0696 -0.7679
 2119SOL    HW2 7958   5.583   4.278   4.394 -1.1254 -0.6189 -0.6928
 2120SOL     OW 7959   5.551   0.120   6.041 -0.3509  0.4022  0.1527
 2120SOL    HW1 7960   5.582   0.039   6.091 -3.9257 -0.0058  2.0129
 2120SOL    HW2 7961   5.543   0.097   5.944  0.1494 -0.9888  0.4051
 2121SOL     OW 7962   5.727   6.856   4.591  0.3710 -0.6037 -0.0321
 2121SOL    HW1 7963   5.804   6.912   4.561  0.5008 -1.6162 -1.6623
 2121SOL    HW2 7964   5.644   6.913   4.595  0.8363  0.0832  0.0602
 2122SOL     OW 7965   6.703   1.331   1.562 -0.0403  0.7836  0.5463
 2122SOL    HW1 7966   6.664   1.239   1.563  1.5052  0.1102  1.5390
 2122SOL    HW2 7967   6.795   1.328   1.523  0.4990  1.7031  1.7060
 2123SOL     OW 7968   4.522   2.749   0.676 -0.1978 -0.4014 -0.6814
 2123SOL    HW1 7969   4.431   2.735   0.716  0.8644 -0.1712  2.0590
 2123SOL    HW2 7970   4.536   2.685   0.601 -2.6864 -0.2537 -1.3487
 2124SOL     OW 7971   2.411   1.071   6.352 -0.3632 -0.9753  0.1297
 2124SOL    HW1 7972   2.433   0.993   6.293  3.1179  0.5566 -0.8616
 2124SOL    HW2 7973   2.493   1.101   6.400 -1.5725  2.0218  0.5580
 2125SOL     OW 7974   5.328   4.384   3.255 -0.3652 -0.1135  0.2714
 2125SOL    HW1 7975   5.332   4.484   3.258  0.3667 -0.1432  0.4491
 2125SOL    HW2 7976   5.274   4.351   3.333  1.4773  0.0580  1.7186
 2126SOL     OW 7977   1.636   2.372   0.539  0.1675  0.4030  0.4966
 2126SOL    HW1 7978   1.694   2.316   0.598  1.1117  1.1536  0.3038
 2126SOL    HW2 7979   1.686   2.453   0.510 -0.8813  0.9152  0.0616
 2127SOL     OW 7980   4.452   6.288   3.544 -0.2126 -0.4614 -0.5371
 2127SOL    HW1 7981   4.516   6.251   3.477  0.2922 -0.0430 -0.2917
 2127SOL    HW2 7982   4.471   6.385   3.559  0.5755 -0.8455  1.1998
 2128SOL     OW 7983   0.681   1.394   2.153 -0.5436 -0.0939 -0.2072
 2128SOL    HW1 7984   0.685   1.351   2.243  2.3994  1.1174  0.3781
 2128SOL    HW2 7985   0.718   1.332   2.085 -2.0468 -0.7191 -0.4820
 2129SOL     OW 7986   6.792   6.915   3.500  0.2741 -0.6000  0.0280
 2129SOL    HW1 7987   6.882   6.893   3.535  0.6500  0.9444  0.1118
 2129SOL    HW2 7988   6.722   6.869   3.555  0.9534 -0.4496  1.0343
 2130SOL     OW 7989   6.360   0.474   1.666  0.1150  0.1964  0.5557
 2130SOL    HW1 7990   6.271   0.427   1.657  0.0813 -0.3580  3.0358
 2130SOL    HW2 7991   6.425   0.434   1.600 -1.0088 -0.5483 -0.1505
 2131SOL     OW 7992   3.258   2.867   3.521  0.2358  0.6108 -0.5921
 2131SOL    HW1 7993   3.183   2.886   3.458  0.1845 -0.1729 -0.7781
 2131SOL    HW2 7994   3.337   2.924   3.496 -0.8255  2.7783  0.7074
 2132SOL     OW 7995   6.197   0.232   3.865  0.2524 -0.0113  0.1061
 2132SOL    HW1 7996   6.145   0.269   3.942 -1.0151 -0.5906 -0.4430
 2132SOL    HW2 7997   6.291   0.264   3.870 -0.0249  0.6680  1.4068
 2133SOL     OW 7998   5.103   5.960   6.459 -0.1457  0.2331 -0.4906
 2133SOL    HW1 7999   5.129   6.016   6.538 -1.2411  0.3676 -0.2179
 2133SOL    HW2 8000   5.185   5.939   6.405  0.7327 -0.4374  1.0466
 2134SOL     OW 8001   0.838   5.714   5.020 -0.2005 -0.0464 -0.5946
 2134SOL    HW1 8002   0.877   5.622   5.015 -0.8507 -0.3340 -0.4848
 2134SOL    HW2 8003   0.830   5.752   4.928  0.9364  0.2761 -0.5691
 2135SOL     OW 8004   6.043   4.377   2.512 -0.1576 -0.3118  0.1557
 2135SOL    HW1 8005   5.945   4.383   2.493 -0.0926  4.1148  0.1641
 2135SOL    HW2 8006   6.063   4.426   2.597  2.2796  1.3081 -1.2313
 2136SOL     OW 8007   2.295   6.125   3.624 -0.5960 -0.0070 -0.1436
 2136SOL    HW1 8008   2.208   6.132   3.574 -1.4247  0.4763  1.3178
 2136SOL    HW2 8009   2.282   6.071   3.706  0.7370 -0.7201 -0.3738
 2137SOL     OW 8010   6.108   0.577   2.657  0.6760  0.1826  0.1836
 2137SOL    HW1 8011   6.181   0.516   2.628  0.7894  0.3248  0.1698
 2137SOL    HW2 8012   6.147   0.663   2.690  0.6173 -0.4073  1.8697
 2138SOL     OW 8013   2.170   3.853   5.612 -0.0615 -0.8113 -0.5908
 2138SOL    HW1 8014   2.090   3.831   5.555 -0.8580  1.3288 -0.4142
 2138SOL    HW2 8015   2.214   3.769   5.642 -2.3159 -2.0727 -0.6005
 2139SOL     OW 8016   0.530   5.491   6.106  0.2249 -0.3354 -0.4811
 2139SOL    HW1 8017   0.447   5.483   6.050  1.2449 -1.7963 -1.8602
 2139SOL    HW2 8018   0.572   5.401   6.117  1.2771  0.2741  0.7949
 2140SOL     OW 8019   6.610   3.490   3.805  0.1586  0.2509 -0.1939
 2140SOL    HW1 8020   6.540   3.552   3.769 -0.2157 -0.7758 -1.3217
 2140SOL    HW2 8021   6.699   3.513   3.766  0.1034  0.3671 -0.2511
 2141SOL     OW 8022   6.549   5.794   0.717 -0.0039  0.2742  0.1912
 2141SOL    HW1 8023   6.564   5.762   0.811  1.0678 -1.3895 -0.4937
 2141SOL    HW2 8024   6.465   5.754   0.681 -0.0018  0.2726  0.1872
 2142SOL     OW 8025   4.137   1.589   1.890 -0.2436 -0.1287 -0.0290
 2142SOL    HW1 8026   4.047   1.604   1.932  0.0648  1.1557  0.2350
 2142SOL    HW2 8027   4.131   1.608   1.792 -0.2431  0.0468  0.0044
 2143SOL     OW 8028   4.902   3.416   1.257 -0.3622  0.4421 -0.3153
 2143SOL    HW1 8029   4.985   3.379   1.299 -2.2709 -1.3131  2.2046
 2143SOL    HW2 8030   4.831   3.426   1.326 -2.5187  1.2259 -2.4957
 2144SOL     OW 8031   0.671   2.735   2.420  0.3483 -0.1444 -0.5730
 2144SOL    HW1 8032   0.644   2.800   2.491 -2.3669 -0.1539 -1.4731
 2144SOL    HW2 8033   0.750   2.682   2.451  0.4003  1.1061  1.6273
 2145SOL     OW 8034   1.225   5.504   4.139  0.3388 -0.1731  0.1175
 2145SOL    HW1 8035   1.133   5.532   4.111 -0.3402 -2.0576  0.3326
 2145SOL    HW2 8036   1.284   5.585   4.143 -1.4727  1.2106  0.6826
 2146SOL     OW 8037   4.852   0.246   6.146 -0.1066 -0.0019 -0.4027
 2146SOL    HW1 8038   4.868   0.147   6.145 -0.7928 -0.1302  0.3320
 2146SOL    HW2 8039   4.909   0.289   6.076  1.2013 -0.7606  0.1368
 2147SOL     OW 8040   4.054   5.630   6.646  0.4465 -0.0840  0.4316
 2147SOL    HW1 8041   4.008   5.716   6.623  0.0242  0.0283  1.6382
 2147SOL    HW2 8042   4.007   5.554   6.602 -1.9416 -0.1530  2.8647
 2148SOL     OW 8043   4.485   2.750   6.826  0.4533  0.2131  0.5016
 2148SOL    HW1 8044   4.537   2.765   6.742  0.8108  0.2861  0.7299
 2148SOL    HW2 8045   4.541   2.778   6.904 -0.2470  1.0872  0.7033
 2149SOL     OW 8046   3.804   6.353   2.383  0.0322 -0.1203  0.1279
 2149SOL    HW1 8047   3.755   6.267   2.373  0.0249 -0.1932  0.7279
 2149SOL    HW2 8048   3.876   6.359   2.314 -0.7364 -0.0668 -0.6778
 2150SOL     OW 8049   5.554   6.645   4.090 -0.4519  0.1585  0.2401
 2150SOL    HW1 8050   5.594   6.627   4.180 -2.1958  0.7035  1.1781
 2150SOL    HW2 8051   5.454   6.652   4.099 -0.6442  0.4258 -1.7122
 2151SOL     OW 8052   2.900   1.934   5.589  0.0369  0.7347 -0.2023
 2151SOL    HW1 8053   2.864   2.011   5.643 -2.4474 -0.6163  0.1958
 2151SOL    HW2 8054   2.826   1.871   5.567  1.6493 -0.5615 -2.2529
 2152SOL     OW 8055   2.589   3.590   6.115  0.5143  0.2728 -0.0210
 2152SOL    HW1 8056   2.688   3.605   6.119  0.4723  0.6295  3.8905
 2152SOL    HW2 8057   2.569   3.495   6.137 -0.0519 -0.1170 -2.0250
 2153SOL     OW 8058   1.624   5.318   2.791  0.5040 -0.6362 -0.1140
 2153SOL    HW1 8059   1.527   5.320   2.770  0.7863  0.2734 -1.4460
 2153SOL    HW2 8060   1.651   5.226   2.817 -0.3538 -1.3024 -1.5169
 2154SOL     OW 8061   4.110   2.904   3.295  0.4352  0.1894 -0.1901
 2154SOL    HW1 8062   4.201   2.898   3.254  1.2135  0.5124  1.3827
 2154SOL    HW2 8063   4.113   2.865   3.387 -0.5862  1.6902  0.5204
 2155SOL     OW 8064   4.122   4.859   3.086 -0.8984 -0.7054 -0.2480
 2155SOL    HW1 8065   4.216   4.837   3.113 -1.3112 -1.9686  0.2330
 2155SOL    HW2 8066   4.075   4.775   3.058 -1.7235 -0.0091 -1.0116
 2156SOL     OW 8067   6.917   0.071   1.121  0.1603  0.6267  0.0163
 2156SOL    HW1 8068   7.010   0.039   1.137 -0.1375 -0.7192 -0.7546
 2156SOL    HW2 8069   6.858   0.044   1.197  0.6386  2.6889  1.1788
 2157SOL     OW 8070   1.426   6.185   3.062 -0.3922 -0.0293 -0.3731
 2157SOL    HW1 8071   1.444   6.146   2.972 -0.2501  0.0182 -0.3658
 2157SOL    HW2 8072   1.478   6.270   3.073  0.3747 -0.5480  0.1306
 2158SOL     OW 8073   4.330   0.179   0.401  0.0311  0.1725  0.4317
 2158SOL    HW1 8074   4.406   0.140   0.454 -0.9227 -1.0877  0.9044
 2158SOL    HW2 8075   4.255   0.202   0.462 -1.7277 -2.7658 -0.3871
 2159SOL     OW 8076   6.116   1.405   4.145 -0.0382 -0.0640 -0.2338
 2159SOL    HW1 8077   6.114   1.466   4.224  0.8162 -0.1678 -0.1201
 2159SOL    HW2 8078   6.173   1.326   4.166 -0.6622 -0.6182 -0.5880
 2160SOL     OW 8079   5.870   1.413   0.087  0.7035  0.2886 -0.1699
 2160SOL    HW1 8080   5.883   1.458  -0.001  0.1849 -1.4161 -1.1546
 2160SOL    HW2 8081   5.773   1.400   0.104  0.8544 -1.7098 -0.6118
 2161SOL     OW 8082   1.094   5.932   2.501 -0.3248  0.8232  0.0519
 2161SOL    HW1 8083   0.995   5.923   2.493 -0.1927  0.0303 -0.9154
 2161SOL    HW2 8084   1.129   5.979   2.420  0.1595  0.5423  0.0972
 2162SOL     OW 8085   5.731   5.172   6.549 -0.3771  0.3195  0.3414
 2162SOL    HW1 8086   5.825   5.176   6.583 -0.7362 -1.5427  1.7137
 2162SOL    HW2 8087   5.732   5.169   6.449  0.9743  0.9122  0.3105
 2163SOL     OW 8088   3.277   2.569   4.646  0.0429  0.2551  0.0093
 2163SOL    HW1 8089   3.338   2.629   4.594  0.5832 -0.7515 -0.5636
 2163SOL    HW2 8090   3.183   2.599   4.635 -0.1864 -1.3695 -3.7372
 2164SOL     OW 8091   0.754   5.972   4.311 -0.4621  0.5771 -0.1835
 2164SOL    HW1 8092   0.714   5.919   4.236  1.5325  0.6343 -1.3557
 2164SOL    HW2 8093   0.759   6.068   4.284  0.9993  0.4807 -0.3568
 2165SOL     OW 8094   6.351   3.922   4.019 -0.3681 -0.1265  0.0912
 2165SOL    HW1 8095   6.283   3.858   3.983 -0.3731  0.1686 -0.4395
 2165SOL    HW2 8096   6.393   3.971   3.943  0.5138 -0.3824  0.4061
 2166SOL     OW 8097   1.362   3.378   1.765 -0.7014 -0.4067 -0.1191
 2166SOL    HW1 8098   1.297   3.331   1.705 -1.2083 -1.1064  0.9478
 2166SOL    HW2 8099   1.313   3.418   1.842  0.0570 -0.4153  0.3777
 2167SOL     OW 8100   5.381   2.302   5.509  0.5531 -0.2040  0.1861
 2167SOL    HW1 8101   5.452   2.359   5.551 -0.5119  1.0118  0.4044
 2167SOL    HW2 8102   5.398   2.206   5.531  1.2127  0.2107  1.6404
 2168SOL     OW 8103   1.974   5.344   6.892 -0.1568  0.4526  0.0252
 2168SOL    HW1 8104   2.035   5.365   6.968 -0.4203  0.3193  0.2733
 2168SOL    HW2 8105   2.019   5.281   6.829  0.4750  1.3904 -0.4905
 2169SOL     OW 8106   6.073   5.248   2.684  0.0875  0.2469 -0.1509
 2169SOL    HW1 8107   6.059   5.292   2.595 -0.5598  0.8668  0.2447
 2169SOL    HW2 8108   6.054   5.314   2.757 -1.1491 -0.7280  0.4575
 2170SOL     OW 8109   1.816   2.055   1.682 -0.0155  0.4168 -0.0450
 2170SOL    HW1 8110   1.742   2.092   1.738 -0.5176 -1.1496  0.3689
 2170SOL    HW2 8111   1.874   1.996   1.737 -0.3984 -0.9869 -1.0753
 2171SOL     OW 8112   2.462   6.965   6.561 -0.3164 -0.7605  0.2432
 2171SOL    HW1 8113   2.499   6.875   6.537 -1.1674 -1.2959  0.8982
 2171SOL    HW2 8114   2.440   6.967   6.658 -0.4257  0.1182  0.2042
 2172SOL     OW 8115   2.684   5.365   0.097  0.3254 -0.1599 -0.5516
 2172SOL    HW1 8116   2.772   5.412   0.086  1.1465 -1.7093 -0.8924
 2172SOL    HW2 8117   2.669   5.305   0.019 -1.3550  0.5259 -0.7966
 2173SOL     OW 8118   0.002   6.669   5.436  0.4165  0.1319 -0.1021
 2173SOL    HW1 8119  -0.029   6.574   5.446  0.8807  0.0720  0.8525
 2173SOL    HW2 8120   0.046   6.699   5.521  0.3130  1.1906 -0.4139
 2174SOL     OW 8121   5.537   4.547   0.234 -0.0801 -0.0374 -0.2292
 2174SOL    HW1 8122   5.636   4.559   0.233 -0.1407  0.5221 -0.0529
 2174SOL    HW2 8123   5.493   4.633   0.205 -0.5858  0.7577  2.5893
 2175SOL     OW 8124   0.599   4.164   2.749 -0.0105 -0.6208  0.2950
 2175SOL    HW1 8125   0.635   4.159   2.655  1.3254  1.2910  0.6342
 2175SOL    HW2 8126   0.608   4.075   2.793  1.9067 -0.9011 -0.5491
 2176SOL     OW 8127   4.052   2.258   1.634 -0.2746 -0.5268 -0.2038
 2176SOL    HW1 8128   4.098   2.194   1.696 -1.4270 -1.1231  0.0643
 2176SOL    HW2 8129   4.005   2.207   1.562 -0.4291  0.0788 -0.5433
 2177SOL     OW 8130   6.950   3.864   2.536 -0.1427 -0.0626  0.2726
 2177SOL    HW1 8131   6.907   3.904   2.455 -1.3173  0.9509  1.3561
 2177SOL    HW2 8132   6.942   3.927   2.613  0.8325 -1.0609  1.2312
 2178SOL     OW 8133   3.731   3.721   3.659 -0.2863  0.7460 -0.1832
 2178SOL    HW1 8134   3.774   3.686   3.743 -1.8108  0.5310  0.5405
 2178SOL    HW2 8135   3.725   3.820   3.664 -2.2894  0.6286  0.9947
 2179SOL     OW 8136   3.108   4.913   4.685  0.4078 -0.0383  0.1072
 2179SOL    HW1 8137   3.183   4.970   4.718  0.8340 -1.0691  0.9842
 2179SOL    HW2 8138   3.138   4.818   4.678  0.0326 -0.0463 -2.3671
 2180SOL     OW 8139   5.636   0.570   5.744  0.0733  0.2770  0.2593
 2180SOL    HW1 8140   5.669   0.660   5.773  1.0865  0.7448 -2.1154
 2180SOL    HW2 8141   5.714   0.508   5.733 -0.4054 -0.2834 -0.0624
 2181SOL     OW 8142   3.109   3.971   6.174 -0.0787  0.0725 -0.3928
 2181SOL    HW1 8143   3.122   3.901   6.244  4.5741  2.3745  1.4744
 2181SOL    HW2 8144   3.146   3.938   6.087  2.0889  0.0176  0.4691
 2182SOL     OW 8145   2.819   2.812   0.212  0.0651 -0.1065  0.0093
 2182SOL    HW1 8146   2.842   2.900   0.171  2.6841  0.9501  3.2969
 2182SOL    HW2 8147   2.735   2.821   0.266  1.0811  0.8983  1.5058
 2183SOL     OW 8148   5.594   3.729   2.775  0.2926 -0.2808 -0.3812
 2183SOL    HW1 8149   5.563   3.815   2.734  1.6790  0.1945 -0.4704
 2183SOL    HW2 8150   5.555   3.721   2.867  0.1262  0.4266 -0.3797
 2184SOL     OW 8151   3.496   3.964   6.902  0.0297 -0.1428 -0.5521
 2184SOL    HW1 8152   3.545   4.014   6.830 -1.3608  1.6608 -0.3063
 2184SOL    HW2 8153   3.544   3.976   6.989 -1.0266  2.0371 -0.2119
 2185SOL     OW 8154   2.513   3.993   1.093  0.2193  0.4105 -0.1617
 2185SOL    HW1 8155   2.497   3.947   1.006  0.4920  0.7234 -0.3827
 2185SOL    HW2 8156   2.560   3.931   1.156  0.0043  0.1771 -0.2305
 2186SOL     OW 8157   5.801   4.804   6.223 -0.5571 -0.0373  0.1549
 2186SOL    HW1 8158   5.869   4.732   6.237  0.4851  0.8860  0.0487
 2186SOL    HW2 8159   5.811   4.874   6.293 -0.2906  0.9211 -0.7994
 2187SOL     OW 8160   0.868   3.881   3.488  0.3280 -0.2419 -0.4188
 2187SOL    HW1 8161   0.890   3.976   3.468 -0.7971  0.0452 -0.4107
 2187SOL    HW2 8162   0.872   3.827   3.404  0.2703 -0.0279 -0.5591
 2188SOL     OW 8163   2.603   2.179   3.965  0.0921  0.1742  0.7320
 2188SOL    HW1 8164   2.515   2.132   3.964  0.7233 -1.1239  2.2740
 2188SOL    HW2 8165   2.645   2.174   3.874 -1.1746  0.3839  0.1102
 2189SOL     OW 8166   5.562   4.068   2.427  0.2433  0.1798 -0.6370
 2189SOL    HW1 8167   5.577   3.970   2.430 -2.3299 -0.2817 -0.8252
 2189SOL    HW2 8168   5.559   4.099   2.332  0.8522  0.4268 -0.5823
 2190SOL     OW 8169   3.642   4.794   6.727 -0.1512  0.1865  0.3728
 2190SOL    HW1 8170   3.578   4.735   6.679  0.0541 -0.0916  0.4349
 2190SOL    HW2 8171   3.606   4.815   6.818 -0.1295 -0.0129  0.4278
 2191SOL     OW 8172   6.863   2.520   6.308  0.6576 -0.2694  0.0985
 2191SOL    HW1 8173   6.895   2.563   6.224  0.4767 -0.6804 -0.1883
 2191SOL    HW2 8174   6.805   2.441   6.285  0.1181 -0.0277  0.6090
 2192SOL     OW 8175   6.661   3.741   2.947  0.0105  0.4360 -0.3734
 2192SOL    HW1 8176   6.698   3.705   2.861  2.6880 -1.2478  1.3230
 2192SOL    HW2 8177   6.620   3.667   2.999  0.4342  0.9484  0.7244
 2193SOL     OW 8178   0.166   6.844   5.629 -0.4641  0.0032  0.0480
 2193SOL    HW1 8179   0.219   6.845   5.543 -1.6928  0.6214 -0.7364
 2193SOL    HW2 8180   0.225   6.816   5.704  0.9300  0.4615 -0.8286
 2194SOL     OW 8181   5.022   0.168   1.998 -0.1461 -0.0020  0.1968
 2194SOL    HW1 8182   4.972   0.247   2.033 -1.8149 -1.0350  0.2479
 2194SOL    HW2 8183   5.079   0.196   1.920 -1.2671  1.1204 -0.2493
 2195SOL     OW 8184   1.078   5.591   0.745  0.0410  0.3334 -0.2092
 2195SOL    HW1 8185   1.088   5.498   0.781  1.5265  0.5527  0.0316
 2195SOL    HW2 8186   0.992   5.630   0.775 -0.3679 -0.7806  0.1153
 2196SOL     OW 8187   3.604   4.794   1.790  0.2089 -0.1079  0.8736
 2196SOL    HW1 8188   3.602   4.890   1.761 -0.8282 -0.0316  1.1413
 2196SOL    HW2 8189   3.608   4.735   1.709  2.0183  0.1535  0.7271
 2197SOL     OW 8190   1.175   4.190   6.656 -0.1444 -0.0497 -0.4933
 2197SOL    HW1 8191   1.255   4.179   6.716  1.2650 -1.0590 -2.4341
 2197SOL    HW2 8192   1.179   4.279   6.612 -1.0203  0.5721  0.6478
 2198SOL     OW 8193   4.193   1.895   1.035 -0.2527 -0.2922  0.6346
 2198SOL    HW1 8194   4.245   1.958   0.977  2.9362 -0.2797  3.2323
 2198SOL    HW2 8195   4.254   1.822   1.068 -1.8013 -0.2291  4.0121
 2199SOL     OW 8196   0.087   6.217   3.418  0.3373  0.2101 -0.1490
 2199SOL    HW1 8197   0.163   6.181   3.364  1.6182  1.1476  0.9619
 2199SOL    HW2 8198   0.117   6.230   3.512 -1.5053 -0.2903  0.5336
 2200SOL     OW 8199   0.505   3.947   5.497 -0.1784 -0.1130  0.1054
 2200SOL    HW1 8200   0.503   3.990   5.587  0.1602 -0.1100  0.1139
 2200SOL    HW2 8201   0.565   3.867   5.499 -0.5444 -0.3906  0.0034
 2201SOL     OW 8202   3.244   1.419   6.109 -0.1598  0.1589  0.2127
 2201SOL    HW1 8203   3.206   1.442   6.198 -0.4228  0.5289  0.0058
 2201SOL    HW2 8204   3.344   1.426   6.113 -0.1263 -0.5004  0.6646
 2202SOL     OW 8205   2.573   4.881   3.228  0.0906 -0.1739  0.4801
 2202SOL    HW1 8206   2.522   4.796   3.230  0.8624 -0.6348  2.6097
 2202SOL    HW2 8207   2.649   4.872   3.163 -2.0120  0.3250 -2.2713
 2203SOL     OW 8208   1.669   6.928   4.804 -0.0955  0.1000 -0.5409
 2203SOL    HW1 8209   1.743   6.872   4.839  0.1191 -0.2091 -1.4709
 2203SOL    HW2 8210   1.686   6.952   4.708 -1.3067 -0.1758 -0.8490
 2204SOL     OW 8211   6.913   6.115   0.635  0.3149  0.1773  0.2448
 2204SOL    HW1 8212   6.833   6.067   0.598  0.5845 -0.3059  0.2848
 2204SOL    HW2 8213   6.967   6.153   0.560 -1.2971  2.7535  0.2683
 2205SOL     OW 8214   3.359   1.842   5.562  0.3078 -0.4388  0.4186
 2205SOL    HW1 8215   3.437   1.812   5.508 -1.5065  0.0343 -2.7445
 2205SOL    HW2 8216   3.366   1.941   5.579 -0.3832 -0.0320 -1.4410
 2206SOL     OW 8217   0.392   1.671   4.494 -0.7317  0.3240  0.5270
 2206SOL    HW1 8218   0.396   1.737   4.569 -0.0497 -0.8920  1.5988
 2206SOL    HW2 8219   0.448   1.591   4.516 -0.8806 -0.2758 -1.0902
 2207SOL     OW 8220   6.326   6.082   4.772  0.4856  0.2806  0.2791
 2207SOL    HW1 8221   6.250   6.036   4.725  0.4956  0.6022 -0.0535
 2207SOL    HW2 8222   6.393   6.014   4.802 -0.0078 -0.0245  0.7203
 2208SOL     OW 8223   5.597   5.092   3.122 -0.4367  0.2773 -0.0428
 2208SOL    HW1 8224   5.577   4.994   3.125  0.2040  0.1486  0.1389
 2208SOL    HW2 8225   5.588   5.131   3.214 -1.7060  0.6069 -0.2846
 2209SOL     OW 8226   0.100   1.903   2.447  0.1626 -0.5512  0.0737
 2209SOL    HW1 8227   0.175   1.867   2.392  0.3344  2.1302 -1.6612
 2209SOL    HW2 8228   0.129   1.989   2.490 -1.8278  0.4899 -0.5426
 2210SOL     OW 8229   4.397   6.849   6.472 -0.1578  0.0632 -0.4277
 2210SOL    HW1 8230   4.319   6.891   6.519 -0.5514 -0.3716 -0.6885
 2210SOL    HW2 8231   4.365   6.784   6.404  0.4093  0.8021 -1.4300
 2211SOL     OW 8232   6.359   3.959   0.450  0.4993  0.1145  0.0727
 2211SOL    HW1 8233   6.403   3.922   0.531  0.9173  1.5273  0.5160
 2211SOL    HW2 8234   6.269   3.994   0.474 -0.8982 -2.5888 -0.7924
 2212SOL     OW 8235   3.688   5.591   1.616  0.7951  0.1971 -0.0728
 2212SOL    HW1 8236   3.731   5.645   1.544  0.2376 -0.0601 -0.6078
 2212SOL    HW2 8237   3.642   5.651   1.681  1.8449  0.4688  0.4411
 2213SOL     OW 8238   3.841   6.521   5.057  0.1002  0.0765  0.2460
 2213SOL    HW1 8239   3.938   6.522   5.079  0.6872 -0.7602 -1.9553
 2213SOL    HW2 8240   3.796   6.447   5.107  0.0159  1.9260  3.1162
 2214SOL     OW 8241   2.242   3.577   1.785 -0.0593 -0.0664  0.0858
 2214SOL    HW1 8242   2.276   3.671   1.786 -1.1869  0.5615 -3.7077
 2214SOL    HW2 8243   2.181   3.562   1.862 -0.5991  2.6716  0.2658
 2215SOL     OW 8244   6.527   3.881   0.661  0.2884  0.3170  0.1288
 2215SOL    HW1 8245   6.548   3.850   0.754  0.9891 -0.7528 -0.3686
 2215SOL    HW2 8246   6.599   3.852   0.599 -1.0822 -0.6389 -1.0790
 2216SOL     OW 8247   0.513   6.033   1.043 -0.6810  0.2322  0.3538
 2216SOL    HW1 8248   0.414   6.040   1.045 -0.5758  2.8070  0.8121
 2216SOL    HW2 8249   0.547   6.063   0.954 -0.3305 -2.9076 -0.6963
 2217SOL     OW 8250   5.509   6.381   3.488 -0.2754  0.5441 -0.0639
 2217SOL    HW1 8251   5.449   6.316   3.535 -0.9835  1.9834  1.1290
 2217SOL    HW2 8252   5.574   6.419   3.554  0.6493  0.4774 -0.9181
 2218SOL     OW 8253   0.393   3.640   6.843  0.0551 -0.1575 -0.8552
 2218SOL    HW1 8254   0.315   3.635   6.781 -1.4086 -0.7676  0.9637
 2218SOL    HW2 8255   0.404   3.733   6.876  0.4635  0.0438 -1.5435
 2219SOL     OW 8256   0.328   5.665   4.568 -0.2075 -0.1368  0.5054
 2219SOL    HW1 8257   0.409   5.628   4.522 -0.6798 -1.2780  0.5580
 2219SOL    HW2 8258   0.299   5.749   4.521  0.1440 -0.5135 -0.4059
 2220SOL     OW 8259   1.247   3.994   3.669 -0.0808 -0.0428  0.7605
 2220SOL    HW1 8260   1.158   3.953   3.648  0.3889  0.0385 -1.6331
 2220SOL    HW2 8261   1.312   3.922   3.693 -0.1329 -0.3833 -0.0874
 2221SOL     OW 8262   3.658   1.673   4.764 -0.0899 -0.6995  0.4416
 2221SOL    HW1 8263   3.577   1.660   4.821 -0.7405 -2.2174 -0.7370
 2221SOL    HW2 8264   3.638   1.738   4.691 -0.5572 -1.6870 -0.3380
 2222SOL     OW 8265   0.151   3.043   5.313  0.3541  0.5112  0.1961
 2222SOL    HW1 8266   0.062   3.034   5.268  0.3021 -0.1195  0.4151
 2222SOL    HW2 8267   0.161   3.136   5.350 -0.6215  0.3035  1.0259
 2223SOL     OW 8268   0.640   4.905   6.907 -0.0305 -0.1961  0.6345
 2223SOL    HW1 8269   0.704   4.981   6.913 -0.9577  0.5787  1.1051
 2223SOL    HW2 8270   0.670   4.831   6.967 -0.1796  0.6393  1.7913
 2224SOL     OW 8271   0.788   1.788   6.558 -0.0089  0.3880 -0.0513
 2224SOL    HW1 8272   0.698   1.830   6.543 -0.0630  0.9152  1.5821
 2224SOL    HW2 8273   0.800   1.711   6.494 -1.1289  1.0167 -1.0650
 2225SOL     OW 8274   1.032   2.441   5.428  0.2455  0.0732 -0.3331
 2225SOL    HW1 8275   1.089   2.373   5.381  1.4019 -0.4820  1.7587
 2225SOL    HW2 8276   1.078   2.530   5.427  0.7708 -0.1714  0.5718
 2226SOL     OW 8277   6.846   4.038   6.441 -0.4007 -0.4622  0.3742
 2226SOL    HW1 8278   6.910   4.001   6.374  0.9226  1.6878  0.3692
 2226SOL    HW2 8279   6.894   4.052   6.528 -0.9256  0.8456  0.4755
 2227SOL     OW 8280   6.238   0.145   6.485  0.1526  0.6207 -0.3261
 2227SOL    HW1 8281   6.330   0.113   6.508  0.4708  2.4406  1.1693
 2227SOL    HW2 8282   6.242   0.241   6.456 -1.2550  0.6968 -0.3437
 2228SOL     OW 8283   2.574   6.836   4.927  0.2040 -0.1766  0.2964
 2228SOL    HW1 8284   2.629   6.764   4.883  2.2212  0.1138  2.1934
 2228SOL    HW2 8285   2.497   6.859   4.867  1.7766 -1.0260 -2.2309
 2229SOL     OW 8286   0.305   4.309   5.902 -0.0865  0.4336 -0.0216
 2229SOL    HW1 8287   0.224   4.289   5.846 -0.6092  1.1186  0.4723
 2229SOL    HW2 8288   0.276   4.352   5.987  0.8662  1.5026 -0.2203
 2230SOL     OW 8289   0.682   5.955   3.867  0.0077 -0.2709  0.0835
 2230SOL    HW1 8290   0.645   5.865   3.892 -2.7256  1.1112  1.4685
 2230SOL    HW2 8291   0.629   5.993   3.792  0.9181  0.3677 -0.2553
 2231SOL     OW 8292   5.620   4.392   6.745 -0.3518 -0.1069 -0.1865
 2231SOL    HW1 8293   5.591   4.443   6.826  0.5605  1.4867 -0.8261
 2231SOL    HW2 8294   5.709   4.350   6.761  0.6943  1.7202 -0.9194
 2232SOL     OW 8295   1.484   4.742   0.112  0.3120  0.5698 -0.0023
 2232SOL    HW1 8296   1.550   4.717   0.041 -0.7994 -0.1409 -0.8269
 2232SOL    HW2 8297   1.498   4.837   0.139  1.2932  0.5951 -0.5691
 2233SOL     OW 8298   1.367   1.171   4.791  0.2754  0.3320  0.8330
 2233SOL    HW1 8299   1.356   1.232   4.712  0.7291  0.2235  0.6781
 2233SOL    HW2 8300   1.441   1.206   4.849 -0.8150  1.0597  1.8424
 2234SOL     OW 8301   1.937   6.033   2.038 -0.3430 -0.2305  0.1638
 2234SOL    HW1 8302   1.841   6.053   2.021 -0.5921 -1.0758  0.4843
 2234SOL    HW2 8303   1.952   6.023   2.136  0.3706  1.2627  0.2270
 2235SOL     OW 8304   1.642   5.547   0.414 -0.5203 -0.3985  0.2846
 2235SOL    HW1 8305   1.566   5.609   0.390 -2.0072 -2.7958 -1.6174
 2235SOL    HW2 8306   1.689   5.518   0.330  0.9032 -0.9551  1.2418
 2236SOL     OW 8307   1.601   4.759   5.214  0.0852  0.5025 -0.8117
 2236SOL    HW1 8308   1.590   4.720   5.305  0.9708  0.2488 -0.8043
 2236SOL    HW2 8309   1.534   4.833   5.201 -0.5513  0.0377 -0.2461
 2237SOL     OW 8310   0.081   4.822   6.102  0.2625 -0.5320 -0.3591
 2237SOL    HW1 8311   0.136   4.814   6.185  0.5988 -2.6023 -0.7176
 2237SOL    HW2 8312  -0.011   4.786   6.120  0.5563 -1.6737 -1.0380
 2238SOL     OW 8313   5.275   3.815   5.783  0.2979 -0.0169 -0.7298
 2238SOL    HW1 8314   5.257   3.903   5.739 -1.6107  0.7536  1.4058
 2238SOL    HW2 8315   5.215   3.805   5.863  0.7894 -3.0827 -0.6514
 2239SOL     OW 8316   6.083   3.098   1.832 -0.3189  0.6815 -0.5574
 2239SOL    HW1 8317   6.043   3.077   1.921 -1.0626  2.1696 -0.5189
 2239SOL    HW2 8318   6.142   3.022   1.803  0.2665  0.3612  1.3827
 2240SOL     OW 8319   6.460   3.037   3.131 -0.0141 -0.0673 -0.6022
 2240SOL    HW1 8320   6.509   3.119   3.159 -0.4347 -0.8237  2.8435
 2240SOL    HW2 8321   6.524   2.974   3.087  1.0407  0.8238 -0.3911
 2241SOL     OW 8322   5.072   1.056   5.126  0.0332  0.2400  0.2919
 2241SOL    HW1 8323   5.108   1.063   5.219  1.0627 -0.5559 -0.0361
 2241SOL    HW2 8324   5.000   0.986   5.124  1.0665 -0.8329  0.1842
 2242SOL     OW 8325   1.569   4.899   1.765  0.2701  0.0696 -0.0148
 2242SOL    HW1 8326   1.569   4.984   1.713 -0.0325 -0.6729 -1.2564
 2242SOL    HW2 8327   1.514   4.911   1.848  3.2610  2.2344  1.8695
 2243SOL     OW 8328   6.185   4.434   4.105 -0.4839 -0.2862 -0.3965
 2243SOL    HW1 8329   6.134   4.348   4.101  0.7663 -1.1073  0.4695
 2243SOL    HW2 8330   6.282   4.415   4.121  0.0858  1.2370 -1.7305
 2244SOL     OW 8331   3.184   5.986   4.678 -0.2842  0.2535 -0.3697
 2244SOL    HW1 8332   3.138   5.941   4.601  0.1301  0.7551 -0.9282
 2244SOL    HW2 8333   3.226   6.071   4.646  1.6368 -0.5261 -0.0682
 2245SOL     OW 8334   6.740   3.309   2.009 -0.1125  0.4161  0.2935
 2245SOL    HW1 8335   6.672   3.322   2.081 -1.2648 -0.2038 -0.6605
 2245SOL    HW2 8336   6.785   3.220   2.021 -0.6140  0.1215 -0.0031
 2246SOL     OW 8337   5.349   5.100   2.094 -0.9069  0.3575 -0.5725
 2246SOL    HW1 8338   5.368   5.089   1.996 -0.5561 -1.6799 -0.3180
 2246SOL    HW2 8339   5.250   5.102   2.109 -0.9680  0.1275 -0.9302
 2247SOL     OW 8340   6.882   1.435   4.396  0.1467 -0.1610  0.1511
 2247SOL    HW1 8341   6.976   1.427   4.431  0.4983  0.0161 -0.7467
 2247SOL    HW2 8342   6.875   1.389   4.308 -0.6052 -0.1244  0.1843
 2248SOL     OW 8343   3.559   6.828   5.285 -0.0422 -0.0912  0.0254
 2248SOL    HW1 8344   3.577   6.798   5.191 -0.1862  0.3973 -0.1608
 2248SOL    HW2 8345   3.556   6.927   5.289 -2.8393 -0.0790 -0.0310
 2249SOL     OW 8346   5.772   5.268   3.029 -0.3817 -0.4125 -0.4181
 2249SOL    HW1 8347   5.698   5.209   3.062 -1.4466  1.0460 -0.0640
 2249SOL    HW2 8348   5.768   5.356   3.078  1.6963 -0.3470 -0.2983
 2250SOL     OW 8349   3.783   0.088   3.208  0.0833  0.1019 -0.3520
 2250SOL    HW1 8350   3.775   0.025   3.130 -0.0054 -0.8271  0.3894
 2250SOL    HW2 8351   3.854   0.055   3.270  0.3196  0.9702 -0.1502
 2251SOL     OW 8352   4.494   4.047   1.965 -0.3078  0.3685  0.1453
 2251SOL    HW1 8353   4.411   4.034   1.911 -0.1599  0.7948 -0.1883
 2251SOL    HW2 8354   4.469   4.068   2.060 -0.5571 -2.4843  0.7755
 2252SOL     OW 8355   0.203   4.486   3.377  0.0139  0.1847  0.5383
 2252SOL    HW1 8356   0.218   4.515   3.472  1.9668  1.1053 -0.0209
 2252SOL    HW2 8357   0.124   4.424   3.374 -1.0481  1.3471  2.5258
 2253SOL     OW 8358   3.466   4.569   4.876  0.3631  0.1915 -0.6348
 2253SOL    HW1 8359   3.455   4.518   4.962 -1.2022  2.9195  0.9155
 2253SOL    HW2 8360   3.562   4.570   4.850  0.4758 -3.5989 -0.8910
 2254SOL     OW 8361   5.966   6.859   5.968  0.5357 -0.3325  0.8594
 2254SOL    HW1 8362   5.986   6.956   5.979  1.3028 -0.1919 -1.3236
 2254SOL    HW2 8363   6.032   6.805   6.020  0.9054  0.2918  1.0469
 2255SOL     OW 8364   4.072   0.385   3.253 -0.0750  0.0419  0.2102
 2255SOL    HW1 8365   4.098   0.479   3.232  1.1363 -0.3239  0.0372
 2255SOL    HW2 8366   4.145   0.322   3.226 -1.1865 -1.0372 -0.4134
 2256SOL     OW 8367   0.361   6.568   6.575 -0.4706  0.5827 -0.1637
 2256SOL    HW1 8368   0.303   6.546   6.497 -0.9742  1.6819 -0.1166
 2256SOL    HW2 8369   0.394   6.483   6.616 -2.1411 -0.0937 -0.1097
 2257SOL     OW 8370   6.843   4.773   3.275  0.2631  0.2105 -0.3388
 2257SOL    HW1 8371   6.885   4.862   3.258  0.0044  0.6864  1.3017
 2257SOL    HW2 8372   6.868   4.710   3.201  1.3692  1.3146 -0.9600
 2258SOL     OW 8373   1.405   3.041   4.128  0.1409  0.5409  0.1858
 2258SOL    HW1 8374   1.385   3.038   4.030 -0.7079  0.7369  0.3445
 2258SOL    HW2 8375   1.501   3.018   4.143  0.6935  2.0883 -0.8193
 2259SOL     OW 8376   3.217   2.586   0.390  0.1266 -0.1485  0.2310
 2259SOL    HW1 8377   3.216   2.665   0.328  1.0770 -0.8679 -0.7363
 2259SOL    HW2 8378   3.218   2.619   0.485  0.1922  0.9910 -0.1429
 2260SOL     OW 8379   0.952   4.584   3.787  0.5842  1.1313  0.1041
 2260SOL    HW1 8380   1.001   4.597   3.873  1.9415 -2.4661  0.0591
 2260SOL    HW2 8381   0.910   4.493   3.786  0.6338  1.0375 -2.9972
 2261SOL     OW 8382   4.896   0.477   2.099 -0.2365 -0.5767 -0.5885
 2261SOL    HW1 8383   4.969   0.544   2.112  0.3292 -1.0616 -1.1679
 2261SOL    HW2 8384   4.817   0.502   2.154  0.6006 -0.3926  0.5772
 2262SOL     OW 8385   1.694   5.228   4.853  0.1935 -0.3397 -0.2287
 2262SOL    HW1 8386   1.754   5.159   4.813  1.2772 -0.8137  2.0089
 2262SOL    HW2 8387   1.683   5.210   4.951 -2.1056  0.8532 -0.1770
 2263SOL     OW 8388   4.280   3.271   6.557 -0.0758 -0.2647 -0.3335
 2263SOL    HW1 8389   4.338   3.203   6.602  0.0281 -0.9133 -1.3987
 2263SOL    HW2 8390   4.203   3.224   6.513 -0.7046  0.4534 -0.0209
 2264SOL     OW 8391   5.955   5.832   2.481  0.5857 -0.3916  0.5012
 2264SOL    HW1 8392   5.898   5.913   2.495  0.8479 -0.5311  2.6521
 2264SOL    HW2 8393   5.903   5.764   2.428  0.3160  1.0753 -1.2255
 2265SOL     OW 8394   1.853   0.857   2.905 -0.4501 -0.1090  0.3147
 2265SOL    HW1 8395   1.763   0.875   2.944 -0.5363  1.0618 -0.3767
 2265SOL    HW2 8396   1.845   0.796   2.827 -0.5542 -0.5777  0.6897
 2266SOL     OW 8397   1.095   2.264   2.955 -0.3582 -0.3297 -0.1270
 2266SOL    HW1 8398   1.124   2.212   3.035 -3.2384 -1.6827  0.1629
 2266SOL    HW2 8399   1.069   2.357   2.982 -1.7881 -0.9306  0.6669
 2267SOL     OW 8400   5.926   2.857   0.532 -0.6052  0.0803  0.5399
 2267SOL    HW1 8401   5.963   2.884   0.621  0.0386 -0.4014  0.4324
 2267SOL    HW2 8402   5.956   2.922   0.462 -2.8361  1.6557  0.9761
 2268SOL     OW 8403   4.349   0.437   4.820 -0.1076 -0.2752  0.0188
 2268SOL    HW1 8404   4.391   0.371   4.758 -0.4411  0.3245 -0.8591
 2268SOL    HW2 8405   4.344   0.526   4.776 -0.4108  0.1460  0.8892
 2269SOL     OW 8406   6.779   2.584   0.839  0.0784 -0.1080 -0.5091
 2269SOL    HW1 8407   6.795   2.530   0.922 -0.6632 -0.9602 -0.9004
 2269SOL    HW2 8408   6.840   2.554   0.767 -1.0576 -1.2202 -1.0571
 2270SOL     OW 8409   4.393   1.505   0.699  0.2546  0.0013  0.4308
 2270SOL    HW1 8410   4.338   1.446   0.640 -0.1916  1.4453 -0.6823
 2270SOL    HW2 8411   4.487   1.506   0.666  0.7255 -1.5543  1.6262
 2271SOL     OW 8412   3.831   1.357   6.666  0.0911 -0.2366 -0.3123
 2271SOL    HW1 8413   3.794   1.265   6.655  0.4221 -0.5542  1.0340
 2271SOL    HW2 8414   3.847   1.397   6.576 -1.4802 -0.8946 -0.9266
 2272SOL     OW 8415   5.319   1.439   5.328 -0.5788  0.5587 -0.4527
 2272SOL    HW1 8416   5.277   1.528   5.346 -0.5889  0.2466  1.1930
 2272SOL    HW2 8417   5.403   1.430   5.381  0.2572  0.1789 -1.7944
 2273SOL     OW 8418   3.073   1.637   1.931 -1.0673 -0.1512  0.7120
 2273SOL    HW1 8419   3.065   1.678   1.840  1.6524 -1.6215 -0.2886
 2273SOL    HW2 8420   3.044   1.704   2.000 -1.8703  1.5007 -1.1277
 2274SOL     OW 8421   2.917   5.662   6.862  0.7001 -0.1845  0.5037
 2274SOL    HW1 8422   2.982   5.654   6.786  0.5455 -0.3188  0.3839
 2274SOL    HW2 8423   2.915   5.757   6.894 -0.0187  0.1183 -0.3655
 2275SOL     OW 8424   2.833   4.420   0.587  0.4911  0.2871 -0.0186
 2275SOL    HW1 8425   2.931   4.441   0.594  1.2457 -0.7031 -4.3126
 2275SOL    HW2 8426   2.821   4.336   0.534 -2.7366  0.1954  0.6616
 2276SOL     OW 8427   3.098   3.927   4.849 -0.9051  1.0265 -0.1388
 2276SOL    HW1 8428   3.058   4.018   4.854 -0.7887  1.0543  0.4224
 2276SOL    HW2 8429   3.197   3.935   4.835 -0.5311  1.0751  2.0600
 2277SOL     OW 8430   3.055   2.090   3.790 -0.2403 -0.1308 -0.2000
 2277SOL    HW1 8431   3.033   2.111   3.885  2.1220 -2.1571  0.9047
 2277SOL    HW2 8432   3.060   1.991   3.777 -2.7878 -0.0528 -3.0963
 2278SOL     OW 8433   3.527   5.401   4.012  0.5766  0.0485  0.3444
 2278SOL    HW1 8434   3.573   5.476   4.060  1.0758  0.0649 -0.1508
 2278SOL    HW2 8435   3.431   5.425   3.998  0.5619  0.2899  0.8146
 2279SOL     OW 8436   2.307   4.531   6.919 -0.4594 -0.2696  0.6064
 2279SOL    HW1 8437   2.347   4.443   6.891  0.8221  0.4981 -0.0817
 2279SOL    HW2 8438   2.257   4.519   7.004  1.5441 -1.2382  1.7209
 2280SOL     OW 8439   0.815   1.298   5.410 -0.4779  0.3619  0.0225
 2280SOL    HW1 8440   0.902   1.337   5.441 -0.1749 -1.0304  1.0499
 2280SOL    HW2 8441   0.758   1.278   5.489 -1.4411  0.5875 -0.6027
 2281SOL     OW 8442   0.122   6.052   4.263 -0.0627 -0.2668 -0.2094
 2281SOL    HW1 8443   0.116   6.110   4.344 -0.6064 -0.0203 -0.4196
 2281SOL    HW2 8444   0.061   6.087   4.192  1.8609  0.7090 -1.4878
 2282SOL     OW 8445   2.953   1.218   0.635 -0.3561  0.0082  0.4257
 2282SOL    HW1 8446   2.873   1.164   0.659 -0.1545  0.2626  1.7040
 2282SOL    HW2 8447   3.002   1.173   0.561  0.5114 -2.2804  2.2881
 2283SOL     OW 8448   5.130   4.494   0.967 -0.0317  0.0988  0.1316
 2283SOL    HW1 8449   5.132   4.415   0.906  2.0984  0.3707 -0.2239
 2283SOL    HW2 8450   5.152   4.577   0.916  2.5640  0.2383  1.3230
 2284SOL     OW 8451   1.196   2.973   6.753 -0.0379 -0.3668  0.6995
 2284SOL    HW1 8452   1.139   2.937   6.826 -1.5874 -1.4611 -0.9667
 2284SOL    HW2 8453   1.161   2.942   6.665  1.5462  1.1916 -0.5536
 2285SOL     OW 8454   4.216   6.064   3.810 -0.3672  0.0770 -0.1898
 2285SOL    HW1 8455   4.162   6.138   3.850  1.3745  0.2839  1.9571
 2285SOL    HW2 8456   4.196   5.978   3.858 -0.6195 -0.3651 -1.0665
 2286SOL     OW 8457   4.012   5.277   4.441 -0.0588  0.0414  0.0623
 2286SOL    HW1 8458   4.011   5.373   4.470  1.9547 -0.1330  0.9291
 2286SOL    HW2 8459   4.017   5.272   4.342 -0.0278  0.8511  0.0160
 2287SOL     OW 8460   3.850   5.973   1.527 -0.3223  0.2853 -0.7165
 2287SOL    HW1 8461   3.930   6.015   1.484 -0.4572  0.4954 -0.7649
 2287SOL    HW2 8462   3.853   5.989   1.626 -0.6283  0.8416 -0.7946
 2288SOL     OW 8463   2.343   1.568   3.543  0.2343  0.1336  0.0642
 2288SOL    HW1 8464   2.342   1.540   3.447 -0.7616 -2.2176  0.6942
 2288SOL    HW2 8465   2.275   1.516   3.594  1.4915  0.5080  2.2682
 2289SOL     OW 8466   0.705   2.482   0.013  0.2312  0.1085 -0.1663
 2289SOL    HW1 8467   0.726   2.429  -0.069 -0.3397 -2.9073  1.4952
 2289SOL    HW2 8468   0.790   2.514   0.055  0.6915 -0.5893 -0.5584
 2290SOL     OW 8469   6.205   3.508   4.095 -0.3428  0.3448  0.4819
 2290SOL    HW1 8470   6.183   3.429   4.152 -0.0766  1.0283  1.5550
 2290SOL    HW2 8471   6.305   3.515   4.085 -0.4118 -0.5515 -1.2243
 2291SOL     OW 8472   1.815   3.077   3.570 -0.3299 -0.2208  0.6938
 2291SOL    HW1 8473   1.890   3.097   3.508 -1.3212 -1.6137 -1.0386
 2291SOL    HW2 8474   1.828   2.986   3.609 -1.2275 -0.5859  0.1671
 2292SOL     OW 8475   6.755   1.854   4.528  0.1556 -0.4686 -0.0731
 2292SOL    HW1 8476   6.686   1.903   4.473 -0.6974 -1.7135 -0.1443
 2292SOL    HW2 8477   6.824   1.919   4.560 -0.8178  0.7422 -0.3595
 2293SOL     OW 8478   5.546   2.525   4.102 -0.5655  0.0047  0.2327
 2293SOL    HW1 8479   5.607   2.457   4.061 -1.4433  0.1478 -1.4355
 2293SOL    HW2 8480   5.588   2.615   4.095 -0.5683 -0.0158 -0.0909
 2294SOL     OW 8481   4.691   5.319   4.800 -0.0957 -0.3751  0.9687
 2294SOL    HW1 8482   4.606   5.277   4.767 -0.3995  0.5027  0.6088
 2294SOL    HW2 8483   4.685   5.418   4.790 -0.5088  0.0724  4.3016
 2295SOL     OW 8484   4.320   2.951   6.735  0.1846 -0.6591 -0.2233
 2295SOL    HW1 8485   4.348   2.869   6.786 -0.5318 -1.2314 -0.7228
 2295SOL    HW2 8486   4.399   2.989   6.686  0.7808 -0.3539  0.9491
 2296SOL     OW 8487   3.023   4.457   5.324 -0.9679 -0.0292  0.2143
 2296SOL    HW1 8488   2.982   4.521   5.389  0.7629 -0.5239  1.8641
 2296SOL    HW2 8489   3.099   4.501   5.277  0.7393 -1.0164  1.9224
 2297SOL     OW 8490   3.916   6.186   5.658 -0.1792  0.4476 -0.4943
 2297SOL    HW1 8491   3.917   6.106   5.597  1.7840 -0.1238  0.1818
 2297SOL    HW2 8492   4.002   6.236   5.647 -1.3330  2.4619 -0.8219
 2298SOL     OW 8493   4.125   2.258   1.220 -0.3793 -0.0907 -0.4033
 2298SOL    HW1 8494   4.225   2.261   1.229 -0.4474  1.1829  0.2494
 2298SOL    HW2 8495   4.086   2.344   1.253 -1.8932 -1.5584  2.0379
 2299SOL     OW 8496   3.035   0.746   2.117  0.4275  0.0625 -0.3150
 2299SOL    HW1 8497   3.134   0.736   2.126  0.3134 -1.1622 -0.1703
 2299SOL    HW2 8498   2.989   0.679   2.176 -0.4912  0.8607 -0.0997
 2300SOL     OW 8499   1.848   1.095   3.608  0.7554  0.4513 -0.3220
 2300SOL    HW1 8500   1.947   1.087   3.617  0.7061  0.6616  0.4809
 2300SOL    HW2 8501   1.825   1.184   3.568  0.9792 -0.4956 -2.7012
 2301SOL     OW 8502   2.053   6.249   5.816  0.0242 -0.1297  0.1839
 2301SOL    HW1 8503   2.149   6.275   5.831 -0.2755  0.7264  0.7011
 2301SOL    HW2 8504   2.005   6.249   5.904 -0.0344 -2.4007  0.2197
 2302SOL     OW 8505   4.929   6.214   6.426  0.0561 -0.1274 -0.3001
 2302SOL    HW1 8506   4.849   6.200   6.368  1.6878 -1.2451 -2.4649
 2302SOL    HW2 8507   4.968   6.125   6.452  0.4505  0.3867  0.9379
 2303SOL     OW 8508   0.795   4.715   0.028  0.0848  0.8106 -0.1213
 2303SOL    HW1 8509   0.827   4.700  -0.065 -0.1177  2.0689 -0.4090
 2303SOL    HW2 8510   0.855   4.782   0.073 -2.5111  3.9490 -0.9710
 2304SOL     OW 8511   2.432   5.473   4.434 -0.4714 -0.4947 -0.4176
 2304SOL    HW1 8512   2.358   5.522   4.479 -0.3716 -0.5176 -0.2306
 2304SOL    HW2 8513   2.394   5.408   4.368 -0.5928  0.1166 -0.9621
 2305SOL     OW 8514   4.735   3.949   5.597 -0.5377  0.0042 -0.4250
 2305SOL    HW1 8515   4.812   3.905   5.551  1.1861  0.2407  1.9970
 2305SOL    HW2 8516   4.654   3.892   5.589  0.2429 -0.9767 -1.8343
 2306SOL     OW 8517   0.809   1.772   6.036 -0.1750 -0.0144  0.1582
 2306SOL    HW1 8518   0.709   1.768   6.040 -0.1516  0.1989  1.3316
 2306SOL    HW2 8519   0.845   1.682   6.011 -0.6456 -0.2098  0.1740
 2307SOL     OW 8520   2.350   1.609   6.838  0.4123 -0.2075  0.2038
 2307SOL    HW1 8521   2.309   1.565   6.918  0.1854 -3.0720 -1.3451
 2307SOL    HW2 8522   2.298   1.583   6.756  1.4304  1.5194 -1.0443
 2308SOL     OW 8523   5.602   4.081   0.579  0.2810  0.4439 -0.1079
 2308SOL    HW1 8524   5.626   4.178   0.580 -0.1498  0.5855  1.9757
 2308SOL    HW2 8525   5.682   4.027   0.606  0.4693  0.2196 -1.0851
 2309SOL     OW 8526   6.778   4.975   4.987  0.1098  0.2193 -0.2884
 2309SOL    HW1 8527   6.709   4.904   4.979  1.1522 -0.7558 -0.8253
 2309SOL    HW2 8528   6.769   5.021   5.076 -0.6136 -0.5356  0.0312
 2310SOL     OW 8529   1.723   1.404   0.812 -0.4268  0.3166  0.1552
 2310SOL    HW1 8530   1.626   1.423   0.798 -0.0658  1.5683 -0.7017
 2310SOL    HW2 8531   1.778   1.478   0.775  0.8896 -0.5890  0.2236
 2311SOL     OW 8532   3.241   6.325   6.804  0.4675  0.5193  0.1019
 2311SOL    HW1 8533   3.290   6.411   6.790  1.1280  0.0068 -0.8928
 2311SOL    HW2 8534   3.287   6.252   6.753  0.8073 -0.7514  2.1160
 2312SOL     OW 8535   0.272   2.440   1.918  0.3021 -0.1935  0.7081
 2312SOL    HW1 8536   0.342   2.477   1.978 -0.8870  1.1085  1.3762
 2312SOL    HW2 8537   0.219   2.516   1.879 -1.5683 -1.1439  1.2769
 2313SOL     OW 8538   1.568   2.706   0.780  0.0158  0.0662  0.3717
 2313SOL    HW1 8539   1.475   2.704   0.815 -0.1755  1.2950 -0.0118
 2313SOL    HW2 8540   1.569   2.672   0.686 -0.0721  0.1546  0.3383
 2314SOL     OW 8541   5.278   2.521   6.758 -0.3180 -1.1441  0.1808
 2314SOL    HW1 8542   5.221   2.548   6.836  0.2349  3.6844 -0.7740
 2314SOL    HW2 8543   5.221   2.516   6.676 -0.0919 -0.5843 -0.0187
 2315SOL     OW 8544   2.363   5.220   4.378  0.7443  0.2069 -0.3133
 2315SOL    HW1 8545   2.310   5.170   4.446 -0.3194 -0.7338 -1.7739
 2315SOL    HW2 8546   2.450   5.174   4.363  1.3070  0.8371  0.9205
 2316SOL     OW 8547   1.441   4.406   5.751  0.9889  0.4185  0.1099
 2316SOL    HW1 8548   1.430   4.420   5.653  1.6398 -0.0613 -0.0406
 2316SOL    HW2 8549   1.389   4.475   5.801  0.5141  0.5596 -0.5696
 2317SOL     OW 8550   0.695   4.425   4.889  0.4936 -0.1504 -0.1360
 2317SOL    HW1 8551   0.664   4.435   4.984 -0.7143  0.4334 -0.5656
 2317SOL    HW2 8552   0.645   4.350   4.846 -1.6625  1.8337 -1.3207
 2318SOL     OW 8553   0.299   6.711   1.513 -0.1592  0.2666  0.2014
 2318SOL    HW1 8554   0.348   6.630   1.545 -0.5289 -0.3645 -0.7831
 2318SOL    HW2 8555   0.201   6.690   1.508 -0.0821  0.1966 -1.6990
 2319SOL     OW 8556   5.628   2.554   2.795  0.6273  0.5341  0.5552
 2319SOL    HW1 8557   5.655   2.605   2.713  0.8510  1.5385  1.2352
 2319SOL    HW2 8558   5.556   2.604   2.843  1.3198  0.5549  1.5996
 2320SOL     OW 8559   0.230   6.387   3.153 -0.1457  0.0964 -0.7298
 2320SOL    HW1 8560   0.222   6.298   3.197 -0.8915 -0.6508 -2.2979
 2320SOL    HW2 8561   0.228   6.375   3.053  0.4490  1.8069 -0.9754
 2321SOL     OW 8562   4.226   6.490   3.108  1.1875  0.6812 -0.0591
 2321SOL    HW1 8563   4.141   6.474   3.159  1.4878 -0.0282  0.2343
 2321SOL    HW2 8564   4.256   6.405   3.066  1.7045  0.9485 -0.2382
 2322SOL     OW 8565   6.364   1.145   5.267  0.5912  0.3532 -0.7080
 2322SOL    HW1 8566   6.461   1.164   5.254  0.7878 -0.3273 -0.3055
 2322SOL    HW2 8567   6.354   1.065   5.326 -0.2181  1.7700  1.1737
 2323SOL     OW 8568   1.445   3.244   2.009  0.0157  0.0590 -0.1889
 2323SOL    HW1 8569   1.403   3.228   1.919  0.1363 -0.8277 -0.0996
 2323SOL    HW2 8570   1.542   3.266   1.997  0.0158  0.0116 -0.2782
 2324SOL     OW 8571   4.987   0.156   3.770  0.0477 -0.3548 -0.1092
 2324SOL    HW1 8572   4.891   0.145   3.794  0.7446 -0.3167  3.0225
 2324SOL    HW2 8573   5.004   0.251   3.745 -0.5429 -0.1673  0.1909
 2325SOL     OW 8574   6.213   6.750   0.858  0.0194 -0.2039 -0.3202
 2325SOL    HW1 8575   6.217   6.689   0.937  2.8099  0.4976  0.1894
 2325SOL    HW2 8576   6.160   6.831   0.880 -2.8846 -1.8579 -0.6773
 2326SOL     OW 8577   1.914   1.474   2.049  0.8682 -0.0967  0.6984
 2326SOL    HW1 8578   1.964   1.452   2.132 -1.0957 -0.2871  1.9091
 2326SOL    HW2 8579   1.958   1.432   1.971  1.8759 -1.2646  1.8526
 2327SOL     OW 8580   3.713   1.482   4.356 -0.1543 -0.7942  0.4173
 2327SOL    HW1 8581   3.705   1.450   4.451  0.7826  1.1043  1.1809
 2327SOL    HW2 8582   3.797   1.534   4.346 -2.0253  2.2892 -0.4465
 2328SOL     OW 8583   2.078   2.450   6.557  0.0591 -0.2096 -0.2900
 2328SOL    HW1 8584   2.174   2.476   6.543  0.0391  0.3437  0.5173
 2328SOL    HW2 8585   2.070   2.397   6.641 -0.5253  0.8943  0.3721
 2329SOL     OW 8586   3.944   0.272   2.667 -0.5002  0.4460  0.2184
 2329SOL    HW1 8587   3.979   0.324   2.745  0.4957  0.0693  0.0331
 2329SOL    HW2 8588   3.939   0.332   2.588  1.0441  0.2016 -0.1035
 2330SOL     OW 8589   2.530   5.959   6.578  0.7057  0.0893 -0.2633
 2330SOL    HW1 8590   2.627   5.940   6.563  1.2958  2.9057 -0.5759
 2330SOL    HW2 8591   2.511   5.964   6.676  0.4699 -1.9286 -0.1488
 2331SOL     OW 8592   0.987   3.994   4.814  0.0546 -0.4224 -0.1074
 2331SOL    HW1 8593   1.043   3.920   4.777  1.4963  0.6606 -0.1600
 2331SOL    HW2 8594   0.968   4.060   4.742  2.1434  1.2538  0.7850
 2332SOL     OW 8595   6.146   2.163   5.776  0.3425  0.0761  0.0597
 2332SOL    HW1 8596   6.161   2.069   5.804  0.5964  0.2703  0.5819
 2332SOL    HW2 8597   6.234   2.206   5.754  0.5207  0.9518  2.2695
 2333SOL     OW 8598   0.315   6.906   4.110 -0.1119  0.2571  0.3260
 2333SOL    HW1 8599   0.223   6.877   4.137 -0.3454  0.8524  0.1932
 2333SOL    HW2 8600   0.383   6.858   4.165 -0.5482  0.6674  1.2504
 2334SOL     OW 8601   4.495   2.650   4.586  0.3910 -0.4386 -0.7012
 2334SOL    HW1 8602   4.555   2.644   4.666 -2.1888 -0.3361  1.3722
 2334SOL    HW2 8603   4.504   2.567   4.531  0.7770 -1.4382  0.8079
 2335SOL     OW 8604   6.021   1.991   3.559 -0.2852 -0.3119 -0.2180
 2335SOL    HW1 8605   6.073   2.050   3.496  0.5426 -0.3063  0.4511
 2335SOL    HW2 8606   6.083   1.953   3.627 -0.6959 -2.3904 -0.9274
 2336SOL     OW 8607   6.917   3.424   6.220 -0.1027  0.1735 -0.1106
 2336SOL    HW1 8608   6.887   3.467   6.135  1.4390  0.4045 -0.5641
 2336SOL    HW2 8609   6.963   3.338   6.199  1.6639  0.9707  0.3342
 2337SOL     OW 8610   1.983   4.592   1.347 -0.1333  0.4082  0.0419
 2337SOL    HW1 8611   2.064   4.581   1.290 -0.1694 -0.1876  0.1017
 2337SOL    HW2 8612   1.965   4.689   1.361  0.5860  0.5428  0.0528
 2338SOL     OW 8613   1.534   1.082   2.295 -0.2821  0.2721  0.2178
 2338SOL    HW1 8614   1.478   1.162   2.313 -0.2126  1.3385 -3.4239
 2338SOL    HW2 8615   1.628   1.100   2.321 -0.7139  0.3556  1.7836
 2339SOL     OW 8616   5.822   2.624   0.627  0.0106  0.0875  0.0611
 2339SOL    HW1 8617   5.874   2.708   0.641  0.0191  0.2564 -0.8925
 2339SOL    HW2 8618   5.761   2.636   0.548 -1.6687 -0.0083  1.2722
 2340SOL     OW 8619   0.160   4.915   1.094  0.2764 -0.6729 -0.4083
 2340SOL    HW1 8620   0.113   4.982   1.036 -2.0836  0.6745  2.8096
 2340SOL    HW2 8621   0.242   4.957   1.132 -0.0132 -0.3729 -0.1112
 2341SOL     OW 8622   1.102   4.824   0.479 -0.1284  0.4341  0.3625
 2341SOL    HW1 8623   1.175   4.798   0.542  0.1358  1.7797  0.6478
 2341SOL    HW2 8624   1.135   4.895   0.417 -0.6795 -0.1976 -0.6730
 2342SOL     OW 8625   3.207   0.219   2.335 -0.2846 -0.4461  0.6189
 2342SOL    HW1 8626   3.232   0.123   2.339 -0.4882 -0.4891  0.9335
 2342SOL    HW2 8627   3.108   0.228   2.336 -0.3030 -0.2870 -0.9860
 2343SOL     OW 8628   0.718   2.970   2.254  0.2666 -0.2185 -0.4058
 2343SOL    HW1 8629   0.787   2.956   2.183  2.7555  0.5285  1.7485
 2343SOL    HW2 8630   0.715   2.890   2.314 -0.9717 -0.3337 -0.5742
 2344SOL     OW 8631   6.035   4.798   1.221 -0.5112  0.3804 -0.3258
 2344SOL    HW1 8632   6.020   4.744   1.304 -0.1281 -1.2955 -1.3171
 2344SOL    HW2 8633   5.977   4.880   1.225  0.2886  0.9323  2.0702
 2345SOL     OW 8634   2.120   4.398   0.862 -0.3045  0.2444 -0.6447
 2345SOL    HW1 8635   2.095   4.405   0.959  2.2250 -1.0794  0.2070
 2345SOL    HW2 8636   2.208   4.444   0.847 -0.4934  0.1371 -2.2446
 2346SOL     OW 8637   4.576   5.360   6.324  0.3377  0.4220  0.8078
 2346SOL    HW1 8638   4.673   5.379   6.340  0.1551  1.1198  1.1269
 2346SOL    HW2 8639   4.533   5.440   6.282  0.2654 -0.4992 -0.9840
 2347SOL     OW 8640   2.465   3.972   6.005 -0.0003 -0.1899  0.0324
 2347SOL    HW1 8641   2.562   3.949   5.997  0.2077  0.9329 -1.0712
 2347SOL    HW2 8642   2.441   3.987   6.101  0.8231 -0.8230  0.3461
 2348SOL     OW 8643   3.676   2.006   6.315  0.2752  0.2376 -0.0305
 2348SOL    HW1 8644   3.704   1.995   6.411  4.4349  0.3628 -1.0451
 2348SOL    HW2 8645   3.658   1.916   6.276 -2.8466  0.2552  1.0810
 2349SOL     OW 8646   6.975   2.037   5.369  0.2547 -0.1636  0.0259
 2349SOL    HW1 8647   7.036   2.093   5.427  0.5480 -0.9244  0.4706
 2349SOL    HW2 8648   6.908   1.991   5.427 -1.4689  1.5034 -0.5642
 2350SOL     OW 8649   4.657   3.027   5.857  0.0463 -0.6162  0.4832
 2350SOL    HW1 8650   4.646   3.121   5.824  2.6625 -0.4643 -0.1547
 2350SOL    HW2 8651   4.666   3.028   5.957  1.1203 -0.0502  0.3913
 2351SOL     OW 8652   5.978   2.009   0.569 -0.1758 -0.1771 -0.4001
 2351SOL    HW1 8653   5.975   1.928   0.628 -0.6326 -0.8635 -1.3271
 2351SOL    HW2 8654   5.995   2.090   0.624 -1.7161 -0.6332  0.8428
 2352SOL     OW 8655   4.247   3.160   5.892 -0.5332  0.0842 -0.3410
 2352SOL    HW1 8656   4.293   3.195   5.811  1.2723 -0.3931  0.4344
 2352SOL    HW2 8657   4.226   3.063   5.880  1.5718 -0.5293  0.4692
 2353SOL     OW 8658   5.353   4.996   0.613  0.1641  0.4733  0.0289
 2353SOL    HW1 8659   5.313   4.965   0.527 -2.1679  0.3078  1.1102
 2353SOL    HW2 8660   5.314   4.945   0.689  3.0592 -0.2416  1.1697
 2354SOL     OW 8661   0.875   0.853   2.620 -0.4753  0.1790 -0.1899
 2354SOL    HW1 8662   0.876   0.757   2.589  0.1222  0.3887 -0.8357
 2354SOL    HW2 8663   0.954   0.870   2.679 -0.4033  0.3634 -0.3402
 2355SOL     OW 8664   6.564   3.486   0.573  0.1526  0.0546 -0.3034
 2355SOL    HW1 8665   6.636   3.555   0.567  0.2052 -0.0349 -0.7519
 2355SOL    HW2 8666   6.589   3.418   0.641  1.3769 -0.9816 -1.7132
 2356SOL     OW 8667   3.555   6.825   6.786  0.0785  0.3251  0.1482
 2356SOL    HW1 8668   3.481   6.865   6.839  1.0914  0.6507  1.3715
 2356SOL    HW2 8669   3.635   6.813   6.845  1.0313  0.0709 -1.1534
 2357SOL     OW 8670   2.844   5.871   2.946 -0.2450 -0.1545  0.3113
 2357SOL    HW1 8671   2.815   5.837   3.036  1.0775  0.3634  0.9587
 2357SOL    HW2 8672   2.867   5.794   2.887  2.2572 -0.4990  1.5987
 2358SOL     OW 8673   4.021   3.843   3.029  0.4356 -0.3145  0.1068
 2358SOL    HW1 8674   3.947   3.851   3.096 -0.8203  4.2434 -1.4402
 2358SOL    HW2 8675   4.101   3.893   3.061  1.4971 -1.9506  0.0934
 2359SOL     OW 8676   2.308   5.752   3.343 -0.1478  0.3563  0.1248
 2359SOL    HW1 8677   2.283   5.803   3.425 -1.1069  0.6719 -0.3433
 2359SOL    HW2 8678   2.405   5.731   3.345 -0.3047 -0.3641  1.7321
 2360SOL     OW 8679   0.669   1.048   1.393  0.3853 -0.1106 -0.4296
 2360SOL    HW1 8680   0.600   1.118   1.411  0.9768  0.5492 -0.6663
 2360SOL    HW2 8681   0.666   0.979   1.465  0.6505  0.8513  0.5477
 2361SOL     OW 8682   0.063   5.901   3.539  0.0821 -0.1430 -0.4237
 2361SOL    HW1 8683   0.143   5.901   3.479  0.4537 -0.3066  0.0562
 2361SOL    HW2 8684  -0.016   5.939   3.491  0.6029  0.6108 -0.7036
 2362SOL     OW 8685   4.960   0.698   5.983 -0.4751  0.2001 -0.3092
 2362SOL    HW1 8686   5.055   0.666   5.978 -0.9613 -1.4286  0.0026
 2362SOL    HW2 8687   4.934   0.742   5.898  0.3515  0.0342 -0.6537
 2363SOL     OW 8688   2.332   1.101   2.435 -0.1571 -0.2370 -0.1929
 2363SOL    HW1 8689   2.373   1.143   2.516 -1.3572 -0.6336  0.6465
 2363SOL    HW2 8690   2.367   1.009   2.424 -1.7348 -1.0756  1.3053
 2364SOL     OW 8691   6.175   5.566   6.276  0.0437 -0.3538  0.0179
 2364SOL    HW1 8692   6.219   5.609   6.197 -0.2783 -1.2800 -0.6793
 2364SOL    HW2 8693   6.245   5.539   6.342  0.2068  1.9319  0.8589
 2365SOL     OW 8694   5.305   0.842   2.270 -0.1670  0.0205 -0.3511
 2365SOL    HW1 8695   5.227   0.876   2.324 -0.1467  0.2260 -0.4485
 2365SOL    HW2 8696   5.275   0.822   2.177  0.1969  1.5403 -0.8338
 2366SOL     OW 8697   5.472   4.295   4.026  0.3884  0.4603 -0.2906
 2366SOL    HW1 8698   5.471   4.359   3.950 -0.5511  0.2665 -0.4593
 2366SOL    HW2 8699   5.544   4.320   4.091  0.9206  0.8688 -1.0286
 2367SOL     OW 8700   4.280   3.243   5.165 -0.2395  0.3952 -0.0412
 2367SOL    HW1 8701   4.328   3.289   5.090  0.6555 -0.4037  0.0149
 2367SOL    HW2 8702   4.245   3.311   5.229  1.2888  1.0118  0.1900
 2368SOL     OW 8703   4.608   1.284   2.484  0.1731  0.9390 -0.4159
 2368SOL    HW1 8704   4.623   1.231   2.400  2.3203  1.3606 -0.3609
 2368SOL    HW2 8705   4.682   1.350   2.495 -0.0405  0.8724  1.8408
 2369SOL     OW 8706   0.897   1.824   6.850 -0.6832 -0.1437  0.5250
 2369SOL    HW1 8707   0.872   1.769   6.769 -0.1134 -1.4178  1.1854
 2369SOL    HW2 8708   0.898   1.765   6.931  0.3745  0.7643  1.1943
 2370SOL     OW 8709   5.969   1.370   6.397  0.2394 -0.1832 -0.4311
 2370SOL    HW1 8710   5.920   1.283   6.393  0.3965 -0.3560  1.0210
 2370SOL    HW2 8711   6.051   1.359   6.454 -0.9229  1.4787  1.6555
 2371SOL     OW 8712   2.369   4.612   4.856  0.4748  0.3763 -0.1918
 2371SOL    HW1 8713   2.407   4.539   4.913  0.2638  1.2257  1.0816
 2371SOL    HW2 8714   2.270   4.604   4.854  0.5493 -0.7551 -2.0251
 2372SOL     OW 8715   6.650   2.938   0.292  0.1844  0.2160 -0.2584
 2372SOL    HW1 8716   6.644   2.974   0.199  1.0654 -1.0247 -0.8186
 2372SOL    HW2 8717   6.733   2.883   0.302  0.4403  0.8465  1.4547
 2373SOL     OW 8718   0.965   3.209   0.106  1.1023 -0.5430 -0.2693
 2373SOL    HW1 8719   0.911   3.125   0.108  0.5781 -0.2020  0.7647
 2373SOL    HW2 8720   1.027   3.209   0.185  1.9038 -0.4650 -0.8891
 2374SOL     OW 8721   5.491   0.055   3.317 -0.0171  0.2680 -0.2097
 2374SOL    HW1 8722   5.462   0.097   3.403  1.0586 -1.8361  1.2721
 2374SOL    HW2 8723   5.411   0.031   3.262 -0.6889  2.5173 -0.3081
 2375SOL     OW 8724   1.867   4.989   3.733 -0.3296  0.1307 -0.4901
 2375SOL    HW1 8725   1.810   4.918   3.692 -0.7542 -0.4866  1.0807
 2375SOL    HW2 8726   1.833   5.010   3.825  1.1960  0.6955 -0.0217
 2376SOL     OW 8727   6.172   5.807   6.903 -0.1593 -0.7475 -0.6995
 2376SOL    HW1 8728   6.180   5.778   6.808 -0.8839 -1.5340 -0.5424
 2376SOL    HW2 8729   6.176   5.726   6.963  2.2138 -0.1186  0.1015
 2377SOL     OW 8730   4.124   4.820   2.633 -0.3614  0.0965  0.5599
 2377SOL    HW1 8731   4.222   4.802   2.619 -0.5285 -0.9108  0.6357
 2377SOL    HW2 8732   4.084   4.853   2.548 -0.2049 -0.6729  0.1752
 2378SOL     OW 8733   0.564   4.969   5.627 -0.0426  0.5001 -1.2033
 2378SOL    HW1 8734   0.608   5.045   5.675  1.7790  0.0545 -2.0676
 2378SOL    HW2 8735   0.471   4.995   5.602 -1.0459  0.8345  2.2845
 2379SOL     OW 8736   0.839   2.178   2.131 -0.2739 -0.2335 -0.0868
 2379SOL    HW1 8737   0.810   2.157   2.225 -0.6307 -0.9387 -0.3506
 2379SOL    HW2 8738   0.766   2.152   2.068  0.3097 -0.5457 -0.6311
 2380SOL     OW 8739   3.817   5.081   3.276 -0.2025  0.1784 -0.3329
 2380SOL    HW1 8740   3.908   5.039   3.283 -0.7418 -0.7810  2.8185
 2380SOL    HW2 8741   3.756   5.018   3.228  0.2745 -0.2504 -0.3927
 2381SOL     OW 8742   6.397   5.521   0.398  0.0176  0.0734  0.5351
 2381SOL    HW1 8743   6.394   5.615   0.366 -0.4755  0.2740  1.1582
 2381SOL    HW2 8744   6.487   5.500   0.435  0.6377 -0.1900 -1.0276
 2382SOL     OW 8745   2.099   1.638   3.112  0.0509 -0.2940 -0.3674
 2382SOL    HW1 8746   2.137   1.726   3.086 -1.4595  0.5639  0.1687
 2382SOL    HW2 8747   2.054   1.596   3.033 -1.7893  0.8390  0.0035
 2383SOL     OW 8748   5.698   1.193   6.665 -0.4418  0.0960 -0.0224
 2383SOL    HW1 8749   5.632   1.224   6.733 -0.5402  0.5203 -0.3076
 2383SOL    HW2 8750   5.650   1.167   6.581 -0.2942 -0.1128 -0.0442
 2384SOL     OW 8751   5.382   0.174   4.386 -0.5396  0.1361  0.3655
 2384SOL    HW1 8752   5.433   0.238   4.444 -0.0617 -1.1414  1.4045
 2384SOL    HW2 8753   5.446   0.110   4.343 -1.1583 -1.1188  1.2217
 2385SOL     OW 8754   1.242   0.946   2.007 -0.4232  0.2384  0.1147
 2385SOL    HW1 8755   1.277   1.039   2.016  1.0869 -0.2671 -0.2664
 2385SOL    HW2 8756   1.167   0.932   2.072  0.6656  1.1026  1.6025
 2386SOL     OW 8757   2.382   6.009   1.938 -0.3159  0.0763  0.7048
 2386SOL    HW1 8758   2.479   6.017   1.915 -0.5180 -1.5207 -0.8644
 2386SOL    HW2 8759   2.335   6.094   1.914  0.5718  0.6855  1.0313
 2387SOL     OW 8760   5.746   2.512   3.429  0.5465 -0.0508  0.5110
 2387SOL    HW1 8761   5.647   2.515   3.442  0.3350  1.1176 -1.0797
 2387SOL    HW2 8762   5.791   2.503   3.518 -0.9839 -1.4470  1.1954
 2388SOL     OW 8763   3.293   4.969   4.318  0.2769  0.6930  0.2563
 2388SOL    HW1 8764   3.326   4.924   4.401 -4.2704  1.2420  2.6546
 2388SOL    HW2 8765   3.258   4.900   4.254  1.6596  0.4163 -0.2388
 2389SOL     OW 8766   2.893   5.404   4.919 -0.8049 -0.7846 -0.2923
 2389SOL    HW1 8767   2.968   5.373   4.862  0.8518  1.3553  0.5932
 2389SOL    HW2 8768   2.828   5.457   4.865  1.2537  2.0644 -0.1568
 2390SOL     OW 8769   1.953   6.574   5.317  0.5173  0.0931 -0.0794
 2390SOL    HW1 8770   1.924   6.486   5.353  1.4534 -0.1277  0.1503
 2390SOL    HW2 8771   1.875   6.620   5.274  0.6121 -2.0950 -2.8467
 2391SOL     OW 8772   1.639   2.469   1.808 -0.2094 -0.2689  0.1726
 2391SOL    HW1 8773   1.613   2.469   1.711  0.4814  0.5438 -0.0260
 2391SOL    HW2 8774   1.677   2.380   1.832 -1.9959 -1.0876  0.1727
 2392SOL     OW 8775   2.438   0.850   6.181 -0.2013  0.7488  0.3361
 2392SOL    HW1 8776   2.368   0.828   6.113 -0.8368 -0.0578  1.2183
 2392SOL    HW2 8777   2.504   0.776   6.187  3.2185  3.1020 -3.3655
 2393SOL     OW 8778   2.208   6.801   5.184  0.1566  0.1985  0.3968
 2393SOL    HW1 8779   2.183   6.706   5.199 -0.4161 -0.0543 -1.7680
 2393SOL    HW2 8780   2.308   6.810   5.184  0.2026 -0.2572  1.3271
 2394SOL     OW 8781   4.993   2.170   5.649  0.5230 -0.0638 -0.0528
 2394SOL    HW1 8782   4.895   2.185   5.654  0.4044 -0.4865 -0.9712
 2394SOL    HW2 8783   5.011   2.074   5.626  1.1344  0.1960 -0.7035
 2395SOL     OW 8784   3.839   5.817   0.246  0.0481 -0.3264  0.7015
 2395SOL    HW1 8785   3.798   5.727   0.243 -1.6338  0.4179 -1.7792
 2395SOL    HW2 8786   3.772   5.884   0.279  0.3847  0.4025 -0.0515
 2396SOL     OW 8787   3.076   4.911   0.576 -0.5233  0.4693 -0.0999
 2396SOL    HW1 8788   2.978   4.931   0.572 -0.5895  0.8195  1.9743
 2396SOL    HW2 8789   3.128   4.996   0.569 -0.4273  0.4155 -0.0470
 2397SOL     OW 8790   3.433   2.009   1.670 -0.1705  0.2562  0.2078
 2397SOL    HW1 8791   3.421   2.076   1.743  1.1681 -0.2713  0.9702
 2397SOL    HW2 8792   3.526   2.017   1.633  0.2597 -1.5561  0.7737
 2398SOL     OW 8793   3.030   5.515   4.633  0.2339  0.5698  0.1088
 2398SOL    HW1 8794   3.057   5.426   4.670 -2.8221 -0.1363  0.9379
 2398SOL    HW2 8795   3.019   5.509   4.534  0.5523  0.1992  0.0948
 2399SOL     OW 8796   5.391   1.124   5.071 -0.1858  0.0292 -0.3049
 2399SOL    HW1 8797   5.331   1.198   5.041 -0.8353  0.5876  2.1887
 2399SOL    HW2 8798   5.366   1.040   5.023 -0.3910  1.0608 -2.1068
 2400SOL     OW 8799   2.678   1.848   1.063 -0.1955 -0.3187 -0.4155
 2400SOL    HW1 8800   2.638   1.756   1.065 -0.4061 -0.2362 -0.7435
 2400SOL    HW2 8801   2.721   1.867   1.152 -2.6774  0.3831  0.7267
 2401SOL     OW 8802   0.210   2.852   3.341  0.3442  0.3290 -0.2127
 2401SOL    HW1 8803   0.134   2.879   3.282  0.9647  0.5958 -0.9112
 2401SOL    HW2 8804   0.293   2.898   3.310  0.8709 -0.2819  0.2816
 2402SOL     OW 8805   5.591   5.516   3.874 -0.0981  0.4934 -0.0189
 2402SOL    HW1 8806   5.572   5.422   3.843  2.5636 -0.1560  0.0805
 2402SOL    HW2 8807   5.582   5.521   3.973 -0.7288  0.5071 -0.0681
 2403SOL     OW 8808   1.327   1.923   2.615  0.0510 -0.3798  0.4122
 2403SOL    HW1 8809   1.404   1.926   2.679  0.5265 -2.0188 -0.0296
 2403SOL    HW2 8810   1.252   1.870   2.656 -0.1685 -0.2704  0.1561
 2404SOL     OW 8811   1.264   3.031   0.541 -0.5717  0.0541  0.0478
 2404SOL    HW1 8812   1.261   2.961   0.612  1.7262  1.2415  1.4280
 2404SOL    HW2 8813   1.199   3.104   0.563 -1.3649 -0.5503 -0.2238
 2405SOL     OW 8814   5.875   2.407   2.040  0.6451 -0.0982  0.2474
 2405SOL    HW1 8815   5.799   2.346   2.016 -0.2206  1.6667 -1.8750
 2405SOL    HW2 8816   5.866   2.436   2.135 -0.7834 -0.7069  0.3292
 2406SOL     OW 8817   0.031   6.767   1.653 -0.0658  0.3506 -0.1163
 2406SOL    HW1 8818   0.045   6.702   1.727 -1.2708  0.5707  0.3196
 2406SOL    HW2 8819  -0.036   6.730   1.589 -1.8667  1.7316  0.8853
 2407SOL     OW 8820   4.955   1.539   2.196  0.5581 -0.3230 -0.6496
 2407SOL    HW1 8821   4.962   1.441   2.179 -1.7091 -0.9144  1.3278
 2407SOL    HW2 8822   4.875   1.576   2.150 -1.0930 -0.3802  1.9449
 2408SOL     OW 8823   5.507   5.304   2.421  0.1072 -0.7666 -0.1236
 2408SOL    HW1 8824   5.489   5.275   2.516 -0.3936 -0.8215 -0.2308
 2408SOL    HW2 8825   5.421   5.330   2.378  0.5135  0.6607 -0.1157
 2409SOL     OW 8826   0.673   2.475   5.699 -0.0667 -0.1701  0.4460
 2409SOL    HW1 8827   0.762   2.436   5.723  0.8627  0.7335 -1.3367
 2409SOL    HW2 8828   0.677   2.575   5.705 -1.4725 -0.1554  1.8889
 2410SOL     OW 8829   2.450   0.386   2.912 -0.1744 -0.0200 -0.2223
 2410SOL    HW1 8830   2.526   0.324   2.932  0.8326  0.9563 -0.9136
 2410SOL    HW2 8831   2.364   0.340   2.933  0.6075 -0.9598  1.1270
 2411SOL     OW 8832   5.629   0.134   1.649  0.5350 -0.3255 -0.0897
 2411SOL    HW1 8833   5.683   0.182   1.719  1.5340 -2.2009  0.4923
 2411SOL    HW2 8834   5.583   0.201   1.591  2.1981  1.3464  0.4117
 2412SOL     OW 8835   5.493   6.513   5.942 -0.0069 -0.2280  0.3634
 2412SOL    HW1 8836   5.487   6.608   5.914 -2.4375 -0.5136 -0.3181
 2412SOL    HW2 8837   5.416   6.462   5.904 -0.4195 -1.8431  3.1289
 2413SOL     OW 8838   3.734   0.749   2.210  0.0403  0.0639  0.0922
 2413SOL    HW1 8839   3.770   0.793   2.292  1.1743 -1.1385  0.2659
 2413SOL    HW2 8840   3.642   0.784   2.191 -0.5642 -0.1768  2.3123
 2414SOL     OW 8841   0.229   1.823   0.657 -0.2346 -0.2059  0.0400
 2414SOL    HW1 8842   0.254   1.901   0.599  0.0070 -0.0477  0.3504
 2414SOL    HW2 8843   0.159   1.769   0.612  1.1618 -1.0586 -1.2004
 2415SOL     OW 8844   3.250   4.617   1.696  0.5597 -0.3006 -0.2237
 2415SOL    HW1 8845   3.187   4.646   1.768  1.0496 -1.2997  0.6519
 2415SOL    HW2 8846   3.286   4.697   1.649  1.9171  0.5976  2.1375
 2416SOL     OW 8847   5.295   4.129   2.882  0.1075  0.5296  0.4395
 2416SOL    HW1 8848   5.267   4.094   2.971  1.7054 -2.0006  0.0566
 2416SOL    HW2 8849   5.395   4.122   2.873 -0.0809 -0.1054 -1.8335
 2417SOL     OW 8850   4.744   0.066   6.692 -0.3043  0.3363  0.7406
 2417SOL    HW1 8851   4.765   0.126   6.769 -0.3099 -0.7011  1.5670
 2417SOL    HW2 8852   4.765  -0.029   6.716 -0.5596 -0.0414 -0.4418
 2418SOL     OW 8853   1.927   3.813   2.859 -0.4714  0.4443 -0.4789
 2418SOL    HW1 8854   2.019   3.809   2.897 -0.2042  1.8254 -0.9237
 2418SOL    HW2 8855   1.887   3.903   2.876 -1.4300  0.1287 -0.9773
 2419SOL     OW 8856   5.111   4.756   6.895 -0.0900 -0.6217 -0.3784
 2419SOL    HW1 8857   5.098   4.719   6.803 -3.1227 -0.8210  0.0222
 2419SOL    HW2 8858   5.085   4.686   6.963 -0.3439  0.3411  0.5395
 2420SOL     OW 8859   0.043   6.104   5.948 -0.0383  0.8572  0.2680
 2420SOL    HW1 8860  -0.037   6.159   5.924 -0.4690 -0.0810 -0.5197
 2420SOL    HW2 8861   0.022   6.047   6.027 -0.0723  0.7832  0.2059
 2421SOL     OW 8862   3.743   2.700   1.195  0.3352 -0.3466  0.1567
 2421SOL    HW1 8863   3.777   2.734   1.283  1.8592 -2.0359  0.2788
 2421SOL    HW2 8864   3.643   2.700   1.195  0.3042 -0.6564  2.0220
 2422SOL     OW 8865   1.826   3.321   0.433 -0.3484 -0.1650 -0.2210
 2422SOL    HW1 8866   1.757   3.296   0.365 -1.5448 -0.2864  0.9764
 2422SOL    HW2 8867   1.802   3.279   0.521  0.4688  0.9770  0.5712
 2423SOL     OW 8868   0.307   3.760   5.607  0.4095 -0.0647 -0.4764
 2423SOL    HW1 8869   0.340   3.849   5.575  3.5438 -0.6608  0.7460
 2423SOL    HW2 8870   0.317   3.693   5.533  1.0236 -0.0304 -0.4273
 2424SOL     OW 8871   2.446   1.511   0.453  0.4204  0.8228  0.0094
 2424SOL    HW1 8872   2.450   1.585   0.387  1.0155  0.0874 -0.7947
 2424SOL    HW2 8873   2.352   1.477   0.460  0.1546  1.6062  0.3492
 2425SOL     OW 8874   5.158   6.993   6.229  0.7061 -0.1206  0.1361
 2425SOL    HW1 8875   5.251   6.976   6.261  0.7088  1.3214  0.9645
 2425SOL    HW2 8876   5.095   6.992   6.307  0.2957  0.6735 -0.1678
 2426SOL     OW 8877   4.039   4.752   0.006 -0.2018  0.3604  0.3337
 2426SOL    HW1 8878   4.059   4.690   0.081  0.7716  0.4516  0.1619
 2426SOL    HW2 8879   4.038   4.847   0.040  0.0618  0.3873  0.2686
 2427SOL     OW 8880   4.973   5.162   2.761 -0.1329 -0.1413  0.0862
 2427SOL    HW1 8881   4.907   5.196   2.693  0.0183 -0.4639 -0.2230
 2427SOL    HW2 8882   5.062   5.204   2.743 -0.1386 -0.0770  0.2081
 2428SOL     OW 8883   1.283   0.392   3.664 -0.1621  0.3901  0.5896
 2428SOL    HW1 8884   1.287   0.485   3.626 -0.0033  0.8715  1.7526
 2428SOL    HW2 8885   1.318   0.328   3.597  1.0315  1.3347  0.2749
 2429SOL     OW 8886   0.519   4.467   2.471  0.2572 -0.5660  0.4358
 2429SOL    HW1 8887   0.524   4.378   2.426  0.1473  0.3598 -1.4932
 2429SOL    HW2 8888   0.499   4.454   2.568 -0.6340 -2.5985  0.0307
 2430SOL     OW 8889   2.722   5.277   2.945 -0.0345  0.4389 -0.0861
 2430SOL    HW1 8890   2.692   5.239   3.033  1.9141 -2.1881 -0.4429
 2430SOL    HW2 8891   2.816   5.310   2.953  0.3310 -0.2561 -1.2538
 2431SOL     OW 8892   5.101   3.011   6.327  0.0490  0.6234  0.2557
 2431SOL    HW1 8893   5.039   3.084   6.358 -1.4579 -0.8840  0.9601
 2431SOL    HW2 8894   5.151   2.975   6.405 -0.3275 -0.0967  0.1673
 2432SOL     OW 8895   3.887   1.491   6.422 -0.5920  0.5652  0.3034
 2432SOL    HW1 8896   3.915   1.416   6.362 -1.8349 -1.2368  1.8752
 2432SOL    HW2 8897   3.952   1.566   6.414  2.4101 -1.7933  0.8217
 2433SOL     OW 8898   6.039   1.482   5.873  0.1279 -1.1937  0.1365
 2433SOL    HW1 8899   5.956   1.526   5.840  0.6974 -0.0389  0.2019
 2433SOL    HW2 8900   6.067   1.523   5.960  1.2977 -0.8720 -0.3719
 2434SOL     OW 8901   5.043   3.905   4.050  0.2323  0.4049  0.0723
 2434SOL    HW1 8902   5.061   3.948   4.138  0.2586  0.3742  0.0819
 2434SOL    HW2 8903   4.946   3.915   4.028  0.3613  0.9937 -0.2122
 2435SOL     OW 8904   2.634   1.836   2.771  0.2801  0.1724 -0.2190
 2435SOL    HW1 8905   2.646   1.898   2.849 -0.2564 -0.3173  0.2632
 2435SOL    HW2 8906   2.589   1.885   2.696 -2.5408 -0.2493  1.0624
 2436SOL     OW 8907   3.469   1.652   4.415  0.2079 -0.0553  0.1924
 2436SOL    HW1 8908   3.563   1.622   4.401  0.0391 -1.2371  1.4113
 2436SOL    HW2 8909   3.433   1.613   4.499 -0.7729  1.8905  0.7518
 2437SOL     OW 8910   0.849   5.439   2.003  0.1341 -0.1165 -0.0052
 2437SOL    HW1 8911   0.880   5.416   1.911 -0.6695 -0.4187 -0.2072
 2437SOL    HW2 8912   0.816   5.356   2.048 -0.2309  0.1734  0.2604
 2438SOL     OW 8913   2.647   3.892   2.977  0.5673 -0.1699  0.3032
 2438SOL    HW1 8914   2.579   3.948   3.024  0.2642  0.4910 -0.8750
 2438SOL    HW2 8915   2.736   3.938   2.982  0.3731  0.3110 -0.4293
 2439SOL     OW 8916   2.050   6.726   4.421  0.8667 -0.1672  0.2401
 2439SOL    HW1 8917   2.089   6.653   4.478 -2.5679 -1.8509  0.6955
 2439SOL    HW2 8918   2.029   6.690   4.330  0.5004  0.6802 -0.0160
 2440SOL     OW 8919   0.620   4.847   4.154 -0.5325 -0.2738 -0.6342
 2440SOL    HW1 8920   0.639   4.922   4.218 -0.4439  0.6987 -1.7637
 2440SOL    HW2 8921   0.665   4.764   4.187 -1.9703 -0.2988  1.5156
 2441SOL     OW 8922   1.462   3.223   0.079  0.6761 -0.2233 -0.6185
 2441SOL    HW1 8923   1.426   3.133   0.053  1.6979 -0.5141 -1.0699
 2441SOL    HW2 8924   1.535   3.249   0.016  1.5541  0.1557  0.5349
 2442SOL     OW 8925   2.622   2.742   4.713 -0.7748 -0.2914 -0.1752
 2442SOL    HW1 8926   2.697   2.694   4.668 -1.6381 -1.5274 -0.3252
 2442SOL    HW2 8927   2.660   2.813   4.772  0.4352  0.8889 -2.2214
 2443SOL     OW 8928   6.606   2.719   5.463 -0.8348 -0.6044 -0.2460
 2443SOL    HW1 8929   6.524   2.766   5.432 -0.3314 -0.6122 -1.6300
 2443SOL    HW2 8930   6.646   2.666   5.388  0.2228 -0.9152  0.5014
 2444SOL     OW 8931   3.664   6.234   6.062 -0.0660 -0.0203  0.0499
 2444SOL    HW1 8932   3.621   6.316   6.102  2.0484 -0.3210  3.2930
 2444SOL    HW2 8933   3.708   6.181   6.134  2.5482 -1.6824 -2.5395
 2445SOL     OW 8934   0.164   0.838   1.991  0.0338  0.3785  0.0137
 2445SOL    HW1 8935   0.108   0.855   2.072 -2.7614 -0.0737 -1.6938
 2445SOL    HW2 8936   0.125   0.888   1.913  2.0924  0.0701 -1.2751
 2446SOL     OW 8937   5.020   3.526   6.174 -0.0144 -0.1161 -0.5258
 2446SOL    HW1 8938   5.046   3.437   6.210 -0.2996  0.5928  1.5622
 2446SOL    HW2 8939   4.920   3.531   6.166 -0.0330  0.1679 -0.1607
 2447SOL     OW 8940   2.063   4.134   1.228 -0.2556 -0.0946  0.0728
 2447SOL    HW1 8941   1.980   4.095   1.187 -0.5456  1.8533 -1.3387
 2447SOL    HW2 8942   2.073   4.099   1.321 -2.5799 -0.5070  0.2380
 2448SOL     OW 8943   1.420   0.974   4.190  0.4750 -0.2109 -0.6200
 2448SOL    HW1 8944   1.456   0.881   4.194  0.9079 -0.0074  1.9591
 2448SOL    HW2 8945   1.374   0.988   4.102  1.0551 -2.5834 -1.3820
 2449SOL     OW 8946   3.270   2.338   1.199 -0.0740  0.7935 -0.1328
 2449SOL    HW1 8947   3.292   2.318   1.295 -1.6271 -0.3227  0.0181
 2449SOL    HW2 8948   3.194   2.281   1.170  0.4814  0.9997 -2.1046
 2450SOL     OW 8949   0.170   3.584   4.062  0.5448  0.3079  0.1539
 2450SOL    HW1 8950   0.135   3.508   4.116 -0.4264  0.7334  0.1430
 2450SOL    HW2 8951   0.206   3.655   4.123 -0.6526  0.8371  0.2702
 2451SOL     OW 8952   1.490   4.295   5.056 -0.1623 -0.1659 -0.3521
 2451SOL    HW1 8953   1.500   4.247   4.969 -1.8275 -0.7606 -0.2411
 2451SOL    HW2 8954   1.520   4.390   5.045  0.6265 -0.4994 -1.2729
 2452SOL     OW 8955   2.729   6.328   4.328  0.7297  0.1092 -0.1993
 2452SOL    HW1 8956   2.689   6.308   4.418  0.4235 -0.0998 -0.3806
 2452SOL    HW2 8957   2.755   6.425   4.324  0.0653  0.2952 -0.1455
 2453SOL     OW 8958   0.938   6.146   0.236  0.5756  0.1917  0.2194
 2453SOL    HW1 8959   0.957   6.051   0.212 -2.1065 -0.8498  1.7145
 2453SOL    HW2 8960   1.015   6.183   0.287  1.1208 -1.6805  0.8583
 2454SOL     OW 8961   1.558   6.987   0.351  0.1336 -0.1956 -0.1802
 2454SOL    HW1 8962   1.468   7.014   0.317  0.4223  0.2973 -0.5598
 2454SOL    HW2 8963   1.557   6.986   0.451 -0.8562 -2.0989 -0.1472
 2455SOL     OW 8964   5.473   2.429   3.480  0.4152  0.1947  0.2739
 2455SOL    HW1 8965   5.412   2.466   3.551 -1.6303 -0.2140 -1.1866
 2455SOL    HW2 8966   5.496   2.335   3.503 -0.4406 -0.0198  0.2998
 2456SOL     OW 8967   1.387   0.038   0.004 -0.0544 -0.3659  0.3778
 2456SOL    HW1 8968   1.337   0.119  -0.026 -0.7592  0.0707  2.6063
 2456SOL    HW2 8969   1.338  -0.044  -0.024  1.0054 -0.1381 -2.4983
 2457SOL     OW 8970   0.836   3.942   0.591 -0.1418 -0.4091 -0.6003
 2457SOL    HW1 8971   0.833   3.847   0.559 -1.4536 -0.3149 -0.8060
 2457SOL    HW2 8972   0.911   3.990   0.545  1.0568 -1.5336  0.1032
 2458SOL     OW 8973   1.309   3.042   1.044 -0.0545  0.5441  0.1210
 2458SOL    HW1 8974   1.356   2.957   1.068  1.2868  0.5432 -2.1883
 2458SOL    HW2 8975   1.333   3.113   1.110  0.5451 -0.3055  0.8434
 2459SOL     OW 8976   4.676   6.011   5.225  0.0737 -0.0770  0.2292
 2459SOL    HW1 8977   4.591   6.006   5.276 -0.4885  0.1089 -0.6666
 2459SOL    HW2 8978   4.714   5.919   5.213 -0.0625 -0.1716  0.5285
 2460SOL     OW 8979   0.056   5.700   4.325 -0.6612  0.8370 -0.3237
 2460SOL    HW1 8980   0.126   5.770   4.343 -0.0421  0.2431 -0.3486
 2460SOL    HW2 8981   0.100   5.611   4.320 -1.3691  0.5120 -0.8637
 2461SOL     OW 8982   0.344   1.777   2.990  0.3862  0.4336 -0.0410
 2461SOL    HW1 8983   0.380   1.863   2.955  1.2466 -0.4037 -1.2827
 2461SOL    HW2 8984   0.413   1.732   3.046  0.1618  0.2529  0.0937
 2462SOL     OW 8985   6.601   6.563   3.795  0.0992 -0.1094  0.5829
 2462SOL    HW1 8986   6.507   6.584   3.770  0.3826 -0.7302 -1.1626
 2462SOL    HW2 8987   6.655   6.647   3.795  0.0860 -0.0558 -1.0822
 2463SOL     OW 8988   0.311   5.644   2.313 -0.3752 -0.2681  0.0140
 2463SOL    HW1 8989   0.350   5.562   2.272 -0.5356 -0.8425  0.9746
 2463SOL    HW2 8990   0.223   5.664   2.271 -1.0049 -1.4241  0.7421
 2464SOL     OW 8991   2.120   1.589   6.263  0.0769  0.3990 -0.1982
 2464SOL    HW1 8992   2.073   1.677   6.270  0.7611  0.6666  1.9837
 2464SOL    HW2 8993   2.185   1.581   6.339  0.4175 -1.7761 -0.6671
 2465SOL     OW 8994   3.756   5.442   4.952 -0.3580 -0.4419  0.0721
 2465SOL    HW1 8995   3.834   5.397   4.909 -0.1838 -0.4713  0.4156
 2465SOL    HW2 8996   3.744   5.407   5.045  0.7065  1.2559  0.9146
 2466SOL     OW 8997   6.142   3.644   2.225 -0.3662 -0.1508  0.0992
 2466SOL    HW1 8998   6.209   3.583   2.183 -0.0451 -0.9619  1.6844
 2466SOL    HW2 8999   6.079   3.590   2.281 -1.6581  0.7268 -0.4579
 2467SOL     OW 9000   6.873   2.475   4.362  0.1802  0.1682  0.7946
 2467SOL    HW1 9001   6.841   2.559   4.405  0.0435  0.1867  0.6610
 2467SOL    HW2 9002   6.860   2.482   4.263  1.2040  0.4352  0.6712
 2468SOL     OW 9003   5.044   3.458   6.490  1.0872 -0.3501  0.0671
 2468SOL    HW1 9004   5.025   3.467   6.588  3.5826  0.5186  0.5389
 2468SOL    HW2 9005   5.031   3.547   6.446 -0.3721 -0.8174 -0.4976
 2469SOL     OW 9006   3.528   4.712   5.298  0.4285 -0.5380 -0.4242
 2469SOL    HW1 9007   3.547   4.630   5.353  0.9850  0.1341  0.3967
 2469SOL    HW2 9008   3.437   4.747   5.322  0.8473  0.0078  0.4092
 2470SOL     OW 9009   2.007   4.729   4.111  0.8264 -0.2450  0.1318
 2470SOL    HW1 9010   2.058   4.777   4.182 -0.2616  2.5107 -0.7685
 2470SOL    HW2 9011   1.982   4.638   4.142  2.0349  0.1669  2.4868
 2471SOL     OW 9012   3.334   0.972   4.973  0.0067 -0.7079  0.6533
 2471SOL    HW1 9013   3.416   1.029   4.975  0.5862 -1.4178 -1.0348
 2471SOL    HW2 9014   3.359   0.879   4.948 -1.4735 -0.5478 -1.7294
 2472SOL     OW 9015   2.302   5.972   6.437  0.5010 -0.8638 -0.0856
 2472SOL    HW1 9016   2.246   5.894   6.465  0.8857 -0.4930  1.8336
 2472SOL    HW2 9017   2.388   5.972   6.489  1.4450 -0.3259 -1.5795
 2473SOL     OW 9018   4.060   6.703   5.794  0.3204  0.3378 -0.6390
 2473SOL    HW1 9019   4.009   6.659   5.869  1.8670 -2.1347 -0.9113
 2473SOL    HW2 9020   3.996   6.750   5.734 -1.0665  1.7017  1.7172
 2474SOL     OW 9021   6.797   1.544   0.870 -0.4038 -0.2242 -0.6341
 2474SOL    HW1 9022   6.897   1.552   0.869 -0.3545 -0.6654  0.0635
 2474SOL    HW2 9023   6.764   1.538   0.776  0.5949 -4.0591 -0.9346
 2475SOL     OW 9024   2.049   5.615   6.997 -0.0154  0.0074  0.2168
 2475SOL    HW1 9025   2.089   5.524   7.002 -1.8554 -0.8600  0.0039
 2475SOL    HW2 9026   2.029   5.648   7.089 -0.4544 -0.3272  0.2427
 2476SOL     OW 9027   1.805   4.739   3.932  0.0121  0.3654  0.2226
 2476SOL    HW1 9028   1.745   4.819   3.936  0.3984  0.6790 -0.1868
 2476SOL    HW2 9029   1.877   4.748   4.001  2.1812  2.1250 -2.0754
 2477SOL     OW 9030   0.206   3.028   1.467 -0.1187 -0.0292 -0.6318
 2477SOL    HW1 9031   0.303   3.032   1.441  0.5422 -0.1723  1.5813
 2477SOL    HW2 9032   0.182   3.110   1.519 -0.5100 -1.0396  0.8468
 2478SOL     OW 9033   1.315   3.945   6.101 -0.0454  0.1755  0.0282
 2478SOL    HW1 9034   1.364   3.962   6.186 -3.5719  2.2434  1.8724
 2478SOL    HW2 9035   1.344   4.012   6.032  2.3468 -1.0915 -0.3079
 2479SOL     OW 9036   5.036   0.008   2.207  0.4542 -0.1270  0.1858
 2479SOL    HW1 9037   5.073   0.056   2.128  2.0533  0.3016  1.1607
 2479SOL    HW2 9038   4.943   0.040   2.225  0.6558  0.9141 -0.5672
 2480SOL     OW 9039   4.913   5.552   5.940  0.0087  0.1570 -1.0086
 2480SOL    HW1 9040   4.926   5.593   5.850  1.5948 -1.0260 -1.3704
 2480SOL    HW2 9041   4.816   5.549   5.962 -0.2599  2.7124 -1.5617
 2481SOL     OW 9042   3.621   1.027   6.821 -0.1204  0.1154 -0.0232
 2481SOL    HW1 9043   3.632   1.074   6.733 -1.0746 -0.7438 -0.6373
 2481SOL    HW2 9044   3.553   0.954   6.810  1.0437 -1.1493  0.9945
 2482SOL     OW 9045   6.100   1.035   1.727 -0.1763 -0.3222 -0.1530
 2482SOL    HW1 9046   6.175   1.050   1.663  0.5959 -0.1307  0.7620
 2482SOL    HW2 9047   6.015   1.071   1.689  0.2660 -0.1998 -1.0451
 2483SOL     OW 9048   6.384   5.754   0.286 -0.0276 -0.5470 -0.2868
 2483SOL    HW1 9049   6.355   5.849   0.297 -1.4271 -0.9745 -0.1574
 2483SOL    HW2 9050   6.388   5.732   0.188  1.4373 -0.0384 -0.3673
 2484SOL     OW 9051   4.394   0.262   6.969 -0.0621 -0.4164 -0.0954
 2484SOL    HW1 9052   4.413   0.258   6.872 -0.8120 -1.9052 -0.2233
 2484SOL    HW2 9053   4.330   0.188   6.993 -0.6588  0.5213  1.3459
 2485SOL     OW 9054   4.467   3.182   0.087 -0.0261 -0.0569  0.7732
 2485SOL    HW1 9055   4.409   3.237   0.027 -0.4346 -0.4953  0.7643
 2485SOL    HW2 9056   4.544   3.237   0.118 -0.1392  0.3570  0.3292
 2486SOL     OW 9057   3.880   0.672   5.589 -0.1294  0.3769  0.3721
 2486SOL    HW1 9058   3.887   0.698   5.493  1.8230  1.3296  0.7180
 2486SOL    HW2 9059   3.910   0.577   5.600 -0.2286  0.3098  0.0750
 2487SOL     OW 9060   0.008   6.739   0.606  0.0729 -0.2553  0.1694
 2487SOL    HW1 9061  -0.021   6.833   0.624  0.8135  0.1921 -0.8880
 2487SOL    HW2 9062  -0.031   6.707   0.520  0.5151 -0.6058  0.0927
 2488SOL     OW 9063   3.035   0.389   1.180  0.8705 -0.6328 -0.0932
 2488SOL    HW1 9064   2.955   0.361   1.231  0.2462 -0.8077 -1.1347
 2488SOL    HW2 9065   3.023   0.482   1.147  0.8194 -0.8741 -0.7739
 2489SOL     OW 9066   3.535   0.353   6.400 -0.2302  0.1450 -0.0632
 2489SOL    HW1 9067   3.619   0.404   6.420  0.2077 -0.4974 -0.2335
 2489SOL    HW2 9068   3.543   0.310   6.311 -1.1508  0.8937 -0.5213
 2490SOL     OW 9069   1.679   6.569   6.264  0.1117  0.2993 -0.1395
 2490SOL    HW1 9070   1.651   6.611   6.350  1.2134  1.1278 -0.1676
 2490SOL    HW2 9071   1.656   6.472   6.265 -0.7589  0.5045  0.6953
 2491SOL     OW 9072   5.624   4.424   3.525  0.2142 -0.3898  0.3194
 2491SOL    HW1 9073   5.525   4.433   3.536  0.4435  0.1391  2.1711
 2491SOL    HW2 9074   5.668   4.423   3.615  1.9603  0.1000 -0.4872
 2492SOL     OW 9075   2.343   5.511   1.784 -0.6925 -0.0294 -0.6764
 2492SOL    HW1 9076   2.264   5.542   1.731 -0.6290  1.1065 -0.1238
 2492SOL    HW2 9077   2.316   5.499   1.879 -0.3201 -0.1507 -0.5856
 2493SOL     OW 9078   0.550   2.640   0.887  0.1988  0.0840 -0.5550
 2493SOL    HW1 9079   0.576   2.544   0.877  2.8461  0.4385  1.6810
 2493SOL    HW2 9080   0.631   2.694   0.913 -1.8499  2.3098  1.7114
 2494SOL     OW 9081   4.505   5.892   6.732 -0.2797  0.2962  0.3391
 2494SOL    HW1 9082   4.605   5.886   6.722 -0.2198 -1.1169  1.4358
 2494SOL    HW2 9083   4.481   5.975   6.781  0.2897  1.0529 -0.6392
 2495SOL     OW 9084   1.513   2.870   1.152  0.3457  0.1156  0.2495
 2495SOL    HW1 9085   1.559   2.833   1.232  0.2973 -2.9883 -1.0049
 2495SOL    HW2 9086   1.581   2.901   1.085  0.6939 -2.2813 -0.6223
 2496SOL     OW 9087   5.587   1.337   1.878  0.3858 -0.1519 -0.5459
 2496SOL    HW1 9088   5.522   1.331   1.802  2.5143 -0.6684 -2.4670
 2496SOL    HW2 9089   5.541   1.318   1.964 -2.0809  0.1295 -1.7183
 2497SOL     OW 9090   4.194   1.718   4.254 -0.3572  0.4316 -0.2558
 2497SOL    HW1 9091   4.178   1.631   4.208  0.1189  0.8537 -1.2485
 2497SOL    HW2 9092   4.125   1.784   4.227  2.0046  1.8450 -3.4930
 2498SOL     OW 9093   5.661   2.996   6.692  0.5738  0.8096 -0.6291
 2498SOL    HW1 9094   5.740   2.970   6.636  0.9242 -1.5888  0.8721
 2498SOL    HW2 9095   5.580   3.002   6.634  1.4923  1.5769 -1.8955
 2499SOL     OW 9096   1.582   3.688   3.942  0.1986 -0.0506  0.6727
 2499SOL    HW1 9097   1.552   3.783   3.945 -0.8554 -0.3877  2.2045
 2499SOL    HW2 9098   1.517   3.631   3.994  1.7390 -1.3387  1.2706
 2500SOL     OW 9099   3.291   4.127   5.189 -0.3020 -0.1495  0.1778
 2500SOL    HW1 9100   3.271   4.195   5.118 -0.6330  0.4816  0.8667
 2500SOL    HW2 9101   3.389   4.115   5.197 -0.1931  0.9548  0.6908
 2501SOL     OW 9102   3.271   4.211   4.673  0.0869 -0.2464  0.2357
 2501SOL    HW1 9103   3.196   4.273   4.696  0.7430 -0.0093  1.8904
 2501SOL    HW2 9104   3.234   4.123   4.642 -0.8622  0.0765  0.4187
 2502SOL     OW 9105   4.246   0.500   0.366 -0.2983 -0.2053 -0.1677
 2502SOL    HW1 9106   4.177   0.522   0.436  1.0190  2.9863  0.2897
 2502SOL    HW2 9107   4.337   0.522   0.401  0.4745  0.7386 -2.5811
 2503SOL     OW 9108   4.576   3.913   1.153 -0.1082 -0.1883 -0.1427
 2503SOL    HW1 9109   4.633   3.888   1.076 -0.2106  0.4931 -0.4455
 2503SOL    HW2 9110   4.591   3.848   1.228  2.2475  0.8586  0.3773
 2504SOL     OW 9111   4.233   5.184   4.562 -0.5577 -0.4179  0.6447
 2504SOL    HW1 9112   4.147   5.220   4.526  0.9046  1.3192 -1.3232
 2504SOL    HW2 9113   4.262   5.106   4.506  1.2275  1.6850 -1.5698
 2505SOL     OW 9114   4.578   0.656   3.278  0.0249  0.4744  0.6529
 2505SOL    HW1 9115   4.565   0.711   3.361 -0.5298 -1.0894  1.6598
 2505SOL    HW2 9116   4.518   0.576   3.282  0.6166 -0.0784 -0.8794
 2506SOL     OW 9117   0.122   2.883   1.677 -0.7804 -1.0965  0.6405
 2506SOL    HW1 9118   0.139   2.928   1.590 -1.2881 -1.2188  0.4752
 2506SOL    HW2 9119   0.039   2.920   1.718 -0.4844 -0.9583  1.1304
 2507SOL     OW 9120   0.347   0.223   4.657 -0.2341 -0.1306  0.1484
 2507SOL    HW1 9121   0.416   0.203   4.726  0.4075 -0.5575 -0.6003
 2507SOL    HW2 9122   0.377   0.187   4.568 -0.7945  0.8721 -0.4674
 2508SOL     OW 9123   4.682   6.886   2.110 -0.4750  0.3463  0.0564
 2508SOL    HW1 9124   4.655   6.907   2.016  2.1213  0.2828 -0.7992
 2508SOL    HW2 9125   4.727   6.966   2.150 -0.3766 -0.0510  0.7455
 2509SOL     OW 9126   3.378   0.868   6.734 -0.4877  0.4731  0.0610
 2509SOL    HW1 9127   3.377   0.775   6.697 -1.2270  0.2767  0.5554
 2509SOL    HW2 9128   3.327   0.870   6.819 -1.0563  1.4828 -0.2969
 2510SOL     OW 9129   3.272   6.908   4.702  0.2071 -0.1982 -0.2014
 2510SOL    HW1 9130   3.213   6.989   4.710  0.5680  0.0058  0.5205
 2510SOL    HW2 9131   3.321   6.911   4.615 -2.1153 -1.2637 -1.6419
 2511SOL     OW 9132   2.439   0.871   2.394 -0.9762  0.4769 -0.3096
 2511SOL    HW1 9133   2.520   0.857   2.337 -1.0724  2.3107 -0.9768
 2511SOL    HW2 9134   2.466   0.871   2.490 -0.5287 -0.9089 -0.4182
 2512SOL     OW 9135   5.136   4.151   1.725  0.3655  0.0439  0.1770
 2512SOL    HW1 9136   5.068   4.192   1.664 -0.1682 -0.0234  0.7156
 2512SOL    HW2 9137   5.090   4.092   1.791  0.8051  1.0466  1.4075
 2513SOL     OW 9138   2.821   4.200   0.436  0.1963  0.3146  0.4326
 2513SOL    HW1 9139   2.732   4.157   0.417  0.2623  0.2789  0.2041
 2513SOL    HW2 9140   2.890   4.130   0.448  0.1654  0.3388  0.7579
 2514SOL     OW 9141   6.223   6.334   2.372 -0.2401  0.0644  0.6487
 2514SOL    HW1 9142   6.165   6.254   2.368 -0.5651  0.2668  1.1843
 2514SOL    HW2 9143   6.301   6.316   2.433 -0.4906  0.2665  1.0305
 2515SOL     OW 9144   1.969   3.196   1.343  0.0310  0.4905 -0.3930
 2515SOL    HW1 9145   2.035   3.225   1.411  2.6857 -2.2548 -1.5820
 2515SOL    HW2 9146   1.915   3.119   1.378 -0.8199  1.1012 -0.3249
 2516SOL     OW 9147   3.604   6.416   3.535  0.4882 -0.1077 -0.4064
 2516SOL    HW1 9148   3.604   6.356   3.455 -1.5976 -2.5463  1.2736
 2516SOL    HW2 9149   3.679   6.389   3.596  0.9228  0.5053 -0.6639
 2517SOL     OW 9150   5.177   3.432   3.359 -0.1033  0.0882 -0.1709
 2517SOL    HW1 9151   5.108   3.410   3.428 -0.1172 -0.4151 -0.3430
 2517SOL    HW2 9152   5.132   3.457   3.273 -0.1303 -3.4532 -1.3288
 2518SOL     OW 9153   6.171   2.041   0.862 -0.2530 -0.0026 -0.3671
 2518SOL    HW1 9154   6.218   1.955   0.885  1.0749  1.1282  1.4689
 2518SOL    HW2 9155   6.205   2.076   0.775 -1.3497 -1.6606 -1.5155
 2519SOL     OW 9156   4.588   0.199   3.976  0.4264 -0.3498 -0.4629
 2519SOL    HW1 9157   4.655   0.195   4.050  1.4771 -2.4819 -1.4218
 2519SOL    HW2 9158   4.496   0.209   4.013  1.1655  2.3535  0.9078
 2520SOL     OW 9159   4.534   3.076   5.474  0.4886  0.1748 -1.0373
 2520SOL    HW1 9160   4.525   3.000   5.539  1.1952 -0.9938 -2.2610
 2520SOL    HW2 9161   4.514   3.043   5.382 -1.8285  2.1005 -1.3282
 2521SOL     OW 9162   2.690   3.374   0.939  0.3627  0.7061 -0.1289
 2521SOL    HW1 9163   2.615   3.309   0.927  1.7992 -0.9550 -0.5993
 2521SOL    HW2 9164   2.698   3.398   1.036 -1.0438  1.3160 -0.1286
 2522SOL     OW 9165   6.398   3.541   5.644 -0.1266 -0.1499  0.1951
 2522SOL    HW1 9166   6.416   3.562   5.547 -0.4289  1.1880  0.4063
 2522SOL    HW2 9167   6.443   3.610   5.701  1.0071 -1.5793  1.0813
 2523SOL     OW 9168   0.467   1.974   5.744 -0.3201 -0.2365  0.2046
 2523SOL    HW1 9169   0.534   2.048   5.746 -0.9242  0.3762 -0.9565
 2523SOL    HW2 9170   0.417   1.977   5.657 -1.1044 -1.3432  0.5968
 2524SOL     OW 9171   1.923   3.691   3.501  0.0453 -0.5221 -0.1532
 2524SOL    HW1 9172   1.987   3.653   3.436  0.8154 -0.7390  0.7074
 2524SOL    HW2 9173   1.872   3.618   3.546  0.2321 -0.4350  0.2041
 2525SOL     OW 9174   3.263   4.210   5.803  0.5722  0.3322 -0.0653
 2525SOL    HW1 9175   3.309   4.122   5.792 -1.9418 -1.3742  1.8870
 2525SOL    HW2 9176   3.200   4.224   5.726 -0.6731 -0.7439  0.7131
 2526SOL     OW 9177   6.120   4.979   6.991  0.5645  0.2791 -0.2983
 2526SOL    HW1 9178   6.178   4.908   6.949  0.9307  0.3586  0.0620
 2526SOL    HW2 9179   6.132   4.977   7.090  1.2842  1.4420 -0.3399
 2527SOL     OW 9180   0.145   4.961   4.980  0.4377 -0.9349 -0.3951
 2527SOL    HW1 9181   0.160   4.892   4.909 -2.2727 -1.1424 -0.8498
 2527SOL    HW2 9182   0.073   5.024   4.952 -0.6820 -0.9881  2.1185
 2528SOL     OW 9183   3.276   1.862   4.371 -0.1215 -0.4066  0.0735
 2528SOL    HW1 9184   3.342   1.791   4.397 -0.5291 -1.3851 -1.4437
 2528SOL    HW2 9185   3.294   1.891   4.277 -1.2900 -0.0280 -0.0436
 2529SOL     OW 9186   3.374   3.634   1.502  0.8581 -0.0987 -0.2858
 2529SOL    HW1 9187   3.429   3.597   1.576 -0.0784 -0.1230  0.4080
 2529SOL    HW2 9188   3.342   3.725   1.526 -0.2031 -0.4652 -0.2590
 2530SOL     OW 9189   6.077   4.769   4.357 -0.0153  0.2724  1.0947
 2530SOL    HW1 9190   5.981   4.740   4.358 -0.6909  2.2202 -0.5786
 2530SOL    HW2 9191   6.082   4.867   4.340  2.3179  0.1439  0.7174
 2531SOL     OW 9192   4.004   5.426   6.498 -1.0146  0.1575  0.6472
 2531SOL    HW1 9193   3.916   5.388   6.526 -0.2856 -1.8083  0.4527
 2531SOL    HW2 9194   4.078   5.375   6.543  0.0818  0.1024 -1.1227
 2532SOL     OW 9195   5.991   3.912   6.257 -0.3239  0.3938 -0.2068
 2532SOL    HW1 9196   6.076   3.865   6.232 -0.4918  0.1798 -0.3797
 2532SOL    HW2 9197   5.973   3.897   6.354  0.0688  0.8118 -0.0649
 2533SOL     OW 9198   5.279   0.913   6.005  0.3767  0.3727 -0.5047
 2533SOL    HW1 9199   5.194   0.901   5.954  1.5653  0.1381 -2.5324
 2533SOL    HW2 9200   5.346   0.845   5.977  0.8080 -0.4397  2.1726
 2534SOL     OW 9201   0.274   4.568   2.388 -0.3652 -0.5073  0.1534
 2534SOL    HW1 9202   0.225   4.490   2.429 -0.9393 -0.5998 -0.6800
 2534SOL    HW2 9203   0.372   4.557   2.402 -0.5169 -0.8206  1.0055
 2535SOL     OW 9204   5.663   0.716   5.066 -0.0595  0.0496  0.4239
 2535SOL    HW1 9205   5.584   0.722   5.005 -0.2351  0.4853  0.6895
 2535SOL    HW2 9206   5.654   0.783   5.140  0.0087 -0.6681  1.1003
 2536SOL     OW 9207   4.933   1.372   6.028  0.4766 -0.1075  0.2593
 2536SOL    HW1 9208   4.904   1.466   6.008 -0.8251 -0.8728 -1.7656
 2536SOL    HW2 9209   4.944   1.322   5.943  0.8116 -1.9119  1.3145
 2537SOL     OW 9210   0.246   6.925   3.381  0.4402  0.2300 -0.3868
 2537SOL    HW1 9211   0.237   6.861   3.305 -0.0861  0.1994 -0.2998
 2537SOL    HW2 9212   0.195   7.009   3.361 -0.1225  0.0241  0.1480
 2538SOL     OW 9213   0.980   0.285   2.187  0.3295 -0.2630 -0.8077
 2538SOL    HW1 9214   0.908   0.234   2.234 -2.3683  2.3355 -1.7622
 2538SOL    HW2 9215   0.974   0.268   2.089 -0.5154  1.5648 -1.1266
 2539SOL     OW 9216   2.412   0.234   5.370  0.2556  0.1190 -0.1315
 2539SOL    HW1 9217   2.403   0.202   5.464  0.2691  0.4191 -0.0250
 2539SOL    HW2 9218   2.410   0.334   5.369  1.5867  0.1637 -0.2992
 2540SOL     OW 9219   2.220   1.623   0.781 -0.4615  0.2424  0.2149
 2540SOL    HW1 9220   2.151   1.695   0.776  0.1856  0.8249 -0.4429
 2540SOL    HW2 9221   2.237   1.587   0.689 -0.0939 -0.0992  0.4142
 2541SOL     OW 9222   3.500   6.213   0.780  0.6132  0.2079 -0.2124
 2541SOL    HW1 9223   3.421   6.155   0.799  1.2473 -1.0349 -1.2618
 2541SOL    HW2 9224   3.506   6.284   0.850  0.3857 -1.5704  1.7171
 2542SOL     OW 9225   3.490   5.756   1.442 -0.2311 -0.1035  0.7993
 2542SOL    HW1 9226   3.436   5.728   1.363 -2.0819  1.0966  1.5744
 2542SOL    HW2 9227   3.585   5.729   1.429 -0.8337 -1.5143 -1.0120
 2543SOL     OW 9228   5.205   4.627   4.631  0.0401 -0.1672  0.3997
 2543SOL    HW1 9229   5.156   4.541   4.644  2.5101 -1.5001  1.7759
 2543SOL    HW2 9230   5.153   4.687   4.571 -2.9866 -1.5788  1.4223
 2544SOL     OW 9231   3.992   4.813   5.008  0.3899 -0.1342 -0.0774
 2544SOL    HW1 9232   3.976   4.844   5.102 -0.3097 -1.1358  0.1530
 2544SOL    HW2 9233   4.000   4.893   4.948 -0.2524  0.5128  0.6593
 2545SOL     OW 9234   6.364   0.342   5.048 -0.8182 -0.5011  0.3192
 2545SOL    HW1 9235   6.296   0.396   4.999 -0.5963 -0.2219  0.3126
 2545SOL    HW2 9236   6.354   0.356   5.147 -0.8465 -0.5488  0.3227
 2546SOL     OW 9237   0.353   6.174   3.597  0.2080 -0.5386  0.2488
 2546SOL    HW1 9238   0.379   6.266   3.570 -2.3597  0.0575 -0.5048
 2546SOL    HW2 9239   0.319   6.174   3.691 -0.3991 -0.5419  0.0403
 2547SOL     OW 9240   0.818   1.569   0.334  0.5491 -0.0536  0.3099
 2547SOL    HW1 9241   0.814   1.499   0.264  0.8185  0.7630 -0.5440
 2547SOL    HW2 9242   0.786   1.656   0.296  1.7524  0.6562  0.8512
 2548SOL     OW 9243   1.855   6.734   4.924  0.4560  0.1708 -0.1307
 2548SOL    HW1 9244   1.846   6.643   4.884 -0.0853  1.0733 -2.1938
 2548SOL    HW2 9245   1.948   6.767   4.913  0.9940 -0.5647  1.7379
 2549SOL     OW 9246   6.603   6.651   5.106 -0.3006 -0.2756  0.0937
 2549SOL    HW1 9247   6.583   6.707   5.186 -2.4476 -0.3286 -0.3630
 2549SOL    HW2 9248   6.683   6.690   5.058  0.9816 -0.2198  2.1656
 2550SOL     OW 9249   2.959   6.798   2.250  0.0099  0.0771  0.5713
 2550SOL    HW1 9250   3.021   6.761   2.180  1.3242  1.9631  0.6658
 2550SOL    HW2 9251   2.865   6.797   2.215  0.5871  0.6048 -1.0904
 2551SOL     OW 9252   0.738   0.131   4.035 -0.1367 -0.5560  0.3221
 2551SOL    HW1 9253   0.810   0.201   4.040 -0.5286 -0.0272 -0.8963
 2551SOL    HW2 9254   0.665   0.153   4.099  0.5833 -0.8533  1.2526
 2552SOL     OW 9255   1.221   6.648   2.725 -0.6381 -0.1837 -0.1002
 2552SOL    HW1 9256   1.176   6.559   2.731 -1.0385  0.0033 -0.2835
 2552SOL    HW2 9257   1.291   6.645   2.653  1.2864 -1.1761  1.6858
 2553SOL     OW 9258   2.186   0.257   0.134 -0.0749 -0.0478 -0.5376
 2553SOL    HW1 9259   2.114   0.225   0.073  1.2402 -2.6810 -0.8628
 2553SOL    HW2 9260   2.147   0.273   0.225 -1.0950 -1.5060 -0.6732
 2554SOL     OW 9261   1.488   5.204   1.237 -0.0483 -0.7325  0.0780
 2554SOL    HW1 9262   1.485   5.166   1.144  1.3973 -1.0044  0.1151
 2554SOL    HW2 9263   1.539   5.290   1.236 -0.6528 -0.3608  0.5144
 2555SOL     OW 9264   0.696   1.448   5.750 -0.0256  0.1274 -0.2885
 2555SOL    HW1 9265   0.767   1.516   5.733 -0.5369  0.1110 -2.8970
 2555SOL    HW2 9266   0.722   1.361   5.708 -1.0688 -0.1930 -0.3051
 2556SOL     OW 9267   1.522   5.598   4.512 -0.7014 -0.2724 -0.0530
 2556SOL    HW1 9268   1.523   5.601   4.412  0.5832 -0.9484 -0.0820
 2556SOL    HW2 9269   1.496   5.507   4.543 -0.3904 -0.2713  0.2181
 2557SOL     OW 9270   4.376   4.258   1.622 -0.3641 -0.2407 -0.7257
 2557SOL    HW1 9271   4.451   4.199   1.594  0.5969  0.4762  0.2359
 2557SOL    HW2 9272   4.395   4.293   1.714 -1.0811  1.2676 -1.1324
 2558SOL     OW 9273   6.825   1.652   5.320  0.3076  0.4848  0.0396
 2558SOL    HW1 9274   6.819   1.594   5.240 -0.3106  1.2891 -0.5089
 2558SOL    HW2 9275   6.793   1.744   5.298 -2.8835  0.0057  1.9575
 2559SOL     OW 9276   2.941   6.144   6.005 -0.9255  0.4096  0.3249
 2559SOL    HW1 9277   2.904   6.188   6.087 -0.9015  0.8627  0.0915
 2559SOL    HW2 9278   2.930   6.204   5.926  0.0375  0.4266  0.1986
 2560SOL     OW 9279   6.786   4.955   5.791  0.1008  0.4166  0.1166
 2560SOL    HW1 9280   6.745   4.968   5.881 -0.2941  0.3149 -0.0456
 2560SOL    HW2 9281   6.714   4.957   5.721  0.3203 -0.2014 -0.1329
 2561SOL     OW 9282   1.015   6.488   4.887  0.1546  0.1271 -0.0442
 2561SOL    HW1 9283   0.927   6.488   4.838 -0.6036  0.2369  1.2885
 2561SOL    HW2 9284   1.013   6.417   4.957  1.8454 -1.1442 -1.1924
 2562SOL     OW 9285   6.160   6.624   3.084  0.4463 -0.0142  0.7834
 2562SOL    HW1 9286   6.069   6.598   3.118 -0.2260  2.4541  1.0357
 2562SOL    HW2 9287   6.164   6.609   2.986  0.2631 -1.4176  0.9692
 2563SOL     OW 9288   5.538   2.332   5.012  0.5519 -0.1425 -1.1252
 2563SOL    HW1 9289   5.474   2.348   5.087 -1.3242  0.6119 -2.7934
 2563SOL    HW2 9290   5.627   2.306   5.049  0.7384  3.5240  1.5198
 2564SOL     OW 9291   6.429   6.102   0.633 -0.1993  0.5778 -0.7039
 2564SOL    HW1 9292   6.371   6.040   0.686 -0.4734  0.3115 -1.2978
 2564SOL    HW2 9293   6.463   6.175   0.692  0.8155 -0.5900  0.2262
 2565SOL     OW 9294   5.898   4.402   4.300  0.0117  0.2548  0.3291
 2565SOL    HW1 9295   5.973   4.384   4.363 -2.3391 -3.8207  2.3701
 2565SOL    HW2 9296   5.860   4.493   4.317  3.4119  1.8384  0.1835
 2566SOL     OW 9297   3.098   3.522   5.240  0.2855 -0.1537  0.0344
 2566SOL    HW1 9298   3.109   3.465   5.321  0.5237 -0.3593 -0.1408
 2566SOL    HW2 9299   3.037   3.477   5.175  0.9503 -0.4845 -0.3594
 2567SOL     OW 9300   1.249   4.891   4.986 -0.0468  0.3725  0.0866
 2567SOL    HW1 9301   1.301   4.942   5.055 -0.8205  0.4902  0.5932
 2567SOL    HW2 9302   1.235   4.950   4.906 -2.2773  1.5791  1.2702
 2568SOL     OW 9303   3.888   3.798   5.413  0.0154  0.1187  0.1707
 2568SOL    HW1 9304   3.831   3.845   5.345 -0.6704  0.6066  1.0713
 2568SOL    HW2 9305   3.947   3.864   5.459  1.6916 -0.4423 -1.0694
 2569SOL     OW 9306   2.278   6.842   2.127 -0.3156 -0.0942 -0.4828
 2569SOL    HW1 9307   2.285   6.900   2.208 -0.7790  1.0267 -1.2302
 2569SOL    HW2 9308   2.325   6.755   2.145 -2.8892 -1.1303  2.0461
 2570SOL     OW 9309   2.784   1.092   6.835  0.2118 -0.2212 -0.8578
 2570SOL    HW1 9310   2.834   1.143   6.905  1.6377  2.2625 -3.4532
 2570SOL    HW2 9311   2.687   1.117   6.838  0.2502 -0.1601  0.2110
 2571SOL     OW 9312   0.408   4.156   3.448  0.4384  0.2502  0.3810
 2571SOL    HW1 9313   0.483   4.205   3.402 -0.1331 -0.0109 -0.8682
 2571SOL    HW2 9314   0.428   4.058   3.448  1.6381  0.4131  2.9843
 2572SOL     OW 9315   2.314   6.047   4.234  0.8657  0.0195  0.1364
 2572SOL    HW1 9316   2.253   6.028   4.311 -0.0164  0.0811 -0.5399
 2572SOL    HW2 9317   2.319   6.146   4.220  0.9187  0.0002  0.0235
 2573SOL     OW 9318   1.206   6.079   4.809 -0.2185 -0.1727 -0.0253
 2573SOL    HW1 9319   1.243   5.986   4.816  0.0437  0.0158  1.4527
 2573SOL    HW2 9320   1.114   6.081   4.850 -0.5224  0.0836 -0.6970
 2574SOL     OW 9321   0.796   4.225   6.266  0.0091  0.4150 -0.3559
 2574SOL    HW1 9322   0.737   4.175   6.203  0.1464 -0.7338  0.3970
 2574SOL    HW2 9323   0.887   4.235   6.225  0.5980 -1.7922  0.2715
 2575SOL     OW 9324   1.280   4.145   4.739 -0.0002  0.4658  0.0928
 2575SOL    HW1 9325   1.282   4.067   4.801  2.2350  1.0028  0.7509
 2575SOL    HW2 9326   1.234   4.222   4.783  3.4491  1.5658  2.1229
 2576SOL     OW 9327   6.495   3.962   5.952  0.4839  0.0317 -0.1788
 2576SOL    HW1 9328   6.471   4.043   6.006 -0.8912 -0.0944 -0.5679
 2576SOL    HW2 9329   6.425   3.892   5.965  0.8551 -0.5158 -1.0705
 2577SOL     OW 9330   4.768   2.186   1.340 -0.0458 -0.1731  0.2127
 2577SOL    HW1 9331   4.796   2.096   1.375 -0.5133  0.3394  2.0072
 2577SOL    HW2 9332   4.777   2.187   1.240  1.9355 -1.5306  0.3125
 2578SOL     OW 9333   4.626   1.531   2.248  0.0304 -0.1693  0.1066
 2578SOL    HW1 9334   4.637   1.547   2.346 -0.8826 -1.7177  0.4965
 2578SOL    HW2 9335   4.599   1.616   2.203  1.0599  0.7103  1.0726
 2579SOL     OW 9336   0.596   4.201   4.145  0.0582 -0.1221  0.4102
 2579SOL    HW1 9337   0.531   4.161   4.080 -0.6154  1.4021  0.1117
 2579SOL    HW2 9338   0.607   4.298   4.125  1.5990 -0.1175  1.1615
 2580SOL     OW 9339   4.699   0.974   2.032 -0.4930  0.0490 -0.0344
 2580SOL    HW1 9340   4.634   0.900   2.017  1.7987 -1.7155 -2.1045
 2580SOL    HW2 9341   4.720   1.019   1.945  1.9040 -0.2410  0.3213
 2581SOL     OW 9342   1.439   2.530   2.735 -1.3025 -0.0026 -0.6686
 2581SOL    HW1 9343   1.421   2.601   2.668 -0.0222  0.1743 -0.8562
 2581SOL    HW2 9344   1.536   2.531   2.760 -1.5593 -0.7046  0.4541
 2582SOL     OW 9345   3.794   6.341   3.740 -0.1784 -0.4503  0.0843
 2582SOL    HW1 9346   3.836   6.430   3.752 -0.6504 -0.1890 -0.1836
 2582SOL    HW2 9347   3.729   6.324   3.814 -0.9544 -0.0680 -0.4991
 2583SOL     OW 9348   1.422   5.712   0.410  0.1435  0.4048 -0.0711
 2583SOL    HW1 9349   1.396   5.784   0.347  0.3941  0.5938  0.0397
 2583SOL    HW2 9350   1.385   5.733   0.501 -1.7075 -0.7233 -0.4998
 2584SOL     OW 9351   3.906   6.576   0.061  0.1429  0.3452  0.2100
 2584SOL    HW1 9352   3.971   6.616   0.125 -0.5107 -1.1175  1.8518
 2584SOL    HW2 9353   3.855   6.649   0.016  0.9804  1.4214  0.9560
 2585SOL     OW 9354   6.467   6.255   6.780  0.3541  1.0505  0.0002
 2585SOL    HW1 9355   6.525   6.265   6.699  1.2400 -0.7193  0.3711
 2585SOL    HW2 9356   6.371   6.248   6.751  0.7888 -1.5077 -1.1627
 2586SOL     OW 9357   4.629   6.932   1.279  0.5339  0.8110 -0.0014
 2586SOL    HW1 9358   4.723   6.954   1.254 -0.0031  2.1807 -0.9391
 2586SOL    HW2 9359   4.576   6.916   1.196 -0.8541  3.5532  0.2494
 2587SOL     OW 9360   5.588   1.186   2.123 -0.3040  0.2734 -0.0822
 2587SOL    HW1 9361   5.488   1.182   2.120 -0.3947 -0.2986  1.8134
 2587SOL    HW2 9362   5.617   1.218   2.214  1.2230 -2.4452  0.5145
 2588SOL     OW 9363   1.808   4.675   6.415 -0.1319 -0.1307  0.0065
 2588SOL    HW1 9364   1.795   4.577   6.434 -0.5598  0.1737  1.3722
 2588SOL    HW2 9365   1.902   4.701   6.439 -0.8412  0.3877  2.5651
 2589SOL     OW 9366   5.184   2.849   5.190 -0.2506  0.0241 -0.0198
 2589SOL    HW1 9367   5.154   2.922   5.128 -0.6211  0.1638  0.3202
 2589SOL    HW2 9368   5.187   2.884   5.283 -1.6243 -0.7236  0.3298
 2590SOL     OW 9369   0.203   0.505   4.895 -0.0724  0.4056 -0.4300
 2590SOL    HW1 9370   0.147   0.429   4.862  0.3150  0.3144 -0.8991
 2590SOL    HW2 9371   0.224   0.566   4.818  0.4806  0.4288 -0.2680
 2591SOL     OW 9372   0.527   6.826   2.315  0.3026 -0.0724 -0.1923
 2591SOL    HW1 9373   0.437   6.867   2.327  0.4280  0.6297 -1.4195
 2591SOL    HW2 9374   0.576   6.827   2.402  0.0232  1.7505 -0.0039
 2592SOL     OW 9375   5.510   0.688   1.794 -0.1169 -0.3815  0.6092
 2592SOL    HW1 9376   5.471   0.662   1.882 -0.3826 -3.7923 -0.3965
 2592SOL    HW2 9377   5.465   0.770   1.760 -2.5505 -1.0635  2.0104
 2593SOL     OW 9378   5.882   4.105   2.973 -0.1037 -0.0843 -0.0849
 2593SOL    HW1 9379   5.899   4.049   2.892  0.0452  1.1788 -0.9590
 2593SOL    HW2 9380   5.956   4.171   2.983 -1.2553  1.2719 -0.2481
 2594SOL     OW 9381   1.613   3.564   2.265 -0.4917  0.4190  0.1746
 2594SOL    HW1 9382   1.515   3.543   2.270 -0.2460 -0.6508  0.7865
 2594SOL    HW2 9383   1.640   3.571   2.169 -1.0896  0.3151 -0.0096
 2595SOL     OW 9384   6.692   0.256   6.921  0.3788 -0.1275  0.2765
 2595SOL    HW1 9385   6.711   0.352   6.900  1.6418 -0.1132  1.3678
 2595SOL    HW2 9386   6.652   0.250   7.013 -4.2205 -0.2564 -1.4594
 2596SOL     OW 9387   4.841   4.045   1.378  0.1044  0.2188 -0.1552
 2596SOL    HW1 9388   4.841   4.064   1.280 -0.7069 -0.1216 -0.2303
 2596SOL    HW2 9389   4.834   4.131   1.429  2.7012  0.6048 -0.3129
 2597SOL     OW 9390   3.432   3.114   6.053  0.4134  0.1099  0.0560
 2597SOL    HW1 9391   3.485   3.109   6.138 -0.5999  1.5856  0.8230
 2597SOL    HW2 9392   3.490   3.145   5.979  0.7206  1.4508  0.8300
 2598SOL     OW 9393   4.020   6.959   6.068  0.3775  0.0233 -0.3323
 2598SOL    HW1 9394   4.060   7.018   5.997 -0.2864  0.7465 -0.1218
 2598SOL    HW2 9395   3.936   7.001   6.102 -0.4773 -1.3980 -0.6463
 2599SOL     OW 9396   6.432   6.134   2.462 -0.1306 -0.1939  0.1220
 2599SOL    HW1 9397   6.426   6.098   2.369  0.4425 -0.5998  0.2355
 2599SOL    HW2 9398   6.454   6.059   2.525  0.3769  0.2309  0.4609
 2600SOL     OW 9399   3.083   4.389   2.438  0.6493  0.2025 -0.7851
 2600SOL    HW1 9400   3.031   4.470   2.413  0.8328  0.2796 -0.9228
 2600SOL    HW2 9401   3.144   4.411   2.514  0.0107 -0.0616 -0.1891
 2601SOL     OW 9402   4.049   1.176   2.464 -0.0053 -0.7635  0.2302
 2601SOL    HW1 9403   4.064   1.118   2.544 -0.4836  1.2151  1.8315
 2601SOL    HW2 9404   4.135   1.185   2.413  1.2945  0.6594  2.4680
 2602SOL     OW 9405   2.886   1.260   6.270 -0.6579  0.2475 -0.7300
 2602SOL    HW1 9406   2.948   1.328   6.309 -0.7342 -0.9733  1.7117
 2602SOL    HW2 9407   2.875   1.277   6.172  0.7969  2.5600 -0.5644
 2603SOL     OW 9408   4.518   0.888   5.558 -0.4514  0.2021  0.0174
 2603SOL    HW1 9409   4.518   0.943   5.475  2.0563  0.4277  0.0767
 2603SOL    HW2 9410   4.504   0.792   5.534 -0.7772  0.3805 -0.5328
 2604SOL     OW 9411   3.270   3.738   3.260  0.9848  0.2321 -0.7261
 2604SOL    HW1 9412   3.334   3.801   3.216  0.6089  0.9292 -0.2894
 2604SOL    HW2 9413   3.193   3.722   3.198  0.1814  1.6488 -0.1412
 2605SOL     OW 9414   2.203   1.869   4.901  0.1930 -0.4039 -0.3373
 2605SOL    HW1 9415   2.175   1.960   4.869  0.0062 -0.3326  0.0264
 2605SOL    HW2 9416   2.195   1.865   5.001 -0.2296 -0.9624 -0.3906
 2606SOL     OW 9417   0.164   3.283   6.719 -0.4673  0.4394  0.6263
 2606SOL    HW1 9418   0.232   3.210   6.723  1.5562  2.0452 -1.2496
 2606SOL    HW2 9419   0.098   3.263   6.647  1.6346  1.5020 -1.7775
 2607SOL     OW 9420   6.656   1.122   3.142  0.0772 -0.7927  0.3992
 2607SOL    HW1 9421   6.645   1.163   3.052 -0.0357  0.5068  0.9808
 2607SOL    HW2 9422   6.690   1.028   3.132 -0.4951 -0.8735 -0.9969
 2608SOL     OW 9423   3.543   1.857   0.033 -0.3632 -0.2794 -0.1477
 2608SOL    HW1 9424   3.590   1.788  -0.023 -0.8014  0.1876 -1.1031
 2608SOL    HW2 9425   3.535   1.822   0.127 -0.7645 -1.6289 -0.6544
 2609SOL     OW 9426   0.337   3.675   3.889 -0.2286 -0.0628  0.1742
 2609SOL    HW1 9427   0.308   3.764   3.853 -1.4391 -1.1662 -1.7322
 2609SOL    HW2 9428   0.267   3.638   3.949 -0.2479 -0.2124  0.0626
 2610SOL     OW 9429   5.887   2.291   6.865 -0.2131  0.4325  0.2367
 2610SOL    HW1 9430   5.833   2.239   6.799 -0.2900 -0.9846  1.3529
 2610SOL    HW2 9431   5.829   2.315   6.943 -0.3100  2.6820 -0.4625
 2611SOL     OW 9432   4.679   0.629   5.293 -0.1696  0.3928  0.3064
 2611SOL    HW1 9433   4.714   0.542   5.258 -1.3376  0.3716 -0.8937
 2611SOL    HW2 9434   4.591   0.613   5.339  0.5128  0.6843  1.7930
 2612SOL     OW 9435   6.825   1.408   0.138 -0.0012  0.3814 -0.2997
 2612SOL    HW1 9436   6.764   1.351   0.083  0.6140  0.7742 -1.4315
 2612SOL    HW2 9437   6.871   1.351   0.206  0.7629 -0.5632 -1.5472
 2613SOL     OW 9438   4.601   0.039   6.428  0.3508 -0.0279  0.2160
 2613SOL    HW1 9439   4.525  -0.022   6.451 -0.0496  0.7807  1.1186
 2613SOL    HW2 9440   4.645   0.071   6.511  0.3558  1.1516 -0.2163
 2614SOL     OW 9441   0.648   4.450   6.293  0.1065  0.5152  0.2009
 2614SOL    HW1 9442   0.699   4.533   6.318 -0.4572  0.8257  0.3330
 2614SOL    HW2 9443   0.712   4.375   6.277  0.7037  1.2056 -0.8183
 2615SOL     OW 9444   0.122   6.445   0.297 -0.5024 -0.0272 -0.3883
 2615SOL    HW1 9445   0.036   6.475   0.338  0.0671  1.9827 -0.5880
 2615SOL    HW2 9446   0.107   6.422   0.201 -0.8640  0.0175 -0.3440
 2616SOL     OW 9447   6.433   2.764   1.471 -0.0399  0.1392  0.2205
 2616SOL    HW1 9448   6.458   2.737   1.563 -0.2316  1.8585  0.8110
 2616SOL    HW2 9449   6.469   2.697   1.405 -1.8592 -2.4042  1.6280
 2617SOL     OW 9450   6.873   4.343   0.788 -0.0374 -0.0290 -0.2591
 2617SOL    HW1 9451   6.810   4.292   0.730  0.5220 -0.8544 -0.1473
 2617SOL    HW2 9452   6.863   4.313   0.883  1.0622 -0.7368 -0.3470
 2618SOL     OW 9453   1.182   3.640   1.413  0.2672 -0.4087  0.9218
 2618SOL    HW1 9454   1.087   3.612   1.394  0.5133  0.8380 -2.9931
 2618SOL    HW2 9455   1.184   3.737   1.436  0.5890 -0.5743  1.6272
 2619SOL     OW 9456   2.979   2.146   2.104  0.5396 -0.0906 -0.7144
 2619SOL    HW1 9457   2.891   2.101   2.123  0.8938 -0.2777  0.5539
 2619SOL    HW2 9458   2.966   2.213   2.032 -0.7497  0.1555 -0.2878
 2620SOL     OW 9459   0.199   1.103   3.995  0.2082 -0.2125 -0.2152
 2620SOL    HW1 9460   0.186   1.051   4.079  0.1988 -0.1688 -0.1895
 2620SOL    HW2 9461   0.127   1.172   3.987  0.5318  0.1601  0.0234
 2621SOL     OW 9462   2.023   4.263   2.122 -0.0132  0.3278  0.1923
 2621SOL    HW1 9463   2.002   4.346   2.173 -2.0010  0.0365 -0.0839
 2621SOL    HW2 9464   1.975   4.265   2.034  0.8138 -0.6113 -0.2990
 2622SOL     OW 9465   4.965   6.987   6.428  0.0414 -0.0508 -0.1086
 2622SOL    HW1 9466   4.892   6.924   6.455  1.0313 -2.0318 -1.7009
 2622SOL    HW2 9467   4.938   7.081   6.448 -2.3396 -0.8190  0.6093
 2623SOL     OW 9468   5.103   0.022   5.542 -0.2547 -0.0543 -0.9532
 2623SOL    HW1 9469   5.009   0.007   5.573 -0.1633 -2.1500 -1.5215
 2623SOL    HW2 9470   5.112  -0.009   5.447  1.1067 -0.2625 -0.7797
 2624SOL     OW 9471   1.512   3.878   2.621 -0.3438 -0.2683 -0.2140
 2624SOL    HW1 9472   1.469   3.891   2.532 -2.5337 -0.2987  0.7731
 2624SOL    HW2 9473   1.537   3.782   2.632  0.3488 -0.1825 -0.9460
 2625SOL     OW 9474   5.492   5.666   5.376  0.2799 -0.1342  0.1646
 2625SOL    HW1 9475   5.541   5.744   5.336  0.7178 -0.5580 -0.1346
 2625SOL    HW2 9476   5.539   5.636   5.459  0.2258 -0.2093  0.1679
 2626SOL     OW 9477   2.716   1.415   1.543 -0.0296  0.1718 -0.8282
 2626SOL    HW1 9478   2.692   1.392   1.637 -1.5046  1.6326 -0.7982
 2626SOL    HW2 9479   2.644   1.382   1.482  0.3626  0.2386 -1.3326
 2627SOL     OW 9480   3.285   2.041   6.658 -0.0605 -0.4297  0.5411
 2627SOL    HW1 9481   3.218   1.972   6.629 -0.6532  0.4711 -0.2719
 2627SOL    HW2 9482   3.327   2.011   6.744 -0.1191 -1.9201  0.0820
 2628SOL     OW 9483   3.436   2.124   3.556  0.1396 -0.3231 -0.0797
 2628SOL    HW1 9484   3.452   2.026   3.557 -0.0182 -0.3526 -0.3554
 2628SOL    HW2 9485   3.465   2.163   3.468 -1.3271 -0.3948 -0.6304
 2629SOL     OW 9486   1.091   2.015   6.919  0.1297 -0.8340  0.2961
 2629SOL    HW1 9487   1.026   1.943   6.894  1.1258 -0.9537 -2.3051
 2629SOL    HW2 9488   1.088   2.088   6.851  0.1562  0.9645  2.1195
 2630SOL     OW 9489   3.420   5.789   5.378  0.2648 -0.2844  0.3221
 2630SOL    HW1 9490   3.336   5.738   5.398 -0.1999  0.7077  0.9654
 2630SOL    HW2 9491   3.434   5.793   5.279 -1.3413  0.9233  0.1087
 2631SOL     OW 9492   4.365   5.428   6.885 -0.7056  0.1099 -0.1135
 2631SOL    HW1 9493   4.348   5.526   6.896 -0.2037  0.2964 -0.8966
 2631SOL    HW2 9494   4.426   5.397   6.957 -0.1754  0.5710 -0.3471
 2632SOL     OW 9495   0.847   0.440   3.791 -0.0574  0.5285  0.7874
 2632SOL    HW1 9496   0.788   0.391   3.727 -0.7364  1.3455  0.7657
 2632SOL    HW2 9497   0.888   0.376   3.856  1.1463 -0.4080 -0.8322
 2633SOL     OW 9498   4.810   6.470   5.443 -0.5827 -0.4318  0.3943
 2633SOL    HW1 9499   4.743   6.403   5.476  0.2160 -0.9965  0.8971
 2633SOL    HW2 9500   4.901   6.428   5.442 -0.2523  0.2856 -0.4164
 2634SOL     OW 9501   0.328   1.269   0.138 -0.1762  0.3837  0.4123
 2634SOL    HW1 9502   0.342   1.210   0.217  0.9522  0.1073  0.0246
 2634SOL    HW2 9503   0.251   1.235   0.084 -0.5899  0.2455  1.0723
 2635SOL     OW 9504   0.552   1.092   1.092 -0.1825 -0.3158 -0.2973
 2635SOL    HW1 9505   0.540   1.005   1.044  1.3158 -0.1971 -0.9400
 2635SOL    HW2 9506   0.650   1.109   1.106 -0.4985  0.7981  0.7042
 2636SOL     OW 9507   6.767   4.987   1.842  0.1454  0.3791  0.2469
 2636SOL    HW1 9508   6.743   4.997   1.938 -1.4105  1.9806 -0.2545
 2636SOL    HW2 9509   6.705   4.922   1.798  0.5866 -0.0326  0.2199
 2637SOL     OW 9510   3.969   0.861   3.244 -0.0017  0.4398 -0.2737
 2637SOL    HW1 9511   3.988   0.866   3.146  1.2599  0.9967 -0.0208
 2637SOL    HW2 9512   3.978   0.951   3.285  1.6397 -0.1162  0.7010
 2638SOL     OW 9513   1.772   5.379   3.907 -0.0859 -0.1206 -0.0477
 2638SOL    HW1 9514   1.862   5.414   3.933 -1.1379  1.2598  2.0431
 2638SOL    HW2 9515   1.763   5.284   3.938  0.3827 -0.0191  0.4186
 2639SOL     OW 9516   1.614   4.376   2.028 -0.7986 -0.0551 -0.1950
 2639SOL    HW1 9517   1.661   4.463   2.040 -1.2864  0.0505  1.2428
 2639SOL    HW2 9518   1.585   4.342   2.118 -0.4845 -1.7779 -0.7109
 2640SOL     OW 9519   1.025   4.682   5.022  0.3123 -0.2141 -0.0089
 2640SOL    HW1 9520   1.113   4.724   5.042  0.0462  0.2809  0.1508
 2640SOL    HW2 9521   0.958   4.710   5.091 -0.6354  1.5565 -1.5629
 2641SOL     OW 9522   3.559   4.549   1.631  0.1675 -0.4745 -0.1266
 2641SOL    HW1 9523   3.460   4.558   1.619  0.3652  1.6318 -0.5483
 2641SOL    HW2 9524   3.593   4.478   1.569 -0.9247 -0.3697 -0.8835
 2642SOL     OW 9525   6.506   1.789   0.728 -0.5588 -0.1692  0.3220
 2642SOL    HW1 9526   6.545   1.876   0.759 -0.8533  0.2061 -0.3477
 2642SOL    HW2 9527   6.531   1.773   0.632 -0.6988 -0.7174  0.3706
 2643SOL     OW 9528   1.309   0.104   4.493 -0.4039  0.0630 -0.0045
 2643SOL    HW1 9529   1.388   0.051   4.524 -1.0001  1.3904  4.4570
 2643SOL    HW2 9530   1.340   0.179   4.434  1.2568 -0.9614 -0.5285
 2644SOL     OW 9531   1.131   2.407   3.366 -0.5094 -0.3109  0.1652
 2644SOL    HW1 9532   1.130   2.505   3.347 -4.3410 -0.2757 -0.3812
 2644SOL    HW2 9533   1.181   2.360   3.293  0.2421  1.1356 -0.2904
 2645SOL     OW 9534   6.027   4.673   6.345  0.4447  0.1182  0.0087
 2645SOL    HW1 9535   6.118   4.633   6.336 -0.3346 -1.4926 -1.3667
 2645SOL    HW2 9536   5.960   4.600   6.362 -0.8323  1.0224 -0.9215
 2646SOL     OW 9537   3.225   6.678   4.854 -0.1096 -0.0240  0.3981
 2646SOL    HW1 9538   3.238   6.756   4.791  1.1670 -1.6832 -1.5397
 2646SOL    HW2 9539   3.279   6.694   4.937  3.0799 -0.2429 -1.4303
 2647SOL     OW 9540   5.839   4.591   2.140 -0.6036  0.1214  0.6900
 2647SOL    HW1 9541   5.808   4.524   2.072  3.2140  0.1421 -1.3525
 2647SOL    HW2 9542   5.819   4.557   2.232 -1.1052 -2.5435 -0.3139
 2648SOL     OW 9543   6.010   6.263   6.562  0.0305 -0.2344 -0.0964
 2648SOL    HW1 9544   6.074   6.228   6.630  0.6480  3.1307  1.2819
 2648SOL    HW2 9545   5.918   6.266   6.602  0.2223  0.8462  0.3038
 2649SOL     OW 9546   6.084   5.979   3.776  0.3419  0.1808 -0.1541
 2649SOL    HW1 9547   6.166   6.031   3.752  1.1793 -1.7093 -1.7224
 2649SOL    HW2 9548   6.098   5.935   3.864  0.8132  0.2818 -0.1737
 2650SOL     OW 9549   1.384   0.620   0.799  0.6058 -0.1335  0.8047
 2650SOL    HW1 9550   1.375   0.562   0.880 -1.7987 -0.6268  0.2543
 2650SOL    HW2 9551   1.326   0.702   0.810  1.2517  0.4330  0.1159
 2651SOL     OW 9552   6.508   0.152   0.410  0.1598  0.5217  0.5323
 2651SOL    HW1 9553   6.560   0.170   0.493  0.6826 -1.1448  0.6077
 2651SOL    HW2 9554   6.466   0.062   0.416  0.0226  0.4622 -0.9181
 2652SOL     OW 9555   6.627   5.416   0.508  0.2034  0.4914  0.7276
 2652SOL    HW1 9556   6.571   5.339   0.539 -0.4413  0.1483 -1.1818
 2652SOL    HW2 9557   6.705   5.382   0.456 -0.3556  1.1141 -0.5616
 2653SOL     OW 9558   1.529   0.043   2.747  0.5537  0.3596  0.2709
 2653SOL    HW1 9559   1.599  -0.017   2.787  1.0597  0.2674 -0.7098
 2653SOL    HW2 9560   1.565   0.084   2.663 -0.0014  1.5744  0.5929
 2654SOL     OW 9561   6.201   5.832   3.479 -0.2457  0.6517 -0.1754
 2654SOL    HW1 9562   6.193   5.917   3.531  0.2188  0.7793 -0.3093
 2654SOL    HW2 9563   6.293   5.825   3.440 -0.6045  0.5858 -1.0291
 2655SOL     OW 9564   3.674   4.043   1.281 -0.0112  0.0509  0.3830
 2655SOL    HW1 9565   3.586   4.033   1.233  0.8648 -2.7526 -0.8490
 2655SOL    HW2 9566   3.670   3.996   1.369  0.8507 -2.0638 -0.6470
 2656SOL     OW 9567   0.575   2.449   4.540  0.3297  0.0873  0.1136
 2656SOL    HW1 9568   0.550   2.519   4.607 -0.4196 -0.1500  0.0920
 2656SOL    HW2 9569   0.555   2.481   4.448 -0.2540 -0.2490  0.1198
 2657SOL     OW 9570   2.742   5.737   6.237  0.8035 -0.5484  0.2256
 2657SOL    HW1 9571   2.738   5.768   6.332  0.4763 -1.2108  0.4322
 2657SOL    HW2 9572   2.688   5.799   6.180 -1.4301 -1.7618  0.9265
 2658SOL     OW 9573   0.566   1.829   0.910  0.6090  0.6928 -0.0664
 2658SOL    HW1 9574   0.579   1.861   0.816 -0.1059 -0.4858 -0.5972
 2658SOL    HW2 9575   0.545   1.906   0.969  1.6909  1.5426 -0.7420
 2659SOL     OW 9576   4.061   6.606   4.797  0.3116 -0.6434 -0.3819
 2659SOL    HW1 9577   3.975   6.616   4.748 -0.3823 -0.6095  0.8130
 2659SOL    HW2 9578   4.077   6.685   4.855  1.7008 -0.1423 -1.3814
 2660SOL     OW 9579   5.117   2.134   0.909 -0.0373 -0.6576 -0.0880
 2660SOL    HW1 9580   5.151   2.040   0.906 -3.1825 -1.9111  0.0410
 2660SOL    HW2 9581   5.066   2.148   0.995  0.7734  1.3469  0.1128
 2661SOL     OW 9582   5.897   0.634   3.042  0.1569  0.1341  0.1891
 2661SOL    HW1 9583   5.850   0.547   3.028 -0.4965  0.4105  0.6401
 2661SOL    HW2 9584   5.870   0.699   2.971  2.8138 -0.8761 -1.9003
 2662SOL     OW 9585   3.660   1.490   6.270 -0.5208 -0.1300 -0.2136
 2662SOL    HW1 9586   3.619   1.581   6.280 -0.9255 -0.3559  0.2456
 2662SOL    HW2 9587   3.731   1.478   6.340 -0.2758 -0.0618 -0.4526
 2663SOL     OW 9588   6.610   5.627   4.816 -0.1241 -0.2992  0.3666
 2663SOL    HW1 9589   6.620   5.563   4.739 -0.0113 -0.5463  0.5841
 2663SOL    HW2 9590   6.683   5.610   4.883  0.1089  0.2866  0.2670
 2664SOL     OW 9591   6.573   4.639   3.554  0.3088 -0.2782 -0.5220
 2664SOL    HW1 9592   6.668   4.646   3.525  0.2499  0.3482 -0.5659
 2664SOL    HW2 9593   6.561   4.555   3.607  0.8148 -0.5146 -0.7695
 2665SOL     OW 9594   0.965   6.806   5.194 -0.4246 -0.7109  0.2694
 2665SOL    HW1 9595   0.889   6.744   5.215  0.3569 -1.3981  1.1564
 2665SOL    HW2 9596   0.962   6.830   5.097 -2.1921 -0.1360  0.4314
 2666SOL     OW 9597   2.482   0.667   6.742  0.0511 -0.4588  0.0480
 2666SOL    HW1 9598   2.496   0.604   6.665 -1.3832 -0.5229 -0.1958
 2666SOL    HW2 9599   2.556   0.734   6.743  0.5224 -0.9288 -0.9145
 2667SOL     OW 9600   5.522   0.325   4.030  0.2331  0.0653  0.0381
 2667SOL    HW1 9601   5.610   0.299   4.069 -0.7943 -1.1104  1.6886
 2667SOL    HW2 9602   5.479   0.244   3.989 -0.4428  0.4401 -0.0016
 2668SOL     OW 9603   3.054   1.737   0.242 -0.6545 -0.3974 -0.1806
 2668SOL    HW1 9604   3.091   1.777   0.158 -2.8632  3.0540  0.3113
 2668SOL    HW2 9605   2.955   1.726   0.234 -0.6332 -2.1874  1.2308
 2669SOL     OW 9606   1.801   0.587   3.728  0.3794  0.0939  0.0006
 2669SOL    HW1 9607   1.867   0.551   3.794  0.8098 -0.0419 -0.4966
 2669SOL    HW2 9608   1.746   0.658   3.772  1.3292  0.7064  0.2208
 2670SOL     OW 9609   5.479   1.913   5.770 -0.7990  0.2399 -0.1334
 2670SOL    HW1 9610   5.561   1.858   5.762 -0.0514  1.4956 -1.9676
 2670SOL    HW2 9611   5.492   1.983   5.840  0.3347  1.3260 -1.3466
 2671SOL     OW 9612   0.112   4.808   6.635  0.2665 -0.1078  0.5478
 2671SOL    HW1 9613   0.183   4.741   6.651  1.3255  0.7313 -0.4980
 2671SOL    HW2 9614   0.123   4.848   6.544  0.0272  1.8806  1.3347
 2672SOL     OW 9615   0.800   6.200   3.886 -0.1293  0.2951  0.2768
 2672SOL    HW1 9616   0.735   6.267   3.849 -0.5452 -0.4809 -0.4304
 2672SOL    HW2 9617   0.760   6.109   3.880  1.7627 -0.4970 -2.0473
 2673SOL     OW 9618   2.646   2.557   0.065  0.2377  0.1925  0.0157
 2673SOL    HW1 9619   2.598   2.620   0.126  0.4884  0.7059 -0.3164
 2673SOL    HW2 9620   2.707   2.608   0.005  0.8985 -0.4156  0.1512
 2674SOL     OW 9621   6.217   6.017   5.579  0.2652  0.1255  0.0151
 2674SOL    HW1 9622   6.250   6.020   5.484 -0.0667 -1.2346 -0.1632
 2674SOL    HW2 9623   6.131   5.966   5.583 -0.1271  0.8324  0.9482
 2675SOL     OW 9624   1.712   6.890   6.023 -0.0438  0.1902  0.4330
 2675SOL    HW1 9625   1.726   6.939   6.109  0.3111  0.4875  0.2072
 2675SOL    HW2 9626   1.628   6.836   6.029  0.6315 -0.7956  1.4248
 2676SOL     OW 9627   0.481   3.415   2.726 -0.5438 -0.0716  0.6207
 2676SOL    HW1 9628   0.423   3.440   2.803 -0.2526 -1.0582  1.1733
 2676SOL    HW2 9629   0.448   3.461   2.643  0.1569  2.3735  1.6204
 2677SOL     OW 9630   5.265   5.329   2.356 -0.4090 -0.3203 -0.3152
 2677SOL    HW1 9631   5.236   5.285   2.442 -1.4685  0.5718 -0.1919
 2677SOL    HW2 9632   5.219   5.285   2.279 -0.1876 -0.5008 -0.3466
 2678SOL     OW 9633   3.954   6.860   4.609  0.2351 -0.2806 -0.1332
 2678SOL    HW1 9634   3.912   6.947   4.635  0.4417 -0.1481 -0.2410
 2678SOL    HW2 9635   3.886   6.801   4.567  0.1271 -0.1133 -0.1922
 2679SOL     OW 9636   2.171   0.074   5.210 -0.4362 -0.1903 -0.3058
 2679SOL    HW1 9637   2.184  -0.025   5.212 -1.2485 -0.2895  0.5735
 2679SOL    HW2 9638   2.256   0.119   5.239 -0.5141 -0.6794  0.7131
 2680SOL     OW 9639   4.136   1.810   4.786  0.0182  0.2085 -0.3986
 2680SOL    HW1 9640   4.217   1.867   4.777  0.0456  0.4766  1.2539
 2680SOL    HW2 9641   4.068   1.838   4.718  0.6337  1.1373 -0.6461
 2681SOL     OW 9642   4.701   1.019   2.816  0.5675 -0.5065  0.3089
 2681SOL    HW1 9643   4.623   1.082   2.820  1.1162  0.3536 -1.4248
 2681SOL    HW2 9644   4.668   0.925   2.808 -0.3147 -0.1389 -0.5509
 2682SOL     OW 9645   3.678   2.935   1.852 -0.3005 -0.1610 -0.6028
 2682SOL    HW1 9646   3.700   2.946   1.755 -0.8587 -0.8996 -0.8172
 2682SOL    HW2 9647   3.738   2.865   1.892  0.5036  0.7343 -0.2029
 2683SOL     OW 9648   3.996   0.049   3.384 -0.4641 -0.3920  0.0794
 2683SOL    HW1 9649   4.014   0.141   3.349 -2.8959 -0.5083 -1.7095
 2683SOL    HW2 9650   4.081  -0.004   3.383  0.6295  1.2929 -0.4954
 2684SOL     OW 9651   5.696   6.731   6.796 -0.0224  0.2973 -0.1855
 2684SOL    HW1 9652   5.632   6.655   6.784  0.7093 -0.2563 -0.6523
 2684SOL    HW2 9653   5.789   6.700   6.777  0.4389  0.9971  0.8312
 2685SOL     OW 9654   0.878   2.153   5.337 -0.2695  0.2251 -0.6938
 2685SOL    HW1 9655   0.859   2.244   5.300  0.2744  0.3536 -0.6712
 2685SOL    HW2 9656   0.896   2.090   5.262  0.5245  0.4138 -0.6731
 2686SOL     OW 9657   3.647   3.488   3.524 -0.0693 -0.3706 -0.0404
 2686SOL    HW1 9658   3.682   3.576   3.555  1.0057 -0.5843 -0.5891
 2686SOL    HW2 9659   3.547   3.488   3.527 -0.0527 -0.0509  2.4459
 2687SOL     OW 9660   6.993   5.162   1.836 -0.3825 -0.4257  0.8027
 2687SOL    HW1 9661   7.078   5.136   1.790  1.2635  0.4542  3.0998
 2687SOL    HW2 9662   6.951   5.082   1.877 -2.2058 -1.3343 -2.4937
 2688SOL     OW 9663   1.955   1.737   2.698  0.1821  0.7310 -0.2465
 2688SOL    HW1 9664   2.012   1.768   2.622  0.7447 -0.4472 -0.3254
 2688SOL    HW2 9665   2.002   1.664   2.747 -0.1784  1.4660  1.2389
 2689SOL     OW 9666   6.624   6.196   5.697 -0.2403  0.2946 -0.0956
 2689SOL    HW1 9667   6.525   6.180   5.703  0.0153 -1.0457  1.2358
 2689SOL    HW2 9668   6.645   6.247   5.614 -2.0430  0.5512 -0.4275
 2690SOL     OW 9669   0.605   4.576   1.700  0.7918  0.0582 -0.6884
 2690SOL    HW1 9670   0.539   4.523   1.754  0.6534  1.1155  0.2238
 2690SOL    HW2 9671   0.695   4.534   1.707  0.3603 -1.0191 -1.3919
 2691SOL     OW 9672   3.794   0.169   1.739 -0.3690 -0.3699  0.1032
 2691SOL    HW1 9673   3.736   0.088   1.737 -0.4806 -0.3018  0.4708
 2691SOL    HW2 9674   3.742   0.246   1.775  0.2655 -0.5676  1.5068
 2692SOL     OW 9675   6.582   4.396   5.320  0.1180 -0.6525  0.0773
 2692SOL    HW1 9676   6.519   4.354   5.385 -0.5088 -2.8656 -1.8321
 2692SOL    HW2 9677   6.662   4.337   5.308  0.5226  0.0284 -0.6665
 2693SOL     OW 9678   2.026   5.741   6.159  0.0390  0.0274  0.4787
 2693SOL    HW1 9679   2.090   5.767   6.088  0.0460 -1.8749 -0.2561
 2693SOL    HW2 9680   2.075   5.702   6.237 -0.1913 -1.5702 -0.1457
 2694SOL     OW 9681   3.352   6.136   3.399 -0.0492 -0.4391 -0.1262
 2694SOL    HW1 9682   3.358   6.207   3.330  0.9424 -1.2233 -0.8653
 2694SOL    HW2 9683   3.263   6.090   3.391 -0.5387  0.4348  0.1094
 2695SOL     OW 9684   6.136   0.829   6.126  0.4906 -0.2236 -0.5358
 2695SOL    HW1 9685   6.128   0.926   6.147  0.1465 -0.0820 -1.2904
 2695SOL    HW2 9686   6.046   0.791   6.105  0.4799 -0.9470  0.7155
 2696SOL     OW 9687   6.248   1.908   6.291 -0.6687  0.6134  0.4737
 2696SOL    HW1 9688   6.193   1.834   6.330 -1.2256 -0.0757 -1.4743
 2696SOL    HW2 9689   6.330   1.869   6.249 -0.6564  1.1809 -0.0345
 2697SOL     OW 9690   0.235   1.025   0.558 -0.4555 -0.1845  0.3803
 2697SOL    HW1 9691   0.289   1.008   0.476 -0.6950 -0.3047  0.2467
 2697SOL    HW2 9692   0.255   1.117   0.592  0.8874 -0.7275  1.1439
 2698SOL     OW 9693   1.471   0.273   1.249  0.3829  0.4575 -0.8794
 2698SOL    HW1 9694   1.432   0.270   1.341  0.2493  0.7459 -0.9260
 2698SOL    HW2 9695   1.558   0.225   1.248  0.2892  0.2821 -0.6474
 2699SOL     OW 9696   5.598   6.353   1.008 -0.6876  0.3216  0.0135
 2699SOL    HW1 9697   5.648   6.313   0.932 -1.4197 -1.4515  0.4211
 2699SOL    HW2 9698   5.661   6.368   1.085 -0.3429  0.2434 -0.2505
 2700SOL     OW 9699   2.774   2.462   2.086  0.0717 -0.1316  0.0613
 2700SOL    HW1 9700   2.733   2.519   2.157  1.1737 -0.2791  0.8454
 2700SOL    HW2 9701   2.860   2.423   2.120  1.1576  0.5916 -1.6899
 2701SOL     OW 9702   5.526   6.642   0.959  0.4404  0.2567  0.1187
 2701SOL    HW1 9703   5.549   6.662   0.864 -1.4399  0.0575 -0.4072
 2701SOL    HW2 9704   5.543   6.546   0.979  1.6491  0.4857  0.2536
 2702SOL     OW 9705   2.106   1.400   5.728  0.2689  0.3490 -0.3474
 2702SOL    HW1 9706   2.058   1.329   5.780  0.1096  0.5871 -0.1685
 2702SOL    HW2 9707   2.202   1.403   5.757  0.1331  0.6201  0.0845
 2703SOL     OW 9708   4.086   0.413   6.922  0.2000 -0.0924 -0.5152
 2703SOL    HW1 9709   4.056   0.482   6.857 -2.9424 -0.2319  0.6469
 2703SOL    HW2 9710   4.160   0.450   6.979 -2.0214  2.7625  0.7250
 2704SOL     OW 9711   0.628   1.707   1.774 -0.2264 -0.6988  0.5468
 2704SOL    HW1 9712   0.618   1.803   1.748 -3.1117 -0.7521  1.1419
 2704SOL    HW2 9713   0.718   1.693   1.816  1.0091  1.2815 -1.2473
 2705SOL     OW 9714   6.338   6.195   1.934 -0.2406 -0.5393 -0.4292
 2705SOL    HW1 9715   6.256   6.138   1.924  0.2224 -1.0611 -1.4530
 2705SOL    HW2 9716   6.399   6.153   2.001 -1.9785  1.3088  2.5248
 2706SOL     OW 9717   2.189   3.192   6.074  0.3797  0.1964  0.2828
 2706SOL    HW1 9718   2.127   3.211   6.151 -1.7900  0.0594 -1.3412
 2706SOL    HW2 9719   2.141   3.208   5.988  1.9193 -2.0586 -1.0909
 2707SOL     OW 9720   6.563   6.480   2.860  0.0247  0.0926  0.1546
 2707SOL    HW1 9721   6.558   6.380   2.865  0.0683 -0.1770 -3.1395
 2707SOL    HW2 9722   6.481   6.516   2.815 -0.4367  1.7103  2.1126
 2708SOL     OW 9723   1.302   0.266   6.923  0.1959 -0.2088  0.0296
 2708SOL    HW1 9724   1.249   0.226   6.848  0.5666 -1.6259  0.4867
 2708SOL    HW2 9725   1.375   0.322   6.886 -0.2469 -0.0806 -0.6536
 2709SOL     OW 9726   2.063   5.980   3.019  0.0833 -0.0051  0.4995
 2709SOL    HW1 9727   1.994   5.950   3.085  0.8886 -1.6834  0.6431
 2709SOL    HW2 9728   2.153   5.982   3.064  0.4219  0.2047 -0.1796
 2710SOL     OW 9729   5.412   3.403   5.902 -0.2077 -0.8326  0.1211
 2710SOL    HW1 9730   5.316   3.428   5.913  0.1130  0.0779  0.9823
 2710SOL    HW2 9731   5.468   3.460   5.962  1.1120  0.3211 -2.0956
 2711SOL     OW 9732   6.594   3.894   6.367 -0.1265  0.1940 -0.2230
 2711SOL    HW1 9733   6.674   3.945   6.398 -0.9079  2.7775 -2.1386
 2711SOL    HW2 9734   6.624   3.818   6.310  1.0216  1.7688 -1.8313
 2712SOL     OW 9735   1.884   0.895   5.572 -0.5930 -0.0142 -0.8209
 2712SOL    HW1 9736   1.949   0.848   5.512 -0.8828  0.8691 -1.8618
 2712SOL    HW2 9737   1.810   0.933   5.517 -0.4804  1.4604 -0.0089
 2713SOL     OW 9738   0.883   1.498   6.029 -0.1105  0.1412 -0.4630
 2713SOL    HW1 9739   0.910   1.466   5.939  0.3900  0.0395 -0.2821
 2713SOL    HW2 9740   0.909   1.430   6.098  3.8815  2.1271  0.3157
 2714SOL     OW 9741   0.829   0.020   0.175 -0.0615 -0.0230 -0.2302
 2714SOL    HW1 9742   0.763   0.031   0.100  0.9739 -0.7772 -1.2845
 2714SOL    HW2 9743   0.887   0.101   0.180  0.1987 -0.1824 -0.5927
 2715SOL     OW 9744   4.354   1.718   3.024  0.4172  0.2820  0.1808
 2715SOL    HW1 9745   4.431   1.770   3.060  1.7087 -1.4560  0.0268
 2715SOL    HW2 9746   4.381   1.672   2.940 -1.0971  0.3838 -0.3932
 2716SOL     OW 9747   6.469   1.873   6.155  0.2453 -0.4796  0.0755
 2716SOL    HW1 9748   6.484   1.774   6.160 -1.3370 -0.7267  0.7758
 2716SOL    HW2 9749   6.455   1.900   6.060  1.0649 -0.8521 -0.1594
 2717SOL     OW 9750   1.635   2.303   4.080 -0.3124  0.2779  0.4072
 2717SOL    HW1 9751   1.559   2.334   4.137 -0.1149  1.6730 -0.0472
 2717SOL    HW2 9752   1.669   2.215   4.115 -1.6897 -0.0432  1.0106
 2718SOL     OW 9753   5.879   0.624   2.072 -0.2285  0.4364  0.3046
 2718SOL    HW1 9754   5.918   0.674   1.994  0.0221 -0.7824 -0.3682
 2718SOL    HW2 9755   5.869   0.528   2.049  1.6847 -0.3631  2.4301
 2719SOL     OW 9756   1.777   2.762   5.609 -0.1394 -0.1715  0.5783
 2719SOL    HW1 9757   1.715   2.710   5.550 -1.0246  1.6449 -0.1697
 2719SOL    HW2 9758   1.767   2.860   5.589  1.7450  0.2802  1.6517
 2720SOL     OW 9759   2.673   5.718   4.449  0.3005  0.1445 -0.6935
 2720SOL    HW1 9760   2.746   5.659   4.415  2.1580  1.1034  1.3465
 2720SOL    HW2 9761   2.631   5.676   4.529  0.3775  0.7291 -0.3378
 2721SOL     OW 9762   0.732   1.483   3.364 -1.1527  0.2930  0.6456
 2721SOL    HW1 9763   0.681   1.547   3.422 -0.9889 -0.9441  2.2402
 2721SOL    HW2 9764   0.699   1.390   3.380  1.2599 -0.5246  1.4653
 2722SOL     OW 9765   1.819   1.361   3.167  0.5137  0.7170 -0.5729
 2722SOL    HW1 9766   1.887   1.297   3.202 -0.2290 -0.7104 -1.6624
 2722SOL    HW2 9767   1.738   1.311   3.137 -0.8468  2.3338  0.2457
 2723SOL     OW 9768   3.721   6.101   0.638 -0.2749  0.1586  0.4571
 2723SOL    HW1 9769   3.780   6.182   0.636 -1.3402  0.9525 -0.7098
 2723SOL    HW2 9770   3.634   6.125   0.681 -0.4934 -0.4565  0.3645
 2724SOL     OW 9771   2.480   2.838   5.791 -0.1178  0.7491  0.3992
 2724SOL    HW1 9772   2.528   2.769   5.845  0.9542  2.1255  1.2578
 2724SOL    HW2 9773   2.530   2.854   5.706 -0.5655  0.2189  0.0312
 2725SOL     OW 9774   3.789   4.195   1.951  0.1599 -0.5349 -0.2682
 2725SOL    HW1 9775   3.829   4.215   2.040 -1.0863 -1.3385  0.5076
 2725SOL    HW2 9776   3.716   4.261   1.932 -1.3764 -1.9303  0.5572
 2726SOL     OW 9777   6.481   2.154   4.891  0.1373  0.6192  0.6019
 2726SOL    HW1 9778   6.395   2.118   4.855 -0.2127 -0.5933  2.4925
 2726SOL    HW2 9779   6.532   2.198   4.817 -1.7836  0.7994 -0.7110
 2727SOL     OW 9780   0.869   3.008   3.495  0.2580 -0.0482  0.5334
 2727SOL    HW1 9781   0.791   2.996   3.433 -0.0413  1.5834  0.5611
 2727SOL    HW2 9782   0.862   2.941   3.569 -0.6700 -0.4700  0.0896
 2728SOL     OW 9783   0.592   5.206   1.797 -0.2919  0.1058 -0.4251
 2728SOL    HW1 9784   0.659   5.243   1.862  0.4572 -0.5724 -0.7969
 2728SOL    HW2 9785   0.511   5.265   1.796  0.2883  0.9341  0.0376
 2729SOL     OW 9786   3.439   3.783   1.809 -0.0846 -0.1933  0.5583
 2729SOL    HW1 9787   3.490   3.706   1.770 -0.6159 -0.7422  0.9258
 2729SOL    HW2 9788   3.348   3.752   1.836 -1.0646  1.0502 -1.1788
 2730SOL     OW 9789   1.116   5.947   1.796  0.0274 -0.2187  0.2807
 2730SOL    HW1 9790   1.100   5.897   1.712 -0.2769 -0.8590  0.7131
 2730SOL    HW2 9791   1.146   6.040   1.775  0.5582 -0.5674 -0.5252
 2731SOL     OW 9792   3.501   2.483   5.197 -0.2182 -0.2896  0.0258
 2731SOL    HW1 9793   3.470   2.579   5.197 -0.8482 -0.4765 -0.9133
 2731SOL    HW2 9794   3.421   2.423   5.188  0.0075 -0.9950  2.1873
 2732SOL     OW 9795   2.982   1.194   4.980 -0.1847  0.4209 -0.3076
 2732SOL    HW1 9796   3.037   1.198   5.063 -0.4122 -0.4020 -0.1172
 2732SOL    HW2 9797   2.917   1.270   4.980 -0.4171  0.2273  0.4305
 2733SOL     OW 9798   4.854   2.297   1.766 -0.0751 -0.2193  0.1118
 2733SOL    HW1 9799   4.817   2.352   1.841 -0.2952  0.7255 -0.6714
 2733SOL    HW2 9800   4.877   2.206   1.800 -2.1313 -0.5086  0.8652
 2734SOL     OW 9801   3.444   3.122   6.333  0.8481 -0.0567 -0.6504
 2734SOL    HW1 9802   3.536   3.109   6.369  0.9025 -0.9235 -1.0764
 2734SOL    HW2 9803   3.384   3.051   6.369  0.1550  0.9573  0.2336
 2735SOL     OW 9804   1.220   6.837   1.944 -0.6170  0.5219  0.0464
 2735SOL    HW1 9805   1.171   6.873   2.024 -3.0347 -0.8840 -0.6806
 2735SOL    HW2 9806   1.160   6.773   1.895  1.2296  0.4181 -2.2300
 2736SOL     OW 9807   5.716   1.057   2.743  0.2183  0.0573  0.5303
 2736SOL    HW1 9808   5.651   1.131   2.762 -0.3066 -0.0340 -0.8088
 2736SOL    HW2 9809   5.802   1.076   2.789  0.0263  1.4110  0.3789
 2737SOL     OW 9810   1.480   3.431   0.800  0.2111  0.4733 -0.3354
 2737SOL    HW1 9811   1.394   3.382   0.814  0.4454 -0.9275 -3.1949
 2737SOL    HW2 9812   1.467   3.528   0.819 -2.3707  0.5114 -1.8778
 2738SOL     OW 9813   1.648   1.775   0.360 -0.2573 -0.5362  0.4937
 2738SOL    HW1 9814   1.613   1.765   0.453 -0.4508  0.3759  0.5213
 2738SOL    HW2 9815   1.685   1.687   0.329  0.1091 -0.7572  1.5418
 2739SOL     OW 9816   1.360   0.389   6.652 -0.0001 -0.6521 -0.2824
 2739SOL    HW1 9817   1.363   0.396   6.552  0.1002 -1.3828 -0.3338
 2739SOL    HW2 9818   1.275   0.429   6.686  1.4371  2.8165 -0.3581
 2740SOL     OW 9819   6.468   4.312   0.783  0.7179  0.1712 -0.4756
 2740SOL    HW1 9820   6.490   4.276   0.873  2.3162 -2.3105 -1.7518
 2740SOL    HW2 9821   6.459   4.412   0.788  0.4607  0.0753  2.4237
 2741SOL     OW 9822   6.368   3.227   4.402  0.5402 -0.2452 -0.0346
 2741SOL    HW1 9823   6.386   3.282   4.484  0.4551 -0.2635 -0.0029
 2741SOL    HW2 9824   6.400   3.134   4.416 -0.4551 -0.5352  0.3933
 2742SOL     OW 9825   0.460   2.393   3.087 -0.1833  0.8786  0.8019
 2742SOL    HW1 9826   0.384   2.328   3.087  0.1832  0.4288  1.4437
 2742SOL    HW2 9827   0.527   2.366   3.018 -0.7555  1.4735 -0.0049
 2743SOL     OW 9828   5.454   6.845   0.268  0.4011  0.1870 -0.4874
 2743SOL    HW1 9829   5.493   6.910   0.334  1.0212 -0.5432 -0.1167
 2743SOL    HW2 9830   5.522   6.775   0.246 -0.3988 -0.6071 -0.5110
 2744SOL     OW 9831   3.530   6.781   5.008 -0.2053  0.4580 -0.0078
 2744SOL    HW1 9832   3.479   6.843   4.948 -1.1879 -0.0236  0.3173
 2744SOL    HW2 9833   3.602   6.736   4.956 -0.2141  1.0150 -0.5120
 2745SOL     OW 9834   6.237   1.306   2.934 -0.1694  0.1225 -0.0891
 2745SOL    HW1 9835   6.161   1.244   2.921  0.7166 -1.2319  0.9248
 2745SOL    HW2 9836   6.212   1.377   3.000 -0.7271  0.0008 -0.1704
 2746SOL     OW 9837   1.325   5.936   3.850  1.1791 -0.5776  0.0567
 2746SOL    HW1 9838   1.274   5.973   3.772  1.7445  0.2674  0.0725
 2746SOL    HW2 9839   1.345   5.840   3.835  1.8302 -0.2723 -1.1409
 2747SOL     OW 9840   3.646   0.541   2.395 -0.0744 -0.7879 -0.4083
 2747SOL    HW1 9841   3.685   0.600   2.324 -0.9898  0.1510 -0.1600
 2747SOL    HW2 9842   3.592   0.597   2.458 -0.0778 -1.7518  0.4666
 2748SOL     OW 9843   2.043   4.906   1.289 -0.3197  0.1922 -0.3660
 2748SOL    HW1 9844   2.106   4.872   1.219 -0.0579 -0.9972  0.4237
 2748SOL    HW2 9845   1.952   4.865   1.275 -0.1813 -0.3097  0.1786
 2749SOL     OW 9846   5.237   6.351   1.819  0.2230 -0.1356  0.1110
 2749SOL    HW1 9847   5.273   6.267   1.860  1.2787 -0.6653 -1.7811
 2749SOL    HW2 9848   5.162   6.328   1.757  0.4540  0.3028 -0.3438
 2750SOL     OW 9849   5.921   0.513   4.349 -0.0288  0.2348  0.4048
 2750SOL    HW1 9850   5.839   0.465   4.380 -0.6537  1.2540  0.3796
 2750SOL    HW2 9851   5.897   0.606   4.322  1.0747  0.4195  0.0050
 2751SOL     OW 9852   3.083   5.614   2.421 -0.2796 -0.2623 -0.6110
 2751SOL    HW1 9853   3.130   5.698   2.447  1.0812 -0.4424 -2.2413
 2751SOL    HW2 9854   3.092   5.601   2.322 -2.6671 -1.0283 -0.7832
 2752SOL     OW 9855   2.476   6.775   6.016  0.4262 -0.8030  0.0159
 2752SOL    HW1 9856   2.510   6.791   5.923  2.3268  0.7101  0.9072
 2752SOL    HW2 9857   2.392   6.826   6.030  0.3902 -0.6484 -0.7170
 2753SOL     OW 9858   4.756   2.749   1.508  0.0738 -0.1816 -0.5249
 2753SOL    HW1 9859   4.702   2.772   1.427 -0.1818  0.0567 -0.2885
 2753SOL    HW2 9860   4.756   2.650   1.521 -0.0391 -0.2059 -0.7063
 2754SOL     OW 9861   6.600   2.602   3.449 -0.6472  0.4090 -0.6070
 2754SOL    HW1 9862   6.562   2.610   3.542  0.1865  0.7812 -0.2870
 2754SOL    HW2 9863   6.647   2.687   3.425 -1.4600  0.5751 -1.6549
 2755SOL     OW 9864   4.135   1.157   2.029 -0.2303  0.1962  0.6375
 2755SOL    HW1 9865   4.141   1.223   2.104  0.2716  1.6106 -0.5889
 2755SOL    HW2 9866   4.116   1.206   1.943 -0.6888 -1.3581 -0.1869
 2756SOL     OW 9867   2.345   2.902   3.786 -0.4638  0.5538  0.2520
 2756SOL    HW1 9868   2.274   2.947   3.840 -1.7340 -0.1501 -0.7900
 2756SOL    HW2 9869   2.304   2.858   3.706  1.1344  0.0235 -0.3180
 2757SOL     OW 9870   3.976   0.377   4.165  0.2525 -0.0246 -0.5064
 2757SOL    HW1 9871   3.890   0.365   4.215  0.7261 -0.6639  0.1763
 2757SOL    HW2 9872   3.962   0.353   4.069 -0.3254 -0.1613 -0.3905
 2758SOL     OW 9873   4.063   4.037   5.513 -0.0291  0.0954 -0.1964
 2758SOL    HW1 9874   4.091   4.123   5.555 -0.5613  0.2659 -0.1803
 2758SOL    HW2 9875   4.088   3.961   5.574 -2.6505  0.4696  1.4958
 2759SOL     OW 9876   6.607   5.463   2.957 -0.1721 -0.2394 -0.7957
 2759SOL    HW1 9877   6.557   5.518   2.890 -1.5424 -0.1658  0.2371
 2759SOL    HW2 9878   6.548   5.388   2.988  1.5657 -2.2438 -2.0274
 2760SOL     OW 9879   2.568   6.548   6.287 -0.0211 -0.0415  0.4548
 2760SOL    HW1 9880   2.483   6.566   6.336 -1.9082 -1.1354 -2.2118
 2760SOL    HW2 9881   2.578   6.450   6.272  2.0212  0.0154  1.1306
 2761SOL     OW 9882   1.312   5.419   0.415 -0.0583 -0.1483 -0.1846
 2761SOL    HW1 9883   1.368   5.373   0.345 -1.6256 -2.9579  0.2582
 2761SOL    HW2 9884   1.371   5.457   0.486  1.3731 -1.2851 -0.7222
 2762SOL     OW 9885   5.836   2.444   2.317  0.1705 -0.5183 -0.7784
 2762SOL    HW1 9886   5.852   2.409   2.409 -2.1280  1.0180  0.3212
 2762SOL    HW2 9887   5.754   2.401   2.279  0.4104 -0.2600 -1.6163
 2763SOL     OW 9888   0.627   4.530   6.688 -0.6026 -0.4229 -0.0117
 2763SOL    HW1 9889   0.628   4.628   6.708  0.3103 -0.3978 -0.1528
 2763SOL    HW2 9890   0.554   4.509   6.623 -1.6205 -0.0351  0.9645
 2764SOL     OW 9891   4.317   6.673   6.262 -0.0517  0.1596 -0.6864
 2764SOL    HW1 9892   4.244   6.616   6.224  0.7945 -2.3410  1.1329
 2764SOL    HW2 9893   4.399   6.618   6.274  1.7171  2.5113 -1.2739
 2765SOL     OW 9894   6.969   0.499   3.385 -0.5308  0.4629 -0.2151
 2765SOL    HW1 9895   6.924   0.453   3.308  2.6078 -2.1681 -0.7196
 2765SOL    HW2 9896   6.952   0.448   3.469  0.3335  0.2091 -0.1795
 2766SOL     OW 9897   4.603   1.641   4.467 -0.5349 -0.1697 -0.3391
 2766SOL    HW1 9898   4.542   1.717   4.445 -2.9399 -1.2994  1.8581
 2766SOL    HW2 9899   4.549   1.557   4.480  1.4514 -1.2271  1.8652
 2767SOL     OW 9900   2.834   5.875   3.222 -0.4550  0.4040  0.1095
 2767SOL    HW1 9901   2.882   5.852   3.307  1.1087  1.3457 -0.4838
 2767SOL    HW2 9902   2.794   5.966   3.230  0.0905  0.6887 -0.3019
 2768SOL     OW 9903   0.811   3.197   1.463 -0.5161 -0.3895 -0.4479
 2768SOL    HW1 9904   0.795   3.141   1.545 -0.3279  1.9073  1.2331
 2768SOL    HW2 9905   0.746   3.272   1.461  1.0028  0.9620 -1.1303
 2769SOL     OW 9906   6.068   3.952   1.325 -0.0133  0.1102  0.5336
 2769SOL    HW1 9907   5.999   3.882   1.306 -1.1306  1.1678  0.5747
 2769SOL    HW2 9908   6.105   3.938   1.417  0.0903 -0.6665  0.3809
 2770SOL     OW 9909   2.319   0.464   5.081 -0.4268  0.2527  0.0421
 2770SOL    HW1 9910   2.408   0.436   5.045 -0.0691 -0.5996  1.5203
 2770SOL    HW2 9911   2.324   0.474   5.180 -2.0548 -0.1082  0.1933
 2771SOL     OW 9912   5.023   4.378   1.208 -0.1284 -1.1704  0.1116
 2771SOL    HW1 9913   5.079   4.414   1.134  0.1837  0.8350  1.2687
 2771SOL    HW2 9914   4.939   4.432   1.216 -0.3732 -1.6503  0.9259
 2772SOL     OW 9915   5.037   6.232   2.729 -0.0659  0.4380  0.5818
 2772SOL    HW1 9916   5.046   6.280   2.641 -3.4469  2.4142  1.1192
 2772SOL    HW2 9917   5.045   6.299   2.803 -3.5447  0.1479  1.4135
 2773SOL     OW 9918   6.837   1.441   1.873 -0.3145 -0.6245 -0.1681
 2773SOL    HW1 9919   6.740   1.456   1.850  0.0067  0.0679 -1.1570
 2773SOL    HW2 9920   6.867   1.354   1.836 -0.3796 -0.5129 -0.4899
 2774SOL     OW 9921   2.072   0.606   0.809 -0.9784  0.3365 -0.3055
 2774SOL    HW1 9922   2.155   0.628   0.859 -0.3884  0.7370 -1.4097
 2774SOL    HW2 9923   2.074   0.652   0.720 -2.6615  0.8410 -0.1193
 2775SOL     OW 9924   0.772   5.114   1.396 -0.3937  0.1107  0.3632
 2775SOL    HW1 9925   0.782   5.020   1.366  0.4169  0.4246 -0.3988
 2775SOL    HW2 9926   0.686   5.125   1.446 -1.5883 -0.5173 -1.4809
 2776SOL     OW 9927   2.021   1.809   2.415  0.2908  0.4514 -0.2055
 2776SOL    HW1 9928   2.007   1.800   2.317 -0.8075 -0.0829 -0.0117
 2776SOL    HW2 9929   2.008   1.904   2.442 -0.2998  0.4410 -0.4485
 2777SOL     OW 9930   3.044   0.418   0.705 -0.5073 -0.2996  0.0876
 2777SOL    HW1 9931   3.133   0.375   0.691  0.1846  0.3047  2.2357
 2777SOL    HW2 9932   2.982   0.354   0.750 -0.4213 -0.0027  0.6367
 2778SOL     OW 9933   0.060   1.371   6.447  0.2664 -0.5790 -0.0139
 2778SOL    HW1 9934   0.149   1.342   6.484  0.1703 -0.3516  0.4031
 2778SOL    HW2 9935   0.032   1.309   6.374  0.8991 -0.4979 -0.3384
 2779SOL     OW 9936   1.346   5.796   5.357  0.2801 -0.5425 -0.1778
 2779SOL    HW1 9937   1.294   5.837   5.281  0.7745 -1.8348 -1.2493
 2779SOL    HW2 9938   1.334   5.852   5.439 -1.2819  0.2211 -0.8760
 2780SOL     OW 9939   4.103   3.559   1.539 -0.3820 -0.0008 -1.2219
 2780SOL    HW1 9940   4.078   3.491   1.608  0.7127 -0.3796 -1.1804
 2780SOL    HW2 9941   4.032   3.629   1.534 -1.4494 -1.0585 -1.1536
 2781SOL     OW 9942   4.539   1.462   5.274 -0.1217  0.0890 -0.3859
 2781SOL    HW1 9943   4.504   1.381   5.321  0.3139  0.8214  1.2736
 2781SOL    HW2 9944   4.476   1.488   5.201 -1.8469 -0.0030  1.0041
 2782SOL     OW 9945   1.694   1.456   2.289 -0.1427  0.2218 -0.0593
 2782SOL    HW1 9946   1.791   1.476   2.303  0.1240 -0.1732 -1.2369
 2782SOL    HW2 9947   1.642   1.483   2.370  1.0179 -0.0408  0.7908
 2783SOL     OW 9948   0.150   5.801   3.150  0.3197 -0.1134 -0.1788
 2783SOL    HW1 9949   0.155   5.873   3.080  0.4685  2.2307  2.0735
 2783SOL    HW2 9950   0.242   5.781   3.183  0.2647 -1.3119 -0.7274
 2784SOL     OW 9951   3.943   0.417   5.696  0.1879 -0.4413 -0.3085
 2784SOL    HW1 9952   3.879   0.403   5.771  0.2383 -1.6327 -0.4674
 2784SOL    HW2 9953   3.924   0.351   5.624  0.2262  0.5925 -1.3019
 2785SOL     OW 9954   4.513   0.957   6.743  0.4563  0.1109 -0.3056
 2785SOL    HW1 9955   4.586   0.902   6.701  0.4781  1.3633 -2.0197
 2785SOL    HW2 9956   4.434   0.960   6.682 -0.6541 -0.3254  1.0461
 2786SOL     OW 9957   5.320   3.881   5.417 -0.3180 -0.0265  0.0943
 2786SOL    HW1 9958   5.414   3.870   5.384 -0.4963 -0.2635 -0.3388
 2786SOL    HW2 9959   5.269   3.796   5.403 -0.2690 -0.2961  1.4214
 2787SOL     OW 9960   6.984   5.762   1.752  0.4886 -0.7626  0.3490
 2787SOL    HW1 9961   6.955   5.797   1.663 -2.8371 -1.4471  1.0237
 2787SOL    HW2 9962   7.078   5.729   1.745  0.2560 -1.1383 -3.0347
 2788SOL     OW 9963   1.492   3.406   6.399  0.2806 -0.3209  0.1766
 2788SOL    HW1 9964   1.464   3.450   6.484 -0.0591 -0.9928  0.4170
 2788SOL    HW2 9965   1.421   3.420   6.329  1.2553  1.5935 -0.5028
 2789SOL     OW 9966   4.157   6.842   4.407 -0.3899  0.5989 -0.1412
 2789SOL    HW1 9967   4.210   6.785   4.469 -0.8867  0.8118  0.4811
 2789SOL    HW2 9968   4.063   6.851   4.440 -0.9677 -0.1698 -1.4830
 2790SOL     OW 9969   6.192   1.265   6.558  0.1433  0.1192 -0.4096
 2790SOL    HW1 9970   6.283   1.252   6.518 -0.8050 -1.3009 -2.2531
 2790SOL    HW2 9971   6.197   1.250   6.657  1.4900 -2.6736 -0.7859
 2791SOL     OW 9972   4.407   4.622   0.971  0.1421  0.2557  0.2717
 2791SOL    HW1 9973   4.502   4.593   0.975 -0.1946 -0.9378 -0.0253
 2791SOL    HW2 9974   4.377   4.650   1.062  1.0093  1.4974  0.2109
 2792SOL     OW 9975   3.558   4.346   5.094  0.6337  0.2891 -0.1315
 2792SOL    HW1 9976   3.527   4.303   5.009  0.7545  1.7623 -0.9491
 2792SOL    HW2 9977   3.658   4.354   5.092  0.6881 -0.2182  0.4267
 2793SOL     OW 9978   0.107   3.667   1.766 -0.4531  0.3719  0.0499
 2793SOL    HW1 9979   0.126   3.757   1.726 -1.7070  1.3317  1.4708
 2793SOL    HW2 9980   0.054   3.679   1.850  0.1210 -1.6762  0.7588
 2794SOL     OW 9981   1.446   1.172   3.402 -0.2539 -0.8300 -0.3582
 2794SOL    HW1 9982   1.543   1.171   3.427 -0.1069  0.7170 -0.7422
 2794SOL    HW2 9983   1.433   1.235   3.325 -1.6269 -0.6696 -0.0082
 2795SOL     OW 9984   3.899   2.765   1.939  0.2919  0.4687  0.2006
 2795SOL    HW1 9985   3.936   2.809   2.020 -0.9317  1.6691  0.1467
 2795SOL    HW2 9986   3.943   2.802   1.857 -1.9814  3.1365  0.0146
 2796SOL     OW 9987   6.551   6.910   4.459  0.5616  0.2774  0.0889
 2796SOL    HW1 9988   6.568   6.827   4.513  2.6863  1.1189  0.8270
 2796SOL    HW2 9989   6.486   6.969   4.508 -1.8829 -1.3705 -0.9811
 2797SOL     OW 9990   2.319   5.931   5.093 -0.6070  1.0312 -0.0984
 2797SOL    HW1 9991   2.285   5.943   5.187  0.2558 -1.1612  0.5635
 2797SOL    HW2 9992   2.370   6.012   5.065 -0.0134  1.3425  1.7264
 2798SOL     OW 9993   4.591   1.058   4.446  0.3926 -0.0194  0.3965
 2798SOL    HW1 9994   4.541   1.037   4.362  0.3755 -3.8204  1.1884
 2798SOL    HW2 9995   4.687   1.033   4.435  0.9558  1.8369  0.7617
 2799SOL     OW 9996   2.095   0.891   3.861 -0.1138 -0.3498  0.1586
 2799SOL    HW1 9997   2.139   0.981   3.858  1.1884 -0.9181  1.1665
 2799SOL    HW2 9998   2.104   0.847   3.772 -1.4121  0.7838 -0.5738
 2800SOL     OW 9999   5.651   6.987   1.264  0.3051 -0.3298  0.0233
 2800SOL    HW110000   5.690   6.942   1.344  2.1331  2.0931  0.6195
 2800SOL    HW210001   5.667   6.931   1.182 -0.4571 -2.2261  1.1005
 2801SOL     OW10002   5.656   3.075   0.472  0.5408  0.8439 -0.0583
 2801SOL    HW110003   5.576   3.038   0.520  0.0091  0.9106 -0.8759
 2801SOL    HW210004   5.633   3.091   0.376  1.9177 -0.3734 -0.6267
 2802SOL     OW10005   1.681   0.810   0.203 -0.4816  0.2224 -0.5681
 2802SOL    HW110006   1.731   0.739   0.254  1.1298 -0.3151 -2.7366
 2802SOL    HW210007   1.615   0.766   0.142 -2.0574  0.8399  0.6128
 2803SOL     OW10008   3.905   4.069   6.179  0.4636 -0.2682 -0.7819
 2803SOL    HW110009   3.908   3.988   6.237  1.5040 -0.4034 -1.0163
 2803SOL    HW210010   3.810   4.101   6.172  0.3123 -0.2324  1.0011
 2804SOL     OW10011   5.878   4.959   5.121  0.1303 -0.1703  0.6912
 2804SOL    HW110012   5.822   5.042   5.129  1.6633  0.9158  0.5661
 2804SOL    HW210013   5.841   4.888   5.181 -0.6694  0.9185  1.5282
 2805SOL     OW10014   2.997   3.354   3.522  1.0008  0.0746 -0.2552
 2805SOL    HW110015   2.938   3.420   3.475  2.4149  1.7302  0.2118
 2805SOL    HW210016   3.090   3.359   3.485  1.6319 -0.1364  1.2335
 2806SOL     OW10017   0.977   3.396   3.596 -0.6136  0.5404  0.3655
 2806SOL    HW110018   0.977   3.358   3.504 -2.4113  2.2174 -0.4015
 2806SOL    HW210019   0.941   3.329   3.661 -0.7112 -0.1414 -0.3852
 2807SOL     OW10020   1.461   3.674   0.954  0.3028 -0.3737 -0.2500
 2807SOL    HW110021   1.378   3.665   1.008 -0.4116 -0.0106 -1.2645
 2807SOL    HW210022   1.534   3.711   1.012 -0.1844 -0.8329  0.6855
 2808SOL     OW10023   3.245   6.537   6.074  0.2511  0.1470 -0.1048
 2808SOL    HW110024   3.181   6.523   5.999  2.3833  1.0075 -2.1943
 2808SOL    HW210025   3.203   6.595   6.144 -2.2667 -1.7987  0.1361
 2809SOL     OW10026   3.165   1.760   4.907 -0.1395 -0.7364 -0.0349
 2809SOL    HW110027   3.137   1.855   4.920 -2.0227 -1.1319 -0.8344
 2809SOL    HW210028   3.142   1.707   4.989 -0.1994 -0.7276 -0.0455
 2810SOL     OW10029   6.959   6.833   3.908  0.2365 -0.0681 -0.1315
 2810SOL    HW110030   7.016   6.910   3.935  3.1961 -2.4638  1.0243
 2810SOL    HW210031   6.986   6.751   3.959 -3.0160 -1.8604 -0.9656
 2811SOL     OW10032   1.537   3.252   2.481  0.2953 -0.2857 -0.6989
 2811SOL    HW110033   1.596   3.231   2.559  0.7324 -0.3965 -1.0560
 2811SOL    HW210034   1.587   3.236   2.396 -0.3951 -0.8100 -1.0134
 2812SOL     OW10035   0.372   5.482   5.561  0.4601 -0.5538 -0.1682
 2812SOL    HW110036   0.336   5.401   5.515  0.0226 -2.0375  2.5805
 2812SOL    HW210037   0.296   5.545   5.582  0.6358  0.0417 -1.2671
 2813SOL     OW10038   5.547   1.341   0.659  0.1091 -0.1189  1.0160
 2813SOL    HW110039   5.602   1.350   0.576 -0.0053 -1.4119  0.7800
 2813SOL    HW210040   5.493   1.257   0.654 -1.0536  0.5697  1.7357
 2814SOL     OW10041   6.275   2.717   5.078  0.0043 -0.5681  0.1476
 2814SOL    HW110042   6.231   2.627   5.074  0.8491 -1.0054  0.4464
 2814SOL    HW210043   6.207   2.788   5.060 -0.3265 -1.3448 -1.9747
 2815SOL     OW10044   1.460   0.178   2.081  0.3260  0.5012 -0.7108
 2815SOL    HW110045   1.529   0.250   2.085  0.9558 -0.1409  0.8946
 2815SOL    HW210046   1.391   0.193   2.152 -0.8930  0.8147 -1.9219
 2816SOL     OW10047   1.352   3.736   5.812 -1.0261 -0.1467 -0.2015
 2816SOL    HW110048   1.320   3.813   5.758 -1.0514  0.4088  0.5857
 2816SOL    HW210049   1.280   3.707   5.875 -0.6699 -0.1662  0.2025
 2817SOL     OW10050   6.766   3.836   5.062  0.1821  0.0630 -0.1572
 2817SOL    HW110051   6.698   3.906   5.081 -0.5940 -0.4574 -0.9467
 2817SOL    HW210052   6.857   3.878   5.057 -0.3667  1.1819 -1.5428
 2818SOL     OW10053   5.652   3.167   3.541 -0.7111 -0.7193 -0.0579
 2818SOL    HW110054   5.595   3.244   3.513 -0.8405 -0.3270  1.2375
 2818SOL    HW210055   5.630   3.087   3.485 -1.1524 -0.0457 -0.8625
 2819SOL     OW10056   3.485   3.399   3.010  0.1477  0.3550 -1.1101
 2819SOL    HW110057   3.490   3.303   2.983  0.5723 -0.0742  0.3643
 2819SOL    HW210058   3.559   3.451   2.967  0.2918 -0.1087 -1.4209
 2820SOL     OW10059   4.881   0.957   6.075  0.3592  0.1543  0.9209
 2820SOL    HW110060   4.910   1.018   6.001  0.9398  0.7338  1.6070
 2820SOL    HW210061   4.883   0.862   6.044 -0.0617  0.4423 -0.0070
 2821SOL     OW10062   6.232   5.960   4.404  0.3521  0.2048  0.3041
 2821SOL    HW110063   6.247   5.993   4.310 -1.2596 -1.4340 -0.6131
 2821SOL    HW210064   6.174   6.025   4.453  0.5861  0.7150 -0.0883
 2822SOL     OW10065   3.135   2.403   5.114 -0.3770  0.5969  0.3613
 2822SOL    HW110066   3.053   2.347   5.112 -0.2311  0.3850  0.2907
 2822SOL    HW210067   3.193   2.375   5.191  1.0688 -1.3161 -1.3090
 2823SOL     OW10068   0.009   0.380   6.951  0.5378  0.1550 -0.4710
 2823SOL    HW110069   0.056   0.464   6.979  0.9021 -0.5520  1.1436
 2823SOL    HW210070  -0.017   0.387   6.855  0.9600  1.9296 -0.4905
 2824SOL     OW10071   6.927   2.606   6.073 -0.6971 -0.3482  0.7748
 2824SOL    HW110072   6.939   2.521   6.022 -4.4443 -0.8019  0.4197
 2824SOL    HW210073   6.936   2.683   6.009  0.1258 -0.5852  0.5868
 2825SOL     OW10074   0.564   3.399   2.202  0.3095  0.9283  0.3269
 2825SOL    HW110075   0.593   3.364   2.113 -0.2098 -0.8327  0.8121
 2825SOL    HW210076   0.637   3.454   2.242  1.7055 -0.6611  0.0638
 2826SOL     OW10077   4.499   4.571   5.965  0.0509  0.0752 -0.2306
 2826SOL    HW110078   4.593   4.571   5.930  0.0387  1.3370 -0.3226
 2826SOL    HW210079   4.502   4.559   6.064  0.0757 -3.6634 -0.5405
 2827SOL     OW10080   5.789   4.654   0.274 -0.3191  0.0876 -1.2125
 2827SOL    HW110081   5.871   4.693   0.232  0.8816 -0.2332  0.6818
 2827SOL    HW210082   5.814   4.570   0.323 -1.5719  0.5190  0.2280
 2828SOL     OW10083   6.398   4.989   1.234  0.7367 -0.1832 -0.0668
 2828SOL    HW110084   6.361   4.897   1.222 -0.1991  0.2299 -0.4431
 2828SOL    HW210085   6.488   4.995   1.191 -0.8193  0.1552 -3.5846
 2829SOL     OW10086   0.014   1.509   6.899  0.5532  0.8137 -0.1516
 2829SOL    HW110087   0.070   1.550   6.971 -0.0834  0.7458  0.3934
 2829SOL    HW210088  -0.046   1.439   6.939 -0.2562  1.2099 -0.6348
 2830SOL     OW10089   3.359   4.372   0.636 -0.1924  0.5852  0.1412
 2830SOL    HW110090   3.364   4.306   0.562 -0.4693 -0.7290  1.2450
 2830SOL    HW210091   3.273   4.424   0.629 -0.6216 -0.1285  0.0217
 2831SOL     OW10092   0.513   3.108   0.214  0.3329 -0.6475  0.0354
 2831SOL    HW110093   0.440   3.174   0.193  0.2187 -1.0912 -1.0171
 2831SOL    HW210094   0.593   3.158   0.246  0.6779  0.1730 -1.9128
 2832SOL     OW10095   6.783   5.570   3.397 -0.1508  0.3434  0.2917
 2832SOL    HW110096   6.813   5.574   3.492  0.0615  1.5275  0.1906
 2832SOL    HW210097   6.846   5.622   3.339 -0.6931  0.2736 -0.3827
 2833SOL     OW10098   1.606   2.903   4.360  0.5725  0.3757 -0.0183
 2833SOL    HW110099   1.554   2.832   4.314 -0.8559  0.9608  0.6315
 2833SOL    HW210100   1.614   2.881   4.457 -1.0466  1.6861  0.4693
 2834SOL     OW10101   4.732   5.744   4.771  0.1032 -0.3478 -0.6872
 2834SOL    HW110102   4.744   5.833   4.815  2.4086 -1.2704  0.7484
 2834SOL    HW210103   4.646   5.742   4.722 -0.1200  2.5828 -0.5585
 2835SOL     OW10104   2.808   4.944   0.558  0.5969 -0.2017  0.0280
 2835SOL    HW110105   2.726   4.992   0.528  0.6929  0.3267  0.5827
 2835SOL    HW210106   2.798   4.846   0.540  0.9063  0.1358 -2.2632
 2836SOL     OW10107   3.885   1.950   3.679 -0.0061 -0.0185  0.0164
 2836SOL    HW110108   3.815   2.007   3.722  0.5300  0.8946 -0.2984
 2836SOL    HW210109   3.975   1.980   3.709  0.3494  0.1697 -1.1768
 2837SOL     OW10110   4.100   5.294   2.124  0.2531 -0.0187 -0.2159
 2837SOL    HW110111   4.064   5.292   2.031 -1.1257 -1.7823  0.3000
 2837SOL    HW210112   4.130   5.202   2.151  0.7536  0.4843  1.0407
 2838SOL     OW10113   2.708   6.616   2.437 -0.0512 -0.1999  0.4942
 2838SOL    HW110114   2.759   6.612   2.351  0.7129  1.1716  0.8557
 2838SOL    HW210115   2.638   6.687   2.430 -1.0359 -1.1407  0.4843
 2839SOL     OW10116   6.270   2.807   4.755  0.7594 -0.5668  0.2352
 2839SOL    HW110117   6.369   2.815   4.761  0.6601 -0.4931  2.9749
 2839SOL    HW210118   6.227   2.883   4.804 -0.7681  0.6286 -2.6766
 2840SOL     OW10119   0.240   1.249   4.239 -0.3229 -0.3216 -0.0125
 2840SOL    HW110120   0.241   1.320   4.310  0.5667 -0.8285  0.5074
 2840SOL    HW210121   0.265   1.289   4.151  0.4362 -0.0249  0.3267
 2841SOL     OW10122   1.711   1.660   6.178 -0.4127  0.3209 -0.1138
 2841SOL    HW110123   1.808   1.649   6.156  0.0885  0.7288  1.7250
 2841SOL    HW210124   1.669   1.570   6.186 -0.4903  0.1388 -1.9528
 2842SOL     OW10125   1.213   5.106   4.348  0.0672 -0.0760 -0.1286
 2842SOL    HW110126   1.213   5.035   4.418 -0.4222  0.8537  0.8489
 2842SOL    HW210127   1.203   5.064   4.258  2.0949 -1.4196  0.1964
 2843SOL     OW10128   0.074   0.267   4.736  0.2445  0.3712 -0.0456
 2843SOL    HW110129   0.171   0.252   4.719  0.7992 -0.3787  3.1072
 2843SOL    HW210130   0.023   0.182   4.722  0.7138 -0.2748  1.8393
 2844SOL     OW10131   4.599   1.913   3.041  0.1943 -0.0973 -0.6046
 2844SOL    HW110132   4.561   2.005   3.042 -0.0773 -0.1669 -1.9327
 2844SOL    HW210133   4.661   1.901   3.118 -1.0897  0.6138  0.5901
 2845SOL     OW10134   5.400   6.041   6.627 -0.2986 -0.5017 -0.2126
 2845SOL    HW110135   5.313   6.089   6.634  0.6327  1.4609 -1.1159
 2845SOL    HW210136   5.419   6.019   6.532  1.1904  1.1957 -0.3683
 2846SOL     OW10137   1.095   4.245   2.618  0.3109  0.0225  0.7428
 2846SOL    HW110138   1.073   4.281   2.708  0.2806 -0.5831  0.9820
 2846SOL    HW210139   1.194   4.231   2.611  0.5327  1.6906  0.0629
 2847SOL     OW10140   2.564   5.438   4.906  0.6999  0.7000  0.3533
 2847SOL    HW110141   2.582   5.491   4.989  2.3543  0.5964  0.0908
 2847SOL    HW210142   2.590   5.343   4.921 -0.4679  0.3486  0.2067
 2848SOL     OW10143   2.538   3.181   3.516  0.9159 -0.2405  0.0487
 2848SOL    HW110144   2.633   3.203   3.538  0.5568  0.4892  0.9447
 2848SOL    HW210145   2.481   3.197   3.596 -0.2771  1.3828 -1.0548
 2849SOL     OW10146   4.392   4.526   2.417  0.4592 -0.7597 -0.3428
 2849SOL    HW110147   4.412   4.622   2.435  0.2668 -0.8071  0.1552
 2849SOL    HW210148   4.452   4.469   2.474  0.6658 -0.9352 -0.7358
 2850SOL     OW10149   5.565   4.301   1.172 -0.7153 -0.5524  0.6373
 2850SOL    HW110150   5.652   4.304   1.122 -2.1535 -0.5095 -2.0095
 2850SOL    HW210151   5.581   4.260   1.262  2.6318  2.4139  1.6385
 2851SOL     OW10152   4.172   5.551   3.761 -0.5325 -0.2714 -0.1387
 2851SOL    HW110153   4.270   5.571   3.762 -0.8421  1.3935  0.6140
 2851SOL    HW210154   4.144   5.515   3.850 -0.6286 -0.6663 -0.3253
 2852SOL     OW10155   1.899   5.272   3.132 -0.6456 -0.1921  0.1936
 2852SOL    HW110156   1.878   5.195   3.073  2.4315 -0.1906 -1.0740
 2852SOL    HW210157   1.958   5.242   3.207 -0.9122  0.6047  0.7383
 2853SOL     OW10158   2.939   0.334   1.963  0.1954 -0.2897  0.1513
 2853SOL    HW110159   2.909   0.257   2.019  1.4792 -1.5110 -0.7828
 2853SOL    HW210160   2.891   0.334   1.876 -0.9393  0.9204  0.7393
 2854SOL     OW10161   3.085   3.221   5.047  0.0595  0.1803 -0.3424
 2854SOL    HW110162   3.115   3.192   5.138  0.0230  0.4539 -0.2427
 2854SOL    HW210163   2.985   3.217   5.042  0.0402  0.5401 -0.2439
 2855SOL     OW10164   3.859   1.671   3.650 -0.6538  0.3064  0.2821
 2855SOL    HW110165   3.886   1.762   3.683 -0.9774  0.1418  1.0192
 2855SOL    HW210166   3.770   1.647   3.688 -1.1878  0.2403 -0.9900
 2856SOL     OW10167   0.422   3.042   1.304 -0.4680 -0.3896 -0.1778
 2856SOL    HW110168   0.515   3.005   1.293 -0.2512 -0.2086  0.9440
 2856SOL    HW210169   0.365   3.009   1.229  0.5844 -0.2177 -1.0917
 2857SOL     OW10170   4.841   1.046   4.292  0.3979 -0.6520  0.1473
 2857SOL    HW110171   4.801   1.024   4.203 -1.7363 -1.3373  1.2132
 2857SOL    HW210172   4.823   1.142   4.314 -1.4898 -1.1537  0.9711
 2858SOL     OW10173   1.396   3.885   6.991 -0.0463 -0.4471  0.4628
 2858SOL    HW110174   1.464   3.860   6.921 -0.7863 -2.0539  0.2653
 2858SOL    HW210175   1.397   3.984   7.004 -1.9781  0.4568 -4.1181
 2859SOL     OW10176   6.914   0.222   4.497  0.1856 -0.2932 -0.3731
 2859SOL    HW110177   6.976   0.301   4.497  0.6332 -0.6111  1.4227
 2859SOL    HW210178   6.962   0.142   4.462  0.3370 -0.2028 -0.3721
 2860SOL     OW10179   2.852   6.837   1.031 -0.5079 -0.0904  0.7402
 2860SOL    HW110180   2.769   6.865   1.079  0.1557  1.5769  1.0052
 2860SOL    HW210181   2.932   6.871   1.081  0.2383  1.0706 -1.1101
 2861SOL     OW10182   4.393   3.788   0.089 -0.4962 -0.6663  0.4418
 2861SOL    HW110183   4.439   3.705   0.059 -0.9316 -0.0952 -2.0151
 2861SOL    HW210184   4.426   3.866   0.036 -0.0067  0.8104  2.7729
 2862SOL     OW10185   2.295   4.250   2.056  0.4679 -0.2397 -0.3511
 2862SOL    HW110186   2.197   4.257   2.071  0.3201 -2.5124  0.1336
 2862SOL    HW210187   2.342   4.241   2.145  1.0743  0.3269 -0.6022
 2863SOL     OW10188   3.600   5.598   6.892 -0.1583  0.9040 -0.3839
 2863SOL    HW110189   3.536   5.567   6.962  0.5600  1.2734  0.4585
 2863SOL    HW210190   3.549   5.621   6.808 -0.9016 -0.6274 -0.3841
 2864SOL     OW10191   2.784   4.883   2.145  0.2823 -0.2542 -0.1612
 2864SOL    HW110192   2.775   4.927   2.234 -1.6884 -2.5308  0.8767
 2864SOL    HW210193   2.760   4.948   2.073  0.6459  1.2635  1.0412
 2865SOL     OW10194   3.854   2.661   2.422 -0.3720 -0.4886 -0.0669
 2865SOL    HW110195   3.954   2.658   2.425 -0.3367 -0.2648  3.7180
 2865SOL    HW210196   3.817   2.614   2.502 -3.2042  1.5512 -0.0450
 2866SOL     OW10197   1.187   5.397   3.453 -0.0802 -0.2114 -0.2367
 2866SOL    HW110198   1.280   5.366   3.435  0.5677  1.6421 -0.2192
 2866SOL    HW210199   1.161   5.374   3.547  0.3148 -0.7970 -0.2659
 2867SOL     OW10200   0.915   0.336   4.103  0.4241  0.2878  0.4233
 2867SOL    HW110201   0.911   0.435   4.115  1.1180  0.1756  1.8785
 2867SOL    HW210202   1.009   0.305   4.115  0.2666 -0.5252 -0.3231
 2868SOL     OW10203   0.017   3.980   1.294  0.7172 -0.5507 -0.2133
 2868SOL    HW110204   0.092   3.918   1.316  1.8155  1.1827  1.1766
 2868SOL    HW210205   0.052   4.061   1.248 -0.0712  0.8728  1.5828
 2869SOL     OW10206   0.487   4.595   5.482 -0.4437  0.3724 -0.1888
 2869SOL    HW110207   0.507   4.667   5.548  0.2460  1.0382 -1.0964
 2869SOL    HW210208   0.516   4.625   5.391 -0.9897 -0.6934 -0.7273
 2870SOL     OW10209   0.197   3.569   6.653 -0.2159 -0.4197 -0.4207
 2870SOL    HW110210   0.258   3.594   6.578 -1.3326  1.9788 -0.6283
 2870SOL    HW210211   0.200   3.470   6.667  2.8430 -0.5290 -1.1273
 2871SOL     OW10212   6.981   1.180   6.654 -0.4061 -0.3875  0.0241
 2871SOL    HW110213   6.968   1.257   6.592  0.2460 -0.8173 -0.6661
 2871SOL    HW210214   7.061   1.127   6.625 -0.4717 -0.9616  0.8609
 2872SOL     OW10215   5.353   2.462   4.785 -0.3196  0.0699 -0.0449
 2872SOL    HW110216   5.373   2.424   4.694  0.6028  1.9487 -0.6934
 2872SOL    HW210217   5.415   2.421   4.852  2.1169  1.7357 -1.0857
 2873SOL     OW10218   4.837   1.933   4.671  0.0857  0.2745 -0.0165
 2873SOL    HW110219   4.779   1.994   4.618  0.4005 -0.8048 -1.6610
 2873SOL    HW210220   4.817   1.838   4.648  0.7291 -0.2132  1.3011
 2874SOL     OW10221   0.818   3.200   3.709  0.1208  0.2361 -0.3722
 2874SOL    HW110222   0.763   3.145   3.772  0.6979 -0.0708 -0.1314
 2874SOL    HW210223   0.828   3.151   3.622 -0.1842  0.4010 -0.5033
 2875SOL     OW10224   4.505   0.625   4.230  0.0257  0.1432  0.2689
 2875SOL    HW110225   4.475   0.530   4.238 -0.2610  0.2946  1.1091
 2875SOL    HW210226   4.593   0.636   4.276 -0.0296  0.3250  0.3306
 2876SOL     OW10227   1.491   5.635   5.792 -0.0440 -0.1329 -0.0421
 2876SOL    HW110228   1.409   5.669   5.837 -0.8274 -0.8871 -0.8638
 2876SOL    HW210229   1.525   5.554   5.841  2.2995  2.1197  2.4161
 2877SOL     OW10230   6.115   1.257   5.710  0.0284  0.3232  0.3539
 2877SOL    HW110231   6.084   1.348   5.739 -3.2032 -0.8873  1.0520
 2877SOL    HW210232   6.196   1.232   5.763  0.6509  2.5321  0.5561
 2878SOL     OW10233   4.330   2.806   4.769  0.2084 -0.6617  0.3493
 2878SOL    HW110234   4.361   2.741   4.699 -0.9192  1.6433 -2.5017
 2878SOL    HW210235   4.399   2.878   4.780 -0.1526 -0.3732  0.7438
 2879SOL     OW10236   5.026   4.273   6.411 -1.0453 -0.5019 -0.3925
 2879SOL    HW110237   5.114   4.320   6.409  0.0018 -2.3474 -0.0770
 2879SOL    HW210238   4.954   4.336   6.382  0.1945  1.3931  0.4213
 2880SOL     OW10239   0.394   0.576   6.750  0.3967 -0.0569 -0.0359
 2880SOL    HW110240   0.447   0.491   6.741  0.9003  0.4540 -2.5113
 2880SOL    HW210241   0.352   0.598   6.663 -0.3270  1.8847  0.7590
 2881SOL     OW10242   1.771   0.594   2.070  0.4646 -0.7476  0.8485
 2881SOL    HW110243   1.866   0.596   2.103  0.3587 -0.0049  1.1388
 2881SOL    HW210244   1.753   0.678   2.018  0.2153 -1.2782  0.0752
 2882SOL     OW10245   1.007   0.188   2.925 -0.2385  0.4552  0.3688
 2882SOL    HW110246   0.928   0.225   2.876 -0.2391  1.0947  0.8361
 2882SOL    HW210247   0.982   0.172   3.021 -0.1681 -0.5513  0.2246
 2883SOL     OW10248   5.375   1.779   3.313 -0.0732 -0.8802 -0.0135
 2883SOL    HW110249   5.408   1.836   3.388 -2.0048  0.9491 -0.4353
 2883SOL    HW210250   5.281   1.750   3.333 -0.9245  0.3283 -2.0138
 2884SOL     OW10251   5.558   0.815   4.498  0.0794  0.4202 -0.1715
 2884SOL    HW110252   5.595   0.729   4.534 -2.1811  0.4993  2.6564
 2884SOL    HW210253   5.628   0.860   4.442  2.6009 -1.5153  1.1968
 2885SOL     OW10254   3.276   6.744   1.451  0.2465  0.3092 -0.4555
 2885SOL    HW110255   3.221   6.823   1.478 -1.3289 -0.6643 -0.6126
 2885SOL    HW210256   3.351   6.774   1.393  0.3901  1.8006  0.4444
 2886SOL     OW10257   2.208   5.893   4.536 -0.2311 -0.0509 -0.5518
 2886SOL    HW110258   2.212   5.794   4.548 -0.5629 -0.1871 -1.5018
 2886SOL    HW210259   2.183   5.937   4.623  0.2088 -0.7682 -0.0525
 2887SOL     OW10260   0.167   2.009   6.973  0.2089  0.2701  0.0785
 2887SOL    HW110261   0.138   1.936   6.912  0.0784  0.6086 -0.2705
 2887SOL    HW210262   0.193   2.089   6.919  1.6167  0.0490  0.3770
 2888SOL     OW10263   0.679   4.797   1.560  0.2324 -0.2585  0.4539
 2888SOL    HW110264   0.710   4.859   1.632 -1.7653  1.1398  0.1638
 2888SOL    HW210265   0.639   4.715   1.601  1.8101 -0.8803  0.8448
 2889SOL     OW10266   3.912   4.570   0.872  0.5612 -0.1632  0.2569
 2889SOL    HW110267   3.918   4.574   0.972  0.7817  2.2633  0.1901
 2889SOL    HW210268   3.993   4.523   0.836  0.0073 -1.9648  1.2084
 2890SOL     OW10269   4.326   0.015   6.040  0.3942 -0.0168 -0.1607
 2890SOL    HW110270   4.288   0.070   6.114  0.6406  0.2946 -0.2642
 2890SOL    HW210271   4.426   0.012   6.048  0.5151  0.8739 -1.0554
 2891SOL     OW10272   5.307   5.973   0.787  0.9477  0.0427  0.9728
 2891SOL    HW110273   5.344   5.892   0.741 -0.5348 -0.1766  0.1068
 2891SOL    HW210274   5.214   5.991   0.754  0.4122  0.8101  2.7789
 2892SOL     OW10275   3.908   4.655   2.229 -0.4551  0.3291  0.4771
 2892SOL    HW110276   3.888   4.745   2.192 -1.8462 -0.4314 -0.7399
 2892SOL    HW210277   3.938   4.663   2.324  1.6163  2.2209 -0.2444
 2893SOL     OW10278   1.929   1.259   6.608 -0.5059 -0.5656  0.2119
 2893SOL    HW110279   1.857   1.223   6.549 -0.4402 -0.3541 -0.0001
 2893SOL    HW210280   1.891   1.327   6.670 -0.1150  1.2467 -1.4296
 2894SOL     OW10281   5.527   4.524   6.952  0.2480  0.4403  0.0673
 2894SOL    HW110282   5.466   4.596   6.919  1.6829  1.7750  0.2137
 2894SOL    HW210283   5.552   4.541   7.047 -0.3710 -0.9724  0.5210
 2895SOL     OW10284   6.795   1.909   5.532  0.6303 -0.4498 -0.1262
 2895SOL    HW110285   6.772   1.813   5.518  1.3403 -0.7411  0.6044
 2895SOL    HW210286   6.719   1.956   5.576 -0.5706 -0.1469 -2.3639
 2896SOL     OW10287   3.230   4.598   4.593  0.0757 -0.7362 -0.3441
 2896SOL    HW110288   3.179   4.513   4.580 -0.4390 -0.8918  2.2792
 2896SOL    HW210289   3.289   4.591   4.673  0.3946  1.2198 -0.3537
 2897SOL     OW10290   1.159   4.738   0.777 -0.1745 -0.0140 -0.0912
 2897SOL    HW110291   1.079   4.681   0.799 -0.7016  0.1073 -1.5694
 2897SOL    HW210292   1.239   4.680   0.766 -0.3198 -0.2712  0.1766
 2898SOL     OW10293   2.640   3.466   3.849 -0.0117  0.2046 -0.5081
 2898SOL    HW110294   2.600   3.378   3.822 -0.6092  0.1650  0.4504
 2898SOL    HW210295   2.733   3.473   3.812 -0.0923 -0.6678 -0.9061
 2899SOL     OW10296   3.567   6.170   6.846  0.0111  0.2486 -0.0711
 2899SOL    HW110297   3.567   6.084   6.898 -0.0132  1.0261  1.2690
 2899SOL    HW210298   3.658   6.212   6.852 -0.3559  0.9972  0.4926
 2900SOL     OW10299   4.798   1.904   1.748 -0.1969 -0.0062  0.2631
 2900SOL    HW110300   4.865   1.973   1.773 -0.4596 -0.1251  1.3481
 2900SOL    HW210301   4.798   1.892   1.649  0.7145  0.6618  0.1678
 2901SOL     OW10302   0.365   6.053   2.749  0.0222  0.2480 -0.2551
 2901SOL    HW110303   0.361   6.140   2.798 -1.9485  2.2694 -3.6828
 2901SOL    HW210304   0.451   6.048   2.698  0.7474 -0.5464  0.9660
 2902SOL     OW10305   4.748   5.632   0.001 -0.3054 -0.5175 -0.2803
 2902SOL    HW110306   4.794   5.621  -0.087  1.2298 -0.3554  0.4621
 2902SOL    HW210307   4.650   5.620  -0.011 -0.3545  1.3828 -2.3316
 2903SOL     OW10308   6.431   4.649   1.986 -0.2177 -0.9799 -0.2499
 2903SOL    HW110309   6.391   4.716   1.923  0.5552  0.1817  0.4523
 2903SOL    HW210310   6.359   4.595   2.028 -1.1894  1.4518  1.4455
 2904SOL     OW10311   3.241   3.088   3.993 -0.0222 -0.0379 -0.3471
 2904SOL    HW110312   3.221   3.020   3.923 -1.0761 -0.9690  0.8300
 2904SOL    HW210313   3.157   3.136   4.018 -0.2709 -1.6013  2.1833
 2905SOL     OW10314   6.446   0.363   3.481  0.3961  0.4070 -0.5943
 2905SOL    HW110315   6.359   0.340   3.524  0.5104 -0.3978 -0.7782
 2905SOL    HW210316   6.508   0.285   3.488  1.1692  1.0390 -0.3004
 2906SOL     OW10317   2.360   6.406   3.664  0.2691 -0.1139 -0.5704
 2906SOL    HW110318   2.361   6.307   3.679  0.2379 -0.0406 -0.0555
 2906SOL    HW210319   2.293   6.429   3.594  0.7659 -0.5239 -1.1921
 2907SOL     OW10320   3.438   2.065   0.590  0.1706  0.0396  0.2458
 2907SOL    HW110321   3.536   2.085   0.594  0.3380 -0.6879 -0.1808
 2907SOL    HW210322   3.388   2.150   0.574  0.9434  0.0850 -2.4391
 2908SOL     OW10323   6.793   5.967   4.553 -0.1497  0.7721 -0.3380
 2908SOL    HW110324   6.818   6.063   4.547 -0.7193  0.9314 -0.2444
 2908SOL    HW210325   6.697   5.956   4.529 -0.1764  0.2706 -0.0316
 2909SOL     OW10326   6.579   5.361   0.969 -0.4268  0.1890  0.0110
 2909SOL    HW110327   6.538   5.396   1.053 -0.7166 -0.1598  0.0181
 2909SOL    HW210328   6.673   5.395   0.961 -0.4081  0.2530  0.4585
 2910SOL     OW10329   6.808   0.139   3.793 -0.1289 -0.0813 -0.1413
 2910SOL    HW110330   6.886   0.146   3.731 -0.5360  0.6172 -0.5958
 2910SOL    HW210331   6.771   0.231   3.810 -0.8117 -0.3949  0.1158
 2911SOL     OW10332   1.202   5.874   1.020  0.0823  0.9458  0.2194
 2911SOL    HW110333   1.160   5.873   1.111  0.4997 -1.6079  0.4819
 2911SOL    HW210334   1.290   5.827   1.025 -0.8323 -1.1932 -1.8395
 2912SOL     OW10335   4.430   4.698   2.058 -0.4904 -0.6317 -0.1858
 2912SOL    HW110336   4.393   4.686   1.966  1.8873 -0.2081 -1.2588
 2912SOL    HW210337   4.508   4.637   2.072  0.7790  1.0732  0.5998
 2913SOL     OW10338   4.532   4.026   3.150  0.3846  1.0892  0.6790
 2913SOL    HW110339   4.442   4.022   3.105  0.8184 -1.6200 -0.1661
 2913SOL    HW210340   4.520   4.024   3.249 -0.5643 -1.6537  0.5979
 2914SOL     OW10341   5.313   1.205   3.813 -0.0692  0.1448  0.0551
 2914SOL    HW110342   5.390   1.157   3.770 -0.6817  0.0163 -0.9394
 2914SOL    HW210343   5.282   1.278   3.752  0.5014  1.4684  1.3093
 2915SOL     OW10344   1.230   2.876   0.773  0.5148  0.1421  0.1566
 2915SOL    HW110345   1.255   2.946   0.839  0.0952  0.4556 -0.0098
 2915SOL    HW210346   1.253   2.785   0.809  2.1331  0.4245 -0.1096
 2916SOL     OW10347   0.277   3.560   0.103  0.2955 -0.4297 -0.2430
 2916SOL    HW110348   0.238   3.603   0.184 -1.1906  0.4439 -1.3598
 2916SOL    HW210349   0.310   3.631   0.040  2.8941 -1.1249  0.2260
 2917SOL     OW10350   3.344   0.531   3.973  0.7079 -0.0881 -0.0921
 2917SOL    HW110351   3.393   0.514   3.887 -1.3143 -1.0795 -1.1225
 2917SOL    HW210352   3.334   0.630   3.986  2.6804  0.1425  0.0388
 2918SOL     OW10353   5.255   5.445   5.646  0.1451  0.5051 -0.3597
 2918SOL    HW110354   5.316   5.445   5.726 -0.3919  0.4620  0.0553
 2918SOL    HW210355   5.222   5.538   5.630 -2.7948 -0.0143  1.8532
 2919SOL     OW10356   1.691   4.232   0.807 -0.5166  0.1760 -0.5201
 2919SOL    HW110357   1.757   4.292   0.762 -0.6724  0.9387  0.2587
 2919SOL    HW210358   1.632   4.189   0.738  1.4944 -1.4144 -1.3498
 2920SOL     OW10359   1.464   1.296   5.888  0.2271 -0.7030 -0.1619
 2920SOL    HW110360   1.432   1.388   5.911 -0.1120 -0.4012 -1.7282
 2920SOL    HW210361   1.563   1.298   5.875  0.3760 -0.8070  0.8358
 2921SOL     OW10362   3.119   1.337   4.788  0.2619 -0.4102  0.0470
 2921SOL    HW110363   3.136   1.327   4.886 -0.6181 -2.6140  0.0322
 2921SOL    HW210364   3.165   1.264   4.738  1.3796  1.1508 -1.3188
 2922SOL     OW10365   5.926   6.022   6.123 -0.2028 -0.2394 -0.1815
 2922SOL    HW110366   5.917   6.121   6.137 -0.5966 -0.1985 -0.6786
 2922SOL    HW210367   5.992   6.005   6.050  0.0185 -0.3507  0.0461
 2923SOL     OW10368   6.796   1.245   3.588 -0.1860  0.1363 -0.2482
 2923SOL    HW110369   6.754   1.154   3.597  1.6007 -0.8374 -1.1940
 2923SOL    HW210370   6.896   1.236   3.586  0.1439  2.3416  1.6876
 2924SOL     OW10371   5.665   4.621   6.616  0.1071  0.0581 -0.3532
 2924SOL    HW110372   5.633   4.537   6.659 -1.0621 -0.4638 -2.1242
 2924SOL    HW210373   5.604   4.697   6.639 -0.1087 -0.0659 -0.5165
 2925SOL     OW10374   5.661   5.249   0.546 -0.1123  0.1243  0.0867
 2925SOL    HW110375   5.604   5.231   0.465  0.7857  0.7367 -0.6945
 2925SOL    HW210376   5.751   5.208   0.533  1.1798  2.9915 -0.6989
 2926SOL     OW10377   6.340   6.603   3.773  0.1602 -0.6288 -0.0346
 2926SOL    HW110378   6.278   6.672   3.811  0.0037 -0.0546 -1.2724
 2926SOL    HW210379   6.292   6.516   3.765 -0.1873 -0.4348 -0.0833
 2927SOL     OW10380   0.437   0.041   0.001  0.5105  1.0475  0.0424
 2927SOL    HW110381   0.371   0.115  -0.011 -0.9068 -0.2083 -0.2562
 2927SOL    HW210382   0.483   0.051   0.090 -1.5390  0.8941  1.1805
 2928SOL     OW10383   4.787   2.584   5.274 -0.2562 -0.3235 -0.4736
 2928SOL    HW110384   4.720   2.518   5.308 -1.5407  1.1254 -0.0663
 2928SOL    HW210385   4.872   2.576   5.326 -0.9770 -0.5189  0.7165
 2929SOL     OW10386   5.806   6.941   4.916 -0.0515 -0.3624  0.1345
 2929SOL    HW110387   5.868   6.892   4.978  2.1587  0.7797 -1.0570
 2929SOL    HW210388   5.786   6.884   4.837  0.4157 -0.3516  0.0005
 2930SOL     OW10389   6.047   4.650   1.781 -0.5240 -0.2878  0.2954
 2930SOL    HW110390   6.091   4.723   1.728 -1.7252 -0.3532 -0.8351
 2930SOL    HW210391   6.039   4.679   1.876  0.6011  0.3275  0.2179
 2931SOL     OW10392   5.511   0.894   2.695  0.6222  0.2801 -1.1933
 2931SOL    HW110393   5.598   0.943   2.688  1.6494 -1.4118 -0.7679
 2931SOL    HW210394   5.498   0.863   2.789  0.0803 -0.4178 -1.4957
 2932SOL     OW10395   4.844   3.298   5.228 -0.0007  0.2679  0.5978
 2932SOL    HW110396   4.830   3.285   5.326 -1.2222  3.3045  0.9554
 2932SOL    HW210397   4.902   3.379   5.213 -1.1443  0.8242 -1.1715
 2933SOL     OW10398   4.044   2.407   2.587 -0.0693 -0.6354  0.2335
 2933SOL    HW110399   3.961   2.392   2.641  0.3049 -0.9591  0.7293
 2933SOL    HW210400   4.117   2.349   2.622  0.2749 -0.6016 -0.4155
 2934SOL     OW10401   5.078   6.539   2.245  0.2479  0.3966  0.1945
 2934SOL    HW110402   4.999   6.482   2.223  0.3005  0.2497  0.3814
 2934SOL    HW210403   5.135   6.551   2.164  0.2043  0.2335  0.1400
 2935SOL     OW10404   1.740   2.014   6.738 -0.4935 -0.1273 -0.2549
 2935SOL    HW110405   1.684   1.986   6.816 -1.3027  1.1768 -0.3414
 2935SOL    HW210406   1.703   2.098   6.699  0.7651  0.0339 -1.1516
 2936SOL     OW10407   2.870   3.283   2.872  0.1355  0.0078  0.4062
 2936SOL    HW110408   2.862   3.188   2.903  1.8698  0.0626  1.1427
 2936SOL    HW210409   2.780   3.326   2.875 -0.5229 -1.3167  1.0286
 2937SOL     OW10410   4.322   3.384   3.727  0.1158  0.1452 -0.2456
 2937SOL    HW110411   4.417   3.356   3.742 -0.4619 -0.7946  2.2567
 2937SOL    HW210412   4.286   3.424   3.811 -2.1812 -1.0744 -0.5688
 2938SOL     OW10413   0.496   5.009   4.551  0.8300 -0.5522  0.2034
 2938SOL    HW110414   0.534   5.082   4.609  1.1354 -0.3076 -0.3009
 2938SOL    HW210415   0.539   5.012   4.461 -1.0378  0.3201 -0.6991
 2939SOL     OW10416   0.085   0.087   6.169 -0.1973  0.3963  0.7436
 2939SOL    HW110417   0.047   0.142   6.094 -2.5349 -1.4080  0.5002
 2939SOL    HW210418   0.021   0.087   6.246 -0.8799 -2.8406  0.3083
 2940SOL     OW10419   3.344   5.149   3.728  0.3246 -0.3434 -0.0354
 2940SOL    HW110420   3.351   5.056   3.690 -1.7217 -0.6699  0.3115
 2940SOL    HW210421   3.435   5.190   3.729  0.7777 -0.9106 -3.7603
 2941SOL     OW10422   0.326   2.199   0.891 -0.3556  0.0825  0.3102
 2941SOL    HW110423   0.265   2.120   0.882  0.9951 -0.9347 -0.3004
 2941SOL    HW210424   0.287   2.264   0.957 -1.7945 -0.7921  0.3651
 2942SOL     OW10425   0.663   2.321   6.055  0.6920 -0.4568 -0.0731
 2942SOL    HW110426   0.636   2.231   6.090  1.3484 -0.2968  0.8982
 2942SOL    HW210427   0.592   2.355   5.994  0.2864 -1.4944 -0.2135
 2943SOL     OW10428   4.071   0.965   3.753  0.0320 -0.6075 -0.0454
 2943SOL    HW110429   4.051   1.063   3.753 -3.1836 -1.1345 -1.3449
 2943SOL    HW210430   4.090   0.936   3.847  1.4535  1.2746  0.3169
 2944SOL     OW10431   6.081   3.830   0.203  0.2985 -0.1058  0.0331
 2944SOL    HW110432   6.084   3.737   0.239  0.2913 -0.1240 -0.0127
 2944SOL    HW210433   6.173   3.857   0.173  0.0760 -0.5739 -1.1476
 2945SOL     OW10434   4.330   5.702   1.557 -0.2315  0.1519  0.0199
 2945SOL    HW110435   4.418   5.741   1.582 -0.6704  0.2299  1.5744
 2945SOL    HW210436   4.299   5.740   1.470  2.3045 -1.5870 -1.7778
 2946SOL     OW10437   6.707   2.481   5.788 -0.0883 -0.1925 -0.0747
 2946SOL    HW110438   6.618   2.495   5.745 -0.6531 -0.6552  0.8983
 2946SOL    HW210439   6.769   2.436   5.724 -0.1323  1.2774 -1.2061
 2947SOL     OW10440   0.207   5.612   0.934 -0.4215 -0.0096  0.0299
 2947SOL    HW110441   0.113   5.622   0.900 -0.4117  1.5340  0.3500
 2947SOL    HW210442   0.209   5.634   1.031 -0.3902 -3.9921  1.1026
 2948SOL     OW10443   1.858   6.646   6.558 -0.2182 -0.5625  0.3013
 2948SOL    HW110444   1.760   6.658   6.539 -0.0640 -0.3052 -0.3569
 2948SOL    HW210445   1.890   6.562   6.513 -0.5089 -1.6040  1.9577
 2949SOL     OW10446   0.412   1.530   1.575  0.1017  0.5117 -0.0686
 2949SOL    HW110447   0.330   1.540   1.517  1.0189 -0.3282 -1.5692
 2949SOL    HW210448   0.453   1.620   1.589 -1.3837  1.0440  1.2350
 2950SOL     OW10449   5.989   6.452   3.931  0.1399  0.5785  0.4934
 2950SOL    HW110450   5.944   6.363   3.922  0.5430  0.3614  0.6190
 2950SOL    HW210451   6.069   6.443   3.990 -0.5786  1.3028  1.6099
 2951SOL     OW10452   0.776   5.024   3.687 -0.1866  0.1288 -1.0097
 2951SOL    HW110453   0.732   4.981   3.766 -0.4989 -0.2843 -1.3988
 2951SOL    HW210454   0.713   5.092   3.648 -0.4071 -0.3094 -1.4375
 2952SOL     OW10455   3.848   0.535   0.073 -0.3326 -0.3666 -0.3284
 2952SOL    HW110456   3.889   0.453   0.033  0.6492 -0.4586  0.7865
 2952SOL    HW210457   3.850   0.610   0.007  1.7138 -0.3664 -0.3365
 2953SOL     OW10458   0.526   6.883   1.706  0.2436 -0.6771 -0.2738
 2953SOL    HW110459   0.447   6.940   1.726  0.7052  0.1419 -0.7278
 2953SOL    HW210460   0.544   6.883   1.607  1.0555 -0.5005 -0.1370
 2954SOL     OW10461   1.884   6.585   1.847  0.7724 -0.4716 -0.0300
 2954SOL    HW110462   1.983   6.583   1.854  1.1278 -2.8718 -3.1638
 2954SOL    HW210463   1.848   6.491   1.848 -1.4013  0.2903  0.2376
 2955SOL     OW10464   5.441   5.627   6.461  0.5105  0.0405  0.2735
 2955SOL    HW110465   5.449   5.536   6.421  1.6070  1.0958 -2.0797
 2955SOL    HW210466   5.512   5.640   6.530  0.8588 -0.5962  0.0438
 2956SOL     OW10467   6.056   6.096   2.320  0.2633 -0.4395  0.1553
 2956SOL    HW110468   6.034   6.066   2.413  0.0029 -1.4864 -0.2257
 2956SOL    HW210469   5.971   6.099   2.266  0.3420  0.6305  0.0691
 2957SOL     OW10470   1.959   2.989   6.596  0.0782 -0.0892 -0.1572
 2957SOL    HW110471   2.028   2.925   6.562  0.4631  1.4810 -2.5540
 2957SOL    HW210472   1.997   3.039   6.674  0.7666 -0.8359  0.0091
 2958SOL     OW10473   3.069   3.497   1.221  0.2915 -0.2715 -0.0777
 2958SOL    HW110474   3.078   3.561   1.298 -0.4124 -0.7095  0.3884
 2958SOL    HW210475   3.052   3.405   1.256 -2.0432 -0.1614 -0.7272
 2959SOL     OW10476   0.786   2.664   2.783 -0.2214 -0.3417 -0.0493
 2959SOL    HW110477   0.745   2.709   2.863 -0.1354 -0.8632  0.2925
 2959SOL    HW210478   0.835   2.582   2.812  0.1528 -0.3169 -0.5913
 2960SOL     OW10479   4.660   1.324   2.996  0.6330 -0.1702 -0.2633
 2960SOL    HW110480   4.617   1.268   3.067 -0.2287 -2.2437 -2.2935
 2960SOL    HW210481   4.759   1.314   3.000  0.5385 -0.9686  0.1136
 2961SOL     OW10482   3.024   5.822   5.644  0.3504  0.1544  1.0988
 2961SOL    HW110483   3.122   5.839   5.638  0.4929 -0.2038  2.2140
 2961SOL    HW210484   2.993   5.838   5.738 -0.6357  0.1208  0.7944
 2962SOL     OW10485   1.975   5.926   5.482 -0.0626  0.0713  0.5825
 2962SOL    HW110486   1.966   6.024   5.494 -0.9724  0.1683 -0.6987
 2962SOL    HW210487   1.903   5.892   5.422 -0.2816 -1.5243  1.6660
 2963SOL     OW10488   1.628   3.302   4.612 -0.5910  0.4382 -0.3991
 2963SOL    HW110489   1.550   3.243   4.589 -0.3923 -0.1182  0.3167
 2963SOL    HW210490   1.675   3.330   4.528  0.0143 -1.4047 -0.7230
 2964SOL     OW10491   5.061   1.965   3.231 -0.0190 -0.3138 -0.3144
 2964SOL    HW110492   4.975   2.012   3.249 -0.8390 -1.7246 -0.4207
 2964SOL    HW210493   5.074   1.954   3.133 -0.5044 -1.4448 -0.2742
 2965SOL     OW10494   0.563   1.991   1.665 -0.5049  0.0040 -0.3723
 2965SOL    HW110495   0.591   1.946   1.580 -0.4351 -1.9001  0.6034
 2965SOL    HW210496   0.482   2.047   1.647 -2.0466 -2.3325 -1.2809
 2966SOL     OW10497   1.982   6.702   2.238  0.0200 -0.3803  0.6809
 2966SOL    HW110498   2.051   6.759   2.195 -0.6744 -0.6526 -0.8522
 2966SOL    HW210499   1.896   6.706   2.186 -0.4837 -1.6841  1.3348
 2967SOL     OW10500   3.798   1.647   0.153  0.1163 -0.1022  0.1129
 2967SOL    HW110501   3.751   1.659   0.065  1.3357 -1.5075 -0.7912
 2967SOL    HW210502   3.764   1.564   0.197  0.9470 -0.5336 -0.0354
 2968SOL     OW10503   6.038   5.349   6.080  0.5421 -0.2001  0.3668
 2968SOL    HW110504   5.967   5.381   6.018  2.0106  0.7726 -0.8946
 2968SOL    HW210505   6.080   5.427   6.126  0.8230 -0.7573  1.0829
 2969SOL     OW10506   4.498   6.378   1.517 -0.1023  0.2741  0.3534
 2969SOL    HW110507   4.527   6.363   1.422 -1.5734 -0.6644  0.0081
 2969SOL    HW210508   4.575   6.366   1.578  0.9880  1.3494 -0.7396
 2970SOL     OW10509   5.243   5.416   4.372 -0.2259  0.5015  0.1208
 2970SOL    HW110510   5.318   5.465   4.416  1.2394  0.1952 -1.9054
 2970SOL    HW210511   5.265   5.400   4.276 -2.0479 -1.3417 -0.0629
 2971SOL     OW10512   6.057   4.156   1.133  0.2712  0.0332 -0.7523
 2971SOL    HW110513   6.051   4.076   1.193  1.5343  0.8503  0.5172
 2971SOL    HW210514   6.008   4.233   1.172 -1.9238 -0.3698 -2.5266
 2972SOL     OW10515   2.511   0.902   5.371  0.5766  0.0298 -0.7375
 2972SOL    HW110516   2.516   0.993   5.331  3.9326  0.4968  0.4258
 2972SOL    HW210517   2.497   0.909   5.470  0.5927 -0.7361 -0.6742
 2973SOL     OW10518   3.018   1.681   3.025  0.0962  0.0466 -0.5770
 2973SOL    HW110519   3.054   1.770   2.998  2.3420 -0.0959  1.6000
 2973SOL    HW210520   3.071   1.608   2.982 -0.8562 -0.2694 -1.2619
 2974SOL     OW10521   0.100   0.115   2.241 -0.0077 -0.5912  0.9899
 2974SOL    HW110522   0.027   0.177   2.270 -0.4106  0.0385 -1.1853
 2974SOL    HW210523   0.070   0.063   2.161  0.6810 -2.9458  2.1775
 2975SOL     OW10524   1.738   4.034   3.971 -0.2206 -0.1352  0.0727
 2975SOL    HW110525   1.799   3.958   3.949 -0.4613 -0.6856  1.2809
 2975SOL    HW210526   1.777   4.119   3.936  2.8000  0.0149  3.2980
 2976SOL     OW10527   2.422   0.826   3.602 -0.2267 -0.2514 -0.1381
 2976SOL    HW110528   2.340   0.772   3.620 -1.1511  0.6302 -1.5182
 2976SOL    HW210529   2.438   0.832   3.503 -0.0738  1.8083 -0.0439
 2977SOL     OW10530   5.244   6.528   2.026 -0.3675  0.3368 -0.4791
 2977SOL    HW110531   5.325   6.585   2.013  0.3411 -0.4639  0.3115
 2977SOL    HW210532   5.238   6.461   1.952  1.8157 -2.0411  1.3102
 2978SOL     OW10533   6.541   5.388   3.665 -0.4177  0.4735  0.3253
 2978SOL    HW110534   6.534   5.401   3.566 -2.0592 -1.1934  0.1512
 2978SOL    HW210535   6.503   5.298   3.689 -1.7376  1.5719  2.6545
 2979SOL     OW10536   4.291   5.251   5.692 -0.8384 -0.3507  0.0956
 2979SOL    HW110537   4.236   5.182   5.645 -0.6117 -1.6798  1.6882
 2979SOL    HW210538   4.358   5.289   5.629 -1.7191 -0.7375 -1.1178
 2980SOL     OW10539   6.166   5.017   2.843 -0.4109 -0.1144 -0.9564
 2980SOL    HW110540   6.198   4.950   2.909 -0.7768  0.2021 -0.4525
 2980SOL    HW210541   6.144   5.102   2.890  0.4975  0.5275 -1.6420
 2981SOL     OW10542   4.195   1.503   5.884  0.0135 -0.2487  0.2143
 2981SOL    HW110543   4.141   1.504   5.968  0.0994 -0.0817  0.2662
 2981SOL    HW210544   4.232   1.411   5.870  0.2615 -0.1976  0.5258
 2982SOL     OW10545   5.132   6.130   6.675  0.3587 -0.0405 -0.3502
 2982SOL    HW110546   5.083   6.122   6.762  0.2437 -0.2825 -0.4376
 2982SOL    HW210547   5.102   6.212   6.627 -1.4108 -1.1902 -1.3195
 2983SOL     OW10548   2.679   5.995   1.339  0.5509  0.3036  0.1323
 2983SOL    HW110549   2.723   5.935   1.273 -0.4963 -1.2665  0.8030
 2983SOL    HW210550   2.669   6.086   1.300  2.4645  0.1604 -0.7963
 2984SOL     OW10551   4.888   2.282   0.114 -0.4683 -0.3380 -0.0292
 2984SOL    HW110552   4.895   2.364   0.171  0.2324 -1.3975  1.4743
 2984SOL    HW210553   4.791   2.263   0.095 -0.8015 -0.5411  1.7132
 2985SOL     OW10554   0.180   6.063   3.804  0.0600 -0.0763 -0.5344
 2985SOL    HW110555   0.161   6.006   3.724 -0.7987 -0.6698  0.0810
 2985SOL    HW210556   0.157   6.158   3.783 -0.3125 -0.2553 -0.9438
 2986SOL     OW10557   6.485   1.597   6.197 -0.1686  0.1002 -0.0458
 2986SOL    HW110558   6.563   1.548   6.236  1.3534  3.1717  1.1122
 2986SOL    HW210559   6.400   1.557   6.231  0.9927 -0.8591  1.9293
 2987SOL     OW10560   3.701   1.842   0.306  0.5071 -0.4411  0.1008
 2987SOL    HW110561   3.764   1.775   0.269  0.6353  0.0552 -0.5918
 2987SOL    HW210562   3.752   1.921   0.340  0.1992  0.8936 -2.3334
 2988SOL     OW10563   4.947   0.477   2.853 -0.3199 -0.6202  0.0286
 2988SOL    HW110564   4.863   0.522   2.884  0.0010  0.1861 -0.2383
 2988SOL    HW210565   4.970   0.510   2.761 -0.8617 -2.4379 -0.8006
 2989SOL     OW10566   0.195   1.038   6.139 -0.1969  0.2299  0.1630
 2989SOL    HW110567   0.282   1.020   6.185  0.5535  1.9085 -0.5387
 2989SOL    HW210568   0.187   0.979   6.059  0.3421  0.1321  0.1770
 2990SOL     OW10569   2.198   3.426   0.717 -0.1942  0.1401  0.1006
 2990SOL    HW110570   2.113   3.401   0.762  0.7691 -1.7322  0.9901
 2990SOL    HW210571   2.264   3.458   0.785 -0.1294  1.5099 -0.5691
 2991SOL     OW10572   5.255   3.746   6.743  0.1620  0.0124 -0.2371
 2991SOL    HW110573   5.180   3.735   6.807 -2.2094 -0.4505 -2.8769
 2991SOL    HW210574   5.219   3.774   6.654  3.1034 -0.5204 -1.7270
 2992SOL     OW10575   2.717   3.700   5.731 -0.0670  0.2233 -0.2627
 2992SOL    HW110576   2.733   3.739   5.822 -3.4725  0.5948  0.2860
 2992SOL    HW210577   2.644   3.632   5.737  0.3924 -0.5559 -2.6031
 2993SOL     OW10578   5.895   3.161   2.083  0.4150 -0.7766 -0.6645
 2993SOL    HW110579   5.899   3.142   2.181 -0.4327 -2.1793 -0.8766
 2993SOL    HW210580   5.834   3.095   2.038  1.4805 -0.7383 -2.2747
 2994SOL     OW10581   4.947   6.715   6.184 -0.0063  0.0018  0.1912
 2994SOL    HW110582   5.026   6.750   6.135  0.6483 -1.0635  0.4679
 2994SOL    HW210583   4.917   6.629   6.143 -0.6879  0.1209  0.4275
 2995SOL     OW10584   4.374   5.723   4.412 -0.1735  0.4343  0.3212
 2995SOL    HW110585   4.415   5.758   4.328 -2.5232 -0.3651 -1.2910
 2995SOL    HW210586   4.377   5.623   4.412  0.0207  0.4273  1.3304
 2996SOL     OW10587   5.992   2.622   2.857 -0.4287  0.4140 -0.0251
 2996SOL    HW110588   6.013   2.684   2.932 -2.1019  1.4158 -0.3376
 2996SOL    HW210589   5.912   2.567   2.882  0.0801 -0.5088 -0.3882
 2997SOL     OW10590   0.474   3.637   0.697  0.0081  0.5909  0.5134
 2997SOL    HW110591   0.526   3.568   0.648 -0.9112 -0.5407  1.0804
 2997SOL    HW210592   0.463   3.609   0.793 -0.0747  1.7010  0.8466
 2998SOL     OW10593   2.977   5.391   2.924  0.1950 -0.3573  0.4936
 2998SOL    HW110594   3.045   5.434   2.983  0.7551  0.2262 -0.5514
 2998SOL    HW210595   2.937   5.459   2.863 -2.0128 -0.5103  1.6886
 2999SOL     OW10596   6.595   3.277   3.211  0.7063  0.0507 -0.9445
 2999SOL    HW110597   6.651   3.199   3.239 -1.0460 -1.4373 -1.3785
 2999SOL    HW210598   6.591   3.343   3.286  2.5037 -0.0682 -0.6899
 3000SOL     OW10599   5.913   5.283   1.373  0.4440 -0.1698 -0.2497
 3000SOL    HW110600   5.966   5.340   1.436  0.3345  0.6621 -0.8924
 3000SOL    HW210601   5.816   5.287   1.399  0.3629  0.3917 -0.6264
 3001SOL     OW10602   2.159   0.313   2.330  0.0039 -0.3810  0.0570
 3001SOL    HW110603   2.060   0.298   2.334 -0.0770  0.0276 -0.3080
 3001SOL    HW210604   2.195   0.322   2.422 -0.3672 -0.1132  0.1798
 3002SOL     OW10605   1.210   4.229   3.828 -0.2329  0.6785  0.0609
 3002SOL    HW110606   1.191   4.166   3.753 -1.4352  1.0209  0.0704
 3002SOL    HW210607   1.189   4.322   3.800  1.0934  1.0489  0.2085
 3003SOL     OW10608   4.837   6.046   6.135 -0.0461 -0.2109  0.3549
 3003SOL    HW110609   4.755   5.995   6.161 -0.8478  0.7879 -0.1309
 3003SOL    HW210610   4.908   5.982   6.105 -0.8010 -1.0681  0.3428
 3004SOL     OW10611   1.746   3.346   4.357 -0.2664 -0.2053 -0.2063
 3004SOL    HW110612   1.673   3.409   4.332  0.3685 -0.5450 -3.3179
 3004SOL    HW210613   1.824   3.358   4.295  1.1036 -1.9471  1.0666
 3005SOL     OW10614   0.529   2.549   2.050  0.2659  0.1560 -0.1852
 3005SOL    HW110615   0.556   2.564   2.145 -0.7248  3.0524 -0.2652
 3005SOL    HW210616   0.594   2.487   2.006  1.3004 -0.4696  2.0803
 3006SOL     OW10617   3.303   5.368   2.173  0.3951  0.1937  0.0550
 3006SOL    HW110618   3.344   5.332   2.089 -0.8269  0.8157 -0.8403
 3006SOL    HW210619   3.253   5.452   2.152 -3.8576 -1.9837  0.3939
 3007SOL     OW10620   6.336   1.507   1.525  0.2551 -0.6197  0.7225
 3007SOL    HW110621   6.435   1.507   1.530  0.4883  1.5081 -1.6918
 3007SOL    HW210622   6.298   1.472   1.611  3.0331 -1.5307  1.6939
 3008SOL     OW10623   0.925   5.377   1.726 -0.1707  0.2281  0.2085
 3008SOL    HW110624   1.015   5.411   1.751  0.6095 -1.6011  0.0674
 3008SOL    HW210625   0.918   5.372   1.626  0.2077 -1.1298  0.2285
 3009SOL     OW10626   5.829   6.886   2.274  0.6144  0.2881 -0.4840
 3009SOL    HW110627   5.767   6.933   2.337 -0.8273 -0.5385 -1.2193
 3009SOL    HW210628   5.903   6.842   2.325  0.7155  1.4500  0.4019
 3010SOL     OW10629   5.157   1.575   6.846 -0.5611 -0.0927 -0.4396
 3010SOL    HW110630   5.202   1.660   6.819  0.8092 -1.2123 -1.8599
 3010SOL    HW210631   5.061   1.592   6.864  0.1246  2.2022  1.6463
 3011SOL     OW10632   2.184   6.606   1.519  0.2156  0.0898 -0.1971
 3011SOL    HW110633   2.095   6.588   1.479 -1.4675 -0.0800  3.2181
 3011SOL    HW210634   2.193   6.703   1.539  0.1556 -0.0744  0.6984
 3012SOL     OW10635   5.620   1.411   0.138  0.0837 -0.0362  0.2283
 3012SOL    HW110636   5.554   1.383   0.069 -0.3830 -0.4715  0.8378
 3012SOL    HW210637   5.605   1.507   0.162 -1.2554 -0.4796  1.3442
 3013SOL     OW10638   3.469   5.669   4.587 -0.1561  0.3220  0.0375
 3013SOL    HW110639   3.511   5.603   4.649  0.6495  0.3879 -0.4229
 3013SOL    HW210640   3.478   5.761   4.625 -0.5492  0.2552  0.2923
 3014SOL     OW10641   4.168   0.456   6.474 -0.5838  1.1241  0.1703
 3014SOL    HW110642   4.124   0.488   6.390 -0.8265  1.2047  0.3260
 3014SOL    HW210643   4.197   0.535   6.528 -3.5494  1.2279  1.8200
 3015SOL     OW10644   6.203   4.534   2.077 -0.1426 -0.2283  0.5186
 3015SOL    HW110645   6.182   4.560   2.171 -1.0732  0.0389  0.2506
 3015SOL    HW210646   6.126   4.485   2.037 -0.3374  0.8954 -0.5491
 3016SOL     OW10647   5.651   0.319   0.324  0.1620 -0.0447 -0.4386
 3016SOL    HW110648   5.714   0.283   0.256 -0.3761 -0.9078 -0.4923
 3016SOL    HW210649   5.573   0.362   0.279  0.0287 -0.2112 -0.3674
 3017SOL     OW10650   6.694   6.921   2.448 -0.1164  0.2742  0.1829
 3017SOL    HW110651   6.783   6.901   2.490 -0.1741  2.1143  1.3116
 3017SOL    HW210652   6.707   6.979   2.368 -0.1600 -1.6127 -1.2578
 3018SOL     OW10653   0.351   2.078   1.303  0.1310 -0.0192  0.2661
 3018SOL    HW110654   0.320   2.146   1.369 -0.1262 -1.8858  2.1543
 3018SOL    HW210655   0.445   2.051   1.324  0.5762  0.4343 -1.0651
 3019SOL     OW10656   3.715   1.080   1.008  0.3447  0.8729  0.3158
 3019SOL    HW110657   3.740   1.128   1.092  0.0631 -0.2130  1.0444
 3019SOL    HW210658   3.630   1.117   0.972 -0.2316  0.4772  1.2433
 3020SOL     OW10659   5.049   1.399   5.615  0.3723  0.4221  0.0499
 3020SOL    HW110660   5.026   1.381   5.520  0.0187  0.7849  0.0644
 3020SOL    HW210661   5.137   1.356   5.637  0.2836  0.0383 -0.3362
 3021SOL     OW10662   5.127   1.450   0.400 -0.1325 -0.3789 -0.6892
 3021SOL    HW110663   5.125   1.537   0.350 -0.2214 -0.7321 -1.3085
 3021SOL    HW210664   5.198   1.454   0.470 -1.8343  1.1453  1.0791
 3022SOL     OW10665   0.032   6.691   2.013  0.1595  0.4878 -0.2585
 3022SOL    HW110666   0.035   6.595   1.988 -1.2213  0.0380  1.0874
 3022SOL    HW210667   0.103   6.710   2.082 -0.1613  0.1883  0.1631
 3023SOL     OW10668   2.106   6.321   1.648 -0.2800 -0.0559  0.0107
 3023SOL    HW110669   2.014   6.287   1.666  0.1137 -1.6113 -0.7537
 3023SOL    HW210670   2.113   6.416   1.679 -1.8263 -0.2270  1.0070
 3024SOL     OW10671   2.061   6.894   0.847 -0.0717 -0.1607 -0.6821
 3024SOL    HW110672   1.973   6.910   0.892 -0.6493 -2.3766 -0.9197
 3024SOL    HW210673   2.099   6.807   0.877  0.8689 -0.3868 -2.3889
 3025SOL     OW10674   3.723   5.534   5.635 -0.1187  0.1691 -0.2268
 3025SOL    HW110675   3.661   5.548   5.557  0.1598 -2.0575 -0.9097
 3025SOL    HW210676   3.669   5.509   5.715 -0.2827  0.8816 -0.1064
 3026SOL     OW10677   3.448   5.789   6.399 -0.5533  0.1447 -0.4945
 3026SOL    HW110678   3.454   5.859   6.328 -3.2556  0.1023 -0.8717
 3026SOL    HW210679   3.354   5.757   6.406 -0.3986  0.0907  3.0958
 3027SOL     OW10680   3.142   5.673   3.622 -0.4592 -0.1281  0.3708
 3027SOL    HW110681   3.168   5.721   3.706 -2.6105 -1.5457  1.9606
 3027SOL    HW210682   3.212   5.689   3.552  0.7110  2.2628  1.9338
 3028SOL     OW10683   5.344   5.980   0.321  0.0454 -0.1134  0.6170
 3028SOL    HW110684   5.437   5.949   0.337 -0.0623 -0.4536  0.5750
 3028SOL    HW210685   5.330   5.995   0.223 -0.4397 -1.6470  0.4259
 3029SOL     OW10686   5.595   5.703   0.984  0.7779 -0.4742 -0.0175
 3029SOL    HW110687   5.661   5.657   1.043 -0.4398 -1.3565  0.6976
 3029SOL    HW210688   5.538   5.636   0.937 -0.5640  0.2584  0.4995
 3030SOL     OW10689   5.846   0.510   3.627 -0.3908 -0.2840  0.3984
 3030SOL    HW110690   5.863   0.413   3.640  1.6308 -0.1006 -0.4209
 3030SOL    HW210691   5.828   0.528   3.530  0.8961  0.3292  0.2486
 3031SOL     OW10692   3.344   4.301   2.244 -0.0176  0.5297 -0.2420
 3031SOL    HW110693   3.336   4.201   2.244  0.9159  0.4490 -0.4635
 3031SOL    HW210694   3.253   4.341   2.244 -0.4059 -0.3253 -0.5388
 3032SOL     OW10695   0.539   4.387   5.115  0.3733 -0.1154 -0.1330
 3032SOL    HW110696   0.469   4.330   5.072 -0.5324 -0.3343  1.5240
 3032SOL    HW210697   0.568   4.345   5.201  0.9147  1.0761  0.2921
 3033SOL     OW10698   3.054   0.524   0.301 -0.2414 -0.1123  0.6688
 3033SOL    HW110699   2.974   0.516   0.242  0.8622  2.0266 -1.3126
 3033SOL    HW210700   3.054   0.613   0.346 -0.0384 -0.9493  2.3941
 3034SOL     OW10701   2.692   1.845   5.807 -0.2810  0.2522  0.1652
 3034SOL    HW110702   2.723   1.772   5.868  1.0179 -0.3148 -1.1170
 3034SOL    HW210703   2.592   1.852   5.812 -0.5576 -2.2612 -0.3379
 3035SOL     OW10704   2.070   2.099   4.867  0.4293 -0.0053  0.3024
 3035SOL    HW110705   2.032   2.184   4.830  1.2074 -0.2101 -1.0351
 3035SOL    HW210706   2.080   2.108   4.966 -1.8518  0.5180  0.5542
 3036SOL     OW10707   5.468   0.671   2.534 -0.5105  0.0241  0.7454
 3036SOL    HW110708   5.511   0.745   2.585 -0.4767 -0.8266  2.0256
 3036SOL    HW210709   5.420   0.611   2.598 -0.5287 -1.0581 -0.2469
 3037SOL     OW10710   5.232   4.831   0.129 -0.5112  0.6528 -0.6336
 3037SOL    HW110711   5.329   4.808   0.116 -0.6742 -0.0370 -0.6861
 3037SOL    HW210712   5.182   4.807   0.046 -0.7748  0.7300 -0.4954
 3038SOL     OW10713   5.106   3.881   3.092  0.2467 -0.3778 -0.9299
 3038SOL    HW110714   5.144   3.863   3.001  1.2971 -0.3012 -0.5301
 3038SOL    HW210715   5.134   3.972   3.122 -3.8019  1.5461 -2.3351
 3039SOL     OW10716   2.404   6.840   3.778 -0.5209  0.4864 -0.3453
 3039SOL    HW110717   2.474   6.770   3.786 -0.5216  0.4948 -0.2664
 3039SOL    HW210718   2.445   6.925   3.746 -0.1101  1.1103  1.6916
 3040SOL     OW10719   0.995   6.945   6.772 -0.0344 -0.2590 -0.2316
 3040SOL    HW110720   0.947   6.883   6.835  0.3766 -0.9275 -0.5646
 3040SOL    HW210721   0.957   6.934   6.680  0.2781 -0.2696 -0.3587
 3041SOL     OW10722   2.308   3.435   0.056  0.5907  0.0116 -0.3603
 3041SOL    HW110723   2.331   3.516   0.109 -2.2375 -0.2988  1.5664
 3041SOL    HW210724   2.328   3.353   0.110  0.4612 -0.4480 -0.9989
 3042SOL     OW10725   5.073   5.958   5.159 -0.0033  0.0633  0.0460
 3042SOL    HW110726   5.025   5.887   5.211  0.4703 -0.4116 -0.1629
 3042SOL    HW210727   5.010   6.034   5.142 -0.2370  0.1237  1.1000
 3043SOL     OW10728   6.860   5.674   5.250 -0.0360 -0.5104 -0.2151
 3043SOL    HW110729   6.922   5.602   5.280 -0.2808 -0.7896 -0.3743
 3043SOL    HW210730   6.792   5.690   5.322  1.8892  1.8058  1.2473
 3044SOL     OW10731   2.236   1.269   6.377  0.0948  0.1720 -0.1769
 3044SOL    HW110732   2.242   1.324   6.460  1.2935 -1.0256  0.5629
 3044SOL    HW210733   2.309   1.201   6.376 -1.3342 -1.4321 -1.0611
 3045SOL     OW10734   3.804   5.848   6.668  0.4686 -0.7391  0.2156
 3045SOL    HW110735   3.756   5.885   6.748 -0.9620 -3.2235  0.6402
 3045SOL    HW210736   3.737   5.812   6.603  1.6321  0.7371 -1.9085
 3046SOL     OW10737   2.296   4.326   1.790  0.1078 -0.3480 -0.4077
 3046SOL    HW110738   2.317   4.251   1.727 -0.5130  0.6392 -1.8354
 3046SOL    HW210739   2.316   4.297   1.884  0.7091 -1.9833 -1.0052
 3047SOL     OW10740   5.356   3.418   1.901  0.3401  0.3373 -0.0001
 3047SOL    HW110741   5.324   3.429   1.807 -1.0096 -1.4293  0.1867
 3047SOL    HW210742   5.424   3.344   1.904  0.4310  0.4357  0.4069
 3048SOL     OW10743   3.236   1.228   4.029 -0.7472  0.2222 -0.5995
 3048SOL    HW110744   3.149   1.184   4.052 -0.3297 -0.4380 -0.2400
 3048SOL    HW210745   3.234   1.259   3.934 -1.5594  0.6773 -0.4381
 3049SOL     OW10746   4.247   2.823   1.734 -0.7747 -0.4357  0.2300
 3049SOL    HW110747   4.245   2.744   1.795 -0.1502 -1.8206 -1.4758
 3049SOL    HW210748   4.341   2.856   1.726 -0.8522 -0.2730 -0.0035
 3050SOL     OW10749   2.486   5.686   3.056  0.5001  0.2035  0.0792
 3050SOL    HW110750   2.517   5.780   3.066 -1.2596  1.1334 -2.2290
 3050SOL    HW210751   2.410   5.683   2.990  0.4906 -2.8301  0.0996
 3051SOL     OW10752   4.053   0.546   0.534  0.1200  0.3767 -0.4299
 3051SOL    HW110753   3.954   0.538   0.520  0.2361 -0.2570 -0.9369
 3051SOL    HW210754   4.071   0.583   0.625 -0.5553 -1.1946  0.3795
 3052SOL     OW10755   0.267   6.416   4.312 -0.4201 -0.8668 -0.7053
 3052SOL    HW110756   0.220   6.350   4.370  1.2808 -1.1557  0.4239
 3052SOL    HW210757   0.250   6.509   4.345  0.9909 -1.0562  0.6993
 3053SOL     OW10758   1.580   5.451   1.380 -0.0421 -0.3343  0.8820
 3053SOL    HW110759   1.640   5.376   1.352 -0.8252 -0.0927 -1.7323
 3053SOL    HW210760   1.615   5.493   1.464  0.9657 -2.9316  1.8514
 3054SOL     OW10761   6.708   6.475   3.262 -0.2381 -0.3453 -0.0758
 3054SOL    HW110762   6.762   6.524   3.330  0.0504 -2.0908  1.0015
 3054SOL    HW210763   6.638   6.537   3.225  1.3752  1.4489 -0.2738
 3055SOL     OW10764   2.493   4.601   2.633  0.4953  0.1260  0.0306
 3055SOL    HW110765   2.557   4.524   2.623  1.5048  0.7674  1.2459
 3055SOL    HW210766   2.529   4.666   2.700 -2.1236 -0.1829  1.9058
 3056SOL     OW10767   6.948   3.478   5.292  0.0424 -0.6258 -0.1646
 3056SOL    HW110768   6.889   3.558   5.278  1.6399  0.8418  1.0858
 3056SOL    HW210769   6.989   3.450   5.205  1.7762  1.8306 -0.2359
 3057SOL     OW10770   3.313   1.810   0.845  0.1679  0.1576 -0.2674
 3057SOL    HW110771   3.378   1.756   0.792 -0.4817  0.2009 -1.1199
 3057SOL    HW210772   3.357   1.895   0.874  0.0173  0.9643 -2.2601
 3058SOL     OW10773   2.891   5.516   3.669 -0.5746  0.3629  0.5635
 3058SOL    HW110774   2.903   5.487   3.764  1.2186  0.8391  0.5209
 3058SOL    HW210775   2.971   5.568   3.640 -1.4659  0.9554 -0.9585
 3059SOL     OW10776   3.166   0.969   3.085 -0.0441 -0.1027  1.2884
 3059SOL    HW110777   3.091   0.933   3.029 -1.1796  0.5175  2.3628
 3059SOL    HW210778   3.128   1.015   3.165  1.5257 -0.5559  2.3311
 3060SOL     OW10779   1.751   3.025   1.118  0.6336  0.3400  0.2550
 3060SOL    HW110780   1.769   3.083   1.198  0.9167  1.8060 -0.8129
 3060SOL    HW210781   1.750   3.083   1.035 -2.3561 -0.6876 -0.5218
 3061SOL     OW10782   4.277   1.620   6.203 -0.5964 -0.5072 -0.0989
 3061SOL    HW110783   4.347   1.549   6.211 -1.6632 -1.7993 -1.4893
 3061SOL    HW210784   4.316   1.700   6.158  1.0026  0.4443  2.7272
 3062SOL     OW10785   0.303   6.741   6.156 -0.1048 -0.4383  0.0660
 3062SOL    HW110786   0.327   6.818   6.215  1.2584  0.3287 -1.4253
 3062SOL    HW210787   0.240   6.680   6.205  0.3318  0.5786  1.9891
 3063SOL     OW10788   2.102   5.838   1.878  0.6059  1.3897  0.0117
 3063SOL    HW110789   2.195   5.875   1.882  0.1326  2.6993 -0.3629
 3063SOL    HW210790   2.039   5.904   1.920 -0.2147  0.7431 -0.1838
 3064SOL     OW10791   0.161   5.653   5.766  0.5128  0.4773 -0.1136
 3064SOL    HW110792   0.073   5.681   5.805 -0.1316  0.4375 -1.5041
 3064SOL    HW210793   0.218   5.614   5.839 -0.1385  1.6090  1.0514
 3065SOL     OW10794   4.001   1.910   2.462  0.4543 -0.1876  0.0552
 3065SOL    HW110795   4.072   1.902   2.532 -0.2511  0.9430  0.9401
 3065SOL    HW210796   4.043   1.927   2.373  1.3021  0.3956  0.5520
 3066SOL     OW10797   5.580   1.379   6.238  0.0099  0.1548  0.2076
 3066SOL    HW110798   5.560   1.407   6.333  0.6278  0.4537  0.2562
 3066SOL    HW210799   5.555   1.283   6.226  0.4302 -0.0374  0.8290
 3067SOL     OW10800   4.480   5.977   4.863 -0.1229  0.0888 -0.1114
 3067SOL    HW110801   4.439   6.038   4.931  2.2492  3.1702 -1.1864
 3067SOL    HW210802   4.413   5.958   4.791 -1.3102  0.4063  0.8665
 3068SOL     OW10803   4.146   6.603   6.748 -0.3517  0.5762  0.0392
 3068SOL    HW110804   4.066   6.612   6.689  0.3025  2.7645 -0.6074
 3068SOL    HW210805   4.129   6.651   6.834  0.6168  1.9865 -0.5293
 3069SOL     OW10806   0.095   4.512   6.417 -0.0690 -0.1659  0.2953
 3069SOL    HW110807   0.019   4.447   6.413  0.2306 -0.4557 -0.7730
 3069SOL    HW210808   0.174   4.468   6.459  0.2248 -0.5932 -0.6910
 3070SOL     OW10809   2.361   4.894   0.478 -0.4500  0.0165 -0.5526
 3070SOL    HW110810   2.345   4.804   0.438  1.3321 -0.1356 -1.0320
 3070SOL    HW210811   2.397   4.956   0.408 -3.1038  1.6347 -0.6363
 3071SOL     OW10812   5.525   0.829   5.485  0.0214  0.6787  0.2010
 3071SOL    HW110813   5.581   0.774   5.548  1.8792  1.2143 -0.9363
 3071SOL    HW210814   5.578   0.853   5.404 -2.2975  0.0267 -1.6319
 3072SOL     OW10815   1.478   3.640   5.366  0.2809 -0.0183 -0.1859
 3072SOL    HW110816   1.563   3.645   5.419  1.7070 -0.8570 -2.2485
 3072SOL    HW210817   1.474   3.715   5.300  0.6465 -1.2932 -1.7290
 3073SOL     OW10818   2.140   0.752   1.413  0.6076 -0.0800 -0.8450
 3073SOL    HW110819   2.134   0.755   1.313 -0.0916  0.8714 -0.7836
 3073SOL    HW210820   2.157   0.844   1.448  0.0458 -0.2720 -0.0419
 3074SOL     OW10821   5.588   0.986   1.574  0.1731 -0.0003 -0.0526
 3074SOL    HW110822   5.604   1.084   1.560  0.6378  0.2541  1.9853
 3074SOL    HW210823   5.648   0.933   1.514  1.5265  0.9695  0.4064
 3075SOL     OW10824   5.965   5.012   5.457  0.0490 -0.0983  0.1845
 3075SOL    HW110825   6.040   4.946   5.459  1.1583  1.1192  0.3205
 3075SOL    HW210826   5.879   4.964   5.441  0.9158 -1.4822 -0.5587
 3076SOL     OW10827   2.417   5.631   5.372 -0.4490  0.5079 -1.2355
 3076SOL    HW110828   2.437   5.697   5.444  0.5678 -1.4955  0.4142
 3076SOL    HW210829   2.348   5.566   5.404  0.4451 -0.7734 -1.8222
 3077SOL     OW10830   2.120   2.145   1.887 -0.0366 -0.1243 -0.7362
 3077SOL    HW110831   2.038   2.089   1.904 -1.3154  1.5075 -1.2933
 3077SOL    HW210832   2.132   2.158   1.789 -0.3346  1.3807 -0.5873
 3078SOL     OW10833   1.487   4.404   0.473  0.2668  0.2496 -0.4538
 3078SOL    HW110834   1.449   4.453   0.551  1.4688  2.2298 -1.0530
 3078SOL    HW210835   1.437   4.429   0.390 -2.2905 -3.2720 -0.2374
 3079SOL     OW10836   4.367   1.863   4.412 -0.1617  0.6070 -0.5347
 3079SOL    HW110837   4.326   1.925   4.478 -1.5774 -0.6803 -0.1532
 3079SOL    HW210838   4.299   1.796   4.382  0.7789  0.4023 -2.3910
 3080SOL     OW10839   3.120   6.255   6.524 -0.1964  0.0524  0.0017
 3080SOL    HW110840   3.144   6.344   6.486 -0.0663  1.0731  2.2998
 3080SOL    HW210841   3.198   6.219   6.575 -1.2967  0.2555  1.9262
 3081SOL     OW10842   2.695   0.758   5.213  0.3233 -0.3997  0.3014
 3081SOL    HW110843   2.633   0.791   5.284  0.7844  0.2824  0.3978
 3081SOL    HW210844   2.690   0.659   5.209 -0.7285 -0.3614  0.3461
 3082SOL     OW10845   0.025   3.705   4.329  0.3011 -0.7091  0.2877
 3082SOL    HW110846   0.103   3.724   4.269  0.3482 -0.1636  0.5197
 3082SOL    HW210847  -0.060   3.722   4.278  0.3402 -0.4326  0.3124
 3083SOL     OW10848   1.642   6.363   3.070  0.0427  0.0883 -0.3170
 3083SOL    HW110849   1.674   6.449   3.031 -0.3099  0.5971  0.4812
 3083SOL    HW210850   1.689   6.347   3.158 -0.4400 -0.1534 -0.1009
 3084SOL     OW10851   2.009   6.554   2.443 -0.3417  0.4010 -0.1236
 3084SOL    HW110852   1.915   6.532   2.471  0.0425 -1.8687 -0.3714
 3084SOL    HW210853   2.007   6.602   2.355 -1.2928  1.4543  0.4505
 3085SOL     OW10854   5.073   0.583   2.610  0.2211  0.5210 -0.0626
 3085SOL    HW110855   5.073   0.583   2.510 -1.5883  1.6653 -0.1040
 3085SOL    HW210856   5.165   0.561   2.643  0.6316 -0.8177 -1.9396
 3086SOL     OW10857   0.408   3.151   2.672 -0.2616 -0.3117  0.1040
 3086SOL    HW110858   0.431   3.140   2.575 -0.0631 -0.3783  0.1590
 3086SOL    HW210859   0.401   3.249   2.693  0.0831 -0.2857  0.1120
 3087SOL     OW10860   5.512   2.059   2.439  0.1945 -0.3934 -0.2428
 3087SOL    HW110861   5.598   2.090   2.480  0.6167 -0.8324 -0.7902
 3087SOL    HW210862   5.479   1.979   2.490 -0.7545  0.7394  0.9977
 3088SOL     OW10863   0.294   2.995   3.547 -0.1685  0.3223  0.0199
 3088SOL    HW110864   0.362   2.939   3.595 -1.8209 -1.1817  0.7714
 3088SOL    HW210865   0.240   2.937   3.486 -1.8425  1.1006  0.6899
 3089SOL     OW10866   1.939   6.556   0.639 -0.3099 -0.3247 -0.1880
 3089SOL    HW110867   1.899   6.605   0.562  0.2822 -0.9003 -0.8735
 3089SOL    HW210868   1.992   6.620   0.695  1.7954 -0.4032 -1.9583
 3090SOL     OW10869   1.422   5.770   2.583  0.1820  0.1391 -0.7644
 3090SOL    HW110870   1.357   5.788   2.509 -0.4737  2.8758  0.3506
 3090SOL    HW210871   1.511   5.808   2.559 -0.6684  3.4782  0.7254
 3091SOL     OW10872   6.044   6.365   3.635 -0.5036  0.2462 -0.1472
 3091SOL    HW110873   5.973   6.392   3.700 -0.6246 -0.6713  0.1108
 3091SOL    HW210874   6.041   6.427   3.556 -0.3387  1.3798  0.7169
 3092SOL     OW10875   5.609   1.761   4.672 -0.1191 -0.1411  0.1353
 3092SOL    HW110876   5.586   1.798   4.582  0.3946  1.8935  0.7922
 3092SOL    HW210877   5.615   1.661   4.666  0.1108 -0.0480 -2.1223
 3093SOL     OW10878   4.153   2.989   2.054 -0.1581  0.5382 -0.2667
 3093SOL    HW110879   4.115   2.935   2.129  0.8717 -0.4159 -0.3937
 3093SOL    HW210880   4.088   2.992   1.978 -0.7968  0.6723  0.2805
 3094SOL     OW10881   0.993   4.793   3.128  0.8467  0.5069  1.1349
 3094SOL    HW110882   1.016   4.888   3.109  0.1349  0.6562  0.9879
 3094SOL    HW210883   1.046   4.733   3.068 -1.2893  0.9680 -1.3549
 3095SOL     OW10884   4.049   2.050   5.086  0.0166  0.1972 -0.0143
 3095SOL    HW110885   4.043   2.100   5.172 -1.9942 -0.5663  0.3458
 3095SOL    HW210886   4.138   2.004   5.080  0.7505  1.4265  0.9636
 3096SOL     OW10887   2.038   1.241   5.513  0.9608  0.3006  0.5360
 3096SOL    HW110888   2.033   1.290   5.600  1.5282 -1.1042  1.4009
 3096SOL    HW210889   2.096   1.160   5.524 -1.3412 -1.5826 -0.2841
 3097SOL     OW10890   3.515   6.242   6.421  0.1639  0.1814 -0.1941
 3097SOL    HW110891   3.593   6.190   6.384 -1.2381 -3.7922  1.8408
 3097SOL    HW210892   3.549   6.319   6.475  2.7793 -1.4777  0.7428
 3098SOL     OW10893   6.345   4.026   5.051  0.4195  0.0692  0.0778
 3098SOL    HW110894   6.262   4.059   5.096  0.3139 -1.4863  1.1302
 3098SOL    HW210895   6.330   3.932   5.018  1.3430  0.2516 -0.9148
 3099SOL     OW10896   0.247   2.955   2.755  0.5785  0.4029  0.1233
 3099SOL    HW110897   0.278   2.917   2.843  1.4274  0.0476 -0.3208
 3099SOL    HW210898   0.323   3.003   2.711 -0.1252  1.4882  0.0544
 3100SOL     OW10899   4.949   4.309   4.868 -0.1773  0.7566  0.2418
 3100SOL    HW110900   4.925   4.329   4.773  1.8430 -1.1808 -0.7736
 3100SOL    HW210901   4.866   4.299   4.923 -1.4485  0.1615 -1.6999
 3101SOL     OW10902   3.481   1.098   1.542 -0.3698  0.1395 -0.2347
 3101SOL    HW110903   3.469   1.140   1.452 -2.5708  0.2373  0.0545
 3101SOL    HW210904   3.431   1.151   1.610 -1.4048 -1.6862  0.4940
 3102SOL     OW10905   1.779   2.349   5.601 -0.0831 -0.8160 -0.2504
 3102SOL    HW110906   1.836   2.339   5.682 -0.2632 -1.0173 -0.1498
 3102SOL    HW210907   1.685   2.368   5.627  0.1103  0.4762 -0.4278
 3103SOL     OW10908   1.085   3.333   2.623  0.0759 -0.2384 -0.1911
 3103SOL    HW110909   1.039   3.388   2.553 -0.3720  0.9086  0.9787
 3103SOL    HW210910   1.027   3.256   2.649 -0.5086  0.3061  0.1343
 3104SOL     OW10911   6.510   4.989   0.365  0.2277  0.3371  0.3231
 3104SOL    HW110912   6.475   5.041   0.288 -1.8060  1.1810  1.7322
 3104SOL    HW210913   6.572   5.046   0.419  1.6191 -0.2398 -0.5996
 3105SOL     OW10914   5.002   5.713   1.231  0.0738 -0.2312  0.0715
 3105SOL    HW110915   5.076   5.761   1.185  0.2512 -0.5888 -0.0193
 3105SOL    HW210916   5.003   5.616   1.205  0.5156 -0.5574  1.2213
 3106SOL     OW10917   1.505   0.810   5.733  0.6563  0.5176 -0.0613
 3106SOL    HW110918   1.541   0.903   5.742  0.2234  0.7143 -0.3105
 3106SOL    HW210919   1.454   0.786   5.815 -1.1005  1.3388 -0.8528
 3107SOL     OW10920   4.940   6.267   3.881 -0.1734  0.0369  0.2164
 3107SOL    HW110921   4.987   6.343   3.926 -2.4564  0.3108  2.3781
 3107SOL    HW210922   4.917   6.198   3.949 -0.9756 -1.0907 -1.1499
 3108SOL     OW10923   5.099   6.927   0.610  0.5202  0.1049  0.0995
 3108SOL    HW110924   5.125   7.004   0.553 -1.1701  0.7440  0.1348
 3108SOL    HW210925   5.140   6.937   0.701 -0.5006  1.5430  0.4425
 3109SOL     OW10926   5.858   3.866   5.917  0.3713 -0.5197 -0.6324
 3109SOL    HW110927   5.830   3.932   5.987  0.0758 -1.5026  0.2066
 3109SOL    HW210928   5.786   3.858   5.849 -0.2356 -1.0366  0.0531
 3110SOL     OW10929   0.470   2.033   5.117 -0.0979  0.8476 -0.1785
 3110SOL    HW110930   0.488   1.945   5.073  1.5544  0.7718  0.5581
 3110SOL    HW210931   0.372   2.051   5.118 -0.3963 -0.5749 -1.1018
 3111SOL     OW10932   2.157   3.181   0.224 -0.0393 -0.4142  0.4439
 3111SOL    HW110933   2.074   3.134   0.252  0.2595 -0.9523  0.4500
 3111SOL    HW210934   2.143   3.280   0.227 -0.5096 -0.4936  0.9525
 3112SOL     OW10935   3.851   4.759   1.525 -0.1839  0.1772  0.1428
 3112SOL    HW110936   3.849   4.668   1.566  0.8985  0.5757  1.1258
 3112SOL    HW210937   3.925   4.765   1.458 -0.4302  0.2586 -0.1262
 3113SOL     OW10938   6.160   5.668   5.409 -0.2657  0.0435  0.2680
 3113SOL    HW110939   6.240   5.700   5.359  0.8225 -1.0868  1.1928
 3113SOL    HW210940   6.077   5.687   5.357  0.6084  1.1465 -0.7661
 3114SOL     OW10941   6.188   6.183   6.757 -0.3439  0.7115  0.6214
 3114SOL    HW110942   6.140   6.255   6.808 -0.8374 -0.0118  1.2030
 3114SOL    HW210943   6.207   6.106   6.818  0.8066  0.6221  0.1856
 3115SOL     OW10944   1.218   5.127   0.079 -0.4439 -0.3175  0.1750
 3115SOL    HW110945   1.128   5.170   0.083  0.2485  1.2408 -0.2852
 3115SOL    HW210946   1.233   5.090  -0.013 -0.1738  0.4550 -0.0995
 3116SOL     OW10947   6.367   6.922   5.834  0.0857 -0.2623  0.2207
 3116SOL    HW110948   6.408   7.007   5.800  0.5334 -0.2323  0.8173
 3116SOL    HW210949   6.306   6.884   5.764 -1.2348  1.2884  0.4568
 3117SOL     OW10950   6.801   5.564   4.987  0.4519  0.3207 -0.6423
 3117SOL    HW110951   6.783   5.465   4.985  0.5268  0.3044 -0.4951
 3117SOL    HW210952   6.817   5.593   5.081  1.3569  0.3012 -0.7812
 3118SOL     OW10953   3.581   1.804   5.436  0.0785  0.1144  0.2831
 3118SOL    HW110954   3.521   1.818   5.357  1.6218  0.4605 -0.8666
 3118SOL    HW210955   3.613   1.892   5.469 -0.3749 -0.0465  1.1654
 3119SOL     OW10956   4.491   1.797   4.151  0.3472  0.0278  0.1165
 3119SOL    HW110957   4.476   1.716   4.094  0.4933  0.6716 -0.8577
 3119SOL    HW210958   4.443   1.785   4.238  2.0555 -2.0039  0.8789
 3120SOL     OW10959   2.738   6.748   6.042  0.0502 -0.1142  0.2949
 3120SOL    HW110960   2.766   6.830   6.092 -0.1879 -0.4193  0.9418
 3120SOL    HW210961   2.643   6.758   6.013 -0.8479 -1.1563  2.5863
 3121SOL     OW10962   5.797   5.896   6.701  0.4427  0.3536 -0.0540
 3121SOL    HW110963   5.711   5.845   6.704  1.2651 -1.1152 -0.5029
 3121SOL    HW210964   5.798   5.964   6.774 -0.1321 -1.1989  1.4552
 3122SOL     OW10965   0.341   2.683   1.633  0.6121  0.3590  0.0831
 3122SOL    HW110966   0.286   2.692   1.549  0.6552  0.1234  0.0276
 3122SOL    HW210967   0.284   2.644   1.705 -0.1279  2.7619  0.8861
 3123SOL     OW10968   1.835   3.016   2.978  0.5357  0.2808 -0.5902
 3123SOL    HW110969   1.910   3.000   3.043  1.3225  2.5071 -0.8584
 3123SOL    HW210970   1.845   3.107   2.937 -2.6373  0.9141 -0.2280
 3124SOL     OW10971   6.414   0.621   3.430  0.0409  0.1985  0.1822
 3124SOL    HW110972   6.333   0.654   3.478 -1.0534 -0.8073 -0.9197
 3124SOL    HW210973   6.429   0.525   3.453  0.4237  0.1419 -0.2956
 3125SOL     OW10974   4.882   2.911   2.152 -0.2086 -0.1100 -0.1559
 3125SOL    HW110975   4.818   2.843   2.115 -0.0016 -0.4081  0.0212
 3125SOL    HW210976   4.949   2.864   2.211  0.3188  0.1655 -0.5335
 3126SOL     OW10977   3.354   6.227   4.906 -0.7155 -0.3534  0.7471
 3126SOL    HW110978   3.290   6.232   4.829  0.2136 -2.9266 -0.3005
 3126SOL    HW210979   3.419   6.152   4.891  2.4993  2.0039  1.8280
 3127SOL     OW10980   0.375   3.619   6.460  0.9038  0.3706 -0.1694
 3127SOL    HW110981   0.457   3.636   6.406  0.6079  0.5687 -0.5548
 3127SOL    HW210982   0.316   3.554   6.412 -0.2589  1.9983 -0.9996
 3128SOL     OW10983   6.966   6.028   5.050  0.0737  0.5899  0.1040
 3128SOL    HW110984   6.993   6.121   5.074  1.1535  0.2469  0.2771
 3128SOL    HW210985   7.016   5.963   5.109  0.4936 -0.1554 -1.0459
 3129SOL     OW10986   2.233   4.790   3.982 -0.5915 -0.1382 -0.3254
 3129SOL    HW110987   2.224   4.842   3.898 -0.6675 -1.6546 -1.2925
 3129SOL    HW210988   2.143   4.755   4.010 -0.3335 -1.0161 -0.5493
 3130SOL     OW10989   6.151   0.859   6.814  0.0313 -0.5074  0.5732
 3130SOL    HW110990   6.077   0.891   6.873  0.0053 -0.1482  0.3526
 3130SOL    HW210991   6.234   0.846   6.868  0.3969  1.1442  0.4862
 3131SOL     OW10992   6.117   0.303   6.874 -0.5376  0.3461  0.2789
 3131SOL    HW110993   6.179   0.226   6.890 -0.6099  0.2443  0.0696
 3131SOL    HW210994   6.023   0.271   6.868 -0.4824  0.3310 -0.6817
 3132SOL     OW10995   3.223   5.068   6.503 -0.1838 -0.5353 -0.1448
 3132SOL    HW110996   3.313   5.077   6.462 -0.6689  0.5058 -1.0441
 3132SOL    HW210997   3.166   5.146   6.475 -1.9498 -2.1193 -1.1598
 3133SOL     OW10998   1.859   5.692   6.644  0.2257  0.3361 -0.1089
 3133SOL    HW110999   1.956   5.709   6.623  0.3007 -1.0657 -1.0387
 3133SOL    HW211000   1.842   5.714   6.740  1.7858 -0.6178  0.4324
 3134SOL     OW11001   4.821   1.177   3.530 -0.7039 -0.1300  0.2466
 3134SOL    HW111002   4.833   1.255   3.468 -3.1727 -0.9352 -1.4119
 3134SOL    HW211003   4.845   1.093   3.482  3.4239 -0.4834  2.4807
 3135SOL     OW11004   4.957   1.799   5.793 -0.2332  0.4793  0.2301
 3135SOL    HW111005   4.860   1.776   5.804 -0.3044  0.7021  0.0745
 3135SOL    HW211006   4.985   1.858   5.869 -0.8976  2.5732 -1.0692
 3136SOL     OW11007   2.785   5.607   2.766 -0.3521 -0.3350  0.0997
 3136SOL    HW111008   2.686   5.619   2.765 -0.2889  0.2601 -1.0462
 3136SOL    HW211009   2.812   5.547   2.691  0.3189  1.1783 -0.9298
 3137SOL     OW11010   6.806   0.534   2.459  0.8778 -0.1178  0.0805
 3137SOL    HW111011   6.816   0.550   2.361 -0.5801 -1.4492 -0.3455
 3137SOL    HW211012   6.868   0.461   2.487  0.7978 -0.2237 -0.0146
 3138SOL     OW11013   0.391   4.148   6.814 -0.3526 -0.2392 -0.5293
 3138SOL    HW111014   0.378   4.238   6.856 -0.3497 -1.2486  1.8285
 3138SOL    HW211015   0.478   4.146   6.764  0.9127  0.3789  1.5178
 3139SOL     OW11016   4.936   3.683   1.182  0.3063  0.2232  0.0421
 3139SOL    HW111017   4.937   3.583   1.191  1.5819  0.2810  0.8062
 3139SOL    HW211018   4.928   3.724   1.273 -0.7903  0.8322 -0.3145
 3140SOL     OW11019   0.190   6.379   5.520  0.2067 -0.1110  0.1984
 3140SOL    HW111020   0.241   6.368   5.435  1.4820  0.0650  0.9060
 3140SOL    HW211021   0.198   6.474   5.551 -1.2737  0.1241 -0.1018
 3141SOL     OW11022   4.588   4.056   0.773  0.7056 -0.4136  0.1131
 3141SOL    HW111023   4.684   4.058   0.802  0.9663 -1.9105 -0.5466
 3141SOL    HW211024   4.540   3.982   0.820 -0.0522  0.0995  0.1739
 3142SOL     OW11025   1.343   4.668   2.648  0.3822 -0.1915  0.2337
 3142SOL    HW111026   1.342   4.591   2.712 -0.2597 -1.6809 -1.4673
 3142SOL    HW211027   1.265   4.659   2.586  0.6528  1.5255 -0.3901
 3143SOL     OW11028   4.149   1.528   4.700 -0.4776 -0.3599 -0.2835
 3143SOL    HW111029   4.091   1.509   4.779  0.9626 -0.9195  0.6757
 3143SOL    HW211030   4.098   1.584   4.634 -1.7487  0.0119  0.9620
 3144SOL     OW11031   5.110   1.787   1.556  0.0118  0.2037 -0.0203
 3144SOL    HW111032   5.206   1.813   1.568  0.2169  0.1186 -1.2769
 3144SOL    HW211033   5.055   1.833   1.625  0.8962  0.6797  0.3969
 3145SOL     OW11034   5.982   3.893   4.739 -0.3143 -0.3156 -0.6307
 3145SOL    HW111035   6.072   3.851   4.733 -0.3564 -0.2480 -2.4215
 3145SOL    HW211036   5.952   3.920   4.647 -1.3635  1.3437  0.1565
 3146SOL     OW11037   2.943   0.417   5.559  0.1773 -0.0740 -0.3360
 3146SOL    HW111038   2.888   0.457   5.633 -0.3088  0.0530 -0.7568
 3146SOL    HW211039   2.888   0.349   5.511  0.0494  0.7434 -1.3711
 3147SOL     OW11040   5.378   1.329   1.708  0.3602  0.1814  0.3236
 3147SOL    HW111041   5.332   1.291   1.628  0.8681  0.1987  0.0195
 3147SOL    HW211042   5.331   1.297   1.791 -0.3153  0.3632  0.0193
 3148SOL     OW11043   2.532   5.468   3.221 -0.0141  0.1881 -0.9790
 3148SOL    HW111044   2.601   5.503   3.285 -0.2866 -1.3317  0.2095
 3148SOL    HW211045   2.506   5.541   3.158  0.2901  1.7649  0.6148
 3149SOL     OW11046   0.527   2.056   6.089  0.4012  0.1419 -0.0815
 3149SOL    HW111047   0.544   1.992   6.163  0.4856 -1.9040 -1.7714
 3149SOL    HW211048   0.587   2.035   6.012 -1.8464  0.0542 -1.9433
 3150SOL     OW11049   3.590   2.160   0.160 -0.1477 -0.2784 -0.2463
 3150SOL    HW111050   3.612   2.184   0.065 -1.8916 -0.2821 -0.6689
 3150SOL    HW211051   3.524   2.085   0.161 -0.4455 -0.0083  0.9786
 3151SOL     OW11052   4.649   2.222   5.928 -0.0654 -0.4110 -0.4533
 3151SOL    HW111053   4.730   2.182   5.969 -0.9028 -2.5243 -0.7247
 3151SOL    HW211054   4.668   2.246   5.832  0.3921 -0.3957 -0.3566
 3152SOL     OW11055   0.283   6.161   4.652  0.4500 -0.2607 -0.3608
 3152SOL    HW111056   0.353   6.222   4.615 -1.3772  1.9354 -0.4565
 3152SOL    HW211057   0.319   6.068   4.658  2.1846  0.0212 -3.8360
 3153SOL     OW11058   1.466   6.641   3.815  0.2297 -0.0360 -0.2512
 3153SOL    HW111059   1.519   6.557   3.818  0.1949 -0.0352  1.0572
 3153SOL    HW211060   1.420   6.649   3.726 -2.4774 -3.0859  0.6865
 3154SOL     OW11061   6.793   2.283   1.500 -0.6214  0.2887 -0.3621
 3154SOL    HW111062   6.731   2.243   1.567  2.6934  0.7603  3.3915
 3154SOL    HW211063   6.813   2.377   1.525  2.6885 -0.2896 -0.4230
 3155SOL     OW11064   6.856   6.230   3.262 -0.1619 -0.3572 -0.1818
 3155SOL    HW111065   6.942   6.245   3.311  0.1251 -1.7625 -0.2207
 3155SOL    HW211066   6.810   6.318   3.248  1.8614  0.5701 -1.3080
 3156SOL     OW11067   5.839   1.075   6.417 -0.4035 -0.0779 -0.2504
 3156SOL    HW111068   5.772   1.000   6.423 -1.1079  0.5635  0.1433
 3156SOL    HW211069   5.916   1.055   6.477 -0.2954 -0.7785 -0.6192
 3157SOL     OW11070   4.595   1.411   1.381 -0.3299  0.5084 -0.1654
 3157SOL    HW111071   4.538   1.440   1.458 -0.8592  2.0333 -1.0996
 3157SOL    HW211072   4.666   1.479   1.364 -0.6480  0.5417 -1.4517
 3158SOL     OW11073   4.770   1.225   5.799 -0.0116 -0.0864  0.3400
 3158SOL    HW111074   4.747   1.157   5.728 -0.1667  1.4614 -1.1558
 3158SOL    HW211075   4.692   1.237   5.860 -0.7561  0.2490 -0.6580
 3159SOL     OW11076   2.414   6.722   4.490 -0.4041  0.0002 -0.3653
 3159SOL    HW111077   2.365   6.778   4.556 -1.3468 -0.6740 -0.4736
 3159SOL    HW211078   2.371   6.730   4.400 -0.9541 -1.3552 -0.2513
 3160SOL     OW11079   0.954   3.232   4.191 -0.2019  0.0469  0.0875
 3160SOL    HW111080   0.941   3.152   4.250  0.7596  0.3235  0.7176
 3160SOL    HW211081   0.971   3.203   4.097 -0.9582 -0.4345  0.0914
 3161SOL     OW11082   3.169   6.892   6.467  0.4505  0.4431  0.0742
 3161SOL    HW111083   3.227   6.836   6.526 -2.0558 -0.8002  1.5319
 3161SOL    HW211084   3.093   6.929   6.520 -1.7619 -0.4522 -2.2382
 3162SOL     OW11085   1.347   4.425   0.186 -0.2396  0.5717 -0.3339
 3162SOL    HW111086   1.338   4.524   0.196 -0.1960  0.4506  1.0938
 3162SOL    HW211087   1.260   4.381   0.205  0.1410  0.2465  0.7809
 3163SOL     OW11088   5.359   5.720   0.604 -0.3024  0.4004  0.1351
 3163SOL    HW111089   5.307   5.777   0.540 -0.6442 -2.0332 -1.9051
 3163SOL    HW211090   5.436   5.677   0.555 -0.1990 -1.0603  1.5097
 3164SOL     OW11091   4.656   0.503   2.227 -0.2682 -0.5796  0.3919
 3164SOL    HW111092   4.623   0.592   2.258  0.8042  0.0260 -0.1308
 3164SOL    HW211093   4.598   0.471   2.152 -0.2565  0.0087  0.1220
 3165SOL     OW11094   4.697   1.474   0.903 -0.3842 -0.0005  0.5770
 3165SOL    HW111095   4.652   1.426   0.828  0.4879  1.0861 -0.6901
 3165SOL    HW211096   4.780   1.426   0.928 -0.9627 -0.6698  1.2480
 3166SOL     OW11097   5.757   1.826   6.431  0.1365  0.1674 -0.0443
 3166SOL    HW111098   5.794   1.735   6.446 -0.3976  0.0247  0.4552
 3166SOL    HW211099   5.753   1.846   6.333 -0.4664 -0.6464 -0.1905
 3167SOL     OW11100   2.068   6.191   2.607 -0.9403  0.5683 -0.3390
 3167SOL    HW111101   2.114   6.254   2.544  0.5280  1.0338  1.1359
 3167SOL    HW211102   2.011   6.244   2.670 -0.6656  0.3204  0.1205
 3168SOL     OW11103   1.487   1.814   3.093  0.4204 -0.1739  0.3185
 3168SOL    HW111104   1.389   1.804   3.109  0.4609 -0.6484  0.2890
 3168SOL    HW211105   1.536   1.738   3.137  0.6506 -0.7254 -0.8651
 3169SOL     OW11106   2.396   3.411   4.123 -0.1399 -0.2551  0.1540
 3169SOL    HW111107   2.491   3.431   4.147 -0.3686  0.9702  0.0580
 3169SOL    HW211108   2.392   3.321   4.079  1.0300 -0.1459 -0.2097
 3170SOL     OW11109   5.812   0.609   1.501 -0.5176  0.0345  0.1811
 3170SOL    HW111110   5.864   0.617   1.415 -1.1135  0.5437 -0.1413
 3170SOL    HW211111   5.866   0.647   1.576 -0.4215  0.5664 -0.1506
 3171SOL     OW11112   2.346   4.577   0.842 -0.4456 -0.1100 -0.2012
 3171SOL    HW111113   2.405   4.519   0.899 -0.6053 -0.2079 -0.1359
 3171SOL    HW211114   2.398   4.657   0.811 -0.1776 -0.3684 -0.4224
 3172SOL     OW11115   1.262   0.857   0.825 -0.5644 -0.2031 -0.2525
 3172SOL    HW111116   1.223   0.910   0.900 -1.0849  0.0465 -0.6967
 3172SOL    HW211117   1.357   0.887   0.809 -0.8380  0.5652 -0.4654
 3173SOL     OW11118   3.085   3.385   0.745  0.9606 -0.5881 -0.5542
 3173SOL    HW111119   3.070   3.384   0.646 -0.7333 -1.4909 -0.3156
 3173SOL    HW211120   3.042   3.305   0.787  2.1288 -0.5167  0.8683
 3174SOL     OW11121   2.887   1.752   6.056  0.0480 -0.1553  0.7512
 3174SOL    HW111122   2.942   1.769   5.974  0.8076 -0.7523  1.1212
 3174SOL    HW211123   2.822   1.678   6.039 -0.7950  0.6869  0.2490
 3175SOL     OW11124   5.998   2.871   6.049 -0.9512 -0.0017 -0.0764
 3175SOL    HW111125   6.019   2.894   6.144  1.7193 -0.1703 -0.5251
 3175SOL    HW211126   6.018   2.949   5.990  0.2699 -0.7774 -0.7530
 3176SOL     OW11127   0.514   5.299   2.454  0.3665  0.2236  0.3691
 3176SOL    HW111128   0.444   5.357   2.496  0.9122  0.9259  0.3417
 3176SOL    HW211129   0.472   5.238   2.388 -0.3269  0.0582  0.9505
 3177SOL     OW11130   5.196   2.545   1.513  0.5683  0.9889 -0.1883
 3177SOL    HW111131   5.134   2.618   1.483 -0.8796  0.4304  1.2696
 3177SOL    HW211132   5.162   2.506   1.598  2.2707 -0.2339 -0.0225
 3178SOL     OW11133   2.652   3.392   2.095  0.3388 -0.2198  0.4708
 3178SOL    HW111134   2.702   3.477   2.084  1.2197 -0.7471  0.3349
 3178SOL    HW211135   2.555   3.412   2.111  0.6264  0.8218  1.0084
 3179SOL     OW11136   4.152   4.419   2.479  0.7209  0.7190 -0.4229
 3179SOL    HW111137   4.233   4.457   2.436  1.7928 -0.4097  0.5349
 3179SOL    HW211138   4.162   4.320   2.487 -0.7459  0.5644 -0.2635
 3180SOL     OW11139   5.255   0.442   3.935 -0.4900  0.2467 -0.6197
 3180SOL    HW111140   5.348   0.442   3.897 -0.9542 -0.9800 -1.8801
 3180SOL    HW211141   5.250   0.377   4.011 -0.1986  0.6941 -0.2155
 3181SOL     OW11142   2.138   2.825   3.626  0.1925 -0.2369 -0.2828
 3181SOL    HW111143   2.133   2.727   3.611 -1.8318 -0.2133  0.0221
 3181SOL    HW211144   2.063   2.854   3.686  1.0604  1.4168  0.0636
 3182SOL     OW11145   4.068   1.591   5.117  0.0060 -0.0425  0.3838
 3182SOL    HW111146   3.996   1.654   5.088 -0.2242 -0.8505 -0.8542
 3182SOL    HW211147   4.031   1.527   5.184 -0.4641 -0.5026 -0.3054
 3183SOL     OW11148   0.001   5.963   6.508  0.5749 -0.3321 -0.0768
 3183SOL    HW111149  -0.028   5.939   6.601 -0.1871  0.5898 -0.0588
 3183SOL    HW211150   0.067   5.895   6.475  1.7653 -0.0481  1.5765
 3184SOL     OW11151   6.304   2.625   4.078  0.0785 -0.0129  0.1726
 3184SOL    HW111152   6.291   2.535   4.120 -0.6714  0.9278  2.0644
 3184SOL    HW211153   6.331   2.691   4.148  0.8482  1.2086 -1.2229
 3185SOL     OW11154   0.953   4.133   0.957 -0.6733 -0.2810  0.4736
 3185SOL    HW111155   0.912   4.125   1.048 -2.0902 -0.3391 -0.1385
 3185SOL    HW211156   0.897   4.195   0.901 -0.2546 -0.8388 -0.5893
 3186SOL     OW11157   5.887   3.802   2.421 -0.5411 -0.0863 -0.4323
 3186SOL    HW111158   5.914   3.718   2.374  0.8425  1.2333 -2.1375
 3186SOL    HW211159   5.788   3.803   2.434 -0.8112 -1.1512 -2.0849
 3187SOL     OW11160   2.562   6.541   3.762 -0.0003 -0.1779 -0.4783
 3187SOL    HW111161   2.468   6.519   3.736  0.9155 -2.9868 -1.8708
 3187SOL    HW211162   2.619   6.459   3.755  2.4212  1.2064  1.1860
 3188SOL     OW11163   1.943   0.819   4.090 -0.3605  0.8537  0.0445
 3188SOL    HW111164   1.986   0.775   4.170 -0.5815 -0.5910 -0.6106
 3188SOL    HW211165   2.009   0.824   4.015 -1.2391 -1.2750 -0.9327
 3189SOL     OW11166   0.158   0.348   1.043 -0.1248 -0.1843 -0.1903
 3189SOL    HW111167   0.110   0.285   0.982 -0.6456 -0.8803  0.8915
 3189SOL    HW211168   0.256   0.344   1.024  0.1300 -2.9005  1.1396
 3190SOL     OW11169   4.428   4.973   4.850 -0.7090  0.5880 -0.4094
 3190SOL    HW111170   4.397   5.066   4.831 -0.0803  0.4580 -2.2410
 3190SOL    HW211171   4.520   4.976   4.890 -0.5238  0.7289 -0.8492
 3191SOL     OW11172   4.484   4.495   6.933 -0.2497 -0.5151  0.6671
 3191SOL    HW111173   4.426   4.522   7.011  0.3442 -0.6284  1.1563
 3191SOL    HW211174   4.529   4.408   6.954 -0.7421 -0.9806 -0.1595
 3192SOL     OW11175   2.086   4.656   2.461  0.5287 -0.3167 -0.2972
 3192SOL    HW111176   2.141   4.680   2.542  0.9088  0.0097 -0.6433
 3192SOL    HW211177   2.132   4.690   2.379 -0.0934 -0.2261 -0.6137
 3193SOL     OW11178   1.485   4.285   4.629  0.2352  0.1432  0.6615
 3193SOL    HW111179   1.567   4.301   4.684  0.7827 -0.1372 -0.0525
 3193SOL    HW211180   1.429   4.215   4.672  0.4575  0.2075  1.0603
 3194SOL     OW11181   4.563   0.676   1.783 -0.0075  0.2762 -0.8076
 3194SOL    HW111182   4.495   0.604   1.774  0.6518 -0.3155 -1.1122
 3194SOL    HW211183   4.573   0.701   1.880  0.4970 -0.7558 -0.5851
 3195SOL     OW11184   2.602   1.563   4.817 -0.0299  0.1875  0.2849
 3195SOL    HW111185   2.567   1.587   4.907 -0.1970  0.3772  0.1676
 3195SOL    HW211186   2.529   1.568   4.749  0.0832 -0.0056  0.1463
 3196SOL     OW11187   4.003   6.358   2.182 -0.3345  0.6688  0.5625
 3196SOL    HW111188   4.052   6.330   2.099 -1.3754  0.0368  0.1239
 3196SOL    HW211189   4.041   6.443   2.217  1.2483  0.0520  0.4262
 3197SOL     OW11190   6.043   5.934   1.321 -0.5389  0.3863 -0.0583
 3197SOL    HW111191   6.014   5.961   1.413 -0.8041  2.2599 -0.6475
 3197SOL    HW211192   5.963   5.926   1.262 -0.2828  0.3143 -0.3961
 3198SOL     OW11193   5.908   1.033   1.371  0.2347  0.3856  0.5762
 3198SOL    HW111194   5.962   0.995   1.296  0.3701 -0.7984  1.2525
 3198SOL    HW211195   5.955   1.113   1.408  0.9644  0.0369  0.4227
 3199SOL     OW11196   5.154   6.415   6.725 -0.2252 -0.8654  0.1472
 3199SOL    HW111197   5.105   6.445   6.643  0.0241  1.7706  0.8717
 3199SOL    HW211198   5.113   6.457   6.806  1.1627 -1.2648  1.1001
 3200SOL     OW11199   0.248   4.152   2.639 -0.0156  0.3379 -0.0914
 3200SOL    HW111200   0.199   4.156   2.726 -1.5051 -1.2597 -0.7994
 3200SOL    HW211201   0.317   4.080   2.643  0.4067  0.7425 -0.0095
 3201SOL     OW11202   0.357   2.410   5.921  0.1447 -0.0453  0.5342
 3201SOL    HW111203   0.267   2.384   5.957 -0.3046  0.5256 -0.1413
 3201SOL    HW211204   0.361   2.510   5.910  0.3614 -0.1721 -0.6933
 3202SOL     OW11205   3.388   5.240   1.628 -0.3426  0.0810 -0.0933
 3202SOL    HW111206   3.391   5.173   1.554 -2.7761 -0.8615  0.5517
 3202SOL    HW211207   3.367   5.194   1.715 -0.3970  1.4844  0.6738
 3203SOL     OW11208   2.702   2.009   2.036  0.0619  0.0357  0.6178
 3203SOL    HW111209   2.604   1.996   2.016  0.0404  0.0056  0.7459
 3203SOL    HW211210   2.722   1.976   2.128  0.4921 -1.3339  0.0480
 3204SOL     OW11211   1.778   1.910   5.853  0.0483  0.1648  0.1049
 3204SOL    HW111212   1.703   1.894   5.918  0.1529  1.3551  0.5476
 3204SOL    HW211213   1.866   1.894   5.899  0.0854 -0.5169 -0.2018
 3205SOL     OW11214   2.814   0.309   1.737  0.3189  0.7304 -0.5384
 3205SOL    HW111215   2.811   0.209   1.733  1.0822  0.5238  2.1136
 3205SOL    HW211216   2.873   0.344   1.664 -0.3948 -0.6682 -1.8438
 3206SOL     OW11217   3.131   5.085   3.903  0.0402 -0.7322 -0.0845
 3206SOL    HW111218   3.118   5.164   3.963 -1.5115 -1.8338  1.1224
 3206SOL    HW211219   3.191   5.110   3.827  1.0577  1.0749  1.2384
 3207SOL     OW11220   4.829   2.360   2.432  0.5770  0.0749 -0.1267
 3207SOL    HW111221   4.896   2.320   2.494  1.1783  0.6524 -0.3915
 3207SOL    HW211222   4.780   2.287   2.383 -0.3023 -0.4073  1.4127
 3208SOL     OW11223   2.999   3.955   0.854 -0.5072  0.0641  0.0682
 3208SOL    HW111224   2.904   3.926   0.851 -0.7269  0.8203 -0.4502
 3208SOL    HW211225   3.005   4.049   0.886  0.0101  0.2542 -0.5529
 3209SOL     OW11226   4.385   6.711   2.481  0.1639  0.2903 -0.0012
 3209SOL    HW111227   4.440   6.794   2.480 -0.5533  0.7777 -0.7834
 3209SOL    HW211228   4.419   6.648   2.551  1.1199  0.9650  0.1501
 3210SOL     OW11229   5.133   1.059   3.946  0.1584 -0.7103 -0.0238
 3210SOL    HW111230   5.197   1.105   3.885 -0.3537  1.5593  1.0402
 3210SOL    HW211231   5.142   1.097   4.038 -0.1738 -2.9537  0.9813
 3211SOL     OW11232   0.584   6.870   1.062  0.0761 -0.1619 -0.6884
 3211SOL    HW111233   0.677   6.907   1.056  0.8610 -1.2818  2.6643
 3211SOL    HW211234   0.527   6.932   1.116 -0.0709 -1.2457  0.4265
 3212SOL     OW11235   3.864   5.573   4.533  0.0166  0.2996 -0.2875
 3212SOL    HW111236   3.795   5.559   4.604 -1.2767  0.3566 -1.4900
 3212SOL    HW211237   3.940   5.626   4.571  1.6050 -3.3814  2.3471
 3213SOL     OW11238   2.805   4.816   4.399 -0.1368  0.0974 -0.0460
 3213SOL    HW111239   2.765   4.855   4.482 -0.0705  1.3321 -0.5659
 3213SOL    HW211240   2.791   4.879   4.322  1.8440  0.0937 -0.4696
 3214SOL     OW11241   1.702   1.903   3.270  0.3994 -0.3867  0.0621
 3214SOL    HW111242   1.649   1.874   3.191 -1.8603 -0.8236  1.6302
 3214SOL    HW211243   1.640   1.940   3.340  2.4004  0.9019  1.2629
 3215SOL     OW11244   6.977   6.960   5.084 -0.2614  1.1709  0.8528
 3215SOL    HW111245   6.886   6.976   5.046 -0.1498  1.6335  0.7683
 3215SOL    HW211246   7.046   6.982   5.015 -0.0697  1.5404  1.1560
 3216SOL     OW11247   4.656   6.255   0.686 -0.4814 -0.6475  0.3605
 3216SOL    HW111248   4.592   6.213   0.750  0.0537  0.2994  1.5804
 3216SOL    HW211249   4.606   6.309   0.618 -1.0256  2.1680  2.7846
 3217SOL     OW11250   3.899   2.177   3.042 -0.6460  0.4318 -0.1301
 3217SOL    HW111251   3.920   2.135   3.131 -0.4336 -0.6184 -0.6541
 3217SOL    HW211252   3.824   2.126   2.999 -1.3033  1.4420 -0.2023
 3218SOL     OW11253   3.712   6.589   1.586 -0.0210 -0.2651  0.1035
 3218SOL    HW111254   3.767   6.589   1.502  0.5018 -3.4168  0.3192
 3218SOL    HW211255   3.768   6.617   1.663 -0.3465  2.0776 -0.4425
 3219SOL     OW11256   4.078   6.139   4.870  0.6878 -0.2336  0.1956
 3219SOL    HW111257   4.107   6.093   4.954  3.1230  0.6429 -0.0875
 3219SOL    HW211258   4.137   6.219   4.853  0.0140 -0.1457 -2.1149
 3220SOL     OW11259   0.248   2.835   3.011 -0.1998 -0.2440  0.3028
 3220SOL    HW111260   0.288   2.751   3.048 -0.1273 -0.4510 -0.2359
 3220SOL    HW211261   0.154   2.844   3.045 -0.2140 -0.5518  0.3538
 3221SOL     OW11262   2.807   6.950   1.620 -0.1906  0.5591 -0.1416
 3221SOL    HW111263   2.708   6.955   1.613 -0.4040 -0.4826  1.5524
 3221SOL    HW211264   2.836   6.855   1.610  0.6912  0.9219 -1.1250
 3222SOL     OW11265   0.359   5.904   3.515 -0.3258  0.2241  0.1551
 3222SOL    HW111266   0.363   6.002   3.532  4.1981  0.1632  0.4842
 3222SOL    HW211267   0.351   5.855   3.602  0.6624  0.2821  0.2867
 3223SOL     OW11268   5.396   3.119   6.297  0.2094  0.2347  0.0091
 3223SOL    HW111269   5.426   3.144   6.205 -1.0294 -1.6955 -0.9879
 3223SOL    HW211270   5.296   3.118   6.300  0.1820 -2.5437  0.4878
 3224SOL     OW11271   3.444   3.553   2.097  0.5668  0.0998  0.0106
 3224SOL    HW111272   3.469   3.459   2.075  1.1945  0.0322  0.9879
 3224SOL    HW211273   3.524   3.612   2.085 -0.4897  1.0774 -3.5671
 3225SOL     OW11274   4.013   1.436   2.678  0.3087 -0.2938 -0.0228
 3225SOL    HW111275   3.987   1.382   2.598 -0.7265  1.1101 -0.6674
 3225SOL    HW211276   3.938   1.438   2.744 -0.3811  1.7756 -0.8011
 3226SOL     OW11277   1.490   6.853   2.331 -0.3767 -0.7555  0.4543
 3226SOL    HW111278   1.462   6.846   2.235  0.1859 -0.6529  0.2782
 3226SOL    HW211279   1.410   6.845   2.390 -0.6401 -1.5160 -0.0003
 3227SOL     OW11280   5.166   0.528   4.577 -0.4864 -0.2906 -0.6000
 3227SOL    HW111281   5.229   0.565   4.509 -0.7200  0.6243 -0.3228
 3227SOL    HW211282   5.217   0.466   4.638 -0.1626 -0.6778 -1.2540
 3228SOL     OW11283   6.514   4.438   6.265 -0.3435  0.0439  0.5016
 3228SOL    HW111284   6.499   4.370   6.337 -0.4119  0.7943  1.2084
 3228SOL    HW211285   6.582   4.505   6.296 -1.5895  1.3368  0.5500
 3229SOL     OW11286   3.838   0.097   6.186 -0.0250 -0.0505 -0.4193
 3229SOL    HW111287   3.790   0.136   6.264 -0.6012 -3.2967  0.9939
 3229SOL    HW211288   3.778   0.099   6.106 -1.2133 -0.7821  0.4139
 3230SOL     OW11289   6.077   2.410   1.279  0.1596  0.1214  0.7463
 3230SOL    HW111290   6.089   2.316   1.310  1.5296  0.0090 -0.0531
 3230SOL    HW211291   6.067   2.470   1.358 -2.6673 -0.8655  1.2695
 3231SOL     OW11292   5.182   0.801   0.854 -0.3564  0.5606  0.5839
 3231SOL    HW111293   5.157   0.871   0.921  0.5957  1.2379  0.2562
 3231SOL    HW211294   5.211   0.718   0.901  0.3253  1.0363  1.0190
 3232SOL     OW11295   6.590   4.598   5.552 -0.0392 -0.2268  0.0828
 3232SOL    HW111296   6.566   4.522   5.612  1.5169 -0.9956 -0.2134
 3232SOL    HW211297   6.644   4.564   5.475  0.4340  1.1327 -0.2125
 3233SOL     OW11298   5.101   3.804   1.898 -0.2754 -0.0080  0.6679
 3233SOL    HW111299   5.196   3.802   1.868 -0.8758  0.3952 -1.4027
 3233SOL    HW211300   5.090   3.746   1.979  1.6060 -0.4748  0.6263
 3234SOL     OW11301   0.030   4.156   0.024  0.3525  0.2098  0.0914
 3234SOL    HW111302   0.052   4.253   0.012  0.4775  0.1872  0.1314
 3234SOL    HW211303   0.100   4.114   0.082 -0.8632  0.6010  1.9355
 3235SOL     OW11304   4.447   4.847   5.980 -0.6748 -0.7277  0.0069
 3235SOL    HW111305   4.478   4.753   5.968  0.3572 -0.4800  0.6380
 3235SOL    HW211306   4.515   4.910   5.943 -1.0780 -0.2101  0.1288
 3236SOL     OW11307   1.186   5.266   2.953  0.1491 -0.0492  0.1879
 3236SOL    HW111308   1.124   5.239   3.026 -2.2353 -2.2013 -2.3836
 3236SOL    HW211309   1.241   5.344   2.982 -0.7663 -0.6637  4.1040
 3237SOL     OW11310   1.172   2.810   4.012  0.6132  0.1519  0.1179
 3237SOL    HW111311   1.253   2.751   4.007  0.5631  0.0924  0.0006
 3237SOL    HW211312   1.187   2.893   3.959  0.8688  0.4696  0.6784
 3238SOL     OW11313   0.915   2.518   1.871  0.0497 -0.3556 -0.7664
 3238SOL    HW111314   0.919   2.463   1.787  0.1447  0.7231 -1.4833
 3238SOL    HW211315   0.905   2.614   1.848 -0.2327 -0.0652  0.4806
 3239SOL     OW11316   3.802   2.799   0.115  0.0126  0.1618 -0.4081
 3239SOL    HW111317   3.887   2.788   0.167 -0.3658  0.3803  0.2725
 3239SOL    HW211318   3.805   2.885   0.065 -0.0434  0.4465  0.0748
 3240SOL     OW11319   4.717   0.061   3.794 -0.5523 -0.3525  0.0092
 3240SOL    HW111320   4.720  -0.036   3.817  3.0454 -0.3798 -0.0919
 3240SOL    HW211321   4.684   0.113   3.873 -0.5368 -1.4621  0.7672
 3241SOL     OW11322   1.130   6.127   6.265 -0.7127 -0.3045  0.3610
 3241SOL    HW111323   1.036   6.139   6.298 -0.8747  0.9932 -0.4889
 3241SOL    HW211324   1.142   6.177   6.179  0.9629  0.1584  0.8212
 3242SOL     OW11325   5.223   5.275   4.609 -0.6732  0.3751  0.3378
 3242SOL    HW111326   5.230   5.322   4.520 -1.7040 -1.5540 -0.8357
 3242SOL    HW211327   5.132   5.291   4.647 -0.2968  1.0405  0.9794
 3243SOL     OW11328   2.023   6.669   3.321  0.0589 -0.5171  0.0168
 3243SOL    HW111329   2.016   6.706   3.414 -0.1868 -1.2248  0.2914
 3243SOL    HW211330   2.087   6.724   3.267 -1.6023  1.3759 -0.1309
 3244SOL     OW11331   4.603   6.932   2.898  0.4587  0.5947 -0.1159
 3244SOL    HW111332   4.646   6.846   2.872  1.2796  0.7043  0.8288
 3244SOL    HW211333   4.622   6.952   2.994 -0.0261  1.6502 -0.2200
 3245SOL     OW11334   3.002   3.048   0.122  0.5115 -0.0191 -0.1229
 3245SOL    HW111335   2.919   3.100   0.103  1.8368  1.4761 -2.2980
 3245SOL    HW211336   3.024   3.055   0.219 -1.2168  0.6054  0.2616
 3246SOL     OW11337   6.765   2.982   4.298 -0.1295 -0.7728 -0.2047
 3246SOL    HW111338   6.790   3.056   4.236 -0.9627  1.0700  1.5433
 3246SOL    HW211339   6.834   2.975   4.371  0.8997 -2.9761 -1.2944
 3247SOL     OW11340   0.608   0.894   2.000 -0.2633  0.5591  0.1380
 3247SOL    HW111341   0.639   0.814   1.949  2.6107  1.4995  0.2506
 3247SOL    HW211342   0.581   0.866   2.093 -1.9841 -0.6132 -0.6584
 3248SOL     OW11343   2.193   2.934   4.957 -0.3202  0.5935 -0.2361
 3248SOL    HW111344   2.237   2.890   5.035 -1.2750  1.0335  0.5756
 3248SOL    HW211345   2.247   3.013   4.929 -0.5109  1.0587  0.6678
 3249SOL     OW11346   3.923   0.026   3.958  0.4101  0.3355 -0.4059
 3249SOL    HW111347   4.018   0.007   3.931  1.1055  1.5284  1.0308
 3249SOL    HW211348   3.892   0.110   3.913 -0.4130 -0.6851 -1.8011
 3250SOL     OW11349   3.074   6.994   4.952  0.1544 -0.7363 -1.2885
 3250SOL    HW111350   3.161   6.962   4.991 -0.2153 -0.3055 -0.0736
 3250SOL    HW211351   3.017   6.915   4.928  0.8085 -1.0187 -1.9592
 3251SOL     OW11352   2.472   2.866   1.940  0.5154 -0.1556 -0.0936
 3251SOL    HW111353   2.399   2.798   1.934  0.2046 -0.4231  4.0431
 3251SOL    HW211354   2.467   2.927   1.860  0.4128 -4.3420 -3.6820
 3252SOL     OW11355   4.739   3.641   0.141  0.0241  0.1234 -0.7102
 3252SOL    HW111356   4.655   3.626   0.089  0.2559 -0.0757 -1.0338
 3252SOL    HW211357   4.816   3.600   0.092  0.3325  0.4316 -0.4876
 3253SOL     OW11358   2.800   4.547   4.380 -0.3391 -0.3583 -0.2919
 3253SOL    HW111359   2.788   4.545   4.281  0.0508 -0.0283 -0.3521
 3253SOL    HW211360   2.814   4.642   4.409  2.4778 -0.6953 -0.2973
 3254SOL     OW11361   0.657   6.715   3.712 -0.0861  0.2830 -0.0910
 3254SOL    HW111362   0.739   6.678   3.756  0.6047  0.9962 -0.7344
 3254SOL    HW211363   0.683   6.789   3.651 -0.9837 -0.7266 -1.7893
 3255SOL     OW11364   2.085   6.504   4.557 -0.2470 -0.1600 -1.0351
 3255SOL    HW111365   1.991   6.536   4.545 -0.2315 -0.0541 -0.8864
 3255SOL    HW211366   2.085   6.407   4.577 -0.5089  0.2939  1.4864
 3256SOL     OW11367   0.529   2.888   2.865 -0.0608  0.3060  0.0147
 3256SOL    HW111368   0.561   2.825   2.935 -0.7160  0.0628  0.1062
 3256SOL    HW211369   0.523   2.980   2.903  0.0983  0.2688  0.1278
 3257SOL     OW11370   1.625   4.616   4.092 -0.2895 -0.7238 -0.2127
 3257SOL    HW111371   1.714   4.628   4.049 -1.0295  0.5115 -1.4838
 3257SOL    HW211372   1.553   4.624   4.023 -1.4605 -0.1662  1.0261
 3258SOL     OW11373   5.566   3.780   2.414 -0.1959 -0.1720  0.3165
 3258SOL    HW111374   5.509   3.706   2.450 -0.4297 -0.0306  0.2427
 3258SOL    HW211375   5.583   3.764   2.317 -0.9749  0.3137  0.0865
 3259SOL     OW11376   3.656   4.905   3.444 -0.2365 -0.2830 -0.0343
 3259SOL    HW111377   3.714   4.828   3.419 -0.1156 -0.5436  0.9801
 3259SOL    HW211378   3.704   4.963   3.509 -1.1081 -0.5482  0.8851
 3260SOL     OW11379   3.881   3.525   6.902 -0.1861 -0.0932 -0.7594
 3260SOL    HW111380   3.980   3.514   6.890 -0.2567 -1.5888 -0.2751
 3260SOL    HW211381   3.850   3.462   6.973 -1.5448  0.0733 -1.1882
 3261SOL     OW11382   1.709   3.101   4.192  0.0831  0.0733  0.1037
 3261SOL    HW111383   1.719   3.179   4.254 -1.8732 -0.4062  1.0928
 3261SOL    HW211384   1.684   3.019   4.244  1.1364 -1.0239 -1.0267
 3262SOL     OW11385   3.299   4.762   4.080  0.2847 -0.0754 -0.0838
 3262SOL    HW111386   3.383   4.778   4.028  0.3158 -0.1685 -0.0621
 3262SOL    HW211387   3.309   4.679   4.135  0.6225  0.5388  0.8201
 3263SOL     OW11388   3.550   6.174   5.818  0.3390 -0.2468 -0.0597
 3263SOL    HW111389   3.600   6.148   5.735  0.3208  0.4781 -0.3044
 3263SOL    HW211390   3.614   6.174   5.896  0.7154  0.5717 -0.3525
 3264SOL     OW11391   3.553   4.584   5.592 -0.1539  0.4027  0.4391
 3264SOL    HW111392   3.455   4.563   5.595 -0.0348 -0.6665 -1.3648
 3264SOL    HW211393   3.605   4.500   5.607  0.4980  0.8945  0.9989
 3265SOL     OW11394   3.634   4.024   6.057 -0.1795 -0.0609  0.5967
 3265SOL    HW111395   3.548   4.039   6.105  0.1783  1.1130  0.9105
 3265SOL    HW211396   3.668   3.933   6.078 -1.4346 -0.6122  0.3099
 3266SOL     OW11397   0.001   0.403   5.183 -0.5119  0.2107 -0.1300
 3266SOL    HW111398  -0.079   0.344   5.175 -0.8752  0.5907  0.6247
 3266SOL    HW211399   0.026   0.438   5.092 -0.5573 -0.7325 -0.5213
 3267SOL     OW11400   5.007   2.274   2.164 -0.1185  0.5533 -0.1172
 3267SOL    HW111401   5.077   2.231   2.222 -0.4002 -0.6299 -0.6110
 3267SOL    HW211402   5.044   2.357   2.123  0.7352  0.3567  0.2334
 3268SOL     OW11403   1.304   2.520   5.198 -0.3737  0.0098 -0.0057
 3268SOL    HW111404   1.257   2.434   5.218  0.6166 -1.0040 -1.6887
 3268SOL    HW211405   1.395   2.518   5.241 -1.0664  1.0967  1.5789
 3269SOL     OW11406   5.874   1.628   0.657 -0.0625 -1.0176  0.0496
 3269SOL    HW111407   5.859   1.536   0.692  0.6476 -0.9683  0.5023
 3269SOL    HW211408   5.972   1.649   0.659 -0.2976  0.0984  0.8466
 3270SOL     OW11409   6.752   1.061   4.983  0.2977 -0.0638  0.2211
 3270SOL    HW111410   6.810   0.981   4.965  1.7976  1.1039 -0.3134
 3270SOL    HW211411   6.785   1.108   5.065 -0.1950  0.3753  0.1715
 3271SOL     OW11412   1.698   5.458   6.579 -0.4846 -0.0277  0.2182
 3271SOL    HW111413   1.695   5.430   6.675 -0.9737 -0.3123  0.1293
 3271SOL    HW211414   1.725   5.554   6.572 -1.7075  0.3797  0.7336
 3272SOL     OW11415   0.283   6.961   2.370  0.2522  0.2779  0.6947
 3272SOL    HW111416   0.225   6.937   2.448  1.7429  0.7918  2.0151
 3272SOL    HW211417   0.230   7.014   2.304 -1.2769 -0.8975  0.9079
 3273SOL     OW11418   6.170   5.689   1.774 -0.8184  0.3210 -0.0025
 3273SOL    HW111419   6.079   5.719   1.746 -2.4527 -1.4734  2.8770
 3273SOL    HW211420   6.210   5.756   1.837 -1.6502 -0.4104  1.3427
 3274SOL     OW11421   0.340   1.051   3.007 -0.7630 -0.4816 -0.3042
 3274SOL    HW111422   0.407   1.125   2.995 -2.0578  0.5315 -1.6068
 3274SOL    HW211423   0.375   0.968   2.964 -0.3600  0.0565 -1.0552
 3275SOL     OW11424   0.338   6.653   2.550 -0.2202 -0.1494 -0.2344
 3275SOL    HW111425   0.438   6.657   2.555 -0.1662 -1.2848 -0.1198
 3275SOL    HW211426   0.300   6.744   2.569  0.7344  0.0360  0.9352
 3276SOL     OW11427   1.345   2.480   3.579  0.8979  0.6900  0.5387
 3276SOL    HW111428   1.428   2.439   3.542  0.5549 -0.5941  1.1499
 3276SOL    HW211429   1.266   2.427   3.549  0.0987  2.8016 -1.3730
 3277SOL     OW11430   6.684   1.156   6.348  0.4675  0.3273  0.0456
 3277SOL    HW111431   6.730   1.110   6.424 -0.8057 -0.3623  0.4168
 3277SOL    HW211432   6.679   1.254   6.367 -1.1264 -0.0009  1.5909
 3278SOL     OW11433   1.727   3.332   6.283  0.1867 -0.4040 -0.1610
 3278SOL    HW111434   1.742   3.247   6.334 -1.5709 -0.7086 -0.0785
 3278SOL    HW211435   1.632   3.362   6.295  1.0662  2.2696  0.8285
 3279SOL     OW11436   3.598   4.410   2.295  0.1683 -0.2381 -0.0424
 3279SOL    HW111437   3.615   4.492   2.241 -1.2647  2.4791  3.3220
 3279SOL    HW211438   3.506   4.376   2.276 -0.4576  0.9049  0.8191
 3280SOL     OW11439   4.639   1.501   0.613 -0.6670  0.1642  0.2043
 3280SOL    HW111440   4.650   1.557   0.531 -1.2857  0.4911  0.3366
 3280SOL    HW211441   4.718   1.441   0.623 -0.1281  0.8062 -0.0995
 3281SOL     OW11442   5.965   6.048   5.347  0.3639  0.5925 -0.5780
 3281SOL    HW111443   6.005   6.059   5.256  1.0180  1.2457 -0.2219
 3281SOL    HW211444   5.868   6.074   5.344  0.3443  0.4740 -1.1167
 3282SOL     OW11445   5.891   2.293   6.483 -0.4607 -0.4396 -0.7314
 3282SOL    HW111446   5.834   2.332   6.556 -0.1308 -1.3529  0.0483
 3282SOL    HW211447   5.925   2.366   6.424  0.4995  0.5016  0.9237
 3283SOL     OW11448   1.188   4.006   3.996 -0.6417  0.5198  0.6908
 3283SOL    HW111449   1.200   4.086   3.938 -1.0473  0.1567  0.0973
 3283SOL    HW211450   1.119   3.946   3.956  0.6544 -0.8212  0.3577
 3284SOL     OW11451   6.483   1.132   0.843  0.1788  0.5374 -0.1222
 3284SOL    HW111452   6.391   1.143   0.881  0.1179  1.0860 -0.4266
 3284SOL    HW211453   6.551   1.155   0.913  0.1105 -0.7243  0.3888
 3285SOL     OW11454   5.479   3.159   1.929  0.2958  0.0611  0.2855
 3285SOL    HW111455   5.516   3.121   1.844 -0.4433  1.7010 -0.8422
 3285SOL    HW211456   5.385   3.126   1.942  0.8548 -1.2170  1.1859
 3286SOL     OW11457   4.007   0.286   1.662  0.1316 -0.3566  0.8434
 3286SOL    HW111458   3.931   0.242   1.710 -0.1720 -1.0827 -0.2586
 3286SOL    HW211459   3.982   0.300   1.566  0.4476  1.7288  1.0169
 3287SOL     OW11460   1.463   1.773   1.738  0.1577 -0.8135  0.1568
 3287SOL    HW111461   1.403   1.695   1.726 -0.6483 -0.0933 -0.5890
 3287SOL    HW211462   1.535   1.771   1.669  0.1317 -0.8783  0.1319
 3288SOL     OW11463   5.285   2.209   1.764  0.4776 -0.6215 -0.0590
 3288SOL    HW111464   5.233   2.281   1.717 -0.0438 -0.6622  0.4469
 3288SOL    HW211465   5.347   2.166   1.698  0.0685 -0.3903 -0.6119
 3289SOL     OW11466   2.212   0.990   3.351 -0.2940  0.7906 -0.2135
 3289SOL    HW111467   2.303   0.949   3.338 -0.8419 -0.2678 -0.9276
 3289SOL    HW211468   2.150   0.920   3.387 -1.7559  0.3268 -3.3014
 3290SOL     OW11469   1.031   6.860   2.745 -0.1728  0.2720  0.1615
 3290SOL    HW111470   0.997   6.839   2.837  1.3777  3.8367  1.6916
 3290SOL    HW211471   1.106   6.798   2.723  0.5890  0.4669  2.0484
 3291SOL     OW11472   2.842   5.554   4.333 -0.3640 -0.2450  0.0830
 3291SOL    HW111473   2.942   5.552   4.322 -0.0780 -0.4808  2.2609
 3291SOL    HW211474   2.805   5.462   4.318  0.4970 -1.5132  4.3629
 3292SOL     OW11475   6.754   6.436   2.618  0.0809  0.0169 -0.3096
 3292SOL    HW111476   6.711   6.429   2.708  0.6784  0.0157 -0.0193
 3292SOL    HW211477   6.838   6.382   2.617 -0.0471 -0.1740 -0.9479
 3293SOL     OW11478   4.061   0.451   5.406 -0.7981 -0.3055 -0.0273
 3293SOL    HW111479   3.991   0.447   5.335  0.4552 -2.2694 -1.2451
 3293SOL    HW211480   4.109   0.538   5.402 -1.8916  0.2921 -0.4219
 3294SOL     OW11481   1.992   6.834   5.502  0.5300  0.3389 -0.7520
 3294SOL    HW111482   2.023   6.759   5.443  0.8669  0.2188 -0.4188
 3294SOL    HW211483   1.895   6.821   5.524  0.6137 -0.0452 -0.6182
 3295SOL     OW11484   6.598   5.142   0.624  0.4937 -0.1427  0.0865
 3295SOL    HW111485   6.551   5.165   0.709  0.0502  1.4917 -0.5574
 3295SOL    HW211486   6.685   5.097   0.646  1.2944  1.8884  1.5359
 3296SOL     OW11487   2.928   1.027   4.285 -0.5310  0.0281  0.2753
 3296SOL    HW111488   2.880   0.943   4.262 -0.0295  0.2532 -1.8830
 3296SOL    HW211489   2.910   1.052   4.380 -1.8135 -1.7372  0.5372
 3297SOL     OW11490   3.017   2.174   4.544 -0.4012 -0.1163  0.1395
 3297SOL    HW111491   3.012   2.215   4.635 -1.8270 -1.6079  0.7858
 3297SOL    HW211492   3.080   2.097   4.545  0.0559  0.2447 -0.3135
 3298SOL     OW11493   3.982   6.706   0.813 -0.3725 -0.2828 -0.3536
 3298SOL    HW111494   4.052   6.738   0.749 -0.7680  0.4279 -0.4382
 3298SOL    HW211495   3.892   6.716   0.771 -0.5184 -1.3558 -0.3095
 3299SOL     OW11496   1.165   5.488   5.607 -0.0073 -0.2435 -0.3245
 3299SOL    HW111497   1.226   5.526   5.538  0.4741 -0.2102  0.1127
 3299SOL    HW211498   1.104   5.421   5.565 -0.3471  0.4507 -0.9563
 3300SOL     OW11499   2.430   5.533   6.591  0.1080 -0.4008  0.3392
 3300SOL    HW111500   2.509   5.493   6.637  0.2269 -0.3299  0.1970
 3300SOL    HW211501   2.454   5.554   6.496  1.0138  2.8220  1.1682
 3301SOL     OW11502   1.900   3.924   3.346 -0.2827  0.8299 -0.4705
 3301SOL    HW111503   1.897   3.882   3.255  0.3900 -0.1217 -0.0787
 3301SOL    HW211504   1.902   3.852   3.416  0.6983  1.5192  0.2442
 3302SOL     OW11505   3.043   6.489   4.718  0.0213  0.1504  0.2485
 3302SOL    HW111506   3.052   6.555   4.644 -0.6672 -0.1955 -0.1510
 3302SOL    HW211507   3.100   6.518   4.795 -1.0654  1.7894  0.4949
 3303SOL     OW11508   1.012   4.061   2.413 -0.5608 -0.3433 -0.1209
 3303SOL    HW111509   1.016   4.090   2.317  1.3017 -1.0840 -0.3104
 3303SOL    HW211510   1.043   4.135   2.472  0.6546 -0.6696 -0.3156
 3304SOL     OW11511   5.405   6.361   2.179  0.0990  0.0360 -0.4793
 3304SOL    HW111512   5.477   6.377   2.113  1.3164  1.0730  1.0447
 3304SOL    HW211513   5.334   6.431   2.170 -0.1259 -0.2795 -1.1803
 3305SOL     OW11514   1.730   4.724   3.667 -0.1550  0.2187  0.0094
 3305SOL    HW111515   1.631   4.737   3.658 -0.2554  1.6167  2.2400
 3305SOL    HW211516   1.753   4.701   3.761  1.6775  0.0229 -0.4323
 3306SOL     OW11517   6.109   3.179   5.802  0.7544  0.4985 -0.2148
 3306SOL    HW111518   6.127   3.081   5.805 -1.7375 -0.1057 -1.7011
 3306SOL    HW211519   6.190   3.228   5.770  1.7909 -1.1485 -0.1880
 3307SOL     OW11520   2.012   3.530   1.996  0.0138  0.7227  0.1577
 3307SOL    HW111521   1.960   3.494   2.074 -1.7859  0.3892 -1.1065
 3307SOL    HW211522   2.076   3.460   1.964 -0.0847  0.4212  0.6057
 3308SOL     OW11523   4.464   0.615   0.591 -0.0742  0.1709  0.2726
 3308SOL    HW111524   4.531   0.670   0.642 -0.5711 -0.8407  2.0539
 3308SOL    HW211525   4.478   0.631   0.493  1.5861  1.3655  0.6466
 3309SOL     OW11526   0.100   1.232   3.493  0.0409  0.0975  0.0721
 3309SOL    HW111527   0.072   1.138   3.510  0.4621  0.1243  0.9878
 3309SOL    HW211528   0.054   1.267   3.412 -0.2874 -0.8228 -0.1466
 3310SOL     OW11529   0.989   6.499   3.918  0.0964  0.2943 -0.2089
 3310SOL    HW111530   1.012   6.518   3.823 -1.4385  0.6631 -0.5221
 3310SOL    HW211531   1.056   6.434   3.956  0.6886  0.1022 -1.5365
 3311SOL     OW11532   4.662   4.790   6.734  0.0073 -0.5807 -0.2660
 3311SOL    HW111533   4.629   4.848   6.808  1.5920 -0.8717  0.7088
 3311SOL    HW211534   4.588   4.775   6.668 -1.0727  0.6878  0.6076
 3312SOL     OW11535   2.990   4.216   1.624 -0.3428 -0.1019  0.2697
 3312SOL    HW111536   3.033   4.147   1.566  0.3077 -0.1261  0.7655
 3312SOL    HW211537   3.056   4.289   1.644 -0.2198 -0.6022  1.8018
 3313SOL     OW11538   0.668   1.992   0.698 -0.0580  0.7572  0.4801
 3313SOL    HW111539   0.688   1.969   0.603 -0.2880  0.5806  0.4729
 3313SOL    HW211540   0.625   2.082   0.702 -1.9580 -0.0797  0.1986
 3314SOL     OW11541   5.855   3.902   3.320  0.4623 -0.0645  0.0313
 3314SOL    HW111542   5.862   3.857   3.230 -1.0372  0.3751 -0.3416
 3314SOL    HW211543   5.893   3.994   3.314  0.8450 -0.2218 -0.0044
 3315SOL     OW11544   6.970   3.740   3.752 -0.5666 -0.9480 -0.0907
 3315SOL    HW111545   6.891   3.797   3.773 -1.2638 -2.1893  0.7610
 3315SOL    HW211546   7.054   3.787   3.781 -1.2095 -0.8755  1.7538
 3316SOL     OW11547   2.264   2.095   6.484 -0.0808 -0.3382  0.0883
 3316SOL    HW111548   2.244   2.192   6.483  0.8076 -0.1418  0.0950
 3316SOL    HW211549   2.349   2.079   6.536 -0.6694 -1.2046  0.8301
 3317SOL     OW11550   4.809   2.441   5.036  0.2265  0.0873  0.1178
 3317SOL    HW111551   4.826   2.496   5.118 -1.9736 -0.9403  1.3479
 3317SOL    HW211552   4.891   2.387   5.016  1.2370  1.2762  0.8671
 3318SOL     OW11553   5.497   6.274   0.308 -0.3311 -0.1885 -0.2336
 3318SOL    HW111554   5.465   6.181   0.328 -0.0057 -0.7752 -2.1724
 3318SOL    HW211555   5.534   6.316   0.391 -0.1325 -1.9356  0.6002
 3319SOL     OW11556   5.976   2.414   4.263 -0.7380  0.1779 -0.5746
 3319SOL    HW111557   6.066   2.386   4.228 -1.0546  1.0031 -2.1332
 3319SOL    HW211558   5.924   2.332   4.288  0.6977 -0.2913  1.1200
 3320SOL     OW11559   1.931   5.281   6.274 -0.0061 -0.3217  0.0999
 3320SOL    HW111560   1.998   5.353   6.290 -0.4011 -0.4528  2.8170
 3320SOL    HW211561   1.839   5.317   6.287 -0.3468 -0.7692 -0.9550
 3321SOL     OW11562   4.157   3.772   6.770 -0.4373 -0.1756 -0.5598
 3321SOL    HW111563   4.238   3.743   6.719 -0.1734  2.5437 -1.8485
 3321SOL    HW211564   4.124   3.860   6.735 -1.1377  1.1640  2.9855
 3322SOL     OW11565   5.719   1.097   6.146  0.5453  0.3031 -1.0642
 3322SOL    HW111566   5.737   1.129   6.239 -0.3898  0.5118 -0.9455
 3322SOL    HW211567   5.804   1.100   6.093  1.5150 -1.4525  0.2562
 3323SOL     OW11568   6.882   1.335   4.151  0.4104  0.5160  0.1960
 3323SOL    HW111569   6.908   1.244   4.120 -3.3420 -1.1161  1.2382
 3323SOL    HW211570   6.834   1.383   4.078  0.2783  0.6815  0.3884
 3324SOL     OW11571   1.472   2.406   4.255 -0.2332  0.7794  0.0371
 3324SOL    HW111572   1.463   2.321   4.308 -2.7836  0.9341 -0.0219
 3324SOL    HW211573   1.530   2.470   4.305  0.5912 -0.4794  0.7500
 3325SOL     OW11574   1.257   0.036   2.677 -0.1681 -0.0120 -0.1241
 3325SOL    HW111575   1.341   0.046   2.730 -0.1771  0.5578 -0.2208
 3325SOL    HW211576   1.199  -0.033   2.721  0.2264 -0.2102  0.0938
 3326SOL     OW11577   6.137   6.150   3.456  0.0320 -0.9344  0.1098
 3326SOL    HW111578   6.096   6.202   3.531  0.2844 -1.5544  0.6791
 3326SOL    HW211579   6.235   6.169   3.451  0.2367 -1.7956  0.6947
 3327SOL     OW11580   4.903   2.281   6.472 -0.0036 -0.4261 -0.4948
 3327SOL    HW111581   4.827   2.230   6.514  1.7927 -2.3592  0.5931
 3327SOL    HW211582   4.942   2.226   6.398  2.6248 -1.2328  1.3499
 3328SOL     OW11583   6.261   5.960   0.821 -0.0071 -0.0703  0.4429
 3328SOL    HW111584   6.166   5.930   0.828  0.1919 -0.2457  3.5581
 3328SOL    HW211585   6.317   5.909   0.886  2.1424  0.4169 -0.9510
 3329SOL     OW11586   5.838   2.712   6.953 -0.0954  0.0905  0.2948
 3329SOL    HW111587   5.833   2.653   6.872 -0.8619  0.0732  0.3399
 3329SOL    HW211588   5.909   2.679   7.014  0.7189  0.2961 -0.5153
 3330SOL     OW11589   0.182   4.014   6.641 -0.2187 -0.7059  1.0795
 3330SOL    HW111590   0.096   4.045   6.682  0.3977  0.3772  1.5716
 3330SOL    HW211591   0.259   4.048   6.694  0.5806 -0.1702 -0.3792
 3331SOL     OW11592   1.975   2.948   0.878 -0.0549 -0.2328  0.0673
 3331SOL    HW111593   1.900   2.963   0.813  1.1430 -0.6342 -1.4525
 3331SOL    HW211594   2.054   3.004   0.853  1.4261 -2.4578 -0.5447
 3332SOL     OW11595   0.956   2.044   1.106 -0.1171  0.1675  0.1795
 3332SOL    HW111596   1.055   2.056   1.093 -0.6167  2.2271 -2.9358
 3332SOL    HW211597   0.933   1.947   1.104  1.5653 -0.2850 -2.6966
 3333SOL     OW11598   2.153   0.306   1.428 -0.2568 -0.5697 -0.2516
 3333SOL    HW111599   2.065   0.338   1.393 -1.9097 -2.2207  2.0305
 3333SOL    HW211600   2.197   0.378   1.480 -1.0026 -0.1656 -0.1677
 3334SOL     OW11601   2.116   0.071   5.570 -0.2694 -0.5936  0.1951
 3334SOL    HW111602   2.103  -0.013   5.518 -2.0294  0.6042 -1.4304
 3334SOL    HW211603   2.027   0.112   5.591  0.5034  0.3123  1.9229
 3335SOL     OW11604   4.164   5.026   5.606 -0.3326 -0.3713 -0.0834
 3335SOL    HW111605   4.196   4.977   5.687  0.3596  2.0416  1.2076
 3335SOL    HW211606   4.192   4.977   5.524 -0.1499 -2.3543  1.1030
 3336SOL     OW11607   3.168   6.168   2.009 -0.1561  0.0595 -0.5874
 3336SOL    HW111608   3.211   6.101   1.948  0.4205 -0.2256  0.1042
 3336SOL    HW211609   3.233   6.242   2.027 -0.5238  0.4246 -0.7607
 3337SOL     OW11610   0.479   4.286   4.602 -0.9716  0.0088  0.1613
 3337SOL    HW111611   0.394   4.261   4.650 -1.5482  0.1544 -0.7531
 3337SOL    HW211612   0.536   4.205   4.592 -0.7205  0.0214  1.3007
 3338SOL     OW11613   2.950   1.685   0.818  1.0184  0.1783  0.1852
 3338SOL    HW111614   3.026   1.656   0.760  1.1208 -0.8116  0.7923
 3338SOL    HW211615   2.869   1.629   0.798  0.9653  0.0363  0.7852
 3339SOL     OW11616   3.013   2.276   4.789 -0.6302  0.1658 -0.4204
 3339SOL    HW111617   3.063   2.352   4.831  0.7272 -0.6932 -0.4066
 3339SOL    HW211618   2.929   2.259   4.840  0.8501 -0.6935  1.8747
 3340SOL     OW11619   4.834   2.375   0.534 -0.4432 -0.2865 -0.7409
 3340SOL    HW111620   4.848   2.304   0.603 -1.0859 -1.6415 -1.9690
 3340SOL    HW211621   4.901   2.365   0.461 -0.9146 -0.0206 -1.2233
 3341SOL     OW11622   5.353   4.183   1.067 -0.0043  0.3635 -0.4104
 3341SOL    HW111623   5.436   4.228   1.100 -0.6540  0.9719  0.4337
 3341SOL    HW211624   5.359   4.169   0.969  0.0777  2.6483 -0.7707
 3342SOL     OW11625   0.971   1.906   3.516  0.0447 -0.3393  0.9392
 3342SOL    HW111626   0.891   1.936   3.463 -0.2465  0.4115  1.7845
 3342SOL    HW211627   1.048   1.965   3.496  0.5467 -1.3255 -0.2074
 3343SOL     OW11628   5.269   0.241   5.975 -0.1066  0.4203  0.6229
 3343SOL    HW111629   5.361   0.218   6.008  0.3191  0.7995 -0.2612
 3343SOL    HW211630   5.211   0.264   6.053  1.0637  2.0045  1.0850
 3344SOL     OW11631   1.269   0.591   4.487  0.4118  0.3847  0.2529
 3344SOL    HW111632   1.187   0.641   4.513  0.9450  0.5859  1.6607
 3344SOL    HW211633   1.268   0.500   4.529  0.2861 -0.1237 -0.8263
 3345SOL     OW11634   6.353   5.546   2.395  0.0714  0.6647 -0.1253
 3345SOL    HW111635   6.292   5.470   2.416  0.8055  0.0688 -0.1138
 3345SOL    HW211636   6.315   5.630   2.434 -0.4038  0.1912  0.4579
 3346SOL     OW11637   6.526   4.957   6.649  0.2522 -0.6378  0.2646
 3346SOL    HW111638   6.530   4.923   6.744  2.1576 -1.0733  0.0813
 3346SOL    HW211639   6.504   4.881   6.588  0.3644 -0.6471  0.2357
 3347SOL     OW11640   4.529   3.426   6.029 -0.3401 -0.0857  0.1012
 3347SOL    HW111641   4.467   3.469   5.963  0.7584 -1.0477 -1.6341
 3347SOL    HW211642   4.479   3.356   6.081 -1.0724  0.2515 -0.1305
 3348SOL     OW11643   2.645   3.691   1.845  0.0797  0.3282 -0.3437
 3348SOL    HW111644   2.699   3.690   1.929  1.4761 -1.3094 -1.2049
 3348SOL    HW211645   2.604   3.781   1.832  0.4560  0.8305  1.6773
 3349SOL     OW11646   4.974   2.229   4.157  0.1498 -0.5242 -0.2008
 3349SOL    HW111647   5.049   2.245   4.221 -1.0727 -1.0119  1.4248
 3349SOL    HW211648   4.956   2.313   4.105  0.2360  0.3730  1.1587
 3350SOL     OW11649   3.126   3.918   5.133 -0.2430  0.1214 -0.5029
 3350SOL    HW111650   3.125   3.901   5.035  0.3060  0.0026 -0.4880
 3350SOL    HW211651   3.177   4.002   5.152  1.7335 -1.0914 -0.1406
 3351SOL     OW11652   2.991   0.908   1.038  0.2117  0.1863  0.0479
 3351SOL    HW111653   2.897   0.888   1.011  1.3141 -1.6893 -2.7189
 3351SOL    HW211654   3.043   0.938   0.959  2.2834 -0.0228  1.2625
 3352SOL     OW11655   2.668   4.037   3.858  0.0977  0.2782  0.2130
 3352SOL    HW111656   2.726   3.965   3.895  1.5558  0.6329 -1.2904
 3352SOL    HW211657   2.587   3.995   3.815  0.1691 -0.3453  0.6676
 3353SOL     OW11658   5.323   1.461   0.606  0.5863  0.1665 -0.5093
 3353SOL    HW111659   5.320   1.548   0.656 -2.6996 -1.2340  2.1333
 3353SOL    HW211660   5.411   1.416   0.623  0.6498  1.0096  1.8771
 3354SOL     OW11661   3.742   3.171   4.830  0.4556 -0.2964  0.0967
 3354SOL    HW111662   3.766   3.159   4.734 -1.4621 -2.1424 -0.2162
 3354SOL    HW211663   3.822   3.154   4.887  1.4261  0.0853 -1.1064
 3355SOL     OW11664   6.197   0.414   6.387 -0.3909  0.0154 -0.4191
 3355SOL    HW111665   6.157   0.395   6.477  0.0525  2.7274  0.4623
 3355SOL    HW211666   6.215   0.512   6.380  1.8219 -0.4718 -2.5854
 3356SOL     OW11667   3.134   0.953   3.502  0.8989  0.2515 -0.0653
 3356SOL    HW111668   3.212   0.921   3.448  0.8247 -1.3790  0.7387
 3356SOL    HW211669   3.065   0.993   3.441  1.2591 -0.6062 -1.0626
 3357SOL     OW11670   5.095   1.353   6.484 -0.2200 -0.6635  0.8204
 3357SOL    HW111671   5.052   1.342   6.395  0.8095 -2.1917  0.4678
 3357SOL    HW211672   5.029   1.390   6.549 -1.1297 -0.0244 -0.4444
 3358SOL     OW11673   6.458   0.663   6.376 -0.1710 -0.5507 -0.3872
 3358SOL    HW111674   6.373   0.705   6.409 -1.0730 -2.1308 -0.5673
 3358SOL    HW211675   6.533   0.687   6.438 -0.5008  1.7254 -0.7996
 3359SOL     OW11676   5.753   0.907   3.437  0.7146 -0.8376 -0.1176
 3359SOL    HW111677   5.742   0.914   3.338 -0.1767 -0.4063 -0.0004
 3359SOL    HW211678   5.676   0.856   3.476  0.7919 -0.5646  0.4065
 3360SOL     OW11679   1.455   4.921   6.657 -0.3903 -0.0997  0.0449
 3360SOL    HW111680   1.392   4.901   6.583  1.5329  1.8360 -2.2802
 3360SOL    HW211681   1.548   4.893   6.631  0.1515 -0.6697  2.3443
 3361SOL     OW11682   1.392   2.734   4.272 -0.4566  0.5960  0.4849
 3361SOL    HW111683   1.324   2.807   4.287  0.2748  1.5426 -0.6190
 3361SOL    HW211684   1.350   2.661   4.218 -1.2053  0.1738  1.6165
 3362SOL     OW11685   0.665   0.927   0.355  0.5944  0.2628 -0.0396
 3362SOL    HW111686   0.664   0.839   0.306 -1.4984 -1.0410  2.1079
 3362SOL    HW211687   0.737   0.925   0.424  1.8598  1.0809 -1.2968
 3363SOL     OW11688   3.946   1.461   5.343 -0.5104  0.0953  0.0086
 3363SOL    HW111689   3.862   1.515   5.353 -1.1207 -0.6517 -0.9072
 3363SOL    HW211690   3.947   1.387   5.410 -1.6230 -1.1776 -1.3393
 3364SOL     OW11691   0.759   3.893   5.733  0.2764  0.1749 -0.0908
 3364SOL    HW111692   0.827   3.819   5.735 -0.5450 -0.6927  3.9540
 3364SOL    HW211693   0.671   3.856   5.705  0.2077 -0.0364  0.3994
 3365SOL     OW11694   1.186   5.726   1.539 -0.3514  0.3363  0.0653
 3365SOL    HW111695   1.224   5.644   1.496 -1.4384 -1.3262  2.0871
 3365SOL    HW211696   1.260   5.786   1.569  0.5198 -0.5647 -0.2333
 3366SOL     OW11697   4.289   0.830   0.341  0.0415 -0.3944 -0.0517
 3366SOL    HW111698   4.283   0.862   0.247  0.8945 -0.3927 -0.1141
 3366SOL    HW211699   4.353   0.753   0.346 -0.4029 -0.7411  0.4404
 3367SOL     OW11700   3.558   1.603   5.844  0.1167 -0.1269 -0.2756
 3367SOL    HW111701   3.598   1.526   5.893 -0.5569 -0.1658  0.2213
 3367SOL    HW211702   3.529   1.573   5.753  0.2857 -0.3441 -0.2596
 3368SOL     OW11703   0.887   0.167   1.211  0.4147 -0.1717 -0.0245
 3368SOL    HW111704   0.980   0.182   1.179  0.2751  2.3211  0.5289
 3368SOL    HW211705   0.883   0.184   1.310 -0.4280 -1.3828  0.1759
 3369SOL     OW11706   6.581   6.598   4.282  0.1244  0.7638  0.1402
 3369SOL    HW111707   6.500   6.631   4.331  1.1256  0.0876  2.3758
 3369SOL    HW211708   6.555   6.521   4.223 -0.9631  1.0303  0.2476
 3370SOL     OW11709   4.753   0.107   1.886  0.1583 -0.4271  0.2412
 3370SOL    HW111710   4.847   0.094   1.917  0.5855 -0.4798 -1.0389
 3370SOL    HW211711   4.730   0.205   1.888 -0.2724 -0.5372  1.9516
 3371SOL     OW11712   6.833   6.944   0.490  0.2817  0.3687  0.0055
 3371SOL    HW111713   6.760   6.967   0.555  0.5396  0.4506  0.2708
 3371SOL    HW211714   6.915   6.997   0.513 -0.2207  1.9431 -1.6311
 3372SOL     OW11715   2.791   3.608   2.107  0.2549  0.0757  0.7572
 3372SOL    HW111716   2.806   3.700   2.144 -0.3957  1.1070 -1.4108
 3372SOL    HW211717   2.879   3.560   2.104  0.5558  0.4590  2.2109
 3373SOL     OW11718   6.447   2.831   3.968  0.4482  0.1115  0.8655
 3373SOL    HW111719   6.381   2.756   3.969  0.6600 -0.1092 -0.3031
 3373SOL    HW211720   6.403   2.913   3.930  0.5455  0.2532  1.0611
 3374SOL     OW11721   0.975   5.044   4.135 -0.8270 -0.3132 -0.0836
 3374SOL    HW111722   0.974   4.985   4.055  0.0254 -0.0171 -0.3188
 3374SOL    HW211723   0.917   5.005   4.207 -0.4225 -1.3343 -0.3000
 3375SOL     OW11724   0.709   1.948   3.669  0.2787 -0.0405  0.0724
 3375SOL    HW111725   0.633   1.898   3.711  1.6243 -0.6522  1.8726
 3375SOL    HW211726   0.688   2.046   3.671 -2.1334 -0.3245 -2.9967
 3376SOL     OW11727   3.484   1.917   4.163 -0.1567 -0.0958 -0.0562
 3376SOL    HW111728   3.425   1.898   4.084 -0.6884 -1.3632  0.6198
 3376SOL    HW211729   3.486   2.016   4.180 -1.7405  0.0121 -0.3652
 3377SOL     OW11730   2.874   6.707   2.849 -0.6707  0.0748 -0.2698
 3377SOL    HW111731   2.926   6.744   2.772  3.0559 -0.0089  1.9731
 3377SOL    HW211732   2.917   6.623   2.882 -3.6042 -1.2873  0.4652
 3378SOL     OW11733   3.419   3.130   0.658  0.5103 -0.3675 -0.2923
 3378SOL    HW111734   3.416   3.230   0.649  1.5449 -0.1612  1.3019
 3378SOL    HW211735   3.513   3.101   0.677  0.1871 -1.6394 -0.5362
 3379SOL     OW11736   2.038   0.441   6.182 -0.1564 -0.0315  0.1779
 3379SOL    HW111737   2.052   0.536   6.211  1.2103 -0.2380  0.2785
 3379SOL    HW211738   2.040   0.381   6.261 -0.7302 -0.1842  0.0821
 3380SOL     OW11739   4.817   0.127   1.166 -0.4956  0.1429 -0.1962
 3380SOL    HW111740   4.858   0.218   1.155  0.5756 -0.3540 -0.4584
 3380SOL    HW211741   4.735   0.120   1.110 -0.2629  0.7638 -0.6211
 3381SOL     OW11742   2.504   2.196   4.816  0.7453  0.1638  0.0938
 3381SOL    HW111743   2.464   2.224   4.729 -2.3425 -2.6267  0.4352
 3381SOL    HW211744   2.473   2.257   4.889  0.2530  0.2902 -0.2216
 3382SOL     OW11745   0.673   5.069   4.311 -0.0952 -0.4750  0.1761
 3382SOL    HW111746   0.706   5.160   4.286 -1.5021  0.2392  0.7826
 3382SOL    HW211747   0.745   5.019   4.360  0.4563  0.5804  0.4662
 3383SOL     OW11748   1.141   0.216   2.511  0.2316 -0.1554 -0.4619
 3383SOL    HW111749   1.188   0.161   2.579  0.7275  1.7760  0.8306
 3383SOL    HW211750   1.044   0.192   2.509  0.7467 -2.3693 -1.3306
 3384SOL     OW11751   2.503   0.505   4.635  0.8551 -0.4826 -0.2455
 3384SOL    HW111752   2.439   0.529   4.563 -0.9590 -0.1783  1.3765
 3384SOL    HW211753   2.570   0.438   4.600 -0.7099 -1.2980 -1.8453
 3385SOL     OW11754   2.355   1.357   1.742 -0.2022 -0.0696  0.0131
 3385SOL    HW111755   2.380   1.313   1.656 -2.6480  0.7925 -1.2391
 3385SOL    HW211756   2.374   1.455   1.735  0.3321 -0.1134  0.7793
 3386SOL     OW11757   6.110   2.584   1.492  0.1948 -0.0248  0.0855
 3386SOL    HW111758   6.158   2.668   1.466  1.0370 -0.2734  0.8133
 3386SOL    HW211759   6.164   2.534   1.558 -0.4769 -0.9744 -0.0710
 3387SOL     OW11760   0.244   2.572   5.484 -0.4193  0.0526  0.9069
 3387SOL    HW111761   0.342   2.587   5.468 -0.6131  0.2859 -0.1638
 3387SOL    HW211762   0.225   2.474   5.489 -0.1120  0.0094  1.2644
 3388SOL     OW11763   1.619   2.739   2.205  0.0209  0.0206  0.2232
 3388SOL    HW111764   1.618   2.824   2.151  1.8816 -1.4330 -2.3439
 3388SOL    HW211765   1.527   2.699   2.205 -0.4329  1.0179 -0.2697
 3389SOL     OW11766   4.596   6.942   4.242 -0.5750  0.0938 -0.5718
 3389SOL    HW111767   4.641   6.871   4.187 -0.2168 -0.6827  0.6651
 3389SOL    HW211768   4.556   6.900   4.324 -0.7907  1.2579 -0.0557
 3390SOL     OW11769   6.829   5.337   1.245  0.0106 -0.2682  0.5974
 3390SOL    HW111770   6.888   5.322   1.166  0.4501  1.8485  0.4631
 3390SOL    HW211771   6.828   5.255   1.301 -0.3886 -1.8776 -1.6158
 3391SOL     OW11772   4.052   5.283   1.860  0.3692 -0.0769  0.0759
 3391SOL    HW111773   4.131   5.300   1.800  0.8219 -0.5518  0.5264
 3391SOL    HW211774   3.973   5.335   1.827  1.5204  2.4764  1.0738
 3392SOL     OW11775   2.200   0.358   3.862 -0.2058 -0.0637 -0.1461
 3392SOL    HW111776   2.266   0.434   3.861 -1.2339  0.8771 -2.0923
 3392SOL    HW211777   2.231   0.287   3.799 -0.1144 -0.4928  0.3762
 3393SOL     OW11778   2.031   3.276   6.749 -0.7630 -0.0818  0.8842
 3393SOL    HW111779   2.122   3.288   6.788  0.1890 -0.3970 -1.0831
 3393SOL    HW211780   1.969   3.242   6.819  0.6821 -0.0613  2.2313
 3394SOL     OW11781   0.545   5.481   6.610  0.1504 -0.0821 -0.0326
 3394SOL    HW111782   0.497   5.444   6.689 -2.2044 -1.2356 -1.8669
 3394SOL    HW211783   0.527   5.579   6.603  0.4230  0.0405  0.8662
 3395SOL     OW11784   5.213   2.942   4.714  0.2054  1.1221 -0.4158
 3395SOL    HW111785   5.255   2.918   4.801  0.4781  2.0564 -0.2810
 3395SOL    HW211786   5.215   2.863   4.653 -0.2049  0.3913  0.5068
 3396SOL     OW11787   1.892   4.662   5.442  0.3488  0.2113  0.5481
 3396SOL    HW111788   1.877   4.568   5.472  3.1036 -0.1423  1.1071
 3396SOL    HW211789   1.890   4.666   5.342 -1.2283 -0.1194  0.5484
 3397SOL     OW11790   6.779   1.154   4.719  0.6100 -0.8438  0.0974
 3397SOL    HW111791   6.764   1.111   4.808 -2.3592 -0.2616 -0.0070
 3397SOL    HW211792   6.731   1.242   4.716  1.2756 -0.5037 -1.8254
 3398SOL     OW11793   3.989   0.168   1.413  0.2884 -0.1217  0.7675
 3398SOL    HW111794   3.935   0.087   1.434 -0.4054 -0.2957 -1.4455
 3398SOL    HW211795   4.082   0.156   1.449  0.4535 -2.2972 -0.1937
 3399SOL     OW11796   6.615   6.135   3.853  0.0678 -0.2441 -0.4806
 3399SOL    HW111797   6.644   6.042   3.830  1.2679 -0.3892  1.3383
 3399SOL    HW211798   6.665   6.201   3.797  0.1844 -0.6612 -0.8706
 3400SOL     OW11799   5.461   5.318   6.508 -0.3466 -0.0972 -0.5250
 3400SOL    HW111800   5.384   5.288   6.565 -0.1671  0.6725  0.1370
 3400SOL    HW211801   5.541   5.262   6.529 -0.3234  0.0807 -0.1352
 3401SOL     OW11802   6.987   4.002   5.016 -0.2826 -0.2066  0.4680
 3401SOL    HW111803   7.054   4.071   5.044 -0.0313 -0.0184 -0.5742
 3401SOL    HW211804   7.028   3.940   4.949 -1.7712  1.2646 -1.9312
 3402SOL     OW11805   4.982   5.770   6.765  0.0880  0.2750 -0.5333
 3402SOL    HW111806   4.941   5.680   6.749 -1.3253  0.5818  1.0978
 3402SOL    HW211807   5.039   5.766   6.847 -0.5155  1.0132 -0.0680
 3403SOL     OW11808   3.792   6.027   4.429 -0.5596 -0.2433  0.1205
 3403SOL    HW111809   3.778   6.038   4.527  0.1688 -0.0402  0.2092
 3403SOL    HW211810   3.737   5.950   4.395 -0.2567 -0.7768  0.8193
 3404SOL     OW11811   3.947   1.829   4.582 -0.2621 -0.6287  0.1747
 3404SOL    HW111812   3.949   1.745   4.527  1.5330  0.4762 -1.6147
 3404SOL    HW211813   3.852   1.858   4.594 -0.7933 -0.9036 -2.5280
 3405SOL     OW11814   0.486   5.577   5.174 -0.3628 -0.7043 -0.8343
 3405SOL    HW111815   0.402   5.630   5.164 -0.4838 -0.9170 -0.9556
 3405SOL    HW211816   0.534   5.606   5.257 -1.1802 -1.4400 -0.0753
 3406SOL     OW11817   1.444   2.979   5.674 -0.1069  0.6031 -0.1167
 3406SOL    HW111818   1.474   2.889   5.707  2.9566  1.0731 -1.2180
 3406SOL    HW211819   1.457   3.047   5.746  2.2406  0.8870 -0.7332
 3407SOL     OW11820   4.015   1.154   4.816  0.0248 -0.2182  0.5338
 3407SOL    HW111821   3.989   1.250   4.829  0.0332 -0.2385  0.6928
 3407SOL    HW211822   4.087   1.130   4.880 -0.7380 -0.6419  1.2505
 3408SOL     OW11823   2.150   3.527   1.060  0.5978  0.0036  0.2608
 3408SOL    HW111824   2.068   3.563   1.015  0.2472 -0.4844  0.4909
 3408SOL    HW211825   2.217   3.600   1.071  0.7321  0.1103 -1.1332
 3409SOL     OW11826   5.042   2.583   5.443 -0.5798  0.4136  0.2821
 3409SOL    HW111827   5.133   2.572   5.484  0.0165 -0.2113 -1.1623
 3409SOL    HW211828   4.974   2.590   5.516  0.5703  0.4419  1.3856
 3410SOL     OW11829   6.485   3.658   2.427 -0.4748  0.3123  0.2172
 3410SOL    HW111830   6.471   3.744   2.476 -0.3053  0.7521 -0.4900
 3410SOL    HW211831   6.456   3.582   2.484  1.1597  0.6828  1.6439
 3411SOL     OW11832   0.819   3.076   5.587 -0.3676 -0.1514  0.2657
 3411SOL    HW111833   0.764   3.121   5.658  0.5756  0.9300  0.3382
 3411SOL    HW211834   0.774   3.085   5.499  0.9109  3.1829 -0.1848
 3412SOL     OW11835   1.336   0.605   3.372 -0.0365 -0.1864 -0.0367
 3412SOL    HW111836   1.430   0.637   3.378 -0.2144  0.3776 -0.1108
 3412SOL    HW211837   1.275   0.671   3.417 -0.3373 -0.8313  0.5173
 3413SOL     OW11838   5.231   1.701   0.336 -0.6078 -0.4665  0.2813
 3413SOL    HW111839   5.159   1.711   0.267  0.2842  1.8549 -0.4301
 3413SOL    HW211840   5.230   1.781   0.396  0.7397 -0.8692  0.8602
 3414SOL     OW11841   1.231   5.342   1.151 -0.9782  0.3584  0.0965
 3414SOL    HW111842   1.230   5.255   1.200  0.2080  0.1771 -0.1528
 3414SOL    HW211843   1.324   5.379   1.152 -1.7990  2.6213  1.9142
 3415SOL     OW11844   0.728   4.127   4.725 -0.2194 -0.0632  0.1170
 3415SOL    HW111845   0.813   4.158   4.768 -0.4863  1.7493 -0.5854
 3415SOL    HW211846   0.707   4.035   4.757  0.5709  0.4817  2.4313
 3416SOL     OW11847   4.463   0.533   6.137 -0.2854  0.5383 -0.1058
 3416SOL    HW111848   4.405   0.457   6.167  0.9639  0.1600  1.4648
 3416SOL    HW211849   4.557   0.516   6.164  0.5467  1.3348 -2.2688
 3417SOL     OW11850   1.274   3.292   4.309  0.6847  0.1365  0.0370
 3417SOL    HW111851   1.220   3.230   4.252  1.9926  1.2269 -2.5588
 3417SOL    HW211852   1.355   3.245   4.343  0.0784 -0.4297  0.7075
 3418SOL     OW11853   3.067   3.121   1.138 -0.3156 -0.1734 -0.1561
 3418SOL    HW111854   3.130   3.070   1.197  0.9733  1.5734  0.0513
 3418SOL    HW211855   3.045   3.209   1.180 -0.0180  0.7717 -1.8769
 3419SOL     OW11856   3.321   4.866   5.409  0.4848  0.2122  0.0012
 3419SOL    HW111857   3.326   4.888   5.507 -0.0123 -0.5012  0.1915
 3419SOL    HW211858   3.251   4.922   5.366 -0.6888 -0.8358  0.4610
 3420SOL     OW11859   3.950   4.376   5.440 -0.4053 -0.2546  0.0669
 3420SOL    HW111860   3.978   4.361   5.345  2.1345  1.0970  0.5106
 3420SOL    HW211861   3.944   4.475   5.457 -0.6831 -0.4808  1.3655
 3421SOL     OW11862   4.657   2.446   0.349  0.4878 -0.0979  0.3758
 3421SOL    HW111863   4.606   2.370   0.309  2.6829 -0.7038 -1.5436
 3421SOL    HW211864   4.727   2.409   0.411  1.1416  0.3794 -0.0643
 3422SOL     OW11865   1.987   0.180   1.141  0.2751 -0.3048 -0.0751
 3422SOL    HW111866   2.059   0.110   1.140  1.2353  0.6682 -0.3392
 3422SOL    HW211867   2.015   0.258   1.084 -0.3384  0.7225  0.9933
 3423SOL     OW11868   6.792   3.101   3.338  0.0314 -0.1982  0.0698
 3423SOL    HW111869   6.867   3.105   3.405 -0.8638  3.2250  1.0646
 3423SOL    HW211870   6.750   3.011   3.341  1.4882 -0.8994  2.4830
 3424SOL     OW11871   6.218   4.169   4.719 -0.7803  0.0889  0.2067
 3424SOL    HW111872   6.278   4.088   4.717 -0.3807  0.3807  0.2350
 3424SOL    HW211873   6.268   4.246   4.758 -0.0991  1.1841 -2.6051
 3425SOL     OW11874   4.315   5.231   5.313 -0.1029 -0.3297 -0.4221
 3425SOL    HW111875   4.388   5.206   5.377 -0.2814 -0.2407 -0.1791
 3425SOL    HW211876   4.353   5.244   5.222  0.4256  1.0218 -0.0450
 3426SOL     OW11877   5.099   6.325   5.138  0.1965  0.4266 -0.0103
 3426SOL    HW111878   5.193   6.290   5.140 -0.4037 -1.2421  1.0700
 3426SOL    HW211879   5.042   6.266   5.082 -0.4269  0.8501  0.1629
 3427SOL     OW11880   6.224   0.220   2.926  0.0229  0.0022  0.2198
 3427SOL    HW111881   6.175   0.134   2.913  1.0072 -0.7507  1.3041
 3427SOL    HW211882   6.248   0.231   3.022  2.1173  0.2443 -0.2816
 3428SOL     OW11883   0.069   1.726   6.471 -0.3006 -0.0190 -0.2594
 3428SOL    HW111884   0.031   1.708   6.380  0.3117 -4.9455  0.1738
 3428SOL    HW211885   0.001   1.703   6.540 -0.0761  1.7637  0.6172
 3429SOL     OW11886   4.326   4.079   6.663 -0.9498  0.8298  0.0618
 3429SOL    HW111887   4.423   4.105   6.662 -1.0833  1.4427  1.3594
 3429SOL    HW211888   4.291   4.080   6.569  0.2720  0.6825 -0.4137
 3430SOL     OW11889   4.838   0.074   5.395 -0.0542  0.5633  0.0296
 3430SOL    HW111890   4.740   0.072   5.417 -0.1590  0.3333 -0.4484
 3430SOL    HW211891   4.860  -0.004   5.336  0.5484  0.2301  0.6776
 3431SOL     OW11892   6.431   4.749   6.442 -0.4594  0.1476  0.2276
 3431SOL    HW111893   6.371   4.741   6.362 -0.4179  3.5851 -0.2932
 3431SOL    HW211894   6.526   4.733   6.415 -0.7310 -2.2332  0.4305
 3432SOL     OW11895   3.542   2.081   5.485  0.2708 -0.0817  0.0326
 3432SOL    HW111896   3.505   2.089   5.392 -0.5546  1.3997  0.4726
 3432SOL    HW211897   3.619   2.143   5.495  0.7061 -0.6400  0.1880
 3433SOL     OW11898   2.744   1.763   4.664 -0.1169  0.0742 -0.4663
 3433SOL    HW111899   2.693   1.699   4.722  2.1842 -0.7410  0.8013
 3433SOL    HW211900   2.788   1.712   4.590 -0.1871  0.5820 -0.8643
 3434SOL     OW11901   6.468   2.071   0.024 -0.1175  0.2499  0.6612
 3434SOL    HW111902   6.445   2.143  -0.042  1.8074 -0.2885 -0.6980
 3434SOL    HW211903   6.542   2.015  -0.013  0.9443 -0.1855  3.2412
 3435SOL     OW11904   0.594   1.429   2.533  0.2797 -0.2787  0.0791
 3435SOL    HW111905   0.669   1.481   2.493 -0.4542  0.2642 -0.6353
 3435SOL    HW211906   0.510   1.482   2.528 -0.7428 -1.9031 -1.6987
 3436SOL     OW11907   0.150   0.328   3.915  0.5618 -0.2372 -0.0549
 3436SOL    HW111908   0.125   0.384   3.836  2.9387 -1.7506 -1.9954
 3436SOL    HW211909   0.129   0.232   3.896  2.0624 -0.7442  0.7316
 3437SOL     OW11910   6.144   6.596   1.082  0.7069 -0.1759  0.2653
 3437SOL    HW111911   6.053   6.638   1.079  0.0366 -1.5737 -2.1834
 3437SOL    HW211912   6.142   6.519   1.146  0.7517  0.9084  1.6194
 3438SOL     OW11913   5.140   4.371   0.710 -0.2373  0.0202  0.5462
 3438SOL    HW111914   5.196   4.454   0.707 -0.0619 -0.1291 -0.9783
 3438SOL    HW211915   5.198   4.290   0.709 -0.4431 -0.1272  0.0637
 3439SOL     OW11916   3.281   1.192   4.623  0.5926  0.5176 -0.2487
 3439SOL    HW111917   3.268   1.206   4.525  0.2897  0.4994 -0.2130
 3439SOL    HW211918   3.325   1.104   4.639 -1.5750 -0.6505 -0.2616
 3440SOL     OW11919   1.350   0.835   3.024  0.3798 -0.2615 -0.3897
 3440SOL    HW111920   1.417   0.835   3.099 -0.2990 -0.6292  0.2259
 3440SOL    HW211921   1.346   0.926   2.983  0.1425  0.1740  0.5771
 3441SOL     OW11922   0.725   1.790   0.222  0.1837 -0.0197 -0.0159
 3441SOL    HW111923   0.765   1.857   0.159  2.0777 -1.6817 -0.6665
 3441SOL    HW211924   0.650   1.742   0.175 -2.0044  2.3263  0.8397
 3442SOL     OW11925   6.045   5.263   5.406  0.2283 -0.0531  0.0966
 3442SOL    HW111926   6.025   5.176   5.449  0.6493 -0.1323  0.1323
 3442SOL    HW211927   5.996   5.270   5.319  0.5170 -0.4993 -0.1040
 3443SOL     OW11928   5.351   0.025   2.330 -0.6909  0.6209  0.2691
 3443SOL    HW111929   5.276  -0.041   2.343 -1.1432  1.3879  1.9068
 3443SOL    HW211930   5.329   0.110   2.378  0.9152  1.1347  0.1571
 3444SOL     OW11931   4.553   3.259   3.824  0.0010  0.2365  0.0419
 3444SOL    HW111932   4.497   3.254   3.907 -1.0188 -3.8494 -0.6553
 3444SOL    HW211933   4.632   3.317   3.841 -1.5332  1.6965  2.9420
 3445SOL     OW11934   4.285   6.217   1.630  0.0850  0.3899  0.4311
 3445SOL    HW111935   4.307   6.158   1.708  0.7295  1.0635  0.7706
 3445SOL    HW211936   4.366   6.270   1.604 -0.2650  0.5538 -0.3743
 3446SOL     OW11937   6.840   4.898   4.500  0.0339  0.0722  0.0079
 3446SOL    HW111938   6.860   4.824   4.436  2.6673 -0.8648  1.7409
 3446SOL    HW211939   6.877   4.984   4.465 -0.2055 -0.0495 -0.5527
 3447SOL     OW11940   5.929   2.470   5.683  0.2456  0.0196 -0.0436
 3447SOL    HW111941   5.842   2.503   5.719 -0.2266 -0.9313 -0.2993
 3447SOL    HW211942   5.967   2.401   5.746  0.3661 -0.2373 -0.3961
 3448SOL     OW11943   3.342   0.398   4.617 -0.0048  0.1012  0.5492
 3448SOL    HW111944   3.286   0.438   4.690 -0.8515  0.3074 -0.1968
 3448SOL    HW211945   3.338   0.457   4.536  0.8934 -0.1453  0.3132
 3449SOL     OW11946   4.890   0.132   1.440  0.0438  0.7641  0.4568
 3449SOL    HW111947   4.868   0.138   1.343 -0.3351 -1.9836  0.3030
 3449SOL    HW211948   4.972   0.076   1.452 -1.9879 -2.1906  1.8110
 3450SOL     OW11949   0.316   6.300   2.133 -0.4020 -0.2950  0.0700
 3450SOL    HW111950   0.266   6.377   2.171  1.2568  1.0248 -0.2775
 3450SOL    HW211951   0.328   6.313   2.034  0.4879 -0.6430  0.1222
 3451SOL     OW11952   0.046   0.871   2.246  0.7784 -0.2972 -0.2519
 3451SOL    HW111953   0.030   0.957   2.295 -1.5779 -1.2151  0.7349
 3451SOL    HW211954   0.084   0.803   2.309 -1.6114 -1.2716  0.2477
 3452SOL     OW11955   5.414   6.328   6.673 -0.2280  0.2132 -0.3800
 3452SOL    HW111956   5.323   6.362   6.695 -0.0887  0.4176 -0.1252
 3452SOL    HW211957   5.413   6.228   6.677 -0.8322  0.1254 -1.8665
 3453SOL     OW11958   5.206   0.654   6.682 -0.5597  0.1419  0.2159
 3453SOL    HW111959   5.293   0.637   6.728 -0.3139 -1.3193 -0.7408
 3453SOL    HW211960   5.209   0.742   6.636  0.1309  0.4404  0.8122
 3454SOL     OW11961   6.634   0.544   4.477 -0.2167  0.2516 -0.5645
 3454SOL    HW111962   6.706   0.505   4.420 -0.5735 -0.7933 -0.3271
 3454SOL    HW211963   6.627   0.642   4.459  0.9286  0.2832 -0.9407
 3455SOL     OW11964   2.982   5.616   5.852 -0.1858 -0.5588  0.3627
 3455SOL    HW111965   2.945   5.709   5.853 -1.9105 -1.2055  0.0172
 3455SOL    HW211966   2.922   5.556   5.906 -0.0395 -1.8019 -0.8199
 3456SOL     OW11967   6.101   4.715   0.302 -0.1715 -0.5916  0.1109
 3456SOL    HW111968   6.196   4.720   0.271 -0.1311  0.2885  0.3490
 3456SOL    HW211969   6.096   4.664   0.387  0.3950  1.0660  1.1954
 3457SOL     OW11970   6.983   1.681   6.011 -0.2908 -0.2127  0.2747
 3457SOL    HW111971   6.931   1.703   5.928 -1.6593 -0.1416  1.1263
 3457SOL    HW211972   7.081   1.682   5.989 -0.6360 -0.8504 -1.4871
 3458SOL     OW11973   0.079   5.356   1.017  0.3270  0.0011 -0.2707
 3458SOL    HW111974   0.173   5.343   0.987  0.3866 -1.5586  0.5075
 3458SOL    HW211975   0.028   5.406   0.946  1.4346 -0.1351 -1.1886
 3459SOL     OW11976   6.269   2.004   4.093 -0.0128 -0.1872  0.0961
 3459SOL    HW111977   6.215   2.076   4.049 -0.5588  0.3122  1.5442
 3459SOL    HW211978   6.348   1.983   4.035 -0.3855  0.8555 -0.8381
 3460SOL     OW11979   0.369   5.288   0.717 -0.6627  0.1548  0.0968
 3460SOL    HW111980   0.370   5.383   0.686  2.6701  0.3063  0.3719
 3460SOL    HW211981   0.379   5.285   0.816  0.2738 -0.4639 -0.0023
 3461SOL     OW11982   1.489   6.030   3.473 -0.1688 -0.0999 -0.0856
 3461SOL    HW111983   1.470   5.970   3.395 -0.1231  0.0626 -0.2215
 3461SOL    HW211984   1.406   6.041   3.527 -0.6670  1.1570 -1.0499
 3462SOL     OW11985   1.204   1.983   3.698  0.0024 -0.4010  0.2634
 3462SOL    HW111986   1.111   1.957   3.725 -0.2089 -2.2368 -1.9450
 3462SOL    HW211987   1.201   2.043   3.619  0.7036  1.1532  1.3705
 3463SOL     OW11988   3.229   0.154   0.944 -0.1710 -0.1644  0.7092
 3463SOL    HW111989   3.236   0.242   0.989 -1.8067  0.2174  0.2890
 3463SOL    HW211990   3.320   0.123   0.916  0.3234  1.9259 -0.1561
 3464SOL     OW11991   4.113   4.855   0.896 -0.1316  0.1369  0.6661
 3464SOL    HW111992   4.076   4.804   0.973 -0.4301 -0.4183  0.1575
 3464SOL    HW211993   4.212   4.841   0.891 -0.2863 -0.8166  0.2139
 3465SOL     OW11994   2.055   1.275   6.980  0.4864  0.1974 -0.5136
 3465SOL    HW111995   2.145   1.316   6.965  0.4675  0.4005 -0.0920
 3465SOL    HW211996   2.051   1.186   6.935  0.3091  0.9263 -2.0074
 3466SOL     OW11997   1.089   4.822   4.470 -0.2122  0.5786  0.1708
 3466SOL    HW111998   1.126   4.799   4.380  2.2674 -0.4646  1.3542
 3466SOL    HW211999   1.080   4.739   4.525 -2.2334  1.1210  0.7532
 3467SOL     OW12000   4.431   0.617   3.962 -0.2126  0.1108  0.1318
 3467SOL    HW112001   4.456   0.617   4.059  0.2368  1.0998  0.0361
 3467SOL    HW212002   4.332   0.628   3.953 -0.6891 -3.0426  0.5074
 3468SOL     OW12003   1.547   2.395   0.929 -0.2505 -0.1870 -0.8715
 3468SOL    HW112004   1.513   2.407   1.022 -1.1056 -3.2106 -0.6826
 3468SOL    HW212005   1.636   2.439   0.920 -0.4403  0.7335  1.1512
 3469SOL     OW12006   2.971   3.778   0.268 -0.3453  0.4972 -0.9203
 3469SOL    HW112007   2.935   3.870   0.254  1.7337  1.3797 -0.8309
 3469SOL    HW212008   2.916   3.713   0.216 -0.3174  2.1183 -3.1293
 3470SOL     OW12009   5.198   1.340   0.860  0.1609 -0.6864  0.0729
 3470SOL    HW112010   5.221   1.346   0.763  1.8444 -0.3590  0.4693
 3470SOL    HW212011   5.228   1.252   0.896  1.6312  0.0641  0.7839
 3471SOL     OW12012   2.328   1.217   0.111 -0.2448 -0.3634 -0.1619
 3471SOL    HW112013   2.280   1.157   0.175  0.8410 -1.7704 -0.6149
 3471SOL    HW212014   2.418   1.179   0.090  0.3839  1.3031 -0.6908
 3472SOL     OW12015   0.548   4.357   0.456 -0.2430 -0.0618  0.2736
 3472SOL    HW112016   0.454   4.379   0.432  0.1325  1.7755  0.3409
 3472SOL    HW212017   0.560   4.258   0.458 -2.1771 -0.3234  0.3261
 3473SOL     OW12018   0.113   2.284   0.254  0.3590 -0.1178  0.2389
 3473SOL    HW112019   0.083   2.340   0.176  1.1893 -0.1152 -0.0902
 3473SOL    HW212020   0.076   2.192   0.244 -0.0657  0.0551  0.1783
 3474SOL     OW12021   3.097   3.690   1.403 -0.6200 -0.1559 -0.1706
 3474SOL    HW112022   3.191   3.715   1.425 -1.3990  1.8156  1.2326
 3474SOL    HW212023   3.036   3.727   1.473 -2.4985 -0.9485 -1.3241
 3475SOL     OW12024   0.354   1.352   3.393 -0.3389  0.6614  0.0527
 3475SOL    HW112025   0.314   1.395   3.312 -1.4681  1.0198  0.7716
 3475SOL    HW212026   0.290   1.284   3.429  1.1412 -1.2258 -0.6921
 3476SOL     OW12027   1.682   6.725   1.976 -0.2559  0.5927 -0.2792
 3476SOL    HW112028   1.759   6.673   1.938  1.8634  1.3881  2.5265
 3476SOL    HW212029   1.706   6.822   1.979 -1.9550  1.0532 -0.5280
 3477SOL     OW12030   5.805   5.638   3.768 -0.4533 -1.0364  0.4107
 3477SOL    HW112031   5.723   5.581   3.760 -0.1222 -1.2518 -1.9957
 3477SOL    HW212032   5.886   5.580   3.766 -0.1051 -0.5824 -2.3152
 3478SOL     OW12033   0.173   3.365   6.388 -0.1196 -0.1594 -0.0340
 3478SOL    HW112034   0.124   3.298   6.444 -0.0821  1.0106  1.4456
 3478SOL    HW212035   0.108   3.430   6.350 -0.4443 -2.0878 -3.1644
 3479SOL     OW12036   4.985   1.939   6.404  0.0692  0.0814 -0.0692
 3479SOL    HW112037   5.073   1.894   6.389  0.5439  1.4276 -1.5132
 3479SOL    HW212038   4.976   1.963   6.501  2.1861  1.7016 -0.2169
 3480SOL     OW12039   5.759   0.921   0.525 -0.3031 -0.7655  0.0572
 3480SOL    HW112040   5.816   0.839   0.519 -2.2502 -2.1966  0.2671
 3480SOL    HW212041   5.671   0.904   0.481 -0.9517  1.0490  0.5561
 3481SOL     OW12042   5.253   3.530   5.094  0.3531 -0.0138 -0.6997
 3481SOL    HW112043   5.192   3.455   5.070 -1.2113  1.6194 -2.2002
 3481SOL    HW212044   5.272   3.528   5.192 -3.7896  0.4294  0.3258
 3482SOL     OW12045   4.547   4.111   6.353  0.1686 -0.0180 -0.3558
 3482SOL    HW112046   4.533   4.158   6.440 -1.8850  0.3146 -0.8090
 3482SOL    HW212047   4.595   4.025   6.368 -1.6664 -0.8183  1.3827
 3483SOL     OW12048   4.803   6.862   5.867 -0.0787  0.8834  0.2637
 3483SOL    HW112049   4.869   6.930   5.901  0.2211  0.1895  1.1160
 3483SOL    HW212050   4.769   6.807   5.944  0.4089 -0.5561 -0.5027
 3484SOL     OW12051   6.840   2.005   0.434  0.2224 -0.5466  0.1259
 3484SOL    HW112052   6.822   2.098   0.463 -2.2201 -1.8412  3.3690
 3484SOL    HW212053   6.836   1.999   0.335 -0.6316  2.5525 -0.1121
 3485SOL     OW12054   1.820   6.317   5.365  0.9600 -0.3851 -0.2580
 3485SOL    HW112055   1.783   6.252   5.298 -1.2608 -0.7295  1.2058
 3485SOL    HW212056   1.892   6.272   5.418 -1.2142 -2.1264  1.4095
 3486SOL     OW12057   5.578   1.282   2.788 -0.3628  0.4242  0.3266
 3486SOL    HW112058   5.490   1.267   2.744  0.2366  0.1852 -0.8280
 3486SOL    HW212059   5.602   1.379   2.784  0.1318  0.2647 -0.7548
 3487SOL     OW12060   4.576   1.740   5.060 -0.0008  0.0257  0.0396
 3487SOL    HW112061   4.504   1.767   5.124 -0.2066  1.5085 -0.7776
 3487SOL    HW212062   4.560   1.783   4.971  1.6329  0.0071 -0.2936
 3488SOL     OW12063   4.858   5.495   6.743  0.2439 -0.1339 -0.7356
 3488SOL    HW112064   4.775   5.473   6.691  0.2178  1.3142 -1.3529
 3488SOL    HW212065   4.938   5.475   6.688  0.2641  0.0002 -0.7535
 3489SOL     OW12066   5.823   4.678   4.385 -0.1920 -0.7221  0.3459
 3489SOL    HW112067   5.855   4.727   4.466 -0.8470  0.9268 -0.3521
 3489SOL    HW212068   5.733   4.711   4.359  0.2387 -0.7918 -1.3856
 3490SOL     OW12069   0.033   0.507   2.178 -0.5436  0.0193  0.6056
 3490SOL    HW112070  -0.021   0.589   2.160  2.2613  1.5692 -1.6483
 3490SOL    HW212071   0.048   0.457   2.093 -0.8537 -1.9968  1.6724
 3491SOL     OW12072   2.161   5.337   1.500 -0.4666  0.0497 -0.4199
 3491SOL    HW112073   2.096   5.408   1.474  1.0055  2.0554  1.0794
 3491SOL    HW212074   2.194   5.354   1.593 -0.6810 -3.1260  0.3573
 3492SOL     OW12075   1.975   1.024   5.283  0.0278  0.9797 -0.1325
 3492SOL    HW112076   1.935   1.092   5.344  0.1921  2.2276 -1.3817
 3492SOL    HW212077   2.029   0.959   5.337 -2.6109 -0.0701  1.4626
 3493SOL     OW12078   0.695   5.833   3.136  0.2360  0.0153 -0.6995
 3493SOL    HW112079   0.788   5.870   3.146  0.0933  0.3686 -0.6705
 3493SOL    HW212080   0.693   5.768   3.061  0.6196 -0.3583 -0.3953
 3494SOL     OW12081   3.587   3.757   1.321 -0.5082 -0.1091 -0.6361
 3494SOL    HW112082   3.526   3.679   1.335 -1.3495  0.3035 -1.8211
 3494SOL    HW212083   3.597   3.807   1.406 -0.0781 -1.4115  0.1126
 3495SOL     OW12084   0.072   4.521   4.385  0.3881 -0.0067 -0.2314
 3495SOL    HW112085   0.151   4.582   4.379 -0.4059  1.0307 -0.3070
 3495SOL    HW212086  -0.001   4.553   4.325 -0.6501 -0.0919  0.9354
 3496SOL     OW12087   0.776   2.504   5.336  0.2720  0.0402  0.1509
 3496SOL    HW112088   0.869   2.482   5.365  0.0050  1.0487  1.8947
 3496SOL    HW212089   0.766   2.603   5.329 -1.4835  0.1486  3.0320
 3497SOL     OW12090   6.762   6.000   4.866 -0.1333 -0.5089  0.9651
 3497SOL    HW112091   6.825   6.019   4.941 -0.7137  0.0839  1.3057
 3497SOL    HW212092   6.815   5.979   4.783  0.6151  2.2798  0.6156
 3498SOL     OW12093   3.216   1.615   3.347  0.0115  0.2876  0.2323
 3498SOL    HW112094   3.289   1.654   3.292 -0.2875 -0.3844 -0.6722
 3498SOL    HW212095   3.179   1.534   3.301  0.0956 -0.6019  1.6821
 3499SOL     OW12096   2.693   6.603   5.216  0.7353 -0.0774  0.3785
 3499SOL    HW112097   2.776   6.658   5.213  0.8277 -0.2547 -0.7011
 3499SOL    HW212098   2.613   6.662   5.202  0.6624  0.1005  1.4633
 3500SOL     OW12099   0.450   2.955   3.177 -0.0539 -0.0782  0.2164
 3500SOL    HW112100   0.471   3.025   3.109 -1.3703 -1.6531 -1.9279
 3500SOL    HW212101   0.424   2.870   3.131  0.2520 -1.6405  2.7136
 3501SOL     OW12102   3.693   0.531   6.638 -0.1580  0.3575 -0.6284
 3501SOL    HW112103   3.721   0.554   6.544 -0.4487 -0.3985 -0.9091
 3501SOL    HW212104   3.597   0.556   6.651 -0.4782 -0.6687 -0.9383
 3502SOL     OW12105   6.844   1.685   0.120 -0.2168 -0.0914 -0.0954
 3502SOL    HW112106   6.831   1.588   0.140  0.9357 -0.4244 -0.8112
 3502SOL    HW212107   6.941   1.702   0.102 -0.2635  1.3826  0.9258
 3503SOL     OW12108   2.438   1.895   2.039 -0.2199  0.5584 -0.0631
 3503SOL    HW112109   2.362   1.929   2.094 -0.8142  1.1377 -1.2092
 3503SOL    HW212110   2.427   1.797   2.025 -0.6535  0.6045 -0.0671
 3504SOL     OW12111   0.473   3.848   0.504  0.2205 -0.6710 -0.4638
 3504SOL    HW112112   0.539   3.801   0.444  0.0616 -1.4245 -0.0640
 3504SOL    HW212113   0.461   3.795   0.588 -1.5212 -1.0025 -0.8805
 3505SOL     OW12114   2.490   2.014   2.582 -0.4127 -0.0253 -0.4637
 3505SOL    HW112115   2.525   2.053   2.497 -1.0696 -0.8671 -1.1429
 3505SOL    HW212116   2.403   1.968   2.564 -1.2755  0.9888  0.9540
 3506SOL     OW12117   1.074   5.680   2.642  0.1858 -0.2667 -0.5183
 3506SOL    HW112118   1.103   5.630   2.561  1.5900  0.4334 -0.4833
 3506SOL    HW212119   1.060   5.776   2.620  2.4139  0.3342  0.3813
 3507SOL     OW12120   6.890   0.448   4.003  0.1335 -0.1521 -0.4138
 3507SOL    HW112121   6.921   0.517   4.069  0.0030  0.4757 -0.9903
 3507SOL    HW212122   6.970   0.404   3.962  0.2464  0.5058 -0.9121
 3508SOL     OW12123   4.280   5.130   3.529 -0.0151  0.1426  0.2240
 3508SOL    HW112124   4.208   5.195   3.505  0.0982  0.1505 -0.0970
 3508SOL    HW212125   4.312   5.149   3.622 -1.9769 -1.2619  1.2641
 3509SOL     OW12126   2.468   2.631   0.243 -0.9469  0.1715 -0.2676
 3509SOL    HW112127   2.371   2.648   0.226 -1.0085  2.2866  1.6680
 3509SOL    HW212128   2.484   2.624   0.342  0.7205 -1.4696 -0.5886
 3510SOL     OW12129   3.716   5.386   4.233 -0.6538  0.6254 -0.5759
 3510SOL    HW112130   3.742   5.351   4.323  0.2756  1.9630 -0.2947
 3510SOL    HW212131   3.622   5.418   4.235 -1.2499 -1.0418 -0.6173
 3511SOL     OW12132   2.412   0.775   1.160 -0.3643  0.5057 -0.1166
 3511SOL    HW112133   2.449   0.828   1.236  0.6295  0.2328 -0.3967
 3511SOL    HW212134   2.312   0.785   1.158 -0.6429 -1.0793  2.4050
 3512SOL     OW12135   1.087   3.035   3.810  0.0541 -0.8964 -0.1673
 3512SOL    HW112136   1.008   3.052   3.752  0.3347 -0.0922 -0.3294
 3512SOL    HW212137   1.171   3.042   3.756  0.2623 -1.4216  0.0699
 3513SOL     OW12138   2.126   1.035   1.473  0.6642  0.4769 -0.2996
 3513SOL    HW112139   2.042   1.084   1.451  1.0143  1.2136 -0.0262
 3513SOL    HW212140   2.142   1.038   1.572 -0.4395 -2.0556  0.0196
 3514SOL     OW12141   2.941   6.701   0.590 -0.1394 -0.2306  0.2632
 3514SOL    HW112142   3.036   6.730   0.605 -0.4543  0.2695  1.3986
 3514SOL    HW212143   2.880   6.762   0.640 -1.0577 -0.6438 -0.3344
 3515SOL     OW12144   2.719   6.058   3.704 -0.7786 -0.0714 -0.2544
 3515SOL    HW112145   2.648   6.081   3.638 -2.2947 -1.2853  0.8694
 3515SOL    HW212146   2.682   5.994   3.772  1.3640 -0.6533  0.4497
 3516SOL     OW12147   1.423   3.491   5.746 -0.6263 -0.2620 -0.4526
 3516SOL    HW112148   1.405   3.446   5.833 -0.1276  1.7906  0.7687
 3516SOL    HW212149   1.400   3.588   5.753  0.8768  0.2647 -2.1342
 3517SOL     OW12150   0.199   4.424   6.144  0.0529  0.5180  0.0498
 3517SOL    HW112151   0.265   4.476   6.199  0.2317  0.3306  0.0101
 3517SOL    HW212152   0.135   4.378   6.206  1.7510 -1.7297  0.2293
 3518SOL     OW12153   2.261   0.013   2.365  0.2514  0.1351 -0.5444
 3518SOL    HW112154   2.265   0.074   2.286 -1.4718 -0.1128 -0.8540
 3518SOL    HW212155   2.291   0.063   2.446  0.2676  0.9580 -1.0362
 3519SOL     OW12156   1.719   5.125   3.970  0.1427 -0.6280 -0.3715
 3519SOL    HW112157   1.650   5.064   3.930  0.1819 -0.9590  0.0714
 3519SOL    HW212158   1.737   5.099   4.064 -1.4746  1.3975  0.5826
 3520SOL     OW12159   3.454   1.310   6.254 -0.2129 -0.0813  0.9425
 3520SOL    HW112160   3.478   1.227   6.204  1.1069  1.4292 -1.1187
 3520SOL    HW212161   3.537   1.363   6.271 -0.9849  0.6763  2.5031
 3521SOL     OW12162   6.396   1.238   1.260  0.2454 -0.2101  0.3433
 3521SOL    HW112163   6.409   1.323   1.209 -0.8446 -0.5264 -0.4966
 3521SOL    HW212164   6.307   1.240   1.306 -0.4211 -1.4445 -0.8252
 3522SOL     OW12165   1.658   3.171   2.234 -0.0665 -0.1508 -0.2987
 3522SOL    HW112166   1.684   3.211   2.147 -0.4158 -1.1722 -0.8919
 3522SOL    HW212167   1.576   3.115   2.222 -0.4376  0.1206  0.8004
 3523SOL     OW12168   0.841   3.830   4.331  0.0315  0.5099  0.3888
 3523SOL    HW112169   0.797   3.748   4.369 -1.7831  1.1361 -0.2930
 3523SOL    HW212170   0.920   3.802   4.276  1.4284 -0.5548  2.7549
 3524SOL     OW12171   0.354   5.037   6.863  0.3731  0.0048  0.8090
 3524SOL    HW112172   0.330   5.106   6.932 -1.0261  0.5748 -0.1920
 3524SOL    HW212173   0.453   5.024   6.862  0.4941  0.5789  2.3444
 3525SOL     OW12174   1.828   6.941   6.272  0.7946  0.1123 -0.2012
 3525SOL    HW112175   1.905   7.005   6.274  0.8510  0.0939 -1.2396
 3525SOL    HW212176   1.860   6.851   6.243  1.1350 -1.0425  3.3161
 3526SOL     OW12177   1.180   3.288   0.586  0.0727 -0.4829 -0.6129
 3526SOL    HW112178   1.181   3.387   0.570 -1.5141 -0.4350 -0.5283
 3526SOL    HW212179   1.202   3.270   0.682  0.1703 -0.2011 -0.5808
 3527SOL     OW12180   0.392   4.620   4.968 -0.2921 -0.0046 -0.7674
 3527SOL    HW112181   0.296   4.602   4.947 -0.4994 -0.9259  0.8067
 3527SOL    HW212182   0.401   4.712   5.007 -0.6081 -0.0614 -0.5555
 3528SOL     OW12183   1.467   2.958   4.930  0.4488 -0.5688 -0.5798
 3528SOL    HW112184   1.485   3.024   5.003 -0.5475 -0.3391 -0.5219
 3528SOL    HW212185   1.423   2.877   4.969 -0.6984 -0.1678 -0.9972
 3529SOL     OW12186   6.349   3.653   0.665 -0.1477  0.5268  0.6525
 3529SOL    HW112187   6.308   3.573   0.619  0.7027  0.8567 -0.7468
 3529SOL    HW212188   6.448   3.654   0.646  0.0353  1.2883  1.6233
 3530SOL     OW12189   3.102   4.935   3.617  0.2020 -0.6179  0.4356
 3530SOL    HW112190   3.097   4.927   3.716  2.7598  0.3696  0.7101
 3530SOL    HW212191   3.101   5.031   3.591 -2.2638 -0.8629 -0.7110
 3531SOL     OW12192   2.679   1.160   0.751 -0.6699 -0.0483  0.2603
 3531SOL    HW112193   2.657   1.204   0.838 -1.0123  0.2374  0.0318
 3531SOL    HW212194   2.674   1.227   0.677  2.6065  0.4681  0.3591
 3532SOL     OW12195   4.860   5.269   4.434  0.5161 -0.5486  0.0447
 3532SOL    HW112196   4.948   5.247   4.391  1.5157  0.3018  1.5520
 3532SOL    HW212197   4.818   5.346   4.387  2.5695  1.7102  1.6987
 3533SOL     OW12198   3.629   6.422   6.560 -0.4853  0.6110 -0.3509
 3533SOL    HW112199   3.699   6.368   6.608 -0.5413 -0.0799 -1.0401
 3533SOL    HW212200   3.673   6.477   6.489 -0.7082 -0.3131 -1.2181
 3534SOL     OW12201   6.946   0.885   5.411 -0.3387 -0.2953 -0.7517
 3534SOL    HW112202   6.921   0.792   5.382 -2.1818  0.4920 -1.8838
 3534SOL    HW212203   7.041   0.904   5.384  0.1971 -1.9594 -0.1497
 3535SOL     OW12204   4.131   5.446   3.244 -0.0998  0.6908  0.4304
 3535SOL    HW112205   4.103   5.521   3.304  1.1256  1.3741  0.1753
 3535SOL    HW212206   4.198   5.479   3.177 -1.1891 -0.1276 -1.1281
 3536SOL     OW12207   1.296   1.903   0.172 -0.1022 -0.0188 -0.3200
 3536SOL    HW112208   1.225   1.858   0.225  0.6865 -0.9697 -0.0331
 3536SOL    HW212209   1.256   1.947   0.092 -1.6030  2.9466  1.8683
 3537SOL     OW12210   2.759   2.155   5.689 -0.2347 -0.5149  0.1120
 3537SOL    HW112211   2.772   2.144   5.787 -0.4337 -0.6979  0.1178
 3537SOL    HW212212   2.663   2.142   5.666 -0.2826  0.0634 -0.0355
 3538SOL     OW12213   3.587   4.849   6.058  0.0187  0.6133  0.4202
 3538SOL    HW112214   3.667   4.814   6.108  0.5430  1.6297  0.3322
 3538SOL    HW212215   3.508   4.791   6.076  1.0019 -1.0046 -0.2686
 3539SOL     OW12216   0.659   3.580   5.939  0.6222  0.5337  0.0852
 3539SOL    HW112217   0.620   3.553   6.027 -1.7349  0.0417 -1.0267
 3539SOL    HW212218   0.601   3.648   5.896  0.7374 -0.5261 -1.8594
 3540SOL     OW12219   0.886   4.788   5.219 -0.2800 -0.5360 -0.0187
 3540SOL    HW112220   0.868   4.866   5.279  1.7691 -0.8044  1.0354
 3540SOL    HW212221   0.806   4.727   5.219 -0.8556  0.1565  1.3734
 3541SOL     OW12222   0.619   4.849   6.640 -0.6914 -0.7514 -0.1749
 3541SOL    HW112223   0.705   4.869   6.591 -2.1165  2.7753 -1.5861
 3541SOL    HW212224   0.634   4.854   6.738  0.9277 -1.4046 -0.3604
 3542SOL     OW12225   3.177   3.107   5.921 -0.6490 -0.0777  0.6385
 3542SOL    HW112226   3.114   3.135   5.993 -0.8581 -3.3975  1.8991
 3542SOL    HW212227   3.271   3.109   5.956 -0.5515  0.1031  0.3725
 3543SOL     OW12228   2.017   1.784   2.151  0.1257  0.2294  0.0508
 3543SOL    HW112229   2.072   1.849   2.099  1.3323 -0.5113  0.3754
 3543SOL    HW212230   2.021   1.694   2.107  0.9835 -0.3544  1.2725
 3544SOL     OW12231   3.644   3.085   1.416 -0.5287  0.3725 -0.1211
 3544SOL    HW112232   3.595   3.172   1.417 -0.7433  0.3047 -2.0555
 3544SOL    HW212233   3.681   3.067   1.325 -0.8697 -1.7772  0.0949
 3545SOL     OW12234   3.305   0.171   0.205 -0.5879  0.1807  0.1519
 3545SOL    HW112235   3.312   0.160   0.304 -0.8609 -1.4034  0.0292
 3545SOL    HW212236   3.216   0.211   0.182 -0.9847 -0.4832  0.5010
 3546SOL     OW12237   6.879   1.800   1.350 -0.0737  0.1310  0.1570
 3546SOL    HW112238   6.868   1.899   1.353 -1.4769  0.0854 -1.7521
 3546SOL    HW212239   6.892   1.770   1.255 -0.8545 -1.6146  0.5563
 3547SOL     OW12240   5.586   6.381   4.941  0.9226  0.0153  0.1305
 3547SOL    HW112241   5.685   6.381   4.957  0.7633 -0.5560  1.2101
 3547SOL    HW212242   5.568   6.397   4.844  2.0674  0.2369 -0.0595
 3548SOL     OW12243   6.114   1.091   6.096  0.1084 -0.0665  0.0004
 3548SOL    HW112244   6.085   1.185   6.115 -0.5264 -0.2432 -0.0496
 3548SOL    HW212245   6.204   1.091   6.054 -0.5546  0.6213 -1.4604
 3549SOL     OW12246   2.622   5.511   3.985  0.0842 -0.1105 -0.3243
 3549SOL    HW112247   2.570   5.535   3.903  1.7092 -2.2306 -2.1055
 3549SOL    HW212248   2.610   5.582   4.054 -1.8270  1.4797 -2.1605
 3550SOL     OW12249   5.255   4.782   5.029  0.2946  0.1875 -0.3441
 3550SOL    HW112250   5.200   4.820   5.104  1.0258  0.3199  0.1398
 3550SOL    HW212251   5.207   4.705   4.988 -1.1926  1.5515 -1.2894
 3551SOL     OW12252   6.116   4.261   2.990  0.5525 -0.3087  0.1346
 3551SOL    HW112253   6.136   4.324   2.916  2.0791 -0.2107  0.6045
 3551SOL    HW212254   6.199   4.244   3.044 -0.2261 -1.3576  1.0633
 3552SOL     OW12255   1.728   0.583   6.351 -0.6023  0.5739  0.9264
 3552SOL    HW112256   1.737   0.485   6.369 -1.5505  0.2075 -0.4239
 3552SOL    HW212257   1.818   0.623   6.337 -0.2602 -0.3060  0.5594
 3553SOL     OW12258   0.890   6.899   6.068 -0.2694  0.7878 -0.1410
 3553SOL    HW112259   0.862   6.931   5.978 -1.3786  1.8137  0.5465
 3553SOL    HW212260   0.971   6.950   6.098 -1.0334  1.7974  0.2392
 3554SOL     OW12261   5.055   0.418   3.744  0.1937 -0.2876 -0.0299
 3554SOL    HW112262   5.099   0.386   3.659  0.6142  2.9643 -1.1768
 3554SOL    HW212263   5.126   0.446   3.809 -0.1628 -1.6753  1.0116
 3555SOL     OW12264   0.185   5.002   0.731  0.1896 -0.3957 -0.0794
 3555SOL    HW112265   0.269   4.992   0.785 -0.9949 -1.0869  1.7117
 3555SOL    HW212266   0.166   4.916   0.684  0.9590  0.0576 -1.2773
 3556SOL     OW12267   2.034   0.525   3.554  0.0254  0.1735 -0.0731
 3556SOL    HW112268   1.953   0.533   3.611  0.4866  0.3938  0.5610
 3556SOL    HW212269   2.015   0.463   3.477  0.2943 -2.6566  1.9912
 3557SOL     OW12270   5.356   3.745   0.998  0.0180  0.2285  0.0284
 3557SOL    HW112271   5.431   3.682   1.020  0.0066 -0.5378 -1.8925
 3557SOL    HW212272   5.290   3.746   1.073  1.3000 -0.0585  1.2042
 3558SOL     OW12273   0.446   3.948   5.247 -0.1469  0.1790  0.0690
 3558SOL    HW112274   0.351   3.916   5.254  0.4230 -1.5949  0.1554
 3558SOL    HW212275   0.489   3.945   5.337  0.3257 -0.1930 -0.1618
 3559SOL     OW12276   3.570   6.746   5.887  0.1625  0.1016 -0.8122
 3559SOL    HW112277   3.648   6.783   5.936 -1.0207  0.1259  1.1377
 3559SOL    HW212278   3.599   6.666   5.834  1.4652 -0.0302  0.0588
 3560SOL     OW12279   3.620   5.928   1.000  0.2482 -0.3499  0.0404
 3560SOL    HW112280   3.559   5.987   1.053  0.3434 -0.2718  0.0630
 3560SOL    HW212281   3.697   5.981   0.966  1.3063 -0.8376  1.5889
 3561SOL     OW12282   3.738   6.024   4.036  0.0042  0.1670 -0.2730
 3561SOL    HW112283   3.653   6.031   4.088  0.7381  0.4674  0.9419
 3561SOL    HW212284   3.718   6.001   3.941 -1.3684 -1.0274  0.2630
 3562SOL     OW12285   4.774   3.892   3.015 -0.2961 -0.2940  0.3733
 3562SOL    HW112286   4.838   3.929   3.082 -1.4727 -0.6166  1.7259
 3562SOL    HW212287   4.684   3.935   3.027 -0.8023 -1.1378 -0.2702
 3563SOL     OW12288   5.251   5.593   3.425  0.4548 -0.0365  0.6033
 3563SOL    HW112289   5.254   5.646   3.340 -0.9053 -2.4947 -1.0937
 3563SOL    HW212290   5.159   5.593   3.462 -0.0931 -2.5857 -0.4941
 3564SOL     OW12291   0.193   1.155   1.830 -0.5234 -0.3116  0.6833
 3564SOL    HW112292   0.129   1.177   1.904 -1.0013 -1.8544  0.7640
 3564SOL    HW212293   0.285   1.144   1.868 -0.8764 -1.7453  1.2055
 3565SOL     OW12294   3.211   6.291   5.649 -0.0224  0.1574 -0.2140
 3565SOL    HW112295   3.220   6.321   5.554 -1.3400  1.9117  0.1508
 3565SOL    HW212296   3.278   6.339   5.705 -0.4252  0.4887 -0.0088
 3566SOL     OW12297   1.551   6.641   2.723  0.1568  0.2380  0.1619
 3566SOL    HW112298   1.511   6.701   2.792 -0.1893  0.1041  0.0767
 3566SOL    HW212299   1.588   6.696   2.648  1.3644  0.4461  0.8746
 3567SOL     OW12300   2.679   0.630   2.624 -0.0165  0.2232 -0.1198
 3567SOL    HW112301   2.730   0.690   2.563  2.2290 -0.0355  1.3833
 3567SOL    HW212302   2.655   0.680   2.707  0.6617 -0.5217  0.5478
 3568SOL     OW12303   5.608   3.956   4.082  0.2050 -0.2379  0.0432
 3568SOL    HW112304   5.523   3.997   4.049 -1.5073 -1.3070  2.8255
 3568SOL    HW212305   5.598   3.857   4.088  1.1731 -0.2713  1.6023
 3569SOL     OW12306   0.674   2.105   1.881  0.4370  0.3497 -0.6723
 3569SOL    HW112307   0.772   2.084   1.877  0.2010 -1.3913  1.0867
 3569SOL    HW212308   0.625   2.045   1.817  0.3227 -0.2846  0.0072
 3570SOL     OW12309   2.344   6.966   2.716 -0.2675  0.1924 -0.6741
 3570SOL    HW112310   2.406   7.016   2.655 -0.8022  0.7456 -0.7749
 3570SOL    HW212311   2.343   6.869   2.691 -0.0104  0.3107 -1.1445
 3571SOL     OW12312   1.473   6.707   5.051  0.4660  1.0045 -0.3223
 3571SOL    HW112313   1.459   6.692   4.953 -0.9460  1.2027 -0.1654
 3571SOL    HW212314   1.395   6.758   5.089  0.4593 -0.0155  1.1215
 3572SOL     OW12315   2.118   5.085   4.523 -0.3413  0.1934 -0.5905
 3572SOL    HW112316   2.073   5.174   4.520  1.2204  1.0841  0.8480
 3572SOL    HW212317   2.160   5.071   4.612  1.2635 -1.0843 -1.4784
 3573SOL     OW12318   3.554   2.810   5.496 -0.1926  0.0017  0.0039
 3573SOL    HW112319   3.580   2.885   5.436 -1.1615  0.2540 -0.1116
 3573SOL    HW212320   3.569   2.836   5.591  0.5502 -0.0901 -0.0797
 3574SOL     OW12321   0.217   1.689   0.320 -0.2113 -0.5831  0.2096
 3574SOL    HW112322   0.299   1.725   0.365 -0.0493 -0.3199 -0.2977
 3574SOL    HW212323   0.161   1.640   0.387 -1.2160  1.8745  1.2806
 3575SOL     OW12324   2.189   0.272   2.994 -0.4433  0.5827 -0.0576
 3575SOL    HW112325   2.152   0.218   2.918 -1.8549  0.7165  0.5075
 3575SOL    HW212326   2.217   0.211   3.068  1.5946  0.4018 -0.9214
 3576SOL     OW12327   4.926   5.473   0.114  0.0337 -0.9149  0.1762
 3576SOL    HW112328   4.843   5.526   0.101  1.0534  0.8194  0.4290
 3576SOL    HW212329   4.928   5.396   0.050 -1.1019 -0.1630 -0.7807
 3577SOL     OW12330   6.453   6.606   3.242  0.3578 -0.0848 -0.2116
 3577SOL    HW112331   6.431   6.625   3.338  1.0115 -1.4830  0.2360
 3577SOL    HW212332   6.369   6.588   3.191 -0.1620  2.2938 -0.3247
 3578SOL     OW12333   6.637   2.818   3.052 -0.7318  0.2969 -0.5512
 3578SOL    HW112334   6.556   2.768   3.082 -1.4149  0.3018 -2.2827
 3578SOL    HW212335   6.714   2.755   3.043 -0.8041  0.1069  0.0648
 3579SOL     OW12336   3.815   6.782   2.644  0.0172  0.1483  0.5809
 3579SOL    HW112337   3.863   6.698   2.617 -0.4695 -0.3703  1.3064
 3579SOL    HW212338   3.872   6.834   2.708  0.2011  0.2402  0.3455
 3580SOL     OW12339   1.617   3.514   4.192  0.1908 -0.0360 -0.1077
 3580SOL    HW112340   1.700   3.508   4.136  0.1203 -2.7741 -0.0086
 3580SOL    HW212341   1.537   3.493   4.137 -0.0876 -0.7522  0.5624
 3581SOL     OW12342   3.388   4.799   0.954  0.4815  0.5850 -0.3382
 3581SOL    HW112343   3.440   4.865   1.007 -1.0652  0.9539  0.7891
 3581SOL    HW212344   3.450   4.741   0.902  1.9189  2.9522 -1.4488
 3582SOL     OW12345   6.644   2.316   2.618  0.3199  0.4915  0.0335
 3582SOL    HW112346   6.628   2.239   2.557  0.4682  0.0345  0.5614
 3582SOL    HW212347   6.573   2.318   2.689  0.7740  0.3598  0.4946
 3583SOL     OW12348   6.537   2.603   1.285 -0.4883 -0.2764  0.0245
 3583SOL    HW112349   6.634   2.618   1.266  0.2839  1.6944  4.4028
 3583SOL    HW212350   6.513   2.509   1.259  2.9774 -1.3410  0.1012
 3584SOL     OW12351   0.847   5.357   3.465  0.1720  0.0019  0.1823
 3584SOL    HW112352   0.862   5.276   3.409  0.3531 -1.0866  1.7366
 3584SOL    HW212353   0.818   5.433   3.407  3.9642  0.0714 -1.9685
 3585SOL     OW12354   4.238   1.608   2.737 -0.1166  0.1285 -0.2622
 3585SOL    HW112355   4.330   1.572   2.720  0.1516  1.2791 -1.4078
 3585SOL    HW212356   4.172   1.532   2.740  0.4803 -0.5204 -2.1952
 3586SOL     OW12357   6.101   1.826   5.494 -0.3542 -0.0135  0.1551
 3586SOL    HW112358   6.070   1.910   5.449 -0.8982 -0.9912 -1.3881
 3586SOL    HW212359   6.024   1.764   5.506  0.4516 -1.3375 -1.1374
 3587SOL     OW12360   3.969   2.348   6.381 -0.4819  0.3157 -0.1863
 3587SOL    HW112361   3.876   2.351   6.418 -1.4494  0.8419 -2.4697
 3587SOL    HW212362   3.976   2.412   6.304  1.7013  0.0705 -0.2417
 3588SOL     OW12363   3.677   5.367   5.210 -0.1926  0.0685 -0.2901
 3588SOL    HW112364   3.698   5.427   5.287  0.5636 -0.3459 -0.1595
 3588SOL    HW212365   3.579   5.351   5.205 -0.3322  0.7691  0.0769
 3589SOL     OW12366   2.175   5.340   3.829  0.2377  0.2976  0.4594
 3589SOL    HW112367   2.214   5.251   3.852  0.4510 -0.5886 -2.7718
 3589SOL    HW212368   2.091   5.355   3.881  0.3634 -1.6653  1.2905
 3590SOL     OW12369   3.113   6.751   0.316  0.3857  0.5500 -0.6745
 3590SOL    HW112370   3.156   6.662   0.302  0.3742  0.3844  0.2750
 3590SOL    HW212371   3.014   6.740   0.326  0.3871  0.6578 -0.5244
 3591SOL     OW12372   2.271   4.966   3.472  0.1114 -0.4018  0.0902
 3591SOL    HW112373   2.287   4.994   3.377  0.0133  0.2310  0.2583
 3591SOL    HW212374   2.358   4.966   3.521  0.0317  0.1626  0.2360
 3592SOL     OW12375   1.919   4.366   4.583  0.3296 -0.6382 -0.3978
 3592SOL    HW112376   1.882   4.419   4.507  1.0411 -1.1143 -1.0997
 3592SOL    HW212377   1.846   4.345   4.648 -0.5849 -1.3386 -1.6112
 3593SOL     OW12378   2.298   6.352   1.398  0.1341 -0.5452 -0.2604
 3593SOL    HW112379   2.300   6.452   1.390 -0.3659 -0.6479 -2.2772
 3593SOL    HW212380   2.253   6.326   1.484 -0.8371  0.9589 -0.2769
 3594SOL     OW12381   1.729   2.107   3.871  0.5197  0.3761  0.0435
 3594SOL    HW112382   1.738   2.012   3.842 -2.7528  0.1053 -0.3692
 3594SOL    HW212383   1.774   2.119   3.960  0.4280 -1.7271  0.4221
 3595SOL     OW12384   4.790   4.841   3.958  0.7236 -0.3437 -0.6209
 3595SOL    HW112385   4.754   4.757   3.917  1.6686 -0.4384 -1.2893
 3595SOL    HW212386   4.714   4.899   3.988  0.0439 -1.0140 -1.0196
 3596SOL     OW12387   4.890   0.845   0.997 -0.1718 -0.0952 -0.3975
 3596SOL    HW112388   4.876   0.799   1.085  0.6404 -2.4990 -1.4412
 3596SOL    HW212389   4.985   0.873   0.988 -0.7683  2.4736  0.4615
 3597SOL     OW12390   2.091   4.880   3.060  0.4010 -0.3244 -0.3944
 3597SOL    HW112391   2.058   4.930   2.979  1.8526  1.1560 -0.1346
 3597SOL    HW212392   2.044   4.792   3.066 -3.9794  1.7740  0.3080
 3598SOL     OW12393   0.758   4.712   1.058 -0.0477  0.2628 -0.1519
 3598SOL    HW112394   0.709   4.697   0.972  0.9021  0.2237 -0.7027
 3598SOL    HW212395   0.816   4.632   1.076 -0.0055  0.4122  0.3625
 3599SOL     OW12396   2.316   6.686   3.241 -0.5231  0.0595 -0.0806
 3599SOL    HW112397   2.304   6.633   3.325  0.5082 -0.8187 -0.4694
 3599SOL    HW212398   2.365   6.770   3.262 -0.3832 -0.0948  0.2110
 3600SOL     OW12399   6.702   5.969   0.059  0.0503  0.7299  0.3126
 3600SOL    HW112400   6.708   5.959   0.158 -1.2001 -0.4214  0.2970
 3600SOL    HW212401   6.632   5.908   0.023  0.0059  1.6190 -1.2147
 3601SOL     OW12402   1.024   3.564   4.889  0.7019 -0.2501 -0.0855
 3601SOL    HW112403   0.927   3.542   4.904  0.6645  0.5466  0.9777
 3601SOL    HW212404   1.045   3.652   4.933  2.5997 -1.7848  2.3495
 3602SOL     OW12405   3.693   6.031   2.039  0.5332  0.3729 -0.6196
 3602SOL    HW112406   3.643   6.117   2.031  0.9975  0.6447 -0.6553
 3602SOL    HW212407   3.779   6.047   2.087  0.7849 -0.0020 -0.9336
 3603SOL     OW12408   6.854   2.779   1.492 -0.2927 -0.4273 -0.1301
 3603SOL    HW112409   6.786   2.843   1.527 -0.3190 -1.3462  1.5925
 3603SOL    HW212410   6.927   2.830   1.445 -1.3651  0.6724 -0.6801
 3604SOL     OW12411   0.659   0.749   5.525 -1.0539  0.0405 -0.4171
 3604SOL    HW112412   0.571   0.729   5.566 -0.8530 -1.6611 -0.7536
 3604SOL    HW212413   0.664   0.710   5.433  0.3594 -0.6719 -0.0700
 3605SOL     OW12414   4.490   4.859   0.075 -0.0017 -0.2742  0.5899
 3605SOL    HW112415   4.424   4.846   0.001  1.6571 -1.2575 -0.7913
 3605SOL    HW212416   4.568   4.798   0.061  1.7454  1.6266  1.5084
 3606SOL     OW12417   4.167   6.338   2.481 -0.1066  0.4513 -0.2576
 3606SOL    HW112418   4.152   6.362   2.577 -0.1949  1.2182 -0.4526
 3606SOL    HW212419   4.221   6.410   2.437  1.0102 -0.4907 -0.4800
 3607SOL     OW12420   3.671   5.577   0.229 -0.0786  0.1651 -0.4987
 3607SOL    HW112421   3.579   5.572   0.189 -0.2487  0.6298 -0.1767
 3607SOL    HW212422   3.664   5.571   0.328  0.2701 -0.1121 -0.4906
 3608SOL     OW12423   4.751   4.253   1.524 -0.1405 -0.0423 -0.6221
 3608SOL    HW112424   4.690   4.268   1.446  1.8079  1.7542 -1.8976
 3608SOL    HW212425   4.734   4.323   1.594 -1.6560 -1.4561  0.5253
 3609SOL     OW12426   4.391   2.176   3.051 -0.1179 -0.1281  0.9205
 3609SOL    HW112427   4.393   2.174   3.151 -1.4013 -0.3241  0.9558
 3609SOL    HW212428   4.298   2.192   3.020  0.2503 -0.1913 -0.2545
 3610SOL     OW12429   4.332   0.266   2.874 -0.2978  0.6392 -0.7291
 3610SOL    HW112430   4.430   0.282   2.860 -0.1218  0.0525 -0.1625
 3610SOL    HW212431   4.298   0.203   2.804 -0.0518  0.0372 -0.3060
 3611SOL     OW12432   1.098   6.398   0.550 -0.0261  0.5756  0.2474
 3611SOL    HW112433   1.132   6.439   0.465  1.2209  1.6067  1.2026
 3611SOL    HW212434   1.161   6.419   0.625 -0.3815 -1.4723  1.1848
 3612SOL     OW12435   6.526   6.457   4.061 -0.2490  0.1445 -0.5495
 3612SOL    HW112436   6.546   6.486   3.967 -1.2947 -0.2387 -0.9064
 3612SOL    HW212437   6.502   6.360   4.062  2.1463 -0.5076  0.4885
 3613SOL     OW12438   6.582   1.748   0.148  0.0954  0.2686  0.1306
 3613SOL    HW112439   6.620   1.840   0.135  0.7575 -0.1635 -1.1925
 3613SOL    HW212440   6.657   1.682   0.156 -0.3631 -0.3030 -0.1862
 3614SOL     OW12441   0.248   6.951   1.707  0.2745  0.0249  0.0729
 3614SOL    HW112442   0.227   6.857   1.679 -1.2366  1.4835 -4.5587
 3614SOL    HW212443   0.166   6.994   1.745  0.2584  0.1765 -0.1304
 3615SOL     OW12444   6.815   5.190   4.774  0.2180  0.8134 -0.0364
 3615SOL    HW112445   6.856   5.163   4.686  2.6314  1.3024  0.8535
 3615SOL    HW212446   6.804   5.110   4.832 -0.5150  0.6220 -0.4261
 3616SOL     OW12447   3.367   4.250   6.723  0.5884 -0.0046 -0.2461
 3616SOL    HW112448   3.451   4.222   6.770  0.8944 -0.3012 -0.9651
 3616SOL    HW212449   3.320   4.169   6.688  1.7277  0.3466 -2.7740
 3617SOL     OW12450   0.720   3.733   5.458 -0.3343 -0.1214 -0.5504
 3617SOL    HW112451   0.801   3.792   5.466 -0.5090 -0.0921  1.6795
 3617SOL    HW212452   0.746   3.638   5.475 -0.7681 -0.0866  0.3769
 3618SOL     OW12453   5.211   3.100   1.913 -0.8082 -1.2181  0.1782
 3618SOL    HW112454   5.192   3.105   1.815  0.3080  1.8939 -0.0018
 3618SOL    HW212455   5.136   3.142   1.964  0.1841  0.5023  0.3090
 3619SOL     OW12456   3.302   5.042   1.425 -0.2897 -0.4372 -0.2157
 3619SOL    HW112457   3.270   5.132   1.397 -0.9357 -0.6845 -0.3036
 3619SOL    HW212458   3.242   4.972   1.385 -0.8799 -0.8297  1.2920
 3620SOL     OW12459   3.104   3.561   0.952  0.5027 -0.4017 -0.5336
 3620SOL    HW112460   3.081   3.528   1.043  0.9572  0.7669  0.0194
 3620SOL    HW212461   3.103   3.484   0.888  0.1637 -1.2335  0.4417
 3621SOL     OW12462   2.731   0.518   3.021  0.6697 -0.3705 -0.4723
 3621SOL    HW112463   2.669   0.439   3.016 -0.5540  0.5937 -1.3079
 3621SOL    HW212464   2.752   0.538   3.117 -2.4894  0.8420  0.0940
 3622SOL     OW12465   4.332   0.617   3.464 -0.1375 -0.1403 -0.3684
 3622SOL    HW112466   4.260   0.655   3.522  0.4263  0.0185  0.2567
 3622SOL    HW212467   4.299   0.607   3.371 -0.0736  2.7060 -0.7911
 3623SOL     OW12468   5.872   1.243   3.788  0.1646  0.1155 -0.1904
 3623SOL    HW112469   5.934   1.183   3.838 -0.9037 -1.5465 -0.7634
 3623SOL    HW212470   5.830   1.192   3.713 -2.0387  1.0893  0.3008
 3624SOL     OW12471   3.923   1.265   5.574 -0.1812  0.0589  0.0773
 3624SOL    HW112472   3.931   1.297   5.669 -2.5583 -1.2009  0.7789
 3624SOL    HW212473   4.005   1.213   5.550  1.1120  1.6298  0.9028
 3625SOL     OW12474   5.152   6.689   3.366 -0.1341  0.1684 -0.0645
 3625SOL    HW112475   5.064   6.649   3.393  0.0502  0.4713  1.0278
 3625SOL    HW212476   5.204   6.714   3.448  1.0762 -0.2157 -0.6885
 3626SOL     OW12477   0.988   4.726   5.513  0.1924  0.3950  0.4392
 3626SOL    HW112478   1.044   4.661   5.461 -0.2304  1.2288 -1.1413
 3626SOL    HW212479   1.001   4.818   5.477 -0.0278  1.0486  1.9468
 3627SOL     OW12480   6.438   1.496   6.768  0.1447 -0.7552  0.4424
 3627SOL    HW112481   6.405   1.577   6.817 -0.0038  0.2697 -1.2643
 3627SOL    HW212482   6.509   1.451   6.823 -0.0325  0.3043  1.6007
 3628SOL     OW12483   1.632   2.630   6.293 -0.2976 -0.9046  0.3070
 3628SOL    HW112484   1.560   2.693   6.322 -1.4642 -2.3396  0.6580
 3628SOL    HW212485   1.655   2.648   6.197  0.1523  0.7087  0.6866
 3629SOL     OW12486   3.080   4.816   2.469  0.6756 -0.2447  0.4018
 3629SOL    HW112487   3.105   4.913   2.469  1.2633 -0.3902  0.6756
 3629SOL    HW212488   3.090   4.778   2.561  0.6291 -0.6105  0.2604
 3630SOL     OW12489   1.525   5.988   6.458  0.3018  0.2209  0.1110
 3630SOL    HW112490   1.461   5.919   6.491  0.4157  0.1901  0.2664
 3630SOL    HW212491   1.522   5.990   6.358 -1.3829  1.5825  0.1438
 3631SOL     OW12492   5.857   2.042   2.555 -0.0815 -0.3408 -0.5042
 3631SOL    HW112493   5.845   2.053   2.654  0.5881 -0.3723 -0.4135
 3631SOL    HW212494   5.951   2.014   2.536  0.0468  0.5151 -1.2144
 3632SOL     OW12495   1.111   1.043   6.043  0.9589  0.7598 -0.0223
 3632SOL    HW112496   1.135   0.949   6.022  0.7138  0.9671 -1.3522
 3632SOL    HW212497   1.167   1.105   5.988  0.4393  1.3527  0.1001
 3633SOL     OW12498   4.926   1.972   6.678 -0.0386 -0.2110 -0.4319
 3633SOL    HW112499   5.014   1.935   6.706  0.7868  1.5439 -0.5577
 3633SOL    HW212500   4.926   2.071   6.691 -1.6210 -0.0469 -1.4257
 3634SOL     OW12501   5.091   2.952   0.463  0.0238  0.4694  0.3014
 3634SOL    HW112502   5.017   2.996   0.412  0.9203  0.9412 -0.6290
 3634SOL    HW212503   5.158   2.914   0.399  1.9484  2.3767  1.0223
 3635SOL     OW12504   4.888   4.637   1.508  0.3358  0.1020 -0.0085
 3635SOL    HW112505   4.850   4.547   1.528  1.4912 -0.1698  1.0727
 3635SOL    HW212506   4.898   4.689   1.592  1.7501  0.3875 -0.3255
 3636SOL     OW12507   5.868   2.130   4.817 -0.6433 -0.4214 -0.2470
 3636SOL    HW112508   5.776   2.133   4.779 -1.2168 -0.9313  1.0327
 3636SOL    HW212509   5.914   2.218   4.801 -1.3351 -0.1767 -0.9253
 3637SOL     OW12510   5.784   4.738   1.670  0.0476 -0.4199 -0.1978
 3637SOL    HW112511   5.759   4.833   1.651  1.3910 -0.4033 -2.3073
 3637SOL    HW212512   5.865   4.736   1.729 -2.0168 -0.3987  2.8279
 3638SOL     OW12513   0.210   3.144   5.796 -0.0895  0.4141 -0.1466
 3638SOL    HW112514   0.241   3.053   5.822 -0.1359  0.9690  1.9808
 3638SOL    HW212515   0.225   3.208   5.871 -1.2618  1.9004 -1.1049
 3639SOL     OW12516   2.077   3.990   2.149 -0.1293  0.1660  0.4319
 3639SOL    HW112517   2.045   3.940   2.229 -3.5748  0.0584 -0.8401
 3639SOL    HW212518   2.027   4.076   2.140  0.4840  0.3895 -1.3537
 3640SOL     OW12519   5.746   6.645   5.242 -0.6220  0.5109  0.2086
 3640SOL    HW112520   5.806   6.596   5.305 -2.2342 -4.7903 -1.8114
 3640SOL    HW212521   5.665   6.677   5.292  1.1235  2.7381  1.8612
 3641SOL     OW12522   0.622   2.547   3.918 -0.4979 -0.1291  0.0981
 3641SOL    HW112523   0.705   2.596   3.891 -1.1423  1.0204  0.1535
 3641SOL    HW212524   0.635   2.508   4.009 -0.0955  0.2336  0.1999
 3642SOL     OW12525   5.999   5.402   1.119  0.1428  0.5726  0.2995
 3642SOL    HW112526   5.994   5.362   1.211 -0.8355 -0.2551 -0.1001
 3642SOL    HW212527   6.038   5.335   1.056  0.0996  0.8644 -0.0381
 3643SOL     OW12528   2.826   0.457   0.159  0.0447  0.1884  0.7260
 3643SOL    HW112529   2.776   0.401   0.226 -1.3402  0.5110  0.0079
 3643SOL    HW212530   2.782   0.546   0.151  1.3428  0.8549  0.7637
 3644SOL     OW12531   0.751   0.764   4.602  0.1233  0.0920 -0.0865
 3644SOL    HW112532   0.724   0.847   4.650 -1.2385 -0.1691 -0.3712
 3644SOL    HW212533   0.677   0.734   4.542  1.1215 -0.5688 -1.0345
 3645SOL     OW12534   3.192   2.028   5.782 -0.1062  0.1134  0.2097
 3645SOL    HW112535   3.267   2.065   5.838 -1.1433  0.8075  1.1795
 3645SOL    HW212536   3.157   2.100   5.722 -0.0299 -0.2068 -0.2272
 3646SOL     OW12537   6.698   2.001   3.261 -0.0586 -0.4799  0.0184
 3646SOL    HW112538   6.771   2.064   3.287  0.0698 -1.3861  2.0071
 3646SOL    HW212539   6.738   1.920   3.218  0.0407 -0.6494  0.4321
 3647SOL     OW12540   6.324   6.385   1.721  0.3777 -0.5620 -0.8040
 3647SOL    HW112541   6.374   6.312   1.768  0.0804 -1.3049 -1.6110
 3647SOL    HW212542   6.281   6.445   1.789  2.2331  0.0273 -0.0832
 3648SOL     OW12543   1.198   3.127   5.667  0.0776 -0.0657  0.6008
 3648SOL    HW112544   1.231   3.205   5.614 -1.1106  0.0562  0.0038
 3648SOL    HW212545   1.268   3.056   5.670  1.1450  0.9635  1.0695
 3649SOL     OW12546   2.134   0.953   6.292 -0.3499  0.5947  0.0447
 3649SOL    HW112547   2.231   0.945   6.312 -0.2040  0.7599 -0.5733
 3649SOL    HW212548   2.098   1.036   6.336  0.1200  1.3330 -0.9273
 3650SOL     OW12549   4.071   2.167   2.100 -0.1396  0.5066  0.1953
 3650SOL    HW112550   4.074   2.206   2.192 -0.8245  1.0782 -0.0167
 3650SOL    HW212551   3.981   2.128   2.083  1.1562 -3.3565  1.2418
 3651SOL     OW12552   4.893   0.470   4.567 -0.1365  0.0404 -0.1521
 3651SOL    HW112553   4.854   0.544   4.623 -3.2114  0.1697 -2.2403
 3651SOL    HW212554   4.992   0.485   4.556 -0.6008  3.8298 -0.4278
 3652SOL     OW12555   5.393   4.673   4.084  0.0391 -0.2173  0.1661
 3652SOL    HW112556   5.296   4.698   4.090  0.1709  0.5742 -0.7108
 3652SOL    HW212557   5.445   4.724   4.153  0.5145  3.2802 -2.4827
 3653SOL     OW12558   1.316   6.674   6.624 -0.7088  0.3402  0.1031
 3653SOL    HW112559   1.245   6.608   6.648  0.7656 -0.5243  2.6196
 3653SOL    HW212560   1.308   6.754   6.683 -1.1480  1.4590 -1.4239
 3654SOL     OW12561   2.212   1.415   0.503 -0.7085 -0.3489 -0.0260
 3654SOL    HW112562   2.192   1.327   0.546  0.2333  1.0641  3.7808
 3654SOL    HW212563   2.129   1.450   0.459 -1.7503 -2.0513  0.4580
 3655SOL     OW12564   1.989   1.142   3.242 -0.0306 -0.3694 -0.0384
 3655SOL    HW112565   2.023   1.175   3.154 -0.8679 -0.7492 -0.5134
 3655SOL    HW212566   2.064   1.101   3.294  0.8063  1.2563  0.0987
 3656SOL     OW12567   0.917   3.189   2.344 -0.2581  0.3117 -0.0663
 3656SOL    HW112568   0.904   3.261   2.412 -0.1449 -0.5286  0.8614
 3656SOL    HW212569   0.830   3.142   2.328 -0.1569  0.1248 -0.0652
 3657SOL     OW12570   5.772   5.632   0.266 -0.1934 -0.6362 -0.4263
 3657SOL    HW112571   5.794   5.675   0.178 -1.0203  0.2551 -0.2225
 3657SOL    HW212572   5.841   5.658   0.333 -1.4140  1.6522  0.0639
 3658SOL     OW12573   2.381   6.904   0.471  0.0200  0.1711  0.3726
 3658SOL    HW112574   2.292   6.868   0.446  0.3751 -0.2277 -0.3670
 3658SOL    HW212575   2.446   6.829   0.484  0.6700  0.4892 -0.8227
 3659SOL     OW12576   2.576   0.418   4.995  0.0386  0.3432  0.2245
 3659SOL    HW112577   2.644   0.345   4.988  0.9285  1.1156  0.5298
 3659SOL    HW212578   2.589   0.466   5.082 -2.4587 -0.9923  1.4537
 3660SOL     OW12579   1.069   6.984   4.686 -0.2813 -0.2436  0.5021
 3660SOL    HW112580   1.130   6.907   4.667 -0.2833  0.2973 -2.0638
 3660SOL    HW212581   1.023   7.011   4.601 -1.5431  1.5209  1.6973
 3661SOL     OW12582   1.998   3.133   6.270  0.0131  0.1433 -0.1712
 3661SOL    HW112583   1.905   3.107   6.297 -0.1220  2.3101  1.7446
 3661SOL    HW212584   2.050   3.051   6.248 -1.9350 -1.2292  0.0523
 3662SOL     OW12585   3.725   1.154   6.297  0.1605 -0.0611  0.5769
 3662SOL    HW112586   3.798   1.215   6.264  0.8048 -0.3701  1.3965
 3662SOL    HW212587   3.711   1.081   6.231  0.3826  0.1671  0.2695
 3663SOL     OW12588   6.141   2.175   6.177  0.0293 -0.1763 -0.3104
 3663SOL    HW112589   6.149   2.224   6.264  2.1605  1.9513 -1.5991
 3663SOL    HW212590   6.159   2.077   6.192  0.3415  0.1320  1.6087
 3664SOL     OW12591   0.079   6.514   4.670 -0.1531  0.0905  0.2527
 3664SOL    HW112592   0.015   6.466   4.729 -0.7766 -1.3898 -1.5493
 3664SOL    HW212593   0.169   6.517   4.713 -0.8299 -0.0070  1.7125
 3665SOL     OW12594   3.598   0.082   6.466 -0.4182  0.2197 -0.1017
 3665SOL    HW112595   3.555   0.076   6.556  0.3606  0.6840  0.3119
 3665SOL    HW212596   3.561   0.160   6.416  0.5395  1.1324  0.5891
 3666SOL     OW12597   2.677   3.339   6.309  0.0346  0.3337  0.1010
 3666SOL    HW112598   2.733   3.307   6.232  0.2757  0.3056  0.2888
 3666SOL    HW212599   2.582   3.311   6.294  0.2354 -0.4464  0.2449
 3667SOL     OW12600   6.951   4.032   2.098 -0.1545  0.2338 -0.1871
 3667SOL    HW112601   6.875   4.056   2.038  0.2430  0.7417 -0.5008
 3667SOL    HW212602   6.916   3.997   2.185 -0.7488  1.3463  0.0280
 3668SOL     OW12603   2.334   0.639   2.859 -0.3893  0.0686 -0.1138
 3668SOL    HW112604   2.396   0.561   2.857  0.6052  0.8267  0.1179
 3668SOL    HW212605   2.306   0.657   2.953  0.8002  1.0448  0.0835
 3669SOL     OW12606   3.518   1.284   3.508 -0.0732  0.4545  0.8180
 3669SOL    HW112607   3.421   1.308   3.507 -0.4148 -0.7828 -0.8778
 3669SOL    HW212608   3.572   1.360   3.472 -0.3515  1.2537  2.0217
 3670SOL     OW12609   6.085   0.538   3.734 -0.5988 -0.2896  0.3379
 3670SOL    HW112610   5.998   0.528   3.685  0.3780 -2.0551 -1.1770
 3670SOL    HW212611   6.111   0.450   3.774  0.4919  0.2225  0.7766
 3671SOL     OW12612   3.998   4.288   6.492  0.2383 -0.2046 -0.1796
 3671SOL    HW112613   4.021   4.294   6.589 -2.0904 -1.1361  0.5133
 3671SOL    HW212614   3.960   4.375   6.461  0.7757  0.0232 -0.2139
 3672SOL     OW12615   3.097   5.048   5.212  0.0004 -0.1378 -0.0683
 3672SOL    HW112616   3.042   5.125   5.245  2.3648  1.2604  0.9038
 3672SOL    HW212617   3.083   5.036   5.114 -1.4562  0.6122  0.0207
 3673SOL     OW12618   3.276   4.866   5.684  0.5140  0.0304 -0.2506
 3673SOL    HW112619   3.288   4.769   5.704 -1.5828 -0.1451  0.3895
 3673SOL    HW212620   3.306   4.920   5.763 -3.1110 -0.4262  1.6356
 3674SOL     OW12621   2.649   5.553   1.392 -0.6181  0.2975 -0.4041
 3674SOL    HW112622   2.556   5.584   1.411 -1.0183 -1.8165  1.5843
 3674SOL    HW212623   2.685   5.507   1.473  2.1476  0.9649 -1.1712
 3675SOL     OW12624   0.056   0.391   6.077 -0.2226 -0.9769 -0.0058
 3675SOL    HW112625   0.056   0.411   5.979 -1.4438  2.5637  0.5682
 3675SOL    HW212626   0.144   0.351   6.102  1.4465  1.0485 -2.1076
 3676SOL     OW12627   1.932   2.567   0.050 -0.0031 -0.1963 -0.1670
 3676SOL    HW112628   1.992   2.645   0.036 -0.1157  0.4782  2.4635
 3676SOL    HW212629   1.986   2.483   0.048  0.3663  0.0550 -1.5547
 3677SOL     OW12630   3.771   1.129   3.024  0.2837  0.3106  0.1700
 3677SOL    HW112631   3.726   1.041   3.009 -0.1748 -0.1619  3.5274
 3677SOL    HW212632   3.868   1.121   3.001 -0.4160  0.1594 -3.2383
 3678SOL     OW12633   6.877   4.366   5.342 -0.2724  0.0872  0.4186
 3678SOL    HW112634   6.899   4.436   5.409 -1.3527  0.2246  0.6573
 3678SOL    HW212635   6.848   4.411   5.256  0.2351 -0.0787  0.1596
 3679SOL     OW12636   2.247   1.481   2.249  0.2069 -0.3354  0.0586
 3679SOL    HW112637   2.198   1.517   2.328 -0.3267  0.4700 -0.6174
 3679SOL    HW212638   2.213   1.389   2.228 -1.2019  0.2940 -0.5323
 3680SOL     OW12639   4.138   6.486   6.177 -0.1940 -0.1118  0.0620
 3680SOL    HW112640   4.162   6.397   6.215 -1.0837 -1.2901 -2.0198
 3680SOL    HW212641   4.046   6.483   6.138 -0.0006  1.5316 -0.6380
 3681SOL     OW12642   4.647   4.547   2.101  0.3867 -0.0354  0.2557
 3681SOL    HW112643   4.710   4.562   2.025 -0.2112 -0.5246 -0.3510
 3681SOL    HW212644   4.697   4.550   2.187  1.0569  0.6421 -0.1454
 3682SOL     OW12645   2.761   4.650   5.433 -0.1518  0.1860  0.1337
 3682SOL    HW112646   2.734   4.680   5.524 -2.4384  2.1225 -1.0816
 3682SOL    HW212647   2.707   4.570   5.407 -0.0514  0.1091  0.1579
 3683SOL     OW12648   0.783   5.569   3.304  0.2618 -0.8163  0.3513
 3683SOL    HW112649   0.881   5.586   3.304  0.0439  0.6520 -0.6826
 3683SOL    HW212650   0.736   5.643   3.256 -1.4038 -1.2296  1.2391
 3684SOL     OW12651   1.389   4.177   0.065 -0.4440  0.9165  0.1675
 3684SOL    HW112652   1.374   4.254   0.127 -0.0273  0.2650  1.1118
 3684SOL    HW212653   1.376   4.207  -0.030 -0.5036  2.0824  0.5269
 3685SOL     OW12654   2.096   2.093   3.729 -0.5165  0.1621 -0.7474
 3685SOL    HW112655   2.105   1.994   3.736 -1.7592  0.0861  0.0478
 3685SOL    HW212656   2.186   2.135   3.727  0.0168 -0.9518 -0.5145
 3686SOL     OW12657   2.922   5.009   5.708 -0.0902  0.2696  0.1045
 3686SOL    HW112658   3.002   5.069   5.707  0.0939  0.0155 -0.3046
 3686SOL    HW212659   2.915   4.965   5.798  0.6595 -0.2880 -0.0994
 3687SOL     OW12660   1.591   6.954   1.616 -0.0014 -1.2452  0.3057
 3687SOL    HW112661   1.524   6.997   1.677  1.5452 -1.9640  2.6659
 3687SOL    HW212662   1.545   6.920   1.534 -1.6392  2.9226 -0.7391
 3688SOL     OW12663   6.569   6.923   0.140 -0.0513 -0.1936  0.4724
 3688SOL    HW112664   6.631   7.001   0.149 -0.1527  0.1723 -1.6442
 3688SOL    HW212665   6.621   6.840   0.118 -0.2466  0.0832 -1.1509
 3689SOL     OW12666   1.607   4.263   5.315  0.4839  0.2741  0.1582
 3689SOL    HW112667   1.666   4.344   5.325 -0.2605  0.7677  0.6467
 3689SOL    HW212668   1.571   4.260   5.222  1.0350  0.1393 -0.0531
 3690SOL     OW12669   3.806   1.754   2.224  0.0818  0.5055 -0.4018
 3690SOL    HW112670   3.738   1.691   2.262  1.2632  0.5607  1.9468
 3690SOL    HW212671   3.793   1.845   2.262 -0.3035  1.2363 -2.1832
 3691SOL     OW12672   2.505   3.516   5.737 -0.1224 -0.8419  0.3892
 3691SOL    HW112673   2.441   3.475   5.672  0.0307  0.9147 -0.9295
 3691SOL    HW212674   2.456   3.540   5.821 -0.8393 -1.0168  0.0314
 3692SOL     OW12675   1.030   2.817   6.890  0.3996 -0.1472 -0.7031
 3692SOL    HW112676   1.082   2.739   6.926 -0.6544 -0.2395  0.6899
 3692SOL    HW212677   0.976   2.857   6.963  0.1460  1.2844 -1.6436
 3693SOL     OW12678   5.508   2.427   6.849  0.0625 -0.1468  0.4649
 3693SOL    HW112679   5.412   2.442   6.826  0.0411  0.5745  0.9785
 3693SOL    HW212680   5.516   2.350   6.911  0.1829 -2.5659 -2.3376
 3694SOL     OW12681   2.825   6.207   5.558 -0.2814  0.1483  0.6402
 3694SOL    HW112682   2.901   6.144   5.541 -1.5170 -0.7033 -2.3437
 3694SOL    HW212683   2.839   6.292   5.507 -0.8635  0.3693  0.8359
 3695SOL     OW12684   0.236   2.794   4.828 -0.2565  0.5865 -0.0671
 3695SOL    HW112685   0.220   2.831   4.919  0.1779 -0.9541  0.6668
 3695SOL    HW212686   0.328   2.754   4.824 -1.3192 -2.0625 -0.1858
 3696SOL     OW12687   4.937   3.293   2.922 -0.2993 -0.4014  0.2806
 3696SOL    HW112688   4.862   3.354   2.897  1.0782  1.6187  0.8185
 3696SOL    HW212689   4.926   3.206   2.874 -1.4061  0.8653 -1.9808
 3697SOL     OW12690   3.801   6.945   5.698 -0.2933  0.0742  0.1155
 3697SOL    HW112691   3.710   6.934   5.658 -0.1088  0.1321 -0.3197
 3697SOL    HW212692   3.871   6.932   5.627  0.0895 -1.3571  0.7099
 3698SOL     OW12693   3.038   3.518   6.780 -0.1634 -0.1411 -0.5907
 3698SOL    HW112694   2.972   3.564   6.721  0.2393 -0.2508 -1.1393
 3698SOL    HW212695   3.005   3.517   6.874  0.0838  1.8175 -0.4420
 3699SOL     OW12696   4.189   2.384   0.461 -0.5560  0.3145  0.2521
 3699SOL    HW112697   4.214   2.388   0.558  1.4345 -1.0666 -0.1469
 3699SOL    HW212698   4.133   2.303   0.445 -1.6561  1.0353  0.3825
 3700SOL     OW12699   6.924   0.718   2.639  0.9096 -1.0881 -0.1309
 3700SOL    HW112700   6.961   0.696   2.549 -0.2151 -2.1838 -0.3449
 3700SOL    HW212701   6.849   0.656   2.661  0.7430 -0.4269  1.2963
 3701SOL     OW12702   5.504   2.652   0.033 -0.3442  0.3181  0.1819
 3701SOL    HW112703   5.501   2.727  -0.034 -1.1537 -0.0440 -0.2089
 3701SOL    HW212704   5.550   2.573  -0.006 -0.4740  0.2392  0.1848
 3702SOL     OW12705   5.180   5.268   5.081  0.2221  0.0601  0.0693
 3702SOL    HW112706   5.274   5.291   5.058  0.4378 -0.1065  0.7732
 3702SOL    HW212707   5.144   5.333   5.147  0.6349 -1.2039  1.5957
 3703SOL     OW12708   3.347   1.000   3.848  0.5699 -0.4961  0.1803
 3703SOL    HW112709   3.413   1.053   3.901  0.9209 -0.9431  0.1999
 3703SOL    HW212710   3.289   1.062   3.795  0.0112 -0.0247  1.3073
 3704SOL     OW12711   3.159   6.330   4.338  0.0834  0.2391  0.1160
 3704SOL    HW112712   3.151   6.429   4.331 -0.1276  0.2712  0.7584
 3704SOL    HW212713   3.170   6.304   4.434 -0.1571 -0.3778 -0.0193
 3705SOL     OW12714   6.402   4.383   4.764 -0.3578  0.5476 -1.2907
 3705SOL    HW112715   6.479   4.333   4.725  0.0088  0.2210 -0.2006
 3705SOL    HW212716   6.417   4.481   4.755  0.6283  0.5068 -0.3263
 3706SOL     OW12717   5.952   0.246   5.187  0.0592  0.3495  0.1703
 3706SOL    HW112718   5.967   0.258   5.285  1.9215  1.0073 -0.1643
 3706SOL    HW212719   6.003   0.166   5.154  0.6872  1.0178 -0.5228
 3707SOL     OW12720   0.092   6.512   0.018 -0.1966  0.0860 -0.0886
 3707SOL    HW112721   0.078   6.425  -0.030  1.2457  0.4886 -1.3226
 3707SOL    HW212722   0.035   6.582  -0.025 -0.2805  0.0533 -0.0304
 3708SOL     OW12723   1.612   2.155   5.814  0.0046 -0.0943  0.4511
 3708SOL    HW112724   1.692   2.100   5.790  0.8115  0.2522  2.1881
 3708SOL    HW212725   1.529   2.102   5.796  0.4840  0.0561 -2.7400
 3709SOL     OW12726   0.352   3.629   5.149 -0.3349  0.2703 -0.1464
 3709SOL    HW112727   0.334   3.713   5.200  0.6649  2.1040 -2.5723
 3709SOL    HW212728   0.324   3.641   5.054  1.8764 -1.2969 -1.1018
 3710SOL     OW12729   4.764   6.044   4.838  0.1658  0.6134 -0.3836
 3710SOL    HW112730   4.778   6.112   4.766  1.0992 -1.1272 -1.9170
 3710SOL    HW212731   4.666   6.028   4.849  0.0275  0.3983 -1.7772
 3711SOL     OW12732   1.367   2.389   6.112  0.0423  0.1006 -0.1493
 3711SOL    HW112733   1.365   2.466   6.176 -0.9112 -0.5633  0.6442
 3711SOL    HW212734   1.462   2.365   6.093  0.3619 -0.0123  1.4300
 3712SOL     OW12735   4.533   2.283   0.746 -0.2666 -1.0284  0.4130
 3712SOL    HW112736   4.434   2.270   0.740 -1.0199  3.2260  0.7076
 3712SOL    HW212737   4.553   2.363   0.802  3.3141 -0.9708 -0.7047
 3713SOL     OW12738   0.089   6.151   5.660  0.0645 -0.4578 -0.4802
 3713SOL    HW112739   0.118   6.245   5.646  0.1693 -0.6856 -1.9611
 3713SOL    HW212740   0.081   6.132   5.758  0.6694  0.8864 -0.1577
 3714SOL     OW12741   2.139   5.813   0.833  0.8587  0.7501 -0.5693
 3714SOL    HW112742   2.084   5.895   0.849  1.0686  1.4467 -2.9833
 3714SOL    HW212743   2.230   5.826   0.873  0.6477  1.3923 -0.2841
 3715SOL     OW12744   2.006   6.176   4.155 -0.2506 -0.0040 -0.0261
 3715SOL    HW112745   2.013   6.093   4.211  0.0314  0.5286  0.7470
 3715SOL    HW212746   2.089   6.187   4.101  0.0442  0.1726  0.4519
 3716SOL     OW12747   4.843   2.837   1.752  0.1840  0.1279  1.0462
 3716SOL    HW112748   4.825   2.794   1.663  0.4246  1.1727  0.4805
 3716SOL    HW212749   4.942   2.838   1.769  0.1290 -0.2257  1.4196
 3717SOL     OW12750   2.518   4.347   0.608 -0.3764  0.6351 -0.3757
 3717SOL    HW112751   2.572   4.382   0.685  0.1427  1.4895 -1.1154
 3717SOL    HW212752   2.428   4.319   0.642  1.1257 -2.7646  1.2704
 3718SOL     OW12753   0.216   4.191   4.376  0.6133 -0.3148 -0.1240
 3718SOL    HW112754   0.127   4.188   4.421  0.1726  1.2255 -0.7931
 3718SOL    HW212755   0.233   4.284   4.343  1.6110 -1.0115 -1.7165
 3719SOL     OW12756   5.801   3.795   5.538  0.0675 -0.1944  0.2432
 3719SOL    HW112757   5.761   3.843   5.459  0.8957  0.6554  0.3193
 3719SOL    HW212758   5.864   3.724   5.506 -1.3123 -1.4045  0.1263
 3720SOL     OW12759   5.604   5.426   4.653  0.0079 -0.1336  0.6426
 3720SOL    HW112760   5.696   5.391   4.669  0.6904  0.5748 -1.5076
 3720SOL    HW212761   5.580   5.415   4.557 -2.4688 -0.9593  1.2821
 3721SOL     OW12762   2.245   1.496   4.179 -0.0724  0.1261 -0.0167
 3721SOL    HW112763   2.310   1.514   4.105 -0.1437 -1.7276 -0.5742
 3721SOL    HW212764   2.238   1.578   4.237 -0.4393  1.8377 -2.3175
 3722SOL     OW12765   0.412   3.803   3.587  0.2844  0.2290  0.0525
 3722SOL    HW112766   0.405   3.709   3.620  0.3625  0.0236 -0.5045
 3722SOL    HW212767   0.321   3.837   3.563  0.0650  0.7910  1.5679
 3723SOL     OW12768   3.556   6.721   2.744 -0.5944 -0.6262 -0.3631
 3723SOL    HW112769   3.644   6.761   2.715  0.1110 -1.5396  0.4378
 3723SOL    HW212770   3.511   6.680   2.666  0.7936 -2.1558 -0.4179
 3724SOL     OW12771   2.712   5.446   1.640  0.6555  0.0038 -0.2770
 3724SOL    HW112772   2.810   5.450   1.623  1.5596  0.6198  3.9428
 3724SOL    HW212773   2.688   5.511   1.712 -2.3444 -2.0785  0.7997
 3725SOL     OW12774   2.235   0.331   6.021 -0.8808 -0.0526 -0.2678
 3725SOL    HW112775   2.166   0.377   6.077 -1.1765 -1.4238  0.5471
 3725SOL    HW212776   2.199   0.242   5.990 -0.0473 -0.1026 -1.1339
 3726SOL     OW12777   5.573   6.079   3.363  0.2454 -0.0945  0.8778
 3726SOL    HW112778   5.529   6.163   3.330  0.3325 -0.0718  0.8202
 3726SOL    HW212779   5.518   6.039   3.437  1.3407  1.2276  2.4773
 3727SOL     OW12780   1.592   0.745   3.407 -0.4569  0.1376  0.2622
 3727SOL    HW112781   1.583   0.808   3.330 -3.5664 -0.6469 -0.1488
 3727SOL    HW212782   1.655   0.671   3.383 -0.1174  0.7776 -0.9003
 3728SOL     OW12783   0.059   5.536   3.078  0.0415  0.0245 -0.4959
 3728SOL    HW112784   0.089   5.631   3.090 -2.3752  0.7405  0.5065
 3728SOL    HW212785  -0.012   5.532   3.007 -0.7690 -0.7911  0.3256
 3729SOL     OW12786   0.757   0.922   3.174  0.0760 -0.2455 -0.6335
 3729SOL    HW112787   0.734   0.920   3.077 -0.7610  1.2307 -0.5002
 3729SOL    HW212788   0.767   1.016   3.204  1.0462 -0.7058  0.5658
 3730SOL     OW12789   5.301   4.297   2.199 -0.1273 -0.5840  0.2146
 3730SOL    HW112790   5.351   4.317   2.115  0.9862 -0.2709  0.9159
 3730SOL    HW212791   5.203   4.299   2.182  0.0451  1.0706 -0.7314
 3731SOL     OW12792   5.573   4.982   6.948  0.0984 -0.5958 -0.0308
 3731SOL    HW112793   5.666   4.959   6.977  1.2476  2.5505 -0.8108
 3731SOL    HW212794   5.553   5.077   6.972 -2.0901 -0.4869 -1.8959
 3732SOL     OW12795   4.592   5.241   5.939 -0.3655 -0.3057 -0.2222
 3732SOL    HW112796   4.495   5.219   5.923  0.1315 -0.5414 -3.5846
 3732SOL    HW212797   4.629   5.181   6.009 -1.5477 -3.4629 -2.1261
 3733SOL     OW12798   0.753   5.645   2.460 -0.0645  0.0622  0.0136
 3733SOL    HW112799   0.841   5.599   2.449 -0.5053 -0.8428  0.2208
 3733SOL    HW212800   0.725   5.642   2.556 -0.4497  0.1076 -0.0939
 3734SOL     OW12801   5.913   4.335   3.443  0.3390 -0.2659 -0.2435
 3734SOL    HW112802   5.829   4.349   3.496 -0.0426 -1.2416 -0.5577
 3734SOL    HW212803   5.901   4.256   3.383  0.7850  0.7514 -1.7431
 3735SOL     OW12804   0.348   3.545   2.916  1.1660  0.5837 -0.1632
 3735SOL    HW112805   0.262   3.542   2.865  2.8397  0.0354 -3.1956
 3735SOL    HW212806   0.330   3.529   3.013 -2.2431  1.7995 -0.4624
 3736SOL     OW12807   6.174   4.986   0.244  0.3602 -0.3411 -0.0447
 3736SOL    HW112808   6.221   5.004   0.331 -0.1945 -0.2769  0.2489
 3736SOL    HW212809   6.127   4.898   0.249 -0.4108  0.0642  0.0542
 3737SOL     OW12810   6.403   6.486   0.485  0.6841  0.2291 -0.3180
 3737SOL    HW112811   6.491   6.438   0.476  0.5423  0.3173 -2.6745
 3737SOL    HW212812   6.353   6.480   0.399 -0.5617  2.2496  0.2119
 3738SOL     OW12813   4.536   0.290   5.354 -0.2059  0.7913 -0.0595
 3738SOL    HW112814   4.442   0.321   5.339 -0.4686 -0.0277 -0.1132
 3738SOL    HW212815   4.536   0.213   5.418  0.3379  0.0941 -0.8907
 3739SOL     OW12816   5.241   5.611   6.167  0.6314  0.1755  0.2130
 3739SOL    HW112817   5.156   5.560   6.150  1.3974 -0.6746 -1.2038
 3739SOL    HW212818   5.219   5.697   6.214 -0.9742 -0.1737  0.1592
 3740SOL     OW12819   0.715   2.957   6.593  0.0687 -0.2319  0.4284
 3740SOL    HW112820   0.786   2.889   6.577  1.3507  0.9054  1.0898
 3740SOL    HW212821   0.725   2.994   6.685 -1.5762 -0.2380  0.6390
 3741SOL     OW12822   5.405   2.367   4.525 -0.4264 -0.1997  0.2509
 3741SOL    HW112823   5.477   2.421   4.482 -0.2731 -0.4397  0.2067
 3741SOL    HW212824   5.374   2.297   4.461 -0.5950 -0.1946  0.3252
 3742SOL     OW12825   2.875   4.047   1.793 -0.0598  0.1916 -0.7507
 3742SOL    HW112826   2.820   4.071   1.873 -1.3529  1.9487 -2.0803
 3742SOL    HW212827   2.925   4.127   1.762 -0.8777  0.0134 -2.6503
 3743SOL     OW12828   6.741   3.453   4.150 -0.3127  0.0371  0.5017
 3743SOL    HW112829   6.646   3.460   4.120 -0.6099  2.5623  1.7373
 3743SOL    HW212830   6.801   3.491   4.079 -0.4624  0.5619  0.6493
 3744SOL     OW12831   3.713   1.264   4.197  0.2052 -0.9428 -0.1964
 3744SOL    HW112832   3.801   1.256   4.149 -0.8627 -1.8897 -2.0760
 3744SOL    HW212833   3.714   1.347   4.252  1.8587 -0.3122 -1.0864
 3745SOL     OW12834   6.993   0.977   0.245  0.3693 -0.3436 -0.2653
 3745SOL    HW112835   7.090   0.955   0.239  0.5967  0.6056 -0.1365
 3745SOL    HW212836   6.944   0.930   0.171  0.9785 -0.5252 -0.5609
 3746SOL     OW12837   4.857   6.136   0.545  0.6669  0.0295  0.6571
 3746SOL    HW112838   4.881   6.210   0.483  0.0878 -1.5184 -1.5020
 3746SOL    HW212839   4.774   6.161   0.596  0.6680  0.9801  0.2073
 3747SOL     OW12840   1.672   0.024   2.244 -0.2699  0.5625  0.4620
 3747SOL    HW112841   1.636  -0.058   2.289 -0.5937  1.0222  1.0590
 3747SOL    HW212842   1.601   0.063   2.185 -0.5047  1.0446  1.0554
 3748SOL     OW12843   0.222   4.123   3.631  0.0916  0.1373  0.1565
 3748SOL    HW112844   0.131   4.158   3.609 -0.1323 -0.4129  0.1792
 3748SOL    HW212845   0.289   4.161   3.568 -0.0544  1.0336  0.5325
 3749SOL     OW12846   6.555   3.867   0.294 -0.0905 -0.7514 -0.1602
 3749SOL    HW112847   6.631   3.903   0.347 -0.0579 -2.8502  1.3547
 3749SOL    HW212848   6.469   3.892   0.338 -0.1468 -0.9051 -0.1814
 3750SOL     OW12849   2.881   5.469   2.528 -0.1038  0.0284 -0.1817
 3750SOL    HW112850   2.951   5.535   2.505 -1.0887  0.6191 -1.5829
 3750SOL    HW212851   2.897   5.384   2.478  1.0509 -0.7743  1.4702
 3751SOL     OW12852   4.862   1.695   4.327  0.0659 -0.3074  0.6022
 3751SOL    HW112853   4.870   1.794   4.335 -0.7022 -0.1692 -0.2710
 3751SOL    HW212854   4.775   1.665   4.367  0.6433 -0.7360  1.5878
 3752SOL     OW12855   2.990   6.408   6.876  0.0500 -0.2426  0.2190
 3752SOL    HW112856   3.083   6.378   6.854  0.2853  0.2685  0.4996
 3752SOL    HW212857   2.939   6.331   6.914  0.3075 -0.5687 -0.0818
 3753SOL     OW12858   3.684   2.800   4.748 -0.3022 -0.2942 -0.8179
 3753SOL    HW112859   3.604   2.783   4.690  1.3345 -0.4143 -3.1981
 3753SOL    HW212860   3.764   2.757   4.707  1.0624  0.0136  1.3680
 3754SOL     OW12861   0.782   1.734   5.722 -0.1481  0.2885 -0.1539
 3754SOL    HW112862   0.729   1.779   5.794  1.7744  0.4901  1.2154
 3754SOL    HW212863   0.819   1.802   5.659  1.1657  0.5179  0.8126
 3755SOL     OW12864   2.767   4.793   6.277 -0.3952 -0.7294  0.1193
 3755SOL    HW112865   2.751   4.699   6.307  0.3776 -1.4332 -1.5462
 3755SOL    HW212866   2.837   4.794   6.206 -0.5741  1.0897 -0.0803
 3756SOL     OW12867   0.387   6.462   3.518 -0.0140  0.6238  0.1137
 3756SOL    HW112868   0.405   6.554   3.554 -1.6052  0.8521  0.3997
 3756SOL    HW212869   0.418   6.458   3.423 -1.0446  1.8861 -0.3126
 3757SOL     OW12870   3.867   2.701   5.337 -0.0524  0.2656  0.4520
 3757SOL    HW112871   3.770   2.726   5.333 -0.2346 -0.1919  1.6965
 3757SOL    HW212872   3.880   2.631   5.406  1.5427  2.0761  2.0939
 3758SOL     OW12873   2.955   6.098   0.990 -0.7521  0.1215 -0.6752
 3758SOL    HW112874   2.967   6.105   1.089  0.2083 -0.2566 -0.7632
 3758SOL    HW212875   2.889   6.026   0.969 -0.3261 -0.3688 -0.3417
 3759SOL     OW12876   0.955   6.874   6.466 -0.1512  0.1487 -0.5050
 3759SOL    HW112877   1.040   6.831   6.434  0.0345  0.3979 -0.3484
 3759SOL    HW212878   0.959   6.972   6.448 -0.1242  0.2653  0.1104
 3760SOL     OW12879   1.861   1.185   5.061 -0.3994  0.1231 -0.7394
 3760SOL    HW112880   1.934   1.140   5.009 -1.4031 -0.2973 -1.8444
 3760SOL    HW212881   1.896   1.269   5.102  1.1958 -1.0061  0.3298
 3761SOL     OW12882   2.268   4.124   1.043 -0.1449 -0.3556  0.0150
 3761SOL    HW112883   2.344   4.085   1.094 -1.1164 -0.5124  1.4156
 3761SOL    HW212884   2.188   4.131   1.103 -0.6554  1.7151 -0.8034
 3762SOL     OW12885   6.272   0.023   3.473  0.5971 -0.1585 -0.3422
 3762SOL    HW112886   6.248  -0.002   3.379  1.5815  1.7943 -1.1606
 3762SOL    HW212887   6.371   0.022   3.483  0.4807 -1.9457  1.1977
 3763SOL     OW12888   1.653   6.202   0.723 -0.1799 -0.1767  0.6827
 3763SOL    HW112889   1.665   6.117   0.671  0.4953  1.4941 -2.0890
 3763SOL    HW212890   1.558   6.207   0.755 -0.3250 -1.8009  0.6113
 3764SOL     OW12891   2.371   0.872   3.965 -0.1816  0.4299  0.1367
 3764SOL    HW112892   2.349   0.888   4.061  0.4461 -1.2718  0.6018
 3764SOL    HW212893   2.287   0.871   3.911 -0.4732  2.2867  0.4878
 3765SOL     OW12894   4.666   6.396   3.781  0.0806 -0.5135  0.4607
 3765SOL    HW112895   4.741   6.351   3.828  1.5452  2.9767  1.7705
 3765SOL    HW212896   4.598   6.427   3.848 -1.0551 -1.0464 -0.4141
 3766SOL     OW12897   1.551   1.754   5.923 -0.6505  0.7458  0.3084
 3766SOL    HW112898   1.488   1.824   5.956  0.4109  1.7057  0.3198
 3766SOL    HW212899   1.592   1.706   6.000 -1.2045  0.2434  0.3025
 3767SOL     OW12900   3.261   5.963   1.871 -0.1538 -0.6306  0.0526
 3767SOL    HW112901   3.339   5.941   1.930  1.7316  0.0167 -2.0546
 3767SOL    HW212902   3.226   5.878   1.831  1.2099 -0.7421 -0.9953
 3768SOL     OW12903   3.480   6.674   2.499  0.4028 -0.7436 -0.1494
 3768SOL    HW112904   3.474   6.720   2.411  0.2727  1.7024  1.0641
 3768SOL    HW212905   3.488   6.575   2.484  1.1601 -0.3593 -2.8847
 3769SOL     OW12906   3.382   3.485   6.678  0.2982 -0.1643 -0.6499
 3769SOL    HW112907   3.412   3.467   6.772 -0.3399  0.5640 -0.3004
 3769SOL    HW212908   3.319   3.413   6.649  1.0600 -0.7894 -0.7912
 3770SOL     OW12909   4.965   6.153   5.699  0.0284  0.9047  0.1762
 3770SOL    HW112910   4.904   6.120   5.627  0.5123 -1.9366  0.9335
 3770SOL    HW212911   4.914   6.163   5.785 -0.2398  2.8892 -0.1663
 3771SOL     OW12912   3.722   6.115   6.296 -0.2423  0.0825  0.0908
 3771SOL    HW112913   3.747   6.020   6.314  2.2301  0.7189  0.2915
 3771SOL    HW212914   3.801   6.174   6.312 -0.8048  1.8600 -2.9456
 3772SOL     OW12915   3.852   6.598   1.343  0.1315  0.4034 -0.3319
 3772SOL    HW112916   3.801   6.576   1.260 -0.0824 -1.8287  0.3467
 3772SOL    HW212917   3.941   6.636   1.317 -0.3888  0.8504 -1.5557
 3773SOL     OW12918   5.630   2.261   0.070  0.1056  0.5519 -0.2300
 3773SOL    HW112919   5.690   2.245   0.149 -0.9056 -1.1154  0.2502
 3773SOL    HW212920   5.654   2.198  -0.003  0.8704  1.9229 -1.2217
 3774SOL     OW12921   1.138   6.342   4.164 -0.6738 -0.6366 -0.4478
 3774SOL    HW112922   1.123   6.345   4.263 -0.5741  1.1039 -0.4570
 3774SOL    HW212923   1.190   6.259   4.141  0.7264 -0.2681  1.1568
 3775SOL     OW12924   5.102   6.945   3.647  0.4351  0.0249  0.1905
 3775SOL    HW112925   5.186   6.925   3.698  1.2758 -0.8356 -1.4642
 3775SOL    HW212926   5.064   7.032   3.678  3.1585  1.5710 -0.5373
 3776SOL     OW12927   0.131   3.373   3.824  0.7620 -0.3758  0.1202
 3776SOL    HW112928   0.122   3.440   3.750  1.8733  1.4356  1.5328
 3776SOL    HW212929   0.227   3.349   3.836  0.9099  0.9310  2.2041
 3777SOL     OW12930   6.747   2.461   1.907 -0.8259 -0.0914 -0.5385
 3777SOL    HW112931   6.791   2.374   1.884 -0.0021  0.4654 -1.1431
 3777SOL    HW212932   6.766   2.484   2.002  2.2468  1.2418 -1.3404
 3778SOL     OW12933   3.170   3.294   6.648  0.1618  0.0770  0.2878
 3778SOL    HW112934   3.138   3.366   6.711 -0.3323  0.1066  0.0100
 3778SOL    HW212935   3.101   3.222   6.643  0.6297 -0.3863  0.5130
 3779SOL     OW12936   5.376   4.794   1.860  0.4019  0.2676 -0.3387
 3779SOL    HW112937   5.415   4.732   1.791 -0.5840  2.1650 -2.7720
 3779SOL    HW212938   5.446   4.859   1.890  0.6368 -0.0755 -0.1400
 3780SOL     OW12939   1.034   5.631   4.759 -0.3777  0.4683  0.1588
 3780SOL    HW112940   1.064   5.544   4.797  0.5749  1.1854  1.1376
 3780SOL    HW212941   0.964   5.616   4.690 -1.1878 -0.9866  1.2462
 3781SOL     OW12942   3.193   6.346   5.116  0.4952  0.2381  0.2227
 3781SOL    HW112943   3.270   6.333   5.053  1.3043 -2.0356  1.5719
 3781SOL    HW212944   3.162   6.441   5.111  2.2404  0.7891 -1.6209
 3782SOL     OW12945   4.068   2.813   0.239  0.6196  0.7109  0.2292
 3782SOL    HW112946   4.048   2.891   0.299 -1.5725  1.3686 -1.2699
 3782SOL    HW212947   4.165   2.817   0.213  0.8777  2.1681  1.2285
 3783SOL     OW12948   1.633   1.569   4.005 -0.0988 -0.1242  0.1924
 3783SOL    HW112949   1.614   1.638   3.936  0.1405  0.0585  0.3108
 3783SOL    HW212950   1.729   1.542   4.002 -0.0329  0.0508  0.6030
 3784SOL     OW12951   0.340   6.561   4.785  0.3948  0.0454  0.3893
 3784SOL    HW112952   0.326   6.638   4.848  1.4245  0.9005 -0.3873
 3784SOL    HW212953   0.432   6.565   4.747 -0.1166 -0.5821 -0.9943
 3785SOL     OW12954   3.257   6.736   3.127 -0.3692  1.1827 -0.1487
 3785SOL    HW112955   3.199   6.679   3.069 -1.0604  1.7943 -0.0826
 3785SOL    HW212956   3.214   6.748   3.217  0.7632  0.1160  0.5777
 3786SOL     OW12957   4.422   2.019   5.372  0.4007 -0.4658 -0.6437
 3786SOL    HW112958   4.344   1.985   5.425  2.1121 -1.4045  1.4426
 3786SOL    HW212959   4.483   1.943   5.351  2.6712  0.6784  1.2291
 3787SOL     OW12960   2.018   2.228   6.719  0.0633 -0.2726 -0.2579
 3787SOL    HW112961   2.016   2.139   6.764  0.8587 -0.2121 -0.1005
 3787SOL    HW212962   1.924   2.261   6.706 -0.1921 -0.2773  1.3653
 3788SOL     OW12963   6.635   6.075   1.036  0.0805  0.8256  0.1029
 3788SOL    HW112964   6.536   6.088   1.026 -0.0819  0.7304  1.3947
 3788SOL    HW212965   6.664   6.105   1.127  1.1479  0.3409 -0.0552
 3789SOL     OW12966   4.550   3.791   6.754 -0.3747  0.3232  0.0870
 3789SOL    HW112967   4.496   3.851   6.813 -0.7696 -0.7467  0.8436
 3789SOL    HW212968   4.490   3.725   6.709  0.2801 -0.9810  1.0503
 3790SOL     OW12969   1.483   2.365   5.414  0.2164 -0.0118  0.4659
 3790SOL    HW112970   1.416   2.292   5.424 -0.7118  0.9642  1.7893
 3790SOL    HW212971   1.491   2.414   5.501  0.1406  1.9951 -0.6017
 3791SOL     OW12972   5.817   1.150   0.637 -0.0078 -0.4674 -0.0075
 3791SOL    HW112973   5.789   1.071   0.583 -1.0657 -0.0425 -0.1165
 3791SOL    HW212974   5.898   1.192   0.595  1.4065 -2.2621  0.8322
 3792SOL     OW12975   2.397   1.617   1.756 -0.3338 -0.2307 -0.0961
 3792SOL    HW112976   2.400   1.706   1.710  0.4780 -0.2150 -0.0249
 3792SOL    HW212977   2.396   1.631   1.855  0.7092 -0.3084 -0.0669
 3793SOL     OW12978   3.749   6.092   1.298 -0.2722  0.2790  0.0304
 3793SOL    HW112979   3.838   6.102   1.255 -0.7536  3.3271 -0.5201
 3793SOL    HW212980   3.756   6.029   1.376  2.2864  0.2754 -0.1244
 3794SOL     OW12981   3.683   3.290   5.911  0.4089 -0.2647  0.4751
 3794SOL    HW112982   3.682   3.248   6.002  0.6099 -0.2770  0.4712
 3794SOL    HW212983   3.738   3.235   5.849  1.2385  0.3542  0.6427
 3795SOL     OW12984   2.102   1.858   6.501  0.1996 -0.0282  0.3894
 3795SOL    HW112985   2.143   1.949   6.497  0.0985  0.0520  1.1049
 3795SOL    HW212986   2.049   1.849   6.585 -0.3385 -0.5187  0.0023
 3796SOL     OW12987   6.746   2.960   2.839 -0.0312  0.1126  1.0595
 3796SOL    HW112988   6.711   2.928   2.927 -1.5579 -0.5823  0.2329
 3796SOL    HW212989   6.832   2.912   2.818 -0.9033 -1.5478  1.0770
 3797SOL     OW12990   5.098   4.924   5.222 -0.3194  0.6975  0.4841
 3797SOL    HW112991   5.181   4.979   5.236 -0.3967  1.0248 -0.3222
 3797SOL    HW212992   5.043   4.927   5.305  1.7288 -1.7106  2.0882
 3798SOL     OW12993   2.451   1.089   3.709  0.0100  0.6517  0.0416
 3798SOL    HW112994   2.371   1.116   3.762  0.3318  0.8789  0.4276
 3798SOL    HW212995   2.444   0.993   3.683  0.2600  0.2730  1.2816
 3799SOL     OW12996   2.420   4.313   0.182 -0.0974 -0.4578 -0.3721
 3799SOL    HW112997   2.476   4.372   0.124  0.2093 -0.5852 -0.2058
 3799SOL    HW212998   2.474   4.236   0.214  0.2190  0.4248  1.3468
 3800SOL     OW12999   4.951   3.225   6.384  0.4699  0.1706 -0.2776
 3800SOL    HW113000   5.012   3.269   6.451  1.1436  1.1602 -1.5018
 3800SOL    HW213001   4.865   3.276   6.380 -0.8829 -1.6937  2.0483
 3801SOL     OW13002   5.535   2.271   3.805  0.2633 -0.3331  0.2806
 3801SOL    HW113003   5.620   2.316   3.831 -0.1239  1.2070 -0.9308
 3801SOL    HW213004   5.550   2.218   3.722  0.2002 -0.6036  0.4428
 3802SOL     OW13005   2.596   6.629   2.889  0.5417 -0.1023  0.5830
 3802SOL    HW113006   2.565   6.562   2.821 -0.4400 -0.4426  1.3444
 3802SOL    HW213007   2.694   6.646   2.877  0.6412 -1.0963 -0.1200
 3803SOL     OW13008   4.527   4.890   5.423 -0.6264  0.0677 -0.2262
 3803SOL    HW113009   4.576   4.870   5.339  1.0757  2.0581  0.2069
 3803SOL    HW213010   4.543   4.816   5.489  0.8578  0.1075 -0.5049
 3804SOL     OW13011   5.801   4.738   3.037  0.8997 -0.0071  0.4792
 3804SOL    HW113012   5.793   4.670   3.110  1.8644 -1.6505 -0.8819
 3804SOL    HW213013   5.894   4.773   3.035  0.7398  0.4107  0.3527
 3805SOL     OW13014   5.817   2.052   6.590 -0.2310  0.0707  0.1090
 3805SOL    HW113015   5.778   1.983   6.530 -2.5328  0.6361  0.8171
 3805SOL    HW213016   5.814   2.141   6.545  1.0586  0.0093 -0.1285
 3806SOL     OW13017   0.873   4.526   0.241  0.3838  0.5994  0.0782
 3806SOL    HW113018   0.874   4.619   0.278  0.7775  0.8253 -0.4813
 3806SOL    HW213019   0.789   4.513   0.189  0.1183  0.4882  0.5313
 3807SOL     OW13020   1.037   2.841   6.099  0.0237  0.7630 -0.0513
 3807SOL    HW113021   0.997   2.903   6.167  0.3897  0.8036  0.1284
 3807SOL    HW213022   0.980   2.842   6.016  0.2831  1.7195 -0.2388
 3808SOL     OW13023   4.075   3.037   3.995  0.0903 -0.2408  0.3316
 3808SOL    HW113024   4.109   3.013   4.087  1.1206 -1.0973 -0.2469
 3808SOL    HW213025   3.982   3.002   3.984 -0.2842  0.4009  1.2496
 3809SOL     OW13026   6.271   2.337   4.495  0.2612 -0.1532  0.9588
 3809SOL    HW113027   6.243   2.421   4.542 -0.0024 -0.1562  0.8097
 3809SOL    HW213028   6.194   2.272   4.495  0.6405 -0.6056  1.5579
 3810SOL     OW13029   1.905   2.270   2.868 -0.0571  0.0846 -0.9031
 3810SOL    HW113030   1.963   2.218   2.930 -0.0355  0.2327 -0.7992
 3810SOL    HW213031   1.815   2.226   2.861 -0.7098  1.0820  0.6910
 3811SOL     OW13032   3.171   6.946   2.356  0.0678  0.8394  0.4790
 3811SOL    HW113033   3.165   6.872   2.289  0.9846  0.9708  0.2425
 3811SOL    HW213034   3.225   6.916   2.435 -2.4114  0.0846  2.0092
 3812SOL     OW13035   5.787   1.966   3.906  0.2712  0.0125  0.4399
 3812SOL    HW113036   5.814   1.870   3.910  0.0378 -0.0737  0.0033
 3812SOL    HW213037   5.696   1.974   3.866 -0.1765  0.3339  1.4689
 3813SOL     OW13038   0.038   3.240   0.081 -0.7260  0.3139  0.5324
 3813SOL    HW113039  -0.031   3.290   0.134 -1.6595 -0.3462 -0.0188
 3813SOL    HW213040   0.028   3.264  -0.016 -1.9791 -1.7714  0.0898
 3814SOL     OW13041   6.973   0.862   6.376  0.4463  0.2341 -0.3465
 3814SOL    HW113042   6.993   0.804   6.297  2.5169 -1.0214  1.0064
 3814SOL    HW213043   7.050   0.859   6.440 -0.8155  1.8504  1.3531
 3815SOL     OW13044   0.032   1.579   4.945 -0.1007  0.2537 -1.2815
 3815SOL    HW113045  -0.004   1.486   4.953  0.1220  0.0113 -2.8449
 3815SOL    HW213046  -0.042   1.640   4.913 -0.0592  0.4686 -0.9667
 3816SOL     OW13047   3.024   1.834   4.250 -0.7455  0.2825 -0.3091
 3816SOL    HW113048   2.959   1.880   4.311 -0.5241  0.4522 -0.2029
 3816SOL    HW213049   3.112   1.824   4.296 -0.5238  0.5773 -0.6712
 3817SOL     OW13050   0.010   4.311   4.764 -0.0164  0.1822 -0.3523
 3817SOL    HW113051   0.096   4.269   4.734 -0.7952 -0.5940 -1.6204
 3817SOL    HW213052  -0.056   4.239   4.787 -1.2065  0.6668 -2.0611
 3818SOL     OW13053   5.206   2.935   6.586  0.3696  0.1410  0.0645
 3818SOL    HW113054   5.123   2.880   6.578 -0.0813  0.4115  2.2161
 3818SOL    HW213055   5.281   2.878   6.621  1.3474 -0.2558 -2.4295
 3819SOL     OW13056   3.440   1.809   5.197 -0.4908 -0.4502  0.1325
 3819SOL    HW113057   3.515   1.770   5.143  0.3958 -1.5659  2.0641
 3819SOL    HW213058   3.353   1.788   5.153  0.2448  0.5999 -1.9960
 3820SOL     OW13059   5.057   5.679   2.229  0.3576 -0.0476 -0.0116
 3820SOL    HW113060   5.028   5.690   2.134  0.7730 -0.7485 -0.2262
 3820SOL    HW213061   4.983   5.639   2.282 -0.6380  2.2337  0.4522
 3821SOL     OW13062   4.027   4.555   5.003  0.0593 -0.0502  0.6075
 3821SOL    HW113063   3.992   4.649   5.000 -1.3158 -0.4983  1.4912
 3821SOL    HW213064   4.043   4.522   4.910 -0.0135  0.8576  0.2652
 3822SOL     OW13065   2.821   3.152   3.552 -0.7407  0.1456  0.0723
 3822SOL    HW113066   2.849   3.097   3.631 -0.8140 -1.8535 -1.2201
 3822SOL    HW213067   2.886   3.226   3.539 -0.2265 -0.0188  1.4736
 3823SOL     OW13068   6.787   3.090   6.766  0.4005 -0.0322  0.4473
 3823SOL    HW113069   6.763   3.083   6.670  0.2926 -0.5996  0.5111
 3823SOL    HW213070   6.757   3.178   6.802  0.5022  0.2095 -0.0527
 3824SOL     OW13071   1.228   4.761   5.351  0.1902  0.2565 -0.1277
 3824SOL    HW113072   1.263   4.686   5.296 -1.1692  0.0373 -0.7261
 3824SOL    HW213073   1.296   4.834   5.354  1.0044 -0.4608 -0.6104
 3825SOL     OW13074   1.219   6.134   4.354 -0.4757 -0.2687 -0.2476
 3825SOL    HW113075   1.184   6.041   4.346 -0.9521 -0.1100  0.0007
 3825SOL    HW213076   1.147   6.195   4.388 -0.3498  0.3096 -0.9807
 3826SOL     OW13077   1.248   6.858   3.223 -0.0169  0.0310 -0.3169
 3826SOL    HW113078   1.280   6.943   3.182  0.2775 -1.1474 -2.6864
 3826SOL    HW213079   1.308   6.783   3.195 -0.8811 -1.1481  0.8559
 3827SOL     OW13080   1.846   5.530   4.286 -0.6810  0.1889  0.0854
 3827SOL    HW113081   1.869   5.571   4.198 -1.2446 -0.3349 -0.3162
 3827SOL    HW213082   1.757   5.485   4.279 -0.9205  0.4969  1.0435
 3828SOL     OW13083   4.792   5.524   2.817  0.0811 -0.2297  0.6801
 3828SOL    HW113084   4.888   5.501   2.800 -0.4324 -0.3056 -3.0607
 3828SOL    HW213085   4.740   5.440   2.830  0.4842 -0.1788  2.9318
 3829SOL     OW13086   5.627   2.658   1.090 -0.1204  0.7238  0.2320
 3829SOL    HW113087   5.600   2.711   1.170 -2.9009  1.0018 -0.7802
 3829SOL    HW213088   5.663   2.720   1.020  0.9486  0.6653  0.7230
 3830SOL     OW13089   4.231   0.702   2.258  0.0785 -0.1339 -0.0015
 3830SOL    HW113090   4.149   0.746   2.222 -0.0585  0.5659  1.1106
 3830SOL    HW213091   4.261   0.630   2.195 -1.5490 -0.6097 -0.2834
 3831SOL     OW13092   5.459   0.858   0.829  0.4261  0.9273  0.1114
 3831SOL    HW113093   5.359   0.863   0.835  0.4535  1.2437  0.3680
 3831SOL    HW213094   5.498   0.861   0.921  0.5973 -1.1549  0.1503
 3832SOL     OW13095   6.349   2.716   0.175 -0.0252  0.3461 -0.1241
 3832SOL    HW113096   6.382   2.809   0.159  2.3806 -0.5418 -0.7948
 3832SOL    HW213097   6.398   2.677   0.254 -0.5932 -0.5398 -0.2036
 3833SOL     OW13098   2.851   0.892   5.424 -0.3610 -0.1611  0.2464
 3833SOL    HW113099   2.819   0.852   5.339  0.3202 -0.8524  0.3082
 3833SOL    HW213100   2.850   0.992   5.417 -0.6287 -0.2117 -0.4472
 3834SOL     OW13101   2.835   6.320   2.779 -0.2353  0.2495 -0.2722
 3834SOL    HW113102   2.842   6.384   2.703 -0.5501  0.3145 -0.2468
 3834SOL    HW213103   2.762   6.254   2.762 -2.6638  2.2983  1.4513
 3835SOL     OW13104   4.052   2.844   4.736 -0.3457 -0.6985  0.5172
 3835SOL    HW113105   4.028   2.935   4.769 -0.1067 -0.1631 -0.7433
 3835SOL    HW213106   4.150   2.828   4.747 -0.2244 -0.4258 -0.1300
 3836SOL     OW13107   2.749   1.724   6.658 -0.5619 -0.3720  0.0523
 3836SOL    HW113108   2.699   1.789   6.600  1.2258 -0.7437 -2.0680
 3836SOL    HW213109   2.735   1.632   6.623  1.0458 -0.5426 -0.2094
 3837SOL     OW13110   3.143   5.613   3.055  0.1387  0.0557 -0.0383
 3837SOL    HW113111   3.233   5.652   3.039 -0.2372  0.5485 -1.0314
 3837SOL    HW213112   3.109   5.642   3.144  0.9181 -0.0688  0.3068
 3838SOL     OW13113   0.045   4.133   5.327 -0.6295  0.2251  0.2047
 3838SOL    HW113114   0.137   4.149   5.290 -0.8057  0.5078 -0.1190
 3838SOL    HW213115  -0.003   4.220   5.334 -0.3412  0.2784  1.8113
 3839SOL     OW13116   5.362   4.108   4.525 -0.5337  0.1225  0.0371
 3839SOL    HW113117   5.418   4.188   4.505 -0.2057 -0.2069 -0.3784
 3839SOL    HW213118   5.333   4.066   4.439 -1.8272  0.5642  0.2237
 3840SOL     OW13119   0.634   2.913   0.649 -0.4690  0.5140 -0.4721
 3840SOL    HW113120   0.703   2.966   0.698 -0.1308  1.6884 -2.1291
 3840SOL    HW213121   0.647   2.815   0.667 -0.0429  0.8769  1.3035
 3841SOL     OW13122   0.493   6.874   2.862  1.1587 -0.8376  0.5127
 3841SOL    HW113123   0.493   6.878   2.763 -0.8786  0.7881  0.5141
 3841SOL    HW213124   0.526   6.961   2.899  0.8602 -1.0282  1.2481
 3842SOL     OW13125   1.327   5.795   2.288  0.4917  0.1356 -0.1891
 3842SOL    HW113126   1.280   5.717   2.247 -1.2228  0.7691  0.4769
 3842SOL    HW213127   1.405   5.821   2.231 -0.1337 -0.7719 -1.5071
 3843SOL     OW13128   0.809   2.530   6.514  0.0634 -0.0547 -0.1218
 3843SOL    HW113129   0.826   2.629   6.517  0.3547 -0.0904 -0.5250
 3843SOL    HW213130   0.891   2.483   6.482 -0.5657 -0.2945 -1.4265
 3844SOL     OW13131   3.769   6.294   4.321  0.7415  0.2309 -0.0628
 3844SOL    HW113132   3.752   6.201   4.355  0.1239  0.8453  1.3784
 3844SOL    HW213133   3.864   6.318   4.337  0.5483  0.3726  0.9148
 3845SOL     OW13134   6.171   4.830   1.615 -0.3196 -0.4442 -0.8997
 3845SOL    HW113135   6.189   4.758   1.549  2.3349 -0.0105 -0.7595
 3845SOL    HW213136   6.143   4.913   1.566  2.6509  0.2007 -1.7196
 3846SOL     OW13137   4.432   3.324   0.757  0.0305  0.0656 -0.3786
 3846SOL    HW113138   4.479   3.409   0.734 -0.3682 -0.1612 -2.1600
 3846SOL    HW213139   4.342   3.323   0.715 -1.0914 -0.0986  1.8651
 3847SOL     OW13140   3.123   2.057   0.332  0.0189  0.4523 -0.0517
 3847SOL    HW113141   3.070   1.974   0.312 -0.1270  0.8956 -1.6640
 3847SOL    HW213142   3.162   2.051   0.424  3.3121 -3.2082 -1.4078
 3848SOL     OW13143   2.746   2.782   6.536 -0.1263 -0.0332 -0.7049
 3848SOL    HW113144   2.803   2.812   6.459 -1.2023  1.8233 -0.8573
 3848SOL    HW213145   2.760   2.685   6.552 -0.1472 -0.5897 -3.4987
 3849SOL     OW13146   5.174   3.810   3.350  0.1655 -0.2712 -0.0833
 3849SOL    HW113147   5.127   3.822   3.263 -0.0985 -0.6871 -0.0046
 3849SOL    HW213148   5.137   3.874   3.417 -1.7373 -1.8867  0.5355
 3850SOL     OW13149   1.147   1.324   3.915 -0.5685  0.1835 -0.3344
 3850SOL    HW113150   1.234   1.308   3.870 -0.4527  0.2593 -0.1390
 3850SOL    HW213151   1.134   1.258   3.989 -1.4612 -0.9577 -1.4541
 3851SOL     OW13152   4.703   0.584   2.587  0.2667  0.4332  1.0389
 3851SOL    HW113153   4.783   0.534   2.555  0.0520  1.8911 -2.1358
 3851SOL    HW213154   4.627   0.521   2.600  0.6481 -0.3772 -0.5360
 3852SOL     OW13155   1.628   6.798   5.401  1.1093  0.4550  0.2040
 3852SOL    HW113156   1.666   6.730   5.463  0.8777  0.8639  0.8004
 3852SOL    HW213157   1.652   6.775   5.307 -0.4851 -1.4521  0.2177
 3853SOL     OW13158   3.885   6.541   4.514 -0.2523 -0.3336 -0.6632
 3853SOL    HW113159   3.979   6.533   4.478  0.6525  0.5878  1.3514
 3853SOL    HW213160   3.827   6.585   4.446  1.3695  1.3159 -1.0503
 3854SOL     OW13161   1.546   6.262   6.856 -0.2183  0.4168  0.2736
 3854SOL    HW113162   1.500   6.240   6.769 -1.5462  1.4095  0.6950
 3854SOL    HW213163   1.618   6.195   6.873 -0.3504 -0.1662 -1.2859
 3855SOL     OW13164   6.557   3.526   3.082 -0.7061 -0.1082 -0.3051
 3855SOL    HW113165   6.465   3.507   3.116 -0.6926  0.4389  0.0525
 3855SOL    HW213166   6.621   3.457   3.119 -1.4362 -2.4857 -3.0846
 3856SOL     OW13167   4.713   6.640   0.799 -0.1208 -0.3725  0.0168
 3856SOL    HW113168   4.752   6.572   0.861 -1.2589  1.5171  3.0335
 3856SOL    HW213169   4.787   6.688   0.751  0.9388 -0.6479  1.3230
 3857SOL     OW13170   3.309   2.515   0.769  0.0262 -0.1406  0.2364
 3857SOL    HW113171   3.339   2.582   0.701  3.9030 -2.0829 -0.2335
 3857SOL    HW213172   3.351   2.536   0.857  1.0742 -1.7397  0.1505
 3858SOL     OW13173   3.016   1.751   3.466  0.2001 -0.4207  0.5969
 3858SOL    HW113174   2.994   1.843   3.435  0.6601  0.3574  2.4391
 3858SOL    HW213175   3.072   1.705   3.397 -0.1019  0.6431 -0.3907
 3859SOL     OW13176   4.358   5.412   4.381  0.1203 -0.1552  0.1673
 3859SOL    HW113177   4.303   5.338   4.419  1.1959 -2.1875 -2.0063
 3859SOL    HW213178   4.369   5.398   4.282  1.7514  2.0295 -0.0350
 3860SOL     OW13179   4.231   6.906   3.520 -0.1808 -0.1634 -0.1611
 3860SOL    HW113180   4.325   6.926   3.495  0.1617 -0.4648  0.8597
 3860SOL    HW213181   4.211   6.809   3.501 -0.2993 -0.0969 -0.3888
 3861SOL     OW13182   3.166   5.677   5.396 -0.2913  0.2889  0.1476
 3861SOL    HW113183   3.132   5.718   5.312  1.6853  1.1757 -0.2748
 3861SOL    HW213184   3.136   5.731   5.475  0.6831  1.4688 -0.2646
 3862SOL     OW13185   0.185   4.967   3.872 -0.0159 -0.0913  0.3337
 3862SOL    HW113186   0.094   4.949   3.911  0.1104 -3.2701 -0.5333
 3862SOL    HW213187   0.180   5.046   3.811 -2.7573 -1.2904 -1.1934
 3863SOL     OW13188   5.393   0.043   5.504  0.0173  0.3785 -0.2002
 3863SOL    HW113189   5.294   0.037   5.512 -0.0452  0.0401 -1.1410
 3863SOL    HW213190   5.419   0.137   5.481 -0.0321  0.6156  0.6972
 3864SOL     OW13191   6.554   1.584   3.284 -0.1598  0.7433 -0.4073
 3864SOL    HW113192   6.537   1.648   3.210  0.5700  0.1550 -1.1049
 3864SOL    HW213193   6.653   1.578   3.302 -0.2622  0.2698  0.0458
 3865SOL     OW13194   6.189   6.934   4.686  0.3466 -0.0004  0.1319
 3865SOL    HW113195   6.131   7.003   4.728 -0.5368 -0.1352 -0.8494
 3865SOL    HW213196   6.256   6.978   4.626 -0.0785  0.0350 -0.3262
 3866SOL     OW13197   0.183   0.560   1.206  0.9323 -0.6255  0.2171
 3866SOL    HW113198   0.265   0.579   1.153 -0.5940  0.7155 -1.8298
 3866SOL    HW213199   0.150   0.468   1.185  0.1888 -0.0048 -1.4768
 3867SOL     OW13200   0.588   3.347   0.638 -0.2570  0.3756  0.0897
 3867SOL    HW113201   0.622   3.269   0.585  0.3942 -0.4355  1.6309
 3867SOL    HW213202   0.491   3.334   0.657 -0.5419  0.7733 -1.0552
 3868SOL     OW13203   1.536   4.902   1.272  0.4235  0.4570  0.5663
 3868SOL    HW113204   1.468   4.975   1.272 -2.8176 -2.2855 -0.6338
 3868SOL    HW213205   1.557   4.875   1.366  0.4588  1.8601  0.9756
 3869SOL     OW13206   4.649   1.984   3.912 -0.1267 -0.6088 -0.0308
 3869SOL    HW113207   4.734   2.008   3.959 -0.7823  0.9404  0.3888
 3869SOL    HW213208   4.588   1.936   3.975 -0.6547  0.6963  0.4631
 3870SOL     OW13209   5.643   2.386   1.176  0.1508  0.1784  0.1332
 3870SOL    HW113210   5.737   2.383   1.143  1.4402  0.1264  3.3948
 3870SOL    HW213211   5.600   2.472   1.149  1.0265  0.1172 -1.5634
 3871SOL     OW13212   0.312   3.056   6.489  0.1254  0.1720 -0.1845
 3871SOL    HW113213   0.222   3.019   6.466  0.4706 -1.5976  1.1109
 3871SOL    HW213214   0.335   3.032   6.583  1.6100  1.3279 -0.2142
 3872SOL     OW13215   4.914   0.997   3.051 -0.0064 -0.0521  0.3756
 3872SOL    HW113216   4.836   0.999   2.989 -0.7770 -0.9733  1.2674
 3872SOL    HW213217   4.906   0.918   3.111  1.9134 -0.4989  0.1262
 3873SOL     OW13218   5.761   0.538   1.003 -0.3351 -0.1299 -0.3920
 3873SOL    HW113219   5.758   0.589   0.917 -0.7978 -0.8141 -0.7903
 3873SOL    HW213220   5.669   0.530   1.040 -0.0228  1.0910  0.7490
 3874SOL     OW13221   1.006   4.341   6.942  0.4332  0.4671 -0.7025
 3874SOL    HW113222   0.924   4.287   6.926 -0.2585  1.0719  0.6564
 3874SOL    HW213223   1.006   4.375   7.036  2.6361 -0.1939 -0.3866
 3875SOL     OW13224   4.179   0.263   6.664 -0.0942  0.5748 -0.0726
 3875SOL    HW113225   4.187   0.324   6.586 -1.5958  1.3535  0.3528
 3875SOL    HW213226   4.141   0.314   6.742 -0.7282 -0.7286  0.4907
 3876SOL     OW13227   1.246   4.400   4.449 -0.0186  0.0083 -0.0523
 3876SOL    HW113228   1.311   4.342   4.497 -0.7799  0.4594  1.6019
 3876SOL    HW213229   1.190   4.344   4.388  1.1355 -0.5362 -0.6496
 3877SOL     OW13230   0.831   1.681   4.204 -0.7067  0.0354 -0.0851
 3877SOL    HW113231   0.870   1.724   4.123  1.4622 -1.5013  0.0204
 3877SOL    HW213232   0.856   1.734   4.285 -0.2116 -0.0385 -0.1808
 3878SOL     OW13233   5.488   1.026   6.441  0.0042  0.3613  0.4320
 3878SOL    HW113234   5.486   0.992   6.535  2.3470 -1.0931  0.0255
 3878SOL    HW213235   5.436   0.965   6.382 -0.4564  0.6083  0.5774
 3879SOL     OW13236   4.796   1.434   5.160  0.3291  0.4829 -0.4241
 3879SOL    HW113237   4.772   1.486   5.078 -0.1133  0.9427 -0.0098
 3879SOL    HW213238   4.724   1.445   5.229 -0.1140 -1.2533 -0.5761
 3880SOL     OW13239   2.689   3.472   2.952 -0.0331  0.7294  0.0563
 3880SOL    HW113240   2.778   3.496   2.992 -1.0577  1.3138  2.1592
 3880SOL    HW213241   2.644   3.554   2.919  0.1089  0.4545 -0.8559
 3881SOL     OW13242   0.654   4.879   3.882 -0.1294 -0.4460  0.0198
 3881SOL    HW113243   0.596   4.959   3.864 -0.0447 -0.5217 -0.5975
 3881SOL    HW213244   0.648   4.856   3.979  1.2812  1.4501  0.6183
 3882SOL     OW13245   1.816   6.315   1.739  0.3290 -0.4553  0.1897
 3882SOL    HW113246   1.744   6.358   1.685  0.1621 -1.2528 -0.2405
 3882SOL    HW213247   1.779   6.236   1.787  0.7687 -0.4809  0.4938
 3883SOL     OW13248   2.183   3.224   5.454  0.1150 -0.1385 -0.0810
 3883SOL    HW113249   2.105   3.262   5.503 -0.5244 -0.2257 -0.9922
 3883SOL    HW213250   2.202   3.131   5.487  2.5945  1.3296  3.1732
 3884SOL     OW13251   4.139   0.282   0.551  0.4385  0.0084  0.1435
 3884SOL    HW113252   4.085   0.275   0.635  2.1306 -1.0164  1.2129
 3884SOL    HW213253   4.096   0.348   0.489 -1.6600 -0.3147  1.1622
 3885SOL     OW13254   6.860   4.328   1.295  0.0982 -0.3331 -0.2464
 3885SOL    HW113255   6.924   4.323   1.372 -1.2898 -0.5985  0.9379
 3885SOL    HW213256   6.842   4.424   1.273  1.5193 -0.2479 -1.1566
 3886SOL     OW13257   6.045   2.188   4.476  0.0083  0.2191  0.1565
 3886SOL    HW113258   6.052   2.101   4.523  0.5711 -0.1952 -0.6725
 3886SOL    HW213259   6.032   2.173   4.378  0.4756  1.0584 -0.0504
 3887SOL     OW13260   0.022   4.119   1.613 -0.7732 -0.0310  0.3237
 3887SOL    HW113261  -0.069   4.084   1.634 -1.1773  0.4355 -0.5859
 3887SOL    HW213262   0.037   4.206   1.661 -1.3896  0.6373 -0.6589
 3888SOL     OW13263   1.765   2.743   4.581  0.8452 -0.0555 -0.2213
 3888SOL    HW113264   1.727   2.669   4.636 -2.1052  1.0819 -0.5490
 3888SOL    HW213265   1.768   2.826   4.635 -1.0164  0.8013 -1.3078
 3889SOL     OW13266   6.766   5.983   5.514  0.1025  0.1697  0.1294
 3889SOL    HW113267   6.705   6.058   5.540 -0.4414 -0.1062 -0.3000
 3889SOL    HW213268   6.728   5.897   5.546  1.2220  0.1458  1.4799
 3890SOL     OW13269   3.839   2.049   0.050  0.3985 -0.0862 -0.3920
 3890SOL    HW113270   3.760   2.036   0.110  0.1476 -1.8643 -1.0592
 3890SOL    HW213271   3.889   2.131   0.078 -0.6524  0.0571  1.1735
 3891SOL     OW13272   0.294   4.674   4.351  0.0170  0.5507 -0.2029
 3891SOL    HW113273   0.283   4.773   4.354 -1.2273  0.4485 -0.7675
 3891SOL    HW213274   0.381   4.649   4.393 -0.8171  1.6588  2.3982
 3892SOL     OW13275   3.551   1.295   0.879 -0.9170  0.2768  0.2266
 3892SOL    HW113276   3.533   1.371   0.941 -0.4646  0.3005  0.3274
 3892SOL    HW213277   3.582   1.330   0.791 -2.0450  0.2670 -0.1898
 3893SOL     OW13278   4.628   5.318   6.966 -0.5839  0.5439 -0.4697
 3893SOL    HW113279   4.719   5.341   6.931 -0.1632  0.3713  0.4669
 3893SOL    HW213280   4.637   5.278   7.057 -1.5386 -0.2492 -0.7054
 3894SOL     OW13281   2.395   3.121   4.874 -0.4665 -0.4351 -0.5384
 3894SOL    HW113282   2.488   3.134   4.911 -1.0231 -1.1322  1.2305
 3894SOL    HW213283   2.401   3.099   4.777  1.2059 -0.1105 -0.5474
 3895SOL     OW13284   3.695   5.875   5.866  0.0949  0.2714 -0.3822
 3895SOL    HW113285   3.791   5.845   5.871 -0.7189 -2.4429  0.9608
 3895SOL    HW213286   3.666   5.878   5.771  0.9393 -1.0004 -0.7004
 3896SOL     OW13287   2.801   6.367   3.849  0.3341  0.3805 -0.1489
 3896SOL    HW113288   2.744   6.328   3.921  2.7400 -0.3118  1.5070
 3896SOL    HW213289   2.810   6.301   3.774 -0.7258  0.3920 -0.3116
 3897SOL     OW13290   4.728   4.748   4.369  0.1902  0.2088  0.1803
 3897SOL    HW113291   4.826   4.735   4.382  0.2308  0.8205  0.5114
 3897SOL    HW213292   4.685   4.767   4.457 -0.1968  0.1489  0.0080
 3898SOL     OW13293   5.314   6.382   2.455  0.2723  0.0545 -0.7037
 3898SOL    HW113294   5.329   6.479   2.474  1.5988 -0.3644  0.5032
 3898SOL    HW213295   5.360   6.358   2.369 -1.3397  0.7898 -1.8295
 3899SOL     OW13296   6.406   5.075   0.142 -0.5522  0.0655 -0.1721
 3899SOL    HW113297   6.323   5.024   0.121 -0.1829 -1.0608  1.0051
 3899SOL    HW213298   6.384   5.173   0.150 -1.5399 -0.0755 -0.9726
 3900SOL     OW13299   0.690   0.230   6.101  0.1385 -0.1759  0.5060
 3900SOL    HW113300   0.657   0.170   6.028  0.2954 -0.8454  0.9699
 3900SOL    HW213301   0.762   0.289   6.066  0.3494 -0.6264  0.1645
 3901SOL     OW13302   0.265   0.827   5.745 -0.1304  0.0684 -0.1864
 3901SOL    HW113303   0.345   0.798   5.797 -1.2121  0.3395  1.7126
 3901SOL    HW213304   0.268   0.786   5.654  0.2526 -3.0245  1.1117
 3902SOL     OW13305   4.187   4.228   1.395 -0.1372 -0.2827  0.5372
 3902SOL    HW113306   4.191   4.128   1.386  0.4887 -0.1607 -0.7597
 3902SOL    HW213307   4.255   4.258   1.462  0.2428 -0.6771  0.3406
 3903SOL     OW13308   3.959   4.967   3.630 -0.3384  0.7056  0.5729
 3903SOL    HW113309   3.999   4.947   3.540  0.7878  1.6065  0.8463
 3903SOL    HW213310   3.887   5.035   3.620  0.5837  1.6991  0.4589
 3904SOL     OW13311   4.791   2.755   5.068 -0.1745 -0.0188 -0.7026
 3904SOL    HW113312   4.799   2.691   5.144 -1.0322  0.2851 -0.3391
 3904SOL    HW213313   4.777   2.848   5.104  0.4159  0.2831 -1.2277
 3905SOL     OW13314   6.472   0.247   0.685 -0.5612 -0.4077 -0.3325
 3905SOL    HW113315   6.394   0.254   0.623 -0.2585  3.2009 -0.5309
 3905SOL    HW213316   6.457   0.305   0.765  1.2455 -0.8872  0.4120
 3906SOL     OW13317   1.448   2.768   2.548 -0.6798  0.1214 -0.6919
 3906SOL    HW113318   1.440   2.855   2.597 -0.3741 -0.1422 -0.1637
 3906SOL    HW213319   1.539   2.759   2.509 -0.8280  0.1979 -1.0598
 3907SOL     OW13320   6.127   0.381   4.485 -0.6039  0.2722  0.2958
 3907SOL    HW113321   6.211   0.421   4.447  0.0665 -0.3347  1.1100
 3907SOL    HW213322   6.049   0.436   4.456  0.2337  1.8666  0.9095
 3908SOL     OW13323   5.727   2.971   3.929  0.3740 -0.2215 -0.2829
 3908SOL    HW113324   5.756   3.031   3.854  1.6875  0.2117  0.5460
 3908SOL    HW213325   5.766   3.004   4.015 -2.0630 -0.0002  0.8340
 3909SOL     OW13326   6.029   6.422   0.892 -0.3589 -0.0476  0.1810
 3909SOL    HW113327   6.069   6.448   0.980  0.6676 -1.0280  0.0188
 3909SOL    HW213328   6.090   6.449   0.818 -0.0591 -1.3956 -0.0844
 3910SOL     OW13329   6.077   1.206   0.480 -0.6303  0.2269  0.1436
 3910SOL    HW113330   6.174   1.228   0.485  0.3427 -3.6017  0.8959
 3910SOL    HW213331   6.046   1.210   0.385 -0.1808  2.7799  0.0398
 3911SOL     OW13332   4.493   1.496   2.722  0.1012 -0.3401  0.5344
 3911SOL    HW113333   4.474   1.404   2.755 -1.6778  0.9322  3.4164
 3911SOL    HW213334   4.556   1.542   2.785  0.6820  0.5935 -0.6741
 3912SOL     OW13335   1.186   1.974   1.996  0.2499 -0.2833  0.6163
 3912SOL    HW113336   1.285   1.985   1.995  0.3099 -0.7712 -0.6316
 3912SOL    HW213337   1.145   2.040   2.059  1.2313  1.0723 -0.1231
 3913SOL     OW13338   6.578   4.940   3.257  0.0969  0.5722 -0.0808
 3913SOL    HW113339   6.662   4.888   3.240  1.6227  2.2327  1.9659
 3913SOL    HW213340   6.514   4.884   3.310  0.9777  0.1787  0.5797
 3914SOL     OW13341   2.651   4.436   4.643  0.0520 -0.0204 -0.1759
 3914SOL    HW113342   2.551   4.448   4.645  0.1593  1.0503 -0.3992
 3914SOL    HW213343   2.686   4.469   4.555  0.7885  1.3448  0.6036
 3915SOL     OW13344   1.236   1.160   0.016  0.2880  0.3129 -0.8051
 3915SOL    HW113345   1.317   1.150   0.074 -0.1208 -0.3133 -0.3451
 3915SOL    HW213346   1.154   1.140   0.068 -0.2600  1.8981 -1.0061
 3916SOL     OW13347   2.724   4.582   5.790 -0.2611  0.0017  0.7101
 3916SOL    HW113348   2.628   4.557   5.778 -0.3740  1.2779 -1.3016
 3916SOL    HW213349   2.782   4.512   5.747 -0.3443  0.1221  0.4055
 3917SOL     OW13350   2.355   5.876   1.560  0.0951 -0.5159  0.5146
 3917SOL    HW113351   2.264   5.898   1.595  1.4165 -0.0115  4.1235
 3917SOL    HW213352   2.420   5.947   1.588  2.0875 -2.2859  0.6748
 3918SOL     OW13353   6.716   1.545   5.087  0.0987  0.6503  0.1416
 3918SOL    HW113354   6.748   1.590   5.004  1.2890  1.3424  0.9424
 3918SOL    HW213355   6.630   1.587   5.118 -0.3706  0.3578 -0.7335
 3919SOL     OW13356   0.731   6.859   2.147 -0.0589  0.2973 -0.0021
 3919SOL    HW113357   0.803   6.791   2.160 -0.8028 -0.3872  0.6736
 3919SOL    HW213358   0.648   6.828   2.193 -0.5637  1.4339 -0.1217
 3920SOL     OW13359   1.632   1.417   1.078  0.2157 -0.5572  0.1499
 3920SOL    HW113360   1.643   1.389   0.983 -1.2661 -0.6973 -0.0101
 3920SOL    HW213361   1.599   1.339   1.132  3.2768 -1.1759  1.3233
 3921SOL     OW13362   5.296   2.204   6.845 -0.2291 -0.3545 -0.1398
 3921SOL    HW113363   5.274   2.258   6.926 -0.2939  0.7659 -0.8744
 3921SOL    HW213364   5.277   2.259   6.763 -0.4664 -1.5747 -0.9169
 3922SOL     OW13365   4.515   1.032   0.178 -0.4334 -0.5186 -0.5494
 3922SOL    HW113366   4.445   1.031   0.106 -1.0838  0.9491  0.0112
 3922SOL    HW213367   4.572   1.114   0.168  0.3724 -1.0218 -0.2112
 3923SOL     OW13368   0.559   1.458   4.504  0.2773 -0.2960 -0.3207
 3923SOL    HW113369   0.587   1.457   4.408  0.7431  0.2545 -0.2001
 3923SOL    HW213370   0.628   1.413   4.560  0.1123 -0.4237 -0.2193
 3924SOL     OW13371   3.866   4.768   1.894  0.3322 -0.2349 -0.0122
 3924SOL    HW113372   3.926   4.692   1.867 -0.5681 -0.0635 -2.8389
 3924SOL    HW213373   3.789   4.773   1.830  0.0063  2.6537  0.4864
 3925SOL     OW13374   4.001   2.609   0.439 -0.3288 -0.1020 -0.2646
 3925SOL    HW113375   4.049   2.692   0.410  1.5747 -0.0272  2.6494
 3925SOL    HW213376   4.061   2.530   0.426 -1.1127 -0.6557 -0.5655
 3926SOL     OW13377   5.628   1.892   5.146  0.1019  0.0249  0.3252
 3926SOL    HW113378   5.561   1.932   5.208 -0.5644 -2.0499  1.0260
 3926SOL    HW213379   5.583   1.866   5.060  0.7132  1.4989 -0.4852
 3927SOL     OW13380   3.046   2.394   2.226  0.3960  0.0544  0.8326
 3927SOL    HW113381   3.069   2.342   2.144 -2.7901 -0.7287  0.2995
 3927SOL    HW213382   3.039   2.331   2.304  0.7359  0.3599  1.1081
 3928SOL     OW13383   6.204   4.867   6.075 -0.2944  0.2302 -0.2502
 3928SOL    HW113384   6.211   4.791   6.139 -1.3921 -0.3577 -0.7913
 3928SOL    HW213385   6.125   4.924   6.098 -0.4545  0.2501 -0.8353
 3929SOL     OW13386   2.023   2.910   5.355  0.0372  0.2012 -0.0947
 3929SOL    HW113387   2.048   2.917   5.452 -0.0206  0.7652 -0.1202
 3929SOL    HW213388   2.097   2.945   5.298 -0.0480  0.1404 -0.2440
 3930SOL     OW13389   4.112   0.834   3.003  0.5125  0.0688  0.4580
 3930SOL    HW113390   4.123   0.932   2.993 -0.8716  0.1134 -1.1378
 3930SOL    HW213391   4.160   0.787   2.929 -0.8241 -0.2931 -0.2108
 3931SOL     OW13392   6.961   2.038   6.190 -0.0520 -0.7406 -0.0384
 3931SOL    HW113393   6.919   2.055   6.279  0.0018 -0.7968 -0.0027
 3931SOL    HW213394   6.912   1.963   6.144 -0.2019 -0.5839 -0.1373
 3932SOL     OW13395   0.871   1.786   0.790  0.1334  0.1874 -0.0852
 3932SOL    HW113396   0.843   1.710   0.731 -1.3766  1.3308 -0.9112
 3932SOL    HW213397   0.808   1.863   0.777  1.8123  1.7144  0.4691
 3933SOL     OW13398   6.478   1.470   2.982 -0.1805  0.2386  0.2046
 3933SOL    HW113399   6.457   1.547   3.042 -1.0744 -0.4534  0.7984
 3933SOL    HW213400   6.396   1.414   2.969  0.1484  0.0330 -1.1797
 3934SOL     OW13401   5.536   4.814   3.137 -0.4823  0.3698 -0.0628
 3934SOL    HW113402   5.500   4.824   3.044  0.1719  0.5356 -0.3127
 3934SOL    HW213403   5.616   4.755   3.134 -1.5565 -1.1612  0.6966
 3935SOL     OW13404   6.218   0.462   5.396 -0.0708 -0.4372 -0.1715
 3935SOL    HW113405   6.160   0.514   5.459  2.4538 -0.3288  2.2227
 3935SOL    HW213406   6.254   0.523   5.326 -0.1465  0.2189  0.3485
 3936SOL     OW13407   2.253   6.818   5.717 -0.3405 -0.2261 -0.1606
 3936SOL    HW113408   2.195   6.737   5.723 -0.7779 -0.1255 -2.2023
 3936SOL    HW213409   2.197   6.898   5.698  0.3295  0.0641 -0.9972
 3937SOL     OW13410   6.850   4.853   6.749 -0.6661  0.6228  0.5053
 3937SOL    HW113411   6.796   4.926   6.706  0.8614  1.9532  0.7460
 3937SOL    HW213412   6.942   4.851   6.709 -0.8015 -1.5062  0.1960
 3938SOL     OW13413   1.205   1.378   2.713  0.4925  0.0128 -0.1665
 3938SOL    HW113414   1.106   1.361   2.718  0.6318 -0.7239  0.2493
 3938SOL    HW213415   1.249   1.306   2.660  0.7338  0.6898 -0.9056
 3939SOL     OW13416   1.811   1.778   4.621 -0.6695  0.0964  0.7328
 3939SOL    HW113417   1.717   1.744   4.619 -0.8240  0.5097 -1.5772
 3939SOL    HW213418   1.809   1.878   4.623 -0.3139  0.1288 -0.1119
 3940SOL     OW13419   3.267   2.397   6.571 -0.5917  0.0958  0.5881
 3940SOL    HW113420   3.260   2.496   6.555 -1.4305  0.1140  1.0328
 3940SOL    HW213421   3.325   2.356   6.500 -3.7782  0.2095 -2.3450
 3941SOL     OW13422   4.537   0.738   1.150 -0.6012 -0.2165  0.3682
 3941SOL    HW113423   4.489   0.819   1.116 -2.5590 -1.9760 -1.2799
 3941SOL    HW213424   4.631   0.763   1.173 -1.2198  2.5755  0.2563
 3942SOL     OW13425   1.406   5.238   3.165  0.2871  0.1415 -0.1339
 3942SOL    HW113426   1.490   5.293   3.166  1.8432 -2.0850  0.9944
 3942SOL    HW213427   1.402   5.182   3.248 -0.9622 -1.8033 -1.4180
 3943SOL     OW13428   0.128   5.282   5.780  0.1479  0.5937 -0.1200
 3943SOL    HW113429   0.031   5.301   5.773 -0.1096 -0.3380  0.6963
 3943SOL    HW213430   0.154   5.214   5.711 -0.5649 -1.8914  1.9074
 3944SOL     OW13431   6.298   4.701   0.536  0.1002 -0.3308 -0.1637
 3944SOL    HW113432   6.334   4.734   0.448  2.7999 -0.8398  0.6638
 3944SOL    HW213433   6.265   4.779   0.590  0.9026  0.3053 -0.5753
 3945SOL     OW13434   4.153   6.212   4.137 -0.2389  0.2160  0.3214
 3945SOL    HW113435   4.114   6.161   4.214  0.6908  1.3642  1.5943
 3945SOL    HW213436   4.096   6.198   4.056 -1.5538 -0.5825  1.3424
 3946SOL     OW13437   3.908   4.171   1.262 -0.0688 -0.0799 -0.0520
 3946SOL    HW113438   3.825   4.116   1.267 -0.7388  0.9698  0.6354
 3946SOL    HW213439   3.978   4.121   1.211 -0.8648 -1.2905  0.0134
 3947SOL     OW13440   4.609   2.255   6.443  0.3897  0.0418  0.0388
 3947SOL    HW113441   4.647   2.185   6.383 -0.8107 -0.9145  0.3319
 3947SOL    HW213442   4.560   2.323   6.389 -2.7581 -2.0980 -0.0711
 3948SOL     OW13443   2.537   1.991   4.983 -0.2943 -0.2733  0.1421
 3948SOL    HW113444   2.524   2.051   4.904 -1.0852  1.0227  1.2335
 3948SOL    HW213445   2.632   1.957   4.983  0.4327  1.6406 -0.0376
 3949SOL     OW13446   1.680   2.420   3.810 -0.3436 -0.8234  0.3368
 3949SOL    HW113447   1.632   2.506   3.824  0.2240 -0.5838  0.8128
 3949SOL    HW213448   1.651   2.353   3.879  0.0408 -0.6615  0.6586
 3950SOL     OW13449   2.944   0.113   2.248  0.2856  0.2856 -0.7733
 3950SOL    HW113450   2.850   0.077   2.242  0.3370  0.3659 -2.3146
 3950SOL    HW213451   3.002   0.045   2.295 -0.6043  0.4269  0.6063
 3951SOL     OW13452   6.563   4.654   6.826 -0.5094 -0.1918 -0.0028
 3951SOL    HW113453   6.657   4.625   6.812  0.1531  1.0862  1.5552
 3951SOL    HW213454   6.560   4.732   6.888 -2.6355 -0.4763  0.3498
 3952SOL     OW13455   0.969   2.411   4.528  0.1604 -0.2147 -0.0673
 3952SOL    HW113456   0.928   2.334   4.479  2.0893 -1.2275 -0.1859
 3952SOL    HW213457   0.897   2.465   4.571 -1.3154 -1.5123 -0.8015
 3953SOL     OW13458   0.238   0.619   1.824  0.3704  0.2662  0.3749
 3953SOL    HW113459   0.154   0.590   1.779  0.8219  0.1173 -0.3915
 3953SOL    HW213460   0.217   0.689   1.893 -0.1185  2.2658 -1.6768
 3954SOL     OW13461   6.475   6.722   0.955 -0.4050 -0.0652  0.1231
 3954SOL    HW113462   6.552   6.727   0.891 -0.5910 -0.7413 -0.1543
 3954SOL    HW213463   6.389   6.738   0.906 -0.6171 -1.3424  0.0464
 3955SOL     OW13464   4.935   5.000   5.407 -0.2218 -0.3288  0.3657
 3955SOL    HW113465   4.999   4.971   5.478  0.1763  0.9675  0.5574
 3955SOL    HW213466   4.913   5.097   5.419 -1.4807 -0.5122 -0.2738
 3956SOL     OW13467   2.725   2.048   6.013 -0.4030 -0.0928 -0.2100
 3956SOL    HW113468   2.810   2.000   6.034  1.0391  1.4979 -2.0673
 3956SOL    HW213469   2.679   2.003   5.936 -1.0048 -0.6540  0.4672
 3957SOL     OW13470   0.006   3.192   6.528 -0.5081  0.5584  0.0285
 3957SOL    HW113471  -0.084   3.209   6.567 -1.0090 -0.2300 -0.7473
 3957SOL    HW213472   0.009   3.100   6.489  1.3141 -0.2876  1.9384
 3958SOL     OW13473   4.933   3.703   2.908 -0.8181  0.5292  0.1410
 3958SOL    HW113474   5.002   3.749   2.853 -0.6340  0.1942  0.0884
 3958SOL    HW213475   4.880   3.770   2.959  0.9288  0.6831  1.8343
 3959SOL     OW13476   5.217   6.481   5.896 -0.6199 -0.0664 -0.0145
 3959SOL    HW113477   5.171   6.461   5.810  0.2354  2.5165 -1.1637
 3959SOL    HW213478   5.196   6.574   5.925  1.7814  0.3179  0.7581
 3960SOL     OW13479   2.166   2.652   0.301  0.1151 -0.3570  0.5338
 3960SOL    HW113480   2.158   2.717   0.376 -1.0575 -1.5320  1.4552
 3960SOL    HW213481   2.113   2.570   0.321 -0.2707 -0.6893 -1.5995
 3961SOL     OW13482   1.307   6.218   5.801  0.0847  0.3029  0.1822
 3961SOL    HW113483   1.250   6.252   5.877  1.8191 -1.6733  2.5094
 3961SOL    HW213484   1.248   6.173   5.734 -1.2745 -0.7515  1.9794
 3962SOL     OW13485   0.065   1.308   5.280 -0.0335 -0.1832 -0.4422
 3962SOL    HW113486   0.021   1.223   5.249 -2.0605  1.2586 -1.7216
 3962SOL    HW213487   0.065   1.310   5.380  0.1178 -1.7066 -0.3801
 3963SOL     OW13488   3.998   3.803   6.264 -0.2087 -0.0565  0.0800
 3963SOL    HW113489   4.037   3.770   6.177 -1.0725  0.9246 -0.7083
 3963SOL    HW213490   3.918   3.747   6.287  0.9737 -1.3971  1.1571
 3964SOL     OW13491   5.579   1.821   5.469 -0.4908 -0.3572  0.0757
 3964SOL    HW113492   5.492   1.868   5.482 -0.8725 -0.7501 -0.9445
 3964SOL    HW213493   5.571   1.727   5.500 -0.5666 -0.5169 -0.4247
 3965SOL     OW13494   2.005   5.193   6.002 -0.5508 -0.4467  0.4193
 3965SOL    HW113495   1.981   5.216   6.097  0.6430  0.2042  0.5775
 3965SOL    HW213496   2.101   5.215   5.986 -0.8104 -0.3125 -1.0280
 3966SOL     OW13497   5.822   6.980   6.638 -0.2724 -0.0466 -0.2691
 3966SOL    HW113498   5.922   6.969   6.642 -0.0934  1.5877  0.2170
 3966SOL    HW213499   5.779   6.898   6.676  0.8900 -0.5935 -0.0775
 3967SOL     OW13500   2.293   6.120   6.191  0.0348  0.5341 -0.4915
 3967SOL    HW113501   2.386   6.156   6.181  0.7261 -0.0584  2.5482
 3967SOL    HW213502   2.280   6.090   6.286 -2.5069 -1.5775 -1.3946
 3968SOL     OW13503   0.635   6.280   2.142  0.7156  0.2633  0.2868
 3968SOL    HW113504   0.536   6.292   2.153  0.9046  2.9207 -0.2826
 3968SOL    HW213505   0.683   6.330   2.214  1.6309  1.6153 -1.1876
 3969SOL     OW13506   1.231   4.664   0.185 -0.2797 -0.0858  0.1959
 3969SOL    HW113507   1.323   4.691   0.157 -0.0789 -2.0547 -1.2951
 3969SOL    HW213508   1.166   4.691   0.114 -0.3124 -1.7416 -0.4522
 3970SOL     OW13509   3.683   3.152   2.058 -0.0561 -0.5399  0.1806
 3970SOL    HW113510   3.635   3.082   2.111  0.1274 -0.2695  0.7102
 3970SOL    HW213511   3.705   3.116   1.968  1.8147 -1.8971  1.1217
 3971SOL     OW13512   2.256   4.108   0.512  0.5567 -0.4150  0.7006
 3971SOL    HW113513   2.235   4.201   0.483  1.7228 -0.4604 -0.3605
 3971SOL    HW213514   2.272   4.107   0.611  2.8017  0.9937  0.4187
 3972SOL     OW13515   3.136   5.052   6.842 -0.1994  0.2460 -0.8135
 3972SOL    HW113516   3.057   5.025   6.896 -0.8288  0.4718 -1.5964
 3972SOL    HW213517   3.152   4.984   6.770  1.3408 -0.6686  0.3229
 3973SOL     OW13518   3.517   6.413   2.440 -0.1919 -0.0218  0.1905
 3973SOL    HW113519   3.539   6.423   2.343 -0.4605  1.4330  0.2673
 3973SOL    HW213520   3.578   6.344   2.481 -1.3233 -2.0955 -1.4027
 3974SOL     OW13521   0.131   4.288   4.024  0.1411  0.3070  0.4810
 3974SOL    HW113522   0.217   4.297   3.973 -0.8876  0.4256 -1.2972
 3974SOL    HW213523   0.113   4.372   4.075 -0.5643  1.6627 -1.8562
 3975SOL     OW13524   5.784   1.271   1.031  0.3348  0.2815  0.2243
 3975SOL    HW113525   5.700   1.263   1.086  0.6654 -1.5458  0.5205
 3975SOL    HW213526   5.863   1.274   1.091  0.6167 -0.3370 -0.1058
 3976SOL     OW13527   0.417   4.960   0.860 -0.6176  0.3370 -0.4513
 3976SOL    HW113528   0.494   4.914   0.817  0.6334  1.6524  0.2977
 3976SOL    HW213529   0.427   4.959   0.959 -2.4096 -0.8398 -0.2206
 3977SOL     OW13530   3.154   3.197   5.313  0.3026 -0.0141 -0.4357
 3977SOL    HW113531   3.090   3.265   5.347 -0.1620  0.2713 -1.8314
 3977SOL    HW213532   3.179   3.134   5.387  2.2059  2.7217  1.4451
 3978SOL     OW13533   2.746   0.458   6.077  0.1861  0.7364  0.1761
 3978SOL    HW113534   2.792   0.381   6.033 -1.4137  0.0205 -0.3140
 3978SOL    HW213535   2.812   0.511   6.129  1.6302  0.0057 -0.8509
 3979SOL     OW13536   0.247   3.301   6.029 -0.1311  0.1695  0.1805
 3979SOL    HW113537   0.297   3.262   6.106  2.3259  1.5319 -0.6223
 3979SOL    HW213538   0.274   3.397   6.016 -2.0453  0.5995 -1.0978
 3980SOL     OW13539   0.721   3.008   1.238 -0.1114 -0.0335  0.9613
 3980SOL    HW113540   0.769   3.047   1.316 -1.5793  1.1571  1.2927
 3980SOL    HW213541   0.765   2.921   1.213 -0.3379 -1.0933  3.8480
 3981SOL     OW13542   0.074   4.681   1.022 -0.1321  0.7902  0.0748
 3981SOL    HW113543   0.116   4.769   1.043  0.7619  0.6527 -1.0458
 3981SOL    HW213544   0.105   4.650   0.932 -1.8342  0.1846 -0.3416
 3982SOL     OW13545   5.461   4.565   5.890  0.9114  0.1726  0.4550
 3982SOL    HW113546   5.383   4.539   5.833 -1.7378  0.8108  3.4218
 3982SOL    HW213547   5.465   4.665   5.897  2.6301  0.1971 -0.3320
 3983SOL     OW13548   2.770   3.147   4.065  0.5407 -0.0258  0.2720
 3983SOL    HW113549   2.708   3.129   3.989 -0.7263  0.8490  1.0634
 3983SOL    HW213550   2.752   3.082   4.139  0.0382  0.6805  0.7881
 3984SOL     OW13551   1.863   5.369   1.929 -0.3168  0.5812  0.1878
 3984SOL    HW113552   1.843   5.353   2.025 -1.4660  0.9226  0.0259
 3984SOL    HW213553   1.922   5.449   1.920 -0.9104  1.0774  0.5822
 3985SOL     OW13554   0.937   1.784   3.944  0.1231  0.0351  0.2301
 3985SOL    HW113555   0.933   1.744   3.853  1.9622  0.5158 -0.1071
 3985SOL    HW213556   1.018   1.749   3.992 -0.5421  0.1778  1.4925
 3986SOL     OW13557   0.385   5.677   2.732 -0.6642 -0.2520  0.3003
 3986SOL    HW113558   0.485   5.673   2.724 -0.6944  0.4845 -0.6137
 3986SOL    HW213559   0.356   5.772   2.737 -1.2680 -0.4823  1.6059
 3987SOL     OW13560   4.742   3.079   1.859  0.3867 -0.1532 -0.4436
 3987SOL    HW113561   4.810   3.097   1.931  0.7429 -0.0971 -0.7927
 3987SOL    HW213562   4.757   2.987   1.822  0.0882 -0.2513 -0.3223
 3988SOL     OW13563   2.076   3.120   5.827 -0.4812  0.2110 -0.3799
 3988SOL    HW113564   1.996   3.148   5.880 -0.2294  1.5956 -0.6838
 3988SOL    HW213565   2.085   3.180   5.747  0.4612 -0.3827 -0.7364
 3989SOL     OW13566   1.199   3.324   6.974  0.3495  0.3760 -0.2670
 3989SOL    HW113567   1.108   3.303   7.010  0.2374 -1.6572 -1.5950
 3989SOL    HW213568   1.268   3.279   7.031  0.4846  1.1129  0.1652
 3990SOL     OW13569   0.513   2.795   1.946  0.5877  0.2032  0.1397
 3990SOL    HW113570   0.557   2.707   1.966 -0.8042 -0.6515 -0.4419
 3990SOL    HW213571   0.424   2.799   1.992  0.0228  0.7106 -0.9692
 3991SOL     OW13572   5.842   4.602   2.765  0.6703 -0.2228  0.6362
 3991SOL    HW113573   5.901   4.673   2.725 -0.3735  0.4564  0.2506
 3991SOL    HW213574   5.832   4.619   2.863  1.2393 -0.4483  0.7417
 3992SOL     OW13575   3.173   4.947   1.113  0.4856 -0.0306 -0.3822
 3992SOL    HW113576   3.101   4.883   1.140 -0.7723  1.1069 -0.9150
 3992SOL    HW213577   3.242   4.899   1.059 -0.9939 -0.7496 -1.7221
 3993SOL     OW13578   0.988   3.612   2.497  0.1975  0.1782  0.0987
 3993SOL    HW113579   1.046   3.607   2.415  1.5693  0.4986  1.0090
 3993SOL    HW213580   1.043   3.646   2.574 -1.7567  2.6038  0.5231
 3994SOL     OW13581   5.193   0.389   0.629  0.1906 -0.1649  0.4539
 3994SOL    HW113582   5.205   0.481   0.591  0.2499 -0.4461 -0.2151
 3994SOL    HW213583   5.282   0.353   0.656  0.2854 -0.3889 -0.1447
 3995SOL     OW13584   0.827   3.275   0.873 -0.1086 -0.6715  0.3118
 3995SOL    HW113585   0.764   3.306   0.802  1.6863  4.3719  0.5472
 3995SOL    HW213586   0.780   3.275   0.962 -0.8873 -1.4745 -0.0820
 3996SOL     OW13587   5.011   1.628   1.854 -0.1936  0.0549  0.2045
 3996SOL    HW113588   5.010   1.536   1.892 -0.4828 -0.2517 -0.5338
 3996SOL    HW213589   4.917   1.662   1.846 -0.2821 -0.5707 -1.8448
 3997SOL     OW13590   5.368   5.357   5.422 -0.0183  0.4381 -0.6572
 3997SOL    HW113591   5.332   5.385   5.333  1.0263  1.7192 -0.6956
 3997SOL    HW213592   5.310   5.393   5.495 -0.8977 -0.6452 -0.7912
 3998SOL     OW13593   6.264   4.092   4.255  0.3277 -0.1933  0.5178
 3998SOL    HW113594   6.178   4.106   4.207 -0.6855 -4.4932  0.7207
 3998SOL    HW213595   6.323   4.031   4.202  3.3735  2.5123  0.4346
 3999SOL     OW13596   1.251   2.782   5.138  0.1935  0.1062  0.0383
 3999SOL    HW113597   1.273   2.827   5.225 -0.7296  0.2191  0.2222
 3999SOL    HW213598   1.285   2.688   5.140  1.3259  0.5036  0.0110
 4000SOL     OW13599   1.420   6.242   1.317  0.0744 -0.2638 -0.3232
 4000SOL    HW113600   1.341   6.304   1.321  0.9045  0.7708  0.3830
 4000SOL    HW213601   1.476   6.255   1.398  0.9280 -1.0660 -0.7764
 4001SOL     OW13602   2.434   5.200   2.188  0.1440 -0.6768  0.4897
 4001SOL    HW113603   2.424   5.284   2.241  0.7011 -0.3805  0.1418
 4001SOL    HW213604   2.513   5.149   2.220  0.2064 -0.7303  0.2550
 4002SOL     OW13605   6.411   3.422   4.620 -0.4350  0.1285 -0.0597
 4002SOL    HW113606   6.351   3.400   4.698  0.5219  0.6236  0.8367
 4002SOL    HW213607   6.374   3.500   4.571  0.6360  1.9397  1.8729
 4003SOL     OW13608   6.820   4.693   1.995  0.6635 -0.4699  0.0889
 4003SOL    HW113609   6.742   4.707   1.934  0.4736 -0.3466  0.3545
 4003SOL    HW213610   6.795   4.723   2.088  1.0983 -0.2155  0.1288
 4004SOL     OW13611   4.381   3.713   3.203 -0.1339 -0.1335  0.0617
 4004SOL    HW113612   4.340   3.624   3.180  1.4560 -0.5837 -1.2008
 4004SOL    HW213613   4.476   3.714   3.174  0.0093  1.8371  0.4899
 4005SOL     OW13614   6.566   0.658   4.817  0.4041 -0.5538  0.4124
 4005SOL    HW113615   6.545   0.563   4.836 -0.2701 -0.4014  0.4474
 4005SOL    HW213616   6.664   0.667   4.796  0.2025 -1.5038 -1.1269
 4006SOL     OW13617   3.672   1.242   0.419 -0.0222  0.4447  0.8497
 4006SOL    HW113618   3.584   1.224   0.463 -0.5762  2.0764  0.4463
 4006SOL    HW213619   3.710   1.156   0.386 -2.4410 -0.0664 -0.8225
 4007SOL     OW13620   2.020   2.303   0.078 -0.0927 -0.1502  0.1085
 4007SOL    HW113621   1.921   2.293   0.068 -0.1475  1.0764 -0.8018
 4007SOL    HW213622   2.066   2.232   0.025 -0.4971  1.5283 -2.7496
 4008SOL     OW13623   3.011   4.024   1.410  0.2138 -0.4283 -0.1979
 4008SOL    HW113624   2.954   4.098   1.375 -0.5772  0.1324  2.1374
 4008SOL    HW213625   3.100   4.026   1.363 -0.2068  1.2523 -1.0073
 4009SOL     OW13626   1.818   4.766   2.463  0.0124 -0.5235 -0.2423
 4009SOL    HW113627   1.916   4.749   2.448 -0.0314 -1.1774  0.1552
 4009SOL    HW213628   1.771   4.678   2.476 -0.6293 -0.2125 -0.4373
 4010SOL     OW13629   4.233   0.659   4.658  0.4239 -0.2483 -0.0675
 4010SOL    HW113630   4.153   0.706   4.696  1.0564  1.8843 -1.2294
 4010SOL    HW213631   4.252   0.695   4.567  2.5344 -0.9052  0.0798
 4011SOL     OW13632   2.181   6.910   1.887 -0.2993  0.0092  0.0154
 4011SOL    HW113633   2.200   6.906   1.985  0.4359  1.6904 -0.0254
 4011SOL    HW213634   2.266   6.900   1.836 -0.5698 -0.0402 -0.4371
 4012SOL     OW13635   6.368   0.141   2.348  0.2490  0.2459  0.3198
 4012SOL    HW113636   6.451   0.192   2.327 -1.1880  1.6257 -2.7000
 4012SOL    HW213637   6.391   0.045   2.364  2.4360  0.6204 -0.1995
 4013SOL     OW13638   4.635   6.308   0.243  0.2192 -0.4842  1.1443
 4013SOL    HW113639   4.655   6.293   0.340  0.4416  1.7664  1.5145
 4013SOL    HW213640   4.608   6.404   0.230 -0.2252 -0.8557 -0.9649
 4014SOL     OW13641   0.505   2.837   0.233 -0.4095  0.3520  0.4438
 4014SOL    HW113642   0.596   2.799   0.250 -0.0865 -0.0438 -1.8568
 4014SOL    HW213643   0.508   2.936   0.241  1.1878  0.7112 -3.0205
 4015SOL     OW13644   2.343   5.189   0.823 -0.3684  0.4132  0.2648
 4015SOL    HW113645   2.439   5.219   0.823 -0.0395 -0.5450  1.6746
 4015SOL    HW213646   2.315   5.167   0.917 -1.0447 -2.1380 -0.4516
 4016SOL     OW13647   3.178   5.355   2.478  0.2610 -0.2023  0.3295
 4016SOL    HW113648   3.123   5.437   2.465 -0.5033 -1.0068 -2.0351
 4016SOL    HW213649   3.275   5.379   2.476  0.0355  0.7362  0.4391
 4017SOL     OW13650   4.763   6.911   2.496 -0.3357 -0.0138  0.0010
 4017SOL    HW113651   4.689   6.949   2.553 -0.3749 -0.0698 -0.0127
 4017SOL    HW213652   4.779   6.816   2.523  0.3296  0.2627  0.6056
 4018SOL     OW13653   1.876   5.641   5.798 -0.1193  0.0716  0.0228
 4018SOL    HW113654   1.791   5.671   5.754  0.7844  2.0715 -0.5002
 4018SOL    HW213655   1.858   5.621   5.894 -1.0827  1.0952  0.0893
 4019SOL     OW13656   2.959   1.341   4.296  0.0729 -0.4164 -0.0829
 4019SOL    HW113657   2.956   1.427   4.245  0.6368  1.3743  2.6378
 4019SOL    HW213658   3.054   1.315   4.312 -0.0580 -0.2558  1.0425
 4020SOL     OW13659   4.131   5.355   0.735 -0.2866  0.2940 -0.4019
 4020SOL    HW113660   4.080   5.282   0.781  1.0157  0.1774  0.9116
 4020SOL    HW213661   4.165   5.321   0.647 -0.1779 -0.5005 -0.0613
 4021SOL     OW13662   0.378   1.231   6.535  0.3221 -0.3252 -0.0583
 4021SOL    HW113663   0.402   1.243   6.439  1.0066 -0.3097  0.1152
 4021SOL    HW213664   0.427   1.298   6.591  0.3063 -0.6569  0.3589
 4022SOL     OW13665   0.376   6.569   0.389  0.3002  0.3770  0.4663
 4022SOL    HW113666   0.358   6.579   0.486 -2.6558  2.4339 -0.1593
 4022SOL    HW213667   0.308   6.508   0.348  1.4297 -0.3732 -0.3718
 4023SOL     OW13668   4.628   1.632   2.912  0.0790 -0.4768  0.1653
 4023SOL    HW113669   4.612   1.730   2.921 -0.7998 -0.5548 -0.3382
 4023SOL    HW213670   4.676   1.598   2.993 -0.2181  0.2465  0.6583
 4024SOL     OW13671   6.183   4.530   4.524 -0.4039  0.6293 -0.2370
 4024SOL    HW113672   6.169   4.586   4.443 -0.8426  1.9525  0.7190
 4024SOL    HW213673   6.189   4.434   4.498 -0.7371  1.0117 -1.8003
 4025SOL     OW13674   2.182   2.548   5.031 -0.0109 -0.7047 -0.2141
 4025SOL    HW113675   2.101   2.588   4.987 -1.9447 -2.3830  1.6560
 4025SOL    HW213676   2.204   2.600   5.114  0.8660 -0.2760 -0.6947
 4026SOL     OW13677   5.031   3.364   3.574 -0.1172  0.6498  0.2653
 4026SOL    HW113678   4.977   3.435   3.618 -2.2580 -0.7978  0.1211
 4026SOL    HW213679   5.016   3.277   3.621  0.2729 -0.2555 -1.2270
 4027SOL     OW13680   2.496   3.262   6.648  0.6685  0.1782  0.3666
 4027SOL    HW113681   2.460   3.322   6.577  1.3262  1.1047  0.8055
 4027SOL    HW213682   2.593   3.245   6.632  0.4368 -1.0336  0.0813
 4028SOL     OW13683   4.015   6.382   1.421  0.1825 -0.2135 -0.1546
 4028SOL    HW113684   4.100   6.409   1.375  0.7969 -1.3447  0.2666
 4028SOL    HW213685   3.947   6.455   1.412  0.8810  0.3177 -1.3158
 4029SOL     OW13686   4.516   1.366   1.079  0.2954  0.2844 -0.1199
 4029SOL    HW113687   4.576   1.426   1.026  0.8799 -0.5039 -0.3686
 4029SOL    HW213688   4.531   1.382   1.177  0.6760  0.3256 -0.1831
 4030SOL     OW13689   2.637   1.184   2.523 -0.6205 -0.4592  0.0110
 4030SOL    HW113690   2.607   1.279   2.533  0.9577  0.3335 -2.0974
 4030SOL    HW213691   2.725   1.172   2.570 -0.1345 -0.4811 -0.8883
 4031SOL     OW13692   2.389   6.512   6.039  0.0595 -0.1836 -0.1824
 4031SOL    HW113693   2.465   6.475   6.092 -0.9169 -0.8145  0.8215
 4031SOL    HW213694   2.410   6.607   6.013  1.3512 -0.4790 -0.2960
 4032SOL     OW13695   2.371   4.665   0.360  0.0223  0.2328 -0.2977
 4032SOL    HW113696   2.459   4.623   0.341  1.3918  2.2194  1.2028
 4032SOL    HW213697   2.299   4.596   0.358  1.5860 -1.4434 -1.5459
 4033SOL     OW13698   0.357   0.160   3.188 -0.4989 -0.0365  0.1127
 4033SOL    HW113699   0.349   0.064   3.160  3.7485 -0.4478 -0.4000
 4033SOL    HW213700   0.317   0.219   3.117  0.3208 -1.3957 -1.5587
 4034SOL     OW13701   1.139   2.673   2.777 -0.3341  0.4928  0.3014
 4034SOL    HW113702   1.141   2.630   2.687 -1.2044 -0.0737  0.5488
 4034SOL    HW213703   1.126   2.772   2.766 -1.2916  0.3291 -0.1790
 4035SOL     OW13704   1.598   2.078   2.128  0.1175 -0.2046  0.1105
 4035SOL    HW113705   1.559   1.987   2.117 -0.3938 -0.0555  0.6546
 4035SOL    HW213706   1.526   2.143   2.151  0.6518  0.1069  0.9741
 4036SOL     OW13707   3.350   2.290   5.567 -0.1316  0.8071  0.2818
 4036SOL    HW113708   3.351   2.374   5.621  1.7025  2.4330 -2.0979
 4036SOL    HW213709   3.439   2.244   5.573 -0.6625 -0.2426  0.4498
 4037SOL     OW13710   5.049   3.455   3.116 -0.3553  0.2109 -0.5383
 4037SOL    HW113711   5.047   3.544   3.070  1.7952 -0.0123 -1.1649
 4037SOL    HW213712   5.038   3.383   3.047  0.2694 -0.0638 -0.3485
 4038SOL     OW13713   2.323   0.497   5.364 -0.0831  0.0531  0.1829
 4038SOL    HW113714   2.341   0.590   5.333 -1.9059  0.2437 -0.4184
 4038SOL    HW213715   2.257   0.499   5.439 -0.8716 -0.8041 -0.4700
 4039SOL     OW13716   0.061   0.810   0.863 -0.0926 -0.0815 -0.2527
 4039SOL    HW113717   0.114   0.859   0.933 -0.8786  0.4497 -0.0204
 4039SOL    HW213718   0.019   0.729   0.903  1.7379 -1.3576 -0.7875
 4040SOL     OW13719   4.467   6.023   5.415 -0.0394  0.5201 -0.0601
 4040SOL    HW113720   4.415   6.105   5.439 -0.7877  0.4257 -1.2925
 4040SOL    HW213721   4.403   5.949   5.393  0.6035 -0.6749  1.8088
 4041SOL     OW13722   2.982   1.106   4.006 -1.0501 -0.0066 -0.2691
 4041SOL    HW113723   2.958   1.124   4.101 -1.3610 -2.1670  0.1080
 4041SOL    HW213724   2.992   1.008   3.992 -0.3941  0.3032 -2.3411
 4042SOL     OW13725   2.899   3.392   0.144 -0.5168 -0.2040 -0.0057
 4042SOL    HW113726   2.958   3.467   0.114  0.6651 -0.9464  0.3948
 4042SOL    HW213727   2.833   3.426   0.211 -0.4494  0.6073 -0.3444
 4043SOL     OW13728   3.272   6.647   1.090  0.2657 -0.1958 -0.1948
 4043SOL    HW113729   3.203   6.657   1.162 -0.0861  0.9076 -0.6686
 4043SOL    HW213730   3.361   6.627   1.132 -0.3774 -2.0610  0.4068
 4044SOL     OW13731   2.343   6.350   6.675 -0.2997 -0.3617 -0.0562
 4044SOL    HW113732   2.329   6.441   6.635 -0.3563 -0.0808  0.5855
 4044SOL    HW213733   2.254   6.309   6.696 -0.3414 -1.2108 -1.7234
 4045SOL     OW13734   5.934   0.678   6.905  0.1407 -0.3295  0.6882
 4045SOL    HW113735   5.939   0.778   6.909 -1.1074 -0.0983 -1.5764
 4045SOL    HW213736   6.010   0.638   6.956  0.3005  1.7467  2.1808
 4046SOL     OW13737   4.301   5.143   3.122  0.2658  0.3895 -0.2189
 4046SOL    HW113738   4.203   5.157   3.132  0.3537  0.6156  0.3444
 4046SOL    HW213739   4.321   5.045   3.127 -0.1603  0.1262 -2.4932
 4047SOL     OW13740   1.180   2.270   5.272 -0.0487  0.2500  0.0488
 4047SOL    HW113741   1.212   2.217   5.351  0.7327  1.2471  0.4215
 4047SOL    HW213742   1.188   2.215   5.189 -0.5074 -0.6734  0.6047
 4048SOL     OW13743   5.299   5.705   3.963 -0.2474  0.0422  0.3927
 4048SOL    HW113744   5.241   5.652   3.902  0.8183 -0.8938  0.1597
 4048SOL    HW213745   5.276   5.802   3.955 -1.2650 -0.2354 -0.2261
 4049SOL     OW13746   3.959   5.700   5.637 -0.7926 -0.5496 -0.5660
 4049SOL    HW113747   3.953   5.696   5.737 -2.4825  1.0434 -0.5699
 4049SOL    HW213748   3.880   5.653   5.597 -0.9402  0.1644 -1.1259
 4050SOL     OW13749   2.763   3.125   1.799 -0.0128 -0.3138  0.8539
 4050SOL    HW113750   2.704   3.137   1.878 -2.6488  1.1693 -1.1525
 4050SOL    HW213751   2.718   3.065   1.733  1.0815  0.2203 -0.4292
 4051SOL     OW13752   0.632   3.607   5.168  0.1084  0.2254 -0.0452
 4051SOL    HW113753   0.534   3.592   5.177  0.4406 -3.4158 -1.0794
 4051SOL    HW213754   0.668   3.644   5.254 -2.2055  2.7459  0.0013
 4052SOL     OW13755   1.059   6.175   3.786  0.2429  0.1926  0.9206
 4052SOL    HW113756   1.137   6.228   3.820 -0.4991  1.5640  0.5739
 4052SOL    HW213757   0.974   6.215   3.820 -0.5480  1.5429 -2.2645
 4053SOL     OW13758   3.537   3.482   4.105 -0.3746 -0.2269  0.2079
 4053SOL    HW113759   3.629   3.465   4.141 -0.1444 -1.1420 -0.7848
 4053SOL    HW213760   3.538   3.563   4.047  0.4996 -1.8382 -2.1729
 4054SOL     OW13761   1.246   6.147   6.952  0.1757  0.8688  0.0197
 4054SOL    HW113762   1.320   6.082   6.932 -0.6403  0.1503 -0.7789
 4054SOL    HW213763   1.238   6.212   6.876 -2.0411 -1.0238 -1.5275
 4055SOL     OW13764   6.365   2.353   1.295 -0.5921 -0.2300  0.8525
 4055SOL    HW113765   6.367   2.308   1.385  0.9198  0.3753  1.1538
 4055SOL    HW213766   6.270   2.359   1.263 -1.0790 -1.1846  2.0301
 4056SOL     OW13767   4.103   2.028   6.627  0.2401  0.3767  0.1064
 4056SOL    HW113768   4.150   2.108   6.589  3.5598 -0.8305  1.3293
 4056SOL    HW213769   4.089   2.040   6.725 -0.2672 -0.0867  0.0961
 4057SOL     OW13770   2.912   2.246   5.107 -0.1753 -0.0709 -0.1659
 4057SOL    HW113771   2.911   2.159   5.156 -0.3196 -0.9236 -1.6226
 4057SOL    HW213772   2.844   2.244   5.034 -0.4140  1.4047 -0.0078
 4058SOL     OW13773   5.619   1.745   2.178 -0.6372  0.3014 -0.2828
 4058SOL    HW113774   5.684   1.693   2.122 -1.3269 -1.7363  0.7123
 4058SOL    HW213775   5.669   1.803   2.242  0.3230 -2.0075  1.1990
 4059SOL     OW13776   6.200   0.245   3.592  0.0111 -0.1229  0.0584
 4059SOL    HW113777   6.214   0.158   3.546 -1.6011 -1.3522  1.7272
 4059SOL    HW213778   6.182   0.229   3.689 -0.9574  2.0093  0.3048
 4060SOL     OW13779   5.170   4.824   3.716  0.1814  0.0847  0.0437
 4060SOL    HW113780   5.120   4.908   3.695 -1.4178 -0.8975 -0.2414
 4060SOL    HW213781   5.259   4.824   3.670  0.7642  2.1500  1.0589
 4061SOL     OW13782   2.243   2.083   5.559  0.3939 -0.4391 -0.1846
 4061SOL    HW113783   2.178   2.014   5.526  0.5632 -0.2281 -0.9885
 4061SOL    HW213784   2.208   2.174   5.536 -0.0911 -0.2077  1.3337
 4062SOL     OW13785   5.586   2.069   2.180 -0.7478 -0.5811  0.2531
 4062SOL    HW113786   5.670   2.017   2.197 -0.8624 -0.8698 -0.0550
 4062SOL    HW213787   5.538   2.084   2.267  0.2780  0.7295  0.6343
 4063SOL     OW13788   6.305   3.195   0.642  0.6346 -0.1260 -0.3631
 4063SOL    HW113789   6.296   3.241   0.730  1.2936 -0.8022  0.0657
 4063SOL    HW213790   6.373   3.122   0.649 -0.9965 -1.7514 -0.7738
 4064SOL     OW13791   2.639   6.922   1.907 -0.1104  0.3433 -0.1921
 4064SOL    HW113792   2.553   6.960   1.872 -0.0745  0.3511 -0.2721
 4064SOL    HW213793   2.708   6.994   1.910 -0.6393  0.8218  1.7295
 4065SOL     OW13794   1.209   1.560   2.113  0.4903 -0.6832 -0.2815
 4065SOL    HW113795   1.224   1.484   2.049 -2.5047 -1.0518 -0.7174
 4065SOL    HW213796   1.152   1.629   2.069 -0.2916 -0.1730  1.4492
 4066SOL     OW13797   2.044   2.152   3.994  0.7267 -0.5675  0.6766
 4066SOL    HW113798   2.055   2.114   3.902 -0.3339 -1.4489  0.8884
 4066SOL    HW213799   2.036   2.252   3.988  2.1033 -0.4749 -0.0332
 4067SOL     OW13800   0.651   4.403   2.126  0.0967  0.4169 -0.0252
 4067SOL    HW113801   0.604   4.331   2.177 -3.2607  2.3967 -0.0238
 4067SOL    HW213802   0.680   4.367   2.037 -2.2135 -0.8427 -0.3534
 4068SOL     OW13803   5.530   5.162   2.725 -0.0567  0.1072  0.5691
 4068SOL    HW113804   5.627   5.140   2.717 -0.3774 -1.8636  1.5241
 4068SOL    HW213805   5.476   5.093   2.677 -0.9932  1.2980 -0.1359
 4069SOL     OW13806   3.905   6.952   2.855  0.6346  0.0982  0.0583
 4069SOL    HW113807   3.976   6.941   2.925 -0.1397  0.5519  0.9413
 4069SOL    HW213808   3.815   6.936   2.895  0.1442  0.7363 -0.7464
 4070SOL     OW13809   0.744   1.289   6.337  0.3753 -0.9972  0.0470
 4070SOL    HW113810   0.678   1.220   6.307  2.1364 -2.6741 -0.2168
 4070SOL    HW213811   0.823   1.289   6.275  0.5721  1.0861  0.2235
 4071SOL     OW13812   1.406   2.121   4.400 -0.1158 -0.6361  0.4895
 4071SOL    HW113813   1.428   2.153   4.492  0.4529 -1.5719  0.6896
 4071SOL    HW213814   1.392   2.022   4.402  2.6468 -1.1389 -0.8932
 4072SOL     OW13815   0.317   3.298   0.137  0.2126 -0.1594  0.4184
 4072SOL    HW113816   0.231   3.254   0.163 -0.1834 -0.4706 -1.2938
 4072SOL    HW213817   0.298   3.387   0.096  0.6364 -0.5329 -0.6126
 4073SOL     OW13818   6.955   1.338   2.373  0.3544 -0.6211 -0.5748
 4073SOL    HW113819   6.884   1.365   2.308 -1.9868 -0.5508  1.8748
 4073SOL    HW213820   6.955   1.238   2.382 -0.7558 -0.5178  0.7832
 4074SOL     OW13821   1.681   6.557   5.811  0.3117 -0.4178 -0.0522
 4074SOL    HW113822   1.654   6.462   5.822 -0.3085 -0.1371  1.0021
 4074SOL    HW213823   1.760   6.577   5.869  0.6539 -0.3707 -0.5289
 4075SOL     OW13824   5.900   0.208   3.189 -0.3332  0.2977  0.8009
 4075SOL    HW113825   5.912   0.118   3.230  1.3310  0.1526  0.0884
 4075SOL    HW213826   5.956   0.275   3.238 -0.2316  0.5991  0.2791
 4076SOL     OW13827   0.507   5.916   4.994  0.1738  0.3568  0.2896
 4076SOL    HW113828   0.603   5.890   4.989 -0.1460 -0.7359 -0.7577
 4076SOL    HW213829   0.452   5.853   4.938 -0.8115  2.5729 -1.4236
 4077SOL     OW13830   3.613   4.508   1.150  0.2384  0.2304 -0.6393
 4077SOL    HW113831   3.664   4.467   1.074  0.7157  0.1790 -0.2950
 4077SOL    HW213832   3.518   4.521   1.123  0.4630  0.4597 -1.3432
 4078SOL     OW13833   4.754   4.998   6.549 -0.0278 -0.1973  0.5817
 4078SOL    HW113834   4.797   4.946   6.475 -3.2586 -1.6210 -0.5082
 4078SOL    HW213835   4.726   4.935   6.622  0.1290  0.7199  1.4567
 4079SOL     OW13836   0.897   5.992   0.563 -0.4177 -0.5586 -0.5678
 4079SOL    HW113837   0.867   6.087   0.573  0.6695 -0.2287 -0.3445
 4079SOL    HW213838   0.995   5.990   0.540  0.1019 -1.6709  1.5354
 4080SOL     OW13839   0.599   0.216   1.148 -0.1766  0.5064 -0.2595
 4080SOL    HW113840   0.692   0.225   1.182 -0.8735 -0.3711  2.0982
 4080SOL    HW213841   0.534   0.240   1.220 -1.7924  0.2983 -1.5725
 4081SOL     OW13842   3.825   4.861   6.457  0.1107  0.3394 -0.1489
 4081SOL    HW113843   3.887   4.939   6.452  0.4307  0.0841 -0.1422
 4081SOL    HW213844   3.755   4.879   6.527  0.0792  0.6917 -0.2678
 4082SOL     OW13845   6.454   0.317   4.224  0.3160  0.2610  0.0289
 4082SOL    HW113846   6.465   0.341   4.127  0.5950  1.0060  0.2356
 4082SOL    HW213847   6.543   0.291   4.262  0.4730  1.3405  0.4298
 4083SOL     OW13848   0.812   6.446   1.908 -0.5011  0.9462 -0.1759
 4083SOL    HW113849   0.734   6.437   1.970 -0.5616  0.8441 -0.2685
 4083SOL    HW213850   0.895   6.462   1.962 -0.4078 -0.0260 -0.0194
 4084SOL     OW13851   5.645   3.744   2.146 -0.0183  0.3010  0.3738
 4084SOL    HW113852   5.568   3.685   2.122  1.2374 -2.3969  2.3613
 4084SOL    HW213853   5.728   3.688   2.154  1.0722  2.1082  3.4028
 4085SOL     OW13854   1.158   6.846   5.634  0.0096 -0.4553 -0.4072
 4085SOL    HW113855   1.246   6.888   5.615  1.1742 -2.0777  1.1260
 4085SOL    HW213856   1.162   6.749   5.612 -1.4742 -0.5357 -0.4446
 4086SOL     OW13857   5.890   4.779   3.587  0.0999  0.4751  0.1180
 4086SOL    HW113858   5.848   4.726   3.661  0.6296 -0.9385 -0.5566
 4086SOL    HW213859   5.822   4.795   3.515  0.3255 -0.6127 -0.3517
 4087SOL     OW13860   3.367   0.543   2.643 -0.2256  0.3831  0.2673
 4087SOL    HW113861   3.294   0.594   2.688 -1.2782 -1.1494  0.3745
 4087SOL    HW213862   3.334   0.507   2.555  1.2544  1.8617 -0.9550
 4088SOL     OW13863   3.643   4.135   6.534 -0.4988  0.4099 -0.1102
 4088SOL    HW113864   3.639   4.193   6.615  0.4565  1.6626 -0.9241
 4088SOL    HW213865   3.555   4.138   6.487 -0.6074  0.8330  0.1101
 4089SOL     OW13866   5.575   4.550   5.026 -0.3759  0.2080  0.1683
 4089SOL    HW113867   5.560   4.598   5.113  1.0156  0.5227  0.2676
 4089SOL    HW213868   5.487   4.531   4.983 -1.0280  2.5843  0.2823
 4090SOL     OW13869   0.638   2.765   5.738 -0.0988 -0.1833  0.2446
 4090SOL    HW113870   0.609   2.765   5.834  1.0524  1.6250  0.6629
 4090SOL    HW213871   0.584   2.831   5.687  0.2175 -0.1205 -0.0172
 4091SOL     OW13872   6.682   2.254   5.975 -0.8303  0.3068  0.2260
 4091SOL    HW113873   6.592   2.228   5.942 -0.9692  1.1374 -0.0894
 4091SOL    HW213874   6.712   2.337   5.927 -0.6984  1.1050  1.6362
 4092SOL     OW13875   2.175   6.977   3.879 -0.0034  0.1101  0.3564
 4092SOL    HW113876   2.253   7.011   3.931  0.1230  0.4995 -0.0817
 4092SOL    HW213877   2.152   7.042   3.807 -0.2874 -0.3434  0.0343
 4093SOL     OW13878   0.854   1.700   3.016 -0.0054  0.5327 -0.1152
 4093SOL    HW113879   0.898   1.648   3.090 -1.1306  1.3989  1.2244
 4093SOL    HW213880   0.759   1.669   3.006 -0.1086  0.9997 -0.6258
 4094SOL     OW13881   1.388   1.199   5.470 -0.0724 -0.6863 -1.0410
 4094SOL    HW113882   1.475   1.152   5.487 -0.4437 -1.3233 -0.8554
 4094SOL    HW213883   1.365   1.194   5.373  0.6293  0.4436 -1.2868
 4095SOL     OW13884   0.167   0.191   1.274  0.5307 -0.3252  0.0642
 4095SOL    HW113885   0.118   0.230   1.196  0.1851 -1.1271 -0.1274
 4095SOL    HW213886   0.106   0.185   1.352  1.1103  1.2947  0.6930
 4096SOL     OW13887   5.339   1.282   0.298  0.4694  0.4249  0.1296
 4096SOL    HW113888   5.377   1.344   0.230  2.2107 -0.3470  0.3406
 4096SOL    HW213889   5.256   1.321   0.337  0.6573  1.8680 -0.8727
 4097SOL     OW13890   2.383   4.408   1.083 -0.2404 -0.0464  0.1074
 4097SOL    HW113891   2.364   4.451   1.171  0.7566 -0.2518  0.4413
 4097SOL    HW213892   2.322   4.330   1.071 -1.5788  1.0051 -0.1864
 4098SOL     OW13893   3.897   3.746   5.741 -0.1154 -0.7437 -0.3861
 4098SOL    HW113894   3.900   3.842   5.771 -1.5571  0.0036 -2.4269
 4098SOL    HW213895   3.824   3.735   5.674  1.5872 -2.7574 -2.0101
 4099SOL     OW13896   5.739   6.588   2.407  0.0066 -0.0660 -0.2221
 4099SOL    HW113897   5.649   6.624   2.380 -0.4947 -1.5128 -0.5972
 4099SOL    HW213898   5.795   6.662   2.442 -0.7949  1.1631 -1.4157
 4100SOL     OW13899   2.845   1.089   1.407  0.0636  0.2582 -0.1374
 4100SOL    HW113900   2.822   0.992   1.406  0.3889  0.1502  1.2993
 4100SOL    HW213901   2.910   1.108   1.480 -0.5920  1.6851  0.1243
 4101SOL     OW13902   3.392   3.431   5.864  0.2278  0.2122 -0.2432
 4101SOL    HW113903   3.371   3.463   5.772 -0.3873 -0.6198 -0.4107
 4101SOL    HW213904   3.487   3.450   5.886  0.2874  0.7075 -0.9305
 4102SOL     OW13905   6.321   1.313   2.593  0.5840  0.0077  0.2757
 4102SOL    HW113906   6.322   1.411   2.612 -1.1397  0.1556 -0.2923
 4102SOL    HW213907   6.321   1.298   2.494  0.3918 -0.5659  0.3571
 4103SOL     OW13908   0.240   0.645   6.946  0.0899  0.3878  0.3331
 4103SOL    HW113909   0.303   0.607   6.879  0.6972  1.2540  0.3928
 4103SOL    HW213910   0.239   0.588   7.028 -1.8063 -1.5503 -0.9273
 4104SOL     OW13911   5.691   3.627   1.696  0.2277 -0.1676 -0.1525
 4104SOL    HW113912   5.608   3.670   1.661  0.2878 -0.6666 -0.9395
 4104SOL    HW213913   5.667   3.562   1.768  0.1563  1.2958  1.1989
 4105SOL     OW13914   2.312   4.366   0.426 -0.4089  0.6604  0.1417
 4105SOL    HW113915   2.336   4.357   0.329  0.0368  2.2849  0.0831
 4105SOL    HW213916   2.383   4.418   0.473 -1.9742  2.3200  0.7444
 4106SOL     OW13917   3.656   3.650   0.735 -0.0419 -0.0361 -0.4783
 4106SOL    HW113918   3.583   3.612   0.792 -1.1709  4.0840  1.2125
 4106SOL    HW213919   3.740   3.657   0.790  0.4309 -0.8345 -1.0731
 4107SOL     OW13920   2.662   5.089   2.339  0.4428  0.1369  0.6508
 4107SOL    HW113921   2.722   5.160   2.375  1.1924 -0.9388  1.6031
 4107SOL    HW213922   2.642   5.023   2.412 -0.2540 -0.6205 -0.2084
 4108SOL     OW13923   0.081   2.450   3.925  0.3332  0.0073 -0.1619
 4108SOL    HW113924   0.041   2.438   4.016  1.1559  1.6946  0.4446
 4108SOL    HW213925   0.015   2.418   3.856 -1.3033  0.9508  0.8992
 4109SOL     OW13926   3.828   3.924   4.812 -0.2385  0.5083 -0.0460
 4109SOL    HW113927   3.927   3.937   4.817 -0.0352 -1.1430  1.2494
 4109SOL    HW213928   3.787   3.995   4.755  1.7937  0.6394 -1.4170
 4110SOL     OW13929   0.032   4.864   1.335 -0.3321 -0.8411 -0.1145
 4110SOL    HW113930   0.065   4.893   1.246 -0.3402 -0.3148  0.0495
 4110SOL    HW213931   0.024   4.944   1.395 -0.0551 -1.2236  0.4438
 4111SOL     OW13932   2.456   0.806   3.334 -0.1713  0.0588  0.0598
 4111SOL    HW113933   2.399   0.737   3.290  0.8784 -1.9746  1.7142
 4111SOL    HW213934   2.491   0.869   3.265  1.1758 -2.7842 -2.0790
 4112SOL     OW13935   4.270   0.555   2.025  0.3427 -0.2027 -0.6257
 4112SOL    HW113936   4.365   0.531   2.003  0.0388 -0.4701 -1.7555
 4112SOL    HW213937   4.229   0.602   1.946 -0.0865  1.0880  0.3196
 4113SOL     OW13938   0.494   0.283   6.315  0.0471 -0.4045 -0.1861
 4113SOL    HW113939   0.558   0.235   6.255 -0.8119 -0.1852 -1.2991
 4113SOL    HW213940   0.543   0.355   6.364  0.9553 -1.1970  0.1040
 4114SOL     OW13941   3.492   5.208   2.286  0.3118  0.8560 -0.6902
 4114SOL    HW113942   3.570   5.270   2.276  0.4292  0.7399 -0.4979
 4114SOL    HW213943   3.407   5.257   2.263  0.2546  1.4958  0.7673
 4115SOL     OW13944   1.901   1.681   6.946 -0.2551  0.1394  0.2301
 4115SOL    HW113945   1.860   1.596   6.977 -0.3489 -0.4069 -1.3095
 4115SOL    HW213946   1.916   1.742   7.024 -1.8399 -0.5706  1.1190
 4116SOL     OW13947   6.983   2.545   0.406 -0.7019 -0.3301 -0.6971
 4116SOL    HW113948   7.059   2.610   0.398  0.6718 -1.8199 -0.3091
 4116SOL    HW213949   7.019   2.455   0.430 -2.6839 -0.9228  0.2358
 4117SOL     OW13950   2.403   2.694   6.499  0.0999  0.2764 -0.4991
 4117SOL    HW113951   2.309   2.722   6.520  1.0270  2.4014  1.1939
 4117SOL    HW213952   2.465   2.772   6.511  2.5125 -1.7523  1.3615
 4118SOL     OW13953   1.747   2.993   5.857  0.3851 -0.5674  0.2569
 4118SOL    HW113954   1.812   2.967   5.785  2.0405  0.2504  1.4018
 4118SOL    HW213955   1.678   3.053   5.818 -0.1594 -2.0228 -1.1460
 4119SOL     OW13956   4.974   6.771   6.977 -0.1300 -0.7144 -0.2115
 4119SOL    HW113957   5.022   6.858   6.971  0.2542 -0.9957 -1.5000
 4119SOL    HW213958   5.040   6.698   6.995 -0.6177 -0.6029  2.4787
 4120SOL     OW13959   0.472   2.290   3.912  0.5207 -0.0443 -0.0230
 4120SOL    HW113960   0.407   2.230   3.959  0.4904  0.5969  0.7907
 4120SOL    HW213961   0.445   2.385   3.927  1.7013  0.2422  0.4123
 4121SOL     OW13962   2.131   3.308   4.908 -0.1686 -0.2133  0.1227
 4121SOL    HW113963   2.157   3.306   5.005  0.9653 -0.5588 -0.1639
 4121SOL    HW213964   2.210   3.280   4.853 -0.3390  1.3992 -0.9967
 4122SOL     OW13965   5.045   6.381   2.483 -0.2352  0.8890 -0.2447
 4122SOL    HW113966   5.014   6.468   2.445  0.9237  1.7695  0.7449
 4122SOL    HW213967   5.143   6.371   2.467 -0.3238 -0.1577 -0.1838
 4123SOL     OW13968   3.289   1.452   1.360  0.1040  0.0409  0.4601
 4123SOL    HW113969   3.339   1.368   1.377  0.0854 -0.0427  0.1149
 4123SOL    HW213970   3.318   1.522   1.425  1.3055  0.2495 -0.2673
 4124SOL     OW13971   0.423   2.048   2.937  0.1137 -0.3615  0.8550
 4124SOL    HW113972   0.464   2.082   2.853 -0.4815 -3.4839 -0.8813
 4124SOL    HW213973   0.352   2.111   2.967 -0.1300  0.5457 -1.4058
 4125SOL     OW13974   5.867   4.702   5.961 -0.4034  0.3429  0.2488
 4125SOL    HW113975   5.815   4.719   6.046 -0.9943 -0.6750  0.1142
 4125SOL    HW213976   5.835   4.617   5.920  0.6014  0.2952 -0.4616
 4126SOL     OW13977   2.643   5.184   6.920 -0.0078  0.7101 -0.2429
 4126SOL    HW113978   2.625   5.159   6.825  1.8585  0.6627 -0.6182
 4126SOL    HW213979   2.672   5.103   6.971  2.0311  1.2517 -0.4440
 4127SOL     OW13980   1.507   1.587   4.246  0.4590  0.0581 -0.0386
 4127SOL    HW113981   1.547   1.597   4.155  3.6631 -2.8215  0.8546
 4127SOL    HW213982   1.580   1.575   4.313 -1.8529  0.0943  2.6705
 4128SOL     OW13983   2.092   2.435   1.057  0.2156  0.2186 -0.3829
 4128SOL    HW113984   2.148   2.357   1.029  0.3390 -0.0069  0.4605
 4128SOL    HW213985   1.995   2.409   1.056  0.3436 -0.4629  1.3974
 4129SOL     OW13986   2.532   5.879   0.745 -0.1609 -0.2356  0.3568
 4129SOL    HW113987   2.469   5.879   0.822 -1.0600 -0.0709 -0.3697
 4129SOL    HW213988   2.517   5.960   0.689 -0.1702 -0.8250 -0.5140
 4130SOL     OW13989   2.266   3.789   3.455  1.0529 -0.3145 -0.1433
 4130SOL    HW113990   2.211   3.789   3.539 -0.3480  3.5852 -0.8487
 4130SOL    HW213991   2.206   3.771   3.377  1.5402  0.1339 -0.6238
 4131SOL     OW13992   2.165   1.480   6.668 -0.1684  0.0622 -0.3915
 4131SOL    HW113993   2.215   1.396   6.690  0.8974  0.8591  0.2712
 4131SOL    HW213994   2.079   1.481   6.719 -0.1446 -0.5850 -0.3313
 4132SOL     OW13995   4.454   4.736   6.568 -0.4493  0.3657 -0.0336
 4132SOL    HW113996   4.361   4.773   6.573 -0.7423 -0.4309  0.6861
 4132SOL    HW213997   4.497   4.764   6.482 -1.7411 -0.1250 -0.8654
 4133SOL     OW13998   2.221   0.166   3.659 -0.0957 -0.1801 -0.9286
 4133SOL    HW113999   2.162   0.096   3.619  0.9707 -0.8148 -1.4040
 4133SOL    HW214000   2.314   0.156   3.625  0.0436  1.6020 -1.1546
 4134SOL     OW14001   6.952   5.198   6.915 -0.2032 -0.1403 -0.4286
 4134SOL    HW114002   6.906   5.142   6.984  0.0143 -0.4175 -0.5051
 4134SOL    HW214003   6.934   5.160   6.824  1.2285 -1.0261 -0.3689
 4135SOL     OW14004   0.809   2.596   4.657  0.4506  0.4682 -0.0823
 4135SOL    HW114005   0.752   2.551   4.726  1.7086 -1.1736 -0.0714
 4135SOL    HW214006   0.766   2.683   4.631 -1.5303 -0.2204  0.6476
 4136SOL     OW14007   3.678   6.312   5.181  0.7405 -0.3078 -0.2557
 4136SOL    HW114008   3.609   6.361   5.128  1.0463  0.8844  0.4029
 4136SOL    HW214009   3.702   6.227   5.134 -0.0000  0.0378 -1.3042
 4137SOL     OW14010   1.264   0.276   3.339  0.1178 -0.5118  0.1185
 4137SOL    HW114011   1.242   0.346   3.270  0.9692  0.9015  1.2197
 4137SOL    HW214012   1.197   0.279   3.412 -0.0646 -1.1371 -0.0216
 4138SOL     OW14013   2.458   1.100   2.187 -0.1442 -0.0702 -0.3344
 4138SOL    HW114014   2.542   1.149   2.210 -0.0182 -0.2179 -0.4812
 4138SOL    HW214015   2.400   1.094   2.268 -0.8110  1.5946 -0.6493
 4139SOL     OW14016   3.262   3.457   2.878  0.0675 -0.6563 -0.0519
 4139SOL    HW114017   3.286   3.504   2.792  0.9921  0.3377  0.7162
 4139SOL    HW214018   3.345   3.447   2.934 -0.8461  0.4956  1.5697
 4140SOL     OW14019   0.319   4.748   3.790 -0.0866  0.2376  0.6960
 4140SOL    HW114020   0.362   4.786   3.708 -0.8772 -1.1741 -0.4386
 4140SOL    HW214021   0.258   4.816   3.831 -1.4926  0.2665 -1.2908
 4141SOL     OW14022   5.429   1.799   2.534  0.2585 -0.0256  0.0508
 4141SOL    HW114023   5.337   1.795   2.574 -0.4119  1.9890 -1.1324
 4141SOL    HW214024   5.431   1.745   2.450 -0.1235  0.6071 -0.3767
 4142SOL     OW14025   4.829   0.956   4.024 -0.0401  0.3982  0.1705
 4142SOL    HW114026   4.783   0.910   3.948  0.7904 -3.7190  1.8655
 4142SOL    HW214027   4.922   0.979   3.997 -0.6978  1.8667 -0.9539
 4143SOL     OW14028   0.674   2.356   1.918  0.3029  0.0390  0.2007
 4143SOL    HW114029   0.676   2.257   1.904 -0.3943  0.3322 -2.5181
 4143SOL    HW214030   0.760   2.396   1.887  0.4902  0.3281  1.0712
 4144SOL     OW14031   0.960   2.863   2.096 -0.7973 -0.4183 -0.2125
 4144SOL    HW114032   1.002   2.799   2.160  0.1364 -0.1909 -0.5901
 4144SOL    HW214033   0.970   2.829   2.003 -0.9453 -0.0798 -0.3561
 4145SOL     OW14034   1.955   0.163   0.048 -0.0000 -0.1260  0.1738
 4145SOL    HW114035   1.923   0.154  -0.046 -2.2875 -0.2619  0.9089
 4145SOL    HW214036   1.892   0.115   0.110 -0.2482  2.4109  2.0488
 4146SOL     OW14037   2.736   6.950   0.453  0.3409  0.1158 -0.1522
 4146SOL    HW114038   2.668   7.017   0.423 -0.7465 -0.9834 -0.2035
 4146SOL    HW214039   2.739   6.948   0.553 -1.0041 -1.0650 -0.1045
 4147SOL     OW14040   0.663   2.245   2.387 -0.9753  0.0555 -0.0431
 4147SOL    HW114041   0.640   2.342   2.399  0.3886  0.4917 -0.6466
 4147SOL    HW214042   0.580   2.190   2.388 -1.7313  1.1782  0.8103
 4148SOL     OW14043   5.100   0.579   3.317  0.2040  0.1017 -0.1328
 4148SOL    HW114044   5.116   0.620   3.407 -1.0051 -0.5129  0.3873
 4148SOL    HW214045   5.167   0.506   3.301  0.9576  0.7737 -0.1093
 4149SOL     OW14046   0.420   1.952   4.653  0.4070  0.0994  0.4182
 4149SOL    HW114047   0.351   1.932   4.722 -1.1037  1.3552 -0.6658
 4149SOL    HW214048   0.483   2.022   4.689  0.6160 -0.4228  1.0916
 4150SOL     OW14049   1.931   4.069   1.737 -0.4069  0.3697 -0.4846
 4150SOL    HW114050   1.923   4.134   1.813  0.0593  0.1958 -0.2797
 4150SOL    HW214051   1.912   3.977   1.770 -0.1940  0.2927 -0.5755
 4151SOL     OW14052   0.744   3.383   6.468 -0.1182  0.4564  0.2364
 4151SOL    HW114053   0.779   3.445   6.538 -1.4202 -0.6136  1.9195
 4151SOL    HW214054   0.649   3.359   6.490  0.2495 -1.8732 -0.5330
 4152SOL     OW14055   4.341   3.119   3.588 -0.8917 -0.0782  0.0101
 4152SOL    HW114056   4.313   3.184   3.658  1.8914  1.1266  0.1499
 4152SOL    HW214057   4.349   3.028   3.628 -2.0025  0.0350  0.5358
 4153SOL     OW14058   5.156   0.972   4.517  0.3369  0.4219 -0.3939
 4153SOL    HW114059   5.084   1.041   4.522 -0.6637 -0.6731  1.1672
 4153SOL    HW214060   5.164   0.939   4.423 -1.2226  0.5597 -0.6061
 4154SOL     OW14061   5.594   3.432   2.904  0.4012 -0.1983 -0.1878
 4154SOL    HW114062   5.510   3.378   2.901  0.2310  0.0244  0.3929
 4154SOL    HW214063   5.578   3.516   2.956  1.4456 -0.9931  1.5185
 4155SOL     OW14064   6.530   3.455   3.484 -0.2920 -0.0879  0.2555
 4155SOL    HW114065   6.518   3.419   3.576  0.4006 -0.0327  0.3747
 4155SOL    HW214066   6.467   3.531   3.469 -0.1814  0.1150  0.8019
 4156SOL     OW14067   4.328   0.227   4.127  0.6694 -0.0465  0.0331
 4156SOL    HW114068   4.260   0.280   4.077 -0.3491  0.7372  2.1407
 4156SOL    HW214069   4.295   0.133   4.139  0.4535  0.0364  0.0954
 4157SOL     OW14070   0.883   2.056   2.414 -0.4924  0.0782  0.2216
 4157SOL    HW114071   0.982   2.052   2.401 -0.5737 -1.3312 -0.1058
 4157SOL    HW214072   0.852   2.151   2.409  0.8792  0.5612  0.6423
 4158SOL     OW14073   5.281   2.201   2.022 -0.2635 -0.4192  0.1556
 4158SOL    HW114074   5.294   2.228   1.926  0.4023  0.3279  0.4383
 4158SOL    HW214075   5.244   2.109   2.026  2.0240 -1.4579 -0.8024
 4159SOL     OW14076   2.539   6.070   3.501 -0.0708 -0.1253  0.2550
 4159SOL    HW114077   2.451   6.097   3.540  0.8716  1.4993  1.3879
 4159SOL    HW214078   2.537   5.972   3.477 -2.0498 -0.1859  0.5353
 4160SOL     OW14079   1.717   1.342   3.442  0.1544  0.1996  0.3895
 4160SOL    HW114080   1.698   1.412   3.511 -0.1899  0.3884  0.1092
 4160SOL    HW214081   1.769   1.383   3.367  2.1651 -0.4240  1.3740
 4161SOL     OW14082   3.821   0.495   1.811 -0.6375  0.4854  0.0659
 4161SOL    HW114083   3.741   0.441   1.840  0.8027 -2.8314 -1.6083
 4161SOL    HW214084   3.889   0.495   1.885 -0.7473  0.2120  0.1692
 4162SOL     OW14085   3.635   0.837   2.950 -0.4285 -0.1854  0.6364
 4162SOL    HW114086   3.677   0.746   2.952  0.6915  0.2952  0.1884
 4162SOL    HW214087   3.536   0.829   2.957 -0.2877 -1.3882  1.4537
 4163SOL     OW14088   6.576   6.699   4.661  0.0455  0.1861  0.4985
 4163SOL    HW114089   6.535   6.764   4.726 -1.7849  1.2559 -1.6278
 4163SOL    HW214090   6.509   6.631   4.634  1.2486 -1.1860  0.8088
 4164SOL     OW14091   0.186   3.856   5.218  0.1545 -0.1974 -0.2201
 4164SOL    HW114092   0.153   3.789   5.284  0.5047  1.3848  1.6676
 4164SOL    HW214093   0.115   3.925   5.202  0.6614  0.3287 -0.2359
 4165SOL     OW14094   3.869   1.701   5.635 -0.3768  0.0125 -0.5360
 4165SOL    HW114095   3.828   1.610   5.645 -0.2841  0.1184  1.1599
 4165SOL    HW214096   3.962   1.699   5.672 -1.3740  1.4341  2.4185
 4166SOL     OW14097   1.025   1.740   1.983  0.3858  0.1002  0.0452
 4166SOL    HW114098   1.082   1.823   1.985  1.9803 -0.9476  0.1545
 4166SOL    HW214099   1.036   1.694   1.895 -1.4722  0.6085 -0.5010
 4167SOL     OW14100   2.244   6.873   6.142 -0.2456 -0.1697  0.5944
 4167SOL    HW114101   2.208   6.912   6.226  0.5771  0.6016  0.5962
 4167SOL    HW214102   2.260   6.775   6.155  0.0851 -0.0109  1.3995
 4168SOL     OW14103   0.671   0.557   0.606 -0.3729  0.5257  0.0457
 4168SOL    HW114104   0.748   0.541   0.544 -0.4408 -0.9145  0.3008
 4168SOL    HW214105   0.632   0.470   0.634 -1.0230  1.1839  1.2828
 4169SOL     OW14106   6.763   4.087   0.360  0.0985 -0.1056 -0.4731
 4169SOL    HW114107   6.763   4.144   0.278 -0.6621  0.2178 -0.2646
 4169SOL    HW214108   6.855   4.080   0.397  0.1734  1.2147 -0.3603
 4170SOL     OW14109   3.306   0.611   1.325  0.1663 -0.0094  0.1968
 4170SOL    HW114110   3.246   0.683   1.361  0.7963  0.7788 -0.2805
 4170SOL    HW214111   3.262   0.522   1.335 -0.8276  0.4924  0.3787
 4171SOL     OW14112   4.396   5.452   3.525  0.1482  0.4293 -0.1382
 4171SOL    HW114113   4.413   5.512   3.603  1.4436  2.3921 -1.7968
 4171SOL    HW214114   4.355   5.506   3.451 -0.0495 -1.1068 -1.1945
 4172SOL     OW14115   6.847   1.114   5.222  0.1639 -0.1728  0.4633
 4172SOL    HW114116   6.851   1.029   5.275 -0.5786 -1.6790 -1.7052
 4172SOL    HW214117   6.764   1.165   5.245 -0.8590 -1.4899 -0.1459
 4173SOL     OW14118   2.087   2.042   2.873 -0.1752  0.1177 -0.4605
 4173SOL    HW114119   2.161   2.103   2.846 -0.7830  0.6886 -0.8995
 4173SOL    HW214120   2.044   2.004   2.791 -0.0495 -0.6102 -0.1981
 4174SOL     OW14121   5.107   0.027   2.508 -0.1440  0.0735  0.1697
 4174SOL    HW114122   5.049   0.084   2.566  0.2312  0.0405  0.5823
 4174SOL    HW214123   5.050  -0.022   2.442 -0.5145  0.5622  0.1215
 4175SOL     OW14124   6.739   6.447   2.145  0.0964  0.6273  0.2156
 4175SOL    HW114125   6.808   6.375   2.158  0.7645  1.2394  0.1129
 4175SOL    HW214126   6.687   6.428   2.062 -0.7040 -0.5051  0.9477
 4176SOL     OW14127   0.399   5.776   4.804  0.1238  0.4511  0.1420
 4176SOL    HW114128   0.310   5.811   4.833 -0.9270  0.8269 -3.1072
 4176SOL    HW214129   0.389   5.727   4.717  2.8809 -0.9170  0.4626
 4177SOL     OW14130   6.762   3.877   6.037 -0.2137 -0.5043  0.2646
 4177SOL    HW114131   6.799   3.812   5.970  0.9448 -0.0623  0.4432
 4177SOL    HW214132   6.664   3.889   6.022 -0.4598 -2.3244  0.2599
 4178SOL     OW14133   2.086   4.883   4.782  0.3198 -0.1221  0.9958
 4178SOL    HW114134   2.130   4.819   4.718  0.3564 -1.5015  2.3494
 4178SOL    HW214135   2.142   4.892   4.864  0.1309  1.4099  0.9833
 4179SOL     OW14136   1.901   0.374   5.438 -0.0406  0.2543 -0.0644
 4179SOL    HW114137   1.938   0.344   5.350  2.2947 -1.0772  1.2610
 4179SOL    HW214138   1.873   0.295   5.492  0.7840  0.8324  1.2725
 4180SOL     OW14139   6.853   4.611   3.472 -0.3190 -0.2783 -0.4956
 4180SOL    HW114140   6.897   4.528   3.439  0.1497  0.0705 -0.7591
 4180SOL    HW214141   6.852   4.679   3.399  0.1857  0.2934  0.0224
 4181SOL     OW14142   4.151   1.331   1.541 -0.3080  0.0629  0.5156
 4181SOL    HW114143   4.111   1.415   1.504  0.3466  0.1392 -0.0326
 4181SOL    HW214144   4.160   1.263   1.469 -0.7754 -0.4697  0.9461
 4182SOL     OW14145   4.237   3.123   1.755 -0.0067  0.0207  1.0476
 4182SOL    HW114146   4.302   3.137   1.680 -1.0871  1.0031  0.2651
 4182SOL    HW214147   4.258   3.037   1.802  0.2872 -0.9830 -0.8252
 4183SOL     OW14148   0.536   6.979   5.813  0.5077 -0.7828 -0.3078
 4183SOL    HW114149   0.550   7.037   5.732 -0.8392  1.5822  1.0394
 4183SOL    HW214150   0.474   7.025   5.876 -0.2984 -3.5722  1.0894
 4184SOL     OW14151   4.417   0.542   2.961 -0.6932 -0.4629  0.0599
 4184SOL    HW114152   4.355   0.535   2.883  0.1718  1.3037 -0.8475
 4184SOL    HW214153   4.433   0.451   3.000 -1.4218 -1.3289 -1.5863
 4185SOL     OW14154   2.378   4.337   5.523  0.0713  0.6061  0.5176
 4185SOL    HW114155   2.309   4.269   5.548  0.5023 -0.4169 -0.9349
 4185SOL    HW214156   2.370   4.358   5.425  2.9483 -0.9944 -0.1900
 4186SOL     OW14157   1.346   6.747   5.417  0.0883 -0.3973 -0.1030
 4186SOL    HW114158   1.350   6.653   5.452 -0.0162 -0.2907  0.1983
 4186SOL    HW214159   1.439   6.781   5.403  0.1170 -1.0119 -1.4791
 4187SOL     OW14160   5.423   1.013   4.624  0.7771 -0.2598  0.5473
 4187SOL    HW114161   5.468   0.944   4.567  0.8316 -1.7194  2.2860
 4187SOL    HW214162   5.328   1.022   4.596  0.8818 -0.7146  0.0114
 4188SOL     OW14163   6.027   2.111   4.171 -0.3668  0.1834  0.6617
 4188SOL    HW114164   6.011   2.145   4.079  1.0011  1.2095  0.7748
 4188SOL    HW214165   6.090   2.033   4.168 -1.2518 -0.5455  0.6452
 4189SOL     OW14166   5.301   6.980   0.060 -0.4233 -0.1308  0.4850
 4189SOL    HW114167   5.354   7.056   0.024 -0.6310  0.0109  0.4738
 4189SOL    HW214168   5.350   6.936   0.135 -0.2715 -0.0318  0.4421
 4190SOL     OW14169   0.767   1.591   5.166 -0.2138 -0.0422  0.4491
 4190SOL    HW114170   0.709   1.656   5.214  2.4396  0.6432  3.0190
 4190SOL    HW214171   0.852   1.577   5.217  0.7047 -3.1823 -1.5990
 4191SOL     OW14172   4.685   2.974   6.121  0.0969 -0.1247 -0.2176
 4191SOL    HW114173   4.675   3.055   6.179  2.4423 -1.0368  1.6560
 4191SOL    HW214174   4.595   2.940   6.095 -0.9425  2.6343 -0.4560
 4192SOL     OW14175   2.206   2.398   5.819 -0.5885  0.1881  0.2034
 4192SOL    HW114176   2.251   2.333   5.881  0.2789 -0.2852 -0.8759
 4192SOL    HW214177   2.193   2.485   5.866  0.8099  0.1117  0.7929
 4193SOL     OW14178   1.013   2.623   0.391  0.3456  0.4946  0.2289
 4193SOL    HW114179   0.980   2.635   0.298 -0.5764  0.4621  0.5397
 4193SOL    HW214180   0.973   2.541   0.431  2.2090 -0.5662  0.0404
 4194SOL     OW14181   0.870   5.229   6.543 -0.6501  0.1250 -0.8227
 4194SOL    HW114182   0.908   5.321   6.542  0.0118 -0.1435 -1.5141
 4194SOL    HW214183   0.775   5.231   6.511 -1.3435  0.8261  1.1011
 4195SOL     OW14184   0.531   2.527   6.163  0.3062 -0.4349 -0.2079
 4195SOL    HW114185   0.523   2.532   6.263 -1.3477  0.5262 -0.3482
 4195SOL    HW214186   0.601   2.461   6.139  1.2054 -0.2186  1.6018
 4196SOL     OW14187   6.415   4.755   3.373  0.6763  0.0463 -0.4262
 4196SOL    HW114188   6.476   4.722   3.445  0.8183  0.0710 -0.5342
 4196SOL    HW214189   6.321   4.759   3.407  0.4686 -1.5610 -0.7473
 4197SOL     OW14190   2.542   6.191   5.523  0.0394 -0.1801  0.4612
 4197SOL    HW114191   2.620   6.141   5.561  0.3835  0.1080  0.1322
 4197SOL    HW214192   2.545   6.187   5.423 -0.1283  0.2067  0.4401
 4198SOL     OW14193   2.735   1.039   4.569 -0.3960  0.0561  0.4336
 4198SOL    HW114194   2.694   1.127   4.589 -1.2110  0.2928 -2.0002
 4198SOL    HW214195   2.665   0.976   4.535  0.5874 -0.7628 -0.1348
 4199SOL     OW14196   1.780   2.872   6.797  0.7838  0.7300 -0.3260
 4199SOL    HW114197   1.833   2.882   6.713  0.3858  0.2631 -0.6409
 4199SOL    HW214198   1.807   2.942   6.863  1.9206  0.3744 -0.4058
 4200SOL     OW14199   0.413   5.038   6.580 -0.2275  0.2847 -0.2656
 4200SOL    HW114200   0.478   4.966   6.602 -0.3667 -0.0322 -0.8889
 4200SOL    HW214201   0.351   5.052   6.657 -2.9792 -3.2327 -1.5937
 4201SOL     OW14202   6.489   5.926   5.135 -0.2320 -0.0332  0.0770
 4201SOL    HW114203   6.582   5.962   5.130 -0.5672  0.8101 -0.2638
 4201SOL    HW214204   6.449   5.922   5.043 -0.2807 -1.0879  0.1323
 4202SOL     OW14205   6.611   3.813   0.900 -0.2948  0.3003  0.2273
 4202SOL    HW114206   6.710   3.804   0.906 -0.2472  1.4057  1.5564
 4202SOL    HW214207   6.577   3.865   0.979 -1.7320  1.5681 -1.1662
 4203SOL     OW14208   0.335   6.563   0.898  0.5722 -0.0617  0.1432
 4203SOL    HW114209   0.283   6.615   0.829 -0.5785 -1.4300 -0.0546
 4203SOL    HW214210   0.347   6.469   0.867  3.0195  0.1359  0.2994
 4204SOL     OW14211   0.638   3.954   3.636 -0.3984  0.0864  0.3767
 4204SOL    HW114212   0.551   3.905   3.631 -1.2416  1.5944 -0.0748
 4204SOL    HW214213   0.704   3.912   3.573 -1.0120 -0.6114  0.1902
 4205SOL     OW14214   3.521   4.459   0.364  0.1120 -0.0665  0.0523
 4205SOL    HW114215   3.577   4.450   0.282 -0.8226  0.4121 -0.6598
 4205SOL    HW214216   3.424   4.460   0.339 -0.3255 -2.3186  1.3692
 4206SOL     OW14217   0.837   2.051   6.181 -0.1219  0.9254  0.4687
 4206SOL    HW114218   0.815   2.064   6.084  1.8608  1.5073  0.0478
 4206SOL    HW214219   0.767   1.994   6.224  0.4257 -1.8353 -2.0046
 4207SOL     OW14220   4.845   2.188   1.041  0.2041 -0.2782  0.7383
 4207SOL    HW114221   4.884   2.109   1.088  1.7763  1.1823  2.0233
 4207SOL    HW214222   4.908   2.266   1.049 -0.7262  0.8054 -1.5077
 4208SOL     OW14223   3.708   2.303   2.333 -0.6431  0.1788 -0.3273
 4208SOL    HW114224   3.618   2.281   2.373  0.4618 -1.6390  1.3318
 4208SOL    HW214225   3.746   2.221   2.291 -0.0970  1.1600 -1.8175
 4209SOL     OW14226   5.894   3.190   0.402  0.5418  0.4070  0.6384
 4209SOL    HW114227   5.960   3.117   0.383 -0.7324 -0.1944 -2.0433
 4209SOL    HW214228   5.808   3.149   0.433  0.4107  0.9202  0.9610
 4210SOL     OW14229   3.391   3.752   6.137 -0.0220 -0.3061 -0.1080
 4210SOL    HW114230   3.446   3.693   6.195 -0.2757  0.6029  1.1036
 4210SOL    HW214231   3.404   3.727   6.041  2.1142 -0.4279  0.1691
 4211SOL     OW14232   1.436   3.523   6.619  0.4557  0.1106  0.0502
 4211SOL    HW114233   1.519   3.483   6.658 -0.7521 -3.1345 -0.4069
 4211SOL    HW214234   1.363   3.521   6.687 -0.8326 -2.8199 -1.2287
 4212SOL     OW14235   6.598   0.710   1.332  0.1408 -0.1805  0.0575
 4212SOL    HW114236   6.507   0.738   1.363  0.1609 -0.2619  0.1910
 4212SOL    HW214237   6.596   0.613   1.307 -0.6491  0.5102 -3.0530
 4213SOL     OW14238   2.302   5.281   5.982  0.6117 -0.2381  0.1173
 4213SOL    HW114239   2.356   5.211   6.028  1.3016 -0.2615 -0.7062
 4213SOL    HW214240   2.291   5.257   5.885 -1.6344 -0.7004  0.4119
 4214SOL     OW14241   2.371   5.613   6.126  0.0902  0.3367  0.4563
 4214SOL    HW114242   2.381   5.697   6.074  1.2398 -0.7450 -1.1614
 4214SOL    HW214243   2.326   5.544   6.070  0.8861 -0.7012  1.0425
 4215SOL     OW14244   5.907   1.154   5.046 -0.1931  0.2461 -0.3800
 4215SOL    HW114245   5.868   1.229   5.099 -2.0574 -1.1464  0.3511
 4215SOL    HW214246   5.839   1.119   4.982  0.1243 -1.6756  0.2564
 4216SOL     OW14247   5.686   2.226   1.936 -0.1547 -0.0022 -0.0608
 4216SOL    HW114248   5.651   2.134   1.953  1.2579 -0.4841  0.3708
 4216SOL    HW214249   5.613   2.293   1.953 -0.8329 -0.9538  0.9163
 4217SOL     OW14250   5.534   3.212   6.947  0.0523 -0.0350 -0.2187
 4217SOL    HW114251   5.501   3.220   6.853 -1.4757  0.4534  0.3372
 4217SOL    HW214252   5.459   3.227   7.010  1.6799  2.9426  1.1732
 4218SOL     OW14253   1.532   0.303   3.306  0.1994  0.5160 -0.2042
 4218SOL    HW114254   1.434   0.311   3.325  0.2856 -0.9894  1.0058
 4218SOL    HW214255   1.547   0.227   3.242  0.7254 -0.6686  1.2747
 4219SOL     OW14256   4.334   3.030   3.931 -0.5829  0.0273  0.8130
 4219SOL    HW114257   4.238   3.050   3.952 -0.4970 -0.6600  1.9401
 4219SOL    HW214258   4.340   2.944   3.879 -0.5587 -0.1358  1.0824
 4220SOL     OW14259   4.142   1.887   1.624 -0.2229 -1.0084 -0.1793
 4220SOL    HW114260   4.163   1.938   1.707 -2.5450 -0.7675  0.3418
 4220SOL    HW214261   4.196   1.923   1.548 -2.3521  3.0022 -0.0813
 4221SOL     OW14262   2.884   4.488   6.002  0.7601  0.1446 -0.4925
 4221SOL    HW114263   2.948   4.412   6.017  0.5371 -0.1555 -1.0343
 4221SOL    HW214264   2.873   4.503   5.904 -1.3159 -0.9477 -0.4819
 4222SOL     OW14265   2.725   3.887   6.411 -0.1239  0.1974 -0.2460
 4222SOL    HW114266   2.780   3.944   6.472  1.1039 -0.2832 -0.8909
 4222SOL    HW214267   2.779   3.809   6.379 -0.6963  0.4837 -2.0296
 4223SOL     OW14268   6.588   2.922   5.687  0.0019  0.0645  0.0506
 4223SOL    HW114269   6.647   2.844   5.666  1.2712  0.4217  2.0009
 4223SOL    HW214270   6.645   3.001   5.708 -1.2250  0.8517  0.4707
 4224SOL     OW14271   3.262   1.446   3.587  0.3731 -0.0020 -0.1378
 4224SOL    HW114272   3.218   1.489   3.508 -0.7776  0.8164  0.9140
 4224SOL    HW214273   3.279   1.516   3.657  0.4527 -0.9011  0.7524
 4225SOL     OW14274   5.948   3.921   6.974 -0.4971 -0.5529 -0.3999
 4225SOL    HW114275   5.964   3.887   7.066 -0.6789 -1.0208 -0.5351
 4225SOL    HW214276   6.028   3.901   6.916 -0.5980 -0.7461 -0.4755
 4226SOL     OW14277   4.021   6.093   1.218  0.1790 -0.2943  0.1513
 4226SOL    HW114278   4.073   6.111   1.302  0.5730  0.4289 -0.2478
 4226SOL    HW214279   4.056   6.149   1.144 -2.3110  1.6141  0.2673
 4227SOL     OW14280   6.100   6.429   5.959 -0.0493 -0.0068  0.9179
 4227SOL    HW114281   6.124   6.399   5.866 -1.1023  0.5889  0.4233
 4227SOL    HW214282   6.174   6.406   6.022  0.5431 -0.7341 -0.0054
 4228SOL     OW14283   4.759   5.369   5.101  0.3192 -0.4700  0.0416
 4228SOL    HW114284   4.810   5.294   5.144  0.3617 -0.9059 -0.7431
 4228SOL    HW214285   4.749   5.350   5.004  0.1461  0.4566 -0.1244
 4229SOL     OW14286   2.172   2.889   6.181 -0.2329  0.2812  0.3427
 4229SOL    HW114287   2.180   2.889   6.081 -2.2408  1.8268  0.1144
 4229SOL    HW214288   2.262   2.878   6.222  0.5536 -1.0725 -1.6123
 4230SOL     OW14289   6.028   1.332   2.321  0.3880 -0.1644  0.4574
 4230SOL    HW114290   5.989   1.392   2.392 -0.2607  0.4642 -0.3978
 4230SOL    HW214291   5.964   1.327   2.245  1.6635  0.2960 -0.6773
 4231SOL     OW14292   1.206   6.572   1.269  0.7047 -0.0281 -0.3035
 4231SOL    HW114293   1.225   6.609   1.178  0.0425 -1.2538 -0.9667
 4231SOL    HW214294   1.189   6.474   1.262 -0.2669  0.0216  1.0254
 4232SOL     OW14295   6.789   0.032   4.887 -0.1482  0.2072 -0.2828
 4232SOL    HW114296   6.779   0.111   4.948  1.3991  0.0176  0.2503
 4232SOL    HW214297   6.783   0.063   4.792  0.8314  1.0331 -0.0880
 4233SOL     OW14298   6.451   6.580   1.457 -0.2864 -0.1967 -0.4873
 4233SOL    HW114299   6.445   6.645   1.381  1.2901  0.3941 -0.1427
 4233SOL    HW214300   6.394   6.613   1.533  0.8607  1.0723 -0.1378
 4234SOL     OW14301   2.500   2.039   3.379 -0.0740  0.4004 -0.3444
 4234SOL    HW114302   2.427   1.972   3.390  0.4575 -0.0857  0.3026
 4234SOL    HW214303   2.517   2.085   3.466  0.5911  0.2841 -0.4072
 4235SOL     OW14304   6.699   2.547   5.284 -0.3791 -0.3772  0.3468
 4235SOL    HW114305   6.634   2.478   5.254 -0.4102 -0.2011  0.0102
 4235SOL    HW214306   6.789   2.505   5.296  0.4026  0.0886 -2.9199
 4236SOL     OW14307   1.045   6.308   3.434  0.3787 -0.2890  0.0579
 4236SOL    HW114308   1.071   6.231   3.375  0.7878 -0.4100  0.3885
 4236SOL    HW214309   1.109   6.383   3.421 -0.2328  0.1452 -0.5340
 4237SOL     OW14310   5.740   2.779   5.985 -0.0859  0.2302  0.3298
 4237SOL    HW114311   5.832   2.817   5.974 -0.3151  0.7651  0.2299
 4237SOL    HW214312   5.675   2.834   5.933 -0.1494 -1.4972 -1.5055
 4238SOL     OW14313   4.355   2.241   2.209 -0.1262  0.5254  0.4206
 4238SOL    HW114314   4.268   2.217   2.253  0.2873  0.5550  1.2610
 4238SOL    HW214315   4.352   2.337   2.179  0.1053  0.9263  1.6542
 4239SOL     OW14316   4.118   1.631   0.574  0.1576  0.4593  0.8052
 4239SOL    HW114317   4.076   1.661   0.488 -0.4852 -1.3613  0.4434
 4239SOL    HW214318   4.062   1.662   0.651  0.2894  1.3850  0.5423
 4240SOL     OW14319   5.356   0.075   1.696 -0.6240  0.0647  0.2739
 4240SOL    HW114320   5.456   0.083   1.697 -0.5920 -0.3204  0.3043
 4240SOL    HW214321   5.326   0.048   1.604 -0.6093 -0.8701  0.5287
 4241SOL     OW14322   2.535   6.638   0.905  0.5289 -0.1127 -0.2550
 4241SOL    HW114323   2.569   6.619   0.813 -0.7819  0.0632 -0.8016
 4241SOL    HW214324   2.574   6.723   0.939  0.8713 -0.0771 -0.7336
 4242SOL     OW14325   4.380   1.611   3.942 -0.5802 -0.0824 -0.8091
 4242SOL    HW114326   4.332   1.681   3.889 -0.0081  0.1148 -1.0776
 4242SOL    HW214327   4.416   1.541   3.881  0.0622  0.1339 -0.6914
 4243SOL     OW14328   4.309   5.356   6.438  0.1461 -0.0729  0.3984
 4243SOL    HW114329   4.404   5.323   6.433 -0.6824 -2.6402  0.2051
 4243SOL    HW214330   4.302   5.427   6.507  1.9776 -0.7757  1.3708
 4244SOL     OW14331   6.364   2.016   4.362  0.6174  0.2276 -0.7933
 4244SOL    HW114332   6.368   1.919   4.386 -0.9313  0.4106  0.3550
 4244SOL    HW214333   6.339   2.025   4.266  1.1474 -0.4990 -1.0135
 4245SOL     OW14334   1.216   5.360   6.870  0.0007 -0.2936  0.2831
 4245SOL    HW114335   1.191   5.439   6.926  2.9573  0.5614  0.5748
 4245SOL    HW214336   1.300   5.320   6.905  0.9738 -0.8686 -2.4479
 4246SOL     OW14337   6.121   4.378   6.428 -0.1259  0.1354  0.3495
 4246SOL    HW114338   6.126   4.279   6.415 -1.9190 -0.2967  2.3746
 4246SOL    HW214339   6.029   4.403   6.461  0.7271  2.2759  1.2984
 4247SOL     OW14340   5.237   6.939   3.188 -0.6343  0.3848 -0.7921
 4247SOL    HW114341   5.253   6.853   3.237 -0.3960  1.2093  0.6201
 4247SOL    HW214342   5.175   6.997   3.241 -2.0037  0.4952 -2.4376
 4248SOL     OW14343   0.614   0.207   1.744 -0.6546  0.2697  0.2041
 4248SOL    HW114344   0.623   0.152   1.661 -0.6608 -0.2688  0.5527
 4248SOL    HW214345   0.653   0.297   1.728 -0.7226  0.2001 -0.4083
 4249SOL     OW14346   0.304   1.371   4.533 -0.1310  0.1052 -0.0862
 4249SOL    HW114347   0.229   1.431   4.560 -0.5968 -0.3711 -0.3058
 4249SOL    HW214348   0.391   1.413   4.560 -0.5002  0.3677  0.7499
 4250SOL     OW14349   6.252   4.825   4.630  0.1942  0.2298 -0.3825
 4250SOL    HW114350   6.246   4.900   4.564 -1.1639 -0.4325 -1.0562
 4250SOL    HW214351   6.202   4.746   4.595  1.1431 -0.8230  0.5635
 4251SOL     OW14352   2.398   0.004   1.005 -0.2162  0.1896  0.7962
 4251SOL    HW114353   2.362   0.030   0.916  0.2078 -0.7382  0.3340
 4251SOL    HW214354   2.323  -0.015   1.068 -0.6644 -2.6166 -0.4160
 4252SOL     OW14355   2.765   0.802   4.216 -0.0709  0.3779 -0.1043
 4252SOL    HW114356   2.808   0.713   4.230  1.1890  0.8328 -0.9569
 4252SOL    HW214357   2.730   0.808   4.123 -1.3758  0.3019  0.3494
 4253SOL     OW14358   6.583   0.274   2.257  0.3203  0.1288  0.2377
 4253SOL    HW114359   6.566   0.298   2.162  0.1647 -0.4273  0.1234
 4253SOL    HW214360   6.673   0.232   2.266 -0.2079 -1.0861  0.0983
 4254SOL     OW14361   6.607   0.602   0.693  0.4245 -0.3469  0.1774
 4254SOL    HW114362   6.514   0.635   0.709  0.5902 -0.9838  2.8400
 4254SOL    HW214363   6.673   0.665   0.733  1.0191 -1.0412  0.3178
 4255SOL     OW14364   3.762   1.434   1.680  0.0539  0.8630 -0.1925
 4255SOL    HW114365   3.831   1.361   1.671  0.2838  1.1327 -0.6721
 4255SOL    HW214366   3.749   1.456   1.776 -2.6765 -2.3546  0.3731
 4256SOL     OW14367   6.315   0.778   1.129 -0.3474 -0.0982  0.3874
 4256SOL    HW114368   6.392   0.781   1.065  0.3240 -0.7075  1.1407
 4256SOL    HW214369   6.325   0.699   1.189 -1.1600  0.2564  1.0127
 4257SOL     OW14370   5.694   0.249   4.306  0.8371  0.0148  0.0711
 4257SOL    HW114371   5.661   0.166   4.351  1.1812  0.4528  1.1442
 4257SOL    HW214372   5.787   0.232   4.271  0.1956 -0.6522 -1.4233
 4258SOL     OW14373   6.525   1.661   1.288  0.5703  0.3751 -0.0572
 4258SOL    HW114374   6.537   1.733   1.220  1.5398  0.6322  0.3549
 4258SOL    HW214375   6.434   1.668   1.329  0.8495  1.7473  0.3894
 4259SOL     OW14376   0.572   4.404   6.937  0.2954 -0.7217  0.0690
 4259SOL    HW114377   0.599   4.468   6.865 -2.1198  0.8039  0.4158
 4259SOL    HW214378   0.618   4.316   6.922  2.2063  0.4649 -1.5362
 4260SOL     OW14379   5.836   1.166   4.415 -0.1731 -0.2643  0.3250
 4260SOL    HW114380   5.760   1.167   4.479  0.1938 -0.1522  0.7649
 4260SOL    HW214381   5.913   1.116   4.456  0.3979  0.6217  0.3656
 4261SOL     OW14382   2.715   5.970   0.934  0.5557  0.3583 -0.3637
 4261SOL    HW114383   2.675   6.061   0.923 -1.6561 -0.5056 -0.0910
 4261SOL    HW214384   2.662   5.904   0.881  1.5339 -0.9169  0.1965
 4262SOL     OW14385   4.920   4.970   6.951  0.7744 -0.5743 -0.1733
 4262SOL    HW114386   4.862   4.898   6.991  0.9527 -0.1690  0.8563
 4262SOL    HW214387   4.991   4.928   6.895 -0.2463 -1.1014 -1.1148
 4263SOL     OW14388   6.478   6.644   6.785  0.0539  0.0040  0.1505
 4263SOL    HW114389   6.417   6.606   6.715  2.2578 -2.4742 -0.6056
 4263SOL    HW214390   6.427   6.661   6.869 -1.5244 -3.2598  0.0055
 4264SOL     OW14391   0.560   2.757   6.004  0.2112 -0.2966 -0.0442
 4264SOL    HW114392   0.618   2.835   6.027  1.2506 -1.0505 -0.0186
 4264SOL    HW214393   0.564   2.690   6.079  2.2134 -1.9780 -1.4943
 4265SOL     OW14394   3.489   1.098   6.088  0.0089  0.5702 -0.1836
 4265SOL    HW114395   3.498   1.079   5.990  0.8352  0.5484 -0.1144
 4265SOL    HW214396   3.428   1.032   6.130  0.4865 -0.0838 -0.4970
 4266SOL     OW14397   4.546   1.841   4.823 -0.2112 -0.0536  0.1929
 4266SOL    HW114398   4.610   1.882   4.758 -0.1752  1.6406  1.2413
 4266SOL    HW214399   4.499   1.764   4.780  1.5940 -0.5345 -1.0052
 4267SOL     OW14400   4.320   5.912   0.171  0.3752 -0.0477  0.5647
 4267SOL    HW114401   4.409   5.957   0.182 -0.2817  1.3734  0.3242
 4267SOL    HW214402   4.258   5.943   0.244  0.0210 -0.8974  0.6353
 4268SOL     OW14403   2.495   0.167   1.789 -0.4703  0.0737  0.3563
 4268SOL    HW114404   2.527   0.100   1.723 -0.8102  1.6802 -1.5687
 4268SOL    HW214405   2.401   0.194   1.766 -0.7007  0.5050  1.6760
 4269SOL     OW14406   0.203   1.925   3.502  0.4009  0.3623 -0.4066
 4269SOL    HW114407   0.148   1.964   3.429 -0.3928  1.1227  0.5751
 4269SOL    HW214408   0.183   1.971   3.589 -0.3018 -1.9349  0.7384
 4270SOL     OW14409   0.079   0.845   5.940  0.6363  0.5746 -0.8588
 4270SOL    HW114410   0.134   0.821   5.861 -1.2643  0.1142 -2.1168
 4270SOL    HW214411  -0.018   0.842   5.915  0.0056  1.0653  1.3203
 4271SOL     OW14412   1.039   2.690   4.765 -0.4169  0.1013 -0.3057
 4271SOL    HW114413   0.964   2.639   4.724 -0.5816  1.6903 -2.1439
 4271SOL    HW214414   1.004   2.748   4.839 -1.1927  1.3157 -1.5679
 4272SOL     OW14415   5.285   0.664   5.467  0.2703  0.5371  0.2360
 4272SOL    HW114416   5.314   0.583   5.518  1.0555 -0.2732 -1.4204
 4272SOL    HW214417   5.360   0.731   5.466 -0.4708  1.4609  1.8334
 4273SOL     OW14418   1.581   5.364   2.393 -0.3851  0.0097 -0.5759
 4273SOL    HW114419   1.519   5.432   2.433  0.3720  1.0289 -1.0857
 4273SOL    HW214420   1.676   5.386   2.419 -0.1668 -1.2179 -0.2400
 4274SOL     OW14421   2.720   1.461   6.581 -0.1739  0.7709  0.0094
 4274SOL    HW114422   2.808   1.437   6.623 -0.7272  1.3392  1.5568
 4274SOL    HW214423   2.735   1.483   6.485  1.2179 -0.1074 -0.0127
 4275SOL     OW14424   1.720   2.759   2.448  0.2396  0.0900 -0.0776
 4275SOL    HW114425   1.713   2.665   2.482  1.8859  0.3886  1.1725
 4275SOL    HW214426   1.692   2.761   2.352  0.1564 -1.6636 -0.1292
 4276SOL     OW14427   5.381   6.181   3.651  0.1218 -0.2125  0.0867
 4276SOL    HW114428   5.389   6.082   3.660  0.5878 -0.1951 -0.1470
 4276SOL    HW214429   5.286   6.205   3.633  0.3198 -0.7723 -1.8657
 4277SOL     OW14430   5.731   3.064   5.320 -0.5255  0.4632  0.2565
 4277SOL    HW114431   5.631   3.063   5.321 -0.6204  3.2175  1.0361
 4277SOL    HW214432   5.764   3.145   5.272  1.3335 -0.0581  0.5435
 4278SOL     OW14433   1.025   2.656   0.988  0.8200  0.6818  0.2293
 4278SOL    HW114434   1.103   2.710   1.018  0.7617  0.6452  0.4515
 4278SOL    HW214435   1.033   2.562   1.024  0.4161  0.8160  0.6934
 4279SOL     OW14436   0.798   6.509   4.326  0.5579 -0.5480  0.1401
 4279SOL    HW114437   0.792   6.562   4.242  0.2295 -1.3478 -0.3525
 4279SOL    HW214438   0.730   6.543   4.391  1.0328  0.2832  0.2154
 4280SOL     OW14439   5.454   4.063   6.099  0.4433 -0.0258 -0.2353
 4280SOL    HW114440   5.473   4.032   6.192  1.2532  1.5758  0.1765
 4280SOL    HW214441   5.440   3.984   6.039  1.2277 -1.1184  0.9752
 4281SOL     OW14442   3.273   3.357   6.293 -0.1487 -0.4545  0.0729
 4281SOL    HW114443   3.282   3.384   6.196 -1.7619 -0.1677 -0.0197
 4281SOL    HW214444   3.352   3.303   6.319  1.0246  0.6486 -1.0089
 4282SOL     OW14445   6.001   5.131   3.537 -0.0978  0.7023  0.2390
 4282SOL    HW114446   6.075   5.128   3.470 -0.5597  0.7390 -0.2827
 4282SOL    HW214447   5.925   5.075   3.505 -0.1707  0.3805  0.9352
 4283SOL     OW14448   5.867   5.622   2.312  0.0052 -0.1276  0.5025
 4283SOL    HW114449   5.836   5.528   2.324  3.2623 -1.0155  3.6089
 4283SOL    HW214450   5.938   5.625   2.241  0.5850 -0.2437  1.0666
 4284SOL     OW14451   2.659   1.244   3.793  0.0597 -0.4044 -0.3166
 4284SOL    HW114452   2.578   1.196   3.761 -0.3872 -0.8639  1.3858
 4284SOL    HW214453   2.698   1.195   3.872  1.1409  0.6055 -0.1920
 4285SOL     OW14454   0.784   0.110   4.525  0.1872  0.3348 -0.5097
 4285SOL    HW114455   0.874   0.108   4.482  0.6486  2.8594  0.2017
 4285SOL    HW214456   0.742   0.200   4.511 -0.5673  0.5424  2.4187
 4286SOL     OW14457   5.174   3.268   5.361 -0.2483  0.1252  0.4051
 4286SOL    HW114458   5.091   3.294   5.411 -0.4370  1.6731 -0.6263
 4286SOL    HW214459   5.149   3.209   5.284 -0.3870  0.4826  0.1726
 4287SOL     OW14460   0.936   6.924   0.838  0.4797  0.3576 -0.3463
 4287SOL    HW114461   0.910   6.925   0.934  2.9967 -0.1672  0.4046
 4287SOL    HW214462   0.859   6.957   0.782 -1.1704  0.2798  1.7642
 4288SOL     OW14463   0.183   6.241   1.051 -0.3603  0.2121 -0.2590
 4288SOL    HW114464   0.084   6.255   1.043 -0.8996 -1.8898  1.8330
 4288SOL    HW214465   0.216   6.280   1.137  0.3080 -0.5368 -0.1629
 4289SOL     OW14466   4.539   2.331   1.364 -0.3452  0.3468  0.5371
 4289SOL    HW114467   4.618   2.271   1.376 -0.2179  0.1393 -1.0356
 4289SOL    HW214468   4.495   2.310   1.276  0.1058  2.9899 -0.4141
 4290SOL     OW14469   2.190   5.507   0.990  0.4117 -0.6425 -0.4134
 4290SOL    HW114470   2.149   5.552   1.069 -0.1147 -3.0687  0.7666
 4290SOL    HW214471   2.123   5.501   0.916  0.1772 -0.3717 -0.2220
 4291SOL     OW14472   0.562   6.202   1.244  0.3909  0.3652  0.2415
 4291SOL    HW114473   0.542   6.137   1.170  2.0318 -0.0739  0.1547
 4291SOL    HW214474   0.628   6.270   1.211 -1.1005  1.9664  0.4101
 4292SOL     OW14475   6.368   4.482   5.945  0.4283 -0.0963  0.4572
 4292SOL    HW114476   6.353   4.563   5.889 -1.4236 -0.2799  0.6111
 4292SOL    HW214477   6.280   4.449   5.980  1.2479 -1.5852  1.2246
 4293SOL     OW14478   5.160   0.356   6.225 -0.2049  0.3137 -0.0716
 4293SOL    HW114479   5.074   0.315   6.254 -0.4277  1.1762  0.5212
 4293SOL    HW214480   5.216   0.377   6.305 -0.6725  2.3788 -0.2307
 4294SOL     OW14481   5.626   6.082   1.484  0.4636 -0.3346  0.3253
 4294SOL    HW114482   5.586   6.168   1.451  0.0847 -0.4694  0.4243
 4294SOL    HW214483   5.557   6.010   1.480  0.8843 -0.7172 -0.0912
 4295SOL     OW14484   3.532   4.390   0.873  0.2725 -0.2107 -0.1015
 4295SOL    HW114485   3.550   4.486   0.853 -1.4698  0.2292  0.2467
 4295SOL    HW214486   3.462   4.355   0.811  0.9214 -1.2935 -0.2638
 4296SOL     OW14487   1.945   0.032   1.859  0.3198  0.1655 -0.2331
 4296SOL    HW114488   1.919   0.074   1.772 -1.9277 -1.1073 -0.2467
 4296SOL    HW214489   2.033  -0.013   1.850 -0.6751 -1.4735 -2.4254
 4297SOL     OW14490   4.762   5.637   2.555  0.3247 -0.1884  0.0386
 4297SOL    HW114491   4.683   5.698   2.544  0.6706  0.4847  1.1682
 4297SOL    HW214492   4.763   5.601   2.648  2.0534  0.8366  0.4600
 4298SOL     OW14493   5.598   5.754   4.348 -0.8450  0.2717  0.3560
 4298SOL    HW114494   5.651   5.838   4.356 -1.9193  1.2378 -1.7729
 4298SOL    HW214495   5.659   5.676   4.336  0.1434  0.9649  0.8085
 4299SOL     OW14496   1.313   0.873   0.317 -0.1317 -0.2543 -0.1639
 4299SOL    HW114497   1.282   0.787   0.358 -0.4418  0.0640  0.2820
 4299SOL    HW214498   1.310   0.865   0.217 -4.4249  0.6261 -0.3020
 4300SOL     OW14499   2.865   1.404   1.084 -0.0431  0.7620  0.4587
 4300SOL    HW114500   2.925   1.466   1.134  1.1717 -1.7562  2.3272
 4300SOL    HW214501   2.919   1.339   1.031 -1.1252 -0.6210  0.9762
 4301SOL     OW14502   2.336   3.278   3.245  0.1869  0.4258  0.1950
 4301SOL    HW114503   2.414   3.263   3.306 -0.4528  0.6913  1.1034
 4301SOL    HW214504   2.327   3.201   3.182  0.0223 -0.5435  1.3674
 4302SOL     OW14505   0.393   0.622   4.025  0.1518 -0.2726 -0.2868
 4302SOL    HW114506   0.466   0.609   3.958 -0.4919 -0.2682 -1.0102
 4302SOL    HW214507   0.311   0.656   3.978 -0.1536  0.2224  0.5895
 4303SOL     OW14508   2.636   6.954   6.959  0.6115  0.0337  0.2239
 4303SOL    HW114509   2.547   6.937   6.918 -0.4255  0.6866  2.1138
 4303SOL    HW214510   2.681   6.867   6.978 -0.7234 -0.4045  1.5352
 4304SOL     OW14511   1.234   6.774   5.186  0.1806  0.1093 -0.2341
 4304SOL    HW114512   1.136   6.794   5.180  0.1277 -0.2118 -0.4901
 4304SOL    HW214513   1.264   6.780   5.281  0.0321  0.7560 -0.2205
 4305SOL     OW14514   3.670   0.175   1.443  0.1118 -0.3466 -0.1177
 4305SOL    HW114515   3.718   0.166   1.530 -1.0748  2.2956  0.9316
 4305SOL    HW214516   3.736   0.198   1.371  0.9425 -1.3093  0.3094
 4306SOL     OW14517   0.768   1.806   4.476  0.3110 -0.7040 -0.4031
 4306SOL    HW114518   0.821   1.722   4.477  1.8810  0.2248  1.5522
 4306SOL    HW214519   0.702   1.805   4.551  1.3536  0.3637  0.5683
 4307SOL     OW14520   0.503   5.126   3.214 -0.0210  0.3235  0.0971
 4307SOL    HW114521   0.409   5.097   3.229  0.2674  0.2721  2.1246
 4307SOL    HW214522   0.559   5.046   3.192 -0.3253  0.2563 -0.4409
 4308SOL     OW14523   4.309   1.387   6.937 -0.8424 -0.0122  0.6135
 4308SOL    HW114524   4.359   1.346   6.861  0.3860  0.0771  1.3325
 4308SOL    HW214525   4.255   1.318   6.983 -2.7122  0.1949 -1.1418
 4309SOL     OW14526   5.301   3.506   2.290  0.3629 -0.0694  0.3517
 4309SOL    HW114527   5.340   3.539   2.376  1.8064 -0.9271  0.0675
 4309SOL    HW214528   5.357   3.537   2.214  0.5975 -1.4206 -0.0640
 4310SOL     OW14529   0.443   2.630   3.450  0.3769 -0.7655  0.7162
 4310SOL    HW114530   0.469   2.684   3.530 -1.3585  0.5533  0.4491
 4310SOL    HW214531   0.390   2.550   3.479 -2.0782  0.8081  0.8690
 4311SOL     OW14532   1.391   1.223   1.605 -0.6951 -0.3603 -0.5763
 4311SOL    HW114533   1.368   1.300   1.547 -1.6912 -1.1841 -1.3067
 4311SOL    HW214534   1.465   1.249   1.668  0.3750  0.5707 -2.1469
 4312SOL     OW14535   2.804   3.033   5.334 -1.1402  0.4768 -0.5229
 4312SOL    HW114536   2.803   3.077   5.424 -0.7044  1.5362 -1.0170
 4312SOL    HW214537   2.895   2.996   5.316 -1.2695  0.1276 -0.4666
 4313SOL     OW14538   2.034   2.378   4.835 -0.7342 -0.1368  0.3029
 4313SOL    HW114539   2.054   2.459   4.780 -0.6443 -1.1890 -1.2807
 4313SOL    HW214540   2.092   2.378   4.917  0.7618  0.3739 -0.7051
 4314SOL     OW14541   4.802   0.112   4.162  0.1387 -0.1229  0.3947
 4314SOL    HW114542   4.733   0.040   4.166 -0.5210  0.4918  0.1337
 4314SOL    HW214543   4.882   0.083   4.215 -0.5499 -0.5841  1.2202
 4315SOL     OW14544   2.935   4.866   3.409 -0.3972  0.2403  0.1095
 4315SOL    HW114545   2.999   4.873   3.486 -1.5427 -0.5961  1.1728
 4315SOL    HW214546   2.943   4.775   3.368 -1.2813 -0.0551  0.5892
 4316SOL     OW14547   0.549   0.988   5.168 -0.6924  0.2028  0.3689
 4316SOL    HW114548   0.517   1.016   5.078 -2.7277  1.5958  1.4439
 4316SOL    HW214549   0.641   1.022   5.184 -0.7617  0.9383 -0.7429
 4317SOL     OW14550   3.983   2.487   4.446  0.3479 -0.6523  0.1443
 4317SOL    HW114551   3.945   2.486   4.353 -1.2587  0.5454  0.7357
 4317SOL    HW214552   4.075   2.448   4.445  0.1439 -1.1954 -1.8428
 4318SOL     OW14553   3.311   3.896   3.004  0.4238 -0.1421  0.1444
 4318SOL    HW114554   3.323   3.967   3.073 -0.1836 -0.9677  1.1430
 4318SOL    HW214555   3.224   3.849   3.020 -0.0627  0.0922 -1.6227
 4319SOL     OW14556   1.325   3.248   6.732 -0.1834  0.0073  0.2114
 4319SOL    HW114557   1.292   3.154   6.735  1.9838 -0.8606 -0.8889
 4319SOL    HW214558   1.303   3.294   6.817 -0.6363 -1.7359  1.0787
 4320SOL     OW14559   5.840   5.291   3.694  0.0823 -0.2701 -0.1635
 4320SOL    HW114560   5.903   5.235   3.639 -0.7166  0.0113 -1.4135
 4320SOL    HW214561   5.890   5.329   3.772  0.2157 -4.3673  2.0565
 4321SOL     OW14562   0.906   5.993   3.618 -0.8525  0.5351  0.5071
 4321SOL    HW114563   0.966   6.060   3.660 -0.2274 -0.7642  1.7880
 4321SOL    HW214564   0.812   6.008   3.649 -0.4427 -0.2505  2.2658
 4322SOL     OW14565   3.082   0.019   3.461  0.1968  0.2280 -0.9918
 4322SOL    HW114566   3.090  -0.052   3.391 -1.4475 -0.9803 -0.0517
 4322SOL    HW214567   3.112  -0.018   3.549  0.9071  1.2723 -0.7746
 4323SOL     OW14568   1.172   6.149   3.255  0.6748  0.1798 -0.2552
 4323SOL    HW114569   1.266   6.154   3.221  0.9978 -2.3077  0.0831
 4323SOL    HW214570   1.115   6.100   3.190  0.1132 -0.1569  0.4734
 4324SOL     OW14571   0.662   4.621   5.208  0.1412  0.2881 -0.3280
 4324SOL    HW114572   0.706   4.559   5.274 -0.1137  0.5215  0.0686
 4324SOL    HW214573   0.598   4.570   5.151 -0.5464  0.2902  0.4274
 4325SOL     OW14574   6.904   5.466   2.814 -0.1592 -0.4365 -0.4030
 4325SOL    HW114575   6.888   5.410   2.732 -0.5916  0.2238 -0.7808
 4325SOL    HW214576   6.835   5.538   2.818 -0.0998 -0.4296  0.5185
 4326SOL     OW14577   0.880   3.647   5.755  0.0441 -0.1559 -0.6516
 4326SOL    HW114578   0.972   3.674   5.785 -0.3080  2.8530 -1.9398
 4326SOL    HW214579   0.821   3.637   5.834  0.5566  1.8293  0.0402
 4327SOL     OW14580   6.304   5.622   6.048  0.2521  0.1613 -0.6300
 4327SOL    HW114581   6.346   5.702   6.006  0.3396  0.5699  0.2077
 4327SOL    HW214582   6.363   5.542   6.035  0.7011  0.4715 -0.5105
 4328SOL     OW14583   2.040   4.693   0.374  0.2680 -0.1367 -0.2703
 4328SOL    HW114584   1.991   4.607   0.388 -1.0280  0.8044  1.1802
 4328SOL    HW214585   2.075   4.726   0.461  1.7299  0.2789 -0.9779
 4329SOL     OW14586   1.097   1.525   6.565  0.5548 -0.0529 -0.7017
 4329SOL    HW114587   1.175   1.474   6.529 -1.0576 -0.6831 -3.5871
 4329SOL    HW214588   1.018   1.465   6.572  0.1160  0.6891  1.6872
 4330SOL     OW14589   5.088   6.763   1.073  0.4857 -0.1692 -0.4620
 4330SOL    HW114590   5.090   6.849   1.124  2.0999 -0.7121  0.4544
 4330SOL    HW214591   5.004   6.713   1.095  0.1933  0.5330  0.0600
 4331SOL     OW14592   5.435   2.564   5.855 -0.2266 -0.1266 -0.1080
 4331SOL    HW114593   5.392   2.539   5.941 -1.9898 -1.7547 -1.3660
 4331SOL    HW214594   5.404   2.656   5.828 -4.3550 -1.7214 -1.6349
 4332SOL     OW14595   2.695   6.797   2.132  0.1984  0.4528  0.2894
 4332SOL    HW114596   2.681   6.840   2.043  0.4487  3.0753  1.4485
 4332SOL    HW214597   2.701   6.698   2.120 -2.0377  0.5167 -2.3213
 4333SOL     OW14598   5.543   2.847   2.501  0.4158 -0.4263  0.2663
 4333SOL    HW114599   5.592   2.911   2.560 -0.0213  2.7665 -2.5088
 4333SOL    HW214600   5.602   2.821   2.424 -0.6119 -0.4397 -0.5413
 4334SOL     OW14601   2.417   1.916   5.846 -0.3811 -0.1885 -0.1049
 4334SOL    HW114602   2.359   1.997   5.859 -0.5490 -0.6039  2.1020
 4334SOL    HW214603   2.374   1.837   5.890  0.2464 -1.2862 -1.4041
 4335SOL     OW14604   3.052   3.602   1.695 -0.0636  0.0926 -0.1610
 4335SOL    HW114605   3.005   3.684   1.663 -0.7870 -0.0206  0.5620
 4335SOL    HW214606   3.042   3.529   1.627  2.0500  1.0618 -1.6189
 4336SOL     OW14607   0.064   3.298   5.055 -0.4405  0.7713 -0.3304
 4336SOL    HW114608   0.001   3.252   4.992  1.0028  0.2144 -1.4274
 4336SOL    HW214609   0.088   3.236   5.130 -0.8229  0.8201 -0.1653
 4337SOL     OW14610   0.820   1.528   2.421  0.4620  0.1409 -0.1264
 4337SOL    HW114611   0.818   1.627   2.413  0.0197  0.0735 -1.0940
 4337SOL    HW214612   0.885   1.490   2.355 -0.1612 -0.2608 -0.5241
 4338SOL     OW14613   0.874   4.618   6.289 -0.6421 -0.1059 -0.3373
 4338SOL    HW114614   0.831   4.652   6.205 -2.3229 -2.6847 -0.6363
 4338SOL    HW214615   0.967   4.587   6.270 -0.8746 -0.3059 -1.1726
 4339SOL     OW14616   1.451   2.549   3.168 -0.9457  0.6045  0.7933
 4339SOL    HW114617   1.523   2.560   3.237 -1.6211 -0.3420  1.6812
 4339SOL    HW214618   1.368   2.594   3.200 -0.7738  1.6846 -0.2252
 4340SOL     OW14619   2.973   0.962   2.769 -0.3578 -0.1620 -0.3004
 4340SOL    HW114620   2.974   0.896   2.844  1.9722 -0.4771 -0.5540
 4340SOL    HW214621   2.924   0.922   2.691 -0.6808 -0.7881  0.2165
 4341SOL     OW14622   1.567   1.446   6.191 -0.5775  0.0956 -0.7086
 4341SOL    HW114623   1.493   1.381   6.176 -0.0143 -0.3531 -1.6199
 4341SOL    HW214624   1.618   1.419   6.273  0.1158 -1.0729 -1.5003
 4342SOL     OW14625   4.728   2.355   4.719 -0.1361 -0.4041 -0.1049
 4342SOL    HW114626   4.755   2.435   4.773 -0.6291  0.5466 -1.2014
 4342SOL    HW214627   4.764   2.272   4.761  1.0356  0.4560  0.6496
 4343SOL     OW14628   5.648   6.422   1.469 -0.2301  0.9992  0.0095
 4343SOL    HW114629   5.619   6.383   1.556 -0.2105 -1.9621 -1.2077
 4343SOL    HW214630   5.574   6.415   1.402  0.2477  1.8838 -0.6478
 4344SOL     OW14631   2.245   1.126   5.950  0.2520  0.1717 -0.2872
 4344SOL    HW114632   2.262   1.030   5.971 -0.2477  0.2738  0.6231
 4344SOL    HW214633   2.205   1.134   5.858 -1.1026 -0.6171  0.2206
 4345SOL     OW14634   3.447   2.309   2.411  0.2346  0.2886  0.1251
 4345SOL    HW114635   3.414   2.391   2.456 -1.4788 -0.0447 -0.4662
 4345SOL    HW214636   3.437   2.319   2.312  1.4237 -0.0518 -0.0469
 4346SOL     OW14637   3.291   4.021   2.189 -0.3096  0.2855  0.1949
 4346SOL    HW114638   3.226   4.007   2.115  0.3956 -0.9877 -0.2166
 4346SOL    HW214639   3.384   4.020   2.152  0.0212  0.3536  1.0020
 4347SOL     OW14640   1.560   6.498   5.238  0.3815  0.3080 -0.5621
 4347SOL    HW114641   1.584   6.542   5.324  0.4530  1.1524 -1.0055
 4347SOL    HW214642   1.500   6.558   5.186 -1.2727 -0.9956 -0.2633
 4348SOL     OW14643   2.023   1.522   2.849 -0.7529  0.3013  0.1381
 4348SOL    HW114644   1.928   1.494   2.855 -0.2296 -1.9443 -1.0790
 4348SOL    HW214645   2.076   1.453   2.801  1.5106  1.5086  0.7152
 4349SOL     OW14646   0.403   4.651   1.506  0.2494  0.2373  0.2413
 4349SOL    HW114647   0.472   4.720   1.488 -0.1262  0.4048 -0.5917
 4349SOL    HW214648   0.447   4.562   1.519  0.8457  0.7795  2.5064
 4350SOL     OW14649   5.948   0.673   4.949  0.3935 -0.3440  0.4349
 4350SOL    HW114650   5.851   0.651   4.963  0.2023 -0.1833 -0.5379
 4350SOL    HW214651   5.973   0.750   5.008 -0.0746 -0.3736  0.6812
 4351SOL     OW14652   6.924   1.403   6.067 -0.2055  0.6055 -0.2543
 4351SOL    HW114653   6.895   1.385   6.161  1.9851  0.2377  0.3981
 4351SOL    HW214654   6.939   1.501   6.056 -1.7865  0.8303 -0.6639
 4352SOL     OW14655   5.911   4.521   1.305 -0.1380 -0.8010  0.1863
 4352SOL    HW114656   5.920   4.422   1.319  0.0749 -0.9078 -0.6739
 4352SOL    HW214657   5.826   4.553   1.346 -0.6921 -1.5082 -0.3987
 4353SOL     OW14658   0.033   4.737   0.607 -0.0368 -0.7096  0.5727
 4353SOL    HW114659  -0.017   4.686   0.678 -0.1585 -0.6345  0.5414
 4353SOL    HW214660   0.059   4.674   0.534 -0.0111 -0.7652  0.6293
 4354SOL     OW14661   0.878   5.423   5.048 -0.6022 -0.2974  0.5534
 4354SOL    HW114662   0.955   5.418   4.984 -2.8266  2.9652 -2.7897
 4354SOL    HW214663   0.798   5.381   5.006 -2.3158  2.5519  0.7896
 4355SOL     OW14664   1.486   1.691   6.571  0.6784 -0.6448 -0.0137
 4355SOL    HW114665   1.451   1.762   6.511  0.7617 -0.2289  0.4264
 4355SOL    HW214666   1.416   1.621   6.584  0.4998 -0.5073 -0.2330
 4356SOL     OW14667   0.707   5.638   5.337 -0.3133  0.1786 -0.2158
 4356SOL    HW114668   0.707   5.678   5.246  2.4750  0.2769 -0.2425
 4356SOL    HW214669   0.746   5.703   5.403  0.3118 -0.8873  0.5105
 4357SOL     OW14670   3.914   6.559   5.988 -0.0836 -0.5051 -0.2440
 4357SOL    HW114671   3.903   6.460   5.980  0.1448 -0.5823  0.3780
 4357SOL    HW214672   3.830   6.604   5.957 -0.1582 -0.8909 -0.6053
 4358SOL     OW14673   0.906   1.275   1.462  0.0096 -0.0836 -0.0058
 4358SOL    HW114674   0.808   1.257   1.455 -0.0841 -2.2636  3.8751
 4358SOL    HW214675   0.954   1.188   1.474  2.1549  1.0778  0.1865
 4359SOL     OW14676   4.254   6.118   3.347 -0.1936  0.0117 -0.1645
 4359SOL    HW114677   4.214   6.142   3.435  0.6880 -1.2283  0.6264
 4359SOL    HW214678   4.344   6.161   3.338 -1.1924  1.9811 -1.4964
 4360SOL     OW14679   2.962   5.384   1.585  0.3341 -0.3207  0.7787
 4360SOL    HW114680   2.954   5.289   1.555  1.8595 -0.6894  1.4446
 4360SOL    HW214681   3.056   5.415   1.572 -0.2608  1.3038  0.0593
 4361SOL     OW14682   6.139   2.292   1.842 -0.6343 -0.2360 -0.5167
 4361SOL    HW114683   6.158   2.354   1.918 -1.6945  1.6721 -1.7384
 4361SOL    HW214684   6.040   2.276   1.835 -0.5085 -0.7876 -1.2044
 4362SOL     OW14685   6.688   3.120   0.884 -0.1871  0.3648 -0.0833
 4362SOL    HW114686   6.604   3.139   0.934 -0.2113 -0.2937  0.1425
 4362SOL    HW214687   6.695   3.021   0.867  0.7255  0.3589  0.2388
 4363SOL     OW14688   5.130   3.386   1.709  0.0344 -0.1094  0.2944
 4363SOL    HW114689   5.053   3.385   1.773 -1.5447 -0.1116 -1.5012
 4363SOL    HW214690   5.141   3.295   1.669  2.2129 -0.6033  1.8488
 4364SOL     OW14691   2.258   3.531   6.358 -0.1474  0.2945  0.1753
 4364SOL    HW114692   2.232   3.500   6.449 -0.5079  1.8415  0.6292
 4364SOL    HW214693   2.178   3.529   6.298 -0.3252  0.9527  0.3854
 4365SOL     OW14694   2.707   2.143   1.365  0.5053 -0.4920 -0.5012
 4365SOL    HW114695   2.632   2.153   1.299 -1.2115 -0.0067  1.4165
 4365SOL    HW214696   2.669   2.121   1.455  2.6445  0.3641  0.6814
 4366SOL     OW14697   5.288   1.419   3.645  0.2420 -0.5835 -0.1592
 4366SOL    HW114698   5.383   1.403   3.617  0.1911 -0.6515 -0.2949
 4366SOL    HW214699   5.236   1.454   3.568  0.6201  1.3766  0.4371
 4367SOL     OW14700   3.979   1.887   6.279 -0.6506 -0.1812  0.3181
 4367SOL    HW114701   3.911   1.848   6.217 -0.3433 -0.5476  0.2100
 4367SOL    HW214702   4.009   1.818   6.344  0.3214 -0.3087 -0.2344
 4368SOL     OW14703   4.973   2.364   4.423  0.5481 -0.1330  0.4252
 4368SOL    HW114704   4.878   2.369   4.394  0.5262 -1.0859  0.3275
 4368SOL    HW214705   4.993   2.273   4.459  1.3576  0.1359  0.6844
 4369SOL     OW14706   1.599   4.893   3.922 -0.6783 -0.0924  0.4565
 4369SOL    HW114707   1.596   4.908   4.021  0.0634 -1.1898  0.6593
 4369SOL    HW214708   1.522   4.836   3.894 -1.0577  0.4659  0.3459
 4370SOL     OW14709   5.504   1.670   0.214  0.3284  0.5970 -0.1311
 4370SOL    HW114710   5.417   1.631   0.245  1.3586 -0.5871  1.4705
 4370SOL    HW214711   5.489   1.763   0.181 -1.8871 -0.3553 -2.1108
 4371SOL     OW14712   2.340   4.321   5.248 -0.2052 -0.0018 -0.7173
 4371SOL    HW114713   2.396   4.369   5.180 -1.2101  0.2527 -1.3742
 4371SOL    HW214714   2.244   4.328   5.224 -0.4020 -2.7668 -1.1170
 4372SOL     OW14715   1.214   1.053   3.322 -0.3466 -0.1666 -0.2335
 4372SOL    HW114716   1.188   0.967   3.365  0.0503  0.7959  2.1044
 4372SOL    HW214717   1.305   1.080   3.354  0.4642  0.1190 -2.5844
 4373SOL     OW14718   5.062   5.473   3.888  0.3790 -0.5607  0.4465
 4373SOL    HW114719   5.000   5.550   3.906  0.8984  0.4934 -1.9258
 4373SOL    HW214720   5.012   5.387   3.896 -0.6849  0.1085  1.2415
 4374SOL     OW14721   6.468   6.754   6.382 -0.0130  0.4368 -0.1254
 4374SOL    HW114722   6.507   6.726   6.294  0.5411 -1.4341  0.6693
 4374SOL    HW214723   6.431   6.674   6.429 -2.8065  1.8020  0.1719
 4375SOL     OW14724   5.432   5.287   5.998  0.5606 -0.0419 -0.4143
 4375SOL    HW114725   5.464   5.343   6.074 -1.8546 -0.6826  1.2052
 4375SOL    HW214726   5.509   5.242   5.954  1.9986 -0.7674  2.5870
 4376SOL     OW14727   2.548   1.061   0.110 -0.1573  0.2840 -0.1539
 4376SOL    HW114728   2.567   1.081   0.206 -1.6392  1.2582 -0.0436
 4376SOL    HW214729   2.575   0.966   0.091  1.2376  0.4286  0.8986
 4377SOL     OW14730   6.290   3.361   0.871  0.0260 -0.4951  0.5563
 4377SOL    HW114731   6.277   3.460   0.867  0.0125 -0.5126 -0.0671
 4377SOL    HW214732   6.225   3.321   0.935  1.4280  0.1084  2.4392
 4378SOL     OW14733   3.605   2.344   6.944  0.1850 -0.2659  0.0369
 4378SOL    HW114734   3.656   2.394   6.874  0.1359  1.1910  1.0054
 4378SOL    HW214735   3.511   2.330   6.914 -0.5094  2.3959  0.6829
 4379SOL     OW14736   0.206   0.214   0.046 -0.7487  0.0397  0.1307
 4379SOL    HW114737   0.149   0.278  -0.006 -1.6687 -1.5801 -0.9389
 4379SOL    HW214738   0.164   0.198   0.135 -0.8811  0.4095  0.1366
 4380SOL     OW14739   6.270   4.629   6.193  0.2323 -0.2822  0.5712
 4380SOL    HW114740   6.367   4.619   6.173  0.1250 -0.7089  0.2438
 4380SOL    HW214741   6.219   4.554   6.151 -0.1689 -0.4027  1.2507
 4381SOL     OW14742   6.616   6.214   2.767 -0.8036  0.2572  0.3615
 4381SOL    HW114743   6.611   6.131   2.712  1.3185  0.2319  0.1468
 4381SOL    HW214744   6.641   6.190   2.861 -2.1834  0.5135  0.8277
 4382SOL     OW14745   4.179   1.443   6.679 -0.1687  0.1905 -0.6563
 4382SOL    HW114746   4.093   1.492   6.662  0.0586  0.5461 -0.7867
 4382SOL    HW214747   4.189   1.426   6.776 -0.7723 -0.5585 -0.7153
 4383SOL     OW14748   6.791   5.548   1.097 -0.9284  0.4810  0.5806
 4383SOL    HW114749   6.758   5.481   1.163 -0.4793 -0.1852  0.1414
 4383SOL    HW214750   6.715   5.607   1.069 -1.7415 -0.9301 -0.3140
 4384SOL     OW14751   2.842   2.305   1.150 -0.0762  0.1168 -0.1000
 4384SOL    HW114752   2.939   2.284   1.132  0.0680  0.2187  0.5473
 4384SOL    HW214753   2.814   2.260   1.234 -0.5062  0.3686 -0.1104
 4385SOL     OW14754   2.128   5.675   0.447  0.2225  0.5319 -0.1030
 4385SOL    HW114755   2.043   5.703   0.402 -0.3928  0.7849  1.1749
 4385SOL    HW214756   2.199   5.744   0.430 -0.6677  1.8306  1.2272
 4386SOL     OW14757   3.749   5.581   1.056 -0.5921  0.0745 -0.8083
 4386SOL    HW114758   3.785   5.673   1.070  0.7488 -0.4948 -0.3162
 4386SOL    HW214759   3.824   5.516   1.053 -1.5906 -1.2893  1.1166
 4387SOL     OW14760   1.970   1.356   4.834  0.0231 -0.2550 -0.1280
 4387SOL    HW114761   2.047   1.413   4.804  0.6479 -1.0202 -0.0292
 4387SOL    HW214762   1.961   1.278   4.773 -1.7168  0.6498 -1.1012
 4388SOL     OW14763   4.657   5.464   4.392 -0.5206 -0.0401 -0.2277
 4388SOL    HW114764   4.558   5.449   4.395 -0.8532  2.0936  0.5932
 4388SOL    HW214765   4.687   5.507   4.476  0.7855  1.1575 -1.2695
 4389SOL     OW14766   0.319   1.223   5.785 -0.0754  0.1716 -0.1332
 4389SOL    HW114767   0.339   1.199   5.690 -0.4775 -1.3551  0.1470
 4389SOL    HW214768   0.220   1.227   5.799 -0.1843 -3.3062  1.0170
 4390SOL     OW14769   1.898   6.852   6.927  0.0738  0.1854  0.1548
 4390SOL    HW114770   1.974   6.907   6.893 -0.5400  0.0368 -1.5956
 4390SOL    HW214771   1.913   6.756   6.903 -0.5802  0.1302 -0.0627
 4391SOL     OW14772   1.651   1.535   4.520  0.5881  0.3267  0.5314
 4391SOL    HW114773   1.650   1.439   4.547 -0.6753 -0.3417 -1.6431
 4391SOL    HW214774   1.738   1.556   4.475  0.5885  0.0164  0.3865
 4392SOL     OW14775   4.157   2.200   2.953 -0.0580  0.9863  0.2000
 4392SOL    HW114776   4.142   2.205   2.855 -0.6445  1.8452  0.3247
 4392SOL    HW214777   4.071   2.216   3.001  0.0833 -0.1272  0.8503
 4393SOL     OW14778   6.475   6.160   4.098  0.2511 -0.3973  0.6244
 4393SOL    HW114779   6.525   6.158   4.184  2.1199  1.5570 -0.3045
 4393SOL    HW214780   6.535   6.127   4.024 -0.0325  1.2796 -0.4086
 4394SOL     OW14781   2.741   4.058   5.119 -0.3224 -0.0819  0.3361
 4394SOL    HW114782   2.784   4.136   5.165  0.7114  1.7385 -3.2991
 4394SOL    HW214783   2.643   4.058   5.136 -0.3540  2.1162  0.3316
 4395SOL     OW14784   6.554   4.251   2.905  0.4519 -0.3404 -0.1237
 4395SOL    HW114785   6.507   4.276   2.820  0.7212  1.7900  0.3044
 4395SOL    HW214786   6.486   4.239   2.978  0.2777 -1.5035 -0.4511
 4396SOL     OW14787   2.803   5.469   6.050 -0.7854 -0.6971 -0.1972
 4396SOL    HW114788   2.782   5.554   6.098 -0.4637 -0.2808 -0.7853
 4396SOL    HW214789   2.729   5.447   5.987  0.5963  0.9833 -2.5663
 4397SOL     OW14790   2.665   5.307   4.415  0.2011 -0.7136 -0.0965
 4397SOL    HW114791   2.605   5.387   4.423  1.8123  0.7222 -1.4199
 4397SOL    HW214792   2.656   5.250   4.497 -2.1211 -0.0256  0.2183
 4398SOL     OW14793   1.047   0.231   3.478  0.1178 -0.2058  0.0321
 4398SOL    HW114794   1.001   0.186   3.555  0.3597 -1.8843 -0.7516
 4398SOL    HW214795   1.031   0.329   3.482 -1.3339 -0.4544  1.2550
 4399SOL     OW14796   6.311   5.346   1.568 -0.4095  0.2405  0.7593
 4399SOL    HW114797   6.277   5.303   1.484 -2.8524 -0.4254  2.0083
 4399SOL    HW214798   6.323   5.444   1.552 -0.9531  0.1514 -0.3274
 4400SOL     OW14799   1.061   2.569   5.731 -0.4248  0.3565  0.2870
 4400SOL    HW114800   1.003   2.488   5.722  0.1031  0.0867 -0.8856
 4400SOL    HW214801   1.086   2.602   5.640  0.7067  0.8693  0.7669
 4401SOL     OW14802   3.892   1.707   1.964 -0.0153  0.0148 -0.2031
 4401SOL    HW114803   3.860   1.767   1.891 -1.8693 -0.2360  0.3576
 4401SOL    HW214804   3.841   1.725   2.048  0.9414 -0.8310  0.6024
 4402SOL     OW14805   5.638   4.549   4.604  0.5364  0.1393  0.0747
 4402SOL    HW114806   5.604   4.627   4.551  0.8446 -0.9153 -1.7884
 4402SOL    HW214807   5.718   4.576   4.656 -0.3934  1.4873  0.8626
 4403SOL     OW14808   3.350   2.313   6.290  0.5803 -0.0544 -0.3075
 4403SOL    HW114809   3.416   2.262   6.236 -1.1101 -1.6977 -0.9154
 4403SOL    HW214810   3.303   2.379   6.231  0.1185 -0.4636 -0.4011
 4404SOL     OW14811   0.794   6.128   3.191  0.2831  0.4558  0.2711
 4404SOL    HW114812   0.791   6.163   3.097  0.7962  0.0223  0.0923
 4404SOL    HW214813   0.854   6.049   3.196 -1.5008 -0.9513  0.5005
 4405SOL     OW14814   6.033   3.069   4.351  0.0193  0.0422 -0.5230
 4405SOL    HW114815   5.961   3.098   4.414  1.2261  1.1536  0.3964
 4405SOL    HW214816   6.061   2.976   4.373  2.1837  1.2328  2.3660
 4406SOL     OW14817   3.071   5.695   1.833  0.6067 -0.9181 -0.6180
 4406SOL    HW114818   2.984   5.735   1.862  1.5548  1.2013 -0.4901
 4406SOL    HW214819   3.054   5.613   1.778 -1.6895  1.3008 -3.5888
 4407SOL     OW14820   1.062   0.320   0.574  0.6329  0.0304  0.7142
 4407SOL    HW114821   1.159   0.329   0.552  0.1741 -0.3207 -1.6510
 4407SOL    HW214822   1.038   0.223   0.581  0.2144  0.0888  0.1115
 4408SOL     OW14823   1.927   1.316   1.699 -0.1945 -0.0570  0.6629
 4408SOL    HW114824   1.916   1.276   1.608  0.7974 -0.7348  0.8167
 4408SOL    HW214825   1.869   1.268   1.764  0.0387 -0.4116  0.6120
 4409SOL     OW14826   2.075   1.526   1.265  0.8071  0.3189 -0.0581
 4409SOL    HW114827   1.979   1.553   1.253  0.9289  0.4512 -0.7634
 4409SOL    HW214828   2.111   1.567   1.348  0.0004 -0.4308  0.6870
 4410SOL     OW14829   3.976   0.727   0.939 -0.1273  0.5901  0.1744
 4410SOL    HW114830   3.999   0.760   1.031 -1.7133 -0.7471  1.1162
 4410SOL    HW214831   3.904   0.784   0.900 -0.7675  0.0717  0.5668
 4411SOL     OW14832   4.654   6.210   2.307 -0.2029 -0.6950 -0.0089
 4411SOL    HW114833   4.670   6.122   2.352 -2.3239  0.0028  2.3527
 4411SOL    HW214834   4.709   6.281   2.352 -0.0759 -0.4501 -0.5363
 4412SOL     OW14835   2.399   4.901   3.010  0.3737  0.6553 -0.1605
 4412SOL    HW114836   2.304   4.907   3.040  0.2594  0.0532 -0.3817
 4412SOL    HW214837   2.460   4.919   3.087  0.0814  0.0164  0.2292
 4413SOL     OW14838   5.270   3.625   5.365  0.4569 -0.8564  0.0253
 4413SOL    HW114839   5.282   3.554   5.434  1.4826 -0.2303  0.5162
 4413SOL    HW214840   5.360   3.653   5.330  0.0416 -0.1087 -0.4746
 4414SOL     OW14841   6.684   1.041   6.958 -0.4319 -0.0052  0.8442
 4414SOL    HW114842   6.755   1.112   6.963  0.2583 -0.4661 -1.1272
 4414SOL    HW214843   6.597   1.083   6.932  0.2261  0.0585 -1.4618
 4415SOL     OW14844   4.138   6.693   2.922  0.1235  0.0538  0.5349
 4415SOL    HW114845   4.207   6.763   2.904 -1.3292  2.5922  3.6881
 4415SOL    HW214846   4.172   6.629   2.991 -0.1357  0.4691  1.0579
 4416SOL     OW14847   1.243   0.482   1.730 -0.2269 -0.2336  0.6500
 4416SOL    HW114848   1.329   0.528   1.753  0.1417  0.3890 -1.7228
 4416SOL    HW214849   1.249   0.385   1.752  1.0159 -0.1584  0.6715
 4417SOL     OW14850   1.123   3.701   5.990  0.2202  0.6723 -0.2868
 4417SOL    HW114851   1.100   3.798   5.984  1.5222  1.0264  0.3570
 4417SOL    HW214852   1.053   3.653   6.043 -1.5954  0.8250 -2.3846
 4418SOL     OW14853   3.199   0.457   6.193 -0.3840  0.2595  0.5037
 4418SOL    HW114854   3.217   0.452   6.095 -1.4208  2.1195  0.1645
 4418SOL    HW214855   3.145   0.377   6.221  1.0505 -0.9748 -0.1365
 4419SOL     OW14856   4.997   0.222   2.657 -0.5969 -0.1866 -0.4045
 4419SOL    HW114857   5.031   0.301   2.709  1.0205 -1.2609  0.2439
 4419SOL    HW214858   4.985   0.249   2.561  0.8672  0.6120 -0.3915
 4420SOL     OW14859   2.578   0.441   1.379 -0.0190 -0.5672  0.2470
 4420SOL    HW114860   2.598   0.510   1.449  0.3707 -1.9849  1.5919
 4420SOL    HW214861   2.656   0.379   1.371  0.1451 -0.1417 -1.8439
 4421SOL     OW14862   4.177   6.842   6.967 -0.2366  0.1759  0.2695
 4421SOL    HW114863   4.080   6.863   6.954 -0.1028  1.6386  1.4281
 4421SOL    HW214864   4.231   6.897   6.903 -0.1681 -0.9919 -0.7112
 4422SOL     OW14865   5.317   4.388   1.673 -0.1056 -0.9026  0.5717
 4422SOL    HW114866   5.249   4.429   1.612 -0.1267 -0.9219  0.5822
 4422SOL    HW214867   5.304   4.289   1.677 -0.3168 -0.8655  0.8670
 4423SOL     OW14868   2.699   0.570   3.484  0.6426  0.1502 -0.5306
 4423SOL    HW114869   2.702   0.670   3.494  0.2504  0.2019 -0.9097
 4423SOL    HW214870   2.761   0.541   3.411  0.9150  0.0934 -0.2796
 4424SOL     OW14871   6.915   0.169   5.933  0.0436 -0.1753 -0.0850
 4424SOL    HW114872   6.852   0.216   5.995  0.1914 -1.0289  0.7342
 4424SOL    HW214873   6.866   0.100   5.880  0.0354  0.1133 -0.4544
 4425SOL     OW14874   4.119   1.373   2.187 -0.2004  0.5343 -0.3773
 4425SOL    HW114875   4.022   1.389   2.170 -0.1610  0.0686 -1.0949
 4425SOL    HW214876   4.168   1.460   2.190 -0.5462  0.7375 -0.6331
 4426SOL     OW14877   3.143   4.747   0.786 -0.4545  0.3181  0.4018
 4426SOL    HW114878   3.108   4.804   0.711  0.6555  0.7180  0.1599
 4426SOL    HW214879   3.224   4.790   0.825 -0.1170 -0.6605  0.8150
 4427SOL     OW14880   4.592   2.589   5.667 -0.1328 -0.3303 -0.7300
 4427SOL    HW114881   4.576   2.505   5.615  0.2160  0.0236 -1.4401
 4427SOL    HW214882   4.667   2.641   5.624 -0.8998  0.7505 -0.8157
 4428SOL     OW14883   6.253   1.526   6.330  0.5516  0.3920 -0.1914
 4428SOL    HW114884   6.251   1.584   6.411  0.7060  0.6183 -0.3468
 4428SOL    HW214885   6.168   1.537   6.279 -0.3096 -1.1146  0.8771
 4429SOL     OW14886   4.081   5.197   2.465  0.0443 -0.2516  0.6992
 4429SOL    HW114887   4.118   5.160   2.550  0.7195 -3.7666 -0.9342
 4429SOL    HW214888   4.157   5.229   2.408  0.0433 -1.6391 -0.1255
 4430SOL     OW14889   1.309   0.826   1.725  0.4632  0.0115  0.1948
 4430SOL    HW114890   1.375   0.764   1.767 -0.6949 -1.3662  0.0507
 4430SOL    HW214891   1.257   0.873   1.797 -0.3942 -1.1197  0.3467
 4431SOL     OW14892   6.419   6.565   2.281 -0.3897  0.3352  0.4243
 4431SOL    HW114893   6.457   6.498   2.345  0.9689  0.7632  0.0845
 4431SOL    HW214894   6.419   6.527   2.188 -3.3006 -0.6877  0.7216
 4432SOL     OW14895   3.222   6.061   2.976  0.3361 -0.2891  0.2208
 4432SOL    HW114896   3.199   5.964   2.964 -1.8505  0.1111  0.7973
 4432SOL    HW214897   3.159   6.117   2.922  0.5195  0.8663  1.1634
 4433SOL     OW14898   1.082   3.283   4.539 -0.2634  0.3304  0.1424
 4433SOL    HW114899   1.147   3.279   4.463 -0.6801  0.2509 -0.2114
 4433SOL    HW214900   1.060   3.379   4.558 -1.8109  0.3122 -1.2752
 4434SOL     OW14901   3.636   2.541   5.522  0.3148 -0.6332  0.1569
 4434SOL    HW114902   3.593   2.631   5.511  2.0871  0.3056  0.5125
 4434SOL    HW214903   3.595   2.476   5.458  0.7514  1.0795 -1.9834
 4435SOL     OW14904   1.629   5.431   5.910 -0.0166 -0.1163  0.4510
 4435SOL    HW114905   1.648   5.342   5.868  1.4950  1.0336 -1.5044
 4435SOL    HW214906   1.709   5.461   5.961 -0.6827 -0.0428  1.4747
 4436SOL     OW14907   3.858   1.301   1.395 -0.7521 -0.5469  0.0632
 4436SOL    HW114908   3.830   1.389   1.433 -2.9827 -1.0188 -0.3465
 4436SOL    HW214909   3.843   1.301   1.296 -0.4015 -1.2567  0.0029
 4437SOL     OW14910   0.033   4.423   6.987 -0.0088  0.1645  0.1494
 4437SOL    HW114911  -0.039   4.491   7.003  1.4853  2.7621 -3.0355
 4437SOL    HW214912   0.110   4.441   7.047 -0.2702  0.1726  0.4873
 4438SOL     OW14913   4.200   5.568   5.577 -0.3948 -0.1976 -0.1599
 4438SOL    HW114914   4.112   5.614   5.591 -0.1958  0.1721 -0.1102
 4438SOL    HW214915   4.246   5.557   5.666 -0.0967  0.2063 -0.2610
 4439SOL     OW14916   4.861   0.890   5.120 -0.0210  0.1691  0.0130
 4439SOL    HW114917   4.835   0.853   5.209  0.1925  2.2964  1.0307
 4439SOL    HW214918   4.779   0.915   5.069 -0.2909 -3.1930 -1.5021
 4440SOL     OW14919   6.259   2.809   6.353  0.0699  0.0183 -0.4958
 4440SOL    HW114920   6.252   2.768   6.445 -0.7360  1.2800  0.0347
 4440SOL    HW214921   6.308   2.746   6.293  2.0962 -0.1686  1.2090
 4441SOL     OW14922   0.868   5.395   6.907  0.9274  0.3013  0.5132
 4441SOL    HW114923   0.945   5.454   6.930  1.8745 -0.7449  0.0883
 4441SOL    HW214924   0.842   5.409   6.811  2.0324 -0.8882  0.0036
 4442SOL     OW14925   5.201   1.704   5.336  0.2229  0.1326 -0.5634
 4442SOL    HW114926   5.204   1.673   5.241 -0.9071  0.2359 -0.6527
 4442SOL    HW214927   5.111   1.743   5.355  0.2666 -0.3298  0.6903
 4443SOL     OW14928   0.950   2.191   6.385 -0.1774 -0.1895 -0.3730
 4443SOL    HW114929   0.957   2.126   6.460 -0.8429  0.7683  0.5616
 4443SOL    HW214930   0.957   2.143   6.298 -0.0591 -1.4149  0.2912
 4444SOL     OW14931   6.708   6.424   6.729  0.3375 -0.7129 -0.4397
 4444SOL    HW114932   6.661   6.500   6.774 -0.6135 -0.7225 -1.3922
 4444SOL    HW214933   6.680   6.419   6.633  2.6875 -0.3973 -1.2087
 4445SOL     OW14934   1.532   3.574   3.668  0.0653  0.2220 -0.1154
 4445SOL    HW114935   1.526   3.584   3.767 -0.1571 -1.7155  0.0880
 4445SOL    HW214936   1.502   3.483   3.641  1.2289  0.2989 -1.8586
 4446SOL     OW14937   1.665   6.165   4.273  0.1805 -0.2859  0.4785
 4446SOL    HW114938   1.698   6.077   4.237  1.4453  0.1741  0.4731
 4446SOL    HW214939   1.737   6.208   4.328 -0.8241  0.2365  1.4114
 4447SOL     OW14940   0.191   4.728   3.263  0.2630 -0.0115 -0.2533
 4447SOL    HW114941   0.166   4.737   3.167  1.4276 -0.6136 -0.6358
 4447SOL    HW214942   0.165   4.637   3.296 -1.1517  0.5859  0.3372
 4448SOL     OW14943   4.107   5.338   5.441  0.6189 -0.4238 -0.2448
 4448SOL    HW114944   4.187   5.301   5.393  2.1742 -0.9841  2.5400
 4448SOL    HW214945   4.138   5.406   5.507 -1.3833  0.1476  0.1499
 4449SOL     OW14946   5.249   1.890   2.915  0.0779 -0.4014 -0.1830
 4449SOL    HW114947   5.320   1.887   2.985 -0.6469  1.0753  0.6713
 4449SOL    HW214948   5.221   1.797   2.890  3.5699 -1.1399 -1.9366
 4450SOL     OW14949   0.456   0.938   6.664 -0.6982  0.8503 -0.2535
 4450SOL    HW114950   0.515   0.931   6.584 -3.2686  3.0698 -2.5470
 4450SOL    HW214951   0.503   0.987   6.737  0.1261  3.3263 -2.3095
 4451SOL     OW14952   5.521   4.720   6.196  0.6784  0.5479 -0.2724
 4451SOL    HW114953   5.600   4.778   6.220 -0.5583  2.2476 -0.0701
 4451SOL    HW214954   5.498   4.734   6.100  1.6639 -1.3038 -0.8142
 4452SOL     OW14955   6.314   0.358   1.137 -0.4366 -0.0967 -0.2328
 4452SOL    HW114956   6.352   0.268   1.115 -1.3461 -0.6167  0.2672
 4452SOL    HW214957   6.225   0.347   1.181 -0.3918  1.0385  0.1814
 4453SOL     OW14958   5.894   0.353   2.000 -0.4701 -0.0985  0.4985
 4453SOL    HW114959   5.806   0.337   1.955 -1.1209  0.7612  1.4441
 4453SOL    HW214960   5.904   0.291   2.077 -0.6111  0.3625  0.8884
 4454SOL     OW14961   2.807   1.667   0.258  0.1718  0.2422 -0.5673
 4454SOL    HW114962   2.766   1.740   0.314  0.5859  1.8210 -2.2198
 4454SOL    HW214963   2.825   1.587   0.315 -4.2989 -0.2779  0.5194
 4455SOL     OW14964   5.857   0.485   2.428 -0.0802  0.3242 -0.1186
 4455SOL    HW114965   5.897   0.545   2.359  0.4883  0.3542  0.2222
 4455SOL    HW214966   5.823   0.540   2.505 -1.4389  0.3510 -0.7148
 4456SOL     OW14967   5.942   2.566   1.816 -0.4723 -0.0267  0.5714
 4456SOL    HW114968   5.912   2.512   1.894  0.3677 -0.4239  0.6328
 4456SOL    HW214969   6.021   2.522   1.773 -1.1916 -0.0525 -0.7890
 4457SOL     OW14970   5.770   3.647   4.297  0.8121  0.0675  0.1746
 4457SOL    HW114971   5.778   3.744   4.317 -0.1409 -0.0137  1.0601
 4457SOL    HW214972   5.697   3.632   4.230 -0.2449 -0.1521  1.3360
 4458SOL     OW14973   4.234   4.016   2.245 -0.0774 -0.1993 -0.0151
 4458SOL    HW114974   4.264   3.968   2.162  1.7288 -0.3831  0.7001
 4458SOL    HW214975   4.154   3.970   2.283 -1.9909  0.8614 -2.5297
 4459SOL     OW14976   1.255   0.647   3.986 -0.0806 -0.1017 -0.0942
 4459SOL    HW114977   1.285   0.587   4.061 -0.7700 -0.6216 -0.2271
 4459SOL    HW214978   1.313   0.632   3.906 -0.2925 -0.6402 -0.1477
 4460SOL     OW14979   3.308   1.877   3.965  0.7966  0.1594 -0.7022
 4460SOL    HW114980   3.220   1.850   3.925 -0.5990  2.6405  0.4878
 4460SOL    HW214981   3.343   1.957   3.918  2.4593 -0.7931 -1.1428
 4461SOL     OW14982   3.706   0.943   1.516 -0.0685 -0.0025  0.6429
 4461SOL    HW114983   3.709   0.861   1.572  3.2901 -0.5373 -0.0941
 4461SOL    HW214984   3.615   0.985   1.522 -2.3409 -4.3109  0.1612
 4462SOL     OW14985   5.050   4.364   0.457 -0.4629 -0.1326  0.1189
 4462SOL    HW114986   5.103   4.371   0.542  1.1348  1.9840 -0.9617
 4462SOL    HW214987   5.074   4.280   0.409  1.3050  0.3690  0.0842
 4463SOL     OW14988   0.175   0.290   6.737  0.2846 -0.3716  0.0202
 4463SOL    HW114989   0.257   0.258   6.688  0.1584 -1.1505  0.3010
 4463SOL    HW214990   0.128   0.212   6.778  1.2893  0.3431  2.8156
 4464SOL     OW14991   6.018   2.854   1.326  0.3338 -0.6415 -0.3241
 4464SOL    HW114992   6.089   2.875   1.394  1.2494 -1.6462 -0.9496
 4464SOL    HW214993   6.058   2.803   1.250 -1.0345 -1.0925 -0.7680
 4465SOL     OW14994   0.604   3.038   1.585 -0.2903  0.1228 -0.2625
 4465SOL    HW114995   0.576   2.981   1.508 -1.2588  0.2985 -0.0507
 4465SOL    HW214996   0.525   3.058   1.643  0.5620 -0.6677  1.2278
 4466SOL     OW14997   2.351   5.837   0.405  0.1966  0.6882  0.0159
 4466SOL    HW114998   2.394   5.921   0.438  0.7605  0.1281  0.7220
 4466SOL    HW214999   2.410   5.759   0.424 -0.0041  0.1967 -1.2534
 4467SOL     OW15000   1.324   1.533   1.738  0.1990  0.2481 -0.1491
 4467SOL    HW115001   1.332   1.496   1.646  0.2990  1.3303 -0.5885
 4467SOL    HW215002   1.288   1.462   1.800  1.3006 -0.8802 -0.7469
 4468SOL     OW15003   6.288   0.758   1.682 -0.6845 -0.2479 -0.0435
 4468SOL    HW115004   6.323   0.664   1.691 -1.0145 -0.6180 -1.9850
 4468SOL    HW215005   6.353   0.822   1.722  1.7104 -1.0086 -2.4145
 4469SOL     OW15006   2.839   3.541   5.019  0.0484 -0.2595 -0.0379
 4469SOL    HW115007   2.854   3.628   5.068  0.0047  0.3856 -1.1405
 4469SOL    HW215008   2.770   3.554   4.949 -0.3534 -1.3489  0.1453
 4470SOL     OW15009   6.794   5.158   3.898  0.3607  0.3661  0.2654
 4470SOL    HW115010   6.768   5.109   3.814  0.4823  1.5485 -0.4848
 4470SOL    HW215011   6.871   5.219   3.878  1.6656 -0.7415  1.7023
 4471SOL     OW15012   1.338   3.530   3.211  0.2862  0.4136 -0.5005
 4471SOL    HW115013   1.268   3.471   3.169  1.0327 -0.3777 -0.6746
 4471SOL    HW215014   1.367   3.491   3.298 -0.3534  1.3888  0.1622
 4472SOL     OW15015   5.161   6.133   1.685  0.0417 -0.1983 -0.4601
 4472SOL    HW115016   5.109   6.049   1.672 -0.6219 -0.3971  2.6133
 4472SOL    HW215017   5.230   6.119   1.756 -0.1159  1.8508  0.1682
 4473SOL     OW15018   1.033   5.607   3.776  0.4913 -0.1203 -0.4405
 4473SOL    HW115019   0.983   5.531   3.734 -3.8156  1.9174  0.4127
 4473SOL    HW215020   1.000   5.620   3.869 -0.1382  3.6219 -1.0386
 4474SOL     OW15021   5.101   5.172   3.429  0.0814 -0.9641  0.5120
 4474SOL    HW115022   5.087   5.126   3.517 -2.9744 -0.1107  0.5703
 4474SOL    HW215023   5.073   5.267   3.436  1.4351 -0.4038 -0.9879
 4475SOL     OW15024   6.976   6.045   4.013 -0.3129  0.2226 -0.0375
 4475SOL    HW115025   6.943   5.953   4.030  1.3953 -0.3405  0.4430
 4475SOL    HW215026   7.031   6.046   3.929 -2.0289  1.2700 -1.1965
 4476SOL     OW15027   5.082   4.983   4.451  0.0243 -0.6455  1.0044
 4476SOL    HW115028   5.050   5.013   4.541 -1.1084  0.0215  0.4016
 4476SOL    HW215029   5.055   5.051   4.382 -1.4172 -2.3704 -0.2098
 4477SOL     OW15030   4.130   1.620   1.331 -0.0877  0.3642 -0.2945
 4477SOL    HW115031   4.156   1.620   1.234 -0.1745 -2.3431 -0.4011
 4477SOL    HW215032   4.043   1.667   1.342 -1.4410 -1.5298 -2.0492
 4478SOL     OW15033   4.020   3.282   3.635  0.3691 -0.1355 -0.3392
 4478SOL    HW115034   4.009   3.353   3.565  1.0052  0.4267  0.1215
 4478SOL    HW215035   4.117   3.272   3.657  0.2383 -0.8213 -0.0557
 4479SOL     OW15036   5.972   4.547   6.757 -0.3373  0.5021 -0.0024
 4479SOL    HW115037   6.036   4.588   6.692  0.1698  0.5794  0.5344
 4479SOL    HW215038   5.920   4.474   6.711  0.2752  0.3033 -0.3951
 4480SOL     OW15039   3.785   2.044   6.569  0.0118  0.3544 -0.2249
 4480SOL    HW115040   3.795   2.085   6.659 -0.4314 -0.6448  0.3033
 4480SOL    HW215041   3.869   2.057   6.516  1.0851 -0.8551  1.1025
 4481SOL     OW15042   0.077   3.209   2.237 -1.2189  0.1953  0.1489
 4481SOL    HW115043   0.011   3.182   2.307  0.2181 -1.8143  0.8390
 4481SOL    HW215044   0.062   3.155   2.155 -1.2415  0.6639 -0.1586
 4482SOL     OW15045   0.042   3.152   3.958  0.0890  0.0405 -0.4951
 4482SOL    HW115046   0.061   3.230   3.899  2.8532  0.0765  0.3031
 4482SOL    HW215047  -0.008   3.082   3.906  0.7404  0.8654 -2.3001
 4483SOL     OW15048   4.261   5.020   4.064  0.0577  0.6388  0.3527
 4483SOL    HW115049   4.193   5.015   3.991 -0.3148  0.5055  0.7066
 4483SOL    HW215050   4.351   5.038   4.024 -0.0328 -0.0809 -0.1948
 4484SOL     OW15051   1.453   5.111   0.989 -0.3646  0.3526  0.6586
 4484SOL    HW115052   1.524   5.044   0.969 -0.8997  0.0548 -0.3298
 4484SOL    HW215053   1.364   5.067   0.985 -0.7118  1.0743  0.1773
 4485SOL     OW15054   2.976   6.476   2.472  0.2712  0.0250 -0.0008
 4485SOL    HW115055   3.020   6.496   2.384 -1.0573  3.2954 -0.0411
 4485SOL    HW215056   3.029   6.517   2.546 -0.0289 -0.4119  0.4614
 4486SOL     OW15057   0.705   4.153   5.830 -0.3077  0.1965 -0.2014
 4486SOL    HW115058   0.754   4.212   5.896  0.9755  2.3236 -2.8582
 4486SOL    HW215059   0.759   4.071   5.814  0.7966  0.9692 -0.6207
 4487SOL     OW15060   0.384   2.964   1.763  0.0446  0.0275  0.7732
 4487SOL    HW115061   0.293   2.938   1.730  0.4972 -0.1563 -0.3992
 4487SOL    HW215062   0.419   2.895   1.825 -0.1339 -0.4925  0.3009
 4488SOL     OW15063   4.745   1.101   1.744  0.5887  0.1121  0.3702
 4488SOL    HW115064   4.796   1.156   1.678  0.0628  0.2292  0.0543
 4488SOL    HW215065   4.696   1.028   1.696  0.6394 -0.1332  0.6935
 4489SOL     OW15066   1.140   0.782   5.963 -0.1965 -0.5055 -0.2586
 4489SOL    HW115067   1.093   0.784   5.875  1.2052  0.7586 -1.0333
 4489SOL    HW215068   1.237   0.762   5.948 -0.1505 -1.4303  1.1288
 4490SOL     OW15069   4.624   3.554   0.957 -0.0316  0.7770  0.5201
 4490SOL    HW115070   4.583   3.635   0.997  0.2705  0.3452  1.7446
 4490SOL    HW215071   4.617   3.559   0.857  1.0077  2.8478  0.4934
 4491SOL     OW15072   0.746   6.764   6.263  0.3384 -0.2073 -0.5522
 4491SOL    HW115073   0.802   6.816   6.199 -1.9166  2.2106 -0.7413
 4491SOL    HW215074   0.753   6.806   6.354  0.6465 -1.3449 -0.0347
 4492SOL     OW15075   3.589   5.826   0.738 -0.1981  0.3059  0.1579
 4492SOL    HW115076   3.610   5.860   0.830  0.1771 -0.4046  0.3427
 4492SOL    HW215077   3.674   5.804   0.691 -0.4406 -0.5114  0.0959
 4493SOL     OW15078   1.179   5.610   5.088  0.4673 -0.2647  0.3970
 4493SOL    HW115079   1.197   5.707   5.101 -2.1405  0.8072 -2.6588
 4493SOL    HW215080   1.235   5.575   5.013 -1.3796  0.0451 -1.2176
 4494SOL     OW15081   6.780   3.701   2.694 -0.7776 -0.2716 -0.1624
 4494SOL    HW115082   6.848   3.630   2.677 -1.0296 -0.8396  1.0991
 4494SOL    HW215083   6.813   3.788   2.658 -0.3434 -0.9598 -1.4859
 4495SOL     OW15084   0.104   6.129   1.402 -0.5855 -0.0473  0.3864
 4495SOL    HW115085   0.046   6.083   1.335  0.3313 -0.0352 -0.4298
 4495SOL    HW215086   0.122   6.223   1.371  2.5849 -1.0342 -1.1351
 4496SOL     OW15087   4.493   2.105   1.031 -0.1664  0.5077  0.1599
 4496SOL    HW115088   4.587   2.089   1.003 -0.2448  1.3312 -0.6324
 4496SOL    HW215089   4.433   2.099   0.951 -0.6301  1.1750  0.4503
 4497SOL     OW15090   2.891   4.348   5.707 -0.1088  0.2198 -0.2733
 4497SOL    HW115091   2.969   4.328   5.648 -1.4103  2.2844 -2.9189
 4497SOL    HW215092   2.831   4.268   5.711  0.9754 -0.6066 -0.1165
 4498SOL     OW15093   2.597   5.044   1.569  0.5457  0.0309 -0.2616
 4498SOL    HW115094   2.559   5.133   1.594 -1.4137 -1.5871  3.2348
 4498SOL    HW215095   2.558   5.015   1.481 -0.6791  1.5754 -0.2795
 4499SOL     OW15096   3.899   5.823   4.934 -0.0937 -0.2399 -0.0625
 4499SOL    HW115097   3.883   5.893   4.863 -1.2875 -1.4592 -1.0509
 4499SOL    HW215098   3.811   5.788   4.966  0.4522 -2.4854 -0.8369
 4500SOL     OW15099   6.313   2.810   2.833 -0.0122 -0.1397 -0.2134
 4500SOL    HW115100   6.265   2.723   2.820 -0.1277 -0.5557  2.3092
 4500SOL    HW215101   6.410   2.793   2.847  0.0535  0.1756 -0.2783
 4501SOL     OW15102   1.709   5.145   0.155  0.0513 -0.2977 -0.6950
 4501SOL    HW115103   1.736   5.151   0.251  0.9454 -0.1292 -0.9535
 4501SOL    HW215104   1.611   5.162   0.147  0.2033  1.0210  0.0328
 4502SOL     OW15105   6.287   5.036   4.469 -0.5707 -0.1393 -0.1135
 4502SOL    HW115106   6.260   5.084   4.386 -0.3813  1.7939  0.8850
 4502SOL    HW215107   6.376   5.070   4.500 -0.4972 -1.0379  0.7250
 4503SOL     OW15108   1.224   1.383   5.610 -0.0466 -0.2648 -0.3474
 4503SOL    HW115109   1.300   1.342   5.560  1.4459  0.8599  0.8803
 4503SOL    HW215110   1.229   1.357   5.706  1.4425  3.1676  0.6860
 4504SOL     OW15111   1.793   0.176   3.793 -0.0193 -0.2219  0.3909
 4504SOL    HW115112   1.796   0.153   3.695  1.8398 -1.2313  0.6380
 4504SOL    HW215113   1.805   0.092   3.847 -1.5395  0.2459  1.5270
 4505SOL     OW15114   1.343   1.452   1.465  0.3005 -0.9140 -0.1543
 4505SOL    HW115115   1.427   1.460   1.412  0.8056 -1.2645  0.5738
 4505SOL    HW215116   1.265   1.482   1.410  0.7410 -1.7414 -1.2521
 4506SOL     OW15117   1.408   4.730   1.098 -0.4669 -0.4648  0.0746
 4506SOL    HW115118   1.456   4.791   1.162  0.5645 -0.5360 -0.6177
 4506SOL    HW215119   1.329   4.778   1.060  0.0917  0.3054 -0.1425
 4507SOL     OW15120   5.826   0.455   6.196  0.2397 -0.2721 -0.1386
 4507SOL    HW115121   5.897   0.386   6.181 -1.0240 -1.8983  1.0134
 4507SOL    HW215122   5.817   0.473   6.294 -0.0178  0.9647 -0.3682
 4508SOL     OW15123   5.859   1.325   2.033 -0.3336  0.2861  0.6099
 4508SOL    HW115124   5.765   1.301   2.007 -0.0519 -0.0233 -0.1383
 4508SOL    HW215125   5.921   1.306   1.957  0.3633  0.3473  1.1490
 4509SOL     OW15126   3.886   4.444   6.989  0.3115  0.2177 -0.5346
 4509SOL    HW115127   3.920   4.525   6.941  0.9508  0.0510 -0.3756
 4509SOL    HW215128   3.963   4.394   7.028 -0.0994 -0.3414 -0.4276
 4510SOL     OW15129   0.427   1.265   0.479 -0.3832  0.0215 -0.3659
 4510SOL    HW115130   0.430   1.189   0.414  0.3566 -1.0070  0.8146
 4510SOL    HW215131   0.428   1.352   0.429 -1.5943 -0.7098 -1.7652
 4511SOL     OW15132   4.259   5.292   4.063 -0.1248 -0.5527  0.2991
 4511SOL    HW115133   4.172   5.333   4.036  0.1394 -0.6259 -0.6996
 4511SOL    HW215134   4.242   5.199   4.097 -0.3113 -1.0693 -1.1422
 4512SOL     OW15135   6.982   5.517   0.796  0.3898 -0.2630  0.4429
 4512SOL    HW115136   6.891   5.547   0.769  0.5334  0.7135  0.9969
 4512SOL    HW215137   7.019   5.456   0.725 -0.0416  0.6312 -0.5838
 4513SOL     OW15138   0.045   4.569   1.941  0.2494 -0.2706 -0.2114
 4513SOL    HW115139   0.049   4.490   2.002  0.2589  0.9334  1.4342
 4513SOL    HW215140  -0.035   4.624   1.964  0.1220  0.0950 -1.4732
 4514SOL     OW15141   4.083   5.323   3.489  0.4060  0.1356 -0.5326
 4514SOL    HW115142   4.071   5.321   3.390 -0.1197 -0.6522 -0.4600
 4514SOL    HW215143   4.115   5.414   3.517 -0.4036  0.6707 -1.3122
 4515SOL     OW15144   3.439   6.111   1.727 -0.4630 -0.4362 -0.6363
 4515SOL    HW115145   3.467   6.071   1.639 -2.6867 -1.4005 -0.9679
 4515SOL    HW215146   3.360   6.061   1.762 -1.0181  1.3816  0.8096
 4516SOL     OW15147   5.522   1.099   1.278  0.1532  0.3508  0.7679
 4516SOL    HW115148   5.558   1.008   1.298 -3.1169 -1.3357 -0.2231
 4516SOL    HW215149   5.515   1.112   1.179 -3.3514 -0.2369  0.8106
 4517SOL     OW15150   4.663   3.188   0.644  0.7113 -0.2964  0.1586
 4517SOL    HW115151   4.736   3.222   0.703 -0.2555  0.4420  0.9895
 4517SOL    HW215152   4.578   3.235   0.667 -0.3045 -1.9838  0.0725
 4518SOL     OW15153   1.445   2.820   6.411  0.0035 -0.3193  0.4117
 4518SOL    HW115154   1.385   2.758   6.361 -0.7192 -0.7532  1.7671
 4518SOL    HW215155   1.395   2.904   6.433  0.7505  0.4653 -0.7725
 4519SOL     OW15156   4.091   5.941   3.432 -0.3879 -0.6079  0.2654
 4519SOL    HW115157   4.138   6.005   3.372 -1.9649  3.2409  2.7534
 4519SOL    HW215158   4.147   5.923   3.513 -1.3558  0.6683  1.2742
 4520SOL     OW15159   1.415   3.365   6.031  0.6829  0.1077  0.1335
 4520SOL    HW115160   1.352   3.398   6.101 -0.5226 -0.3729 -0.7047
 4520SOL    HW215161   1.504   3.410   6.043  0.5226  0.0349  1.9699
 4521SOL     OW15162   3.138   3.840   6.419 -0.6020 -0.1779  0.3502
 4521SOL    HW115163   3.235   3.824   6.403 -0.1857  0.3040  2.1956
 4521SOL    HW215164   3.091   3.753   6.430  0.1259 -0.4000  2.0466
 4522SOL     OW15165   3.247   4.527   5.194 -0.2713  0.0797  0.0977
 4522SOL    HW115166   3.271   4.472   5.114 -2.9423 -0.3880 -0.4683
 4522SOL    HW215167   3.292   4.488   5.275 -0.6263 -1.8700 -0.5748
 4523SOL     OW15168   2.235   2.910   3.387 -0.2811  0.0895  0.0437
 4523SOL    HW115169   2.173   2.860   3.327 -0.4910 -0.2071  0.4973
 4523SOL    HW215170   2.209   2.893   3.482 -0.7043  1.4912  0.2060
 4524SOL     OW15171   4.932   5.246   4.699 -0.2424  0.0468  0.8484
 4524SOL    HW115172   4.905   5.268   4.605  0.3321  0.8795  0.8632
 4524SOL    HW215173   4.853   5.254   4.760 -1.6460 -4.3313 -0.0808
 4525SOL     OW15174   4.431   1.437   3.386 -0.4740 -0.4081  0.4991
 4525SOL    HW115175   4.524   1.466   3.405 -0.4681 -1.3139  1.9675
 4525SOL    HW215176   4.403   1.367   3.452 -1.2015 -2.2362 -1.6207
 4526SOL     OW15177   0.811   2.764   3.927 -0.6106 -0.0677 -0.0407
 4526SOL    HW115178   0.758   2.848   3.930 -0.8580 -0.2311  0.1420
 4526SOL    HW215179   0.851   2.746   4.017 -0.7840 -0.2897 -0.0058
 4527SOL     OW15180   5.811   6.417   5.105 -0.1197  0.3653 -0.4745
 4527SOL    HW115181   5.761   6.504   5.107  1.8573  1.6008 -1.3564
 4527SOL    HW215182   5.899   6.431   5.060  0.1774 -2.1782 -0.8152
 4528SOL     OW15183   4.394   6.957   6.810  0.0722 -0.1920 -0.1676
 4528SOL    HW115184   4.467   7.018   6.781 -0.0148  0.1471  0.3157
 4528SOL    HW215185   4.337   6.933   6.731  0.7134 -0.4831 -0.5485
 4529SOL     OW15186   4.361   2.056   4.893  0.0216 -0.1851  0.3561
 4529SOL    HW115187   4.446   2.013   4.861  1.5322  1.9916  1.1832
 4529SOL    HW215188   4.338   2.133   4.833 -0.6101  0.0897  0.9346
 4530SOL     OW15189   2.282   6.231   2.275 -0.0886  0.3300  0.2759
 4530SOL    HW115190   2.379   6.222   2.252 -0.0207 -0.3194  0.8139
 4530SOL    HW215191   2.273   6.274   2.364 -0.1669 -2.5803  1.7972
 4531SOL     OW15192   5.722   2.335   0.479  0.0397  0.1835 -0.8056
 4531SOL    HW115193   5.737   2.326   0.577  1.9735  1.7860 -0.8877
 4531SOL    HW215194   5.721   2.432   0.454 -1.5719 -0.1490 -2.2420
 4532SOL     OW15195   6.171   1.379   3.500 -0.6077 -0.1962  0.0844
 4532SOL    HW115196   6.208   1.316   3.569 -0.4294  0.7930  0.9076
 4532SOL    HW215197   6.082   1.412   3.529 -0.3813  0.4912  0.0064
 4533SOL     OW15198   4.382   2.903   0.488  0.2054 -0.5105  0.2745
 4533SOL    HW115199   4.398   2.856   0.575  1.2181 -0.8177 -0.0634
 4533SOL    HW215200   4.467   2.947   0.458 -0.5444  0.9864  0.2430
 4534SOL     OW15201   1.051   5.479   0.456 -0.4935 -0.0222  0.6626
 4534SOL    HW115202   1.037   5.526   0.544  1.9433 -0.5733  1.4306
 4534SOL    HW215203   1.140   5.433   0.457 -1.1750 -1.5230 -1.4731
 4535SOL     OW15204   2.967   5.279   1.275 -0.3702 -0.9167 -0.8264
 4535SOL    HW115205   2.899   5.341   1.237 -0.8295 -2.2042 -2.2372
 4535SOL    HW215206   2.934   5.242   1.361  1.1419  2.8611  1.6313
 4536SOL     OW15207   3.233   4.338   1.638  0.0317 -0.4887  0.3704
 4536SOL    HW115208   3.245   4.284   1.721 -0.4397  0.4777  1.0787
 4536SOL    HW215209   3.227   4.435   1.661 -1.2750 -0.2909 -0.6661
 4537SOL     OW15210   1.341   2.302   3.928  0.5826 -0.3823 -0.3102
 4537SOL    HW115211   1.381   2.246   3.856 -0.4009 -1.2024 -0.2364
 4537SOL    HW215212   1.341   2.251   4.014 -1.4957 -0.8167 -0.5102
 4538SOL     OW15213   0.252   1.823   1.486 -0.4224 -0.1096 -0.4361
 4538SOL    HW115214   0.215   1.745   1.435 -1.4400 -1.0451  1.6056
 4538SOL    HW215215   0.344   1.800   1.519 -1.0714 -0.8559  0.9267
 4539SOL     OW15216   5.822   0.780   6.521 -0.5456 -0.5198  0.0475
 4539SOL    HW115217   5.906   0.834   6.531  0.0869 -1.6762  1.3688
 4539SOL    HW215218   5.782   0.796   6.431 -1.3954  3.5068  0.9410
 4540SOL     OW15219   6.875   2.337   6.644 -0.1392  0.1288 -0.6619
 4540SOL    HW115220   6.793   2.314   6.697 -0.6320  1.9222 -0.5828
 4540SOL    HW215221   6.858   2.316   6.548 -0.2562 -0.5987 -0.4878
 4541SOL     OW15222   6.938   2.333   4.604  0.3375  0.3518  0.4399
 4541SOL    HW115223   6.986   2.392   4.668 -0.2049 -0.4208  1.5909
 4541SOL    HW215224   6.927   2.380   4.516  2.7580  0.7070  0.2794
 4542SOL     OW15225   1.745   4.523   1.016 -0.5514 -0.3027 -0.1625
 4542SOL    HW115226   1.764   4.611   0.973 -0.3727  0.1533  0.8334
 4542SOL    HW215227   1.757   4.450   0.948 -0.5728  0.4182 -0.9605
 4543SOL     OW15228   0.859   6.058   0.990  0.2861  0.3795 -0.1564
 4543SOL    HW115229   0.776   6.051   0.934 -0.3177 -0.1129  0.7759
 4543SOL    HW215230   0.897   5.967   1.004 -0.8321  0.1735  2.0475
 4544SOL     OW15231   0.468   3.054   3.876  0.6222  0.1584 -0.2142
 4544SOL    HW115232   0.478   3.148   3.844 -1.6805  0.2028 -0.9240
 4544SOL    HW215233   0.380   3.042   3.921  1.0782 -1.5538  0.3294
 4545SOL     OW15234   2.165   6.945   1.163  0.1454 -0.3621 -0.8491
 4545SOL    HW115235   2.146   6.964   1.260  1.9636 -0.0947 -0.5131
 4545SOL    HW215236   2.137   6.852   1.142 -2.0959  0.1903 -0.6105
 4546SOL     OW15237   2.943   3.294   1.354  0.0748 -0.3696 -0.5810
 4546SOL    HW115238   2.907   3.369   1.409  1.5804  1.0059 -1.3772
 4546SOL    HW215239   2.973   3.220   1.413  1.0666  0.8028  0.4553
 4547SOL     OW15240   0.275   1.547   6.526  0.4508 -0.4014 -0.4055
 4547SOL    HW115241   0.220   1.616   6.480 -0.1957 -1.0124 -0.5550
 4547SOL    HW215242   0.368   1.583   6.539  0.3553  0.1789 -1.2184
 4548SOL     OW15243   0.879   3.715   3.914 -0.4245 -0.2375  0.6481
 4548SOL    HW115244   0.879   3.659   3.997  0.0753 -3.0637 -1.1378
 4548SOL    HW215245   0.792   3.705   3.867  0.2203 -0.7750 -0.4614
 4549SOL     OW15246   4.698   4.328   6.290 -0.5469  0.1359  0.0044
 4549SOL    HW115247   4.648   4.247   6.321 -2.2390  1.0452 -0.2399
 4549SOL    HW215248   4.711   4.391   6.366 -2.2430  1.1157 -0.4594
 4550SOL     OW15249   3.873   3.345   2.022  0.4628  0.0767  0.4456
 4550SOL    HW115250   3.965   3.322   2.054  0.1482  0.6084  1.7974
 4550SOL    HW215251   3.813   3.266   2.034  0.5796 -0.0503  0.2032
 4551SOL     OW15252   1.762   1.227   5.340 -0.3396  0.5721 -0.1265
 4551SOL    HW115253   1.767   1.196   5.245  0.5638  0.6123 -0.1075
 4551SOL    HW215254   1.836   1.293   5.357 -0.5251  0.6025  0.5921
 4552SOL     OW15255   2.697   4.201   1.555  0.1529 -0.3760 -0.0251
 4552SOL    HW115256   2.653   4.176   1.469  1.0281 -0.0435 -0.5849
 4552SOL    HW215257   2.794   4.220   1.539  0.5482 -1.2100  1.1940
 4553SOL     OW15258   6.547   1.909   3.469  0.6217  0.0404  0.2715
 4553SOL    HW115259   6.609   1.850   3.520  0.4501 -2.0093 -1.7100
 4553SOL    HW215260   6.597   1.951   3.392  0.2148  0.7385  0.3782
 4554SOL     OW15261   6.725   0.105   4.621  0.4984 -0.1202  0.0909
 4554SOL    HW115262   6.800   0.158   4.581  0.3263 -0.1670 -0.2912
 4554SOL    HW215263   6.722   0.015   4.579 -0.1204  0.0743 -0.2881
 4555SOL     OW15264   5.072   2.505   6.557 -0.5869 -0.7395  0.3634
 4555SOL    HW115265   5.009   2.581   6.577 -0.1330 -0.0874 -0.6509
 4555SOL    HW215266   5.019   2.425   6.531 -1.0232 -0.2655 -0.2500
 4556SOL     OW15267   2.721   1.560   6.339 -0.2499  0.2159  0.0418
 4556SOL    HW115268   2.802   1.618   6.329  0.4279 -1.0901 -3.0764
 4556SOL    HW215269   2.640   1.611   6.308 -0.2152  0.5937  0.5510
 4557SOL     OW15270   3.419   0.936   4.252  0.0184  0.2616 -0.1908
 4557SOL    HW115271   3.344   0.979   4.303  0.4691 -0.4877  1.1492
 4557SOL    HW215272   3.506   0.970   4.287  0.3793 -1.5902  0.7971
 4558SOL     OW15273   6.308   4.408   3.832  0.0502 -0.3634 -0.1436
 4558SOL    HW115274   6.269   4.445   3.747  2.5730 -1.5225 -1.9500
 4558SOL    HW215275   6.339   4.484   3.890 -2.1108  0.4593  0.0241
 4559SOL     OW15276   4.461   3.414   0.371  0.2859  0.1641 -1.3038
 4559SOL    HW115277   4.551   3.429   0.331  0.4247  1.0703 -0.7075
 4559SOL    HW215278   4.403   3.494   0.354 -0.1448 -0.0749 -1.0086
 4560SOL     OW15279   5.269   2.116   2.766  0.0748  0.6121  0.5510
 4560SOL    HW115280   5.173   2.112   2.736  0.7820  1.3454 -2.1715
 4560SOL    HW215281   5.293   2.033   2.815 -2.0029  0.5313  1.5406
 4561SOL     OW15282   4.364   1.078   6.947  0.1860 -0.3543  0.1631
 4561SOL    HW115283   4.423   1.033   6.880  0.4283  1.9532 -1.2910
 4561SOL    HW215284   4.270   1.046   6.936  0.4379 -0.9009 -0.4382
 4562SOL     OW15285   6.558   4.164   5.761 -0.8809 -0.2020 -0.2530
 4562SOL    HW115286   6.530   4.101   5.833  0.8244  1.2219  1.7678
 4562SOL    HW215287   6.655   4.185   5.771 -0.7828  0.6898 -2.5139
 4563SOL     OW15288   0.912   0.926   4.362 -0.3067  0.3959 -0.3104
 4563SOL    HW115289   1.007   0.897   4.373 -0.5808 -0.7957 -0.9904
 4563SOL    HW215290   0.856   0.889   4.436 -0.1715  1.5119  0.3746
 4564SOL     OW15291   6.352   4.837   1.821 -0.9390  0.0246  0.6713
 4564SOL    HW115292   6.320   4.803   1.732  1.2252 -0.8755  0.1973
 4564SOL    HW215293   6.348   4.937   1.821 -1.5117  0.0122 -0.2076
 4565SOL     OW15294   6.635   4.336   1.006 -0.4892  0.6656 -0.0440
 4565SOL    HW115295   6.567   4.364   1.074 -0.5476  0.8338 -0.1711
 4565SOL    HW215296   6.714   4.295   1.052  0.0996  2.0659  0.2250
 4566SOL     OW15297   6.437   0.298   5.991  0.0000 -0.9434  0.4752
 4566SOL    HW115298   6.416   0.384   6.038  1.1204 -1.3930  1.8890
 4566SOL    HW215299   6.381   0.225   6.028  2.9701 -1.9351  3.5212
 4567SOL     OW15300   3.199   0.461   1.912 -0.4285  0.1178 -0.4624
 4567SOL    HW115301   3.251   0.406   1.977  0.5753  0.8783 -0.5955
 4567SOL    HW215302   3.102   0.460   1.937 -0.0578  0.4395  1.0868
 4568SOL     OW15303   2.779   2.967   3.311 -0.2796  0.1974 -0.1641
 4568SOL    HW115304   2.789   3.017   3.398  0.3079  1.9777 -1.2055
 4568SOL    HW215305   2.682   2.949   3.295 -0.2917 -1.7840  1.6945
 4569SOL     OW15306   1.736   6.900   5.619  0.3588  0.2899  0.3510
 4569SOL    HW115307   1.684   6.880   5.535 -0.3930  2.6927  0.1516
 4569SOL    HW215308   1.675   6.896   5.698  0.9995 -1.6590  0.7886
 4570SOL     OW15309   4.755   0.451   5.705  0.0359 -0.1144 -0.8177
 4570SOL    HW115310   4.675   0.472   5.648 -0.9644  0.4043  0.7070
 4570SOL    HW215311   4.827   0.412   5.649 -1.1286 -0.1698 -2.3240
 4571SOL     OW15312   4.479   4.492   1.202  0.1262  0.2846 -0.1498
 4571SOL    HW115313   4.499   4.570   1.261 -0.4426  0.1987  0.1605
 4571SOL    HW215314   4.402   4.441   1.239 -0.6048  0.5456 -1.2740
 4572SOL     OW15315   4.604   0.845   3.048 -0.0346  0.2873  0.6884
 4572SOL    HW115316   4.513   0.865   3.010 -0.1400 -2.4469 -0.7448
 4572SOL    HW215317   4.594   0.796   3.135  0.0920  0.6762  0.9231
 4573SOL     OW15318   2.868   4.861   3.813  0.1291 -0.6695 -0.1633
 4573SOL    HW115319   2.924   4.820   3.886 -1.0343 -2.6332 -0.2998
 4573SOL    HW215320   2.893   4.820   3.726  0.6062  0.7307 -0.7129
 4574SOL     OW15321   5.319   1.275   6.014 -0.1973  0.1029  0.4626
 4574SOL    HW115322   5.296   1.239   6.104  0.5012  0.3181  0.7338
 4574SOL    HW215323   5.394   1.221   5.975 -1.9488 -1.4183 -0.9646
 4575SOL     OW15324   2.515   4.189   6.526 -0.1302  0.3117  0.0546
 4575SOL    HW115325   2.610   4.173   6.552  0.0280  0.1748 -0.5756
 4575SOL    HW215326   2.511   4.259   6.455 -0.4566  0.0217 -0.2204
 4576SOL     OW15327   6.097   5.634   2.144  0.4440 -0.7145 -0.2185
 4576SOL    HW115328   6.035   5.626   2.065  0.0668 -1.2908  0.1266
 4576SOL    HW215329   6.176   5.574   2.129  1.0249  0.1615 -0.7438
 4577SOL     OW15330   1.328   6.106   4.066 -0.0481 -0.2401  0.4457
 4577SOL    HW115331   1.403   6.171   4.076  1.1051 -1.6420  1.1928
 4577SOL    HW215332   1.347   6.044   3.990 -0.9242 -0.0169  0.0260
 4578SOL     OW15333   6.391   1.646   4.114  0.2217 -0.0509 -0.3865
 4578SOL    HW115334   6.441   1.729   4.089 -0.3003  0.7081  0.9667
 4578SOL    HW215335   6.345   1.609   4.034  1.9347 -0.0795 -1.4052
 4579SOL     OW15336   1.309   1.897   3.975  0.3259  0.1614 -0.1488
 4579SOL    HW115337   1.319   1.963   4.049  0.9573 -1.1562  0.9788
 4579SOL    HW215338   1.246   1.934   3.906  0.5809  1.8722  0.4833
 4580SOL     OW15339   0.883   5.092   3.342  0.1183  0.0310  0.3814
 4580SOL    HW115340   0.818   5.021   3.313 -2.4445  1.7296  1.5664
 4580SOL    HW215341   0.944   5.055   3.412 -0.4823 -1.2625  0.2464
 4581SOL     OW15342   5.867   3.746   2.789 -0.0390  0.1365 -0.0461
 4581SOL    HW115343   5.769   3.730   2.800  0.2318  0.2835  3.7452
 4581SOL    HW215344   5.908   3.670   2.739 -1.8458 -0.5890 -0.4939
 4582SOL     OW15345   5.774   2.812   2.955 -0.0922 -0.6226 -0.0542
 4582SOL    HW115346   5.739   2.763   3.035  1.2689 -0.6270  0.5625
 4582SOL    HW215347   5.869   2.839   2.971 -0.1758  0.4408 -1.1981
 4583SOL     OW15348   6.614   2.027   1.112  0.5791 -0.5086  0.0374
 4583SOL    HW115349   6.702   2.019   1.160  0.5238  1.4360  0.5453
 4583SOL    HW215350   6.540   2.006   1.175  0.5063  2.0613  0.9503
 4584SOL     OW15351   1.222   2.676   3.284 -0.0935  0.3386  0.1986
 4584SOL    HW115352   1.259   2.759   3.243  0.6198  0.4558  1.0676
 4584SOL    HW215353   1.123   2.672   3.267 -0.3898  2.0194  1.2350
 4585SOL     OW15354   6.382   4.989   5.266 -0.2269 -0.9328 -0.0648
 4585SOL    HW115355   6.362   5.020   5.359  0.4894  0.0412 -0.2283
 4585SOL    HW215356   6.297   4.983   5.214 -0.3198  2.4331 -0.5283
 4586SOL     OW15357   6.444   4.587   0.755  0.4281 -1.1562  0.2172
 4586SOL    HW115358   6.427   4.601   0.657  0.6148 -1.2297  0.1731
 4586SOL    HW215359   6.481   4.671   0.794 -0.9309 -0.6731  0.5255
 4587SOL     OW15360   0.407   0.784   4.262  0.0225 -0.5366 -0.8815
 4587SOL    HW115361   0.444   0.875   4.241  0.6111 -0.3758  0.6766
 4587SOL    HW215362   0.389   0.735   4.177  2.2801  0.0206 -1.7712
 4588SOL     OW15363   4.731   6.560   5.097 -0.4045  0.4554 -0.1938
 4588SOL    HW115364   4.705   6.464   5.111 -1.8292  0.7737 -0.5033
 4588SOL    HW215365   4.703   6.613   5.177 -0.7387  0.8247 -0.5599
 4589SOL     OW15366   0.998   3.456   1.907 -0.1200 -0.3795  0.3139
 4589SOL    HW115367   1.093   3.480   1.924 -0.1740 -1.3118  2.0855
 4589SOL    HW215368   0.992   3.361   1.877 -0.5164 -0.4149  0.4957
 4590SOL     OW15369   2.360   5.196   4.755  0.1934  0.2491  0.0628
 4590SOL    HW115370   2.402   5.180   4.844  2.3168 -0.8773 -1.0784
 4590SOL    HW215371   2.332   5.292   4.749 -0.4684  0.2391  2.0894
 4591SOL     OW15372   5.589   6.171   2.317  0.3578 -0.6555 -0.0239
 4591SOL    HW115373   5.597   6.132   2.409 -3.5563 -1.8838 -0.0139
 4591SOL    HW215374   5.592   6.270   2.322 -0.4769 -0.6807  1.5608
 4592SOL     OW15375   4.663   1.877   0.665  0.1193  0.2082 -0.2493
 4592SOL    HW115376   4.682   1.968   0.703 -0.0251 -0.3176  1.1310
 4592SOL    HW215377   4.576   1.844   0.700 -0.0241 -0.3003 -1.0706
 4593SOL     OW15378   2.062   3.552   3.946  0.0069 -0.4347  0.3248
 4593SOL    HW115379   2.085   3.482   3.878 -1.9000 -0.3779 -0.4305
 4593SOL    HW215380   2.136   3.557   4.014  2.2647 -0.0788 -2.0111
 4594SOL     OW15381   6.076   0.429   6.643 -0.2030 -0.3607  0.3764
 4594SOL    HW115382   6.113   0.522   6.648 -0.7690 -0.0727 -0.4719
 4594SOL    HW215383   6.082   0.386   6.733  0.5001  0.3217  0.6729
 4595SOL     OW15384   4.399   1.002   1.143 -0.2690  0.3798  0.3603
 4595SOL    HW115385   4.422   1.077   1.205 -4.0635  2.9917 -1.0752
 4595SOL    HW215386   4.400   1.034   1.049  0.0374 -2.0089 -0.5200
 4596SOL     OW15387   1.523   0.814   2.366 -0.2820  0.1546  0.8530
 4596SOL    HW115388   1.531   0.908   2.334  0.6430  0.2453  1.3088
 4596SOL    HW215389   1.426   0.790   2.375 -0.5628  0.3569 -1.2583
 4597SOL     OW15390   5.671   3.467   2.633  0.0541  0.1027 -0.3544
 4597SOL    HW115391   5.649   3.429   2.722  1.0428  0.2266 -0.0488
 4597SOL    HW215392   5.648   3.565   2.632  1.4071  0.4534  0.2825
 4598SOL     OW15393   6.863   2.510   1.624 -0.6569 -0.2302  0.0895
 4598SOL    HW115394   6.862   2.586   1.560 -0.6804 -0.9613 -0.8002
 4598SOL    HW215395   6.794   2.525   1.695 -0.9128  0.3916 -0.2845
 4599SOL     OW15396   2.808   0.189   0.825 -0.4855  0.4609  0.7746
 4599SOL    HW115397   2.819   0.234   0.914 -0.1572  0.2776  0.8288
 4599SOL    HW215398   2.734   0.233   0.774  0.3307  1.5799  0.5084
 4600SOL     OW15399   5.430   2.149   1.552  0.2107 -0.1494  0.3031
 4600SOL    HW115400   5.512   2.103   1.586  0.0147 -0.0858  0.8772
 4600SOL    HW215401   5.438   2.164   1.454 -0.2260 -2.5174 -0.1647
 4601SOL     OW15402   6.359   0.581   4.062 -0.1169 -0.4541  0.0205
 4601SOL    HW115403   6.260   0.588   4.052 -0.0523  0.4756 -0.0604
 4601SOL    HW215404   6.383   0.581   4.159 -0.0942  1.1457  0.0317
 4602SOL     OW15405   0.157   5.493   1.834 -0.3186 -0.3454 -0.5274
 4602SOL    HW115406   0.057   5.499   1.829 -0.5178 -0.9856  1.6768
 4602SOL    HW215407   0.193   5.577   1.873 -0.0548 -0.3508 -0.7628
 4603SOL     OW15408   0.993   6.547   6.121 -0.4563  0.2889  0.1786
 4603SOL    HW115409   0.959   6.545   6.215  0.0107  0.4607  0.3553
 4603SOL    HW215410   1.090   6.569   6.122  0.7436 -4.0112  0.0071
 4604SOL     OW15411   4.599   3.670   5.718 -0.2279 -0.0821 -0.5049
 4604SOL    HW115412   4.528   3.668   5.788 -0.1655  1.9107 -0.3096
 4604SOL    HW215413   4.558   3.687   5.629 -0.1232 -0.5028 -0.6356
 4605SOL     OW15414   2.294   5.392   3.436 -0.1755 -0.0767  0.4266
 4605SOL    HW115415   2.328   5.440   3.355  0.2485  2.6905  2.0922
 4605SOL    HW215416   2.369   5.343   3.480 -0.4885 -1.9315 -0.9838
 4606SOL     OW15417   2.180   0.480   2.131  0.0176  0.1809 -0.0938
 4606SOL    HW115418   2.128   0.561   2.159  3.2042  1.9912  1.0864
 4606SOL    HW215419   2.179   0.412   2.204 -2.3614 -0.8078 -0.9444
 4607SOL     OW15420   5.456   3.762   6.508  0.6309 -0.6515 -0.0070
 4607SOL    HW115421   5.550   3.767   6.542  0.1435  2.5028  1.2475
 4607SOL    HW215422   5.427   3.667   6.502  3.2524 -1.6262  1.3532
 4608SOL     OW15423   2.358   0.082   6.350  0.3476 -0.8636  0.2337
 4608SOL    HW115424   2.428   0.121   6.291  0.1615  0.4240  0.8394
 4608SOL    HW215425   2.400   0.049   6.435  0.1658  0.5192  0.8884
 4609SOL     OW15426   5.547   6.831   2.539 -0.6740  0.1235  0.1766
 4609SOL    HW115427   5.473   6.875   2.590 -1.4821  1.1962 -1.8090
 4609SOL    HW215428   5.634   6.873   2.564 -1.4657  3.6046 -2.1487
 4610SOL     OW15429   6.276   1.311   0.117 -0.4870 -0.5664  0.3232
 4610SOL    HW115430   6.201   1.261   0.162 -2.4983  1.8571 -0.0832
 4610SOL    HW215431   6.311   1.381   0.179 -1.2436  0.8390 -0.7725
 4611SOL     OW15432   3.781   6.825   2.352 -0.4492  0.2782 -0.2940
 4611SOL    HW115433   3.786   6.802   2.450  0.6592 -0.4127 -0.4968
 4611SOL    HW215434   3.830   6.911   2.336 -0.3441  0.2198 -0.2893
 4612SOL     OW15435   5.762   4.429   1.913  0.1826  0.1834 -0.1732
 4612SOL    HW115436   5.787   4.500   1.847  0.0406 -0.7665 -1.2911
 4612SOL    HW215437   5.842   4.372   1.932 -0.1776 -0.5561 -0.8258
 4613SOL     OW15438   3.131   1.510   0.561  0.4907 -0.2823  0.3309
 4613SOL    HW115439   3.156   1.496   0.657  1.8524 -0.4560 -0.0345
 4613SOL    HW215440   3.142   1.607   0.537 -1.6527  0.1398  0.8193
 4614SOL     OW15441   4.801   1.767   3.632 -0.4040 -0.6054 -0.6352
 4614SOL    HW115442   4.891   1.746   3.670 -0.6961 -1.0486 -0.1771
 4614SOL    HW215443   4.791   1.866   3.623 -0.3709 -0.4747  0.5836
 4615SOL     OW15444   2.901   5.923   4.817  0.1468  0.5331  0.3449
 4615SOL    HW115445   2.994   5.886   4.824 -0.5015 -1.2352  0.1629
 4615SOL    HW215446   2.872   5.922   4.721 -0.9323 -1.2961  0.6499
 4616SOL     OW15447   0.769   1.108   2.824 -0.1910  0.1517  0.3364
 4616SOL    HW115448   0.778   1.208   2.826 -0.0458  0.1311  1.8255
 4616SOL    HW215449   0.860   1.067   2.829 -0.2289 -0.0654 -0.6228
 4617SOL     OW15450   2.598   1.620   0.670 -0.2672  0.1192  0.5475
 4617SOL    HW115451   2.673   1.562   0.702  0.4610  1.5149  1.4772
 4617SOL    HW215452   2.546   1.572   0.599  1.5883 -0.8511 -0.2282
 4618SOL     OW15453   4.544   0.862   2.532 -0.4483  0.3932  0.2594
 4618SOL    HW115454   4.449   0.893   2.536 -1.5244 -2.0270 -2.6526
 4618SOL    HW215455   4.577   0.841   2.624 -3.7498 -1.3182  1.2040
 4619SOL     OW15456   4.632   5.359   2.364  0.0086  0.1117  0.9495
 4619SOL    HW115457   4.576   5.383   2.285  1.0195  0.6919  0.3828
 4619SOL    HW215458   4.603   5.270   2.400  0.2789 -0.7308 -0.8085
 4620SOL     OW15459   6.748   0.283   4.206  0.1696  0.2557 -0.1027
 4620SOL    HW115460   6.773   0.348   4.134 -0.4978 -0.7651 -1.2711
 4620SOL    HW215461   6.805   0.300   4.286  1.7999  0.6220 -1.2871
 4621SOL     OW15462   6.924   2.791   4.021  0.0834 -0.1510  0.8905
 4621SOL    HW115463   7.008   2.821   4.065 -0.4785  3.8310 -0.3784
 4621SOL    HW215464   6.847   2.846   4.053 -1.6288 -1.9127  0.0810
 4622SOL     OW15465   3.399   6.874   2.933  0.1763  0.1820 -0.3762
 4622SOL    HW115466   3.329   6.846   2.998  1.3591  1.3193  1.4818
 4622SOL    HW215467   3.405   6.806   2.860 -2.1129 -0.4546 -0.0605
 4623SOL     OW15468   2.361   0.922   4.240 -0.7654 -0.0420 -0.6854
 4623SOL    HW115469   2.317   0.973   4.315 -0.8068 -1.0608  0.0055
 4623SOL    HW215470   2.422   0.853   4.279  0.8226  0.7630 -1.6163
 4624SOL     OW15471   2.175   1.940   1.396  0.2699  1.1079 -0.2427
 4624SOL    HW115472   2.268   1.920   1.365  0.8573  3.0299  0.0865
 4624SOL    HW215473   2.165   2.039   1.407 -2.7938  1.3372 -3.3280
 4625SOL     OW15474   4.512   4.920   3.471  0.4618 -0.4396 -0.1554
 4625SOL    HW115475   4.485   5.014   3.447 -1.0848 -0.9985 -0.7434
 4625SOL    HW215476   4.583   4.923   3.541 -1.2771  1.1982  1.6989
 4626SOL     OW15477   3.630   6.943   1.763 -0.3210 -0.0749 -0.0969
 4626SOL    HW115478   3.714   6.890   1.764 -1.2487 -1.5924  0.1922
 4626SOL    HW215479   3.584   6.935   1.851 -0.6777  0.9136 -0.1740
 4627SOL     OW15480   3.613   5.365   6.274  0.2036 -0.4009 -0.5265
 4627SOL    HW115481   3.697   5.321   6.305 -1.0060 -2.5141 -0.0221
 4627SOL    HW215482   3.629   5.463   6.261  2.8499 -0.8332 -1.0039
 4628SOL     OW15483   6.586   4.868   2.839  0.0678 -0.2172 -0.3148
 4628SOL    HW115484   6.500   4.853   2.791  0.6437 -0.6686 -1.2235
 4628SOL    HW215485   6.601   4.966   2.851  0.0549 -0.0811 -1.3265
 4629SOL     OW15486   4.061   3.035   1.503  0.2056  0.1454  0.1514
 4629SOL    HW115487   4.093   2.959   1.446  1.1065  0.8121 -0.2641
 4629SOL    HW215488   4.077   3.121   1.455 -3.9995  0.5298 -0.9794
 4630SOL     OW15489   6.088   6.925   2.168 -0.4069  0.6694 -0.2865
 4630SOL    HW115490   6.004   6.885   2.205  1.5599 -2.9685  0.7486
 4630SOL    HW215491   6.153   6.941   2.243  0.4132  1.8710 -1.2197
 4631SOL     OW15492   3.846   0.381   5.213  0.6580 -0.2874 -0.7059
 4631SOL    HW115493   3.883   0.375   5.120 -0.2495  0.5019 -1.1372
 4631SOL    HW215494   3.775   0.451   5.216  0.7489 -0.2300  0.6192
 4632SOL     OW15495   2.685   5.640   1.044  0.5920 -0.9266  0.1272
 4632SOL    HW115496   2.592   5.662   1.075  0.3716  1.2338 -1.7726
 4632SOL    HW215497   2.708   5.546   1.069 -1.9760 -1.4041  0.9344
 4633SOL     OW15498   4.568   1.049   4.756  0.5582  0.1262  0.4076
 4633SOL    HW115499   4.581   1.020   4.661  0.0161  2.0435 -0.2973
 4633SOL    HW215500   4.655   1.044   4.805  1.0474  0.0325 -0.4573
 4634SOL     OW15501   3.911   4.885   5.265 -0.2865 -0.1355 -0.0759
 4634SOL    HW115502   3.944   4.935   5.345  0.8505  0.6478 -0.9983
 4634SOL    HW215503   3.811   4.877   5.269 -0.4974  2.0891  0.2002
 4635SOL     OW15504   2.281   5.884   6.046  0.4255 -0.5906  0.0419
 4635SOL    HW115505   2.242   5.902   5.956  1.8220 -0.6580 -0.6046
 4635SOL    HW215506   2.301   5.971   6.092 -1.2156 -0.5430  0.7456
 4636SOL     OW15507   6.620   6.879   5.311  0.2927  0.1356  0.6267
 4636SOL    HW115508   6.714   6.895   5.281  0.5288 -3.0744 -0.6954
 4636SOL    HW215509   6.620   6.844   5.405  0.3794  0.1564  0.6348
 4637SOL     OW15510   1.130   6.173   5.109  0.2994  0.8082  0.0631
 4637SOL    HW115511   1.144   6.184   5.207 -0.6610 -0.3733  0.3592
 4637SOL    HW215512   1.208   6.212   5.059  3.2590 -2.7064  1.4723
 4638SOL     OW15513   2.179   4.744   1.115 -0.2133 -0.1227  0.2825
 4638SOL    HW115514   2.171   4.744   1.015 -0.6151  1.6955  0.2744
 4638SOL    HW215515   2.274   4.725   1.140  0.0880  0.2830 -0.4889
 4639SOL     OW15516   0.366   4.745   0.454 -0.5092 -0.2234 -0.2399
 4639SOL    HW115517   0.428   4.788   0.389  0.3942 -0.0985  0.6745
 4639SOL    HW215518   0.352   4.649   0.429 -1.3439  0.1937 -1.4338
 4640SOL     OW15519   0.586   2.176   2.704 -0.2309  0.5734 -0.0718
 4640SOL    HW115520   0.548   2.127   2.625  0.8194  0.4813 -0.5293
 4640SOL    HW215521   0.682   2.196   2.688  0.4760 -0.9221  1.8646
 4641SOL     OW15522   0.389   0.099   2.030  0.3357  0.2068  0.2508
 4641SOL    HW115523   0.303   0.148   2.043  0.1280  0.2236 -1.0956
 4641SOL    HW215524   0.466   0.161   2.047  0.0752  1.0139 -1.3222
 4642SOL     OW15525   5.175   0.823   6.449  0.1295  0.2213 -0.0114
 4642SOL    HW115526   5.256   0.825   6.391 -1.3578  0.8978 -2.1731
 4642SOL    HW215527   5.121   0.906   6.434 -1.3172 -0.5216  0.8918
 4643SOL     OW15528   2.209   1.512   4.791  0.2323  0.0491 -0.1617
 4643SOL    HW115529   2.206   1.600   4.743  1.0503  0.5378  0.6531
 4643SOL    HW215530   2.234   1.527   4.886  0.5879 -1.0959 -0.0654
 4644SOL     OW15531   4.860   2.999   5.362 -0.2126 -0.5520  0.3223
 4644SOL    HW115532   4.801   3.028   5.286  1.0907  1.9739  0.1735
 4644SOL    HW215533   4.830   3.042   5.447  0.8907  0.1282  0.3928
 4645SOL     OW15534   0.290   4.326   0.755 -0.2110 -0.0645  0.2434
 4645SOL    HW115535   0.220   4.305   0.687 -0.4183  0.7101  0.2061
 4645SOL    HW215536   0.314   4.423   0.749 -0.4996  0.1011  1.5087
 4646SOL     OW15537   6.963   2.751   0.993 -0.3958 -0.6964 -0.9287
 4646SOL    HW115538   6.884   2.780   0.939 -0.0356 -1.2561 -1.7659
 4646SOL    HW215539   7.016   2.683   0.942  0.2827 -0.7957 -0.1167
 4647SOL     OW15540   4.661   2.094   4.517 -0.1154 -0.4524 -0.5142
 4647SOL    HW115541   4.618   2.038   4.446 -1.1263 -0.7931  0.3292
 4647SOL    HW215542   4.590   2.131   4.577  0.3631  2.8293 -1.7599
 4648SOL     OW15543   4.519   0.411   1.981  0.3536 -0.7701  1.0945
 4648SOL    HW115544   4.463   0.342   1.935 -0.3874  1.2023 -1.1525
 4648SOL    HW215545   4.605   0.422   1.931 -0.3263  1.1759  0.2525
 4649SOL     OW15546   6.407   2.429   6.266  0.5637  0.1774  0.5672
 4649SOL    HW115547   6.424   2.525   6.243  3.8561 -0.8445 -2.0013
 4649SOL    HW215548   6.308   2.415   6.278 -0.1572  3.5689 -0.3037
 4650SOL     OW15549   4.297   1.095   6.212  0.1972 -0.5066 -0.1286
 4650SOL    HW115550   4.275   1.011   6.261  1.9100 -0.2587  1.1211
 4650SOL    HW215551   4.354   1.073   6.132  1.2321 -0.4829  0.5930
 4651SOL     OW15552   1.598   5.749   0.111  0.7295  0.1928  0.4105
 4651SOL    HW115553   1.666   5.711   0.049 -0.3986 -0.2344 -0.6082
 4651SOL    HW215554   1.643   5.805   0.181  2.2113 -1.0501  0.4927
 4652SOL     OW15555   0.893   5.513   2.820  0.2143 -0.7095  0.3450
 4652SOL    HW115556   0.833   5.464   2.757 -1.2424  0.6256  0.6319
 4652SOL    HW215557   0.957   5.570   2.769 -0.8593  0.2505  0.0575
 4653SOL     OW15558   5.043   5.647   3.619  0.5683  0.4151 -0.6887
 4653SOL    HW115559   5.026   5.665   3.716 -0.5424  3.4234 -1.3111
 4653SOL    HW215560   4.961   5.608   3.577  0.5228  0.5072 -0.6872
 4654SOL     OW15561   1.811   5.540   1.636 -0.3444  0.5506 -0.1362
 4654SOL    HW115562   1.721   5.560   1.676 -0.5865 -2.6838  1.2800
 4654SOL    HW215563   1.873   5.512   1.708  1.4333  1.3450 -1.2916
 4655SOL     OW15564   3.445   3.091   3.014 -0.2298 -0.2215 -0.0746
 4655SOL    HW115565   3.438   3.049   2.924  0.1659 -0.8355  0.1705
 4655SOL    HW215566   3.542   3.103   3.037 -0.3335  0.1471  0.1693
 4656SOL     OW15567   5.775   2.960   1.347 -0.1955  0.0327 -0.3504
 4656SOL    HW115568   5.857   2.903   1.340 -0.1462  0.0479  0.0320
 4656SOL    HW215569   5.694   2.903   1.335 -0.1308  0.0111 -0.6940
 4657SOL     OW15570   3.185   1.492   0.255  0.3981 -0.7145  0.7216
 4657SOL    HW115571   3.142   1.582   0.254  0.8514 -0.4759 -1.2115
 4657SOL    HW215572   3.270   1.496   0.308  1.9384  0.8082 -1.7045
 4658SOL     OW15573   4.039   1.614   0.299  0.5230  0.3813 -0.0332
 4658SOL    HW115574   4.118   1.583   0.246  0.5946  0.6608 -0.0915
 4658SOL    HW215575   3.961   1.627   0.237  0.1672 -0.7630  0.1506
 4659SOL     OW15576   6.978   6.174   0.144 -0.0886 -0.4308 -0.0750
 4659SOL    HW115577   7.074   6.199   0.137  0.2134 -0.8655  1.8584
 4659SOL    HW215578   6.956   6.106   0.074  0.4881  1.0450 -1.7597
 4660SOL     OW15579   0.743   6.525   5.455 -0.8125 -0.1857 -0.7609
 4660SOL    HW115580   0.669   6.458   5.454 -1.4907  0.5538 -1.2225
 4660SOL    HW215581   0.749   6.567   5.546 -0.3416 -0.9063 -0.4504
 4661SOL     OW15582   3.956   0.474   6.168  0.2649 -0.3213  0.4055
 4661SOL    HW115583   3.934   0.571   6.159 -1.3608 -0.6688  0.3622
 4661SOL    HW215584   3.917   0.438   6.253  4.4281 -0.0539  2.7426
 4662SOL     OW15585   6.718   4.043   1.348 -0.3775 -0.1478 -0.1326
 4662SOL    HW115586   6.718   4.140   1.324 -1.7554 -0.2976 -0.8266
 4662SOL    HW215587   6.807   4.003   1.324  0.3199  0.9845  0.4476
 4663SOL     OW15588   1.790   5.356   2.193 -0.0841  0.3984 -0.1380
 4663SOL    HW115589   1.691   5.362   2.206 -0.1861 -1.0111 -0.1243
 4663SOL    HW215590   1.829   5.296   2.263  0.5340 -0.3958 -1.1430
 4664SOL     OW15591   4.585   4.201   6.609  0.0284  0.1174  0.1540
 4664SOL    HW115592   4.538   4.289   6.609  1.2642  0.7974 -0.5518
 4664SOL    HW215593   4.595   4.168   6.703  0.7701  1.3999  0.5429
 4665SOL     OW15594   0.726   5.419   0.975 -0.3832  0.4733 -0.2588
 4665SOL    HW115595   0.703   5.322   0.982 -0.6322  0.5707  0.3819
 4665SOL    HW215596   0.643   5.473   0.965 -0.3276  0.6989  0.4461
 4666SOL     OW15597   4.874   4.199   5.636  0.5676 -0.0671  0.2327
 4666SOL    HW115598   4.959   4.170   5.682  0.0805 -0.1742  1.0856
 4666SOL    HW215599   4.826   4.119   5.602  0.3522 -0.0810  0.5683
 4667SOL     OW15600   6.374   6.582   2.612  0.5844  0.4944  0.0517
 4667SOL    HW115601   6.444   6.554   2.546  1.1709 -0.3755  1.0194
 4667SOL    HW215602   6.289   6.532   2.593  0.3753  1.1069 -0.7417
 4668SOL     OW15603   4.143   3.197   0.926 -0.3100 -0.2374 -0.2244
 4668SOL    HW115604   4.183   3.266   0.985 -2.2922  1.4518 -0.7269
 4668SOL    HW215605   4.194   3.192   0.840  0.0195  0.4054 -0.0667
 4669SOL     OW15606   4.577   6.132   1.100  0.2843  0.3958  0.3605
 4669SOL    HW115607   4.484   6.135   1.136  0.1847  0.4308  0.1030
 4669SOL    HW215608   4.584   6.058   1.033  0.2668  0.8030 -0.0976
 4670SOL     OW15609   1.767   6.147   2.904 -0.0725 -0.0219  0.0197
 4670SOL    HW115610   1.794   6.069   2.960 -1.4235 -1.4234 -1.1688
 4670SOL    HW215611   1.701   6.203   2.954 -0.5657 -0.7348  0.1774
 4671SOL     OW15612   4.608   1.258   6.035 -0.2815  0.8191  0.2349
 4671SOL    HW115613   4.511   1.280   6.030 -0.6393 -0.2356  1.7889
 4671SOL    HW215614   4.661   1.343   6.039 -1.3595  1.4842  2.3474
 4672SOL     OW15615   6.071   5.880   4.026  0.0107  0.3541 -0.4364
 4672SOL    HW115616   6.095   5.967   4.067  2.9515 -1.4317  2.0595
 4672SOL    HW215617   6.022   5.823   4.093  0.2271 -0.7513 -1.1820
 4673SOL     OW15618   0.011   1.394   1.243 -0.7382  0.3777 -0.6778
 4673SOL    HW115619   0.032   1.332   1.167 -1.2279 -1.2024  0.4176
 4673SOL    HW215620  -0.015   1.340   1.323  0.6538  1.9483  0.9188
 4674SOL     OW15621   1.393   3.741   0.428  0.2265  0.3659  0.2443
 4674SOL    HW115622   1.390   3.831   0.471 -0.6305 -0.1978  1.4364
 4674SOL    HW215623   1.438   3.747   0.339 -0.8658  2.1843 -0.2302
 4675SOL     OW15624   6.140   4.055   0.534 -0.9162  0.5284 -0.0486
 4675SOL    HW115625   6.194   4.072   0.616  1.1731 -0.4598 -1.1429
 4675SOL    HW215626   6.066   3.992   0.555  1.7839 -2.7815  0.4761
 4676SOL     OW15627   2.140   1.665   1.468  0.1361  0.5477 -0.1502
 4676SOL    HW115628   2.138   1.759   1.435  0.4773  1.0615  1.2240
 4676SOL    HW215629   2.235   1.633   1.473 -0.0632 -0.8080 -3.0305
 4677SOL     OW15630   1.586   5.134   2.262 -0.1272 -0.4387 -0.6049
 4677SOL    HW115631   1.681   5.136   2.293 -0.0256 -1.8912 -0.7462
 4677SOL    HW215632   1.541   5.221   2.283  1.1170  0.1113 -0.1824
 4678SOL     OW15633   3.951   6.949   6.868  0.0540 -0.1748 -0.2234
 4678SOL    HW115634   3.983   7.042   6.886 -0.6884  0.0625 -0.1289
 4678SOL    HW215635   3.918   6.943   6.774 -1.8842  0.2333  0.3991
 4679SOL     OW15636   1.479   2.735   1.672  0.0965 -0.7641  0.4356
 4679SOL    HW115637   1.524   2.805   1.618 -0.5995 -0.4865  0.2077
 4679SOL    HW215638   1.523   2.727   1.761 -1.0908  1.4257  1.2823
 4680SOL     OW15639   4.924   5.740   6.258 -0.3109  0.3661 -0.0478
 4680SOL    HW115640   4.978   5.767   6.178 -1.7177 -0.7795 -1.4525
 4680SOL    HW215641   4.923   5.815   6.324 -0.3602  1.9738 -1.7730
 4681SOL     OW15642   4.646   2.239   6.959  0.1663 -0.4849  0.4626
 4681SOL    HW115643   4.585   2.318   6.960  1.2110  0.3390  1.7422
 4681SOL    HW215644   4.640   2.193   6.870 -1.2963  0.3478  0.1016
 4682SOL     OW15645   3.765   6.809   6.074  0.0987  0.3657  0.1370
 4682SOL    HW115646   3.864   6.799   6.084 -0.0051  0.1566  1.0613
 4682SOL    HW215647   3.725   6.833   6.163 -0.5935  1.1863 -0.3862
 4683SOL     OW15648   2.421   3.059   6.124 -0.1846  0.2241  0.3447
 4683SOL    HW115649   2.325   3.080   6.110 -0.0966  1.4427  1.3398
 4683SOL    HW215650   2.471   3.072   6.039 -0.5714  1.7285  0.3057
 4684SOL     OW15651   0.255   5.489   0.195  0.1049  0.5895 -0.4583
 4684SOL    HW115652   0.343   5.524   0.228  1.4704 -1.8048 -1.2749
 4684SOL    HW215653   0.210   5.437   0.268  0.9438 -0.8595 -0.9292
 4685SOL     OW15654   1.292   4.981   0.658  0.0788  0.0849 -0.6587
 4685SOL    HW115655   1.304   5.067   0.707 -3.2758  2.3766 -3.3473
 4685SOL    HW215656   1.226   4.924   0.707  1.0951 -0.2753  0.3214
 4686SOL     OW15657   6.139   3.819   3.424  0.3946 -0.3534  0.0719
 4686SOL    HW115658   6.046   3.798   3.393  0.1628 -0.1299  0.6118
 4686SOL    HW215659   6.142   3.911   3.461  0.5997 -0.7290  0.9995
 4687SOL     OW15660   6.320   4.097   0.718  0.2099 -0.1720  0.3216
 4687SOL    HW115661   6.357   4.190   0.712  2.0768 -0.9372 -0.8470
 4687SOL    HW215662   6.395   4.033   0.736 -1.0974 -1.4345  1.4717
 4688SOL     OW15663   1.779   5.682   0.611 -0.0967  0.0488 -0.1495
 4688SOL    HW115664   1.719   5.627   0.553 -1.3367  2.3410 -1.1728
 4688SOL    HW215665   1.875   5.668   0.583 -0.4014 -1.2861 -0.5941
 4689SOL     OW15666   2.018   4.618   1.934  0.0065 -0.2669 -0.6955
 4689SOL    HW115667   2.066   4.706   1.940 -0.5579  0.2597 -2.9628
 4689SOL    HW215668   2.002   4.583   2.026  2.3174  0.8355  0.2173
 4690SOL     OW15669   5.544   4.246   0.053  0.1999  0.3789 -0.0288
 4690SOL    HW115670   5.488   4.185  -0.003  0.8811 -0.6185  0.3624
 4690SOL    HW215671   5.536   4.339   0.018 -1.4944  0.2197 -0.1368
 4691SOL     OW15672   4.739   4.471   1.124 -0.7344  0.1720  0.0211
 4691SOL    HW115673   4.641   4.492   1.135 -0.8590  0.0142 -0.7183
 4691SOL    HW215674   4.751   4.411   1.045  0.0227  0.6641 -0.2458
 4692SOL     OW15675   4.024   4.237   2.194  0.1905  0.0206 -0.5484
 4692SOL    HW115676   3.939   4.253   2.244  0.5579  0.4497 -0.0532
 4692SOL    HW215677   4.068   4.154   2.229  0.2362  0.0914 -0.4330
 4693SOL     OW15678   5.402   4.226   6.723  0.6360 -0.0081  0.2345
 4693SOL    HW115679   5.470   4.298   6.707  1.4759 -0.7257  0.4842
 4693SOL    HW215680   5.433   4.167   6.798 -1.2838  0.8971  1.8057
 4694SOL     OW15681   5.754   5.984   3.121 -0.0540  0.3933  0.5377
 4694SOL    HW115682   5.704   6.046   3.061 -0.0403 -0.0216  0.0857
 4694SOL    HW215683   5.698   5.962   3.201 -0.9536 -0.6982 -0.3460
 4695SOL     OW15684   6.903   1.701   6.258 -0.2487 -0.3814  0.1896
 4695SOL    HW115685   6.847   1.785   6.257  2.2369  1.4879  2.4155
 4695SOL    HW215686   6.928   1.677   6.164  0.1800  2.3127 -0.4887
 4696SOL     OW15687   4.603   6.632   1.517  0.7891 -0.4270  0.2640
 4696SOL    HW115688   4.579   6.535   1.514 -0.3150 -0.1933  1.0921
 4696SOL    HW215689   4.539   6.681   1.576  0.5879  1.0334 -1.1096
 4697SOL     OW15690   2.540   2.438   6.422  0.0625 -0.0646  0.3144
 4697SOL    HW115691   2.535   2.528   6.464 -0.8518 -0.4689  1.1045
 4697SOL    HW215692   2.458   2.421   6.368  0.2954 -0.3647  0.0469
 4698SOL     OW15693   0.006   1.143   6.288  0.7507  0.3178 -0.6895
 4698SOL    HW115694   0.088   1.112   6.239 -0.2779 -2.5102 -0.8015
 4698SOL    HW215695  -0.040   1.064   6.330  0.4156  2.3198  3.1444
 4699SOL     OW15696   6.833   2.427   1.117  0.3383 -0.2366  0.2998
 4699SOL    HW115697   6.774   2.351   1.146 -0.4044 -0.3439 -1.3941
 4699SOL    HW215698   6.813   2.507   1.173  0.5782 -1.0356  1.5934
 4700SOL     OW15699   4.722   3.398   1.523  0.3079  0.1412 -0.5722
 4700SOL    HW115700   4.759   3.353   1.603  1.0447  0.9322 -0.4501
 4700SOL    HW215701   4.689   3.490   1.548  1.8721  0.9749 -1.4205
 4701SOL     OW15702   0.778   3.208   6.003 -0.4832 -0.0434  0.1113
 4701SOL    HW115703   0.815   3.278   6.064  2.8537 -1.3386 -0.2178
 4701SOL    HW215704   0.779   3.241   5.909  0.1016 -0.1520  0.0773
 4702SOL     OW15705   5.384   6.473   2.732  0.4571 -0.5619  0.0682
 4702SOL    HW115706   5.442   6.551   2.757  0.3161 -0.6197  0.5891
 4702SOL    HW215707   5.398   6.451   2.635  0.8014 -0.1499  0.0192
 4703SOL     OW15708   3.800   6.484   1.993  0.4603 -0.1634  0.5360
 4703SOL    HW115709   3.875   6.423   1.964 -0.2225 -0.8544  0.1848
 4703SOL    HW215710   3.822   6.522   2.083  1.2257 -0.3701  0.4497
 4704SOL     OW15711   4.645   2.773   2.298 -0.5282 -0.0768  0.0311
 4704SOL    HW115712   4.739   2.801   2.321  1.1504 -3.7383 -1.5133
 4704SOL    HW215713   4.602   2.843   2.242  1.3142  1.6562  0.6794
 4705SOL     OW15714   5.150   4.024   6.280 -0.0234  0.5786  0.2205
 4705SOL    HW115715   5.144   4.015   6.180  1.9910 -0.4146  0.1391
 4705SOL    HW215716   5.194   4.111   6.303  0.2941  0.4223  0.2070
 4706SOL     OW15717   2.529   3.247   5.210  0.4529 -0.2122  0.1707
 4706SOL    HW115718   2.571   3.269   5.298  0.5790 -1.1858  0.3574
 4706SOL    HW215719   2.569   3.163   5.174 -0.5331 -0.5318 -0.2031
 4707SOL     OW15720   2.905   0.597   0.553  0.7571  0.0891 -0.1847
 4707SOL    HW115721   2.959   0.535   0.610 -1.3888 -0.9537  0.8383
 4707SOL    HW215722   2.809   0.569   0.555 -0.4805  3.7951  0.8770
 4708SOL     OW15723   3.192   1.153   5.537  0.1580 -0.0994 -0.0752
 4708SOL    HW115724   3.149   1.066   5.561 -1.0896 -0.3334 -2.7650
 4708SOL    HW215725   3.123   1.225   5.536  0.1655 -0.0491 -2.3134
 4709SOL     OW15726   2.170   6.456   0.084 -0.5752 -0.0382  0.0235
 4709SOL    HW115727   2.121   6.440  -0.002 -0.5600  1.1226 -0.2121
 4709SOL    HW215728   2.266   6.432   0.072 -0.8480 -1.2914  0.1699
 4710SOL     OW15729   6.385   6.243   3.264 -0.2800  0.8418  0.4596
 4710SOL    HW115730   6.474   6.280   3.239 -0.2791  0.0044 -0.8759
 4710SOL    HW215731   6.343   6.200   3.184 -0.7873 -0.9798  1.6598
 4711SOL     OW15732   6.170   2.300   2.731  0.3239  0.0303  0.4866
 4711SOL    HW115733   6.082   2.314   2.687  0.6936  1.2251  0.0991
 4711SOL    HW215734   6.225   2.236   2.676 -0.4224 -1.0241  0.9327
 4712SOL     OW15735   1.617   4.812   6.301  0.3078 -0.3653 -0.4746
 4712SOL    HW115736   1.618   4.897   6.353 -0.5257 -0.6256 -0.0145
 4712SOL    HW215737   1.700   4.759   6.322  1.6997  1.0587 -2.0514
 4713SOL     OW15738   5.963   3.486   5.839 -0.3184 -0.5546 -0.4702
 4713SOL    HW115739   5.967   3.410   5.904 -0.2092 -0.2115 -0.0791
 4713SOL    HW215740   5.876   3.485   5.791 -1.6804  0.9736  1.8133
 4714SOL     OW15741   3.658   6.337   1.246  0.4938 -0.0060 -0.1172
 4714SOL    HW115742   3.700   6.251   1.277  1.5500  0.7686  0.6870
 4714SOL    HW215743   3.602   6.375   1.320  0.9257  0.5483 -0.0721
 4715SOL     OW15744   0.562   6.951   4.555  0.3874  0.1067 -0.1160
 4715SOL    HW115745   0.579   6.907   4.468  1.4951 -0.1263  0.1961
 4715SOL    HW215746   0.641   7.008   4.580  0.5646 -0.6799  1.2288
 4716SOL     OW15747   5.142   2.568   2.445 -0.2263  0.0599 -0.1528
 4716SOL    HW115748   5.066   2.580   2.381 -0.0829 -0.8794 -0.5156
 4716SOL    HW215749   5.132   2.481   2.493  0.9880 -0.4029 -0.7048
 4717SOL     OW15750   5.893   3.927   3.818 -0.8702 -0.2691  0.4114
 4717SOL    HW115751   5.861   3.840   3.855 -0.0854  0.0347  1.8748
 4717SOL    HW215752   5.856   4.002   3.871 -1.2712  0.2994 -0.6382
 4718SOL     OW15753   3.915   3.269   0.656  0.0758 -0.2079  0.1387
 4718SOL    HW115754   3.871   3.185   0.688 -2.1562  0.9362  0.2726
 4718SOL    HW215755   3.845   3.332   0.622  1.5788  1.9401  0.8401
 4719SOL     OW15756   3.670   4.901   3.144 -0.8785  0.5337 -0.4251
 4719SOL    HW115757   3.702   4.807   3.131 -2.4771  0.0240 -0.9032
 4719SOL    HW215758   3.628   4.934   3.059 -1.7075  1.1291  0.2063
 4720SOL     OW15759   5.330   2.575   3.640  0.0446 -0.1468 -0.0178
 4720SOL    HW115760   5.326   2.653   3.577 -0.2465 -0.0638  0.1031
 4720SOL    HW215761   5.357   2.606   3.731  1.6985 -0.4396 -0.3820
 4721SOL     OW15762   1.624   3.005   1.537  0.0991 -0.0310  0.7480
 4721SOL    HW115763   1.705   2.962   1.496 -0.1432  1.3126 -1.2833
 4721SOL    HW215764   1.543   2.977   1.485 -0.5850 -0.2854  1.9240
 4722SOL     OW15765   6.302   3.856   2.694  0.9671 -0.1016 -0.0660
 4722SOL    HW115766   6.235   3.861   2.620  0.9596 -0.3229 -0.0747
 4722SOL    HW215767   6.393   3.870   2.657  0.8155  1.8016  0.1637
 4723SOL     OW15768   2.181   6.446   2.789 -0.5564 -0.0674  0.1200
 4723SOL    HW115769   2.087   6.414   2.799 -0.1740 -1.3276 -0.1806
 4723SOL    HW215770   2.223   6.454   2.879 -0.7227 -0.1803  0.2077
 4724SOL     OW15771   6.504   4.853   3.705  0.4789  0.2551 -0.1161
 4724SOL    HW115772   6.529   4.854   3.802 -1.3321 -0.0388  0.3882
 4724SOL    HW215773   6.557   4.782   3.658  0.1974 -0.7428  1.0135
 4725SOL     OW15774   3.506   0.664   4.157  0.1913 -0.3373  0.6509
 4725SOL    HW115775   3.441   0.596   4.122 -1.6753  1.4081  0.5605
 4725SOL    HW215776   3.458   0.749   4.177  2.6961  1.6193 -0.9911
 4726SOL     OW15777   4.842   5.116   3.710  0.3140 -0.2559 -0.2782
 4726SOL    HW115778   4.806   5.039   3.658  1.2438  0.5194 -2.1332
 4726SOL    HW215779   4.785   5.197   3.693 -1.1749 -0.6171  2.3120
 4727SOL     OW15780   0.575   5.478   1.964 -0.2077 -0.3535 -0.0573
 4727SOL    HW115781   0.670   5.493   1.992  0.2635 -1.9778 -0.6925
 4727SOL    HW215782   0.563   5.506   1.868 -0.3461 -0.2825 -0.0204
 4728SOL     OW15783   3.762   0.732   3.636  0.5183  0.1346  1.2239
 4728SOL    HW115784   3.736   0.695   3.547 -0.9672 -1.9702  2.4597
 4728SOL    HW215785   3.802   0.823   3.623 -0.2365  0.1761 -1.5108
 4729SOL     OW15786   5.758   0.775   3.725 -0.7636  0.4918 -0.0103
 4729SOL    HW115787   5.793   0.687   3.693 -0.3328  0.9005 -0.6809
 4729SOL    HW215788   5.658   0.772   3.728 -0.7373 -0.7645  2.1377
 4730SOL     OW15789   5.645   6.988   2.865  0.1471  0.0518  0.0571
 4730SOL    HW115790   5.621   7.023   2.774  1.2331  1.3952  0.2593
 4730SOL    HW215791   5.625   7.057   2.933 -0.8714 -1.0336  0.9035
 4731SOL     OW15792   4.393   0.908   3.297 -0.3299 -0.4671 -0.7560
 4731SOL    HW115793   4.334   0.843   3.250 -0.5603  0.9359 -2.4844
 4731SOL    HW215794   4.351   0.934   3.384 -0.6028 -1.9917 -0.3953
 4732SOL     OW15795   1.350   5.474   1.696 -0.5619 -0.7413  1.0283
 4732SOL    HW115796   1.426   5.411   1.710 -0.4401 -0.3644  2.1329
 4732SOL    HW215797   1.321   5.471   1.600  2.4307  0.8744 -0.0638
 4733SOL     OW15798   3.983   0.706   0.285  0.2433  0.2461 -0.6238
 4733SOL    HW115799   4.000   0.756   0.200  0.7362  0.8929 -0.1496
 4733SOL    HW215800   4.069   0.677   0.325  0.0464  0.4539 -0.0415
 4734SOL     OW15801   2.816   1.682   3.867 -0.0171  0.0512  0.2157
 4734SOL    HW115802   2.763   1.657   3.948 -0.6368 -1.4393 -0.5911
 4734SOL    HW215803   2.790   1.621   3.791  1.7959  0.2479 -0.6104
 4735SOL     OW15804   5.418   2.747   6.695 -0.0528  0.0791 -0.5797
 4735SOL    HW115805   5.409   2.653   6.725 -0.2722 -0.3670 -1.9734
 4735SOL    HW215806   5.471   2.751   6.610 -0.2811  1.1673 -0.6985
 4736SOL     OW15807   5.980   3.826   0.899  0.2237 -0.1381 -0.7726
 4736SOL    HW115808   5.983   3.791   0.805 -1.0988  0.5237 -1.0876
 4736SOL    HW215809   6.042   3.903   0.908  0.6157 -0.4235 -1.0059
 4737SOL     OW15810   3.141   4.716   1.343 -0.3040 -0.0284 -0.4878
 4737SOL    HW115811   3.135   4.628   1.296  1.6376  0.2040 -1.3003
 4737SOL    HW215812   3.222   4.766   1.310 -0.7801  1.6287  0.6866
 4738SOL     OW15813   6.967   2.408   5.310  0.8944 -0.2239 -0.2102
 4738SOL    HW115814   6.981   2.353   5.228  3.0285 -0.5986  0.3394
 4738SOL    HW215815   6.993   2.354   5.390 -0.6210  0.3267  0.6950
 4739SOL     OW15816   3.548   5.581   3.648  0.6446 -0.3719  0.1807
 4739SOL    HW115817   3.566   5.650   3.717  0.5657 -0.4222  0.2526
 4739SOL    HW215818   3.484   5.617   3.580  0.3243 -0.4936  0.4142
 4740SOL     OW15819   2.207   4.989   2.661 -0.3945 -0.5903 -0.4140
 4740SOL    HW115820   2.209   5.012   2.563 -0.5380 -0.3808 -0.3691
 4740SOL    HW215821   2.228   4.892   2.673 -2.8370 -1.2551 -0.8623
 4741SOL     OW15822   2.577   3.505   5.130  0.1351  0.3192 -0.1999
 4741SOL    HW115823   2.554   3.412   5.159  2.1285 -0.9784 -2.4179
 4741SOL    HW215824   2.645   3.543   5.193  0.2473 -0.2241  0.0162
 4742SOL     OW15825   3.026   3.177   0.378 -0.1713  0.1921  0.4661
 4742SOL    HW115826   3.090   3.119   0.430 -0.8609 -1.5999 -0.5790
 4742SOL    HW215827   3.043   3.273   0.400  2.3711 -0.2493  0.7918
 4743SOL     OW15828   3.109   6.766   1.984  0.0753  0.0014  0.3817
 4743SOL    HW115829   3.156   6.777   1.897  0.4061  0.8462  0.6558
 4743SOL    HW215830   3.027   6.824   1.986  0.1831  0.1444  0.7115
 4744SOL     OW15831   0.745   4.982   5.003  0.0025 -0.5454 -0.9608
 4744SOL    HW115832   0.795   4.911   5.054  0.0265 -0.5422 -0.9796
 4744SOL    HW215833   0.668   5.014   5.057  0.1949 -0.3397 -0.8057
 4745SOL     OW15834   2.666   2.756   6.804 -0.1937 -0.0905 -0.0960
 4745SOL    HW115835   2.574   2.751   6.844 -0.4885 -0.9671 -0.8494
 4745SOL    HW215836   2.663   2.811   6.721  0.0420  0.1982  0.0871
 4746SOL     OW15837   1.114   5.373   0.900 -0.0972 -0.0904  0.6783
 4746SOL    HW115838   1.049   5.298   0.889  0.3536 -0.3075 -0.6096
 4746SOL    HW215839   1.166   5.360   0.985 -1.3960 -0.1512  1.4860
 4747SOL     OW15840   4.986   0.728   3.827  0.3411  0.0828 -0.7872
 4747SOL    HW115841   4.992   0.650   3.889  0.6816  0.4552 -0.3406
 4747SOL    HW215842   4.893   0.737   3.792  0.3488 -0.6454 -1.0085
 4748SOL     OW15843   0.547   3.307   3.828  0.4732  0.3597 -0.0527
 4748SOL    HW115844   0.591   3.382   3.779  0.1756  1.5995  1.4816
 4748SOL    HW215845   0.588   3.298   3.919  0.8787 -1.7392 -0.3924
 4749SOL     OW15846   2.750   3.719   3.190  0.4098 -0.7367 -0.8941
 4749SOL    HW115847   2.666   3.701   3.242  0.6873 -0.1141 -0.2063
 4749SOL    HW215848   2.727   3.766   3.105  0.1899  1.3366  0.2517
 4750SOL     OW15849   2.288   0.725   3.115  0.0293  0.3832 -0.2159
 4750SOL    HW115850   2.340   0.796   3.069  1.7077 -0.6378  0.0228
 4750SOL    HW215851   2.190   0.742   3.102  0.3602  0.4204 -3.7888
 4751SOL     OW15852   5.859   5.922   1.141  0.2758  0.6237 -0.1859
 4751SOL    HW115853   5.773   5.935   1.190  0.8047 -0.1940  1.0221
 4751SOL    HW215854   5.842   5.870   1.057 -0.5070  1.1406 -0.3546
 4752SOL     OW15855   6.979   3.907   6.214  0.0418 -0.4081  0.0180
 4752SOL    HW115856   7.029   3.822   6.229 -1.0429 -0.8090  1.6289
 4752SOL    HW215857   6.898   3.889   6.158  0.5747 -0.1261 -0.8822
 4753SOL     OW15858   3.227   1.254   6.392 -0.3946 -0.1009  1.1028
 4753SOL    HW115859   3.313   1.279   6.348 -0.7687 -0.3112  0.2370
 4753SOL    HW215860   3.159   1.325   6.377 -1.4110 -1.4337 -1.2346
 4754SOL     OW15861   4.260   2.083   6.941 -0.0969  0.1542 -0.3349
 4754SOL    HW115862   4.240   2.150   6.870  0.9443 -1.7597 -2.5482
 4754SOL    HW215863   4.186   2.016   6.945  0.6467 -0.7233 -0.8750
 4755SOL     OW15864   3.466   0.686   4.536  0.1382 -0.3616  0.1255
 4755SOL    HW115865   3.559   0.692   4.500  0.4246 -1.9775  0.5121
 4755SOL    HW215866   3.409   0.633   4.473  0.1879 -1.6792  1.1450
 4756SOL     OW15867   4.577   3.663   6.395  0.0645  0.6338  0.2271
 4756SOL    HW115868   4.515   3.590   6.364 -0.1102  1.4363 -1.4219
 4756SOL    HW215869   4.523   3.744   6.418  0.4211  1.1612 -0.7124
 4757SOL     OW15870   2.303   3.766   0.668  0.0831  0.1290 -0.5385
 4757SOL    HW115871   2.264   3.785   0.578  0.7671 -0.0877 -0.8845
 4757SOL    HW215872   2.362   3.685   0.663 -0.0107  0.0077  0.1462
 4758SOL     OW15873   2.005   2.733   4.902  0.3126 -0.3738 -0.0555
 4758SOL    HW115874   2.034   2.695   4.815 -0.2579 -2.1983  0.4972
 4758SOL    HW215875   2.062   2.811   4.926  0.4288  0.2075 -2.0704
 4759SOL     OW15876   3.313   3.020   1.734 -0.1291  0.0728 -0.0696
 4759SOL    HW115877   3.259   3.092   1.692 -1.1725 -1.8755 -2.2623
 4759SOL    HW215878   3.252   2.955   1.780  0.5571 -0.7352 -0.2747
 4760SOL     OW15879   5.513   2.738   5.461 -0.5192  0.1681  0.1073
 4760SOL    HW115880   5.446   2.810   5.480  0.1587  0.9527 -0.4488
 4760SOL    HW215881   5.605   2.777   5.459  0.0891 -1.0448  1.7716
 4761SOL     OW15882   2.436   5.608   3.804  0.5464 -0.1943  0.1373
 4761SOL    HW115883   2.430   5.683   3.870  0.3088  1.1953 -1.3885
 4761SOL    HW215884   2.358   5.612   3.741  1.8915 -0.0951 -1.5982
 4762SOL     OW15885   1.740   2.505   2.552 -0.4299  0.2463  0.7230
 4762SOL    HW115886   1.772   2.532   2.643  1.1398 -1.1168  0.6241
 4762SOL    HW215887   1.693   2.417   2.558  0.4030 -0.2554  0.1294
 4763SOL     OW15888   2.886   2.784   0.501  0.2243 -0.5094  0.7886
 4763SOL    HW115889   2.933   2.855   0.553 -0.9150  0.8469  0.0170
 4763SOL    HW215890   2.917   2.785   0.406 -0.7632 -0.1086  0.4533
 4764SOL     OW15891   6.226   2.989   1.031  0.5203  0.2734 -0.0969
 4764SOL    HW115892   6.180   2.931   0.964 -0.1372  0.5138  0.1357
 4764SOL    HW215893   6.293   2.935   1.081 -0.3648 -0.3988  0.3989
 4765SOL     OW15894   3.086   6.107   5.509 -0.0695  0.1705  0.0935
 4765SOL    HW115895   3.100   6.013   5.540 -0.9998  0.2999  0.9483
 4765SOL    HW215896   3.124   6.170   5.576 -1.7698  0.4459  0.8510
 4766SOL     OW15897   1.721   4.863   6.613  0.0563  0.2650  0.4694
 4766SOL    HW115898   1.742   4.785   6.554 -1.2919 -0.5994  1.0911
 4766SOL    HW215899   1.806   4.911   6.635  0.9049 -0.9454 -0.0143
 4767SOL     OW15900   6.342   6.165   0.136 -0.0009  0.1571  0.6286
 4767SOL    HW115901   6.433   6.182   0.096 -0.0280 -1.4022 -0.2055
 4767SOL    HW215902   6.280   6.133   0.064 -0.9332  0.2428  1.3819
 4768SOL     OW15903   3.058   0.047   4.423 -0.0014  0.2411  0.2453
 4768SOL    HW115904   2.981  -0.011   4.395  0.2027  1.0369 -2.1325
 4768SOL    HW215905   3.024   0.120   4.482 -0.3632 -1.7586  2.7256
 4769SOL     OW15906   4.173   3.704   2.068 -0.2754 -0.6356 -0.1449
 4769SOL    HW115907   4.153   3.692   1.971 -1.3629 -1.8394  0.2070
 4769SOL    HW215908   4.268   3.680   2.086  0.3563  0.9445 -1.1161
 4770SOL     OW15909   2.142   0.077   5.959 -0.8614 -0.2537  0.4942
 4770SOL    HW115910   2.129   0.035   6.048 -0.4552  0.2827  0.8138
 4770SOL    HW215911   2.094   0.024   5.889  1.0284 -2.2333  0.6145
 4771SOL     OW15912   2.341   3.601   5.983  0.0682  0.0674  0.0116
 4771SOL    HW115913   2.260   3.605   6.042 -1.7228  2.0031 -2.3758
 4771SOL    HW215914   2.423   3.618   6.037 -1.5464  2.7561  1.8400
 4772SOL     OW15915   3.451   0.122   1.615  0.1097  0.1828  0.0224
 4772SOL    HW115916   3.512   0.163   1.547  0.7310  0.1589  0.5514
 4772SOL    HW215917   3.497   0.045   1.659 -1.0214 -1.0801 -0.9179
 4773SOL     OW15918   3.427   5.884   0.361  0.2223  0.6916 -0.1981
 4773SOL    HW115919   3.412   5.869   0.459  1.6963 -0.7402 -0.1600
 4773SOL    HW215920   3.380   5.813   0.309  0.6454  0.5959 -0.4521
 4774SOL     OW15921   1.004   5.145   5.022  0.1676 -0.7655 -0.2822
 4774SOL    HW115922   0.918   5.099   5.003 -0.3234 -0.0092  0.0695
 4774SOL    HW215923   1.024   5.139   5.120 -2.4965  4.0179  0.8127
 4775SOL     OW15924   2.356   0.157   5.638 -0.1190 -0.0923 -0.3656
 4775SOL    HW115925   2.357   0.225   5.711  0.9009  1.3313 -1.6319
 4775SOL    HW215926   2.262   0.143   5.607 -0.5409 -0.5752  1.0493
 4776SOL     OW15927   2.230   5.617   4.579 -0.7252  0.1795 -0.5477
 4776SOL    HW115928   2.133   5.602   4.559 -0.5253  0.3536 -1.6964
 4776SOL    HW215929   2.250   5.583   4.670 -1.7917 -0.1752 -0.4262
 4777SOL     OW15930   5.181   1.469   3.279 -0.6844  0.2905  0.3544
 4777SOL    HW115931   5.146   1.470   3.186 -0.6770 -0.0049  0.3471
 4777SOL    HW215932   5.278   1.441   3.278 -0.3452  1.4211  0.3398
 4778SOL     OW15933   6.302   6.851   0.151  0.3674  0.4274  0.2875
 4778SOL    HW115934   6.288   6.758   0.119  1.8270  0.3244 -0.1280
 4778SOL    HW215935   6.399   6.876   0.140 -0.4427  3.0378 -2.5398
 4779SOL     OW15936   6.825   5.630   0.329  0.0633  0.0894  0.0886
 4779SOL    HW115937   6.891   5.566   0.290  0.1774 -0.1410  0.6489
 4779SOL    HW215938   6.747   5.639   0.267  0.2508 -0.2493 -0.2018
 4780SOL     OW15939   3.761   0.575   6.395  0.1560  1.0251 -0.1357
 4780SOL    HW115940   3.709   0.644   6.345  0.4586 -0.5654 -2.8132
 4780SOL    HW215941   3.840   0.617   6.439 -0.4224  2.5835 -0.5479
 4781SOL     OW15942   2.305   1.491   3.277  0.1721  0.0406 -0.2105
 4781SOL    HW115943   2.284   1.395   3.260 -2.9415  0.1531  2.0534
 4781SOL    HW215944   2.232   1.548   3.240  1.7038  1.5376 -1.0308
 4782SOL     OW15945   3.368   0.025   4.989  0.2237  0.2243  0.1693
 4782SOL    HW115946   3.405   0.109   5.030  1.0768 -0.6768  1.3007
 4782SOL    HW215947   3.347   0.043   4.893 -0.1594  1.8927  0.5197
 4783SOL     OW15948   2.428   0.338   4.265  0.4274 -0.1619 -0.1791
 4783SOL    HW115949   2.452   0.421   4.316 -1.1361  0.2069  0.0010
 4783SOL    HW215950   2.440   0.258   4.323  1.0908  0.0182 -0.0651
 4784SOL     OW15951   1.496   5.465   1.121 -0.4843 -0.5530 -0.8711
 4784SOL    HW115952   1.544   5.500   1.201 -2.1997  3.1789 -1.2541
 4784SOL    HW215953   1.556   5.470   1.041 -0.0188 -0.4933 -0.5207
 4785SOL     OW15954   3.851   1.723   2.626  0.0135 -0.2173 -0.1153
 4785SOL    HW115955   3.852   1.793   2.554 -0.9000 -0.1431 -0.0673
 4785SOL    HW215956   3.875   1.765   2.713  2.1030 -0.4910 -0.4966
 4786SOL     OW15957   5.076   2.617   1.203 -0.2978 -0.7030 -0.6778
 4786SOL    HW115958   5.171   2.605   1.176 -0.2815 -0.4326 -0.7493
 4786SOL    HW215959   5.032   2.528   1.216  0.0772 -0.8277 -0.2462
 4787SOL     OW15960   5.929   6.515   1.881  0.2141 -0.2877 -0.2225
 4787SOL    HW115961   5.873   6.439   1.848  0.5086 -0.4824 -0.2772
 4787SOL    HW215962   5.922   6.521   1.981 -0.8535  0.4381 -0.3206
 4788SOL     OW15963   6.945   5.312   5.141  0.4287 -0.6496  0.0326
 4788SOL    HW115964   6.978   5.349   5.228  0.4957  0.2873 -0.3798
 4788SOL    HW215965   6.845   5.302   5.146  0.2519  0.7960 -0.2782
 4789SOL     OW15966   2.216   5.845   3.582  0.7618 -0.4578  0.5550
 4789SOL    HW115967   2.216   5.750   3.611 -0.3109  0.2163  3.0022
 4789SOL    HW215968   2.286   5.896   3.633  1.5732  0.0487 -0.9818
 4790SOL     OW15969   6.610   4.058   3.273  0.2686 -0.1343  0.2659
 4790SOL    HW115970   6.568   4.014   3.194  1.1944 -0.3167 -0.1333
 4790SOL    HW215971   6.539   4.081   3.340 -0.4744 -0.3309 -0.4395
 4791SOL     OW15972   2.452   4.209   5.834 -0.1954  0.4377  0.1041
 4791SOL    HW115973   2.424   4.135   5.894 -1.1561  1.6972  1.2526
 4791SOL    HW215974   2.413   4.295   5.866  1.8403  1.6537 -0.4962
 4792SOL     OW15975   1.028   6.366   6.475  0.3504 -0.4875 -0.4696
 4792SOL    HW115976   0.969   6.304   6.526  1.8406 -0.7280  1.0607
 4792SOL    HW215977   0.974   6.415   6.407 -1.3043 -1.7247 -0.1076
 4793SOL     OW15978   4.599   4.187   3.632  0.7027 -0.1968 -0.2661
 4793SOL    HW115979   4.603   4.267   3.691  0.3329 -0.8054  0.6084
 4793SOL    HW215980   4.664   4.198   3.557  0.4715  1.0214 -0.3042
 4794SOL     OW15981   1.120   5.954   6.591  1.3254 -0.2026 -0.4596
 4794SOL    HW115982   1.162   6.037   6.626  1.5169 -0.1307 -0.8586
 4794SOL    HW215983   1.023   5.953   6.614  1.5548 -0.4131  0.5518
 4795SOL     OW15984   4.911   1.859   0.860  0.0100  0.1603 -0.6534
 4795SOL    HW115985   4.843   1.931   0.849 -0.2312 -0.0092 -0.3021
 4795SOL    HW215986   4.949   1.835   0.771 -1.6765 -0.9807 -1.1162
 4796SOL     OW15987   3.348   5.081   2.755  0.2987 -0.3251 -0.5533
 4796SOL    HW115988   3.376   5.040   2.668 -1.9531 -0.9962 -1.0369
 4796SOL    HW215989   3.248   5.093   2.756  0.5035  2.0968  0.9193
 4797SOL     OW15990   0.332   2.279   4.774  0.4728  0.4085  0.3292
 4797SOL    HW115991   0.416   2.244   4.815  0.4893  0.4450  0.3271
 4797SOL    HW215992   0.321   2.376   4.797  0.7198  0.5515 -0.1298
 4798SOL     OW15993   2.499   0.186   2.077 -0.4386 -0.6211 -0.2227
 4798SOL    HW115994   2.401   0.200   2.090 -0.4237 -0.5811 -0.1496
 4798SOL    HW215995   2.516   0.147   1.987 -0.3125  1.9928 -1.4257
 4799SOL     OW15996   2.035   4.974   3.326 -0.2051 -1.1108  0.4322
 4799SOL    HW115997   2.109   4.927   3.375  0.1109 -0.8928  0.1722
 4799SOL    HW215998   2.046   4.959   3.228 -0.6819 -1.3252  0.4106
 4800SOL     OW15999   2.143   5.154   0.385 -0.0693 -0.5655 -0.0499
 4800SOL    HW116000   2.201   5.235   0.395  1.8312 -1.8472  0.0794
 4800SOL    HW216001   2.195   5.082   0.337 -0.7711 -2.5371  1.9612
 4801SOL     OW16002   6.206   1.483   4.394  1.0433  0.2009  0.9456
 4801SOL    HW116003   6.115   1.469   4.434  0.6957 -1.1080 -0.2449
 4801SOL    HW216004   6.276   1.459   4.462  0.5027  0.0694  1.4689
 4802SOL     OW16005   5.855   3.115   3.709 -0.6103  0.3116  1.2744
 4802SOL    HW116006   5.942   3.096   3.665  0.5554 -0.5225  3.7739
 4802SOL    HW216007   5.785   3.131   3.639  1.5806  1.3861 -0.7914
 4803SOL     OW16008   5.488   5.738   3.763 -0.5768  0.0057  0.0352
 4803SOL    HW116009   5.417   5.763   3.828 -1.3520 -0.4649 -0.6036
 4803SOL    HW216010   5.540   5.660   3.798 -0.7823 -0.0402  0.2378
 4804SOL     OW16011   6.498   4.212   6.057  0.6607 -0.0038  0.3028
 4804SOL    HW116012   6.461   4.304   6.043  1.7794  0.5108  0.6193
 4804SOL    HW216013   6.460   4.173   6.140  0.5658  0.3836  0.4452
 4805SOL     OW16014   5.113   4.175   3.543  0.4470  0.3645 -0.1018
 4805SOL    HW116015   5.148   4.232   3.618 -0.8436  0.2340  0.6327
 4805SOL    HW216016   5.067   4.095   3.582 -1.1896  0.8412 -0.9847
 4806SOL     OW16017   6.084   6.019   6.425 -0.4164  0.2178  0.4117
 4806SOL    HW116018   6.021   6.087   6.460 -0.2948 -0.3885  1.8815
 4806SOL    HW216019   6.064   5.930   6.466  1.0895 -0.0830  0.5733
 4807SOL     OW16020   0.649   6.509   2.682  0.1083 -0.2122 -0.1852
 4807SOL    HW116021   0.604   6.499   2.770  0.0359  1.8660  0.0566
 4807SOL    HW216022   0.743   6.540   2.696  0.3731 -0.7024 -0.8194
 4808SOL     OW16023   6.734   0.055   4.055 -0.2063  0.5441  0.1391
 4808SOL    HW116024   6.727   0.137   4.111 -0.3271 -0.4889  1.7134
 4808SOL    HW216025   6.771   0.078   3.965 -0.0936  2.2770  0.6077
 4809SOL     OW16026   2.368   1.645   2.039  0.0446  0.4374 -0.0162
 4809SOL    HW116027   2.448   1.586   2.051  0.1362  0.5559 -0.0416
 4809SOL    HW216028   2.288   1.601   2.078 -0.1379 -0.2759 -1.1375
 4810SOL     OW16029   3.407   4.021   6.197  0.7384 -0.5492 -0.0540
 4810SOL    HW116030   3.370   3.933   6.167  0.4306 -0.7353  0.8580
 4810SOL    HW216031   3.331   4.084   6.216  0.9575 -0.0672 -0.7287
 4811SOL     OW16032   6.242   3.385   0.131  0.0549 -0.4109 -0.1145
 4811SOL    HW116033   6.325   3.337   0.159  0.5560  0.5612  0.0886
 4811SOL    HW216034   6.216   3.451   0.201 -0.7722 -0.5492 -0.2769
 4812SOL     OW16035   5.684   2.447   6.658  0.1021  0.8357  0.0843
 4812SOL    HW116036   5.623   2.441   6.737 -0.8850 -0.0524 -0.7183
 4812SOL    HW216037   5.716   2.542   6.648 -3.1600  1.9607 -0.9183
 4813SOL     OW16038   3.781   2.997   5.083 -0.0771 -0.3710  0.2133
 4813SOL    HW116039   3.695   3.003   5.034  1.1436  0.6543 -1.9525
 4813SOL    HW216040   3.841   2.931   5.038  0.8973  0.2089  0.6093
 4814SOL     OW16041   6.328   4.739   5.855 -0.1839 -0.0479  0.2415
 4814SOL    HW116042   6.378   4.794   5.788 -0.8956  0.6175  0.2499
 4814SOL    HW216043   6.293   4.797   5.928 -0.6220 -0.5642  0.4529
 4815SOL     OW16044   2.606   1.546   5.498  0.3589 -0.1720 -0.2135
 4815SOL    HW116045   2.542   1.596   5.556 -0.2895 -0.7543 -0.4003
 4815SOL    HW216046   2.670   1.495   5.555  1.9894  2.0053 -0.0127
 4816SOL     OW16047   3.015   5.240   0.464  0.4382 -0.4978  0.1706
 4816SOL    HW116048   2.925   5.271   0.496  0.7844 -0.9151  1.5906
 4816SOL    HW216049   3.007   5.206   0.370 -0.8683 -0.4822  0.2621
 4817SOL     OW16050   4.380   0.317   5.846 -0.4240  0.1724  0.0987
 4817SOL    HW116051   4.307   0.373   5.885 -0.6916 -0.3635  0.3863
 4817SOL    HW216052   4.426   0.266   5.919 -0.5864 -0.4371 -0.2174
 4818SOL     OW16053   3.820   0.963   1.774 -0.0755  0.3741  0.1674
 4818SOL    HW116054   3.856   1.044   1.821  1.4483 -0.9053  1.3158
 4818SOL    HW216055   3.845   0.967   1.677 -0.9237  1.7500 -0.0209
 4819SOL     OW16056   4.272   5.091   6.941 -0.5431  0.2311 -0.2454
 4819SOL    HW116057   4.287   4.995   6.918  2.4047  0.6400 -0.4068
 4819SOL    HW216058   4.279   5.146   6.858 -0.4271  0.7450  0.1009
 4820SOL     OW16059   4.899   0.391   1.136  0.0013 -0.0860  0.0540
 4820SOL    HW116060   4.913   0.432   1.226 -0.2462  0.2090 -0.0426
 4820SOL    HW216061   4.803   0.400   1.109 -0.6846 -2.9271  1.1329
 4821SOL     OW16062   2.356   1.684   1.009 -0.2170 -0.2921  0.1411
 4821SOL    HW116063   2.452   1.663   0.993  0.3811  2.6970 -0.9861
 4821SOL    HW216064   2.303   1.661   0.927  0.1618  0.9642 -0.4913
 4822SOL     OW16065   0.888   0.373   6.024  0.0556  0.1730 -0.6925
 4822SOL    HW116066   0.957   0.311   5.987 -0.0047 -0.1088 -0.3380
 4822SOL    HW216067   0.876   0.451   5.962  0.5069  0.0941 -0.8806
 4823SOL     OW16068   3.533   2.155   6.151  0.1508 -0.3243 -0.1128
 4823SOL    HW116069   3.598   2.097   6.200  0.4925 -1.4311 -1.7960
 4823SOL    HW216070   3.562   2.164   6.056 -1.5768  0.0811 -0.6364
 4824SOL     OW16071   0.447   0.815   1.779  0.5627  0.0165  0.0597
 4824SOL    HW116072   0.359   0.766   1.777  1.2047 -1.1702 -1.5006
 4824SOL    HW216073   0.476   0.826   1.874 -0.0045 -1.9778  0.5275
 4825SOL     OW16074   5.260   5.552   1.020 -0.4931  0.3329 -0.3585
 4825SOL    HW116075   5.315   5.524   0.941  0.6264  0.1141  0.4692
 4825SOL    HW216076   5.270   5.651   1.033 -0.2408  0.2869 -0.1833
 4826SOL     OW16077   0.891   0.904   0.541  0.4731  0.1918  0.2949
 4826SOL    HW116078   0.951   0.978   0.511 -1.2988  1.1107 -1.1695
 4826SOL    HW216079   0.946   0.827   0.574  2.3725  2.2942  2.3238
 4827SOL     OW16080   6.961   1.239   3.236 -0.1588 -0.0036  0.2085
 4827SOL    HW116081   6.985   1.151   3.195  0.1777  0.3344 -0.3412
 4827SOL    HW216082   6.873   1.232   3.283  0.8240 -1.1941  1.9645
 4828SOL     OW16083   6.985   5.224   4.207  0.1037  0.0238 -0.5692
 4828SOL    HW116084   7.009   5.146   4.149  0.4148 -0.9737  0.8158
 4828SOL    HW216085   6.886   5.227   4.220  0.0605  0.0707 -0.9050
 4829SOL     OW16086   6.459   1.270   2.017 -0.6536 -0.7877 -0.2262
 4829SOL    HW116087   6.456   1.363   2.052  1.7356 -1.1224  1.1217
 4829SOL    HW216088   6.407   1.210   2.078  0.9707 -0.8790  1.1444
 4830SOL     OW16089   6.485   2.972   0.537 -0.4659  0.3135  0.0121
 4830SOL    HW116090   6.479   3.039   0.463 -0.6992  0.8805  0.5339
 4830SOL    HW216091   6.581   2.957   0.561 -0.4106  0.4738 -0.1030
 4831SOL     OW16092   2.919   0.584   4.256  0.1121 -0.3179 -0.1114
 4831SOL    HW116093   2.984   0.561   4.183 -0.1067  0.9760 -0.7542
 4831SOL    HW216094   2.970   0.613   4.337  0.3725  0.4149 -0.5183
 4832SOL     OW16095   2.078   5.124   6.778  0.6206 -0.4260 -0.2038
 4832SOL    HW116096   2.081   5.105   6.680  0.6988 -1.1662 -0.0641
 4832SOL    HW216097   2.169   5.113   6.817  0.9586  1.5281 -0.3295
 4833SOL     OW16098   5.066   5.121   3.022 -0.1648  0.0555 -0.3866
 4833SOL    HW116099   5.018   5.146   2.938  0.9244  0.0100 -1.0450
 4833SOL    HW216100   5.157   5.163   3.022 -0.2024  0.1742  0.8491
 4834SOL     OW16101   5.778   2.192   4.364  0.5585  0.7601  0.0022
 4834SOL    HW116102   5.752   2.147   4.279 -1.4189  3.5427 -1.0147
 4834SOL    HW216103   5.714   2.165   4.436  0.5529  0.5105 -0.0939
 4835SOL     OW16104   2.448   1.725   5.631  0.0530  0.0301 -0.5866
 4835SOL    HW116105   2.449   1.769   5.541  1.2328  0.1159 -0.5527
 4835SOL    HW216106   2.395   1.781   5.695  0.4007  0.7233 -0.8896
 4836SOL     OW16107   3.935   1.227   4.083 -0.1727 -0.3275 -0.2419
 4836SOL    HW116108   4.024   1.224   4.128 -1.0766 -0.9237  1.5813
 4836SOL    HW216109   3.949   1.224   3.983  1.8815  1.3165 -0.0844
 4837SOL     OW16110   3.519   6.461   5.016 -0.7980 -0.0024 -0.2194
 4837SOL    HW116111   3.489   6.417   4.931  0.1175 -1.1433  0.0199
 4837SOL    HW216112   3.486   6.555   5.019 -1.0579 -0.0305 -1.7156
 4838SOL     OW16113   2.898   5.338   6.616 -0.2307 -0.4430 -0.1683
 4838SOL    HW116114   2.881   5.243   6.643 -0.3700 -1.0902 -2.3920
 4838SOL    HW216115   2.958   5.340   6.536 -0.8128  1.3329 -0.5977
 4839SOL     OW16116   6.852   2.626   3.019 -0.0201  0.5232 -0.1378
 4839SOL    HW116117   6.771   2.586   2.977  0.3843 -1.2107  0.6525
 4839SOL    HW216118   6.934   2.584   2.980  0.4037  0.0392  1.2193
 4840SOL     OW16119   0.430   4.140   5.049 -0.1587  0.7440 -0.1470
 4840SOL    HW116120   0.452   4.090   5.132 -1.2272  1.4969  0.6124
 4840SOL    HW216121   0.447   4.081   4.969  0.4395 -0.1363  0.6103
 4841SOL     OW16122   0.068   4.393   2.155 -0.1602  0.8336 -0.1364
 4841SOL    HW116123   0.095   4.314   2.099 -0.0685  0.5962  0.2423
 4841SOL    HW216124   0.135   4.406   2.228  0.1579  1.6350 -0.5535
 4842SOL     OW16125   2.137   2.162   4.534  0.0703 -0.1349 -0.5820
 4842SOL    HW116126   2.134   2.089   4.465 -0.8645  0.0671 -0.7638
 4842SOL    HW216127   2.062   2.150   4.598  0.3411  0.2667 -0.1874
 4843SOL     OW16128   2.998   5.320   5.346 -0.5031  0.0045 -0.2478
 4843SOL    HW116129   3.014   5.416   5.323  2.3230 -0.5051 -0.7212
 4843SOL    HW216130   2.920   5.285   5.294  0.3246  1.2439 -2.4151
 4844SOL     OW16131   1.667   5.892   4.087  0.2043  1.0196 -0.4557
 4844SOL    HW116132   1.598   5.825   4.059 -0.0329  1.0063  0.1393
 4844SOL    HW216133   1.684   5.956   4.013 -0.9683  1.4535 -0.3659
 4845SOL     OW16134   6.240   3.597   2.749 -0.6008  0.5469 -0.6313
 4845SOL    HW116135   6.264   3.692   2.730  0.7374  0.3316 -0.1522
 4845SOL    HW216136   6.288   3.537   2.685  0.3491  0.0822  0.4829
 4846SOL     OW16137   1.970   1.183   0.900  0.1958 -0.0185 -0.2885
 4846SOL    HW116138   2.056   1.234   0.895  0.9980 -1.3562 -0.5551
 4846SOL    HW216139   1.926   1.182   0.811 -0.8933  1.9592  0.1872
 4847SOL     OW16140   5.646   4.175   4.248  0.1197 -0.2975  0.5782
 4847SOL    HW116141   5.623   4.088   4.206  1.7642 -0.6843  0.4079
 4847SOL    HW216142   5.745   4.183   4.255  0.0181  1.6718  0.3540
 4848SOL     OW16143   1.113   6.544   5.606  0.3198 -0.2700 -0.6479
 4848SOL    HW116144   1.098   6.532   5.508  2.6263 -1.6641 -0.8984
 4848SOL    HW216145   1.042   6.496   5.657 -0.4607 -0.1794 -1.6202
 4849SOL     OW16146   6.645   6.939   3.051 -0.1541 -0.5536 -0.0049
 4849SOL    HW116147   6.628   6.841   3.062 -0.7413 -0.5506 -0.7704
 4849SOL    HW216148   6.697   6.954   2.967 -0.1204 -0.2020  0.0769
 4850SOL     OW16149   4.917   0.742   4.189 -0.1474 -0.1919  0.2931
 4850SOL    HW116150   4.866   0.658   4.169 -0.5044  0.0720  0.0749
 4850SOL    HW216151   4.877   0.818   4.137  0.2661  0.0831  0.3736
 4851SOL     OW16152   0.008   1.027   5.649 -0.3141 -0.3849  0.0874
 4851SOL    HW116153   0.067   0.975   5.710  2.3131  1.2442 -0.8706
 4851SOL    HW216154   0.010   0.985   5.558  1.5106  1.0031 -0.5899
 4852SOL     OW16155   1.651   1.534   2.873 -0.1367 -0.4881  0.3415
 4852SOL    HW116156   1.663   1.571   2.781  1.0390 -1.7913 -0.0654
 4852SOL    HW216157   1.668   1.606   2.941  0.6594  0.0808 -0.4397
 4853SOL     OW16158   2.485   6.902   2.926  0.3681  0.8766 -0.2085
 4853SOL    HW116159   2.507   6.810   2.895  1.9596  0.9567  0.5946
 4853SOL    HW216160   2.466   6.960   2.847 -0.6298 -0.1023 -0.7248
 4854SOL     OW16161   0.320   1.123   5.533  0.2688  0.3862  0.5972
 4854SOL    HW116162   0.256   1.059   5.492  1.8573 -1.2874  0.6168
 4854SOL    HW216163   0.412   1.083   5.535  1.5433  3.0163 -0.2281
 4855SOL     OW16164   4.184   5.716   4.830  0.2430  0.1569  0.4490
 4855SOL    HW116165   4.133   5.775   4.767 -0.0895  1.5406  1.9374
 4855SOL    HW216166   4.136   5.711   4.917  2.2992  0.9821  1.6969
 4856SOL     OW16167   4.864   0.924   3.440  0.6337  0.7379  0.3026
 4856SOL    HW116168   4.772   0.885   3.438  0.3139  1.3429  1.7040
 4856SOL    HW216169   4.920   0.882   3.369 -0.6482  0.1805 -0.4085
 4857SOL     OW16170   5.793   0.530   5.302 -0.2213  0.6658  0.3861
 4857SOL    HW116171   5.699   0.508   5.331 -0.9599  1.7864 -1.0641
 4857SOL    HW216172   5.790   0.601   5.232  1.7966  1.6192  1.1995
 4858SOL     OW16173   4.147   0.913   4.015  0.3087 -0.4168 -0.5543
 4858SOL    HW116174   4.126   0.815   4.016  0.2680 -0.4125  0.1460
 4858SOL    HW216175   4.178   0.940   4.106 -2.6904  0.8460  0.2106
 4859SOL     OW16176   6.471   5.157   3.748  0.2934  0.6537  0.2479
 4859SOL    HW116177   6.467   5.084   3.680 -0.8541  2.3786 -1.6253
 4859SOL    HW216178   6.521   5.124   3.829 -1.9986 -2.9255  0.4484
 4860SOL     OW16179   1.738   5.434   3.650  0.0405  0.2082  0.2992
 4860SOL    HW116180   1.773   5.353   3.603  1.0280  0.0781  1.2294
 4860SOL    HW216181   1.745   5.421   3.748 -2.6193  0.2051  0.5463
 4861SOL     OW16182   2.896   1.423   4.642  0.8263  0.4347 -0.7680
 4861SOL    HW116183   2.812   1.370   4.646 -0.0909  1.8204 -0.9232
 4861SOL    HW216184   2.961   1.390   4.711 -2.1883  3.2266  3.9718
 4862SOL     OW16185   3.760   3.719   6.607  0.8298  0.2025 -0.0540
 4862SOL    HW116186   3.844   3.773   6.603  0.2888  1.6080  3.5767
 4862SOL    HW216187   3.685   3.772   6.569  1.0675  0.1067 -0.6755
 4863SOL     OW16188   5.437   2.063   5.245 -0.5621 -0.1552  0.4945
 4863SOL    HW116189   5.412   2.032   5.337 -0.0384 -2.0795  0.0549
 4863SOL    HW216190   5.355   2.086   5.193 -0.9970 -0.7646  0.9005
 4864SOL     OW16191   2.903   3.628   0.018  0.3207 -0.4546 -0.5216
 4864SOL    HW116192   2.817   3.599  -0.024 -1.6797  0.5764  2.5431
 4864SOL    HW216193   2.926   3.720  -0.013  0.1283 -0.5815 -1.0567
 4865SOL     OW16194   5.109   4.967   1.099 -0.2521  0.3244  0.2681
 4865SOL    HW116195   5.034   4.996   1.041 -0.6673  0.8849  1.0607
 4865SOL    HW216196   5.074   4.906   1.171  0.2917 -0.5668 -0.2098
 4866SOL     OW16197   4.693   6.964   0.005  0.0214 -0.4525  0.0006
 4866SOL    HW116198   4.614   6.909   0.031  0.7313 -0.5947  2.0994
 4866SOL    HW216199   4.741   6.920  -0.071 -1.9176 -0.3102 -1.3612
 4867SOL     OW16200   1.692   0.328   2.131 -0.4963 -0.4985  0.1553
 4867SOL    HW116201   1.778   0.284   2.102 -0.6871 -0.5762 -0.3007
 4867SOL    HW216202   1.700   0.427   2.120 -0.1279 -0.4254  1.0176
 4868SOL     OW16203   0.099   2.722   0.659  0.2225 -0.5458  0.7238
 4868SOL    HW116204   0.158   2.741   0.581 -1.2742 -0.3759 -0.4230
 4868SOL    HW216205   0.155   2.701   0.739  1.8120 -0.0502 -0.2065
 4869SOL     OW16206   5.725   1.533   6.066  0.2217 -0.2575 -0.0933
 4869SOL    HW116207   5.737   1.472   5.988 -2.1008  0.5366 -1.1511
 4869SOL    HW216208   5.684   1.482   6.142  0.8226 -0.6075  0.0074
 4870SOL     OW16209   1.676   1.885   1.485  0.5306  0.0933  0.2523
 4870SOL    HW116210   1.719   1.800   1.514 -0.7511 -0.2414  1.2739
 4870SOL    HW216211   1.720   1.962   1.530  2.4472  0.1393 -1.5297
 4871SOL     OW16212   5.262   5.431   4.089 -0.3084  0.1310 -0.3909
 4871SOL    HW116213   5.197   5.432   4.013  0.0662  0.4879 -0.7102
 4871SOL    HW216214   5.318   5.514   4.086 -0.4505  0.2603  0.4155
 4872SOL     OW16215   5.079   2.868   5.454  0.3486  0.1691  0.4615
 4872SOL    HW116216   4.996   2.918   5.432  0.5528  0.5013  0.4467
 4872SOL    HW216217   5.060   2.769   5.453  0.2687  0.1746 -0.8834
 4873SOL     OW16218   5.386   6.712   1.386 -0.4335  0.4837 -0.4502
 4873SOL    HW116219   5.354   6.659   1.308 -2.2041  2.3828 -1.1014
 4873SOL    HW216220   5.469   6.763   1.361  0.4469 -0.7915 -0.2552
 4874SOL     OW16221   0.967   3.890   5.454  0.3990 -0.0397 -0.1539
 4874SOL    HW116222   0.946   3.957   5.383 -0.4725  0.7813  0.8407
 4874SOL    HW216223   1.029   3.821   5.418  0.9162  1.0188 -1.3567
 4875SOL     OW16224   2.191   6.761   6.473 -0.2676  0.3619 -0.7238
 4875SOL    HW116225   2.192   6.860   6.481 -0.9442  0.3390 -0.2916
 4875SOL    HW216226   2.114   6.724   6.526  1.4574 -0.5849  1.2673
 4876SOL     OW16227   0.131   4.531   4.887 -0.4131  0.1030 -0.2844
 4876SOL    HW116228   0.120   4.609   4.824 -3.0241 -0.5427 -0.7429
 4876SOL    HW216229   0.088   4.450   4.847  2.0722 -1.5862  0.2795
 4877SOL     OW16230   1.163   5.488   1.895  0.5190  0.1638 -0.1220
 4877SOL    HW116231   1.252   5.483   1.850  0.5598  0.0053 -0.0230
 4877SOL    HW216232   1.146   5.582   1.925  1.1788 -0.0504  0.9411
 4878SOL     OW16233   3.961   0.062   2.376  0.0586  0.1462 -0.4329
 4878SOL    HW116234   4.059   0.043   2.380 -0.4920 -3.1405  1.8872
 4878SOL    HW216235   3.933   0.112   2.458 -0.1665  1.5237 -1.3291
 4879SOL     OW16236   6.002   3.474   2.455 -0.6018 -0.1125 -0.4336
 4879SOL    HW116237   5.976   3.452   2.549 -1.0478 -1.6801 -0.9017
 4879SOL    HW216238   5.922   3.511   2.407 -0.8944 -1.1012 -0.7222
 4880SOL     OW16239   3.652   0.149   2.620  0.1348  0.5314 -0.0858
 4880SOL    HW116240   3.700   0.068   2.655 -1.8294  0.2615  2.3541
 4880SOL    HW216241   3.666   0.226   2.682  0.9677  1.7564 -1.7223
 4881SOL     OW16242   0.869   4.625   2.581  0.5133 -0.2275 -0.2276
 4881SOL    HW116243   0.855   4.550   2.644  0.1363 -0.1703 -0.2417
 4881SOL    HW216244   0.833   4.601   2.491  0.6237 -0.1284 -0.2997
 4882SOL     OW16245   6.631   2.470   2.944 -0.0472  0.2723  0.1627
 4882SOL    HW116246   6.667   2.437   3.031 -0.1773 -0.3178  0.0016
 4882SOL    HW216247   6.531   2.477   2.950  0.0071  0.9846  0.3061
 4883SOL     OW16248   5.033   5.931   1.572  0.0565  0.0202  0.2216
 4883SOL    HW116249   4.937   5.920   1.546 -0.9949  3.9640  1.6439
 4883SOL    HW216250   5.090   5.938   1.490 -1.4647  1.1503 -0.7885
 4884SOL     OW16251   6.405   5.919   2.881 -0.0724 -0.1187 -0.0650
 4884SOL    HW116252   6.395   5.844   2.946 -1.5937 -1.0759 -1.3437
 4884SOL    HW216253   6.383   6.006   2.926 -1.5328 -0.8063  0.6032
 4885SOL     OW16254   2.249   1.046   4.452 -0.0423  0.3725 -0.4869
 4885SOL    HW116255   2.160   1.021   4.490 -1.1888  3.3769 -0.8827
 4885SOL    HW216256   2.321   1.014   4.513 -1.3805 -1.5860  0.1821
 4886SOL     OW16257   0.270   5.041   3.297 -0.4171 -0.2342 -0.5762
 4886SOL    HW116258   0.238   5.039   3.202  2.1908  1.3834 -1.5921
 4886SOL    HW216259   0.307   4.951   3.321 -1.8970 -0.9169 -0.7467
 4887SOL     OW16260   0.700   5.608   2.990 -0.7178 -0.0860  0.5665
 4887SOL    HW116261   0.778   5.572   2.939 -1.0535 -1.6457  1.1021
 4887SOL    HW216262   0.650   5.533   3.032 -0.2095  1.1041  3.6022
 4888SOL     OW16263   4.909   2.831   1.008  0.0458  0.2771  0.2465
 4888SOL    HW116264   4.965   2.812   1.089 -0.0864  0.4675  0.3854
 4888SOL    HW216265   4.817   2.858   1.038 -0.3096 -0.6293  0.0118
 4889SOL     OW16266   2.815   1.161   5.379  0.2485  0.3803  0.4335
 4889SOL    HW116267   2.837   1.224   5.306  0.4582 -0.1895 -0.0035
 4889SOL    HW216268   2.716   1.161   5.395 -0.0180 -0.7319 -1.0199
 4890SOL     OW16269   1.544   0.956   0.785 -0.0066  0.0847  0.5171
 4890SOL    HW116270   1.573   1.005   0.867  2.6329 -1.3803  0.5810
 4890SOL    HW216271   1.603   0.876   0.771 -2.0745 -1.2503 -1.3514
 4891SOL     OW16272   2.805   2.227   2.946 -0.4978 -0.8966  0.3940
 4891SOL    HW116273   2.730   2.171   2.982 -0.3797 -0.3010  1.5958
 4891SOL    HW216274   2.777   2.268   2.859 -0.5845 -2.8095 -0.5385
 4892SOL     OW16275   2.247   3.725   5.299  0.2838 -0.1633 -0.1939
 4892SOL    HW116276   2.341   3.745   5.326 -0.0468 -0.5065  1.2676
 4892SOL    HW216277   2.247   3.671   5.214  1.3400  0.9266 -0.9205
 4893SOL     OW16278   6.064   2.865   5.264  0.1596 -0.2069 -0.2783
 4893SOL    HW116279   5.988   2.899   5.209  0.6653  0.8233 -0.3514
 4893SOL    HW216280   6.049   2.768   5.284  0.1796 -0.7616 -2.6025
 4894SOL     OW16281   1.079   3.045   2.829 -0.4967 -0.2426 -0.5679
 4894SOL    HW116282   1.175   3.035   2.858 -0.1171 -0.3236 -1.7888
 4894SOL    HW216283   1.031   3.106   2.892  0.9259  1.5429 -1.1228
 4895SOL     OW16284   3.161   4.687   4.977  0.0053 -0.2278  0.1097
 4895SOL    HW116285   3.105   4.612   4.943  1.4623 -1.3248 -0.0083
 4895SOL    HW216286   3.217   4.654   5.053  0.4203  0.8430  0.2826
 4896SOL     OW16287   6.885   6.736   1.428 -0.3029  0.9007  0.3406
 4896SOL    HW116288   6.824   6.716   1.351 -0.2836  4.0728 -0.6051
 4896SOL    HW216289   6.980   6.726   1.399 -0.2750  2.8626 -0.3570
 4897SOL     OW16290   0.657   5.262   4.893 -0.1774  0.6343  0.1883
 4897SOL    HW116291   0.596   5.208   4.951 -0.0450  0.0050 -0.2497
 4897SOL    HW216292   0.608   5.343   4.858 -0.7556  0.1522 -0.1326
 4898SOL     OW16293   2.022   1.317   6.226  0.2513  0.0888 -0.3306
 4898SOL    HW116294   2.093   1.286   6.290 -0.9801  0.2798  1.1862
 4898SOL    HW216295   2.018   1.417   6.228 -0.5033  0.0557  0.1121
 4899SOL     OW16296   4.202   0.125   0.120  0.0245 -0.0929 -0.2409
 4899SOL    HW116297   4.136   0.063   0.163 -0.6566  1.0085  0.3467
 4899SOL    HW216298   4.266   0.158   0.189  0.6142 -0.4254 -0.6261
 4900SOL     OW16299   0.364   3.903   2.651 -0.6119  0.2026  0.3438
 4900SOL    HW116300   0.367   3.868   2.745  1.7678 -0.1924  0.1909
 4900SOL    HW216301   0.327   3.832   2.591  1.4109 -1.0573  0.4808
 4901SOL     OW16302   5.118   5.573   3.116 -0.0631 -0.9295  0.3543
 4901SOL    HW116303   5.080   5.558   3.025 -1.0063 -0.3612  0.6371
 4901SOL    HW216304   5.080   5.657   3.155  0.0017 -1.3789  1.4395
 4902SOL     OW16305   2.431   1.134   2.742 -0.2287 -0.4742  0.0204
 4902SOL    HW116306   2.436   1.211   2.806  1.6535 -0.6232  0.1235
 4902SOL    HW216307   2.521   1.120   2.701 -0.3248 -3.0558  0.5272
 4903SOL     OW16308   3.373   3.025   5.480  0.0546  0.3931 -0.3750
 4903SOL    HW116309   3.387   3.088   5.403  0.2978  0.5981 -0.1625
 4903SOL    HW216310   3.406   3.067   5.564 -0.3078  0.2098 -0.1380
 4904SOL     OW16311   1.536   5.116   6.364  0.2597  0.5287  0.5627
 4904SOL    HW116312   1.604   5.190   6.361 -1.9939  2.7313  0.1169
 4904SOL    HW216313   1.475   5.129   6.442 -1.2388  0.1681 -0.4985
 4905SOL     OW16314   5.881   1.752   3.331 -0.0382  0.0051  0.4253
 4905SOL    HW116315   5.964   1.771   3.278  0.4848 -0.7218  0.9742
 4905SOL    HW216316   5.906   1.719   3.422 -0.9333 -0.3688  0.5441
 4906SOL     OW16317   3.214   2.249   4.216 -0.2877 -0.3141 -0.1199
 4906SOL    HW116318   3.200   2.300   4.301 -0.6710  0.5671 -0.6991
 4906SOL    HW216319   3.126   2.229   4.173 -0.0693 -0.0495 -0.7090
 4907SOL     OW16320   6.597   2.290   1.176 -0.1468  0.0161  0.0122
 4907SOL    HW116321   6.604   2.201   1.131 -1.5026  0.6065 -1.4719
 4907SOL    HW216322   6.522   2.288   1.242  1.2413 -0.5621  1.6533
 4908SOL     OW16323   5.761   5.650   6.389  0.1327  0.1989 -0.2373
 4908SOL    HW116324   5.711   5.662   6.474 -1.3678 -0.0755 -1.0379
 4908SOL    HW216325   5.763   5.553   6.364 -0.7981  0.4175 -1.2640
 4909SOL     OW16326   1.976   0.635   2.264 -0.1004  0.0688 -0.1930
 4909SOL    HW116327   1.900   0.649   2.328  0.2190 -1.1481  0.4882
 4909SOL    HW216328   2.063   0.647   2.312  0.1406 -0.4317 -0.4938
 4910SOL     OW16329   6.197   0.450   0.632 -0.5315 -0.6206  0.5542
 4910SOL    HW116330   6.112   0.451   0.685 -0.8375  1.5964  0.1119
 4910SOL    HW216331   6.254   0.527   0.659  0.0628 -0.4324 -1.1553
 4911SOL     OW16332   3.261   6.203   1.366 -0.5002 -0.1717  0.6838
 4911SOL    HW116333   3.262   6.140   1.444 -0.0707  0.1127  0.9174
 4911SOL    HW216334   3.167   6.230   1.346 -0.4715  1.7669  2.7831
 4912SOL     OW16335   2.685   3.748   4.063  0.1581 -0.0359 -0.7132
 4912SOL    HW116336   2.690   3.648   4.073 -0.3390  0.0295  0.3370
 4912SOL    HW216337   2.606   3.782   4.114 -1.2610  0.6237 -3.1723
 4913SOL     OW16338   4.956   3.665   4.969 -0.0552 -0.5368  0.5230
 4913SOL    HW116339   4.875   3.713   5.002 -0.0612 -1.5447  2.0565
 4913SOL    HW216340   5.023   3.732   4.937 -0.8898  0.3740  0.6362
 4914SOL     OW16341   1.855   6.178   4.838  0.2007  0.1205 -0.0530
 4914SOL    HW116342   1.867   6.079   4.841  0.0115  0.1217  2.1163
 4914SOL    HW216343   1.760   6.200   4.816 -0.0818 -0.2233  0.7885
 4915SOL     OW16344   2.461   2.475   1.794  0.0568  0.6715 -0.0746
 4915SOL    HW116345   2.380   2.534   1.793  0.0580  0.6719 -0.1442
 4915SOL    HW216346   2.440   2.391   1.844 -0.2036  0.3646 -0.6910
 4916SOL     OW16347   5.882   0.518   6.464 -0.1011 -0.0971 -0.1505
 4916SOL    HW116348   5.979   0.503   6.483 -0.3874 -0.7455  0.8262
 4916SOL    HW216349   5.853   0.605   6.504 -0.0610 -0.1769  0.0515
 4917SOL     OW16350   0.614   1.231   3.434  0.0419 -0.1339  0.8963
 4917SOL    HW116351   0.525   1.273   3.448  0.1482  0.7006 -0.6703
 4917SOL    HW216352   0.603   1.147   3.382  0.2863  1.0437 -1.1649
 4918SOL     OW16353   1.714   3.854   1.405  0.6550 -0.0309  0.0686
 4918SOL    HW116354   1.630   3.813   1.441  0.3352 -1.1065 -1.7433
 4918SOL    HW216355   1.792   3.802   1.439  0.3247 -1.4223 -1.1635
 4919SOL     OW16356   3.548   1.746   6.294  0.1096 -0.4403  0.1362
 4919SOL    HW116357   3.495   1.717   6.374 -1.8965 -1.2274 -1.3779
 4919SOL    HW216358   3.491   1.740   6.212  2.1047  0.2434 -1.4026
 4920SOL     OW16359   4.866   1.641   6.824  0.1462 -0.2717 -0.2698
 4920SOL    HW116360   4.811   1.710   6.776  0.6794  1.2655  1.2477
 4920SOL    HW216361   4.815   1.555   6.827 -0.9100  0.2724 -1.4532
 4921SOL     OW16362   2.310   4.695   1.538  0.1455  0.0806 -0.1566
 4921SOL    HW116363   2.263   4.636   1.604 -1.5336 -1.9298 -2.8925
 4921SOL    HW216364   2.402   4.659   1.522  0.9089  1.1146  1.6417
 4922SOL     OW16365   1.183   6.218   1.741  1.0615 -0.3805 -0.2929
 4922SOL    HW116366   1.182   6.241   1.644  1.4390  0.3827 -0.1170
 4922SOL    HW216367   1.090   6.228   1.778  0.5541 -2.2805 -0.9292
 4923SOL     OW16368   4.228   4.130   6.423  0.7596 -0.5758  0.4877
 4923SOL    HW116369   4.133   4.163   6.430  0.7123 -0.5754 -0.0954
 4923SOL    HW216370   4.231   4.052   6.360  1.0582 -0.9488  0.9588
 4924SOL     OW16371   0.203   5.273   2.028 -0.0490  0.3225 -0.0793
 4924SOL    HW116372   0.133   5.213   1.990  0.0519  0.9518 -1.3240
 4924SOL    HW216373   0.219   5.350   1.965 -0.4673  1.8816  1.6232
 4925SOL     OW16374   4.830   3.720   2.163  0.0881  0.1935  0.1217
 4925SOL    HW116375   4.790   3.757   2.246  0.8206  1.2130  0.0428
 4925SOL    HW216376   4.758   3.702   2.096 -0.5036 -0.5997  0.9449
 4926SOL     OW16377   6.745   4.692   5.798 -0.5260  0.0727  0.8197
 4926SOL    HW116378   6.742   4.792   5.803 -0.4336  0.0798  0.7469
 4926SOL    HW216379   6.711   4.662   5.708 -0.4275  0.0452  0.7918
 4927SOL     OW16380   1.467   0.604   1.866  0.5330 -0.2484 -0.8210
 4927SOL    HW116381   1.556   0.558   1.868 -0.2317 -1.7978  1.6174
 4927SOL    HW216382   1.448   0.644   1.956 -0.6953  1.2592 -1.6950
 4928SOL     OW16383   5.301   0.291   2.383  0.5377 -0.3025  0.2772
 4928SOL    HW116384   5.218   0.346   2.379  1.1149  0.6099 -3.6292
 4928SOL    HW216385   5.380   0.350   2.368  1.6505 -1.5853  0.8968
 4929SOL     OW16386   0.760   0.609   3.290 -0.3706 -0.3715 -0.1313
 4929SOL    HW116387   0.711   0.660   3.219 -0.5815 -0.3753  0.0079
 4929SOL    HW216388   0.708   0.615   3.376 -0.3097 -0.6787 -0.0719
 4930SOL     OW16389   5.637   4.899   6.675  0.3982 -0.0100 -0.2661
 4930SOL    HW116390   5.621   4.950   6.759  0.7906  0.9920 -0.7905
 4930SOL    HW216391   5.728   4.921   6.639 -0.5070  1.1023 -1.9985
 4931SOL     OW16392   1.452   2.023   1.490 -0.0748 -0.2362 -0.0432
 4931SOL    HW116393   1.530   1.962   1.498  0.9771  1.1085  0.3463
 4931SOL    HW216394   1.398   2.020   1.574 -1.5653 -2.5675 -0.9960
 4932SOL     OW16395   6.706   3.824   4.598 -0.1665 -0.4885  0.0342
 4932SOL    HW116396   6.803   3.842   4.586  0.0731 -2.7585 -2.2194
 4932SOL    HW216397   6.692   3.764   4.677  0.3467 -0.7717 -0.0902
 4933SOL     OW16398   6.766   2.148   6.466 -0.1174 -0.0922  0.1951
 4933SOL    HW116399   6.731   2.194   6.385  2.3745 -1.2475 -1.6682
 4933SOL    HW216400   6.719   2.060   6.478 -0.7537  0.2513  0.2583
 4934SOL     OW16401   2.312   2.179   2.708 -0.3127  0.1377  0.2668
 4934SOL    HW116402   2.367   2.116   2.654  0.2727  0.7781  0.0999
 4934SOL    HW216403   2.352   2.271   2.704 -1.4409  0.6415  0.0707
 4935SOL     OW16404   3.758   3.628   6.317 -0.3103  0.0856 -0.2091
 4935SOL    HW116405   3.732   3.698   6.384  0.6252 -0.7694  1.1116
 4935SOL    HW216406   3.723   3.539   6.348 -1.0391 -0.1314 -1.5949
 4936SOL     OW16407   5.108   5.488   5.218 -0.4119  0.1590  0.5517
 4936SOL    HW116408   5.012   5.497   5.242 -0.4303  0.0500  0.5227
 4936SOL    HW216409   5.164   5.540   5.283 -0.6653  2.9098 -1.2708
 4937SOL     OW16410   5.202   2.940   3.737 -0.2636 -0.2981  0.2735
 4937SOL    HW116411   5.209   2.888   3.653  2.4249  0.7305 -0.2556
 4937SOL    HW216412   5.169   3.032   3.717  1.3355  0.2743  0.1204
 4938SOL     OW16413   1.474   1.477   3.747 -0.4310  0.1669 -0.4823
 4938SOL    HW116414   1.495   1.445   3.840 -0.4874 -0.9447 -0.8305
 4938SOL    HW216415   1.386   1.524   3.747 -1.6235 -1.9585 -0.3787
 4939SOL     OW16416   1.190   3.384   4.990  0.6889 -0.0910  0.5662
 4939SOL    HW116417   1.158   3.363   5.082  0.0491 -0.0991  0.3470
 4939SOL    HW216418   1.135   3.459   4.952  1.8639  0.8871  0.7186
 4940SOL     OW16419   5.760   6.309   2.853 -0.4523  0.0943  0.7546
 4940SOL    HW116420   5.673   6.295   2.900 -0.4585 -1.6178  0.3045
 4940SOL    HW216421   5.810   6.222   2.848 -0.8052 -0.0934 -3.0497
 4941SOL     OW16422   5.257   5.950   4.298  0.8385 -0.0245 -0.3294
 4941SOL    HW116423   5.238   5.896   4.380  0.3205  0.7818  0.0903
 4941SOL    HW216424   5.356   5.958   4.286  0.9418 -1.4110 -0.6487
 4942SOL     OW16425   2.190   4.999   0.698 -0.2290  0.4600  0.1909
 4942SOL    HW116426   2.228   4.987   0.606  2.1774 -0.6673  1.2309
 4942SOL    HW216427   2.237   5.074   0.744  0.2091 -0.4382  1.2449
 4943SOL     OW16428   5.749   2.333   0.770  0.5356 -0.1359 -0.8700
 4943SOL    HW116429   5.670   2.394   0.766 -0.9884 -2.0512 -1.9538
 4943SOL    HW216430   5.782   2.326   0.864 -1.5599 -0.4320 -0.1112
 4944SOL     OW16431   6.799   1.013   6.546  0.9130  0.1832 -0.7896
 4944SOL    HW116432   6.829   0.940   6.485  0.9110  1.5241 -2.4726
 4944SOL    HW216433   6.873   1.037   6.608  0.7338 -1.5800  0.1622
 4945SOL     OW16434   5.460   1.053   0.393  0.2443  0.3210  0.5217
 4945SOL    HW116435   5.466   1.039   0.492 -1.3104 -1.1569  0.4509
 4945SOL    HW216436   5.429   1.146   0.375  3.4005  1.6638  1.2747
 4946SOL     OW16437   0.242   2.126   2.569 -0.0207 -0.4050 -0.3254
 4946SOL    HW116438   0.322   2.140   2.511  0.2622 -0.6344  0.0031
 4946SOL    HW216439   0.262   2.055   2.637  0.1934  0.8732  1.0175
 4947SOL     OW16440   2.067   0.090   6.328 -0.4439 -0.0866 -0.2364
 4947SOL    HW116441   2.164   0.081   6.351 -0.7603 -1.0340  0.7833
 4947SOL    HW216442   2.034   0.180   6.358 -0.2403 -0.3406  0.7902
 4948SOL     OW16443   5.173   6.784   2.268  0.3041  0.4111 -0.2256
 4948SOL    HW116444   5.112   6.862   2.256  1.0926  0.8495 -1.5413
 4948SOL    HW216445   5.119   6.700   2.268 -0.5080  0.9067  0.7822
 4949SOL     OW16446   2.848   6.079   0.654  0.0734 -0.5851  0.0656
 4949SOL    HW116447   2.911   6.148   0.690 -0.8811  0.3370 -0.0054
 4949SOL    HW216448   2.793   6.042   0.729 -1.6969  1.1092 -0.3549
 4950SOL     OW16449   2.209   5.549   3.666 -0.0390  0.3913  0.0809
 4950SOL    HW116450   2.223   5.496   3.582 -2.0471 -0.5182  0.2563
 4950SOL    HW216451   2.169   5.490   3.736 -2.5620  2.1123  0.2256
 4951SOL     OW16452   5.967   3.058   0.781  0.3446  0.3336 -0.3338
 4951SOL    HW116453   6.021   2.974   0.793  1.7443  0.7165 -2.9541
 4951SOL    HW216454   5.990   3.123   0.853  0.2580 -1.0183  0.9605
 4952SOL     OW16455   0.029   2.742   4.670  0.1080 -0.0667  0.6881
 4952SOL    HW116456  -0.007   2.827   4.634  0.5818 -1.6439 -4.2447
 4952SOL    HW216457   0.120   2.757   4.709  0.9565  1.5348 -1.6998
 4953SOL     OW16458   1.896   0.875   3.278  0.3129  0.6836 -0.2067
 4953SOL    HW116459   1.946   0.821   3.210 -1.0352 -0.2568 -0.4753
 4953SOL    HW216460   1.919   0.972   3.266  1.4778  0.3470 -0.8123
 4954SOL     OW16461   0.673   1.798   3.455  0.3767 -0.5414 -0.1115
 4954SOL    HW116462   0.578   1.768   3.464  0.0781  0.1498 -0.8109
 4954SOL    HW216463   0.698   1.853   3.535 -0.3595  0.6692 -0.6917
 4955SOL     OW16464   5.080   3.340   4.920 -0.3860 -0.4517 -0.1149
 4955SOL    HW116465   5.149   3.348   4.847 -0.3259 -0.8839 -0.1053
 4955SOL    HW216466   4.995   3.382   4.889  0.8862  3.5568  1.2266
 4956SOL     OW16467   3.424   0.337   1.044 -0.0079 -0.0108 -0.0745
 4956SOL    HW116468   3.433   0.432   1.013 -1.1304  0.5395  1.1985
 4956SOL    HW216469   3.487   0.279   0.991 -0.8771  1.0549 -2.4346
 4957SOL     OW16470   2.637   2.271   2.645  0.1177  0.0719 -0.1869
 4957SOL    HW116471   2.554   2.327   2.652  0.0180 -0.1602  0.6066
 4957SOL    HW216472   2.612   2.177   2.621  0.0547 -0.2071  0.8966
 4958SOL     OW16473   1.948   5.683   4.996 -0.2509  0.3164  0.1559
 4958SOL    HW116474   1.883   5.622   4.949  1.5455 -2.1092  0.6346
 4958SOL    HW216475   1.955   5.656   5.092  0.3412  1.5320  0.4665
 4959SOL     OW16476   3.925   4.770   2.829  0.7864  0.1431 -0.4963
 4959SOL    HW116477   3.973   4.798   2.746 -0.0875  0.5619 -0.8749
 4959SOL    HW216478   3.826   4.772   2.812  0.5973  0.3445  0.5936
 4960SOL     OW16479   3.632   6.463   0.421  0.0155  0.2697  0.8986
 4960SOL    HW116480   3.634   6.544   0.361 -0.4519 -0.1739  0.2757
 4960SOL    HW216481   3.576   6.483   0.501 -1.3489  0.0768  0.0159
 4961SOL     OW16482   2.799   5.101   1.077 -0.1557 -0.2094  0.1324
 4961SOL    HW116483   2.826   5.076   0.984  0.1583 -2.1598  0.7062
 4961SOL    HW216484   2.865   5.166   1.115  0.5217 -0.5172 -0.4951
 4962SOL     OW16485   5.291   3.253   4.492  0.0881  0.1049  0.1713
 4962SOL    HW116486   5.201   3.218   4.520  0.6462 -0.0762  1.8360
 4962SOL    HW216487   5.363   3.194   4.530  0.9418  0.6625 -0.5366
 4963SOL     OW16488   6.649   6.831   5.906 -0.2331 -0.0706  0.5917
 4963SOL    HW116489   6.696   6.898   5.848 -0.4233 -0.7547 -0.4010
 4963SOL    HW216490   6.550   6.839   5.893 -0.2351 -1.0414 -0.1603
 4964SOL     OW16491   4.192   4.005   5.989 -0.5148  0.2583 -0.3973
 4964SOL    HW116492   4.162   4.080   6.049 -1.9921 -0.7048  0.1114
 4964SOL    HW216493   4.265   4.038   5.929 -1.3642  2.2208 -0.4315
 4965SOL     OW16494   6.480   0.018   1.070 -0.3847 -0.7031  0.3437
 4965SOL    HW116495   6.393   0.018   1.019 -0.3172  1.3920  0.1657
 4965SOL    HW216496   6.551  -0.021   1.012 -0.6275  0.2359 -0.6177
 4966SOL     OW16497   0.009   6.154   1.955  0.2830 -0.2403 -0.3162
 4966SOL    HW116498  -0.013   6.215   2.032  0.2764  0.1111 -0.5929
 4966SOL    HW216499  -0.064   6.087   1.944 -0.2332  0.3584 -0.6643
 4967SOL     OW16500   5.687   0.660   4.679  0.7242  0.6901  0.2310
 4967SOL    HW116501   5.649   0.619   4.762  0.2836  1.4232  0.4040
 4967SOL    HW216502   5.749   0.735   4.703  0.9446  0.6141 -0.0898
 4968SOL     OW16503   6.990   2.847   2.740  0.2061 -0.7156  0.0867
 4968SOL    HW116504   7.006   2.749   2.755  0.5435 -0.3185  2.7484
 4968SOL    HW216505   7.077   2.896   2.749 -0.1187 -0.0660 -0.2750
 4969SOL     OW16506   6.182   6.113   4.138 -0.1792  0.4264 -0.0074
 4969SOL    HW116507   6.132   6.145   4.218 -1.6448  1.4108 -1.2543
 4969SOL    HW216508   6.267   6.165   4.129 -0.8114  1.5032  0.0085
 4970SOL     OW16509   0.765   5.650   6.921  0.0813  0.0238 -0.6258
 4970SOL    HW116510   0.841   5.697   6.876  0.8971 -0.8846 -0.2517
 4970SOL    HW216511   0.795   5.558   6.947 -1.1417 -0.3283 -0.4175
 4971SOL     OW16512   0.580   1.558   5.508 -0.6935  0.1082 -0.1797
 4971SOL    HW116513   0.505   1.492   5.512 -0.2055 -0.5376 -1.1800
 4971SOL    HW216514   0.637   1.549   5.590 -1.1138 -0.1162  0.0922
 4972SOL     OW16515   2.167   5.411   6.198  0.2386  0.0297 -0.6428
 4972SOL    HW116516   2.204   5.379   6.286  1.2313 -0.0289 -1.0702
 4972SOL    HW216517   2.213   5.364   6.123 -1.0117 -0.3405 -1.1975
 4973SOL     OW16518   3.274   4.606   2.563 -0.7188 -0.0610 -0.0815
 4973SOL    HW116519   3.229   4.640   2.646 -1.6993  0.1307 -0.6746
 4973SOL    HW216520   3.298   4.683   2.504 -2.0339 -0.2959 -0.9698
 4974SOL     OW16521   1.570   6.237   2.615 -0.1963  0.1155  0.3818
 4974SOL    HW116522   1.483   6.264   2.573  0.2623  0.1794 -0.5511
 4974SOL    HW216523   1.623   6.319   2.636  0.3064  0.0282 -0.5155
 4975SOL     OW16524   4.527   5.052   2.539  0.6806 -0.0710  0.3038
 4975SOL    HW116525   4.469   4.972   2.530 -0.2391  0.7447 -1.6620
 4975SOL    HW216526   4.538   5.076   2.635 -0.9608 -1.1712  0.7890
 4976SOL     OW16527   1.643   0.885   3.173  0.1607 -1.3047 -0.6874
 4976SOL    HW116528   1.615   0.978   3.151 -2.9363 -1.7353  0.8412
 4976SOL    HW216529   1.738   0.885   3.205  1.1104  0.8501 -3.1521
 4977SOL     OW16530   0.586   1.337   0.045  0.6876 -0.1272 -0.0088
 4977SOL    HW116531   0.495   1.312   0.076  0.6896 -0.0892  0.0281
 4977SOL    HW216532   0.652   1.267   0.074  0.9171  0.6167  1.3279
 4978SOL     OW16533   2.814   2.603   4.604 -0.6492  0.1202  0.4162
 4978SOL    HW116534   2.851   2.534   4.541 -0.5946 -2.2551  2.8655
 4978SOL    HW216535   2.889   2.652   4.648 -0.6865  1.6636 -1.1244
 4979SOL     OW16536   3.103   5.303   4.754 -0.3551 -0.1136 -0.4508
 4979SOL    HW116537   3.089   5.205   4.771  0.2754 -0.3318 -1.1568
 4979SOL    HW216538   3.195   5.329   4.783 -0.6149  0.3375 -0.0149
 4980SOL     OW16539   3.270   4.320   5.007  0.0533  0.4871 -0.2490
 4980SOL    HW116540   3.188   4.360   4.967  0.7499  1.0104 -1.1944
 4980SOL    HW216541   3.334   4.297   4.934  0.0736 -1.4774  0.3352
 4981SOL     OW16542   5.189   3.211   6.592 -0.9894 -0.0533 -0.2872
 4981SOL    HW116543   5.273   3.250   6.630 -1.7650  0.3595  1.0682
 4981SOL    HW216544   5.197   3.112   6.588 -0.9771 -0.1417  1.2558
 4982SOL     OW16545   5.554   3.568   6.050 -0.1598  0.2493  0.4173
 4982SOL    HW116546   5.586   3.565   6.145  0.6332  0.0525  0.1500
 4982SOL    HW216547   5.572   3.659   6.012  1.1120 -0.1915 -0.0749
 4983SOL     OW16548   5.676   5.322   1.466  0.0733  0.2222  0.0394
 4983SOL    HW116549   5.689   5.310   1.565  1.0939 -1.3875 -0.2556
 4983SOL    HW216550   5.621   5.405   1.450 -0.3036  0.4028  1.9449
 4984SOL     OW16551   3.249   5.143   0.607 -0.3467 -0.1722 -0.4185
 4984SOL    HW116552   3.231   5.186   0.695 -0.3083  0.3801 -0.6761
 4984SOL    HW216553   3.182   5.176   0.540 -0.5812 -0.8433 -0.5166
 4985SOL     OW16554   1.468   5.461   0.684 -0.9616 -0.0697 -0.6812
 4985SOL    HW116555   1.544   5.476   0.621 -0.0391 -1.3235  0.0863
 4985SOL    HW216556   1.503   5.422   0.770 -2.4032 -0.1241 -0.0921
 4986SOL     OW16557   6.432   5.353   3.377  0.3435  0.0659 -0.1028
 4986SOL    HW116558   6.344   5.369   3.422 -0.6626 -1.3412 -1.4316
 4986SOL    HW216559   6.462   5.437   3.332 -0.6125  0.4433 -0.0731
 4987SOL     OW16560   5.533   1.252   3.289 -0.2744 -0.3382  0.0004
 4987SOL    HW116561   5.604   1.269   3.356 -0.3052  2.1596 -0.5103
 4987SOL    HW216562   5.444   1.251   3.334 -0.2732  1.0872  0.0779
 4988SOL     OW16563   5.540   1.074   3.716  0.7297  0.1807  0.1254
 4988SOL    HW116564   5.509   0.979   3.718  2.4558 -0.4358 -0.4213
 4988SOL    HW216565   5.637   1.077   3.689  1.3521  1.9120  2.2431
 4989SOL     OW16566   0.867   4.036   3.059  0.1078  0.3152  0.0593
 4989SOL    HW116567   0.940   4.104   3.063  0.2672  0.1014  0.8742
 4989SOL    HW216568   0.782   4.076   3.093 -0.0745  0.4465 -0.5320
 4990SOL     OW16569   2.901   2.754   0.925 -0.1923 -0.2114 -0.0335
 4990SOL    HW116570   2.882   2.803   1.010  1.3605 -1.2320  0.9294
 4990SOL    HW216571   2.915   2.657   0.944  1.0111 -0.3212 -1.3378
 4991SOL     OW16572   4.412   3.232   5.690  0.2641  0.3386  0.1658
 4991SOL    HW116573   4.412   3.323   5.647  1.1200 -0.4899 -1.7226
 4991SOL    HW216574   4.448   3.165   5.625  0.5548 -1.2131  1.8490
 4992SOL     OW16575   4.767   4.695   6.121 -0.2796 -0.3238  0.3060
 4992SOL    HW116576   4.827   4.652   6.054 -1.0625  0.6339 -1.0576
 4992SOL    HW216577   4.686   4.638   6.134 -0.9178  0.2749 -0.8640
 4993SOL     OW16578   1.846   0.558   4.552 -0.5410 -0.1136 -0.1160
 4993SOL    HW116579   1.879   0.650   4.534 -0.0381 -0.3728 -0.5461
 4993SOL    HW216580   1.799   0.556   4.640 -1.2684  0.7293 -0.4716
 4994SOL     OW16581   2.108   6.432   6.178 -0.2509  0.1788 -0.7425
 4994SOL    HW116582   2.087   6.341   6.141  1.2368 -0.2191 -0.6873
 4994SOL    HW216583   2.207   6.441   6.188 -0.4950  0.7554  1.9074
 4995SOL     OW16584   0.297   1.404   6.190  0.1224  0.2480 -0.3225
 4995SOL    HW116585   0.203   1.372   6.203 -0.7698  2.3760 -1.0139
 4995SOL    HW216586   0.355   1.328   6.162 -1.2450 -1.2330  0.6887
 4996SOL     OW16587   1.923   6.969   5.107  0.1831 -0.4406  0.2775
 4996SOL    HW116588   1.987   6.992   5.180 -1.4036  1.3214  1.2009
 4996SOL    HW216589   1.882   6.880   5.126  0.7378 -0.5848  0.8341
 4997SOL     OW16590   5.347   3.842   1.826  0.3508 -0.0067 -0.1694
 4997SOL    HW116591   5.405   3.796   1.759  0.9526 -0.5849  0.7310
 4997SOL    HW216592   5.354   3.941   1.813 -0.7508 -0.1175 -1.9459
 4998SOL     OW16593   0.655   5.541   0.543  0.1812  0.0623 -0.2898
 4998SOL    HW116594   0.691   5.448   0.543 -0.0696 -0.0355  0.3831
 4998SOL    HW216595   0.724   5.604   0.580  0.1423  0.0689 -0.2304
 4999SOL     OW16596   5.252   2.257   6.529 -0.2597 -0.2433 -0.1871
 4999SOL    HW116597   5.340   2.301   6.510 -1.0573  1.3446 -0.3314
 4999SOL    HW216598   5.183   2.291   6.466 -1.2242 -0.6582  0.6188
 5000SOL     OW16599   1.182   0.505   3.175  0.2601  0.2251  0.0463
 5000SOL    HW116600   1.110   0.571   3.154  1.8597  1.4693 -1.9878
 5000SOL    HW216601   1.243   0.543   3.245  1.9391  1.6346 -2.0543
 5001SOL     OW16602   0.007   2.602   2.338  0.1728 -0.0776 -0.6669
 5001SOL    HW116603  -0.053   2.598   2.417  0.4220  1.2963 -0.3793
 5001SOL    HW216604   0.101   2.617   2.368  0.5021 -1.0245 -1.1684
 5002SOL     OW16605   4.767   6.144   3.076  0.0781 -0.3482  0.1356
 5002SOL    HW116606   4.753   6.058   3.026 -0.8700  0.2532 -0.6880
 5002SOL    HW216607   4.848   6.136   3.134 -0.2817 -1.9597  0.4587
 5003SOL     OW16608   2.397   1.632   2.864 -0.4370  0.6468  0.1534
 5003SOL    HW116609   2.479   1.689   2.867 -1.0711  1.5943  0.0067
 5003SOL    HW216610   2.321   1.682   2.905 -1.2954  0.3695 -1.0622
 5004SOL     OW16611   1.545   6.383   3.728 -0.1864  0.0891  0.1213
 5004SOL    HW116612   1.501   6.373   3.639 -1.5835 -0.0879  0.8087
 5004SOL    HW216613   1.495   6.330   3.797  0.2810  1.0065  1.2112
 5005SOL     OW16614   6.669   6.380   0.535  0.5428 -0.4191 -0.3294
 5005SOL    HW116615   6.724   6.352   0.456 -0.8978 -3.7537 -0.3520
 5005SOL    HW216616   6.727   6.383   0.617  1.1676 -2.1299 -0.6597
 5006SOL     OW16617   1.507   3.772   1.784  0.0089 -0.1104 -0.4591
 5006SOL    HW116618   1.408   3.765   1.800 -0.1767 -0.2316 -1.6007
 5006SOL    HW216619   1.537   3.866   1.803  0.0003 -0.4720  1.5318
 5007SOL     OW16620   6.275   2.364   4.212 -0.1768  0.0216  0.4984
 5007SOL    HW116621   6.333   2.305   4.156  0.8085 -0.2586  1.7652
 5007SOL    HW216622   6.292   2.345   4.309  0.3179  2.5065  0.9544
 5008SOL     OW16623   4.519   1.224   2.791 -0.3242 -0.4051 -0.2554
 5008SOL    HW116624   4.557   1.268   2.872 -1.6173 -1.0772  0.7447
 5008SOL    HW216625   4.579   1.241   2.713 -0.7864  3.2699 -0.0079
 5009SOL     OW16626   1.102   1.809   0.340  0.0391  0.0762  0.1713
 5009SOL    HW116627   1.095   1.902   0.377  0.7523 -0.3939  1.5588
 5009SOL    HW216628   1.044   1.748   0.394 -0.7705 -0.2321 -1.0059
 5010SOL     OW16629   3.168   2.693   6.519  0.5308 -0.3838 -0.1810
 5010SOL    HW116630   3.077   2.654   6.530  0.2149  0.2635 -0.4312
 5010SOL    HW216631   3.209   2.657   6.435  0.6098 -0.8692  0.0627
 5011SOL     OW16632   1.772   6.706   1.624  0.1221 -0.2927 -0.0466
 5011SOL    HW116633   1.797   6.683   1.718  0.2749  0.3678  0.0846
 5011SOL    HW216634   1.761   6.806   1.616  1.0632 -0.2446 -0.9463
 5012SOL     OW16635   1.543   4.312   2.322  0.3596 -0.6107 -0.2627
 5012SOL    HW116636   1.452   4.317   2.362 -0.2723 -0.8848 -1.5976
 5012SOL    HW216637   1.580   4.220   2.332  1.0517 -0.1816  1.4047
 5013SOL     OW16638   6.434   6.857   3.976 -0.0753  0.0168  0.8033
 5013SOL    HW116639   6.507   6.798   3.941  0.6434  1.0090  0.5933
 5013SOL    HW216640   6.378   6.890   3.901 -0.7692 -0.7656  0.9678
 5014SOL     OW16641   1.540   4.148   3.286 -0.2216 -0.0009  0.1151
 5014SOL    HW116642   1.603   4.209   3.333 -0.0472 -0.9138  1.0857
 5014SOL    HW216643   1.453   4.145   3.335  0.4244 -2.0397  1.2275
 5015SOL     OW16644   0.453   1.131   1.904  0.0059 -0.5718 -0.4541
 5015SOL    HW116645   0.520   1.199   1.875 -1.9755  0.9857 -1.6347
 5015SOL    HW216646   0.490   1.039   1.890  2.2685  0.2134  0.0034
 5016SOL     OW16647   4.993   2.960   6.095  0.3152 -0.2484  0.4114
 5016SOL    HW116648   4.913   2.903   6.117  1.5407 -1.9230  0.7477
 5016SOL    HW216649   5.044   2.978   6.179  0.2903  0.8444  0.2019
 5017SOL     OW16650   6.657   3.344   4.389  0.2080 -0.1273  0.6418
 5017SOL    HW116651   6.577   3.304   4.343  0.9976 -1.4464  0.3546
 5017SOL    HW216652   6.720   3.381   4.321  0.1552  0.3079  0.8277
 5018SOL     OW16653   6.238   1.030   1.193  0.5348  0.5086  0.2251
 5018SOL    HW116654   6.318   1.089   1.185  1.3887 -0.4291  1.4782
 5018SOL    HW216655   6.266   0.935   1.185 -0.6861  0.2073 -0.7860
 5019SOL     OW16656   4.490   0.368   4.264  0.5549  0.3251 -0.2615
 5019SOL    HW116657   4.516   0.309   4.340  3.4775 -0.0044 -1.4047
 5019SOL    HW216658   4.422   0.321   4.207 -1.3964  0.4301  1.8189
 5020SOL     OW16659   6.929   1.212   1.441 -0.3732 -0.2890  0.4627
 5020SOL    HW116660   6.960   1.128   1.396  2.8926  0.8378  0.3040
 5020SOL    HW216661   6.956   1.210   1.538 -1.2067  0.1548  0.7133
 5021SOL     OW16662   4.174   5.912   0.665  0.2473  0.2511 -0.1184
 5021SOL    HW116663   4.198   5.814   0.664 -0.5812 -0.0416  2.2092
 5021SOL    HW216664   4.119   5.933   0.585  2.4023 -0.6036 -1.9443
 5022SOL     OW16665   4.626   1.261   3.907  0.0292  0.4834  0.6761
 5022SOL    HW116666   4.569   1.315   3.845 -2.9991 -1.4375  1.6029
 5022SOL    HW216667   4.599   1.279   4.001  1.9612  0.5071  1.2769
 5023SOL     OW16668   0.969   2.989   0.438  0.1684 -0.3093  0.1945
 5023SOL    HW116669   1.053   2.954   0.396  1.4060  2.0443  0.5438
 5023SOL    HW216670   0.968   2.965   0.535 -0.4313 -1.7505 -0.1307
 5024SOL     OW16671   0.173   0.909   1.099  0.1822 -0.1501  0.1651
 5024SOL    HW116672   0.260   0.888   1.144 -0.2871 -1.2277  0.5981
 5024SOL    HW216673   0.101   0.918   1.168 -0.3869 -1.0157 -0.2895
 5025SOL     OW16674   2.785   1.558   4.409  0.3882 -0.2105  0.4027
 5025SOL    HW116675   2.832   1.500   4.476 -1.4659 -1.8298  0.3686
 5025SOL    HW216676   2.832   1.551   4.321  1.9362  0.7398  1.1001
 5026SOL     OW16677   2.879   6.460   1.174  0.1363 -0.2653 -0.5005
 5026SOL    HW116678   2.937   6.540   1.189 -0.6818 -0.0089  1.7814
 5026SOL    HW216679   2.874   6.440   1.077  2.3121  0.9757 -0.9320
 5027SOL     OW16680   6.239   2.582   5.648  0.4748  0.1035  0.1899
 5027SOL    HW116681   6.239   2.560   5.550  0.3151 -0.5344  0.3282
 5027SOL    HW216682   6.155   2.632   5.671  0.1908 -0.3364  0.1256
 5028SOL     OW16683   1.774   6.626   0.435 -0.0608 -0.1011  0.0965
 5028SOL    HW116684   1.712   6.552   0.463 -2.0378  1.1581 -0.7608
 5028SOL    HW216685   1.723   6.694   0.382  1.2121  2.9101  2.4752
 5029SOL     OW16686   0.407   4.147   1.050  0.5817 -0.2898 -0.6250
 5029SOL    HW116687   0.501   4.115   1.040  0.9071  0.3918  0.2181
 5029SOL    HW216688   0.400   4.242   1.020  0.3314 -0.0832  0.0764
 5030SOL     OW16689   2.801   0.241   2.453  0.2702  0.1256 -0.3931
 5030SOL    HW116690   2.767   0.166   2.508 -1.4682  0.6222 -0.7509
 5030SOL    HW216691   2.832   0.206   2.364 -0.4223 -0.1843 -0.5133
 5031SOL     OW16692   3.687   3.357   6.433  0.0646 -0.1983  0.0899
 5031SOL    HW116693   3.679   3.394   6.526  1.3556 -1.6789  0.8368
 5031SOL    HW216694   3.648   3.265   6.431 -2.1752  0.6794 -1.4926
 5032SOL     OW16695   3.174   5.955   4.397  0.0312  0.0269 -0.3232
 5032SOL    HW116696   3.100   6.012   4.362  0.1995  1.1343  1.0491
 5032SOL    HW216697   3.261   5.985   4.357 -0.1079 -0.6408 -1.1776
 5033SOL     OW16698   3.896   5.160   5.484  0.0334  0.4287  0.0531
 5033SOL    HW116699   3.957   5.214   5.425  0.2810 -1.1491 -1.1787
 5033SOL    HW216700   3.951   5.099   5.540 -0.2467  1.4482  1.4964
 5034SOL     OW16701   0.076   0.595   4.551 -0.6167 -0.3187  0.4529
 5034SOL    HW116702   0.137   0.534   4.502 -1.0480 -0.3408 -0.0655
 5034SOL    HW216703   0.130   0.664   4.600 -0.1974  0.0250 -0.4768
 5035SOL     OW16704   1.241   3.800   0.780 -1.0164  0.0450  0.5363
 5035SOL    HW116705   1.325   3.756   0.811 -0.9463 -0.4069 -0.2722
 5035SOL    HW216706   1.261   3.891   0.744 -0.9838  0.2409  1.0446
 5036SOL     OW16707   5.340   6.079   1.887  0.1619 -1.1777 -0.4439
 5036SOL    HW116708   5.394   5.995   1.876  0.9870 -0.6005 -0.9536
 5036SOL    HW216709   5.321   6.094   1.984 -0.9284 -2.5110 -0.4208
 5037SOL     OW16710   3.877   0.697   1.602  0.1518 -0.0867 -0.2379
 5037SOL    HW116711   3.815   0.624   1.630  0.5921 -0.3487  0.0748
 5037SOL    HW216712   3.965   0.685   1.647 -0.5499  2.1454  1.9781
 5038SOL     OW16713   0.303   2.607   6.754 -0.1508 -0.4900 -0.2423
 5038SOL    HW116714   0.349   2.648   6.675 -1.4777  0.6400 -0.4600
 5038SOL    HW216715   0.356   2.627   6.837 -0.1772  0.7204 -0.4941
 5039SOL     OW16716   2.416   1.659   4.005  0.2267 -0.0221  0.4839
 5039SOL    HW116717   2.467   1.741   4.031 -0.9686 -0.0066  3.0925
 5039SOL    HW216718   2.474   1.601   3.947  2.1404  1.3268  0.9451
 5040SOL     OW16719   2.002   5.653   5.543  0.3065 -0.6289 -0.7090
 5040SOL    HW116720   1.979   5.748   5.523  2.1722 -0.1379 -0.6673
 5040SOL    HW216721   1.960   5.625   5.629 -0.0543  0.2325 -0.6018
 5041SOL     OW16722   0.632   3.293   5.224  0.0981 -0.4179  0.3017
 5041SOL    HW116723   0.545   3.319   5.184  0.6981  1.1510 -0.0392
 5041SOL    HW216724   0.661   3.204   5.186  0.0468  0.4149 -1.8531
 5042SOL     OW16725   1.263   2.277   6.986  0.2981 -0.2158  0.0798
 5042SOL    HW116726   1.193   2.290   6.916 -0.1187 -2.0340  0.1270
 5042SOL    HW216727   1.225   2.227   7.063  1.7378 -1.6145 -0.0702
 5043SOL     OW16728   0.301   4.189   2.236 -0.7872 -0.0499  0.0092
 5043SOL    HW116729   0.272   4.173   2.142  0.0696 -2.3400  0.0689
 5043SOL    HW216730   0.239   4.141   2.298 -0.2392 -0.1443  0.4844
 5044SOL     OW16731   1.730   0.810   6.137  0.0370  0.5650 -0.0829
 5044SOL    HW116732   1.654   0.749   6.158  0.4018 -0.1967 -0.9262
 5044SOL    HW216733   1.770   0.785   6.049  0.0943  2.1327 -0.5354
 5045SOL     OW16734   5.127   6.457   2.859 -0.0589 -0.5425  0.3924
 5045SOL    HW116735   5.212   6.476   2.811  0.4933  0.7081  1.7734
 5045SOL    HW216736   5.135   6.486   2.955 -1.7705 -1.1271  0.7634
 5046SOL     OW16737   2.166   6.669   4.794  0.2366 -0.4454 -0.6224
 5046SOL    HW116738   2.158   6.608   4.715 -4.2376 -1.8581  0.6576
 5046SOL    HW216739   2.208   6.620   4.870 -0.1785 -0.7865 -0.6123
 5047SOL     OW16740   3.342   4.083   3.200  0.7470  0.8569 -0.4372
 5047SOL    HW116741   3.256   4.096   3.248  1.0325  0.3009  0.2359
 5047SOL    HW216742   3.381   4.172   3.176  0.1023  1.1126 -0.5558
 5048SOL     OW16743   4.035   2.634   6.951  0.0919  0.1091  0.1701
 5048SOL    HW116744   3.967   2.578   6.998 -1.3342  1.9818  0.4472
 5048SOL    HW216745   4.112   2.651   7.013 -1.3168  1.7393  1.5787
 5049SOL     OW16746   3.714   2.854   2.224  0.1534  0.1266  0.6769
 5049SOL    HW116747   3.810   2.867   2.202  0.2750 -0.9566  0.4977
 5049SOL    HW216748   3.706   2.804   2.311 -0.2752  1.5321  1.4669
 5050SOL     OW16749   4.311   2.307   1.474 -0.1454 -0.3118 -1.0104
 5050SOL    HW116750   4.327   2.303   1.573 -0.2389 -1.3798 -1.0300
 5050SOL    HW216751   4.398   2.319   1.427 -0.0150 -0.5433 -0.8323
 5051SOL     OW16752   5.255   5.785   4.531  0.1284  0.3340 -0.7432
 5051SOL    HW116753   5.336   5.818   4.579  1.2848 -1.4282 -1.3663
 5051SOL    HW216754   5.180   5.772   4.596  1.4291 -1.3255  0.4993
 5052SOL     OW16755   2.774   5.419   3.385  0.0408  0.3948 -0.0531
 5052SOL    HW116756   2.731   5.351   3.445  0.6083  0.8328  0.8808
 5052SOL    HW216757   2.863   5.384   3.354  0.7002  1.0160  1.0816
 5053SOL     OW16758   3.646   0.341   0.142  0.0272  0.4785  0.5791
 5053SOL    HW116759   3.667   0.276   0.069 -1.0300  0.8954 -0.1248
 5053SOL    HW216760   3.693   0.427   0.125 -0.0911  0.5223  0.4692
 5054SOL     OW16761   6.710   4.648   2.673  0.3246 -0.0522  0.0812
 5054SOL    HW116762   6.636   4.710   2.699  1.7137  1.5637  0.3988
 5054SOL    HW216763   6.754   4.681   2.590  0.2600 -1.3792 -0.5019
 5055SOL     OW16764   5.271   5.359   3.223  0.1249  0.0419 -0.3273
 5055SOL    HW116765   5.198   5.308   3.267 -0.0748 -1.0598 -1.8678
 5055SOL    HW216766   5.238   5.450   3.198 -0.0906  0.2709  0.7513
 5056SOL     OW16767   3.647   1.885   4.577 -0.3759 -0.0653 -0.1431
 5056SOL    HW116768   3.586   1.955   4.613  0.2159  0.1937  0.3698
 5056SOL    HW216769   3.659   1.898   4.478 -0.2914  0.5343 -0.0548
 5057SOL     OW16770   4.847   5.443   6.376 -0.4610 -0.1774  0.3403
 5057SOL    HW116771   4.928   5.429   6.433 -0.8888 -1.4235  0.6805
 5057SOL    HW216772   4.841   5.539   6.349  0.2340  0.2640  1.6647
 5058SOL     OW16773   4.713   3.567   6.627 -0.0470  0.3277  0.1234
 5058SOL    HW116774   4.796   3.584   6.575 -0.2017 -1.8198 -0.9354
 5058SOL    HW216775   4.643   3.633   6.600  0.3707  0.2467 -1.2227
 5059SOL     OW16776   3.734   0.599   3.377  0.0448 -0.5201 -0.6898
 5059SOL    HW116777   3.832   0.587   3.396  0.0117 -0.9187 -0.7517
 5059SOL    HW216778   3.720   0.603   3.278 -0.0741 -1.2153 -0.7125
 5060SOL     OW16779   5.779   5.759   5.063  0.0211  0.3352  0.1299
 5060SOL    HW116780   5.758   5.715   4.977  1.8496  1.5547 -1.0148
 5060SOL    HW216781   5.706   5.823   5.087 -1.3267 -1.2661  0.4188
 5061SOL     OW16782   6.764   6.489   6.237  0.1054 -0.2192 -0.0548
 5061SOL    HW116783   6.688   6.551   6.214  0.7679  1.3066  1.5728
 5061SOL    HW216784   6.733   6.395   6.232 -1.7971  0.3509  0.1803
 5062SOL     OW16785   4.707   6.000   3.833 -0.0937  0.1942  0.3545
 5062SOL    HW116786   4.761   6.040   3.907  0.0639  0.9350 -0.1475
 5062SOL    HW216787   4.618   6.044   3.828  0.8501  2.0765 -1.5609
 5063SOL     OW16788   1.356   4.325   1.576 -0.3562  0.4280  0.8307
 5063SOL    HW116789   1.333   4.404   1.632  0.3920  0.6250  0.8687
 5063SOL    HW216790   1.456   4.316   1.570 -0.3367  1.4319 -1.8507
 5064SOL     OW16791   0.830   6.412   4.697  0.1641  0.1481  0.5024
 5064SOL    HW116792   0.788   6.346   4.759 -0.8120 -0.1032 -0.3949
 5064SOL    HW216793   0.841   6.370   4.607 -2.8192  1.9193 -0.8194
 5065SOL     OW16794   6.276   0.877   2.682 -0.1838  0.5463  1.0341
 5065SOL    HW116795   6.308   0.786   2.706  0.3890  0.8597  1.4911
 5065SOL    HW216796   6.352   0.941   2.687  0.1685  0.5329 -2.3393
 5066SOL     OW16797   2.931   0.031   1.398 -0.1164  0.1498  0.1546
 5066SOL    HW116798   2.872  -0.002   1.471 -0.6619 -2.1042 -1.2226
 5066SOL    HW216799   3.026   0.023   1.426 -0.3256 -0.2521  0.7812
 5067SOL     OW16800   1.972   5.937   3.777  0.3753 -0.1792  0.5603
 5067SOL    HW116801   1.918   5.856   3.797  0.3023 -0.3664 -0.3485
 5067SOL    HW216802   1.980   5.993   3.859 -2.8763  0.8594  0.2869
 5068SOL     OW16803   2.242   4.702   2.689  0.2591 -0.3880  0.0909
 5068SOL    HW116804   2.339   4.690   2.669  0.4558 -1.3225  1.4679
 5068SOL    HW216805   2.223   4.672   2.782 -0.7423  2.9390  1.0899
 5069SOL     OW16806   3.880   1.279   0.689  0.6133  0.1470 -0.1485
 5069SOL    HW116807   3.907   1.290   0.784 -0.8939  0.7189  0.2562
 5069SOL    HW216808   3.869   1.182   0.668 -1.5259  0.0591  1.0700
 5070SOL     OW16809   2.413   3.322   6.263 -0.2995  0.5612  0.5754
 5070SOL    HW116810   2.391   3.255   6.192  0.5072  0.2999  0.5690
 5070SOL    HW216811   2.328   3.356   6.303 -0.7154 -1.1347  1.2231
 5071SOL     OW16812   6.577   2.568   3.971 -0.1538 -0.4327  0.1415
 5071SOL    HW116813   6.500   2.529   4.022 -1.2365  0.9193 -0.3765
 5071SOL    HW216814   6.592   2.663   4.001 -0.1958  0.0728 -1.3646
 5072SOL     OW16815   4.097   6.587   0.560  0.0954 -0.3500  0.5538
 5072SOL    HW116816   4.008   6.562   0.522 -0.7911  1.6959  1.1347
 5072SOL    HW216817   4.128   6.674   0.520  0.2477  0.6538  2.6606
 5073SOL     OW16818   6.170   0.537   4.943 -0.1610 -0.5120 -0.1194
 5073SOL    HW116819   6.089   0.595   4.946 -0.6586 -1.2314  1.3225
 5073SOL    HW216820   6.169   0.482   4.859 -1.6932 -1.2323  0.3428
 5074SOL     OW16821   5.324   2.044   4.892 -0.0719  1.0147 -0.6914
 5074SOL    HW116822   5.302   2.072   4.985  0.8820 -1.7438  0.4766
 5074SOL    HW216823   5.240   2.018   4.845 -0.3377  0.0081  0.3053
 5075SOL     OW16824   2.035   5.028   5.752  0.3338  0.2517 -0.1809
 5075SOL    HW116825   1.987   4.949   5.714 -0.3027  1.7551 -2.8027
 5075SOL    HW216826   1.986   5.060   5.833  0.0514 -1.4347  0.3521
 5076SOL     OW16827   5.670   3.450   1.903  0.4591  0.1655 -0.1751
 5076SOL    HW116828   5.601   3.392   1.947  1.5003 -1.1515 -0.1848
 5076SOL    HW216829   5.757   3.442   1.953  0.4135  2.4882  0.3626
 5077SOL     OW16830   0.651   4.877   0.707  0.0422  0.3198 -0.1626
 5077SOL    HW116831   0.721   4.893   0.777 -1.7332 -0.0179  1.8119
 5077SOL    HW216832   0.651   4.780   0.683 -1.2887 -0.2007  1.6984
 5078SOL     OW16833   2.974   3.132   1.621 -0.0763  0.5145  0.1267
 5078SOL    HW116834   2.899   3.138   1.687 -0.0968 -1.1896  0.2842
 5078SOL    HW216835   3.052   3.184   1.655 -0.2301 -0.0035  1.3016
 5079SOL     OW16836   3.921   6.280   5.953  0.0527  0.4275 -0.0546
 5079SOL    HW116837   3.831   6.263   5.995 -0.0089 -0.2140 -0.4287
 5079SOL    HW216838   3.917   6.255   5.856  0.0366  2.3944 -0.6142
 5080SOL     OW16839   5.589   5.941   5.134 -0.3734  0.1715 -0.4195
 5080SOL    HW116840   5.611   6.029   5.178  0.1812 -0.4351  0.5636
 5080SOL    HW216841   5.495   5.915   5.156 -0.8616  0.9377 -1.4770
 5081SOL     OW16842   4.293   6.205   3.070  0.0190  0.3446 -0.5835
 5081SOL    HW116843   4.387   6.195   3.039  1.2005  2.3621  1.9488
 5081SOL    HW216844   4.281   6.157   3.157 -1.2660  0.2813 -0.7698
 5082SOL     OW16845   5.199   0.958   2.995  0.2427  0.1294 -0.4365
 5082SOL    HW116846   5.208   0.872   3.044  3.7302  0.9039  0.5372
 5082SOL    HW216847   5.102   0.981   2.985 -0.7476 -3.1689  0.4518
 5083SOL     OW16848   5.352   4.051   4.042  0.3095  0.0574  0.1014
 5083SOL    HW116849   5.288   4.026   3.970 -0.2475 -1.8872  1.1841
 5083SOL    HW216850   5.380   4.146   4.031  0.2951 -0.1796 -2.6889
 5084SOL     OW16851   2.620   1.457   3.948  0.1977 -0.5104  0.4857
 5084SOL    HW116852   2.608   1.447   4.047  1.8440 -2.9944  0.5367
 5084SOL    HW216853   2.628   1.366   3.906  2.6058  0.5047 -1.5002
 5085SOL     OW16854   2.571   6.165   5.253  0.1517  0.5598  0.6657
 5085SOL    HW116855   2.533   6.079   5.286  0.3958  0.6673  1.2498
 5085SOL    HW216856   2.628   6.147   5.173 -0.7432  0.3408  0.0700
 5086SOL     OW16857   3.778   4.034   1.730  0.3331 -0.1736 -0.3211
 5086SOL    HW116858   3.822   3.949   1.757 -0.8818 -0.3861  1.0936
 5086SOL    HW216859   3.773   4.096   1.808 -0.9066  0.2436 -0.7040
 5087SOL     OW16860   0.173   1.022   6.557  0.2948 -0.4330  0.0521
 5087SOL    HW116861   0.181   0.924   6.569  1.8472 -0.2723  0.5792
 5087SOL    HW216862   0.265   1.062   6.544 -0.3212  0.9055 -0.4328
 5088SOL     OW16863   4.443   4.259   0.831  0.0247  0.7546  0.0968
 5088SOL    HW116864   4.498   4.178   0.810 -1.1333 -0.7992  2.5202
 5088SOL    HW216865   4.453   4.327   0.758 -0.5220 -2.3176 -3.0997
 5089SOL     OW16866   0.099   4.161   6.231 -0.0632  0.2375 -0.5772
 5089SOL    HW116867   0.066   4.068   6.217 -0.1613  0.1234  0.3286
 5089SOL    HW216868   0.028   4.215   6.276  0.4899  0.3641  0.1609
 5090SOL     OW16869   5.624   5.161   5.870  0.0892 -0.1244  0.0093
 5090SOL    HW116870   5.686   5.082   5.873 -0.5433 -0.6068  0.5389
 5090SOL    HW216871   5.573   5.160   5.784 -0.7912 -0.9796  0.5248
 5091SOL     OW16872   3.215   0.330   2.741  0.1537 -0.7285 -0.2447
 5091SOL    HW116873   3.153   0.404   2.767 -0.7859 -1.7604  0.5538
 5091SOL    HW216874   3.273   0.360   2.666  1.2482  1.5232  1.3863
 5092SOL     OW16875   5.283   2.961   1.216 -0.4532 -0.1193  0.2727
 5092SOL    HW116876   5.342   3.040   1.234  1.9154 -1.7463  0.2043
 5092SOL    HW216877   5.296   2.930   1.122 -2.7177  0.4165 -0.2731
 5093SOL     OW16878   0.407   3.858   6.603  0.2221  0.1197 -0.2341
 5093SOL    HW116879   0.396   3.785   6.535  0.1933  1.3679 -1.6248
 5093SOL    HW216880   0.328   3.918   6.601  0.4522  0.4660  0.5751
 5094SOL     OW16881   3.950   3.021   3.080  0.3142 -0.0697 -0.2315
 5094SOL    HW116882   3.995   2.976   3.158  0.6349  3.9157  2.1593
 5094SOL    HW216883   4.020   3.051   3.015  0.3685 -0.4676 -0.3609
 5095SOL     OW16884   6.387   2.257   6.015  0.7897 -0.7977  0.3922
 5095SOL    HW116885   6.428   2.325   6.076 -0.5094  0.9695 -0.5929
 5095SOL    HW216886   6.304   2.220   6.057 -1.8303  2.5811 -1.2007
 5096SOL     OW16887   1.377   5.499   2.528 -0.1173  0.1362 -0.5517
 5096SOL    HW116888   1.369   5.412   2.576  2.5901  0.2413  0.2507
 5096SOL    HW216889   1.378   5.574   2.594  1.6993  0.4153 -0.8317
 5097SOL     OW16890   4.478   0.914   4.194  0.5339 -0.1891 -0.2786
 5097SOL    HW116891   4.530   0.831   4.215 -0.3228 -0.5979  0.3085
 5097SOL    HW216892   4.504   0.948   4.104  1.2640 -0.8123 -0.3130
 5098SOL     OW16893   2.682   0.273   5.715  0.4775 -0.2959 -0.3427
 5098SOL    HW116894   2.618   0.217   5.768  0.2140  0.2640 -0.0641
 5098SOL    HW216895   2.761   0.297   5.771  0.4810 -0.1952 -0.3906
 5099SOL     OW16896   0.672   6.346   6.924  0.5181  0.0781 -0.1427
 5099SOL    HW116897   0.703   6.252   6.911  1.1854 -0.1786  2.5984
 5099SOL    HW216898   0.587   6.346   6.977  0.8510  1.0138  0.4142
 5100SOL     OW16899   2.499   2.501   0.972 -0.0029 -0.0915 -0.4316
 5100SOL    HW116900   2.444   2.540   1.046 -0.3220 -3.4759  1.3018
 5100SOL    HW216901   2.478   2.549   0.886 -0.5693  3.1283  1.3484
 5101SOL     OW16902   1.504   0.033   3.732  0.3687  0.1620  0.3257
 5101SOL    HW116903   1.423  -0.017   3.702  0.3564  0.6705 -0.5248
 5101SOL    HW216904   1.477   0.115   3.783  0.3961 -1.0308  2.3384
 5102SOL     OW16905   6.464   5.165   5.878 -0.6691 -0.3110 -0.3471
 5102SOL    HW116906   6.497   5.087   5.930 -0.3537  0.3599  0.4849
 5102SOL    HW216907   6.371   5.147   5.845 -0.7413 -0.8735  0.1616
 5103SOL     OW16908   2.182   3.132   0.846  0.0025  0.9291 -0.4132
 5103SOL    HW116909   2.214   3.204   0.907 -0.9432  0.3008  0.8736
 5103SOL    HW216910   2.251   3.114   0.777  2.2216  0.0001  1.8870
 5104SOL     OW16911   1.495   3.939   3.956 -0.5708  0.6524  0.7031
 5104SOL    HW116912   1.420   4.001   3.981 -1.5623  0.6928 -2.0791
 5104SOL    HW216913   1.581   3.989   3.956 -1.0637  1.5195  0.4742
 5105SOL     OW16914   2.823   6.912   6.276 -0.0203 -0.0790  0.4447
 5105SOL    HW116915   2.725   6.923   6.292  0.4777  0.9926  3.5636
 5105SOL    HW216916   2.851   6.820   6.304 -0.1651 -0.4752 -0.6977
 5106SOL     OW16917   2.738   3.084   6.543 -0.1900 -0.2688  0.4902
 5106SOL    HW116918   2.766   2.988   6.547  0.6284 -0.1082 -0.7092
 5106SOL    HW216919   2.802   3.139   6.597 -0.4008 -0.3342  0.8124
 5107SOL     OW16920   3.955   5.902   6.324  0.1338 -0.3349  0.6469
 5107SOL    HW116921   3.983   5.951   6.242  2.9319 -0.7012  1.2949
 5107SOL    HW216922   3.993   5.810   6.323 -2.5164 -1.5337  0.8897
 5108SOL     OW16923   1.810   0.273   6.825 -0.5982 -0.6381 -0.1199
 5108SOL    HW116924   1.756   0.222   6.892 -1.6613 -0.1849 -0.5969
 5108SOL    HW216925   1.781   0.369   6.825  2.0239  0.2626  1.4675
 5109SOL     OW16926   2.395   2.742   2.300 -0.0172  0.2161 -0.0244
 5109SOL    HW116927   2.350   2.786   2.378  0.1483  0.8916 -0.2972
 5109SOL    HW216928   2.455   2.809   2.256  1.1478 -0.6262  0.2507
 5110SOL     OW16929   1.016   2.305   3.705 -0.0535 -0.9074 -0.0730
 5110SOL    HW116930   0.926   2.277   3.740 -0.3182 -0.9938 -0.7928
 5110SOL    HW216931   1.053   2.377   3.762 -0.2347 -1.4058  0.6816
 5111SOL     OW16932   0.498   6.788   6.919 -0.2139 -0.5158  0.0456
 5111SOL    HW116933   0.480   6.875   6.965  1.3234  0.1388 -0.5221
 5111SOL    HW216934   0.556   6.731   6.977  0.3858 -0.3513 -0.3795
 5112SOL     OW16935   6.312   3.873   2.160  0.4125 -0.5659 -0.5459
 5112SOL    HW116936   6.403   3.833   2.177  0.0203 -0.4736  2.3103
 5112SOL    HW216937   6.244   3.800   2.159  0.1628 -0.3788  0.7375
 5113SOL     OW16938   4.799   5.950   3.411  0.0905  0.0307 -0.2346
 5113SOL    HW116939   4.783   6.032   3.356  0.7734  0.6963  0.5269
 5113SOL    HW216940   4.715   5.897   3.418 -1.1653  2.0998  1.5629
 5114SOL     OW16941   1.207   4.994   0.966 -0.0634  0.0686  0.2235
 5114SOL    HW116942   1.134   5.057   0.990  1.1746  1.5037  0.3617
 5114SOL    HW216943   1.167   4.907   0.936 -1.8164  0.9116 -0.0280
 5115SOL     OW16944   4.505   6.422   5.496  0.3426  0.3266  0.2353
 5115SOL    HW116945   4.526   6.340   5.548 -1.3638  0.1105  0.6483
 5115SOL    HW216946   4.509   6.502   5.556  1.6079  0.5157 -0.0760
 5116SOL     OW16947   5.478   6.810   5.339 -0.2186  0.1684  0.2232
 5116SOL    HW116948   5.452   6.875   5.410 -1.0989  0.6700 -0.5229
 5116SOL    HW216949   5.411   6.737   5.334  0.2461 -0.2761  0.4048
 5117SOL     OW16950   0.395   1.527   1.081  0.6619 -0.3343 -0.0003
 5117SOL    HW116951   0.466   1.538   1.012 -1.5501 -0.4202 -2.4784
 5117SOL    HW216952   0.364   1.432   1.081 -0.0567 -0.1080  0.3753
 5118SOL     OW16953   5.473   6.363   6.376  0.1327  0.6608  0.0103
 5118SOL    HW116954   5.487   6.353   6.475  1.2590  0.7763 -0.1193
 5118SOL    HW216955   5.394   6.420   6.359 -0.9404 -0.5230  0.8326
 5119SOL     OW16956   4.221   2.568   1.818  0.4326 -0.2067 -0.5931
 5119SOL    HW116957   4.181   2.557   1.727  1.3063  0.0826 -1.0336
 5119SOL    HW216958   4.164   2.523   1.886 -1.2406  1.1967 -1.0151
 5120SOL     OW16959   6.524   0.509   2.546 -0.0763  0.1153 -0.5284
 5120SOL    HW116960   6.617   0.530   2.517  0.1314 -1.3401 -0.9963
 5120SOL    HW216961   6.473   0.473   2.468 -1.0979  1.0623 -0.3219
 5121SOL     OW16962   4.192   5.835   1.342 -0.5234 -0.5567  0.7767
 5121SOL    HW116963   4.109   5.882   1.311  0.3891 -0.1935 -1.2756
 5121SOL    HW216964   4.263   5.903   1.361 -0.6916 -0.8601  2.6577
 5122SOL     OW16965   6.426   3.555   1.832 -0.5586  0.0309 -0.3652
 5122SOL    HW116966   6.401   3.506   1.748 -1.1888  1.6730 -1.1717
 5122SOL    HW216967   6.483   3.634   1.809 -0.4632  0.3140  0.7970
 5123SOL     OW16968   3.519   3.715   5.368 -0.4612 -0.5474 -0.3418
 5123SOL    HW116969   3.588   3.777   5.329 -1.6699  0.5639 -0.7989
 5123SOL    HW216970   3.477   3.662   5.294 -0.6223 -0.6633 -0.1670
 5124SOL     OW16971   1.462   2.765   5.858  0.4808  0.5102 -0.1153
 5124SOL    HW116972   1.445   2.667   5.846  1.7580  0.2898 -0.2848
 5124SOL    HW216973   1.404   2.800   5.931  0.6069 -0.5617  0.5199
 5125SOL     OW16974   3.302   5.801   6.972 -0.2220 -0.1250 -0.1901
 5125SOL    HW116975   3.293   5.839   6.880  0.1889  0.9445  0.1957
 5125SOL    HW216976   3.234   5.843   7.032 -0.2562 -0.5564  0.0779
 5126SOL     OW16977   5.100   6.451   5.381  0.2122 -0.4866 -0.2674
 5126SOL    HW116978   5.102   6.420   5.287 -2.5040 -0.5980 -0.3765
 5126SOL    HW216979   5.092   6.551   5.383 -0.9007 -0.5663 -0.2176
 5127SOL     OW16980   3.891   1.731   4.915 -0.1552  0.1993  0.2882
 5127SOL    HW116981   3.961   1.793   4.879  0.2753 -0.8595 -0.7707
 5127SOL    HW216982   3.824   1.711   4.843 -0.0312 -0.9127  0.4598
 5128SOL     OW16983   4.681   2.982   3.503  0.0038 -0.4905  0.0614
 5128SOL    HW116984   4.684   3.079   3.525  0.0107 -0.8398  1.7349
 5128SOL    HW216985   4.596   2.961   3.454 -0.1117  0.3088 -0.0884
 5129SOL     OW16986   4.432   0.303   0.940  0.6413  0.2374 -0.1241
 5129SOL    HW116987   4.426   0.339   0.847 -0.3648  1.8675  0.5160
 5129SOL    HW216988   4.341   0.282   0.974  0.9251  0.3352  0.7344
 5130SOL     OW16989   2.135   4.147   5.859  0.7629  0.3628  0.9815
 5130SOL    HW116990   2.144   4.057   5.901 -1.2095  1.5408  4.3204
 5130SOL    HW216991   2.147   4.218   5.929 -0.2037  2.6176 -1.0018
 5131SOL     OW16992   5.751   5.495   3.177  0.7209  0.0617  0.2221
 5131SOL    HW116993   5.744   5.459   3.270  2.3781  0.8618  0.7000
 5131SOL    HW216994   5.756   5.595   3.180 -3.3946  0.4597 -1.0483
 5132SOL     OW16995   2.312   0.069   3.099 -0.0312 -0.0525 -0.2634
 5132SOL    HW116996   2.356   0.050   3.187  0.8160  0.1429 -0.6332
 5132SOL    HW216997   2.366   0.028   3.025  0.7105  1.9569 -0.9094
 5133SOL     OW16998   4.064   6.021   0.922  0.3296  0.3010 -0.0042
 5133SOL    HW116999   4.079   6.002   0.825 -1.1124  0.4434 -0.2746
 5133SOL    HW217000   4.124   5.963   0.977  1.2589  0.3061 -0.9624
 5134SOL     OW17001   0.841   1.816   1.057 -0.7228 -0.0720 -0.1575
 5134SOL    HW117002   0.751   1.858   1.050 -0.2546  1.1887  1.0411
 5134SOL    HW217003   0.870   1.783   0.967 -1.2994  1.7912 -1.0611
 5135SOL     OW17004   1.010   0.520   6.474 -0.0249 -0.3289 -0.9074
 5135SOL    HW117005   0.927   0.564   6.509 -0.0029 -0.8588 -0.1802
 5135SOL    HW217006   1.043   0.570   6.394 -0.8434  0.0981 -0.9846
 5136SOL     OW17007   6.539   3.400   0.333  0.3701  0.3896 -0.0214
 5136SOL    HW117008   6.555   3.431   0.426  1.5737 -0.4444  0.0773
 5136SOL    HW217009   6.538   3.478   0.271 -0.5738  0.9574  0.6980
 5137SOL     OW17010   0.298   0.372   3.045  0.2415 -0.6512 -0.1143
 5137SOL    HW117011   0.363   0.378   2.969  0.7351  2.0727  0.4354
 5137SOL    HW217012   0.309   0.451   3.105 -3.6809  0.0715 -0.0857
 5138SOL     OW17013   3.460   1.511   2.316 -0.5431 -0.1924 -0.0149
 5138SOL    HW117014   3.425   1.564   2.394 -1.0626  1.0304 -1.0473
 5138SOL    HW217015   3.387   1.456   2.277 -0.0350 -1.6333  0.9704
 5139SOL     OW17016   5.478   0.493   6.490 -0.2143 -0.1039  0.2168
 5139SOL    HW117017   5.550   0.476   6.556  0.5296 -0.1413 -0.5871
 5139SOL    HW217018   5.399   0.434   6.509  1.1878 -2.4171 -0.7916
 5140SOL     OW17019   0.990   1.405   5.781  0.1840 -0.1332 -0.2256
 5140SOL    HW117020   0.942   1.326   5.744  1.1203 -1.2014  0.7657
 5140SOL    HW217021   1.054   1.440   5.713 -0.9583  0.4585 -1.0503
 5141SOL     OW17022   1.594   0.782   1.633  0.2014  0.0822  0.5934
 5141SOL    HW117023   1.687   0.783   1.670  0.8614 -1.2797 -0.8737
 5141SOL    HW217024   1.567   0.687   1.614 -1.1694  0.5193  0.2328
 5142SOL     OW17025   1.763   1.087   5.823 -0.5165  0.2846  0.0397
 5142SOL    HW117026   1.826   1.066   5.748  1.1310 -2.5157  2.0328
 5142SOL    HW217027   1.705   1.164   5.796  2.0665  1.4537 -2.8651
 5143SOL     OW17028   6.663   5.715   1.709 -0.3727 -0.3591 -0.0431
 5143SOL    HW117029   6.628   5.697   1.617 -0.0590  0.7635 -0.4038
 5143SOL    HW217030   6.604   5.783   1.753 -0.9868 -1.4712  0.9036
 5144SOL     OW17031   5.425   0.912   4.905 -0.3324 -0.1681  0.1421
 5144SOL    HW117032   5.433   0.945   4.811 -0.6614  0.3504  0.2915
 5144SOL    HW217033   5.424   0.812   4.905  0.1840 -0.1786 -0.3568
 5145SOL     OW17034   5.543   0.492   0.517 -0.0291  0.1994 -0.3893
 5145SOL    HW117035   5.489   0.564   0.475  1.1531  0.8379 -0.8547
 5145SOL    HW217036   5.593   0.441   0.447 -0.9353 -1.1614 -0.0776
 5146SOL     OW17037   1.528   1.130   4.381 -0.4742 -0.2611 -0.3229
 5146SOL    HW117038   1.465   1.073   4.329 -0.0040 -0.2382 -0.9276
 5146SOL    HW217039   1.561   1.205   4.323  0.7751 -0.7637 -0.2973
 5147SOL     OW17040   6.992   3.179   6.136  0.4314 -0.1442  0.6094
 5147SOL    HW117041   6.971   3.084   6.159  0.5285 -0.5297 -0.7966
 5147SOL    HW217042   7.082   3.184   6.094  0.6127  0.6395  1.0713
 5148SOL     OW17043   6.438   4.263   1.463  0.0260  0.4942 -0.0548
 5148SOL    HW117044   6.435   4.340   1.399 -0.8631  1.2452  0.8592
 5148SOL    HW217045   6.417   4.295   1.555  1.3633 -0.5663  0.6453
 5149SOL     OW17046   6.350   6.853   4.245  0.1929  0.8175 -0.5844
 5149SOL    HW117047   6.405   6.822   4.168  0.6744  1.0108 -0.3212
 5149SOL    HW217048   6.358   6.787   4.320 -1.3743 -0.0943 -1.1798
 5150SOL     OW17049   3.173   2.578   4.918 -0.3899  0.3827  0.5050
 5150SOL    HW117050   3.156   2.505   4.984  2.1281 -1.1664 -0.3948
 5150SOL    HW217051   3.258   2.559   4.869 -1.7257  1.8720 -2.6550
 5151SOL     OW17052   5.450   4.332   5.650 -0.3720 -0.1276  0.1505
 5151SOL    HW117053   5.447   4.235   5.625 -1.2906 -0.2908  0.8509
 5151SOL    HW217054   5.533   4.373   5.613 -0.2180 -1.0605 -0.5855
 5152SOL     OW17055   2.626   1.288   4.662 -0.3141  0.3630 -0.1993
 5152SOL    HW117056   2.578   1.372   4.686  0.0621  0.0501  1.7661
 5152SOL    HW217057   2.635   1.230   4.743  3.2214  0.3137 -0.4755
 5153SOL     OW17058   3.079   4.401   1.363  0.7082 -0.2767 -0.6081
 5153SOL    HW117059   3.153   4.362   1.418  1.2602  0.0979 -1.0685
 5153SOL    HW217060   3.000   4.420   1.421  0.4196 -2.0630 -0.3622
 5154SOL     OW17061   2.100   5.637   1.633  0.5508  0.1070 -0.3608
 5154SOL    HW117062   2.015   5.614   1.585  1.3175  0.1893 -1.8397
 5154SOL    HW217063   2.086   5.630   1.731 -0.3393 -2.8050 -0.5998
 5155SOL     OW17064   0.848   3.347   3.086  0.8642 -0.3490 -0.4934
 5155SOL    HW117065   0.948   3.340   3.080  0.8773 -0.4964 -0.1460
 5155SOL    HW217066   0.809   3.353   2.995  1.1923 -0.3091 -0.6315
 5156SOL     OW17067   1.381   2.218   2.218  0.2637  0.2405 -0.3332
 5156SOL    HW117068   1.285   2.213   2.191 -0.0016  2.5901 -0.0720
 5156SOL    HW217069   1.390   2.276   2.298  1.7970 -1.0128  0.4613
 5157SOL     OW17070   2.870   4.233   5.310  0.2865 -0.2788  0.3787
 5157SOL    HW117071   2.927   4.315   5.316  0.7361 -0.0893 -3.5586
 5157SOL    HW217072   2.774   4.260   5.302  0.3549 -0.1424 -0.0450
 5158SOL     OW17073   3.929   2.064   1.457 -0.2106 -0.2347 -0.2422
 5158SOL    HW117074   3.908   2.079   1.360  0.3030 -1.4767 -0.5723
 5158SOL    HW217075   3.993   1.987   1.465  1.1067  0.9375  0.9769
 5159SOL     OW17076   6.989   6.368   6.561 -0.4604  0.1228  0.1634
 5159SOL    HW117077   7.080   6.382   6.524 -0.2762 -1.7692 -0.1991
 5159SOL    HW217078   6.932   6.448   6.541  1.1686  1.4787  0.6830
 5160SOL     OW17079   5.819   2.846   3.437  0.2721  0.4774 -0.3204
 5160SOL    HW117080   5.828   2.933   3.388  0.0763 -0.4629 -2.1402
 5160SOL    HW217081   5.889   2.839   3.507  0.1110  2.2168  0.0476
 5161SOL     OW17082   5.132   2.584   5.192  0.1300  0.7988  0.2563
 5161SOL    HW117083   5.101   2.570   5.286 -3.1206 -1.0740 -0.9284
 5161SOL    HW217084   5.157   2.679   5.179 -0.4018  1.3472  2.7235
 5162SOL     OW17085   5.571   3.369   5.227 -0.2546 -0.0533  0.4358
 5162SOL    HW117086   5.601   3.438   5.293  1.4043  0.2711 -0.5994
 5162SOL    HW217087   5.532   3.291   5.276  0.6361  0.3181  1.7805
 5163SOL     OW17088   3.444   2.101   0.877 -0.3595  0.2335  0.2221
 5163SOL    HW117089   3.462   2.075   0.782 -0.8898 -2.2448  0.7243
 5163SOL    HW217090   3.371   2.170   0.880 -2.1210 -1.4592 -1.1212
 5164SOL     OW17091   1.569   5.978   4.881 -0.4025 -0.3383  0.3649
 5164SOL    HW117092   1.657   5.944   4.915  0.2729  1.5522  0.5853
 5164SOL    HW217093   1.585   6.053   4.817 -1.7995 -1.3882 -1.3135
 5165SOL     OW17094   0.552   3.538   3.427  0.5137  0.1318 -0.2880
 5165SOL    HW117095   0.564   3.620   3.373  0.4017  0.0950 -0.3681
 5165SOL    HW217096   0.456   3.528   3.453  0.7565  0.8307  0.9921
 5166SOL     OW17097   0.685   0.643   4.210  0.1211 -0.2096  0.4738
 5166SOL    HW117098   0.635   0.627   4.295  0.2293 -1.8778  0.2602
 5166SOL    HW217099   0.623   0.680   4.141 -0.3162 -0.2773  0.8289
 5167SOL     OW17100   0.936   5.514   6.026 -0.0507 -0.4918  0.1190
 5167SOL    HW117101   1.000   5.510   5.949  0.1006 -2.3498  0.2916
 5167SOL    HW217102   0.925   5.422   6.065 -1.6764  0.0560  1.0503
 5168SOL     OW17103   3.984   1.734   0.789  0.1887  0.1895 -0.5918
 5168SOL    HW117104   3.997   1.832   0.806 -1.2875  0.1756  0.9076
 5168SOL    HW217105   4.046   1.682   0.848 -0.1786  0.2342 -0.1503
 5169SOL     OW17106   0.228   3.847   3.189  0.4538 -0.4478 -0.3954
 5169SOL    HW117107   0.215   3.847   3.288  1.3321 -0.8282 -0.2621
 5169SOL    HW217108   0.160   3.905   3.146  0.9191  0.8368  0.5527
 5170SOL     OW17109   1.638   3.230   1.362 -0.5012 -0.2769  0.2245
 5170SOL    HW117110   1.627   3.182   1.449 -2.2460 -0.0115  0.1703
 5170SOL    HW217111   1.690   3.315   1.378 -0.9792 -0.1301  1.0472
 5171SOL     OW17112   2.694   4.874   6.816  0.1703  1.3351 -0.5752
 5171SOL    HW117113   2.718   4.862   6.720 -0.1017 -0.1746 -0.4892
 5171SOL    HW217114   2.622   4.808   6.840 -0.1558  2.0746  0.5232
 5172SOL     OW17115   4.321   1.891   6.104  0.2221  0.4696  0.5800
 5172SOL    HW117116   4.248   1.954   6.130 -1.7660 -1.1334 -0.7476
 5172SOL    HW217117   4.376   1.932   6.031 -1.0246  0.7054 -0.2528
 5173SOL     OW17118   4.203   2.792   1.442  0.3624  0.2171  0.1726
 5173SOL    HW117119   4.201   2.792   1.542 -0.6976  0.2623  0.1649
 5173SOL    HW217120   4.210   2.697   1.409  2.1733  0.2721  0.2763
 5174SOL     OW17121   0.897   5.723   1.957 -0.2191 -0.0832  0.1526
 5174SOL    HW117122   0.820   5.781   1.981 -0.3282 -0.7252  1.4529
 5174SOL    HW217123   0.891   5.637   2.008  0.4158 -0.8678 -1.0544
 5175SOL     OW17124   3.851   6.206   6.980  0.0977 -0.0032  0.5076
 5175SOL    HW117125   3.904   6.123   6.997  1.9476  1.2672  1.2084
 5175SOL    HW217126   3.849   6.262   7.063 -2.9804 -0.2910  0.7381
 5176SOL     OW17127   5.103   1.055   1.886  0.3613 -0.1680  0.4331
 5176SOL    HW117128   5.080   0.985   1.953 -2.4490  0.6955  0.4960
 5176SOL    HW217129   5.023   1.073   1.828  0.9050  3.0537  0.5114
 5177SOL     OW17130   5.881   1.382   3.114  0.0657  0.0431 -0.3318
 5177SOL    HW117131   5.795   1.431   3.108 -0.2925 -0.6825 -1.4001
 5177SOL    HW217132   5.890   1.319   3.036  2.3645  1.4103 -1.2787
 5178SOL     OW17133   3.502   4.580   6.607 -0.8232  0.0113  0.3294
 5178SOL    HW117134   3.542   4.501   6.654  1.1287  1.2492  0.8708
 5178SOL    HW217135   3.492   4.560   6.510 -2.1337 -1.5243  0.7327
 5179SOL     OW17136   0.797   4.430   4.593 -0.8452  0.5584  0.0027
 5179SOL    HW117137   0.772   4.440   4.689  4.2537 -0.8836  1.8195
 5179SOL    HW217138   0.774   4.338   4.562 -1.7120  0.7453  0.0496
 5180SOL     OW17139   3.805   4.829   0.893  0.0660  0.4060  0.0958
 5180SOL    HW117140   3.778   4.903   0.833  0.4624  1.2088  0.8837
 5180SOL    HW217141   3.881   4.779   0.852  0.2026  0.8247 -0.1637
 5181SOL     OW17142   2.223   6.406   2.513  0.2150  0.4585  0.4402
 5181SOL    HW117143   2.218   6.393   2.612  1.5699  1.4449  0.6788
 5181SOL    HW217144   2.147   6.463   2.483 -0.0511  0.3856  0.9583
 5182SOL     OW17145   1.469   6.072   2.818 -0.5558 -0.1146 -0.0842
 5182SOL    HW117146   1.515   6.127   2.749 -0.5139  0.2186  0.2029
 5182SOL    HW217147   1.519   5.986   2.832 -0.9166 -0.4673 -0.9095
 5183SOL     OW17148   1.638   6.537   6.851 -0.5756  0.1356  0.3648
 5183SOL    HW117149   1.619   6.510   6.945 -4.4625 -0.8371 -0.5473
 5183SOL    HW217150   1.620   6.461   6.789  1.3150  0.9274 -1.2971
 5184SOL     OW17151   6.503   3.543   6.000  0.0499  0.1519 -0.1270
 5184SOL    HW117152   6.518   3.465   5.939 -1.8215  0.2993 -0.8635
 5184SOL    HW217153   6.520   3.515   6.094  1.1565 -0.6187 -0.5285
 5185SOL     OW17154   0.068   4.272   2.857 -0.2303  0.0390  0.0760
 5185SOL    HW117155   0.120   4.275   2.943  1.6470  1.4616 -1.0350
 5185SOL    HW217156   0.034   4.364   2.836 -1.5433 -0.4956 -0.2405
 5186SOL     OW17157   2.550   5.413   5.938 -0.3724  0.0210  0.4416
 5186SOL    HW117158   2.556   5.359   5.854  0.9577 -2.1691  1.8488
 5186SOL    HW217159   2.489   5.368   6.003 -1.2876  1.6161  0.7577
 5187SOL     OW17160   1.864   2.598   6.686  0.1223 -0.0482  0.0081
 5187SOL    HW117161   1.880   2.499   6.680  0.1747 -0.0163 -0.4309
 5187SOL    HW217162   1.836   2.622   6.779  0.4123 -0.4316  0.1963
 5188SOL     OW17163   3.775   3.985   3.740  0.0807 -0.6182 -0.0990
 5188SOL    HW117164   3.757   3.968   3.837  0.3437 -1.9994 -0.2778
 5188SOL    HW217165   3.868   4.022   3.730  0.5234 -1.6234  0.0947
 5189SOL     OW17166   4.192   0.720   5.434  0.0322  1.0615  0.1715
 5189SOL    HW117167   4.177   0.806   5.386  1.7426  2.3617  1.8248
 5189SOL    HW217168   4.178   0.734   5.532 -0.4209 -0.7609  0.4067
 5190SOL     OW17169   6.192   5.792   0.545  0.0113  0.3733  0.0476
 5190SOL    HW117170   6.228   5.863   0.486  2.9959 -0.2235  0.9779
 5190SOL    HW217171   6.146   5.834   0.624  2.4693  1.4018  1.0326
 5191SOL     OW17172   5.070   5.854   6.048 -0.7466 -0.2364 -0.1820
 5191SOL    HW117173   5.105   5.799   5.972  1.2096  0.7182 -0.0351
 5191SOL    HW217174   5.140   5.920   6.076 -1.5811 -0.2277  2.1243
 5192SOL     OW17175   3.191   4.858   6.204  0.4788 -0.0536  0.2353
 5192SOL    HW117176   3.177   4.924   6.278 -2.2480  0.7743 -0.8945
 5192SOL    HW217177   3.231   4.904   6.125 -0.3496  0.0396 -0.1493
 5193SOL     OW17178   2.694   2.823   5.621 -0.6200  0.1120  0.2402
 5193SOL    HW117179   2.699   2.919   5.648 -0.3992  0.6844 -1.6667
 5193SOL    HW217180   2.785   2.781   5.628 -0.4008  0.4779 -0.3718
 5194SOL     OW17181   6.781   4.544   6.672  0.2428  0.5516 -0.4785
 5194SOL    HW117182   6.825   4.633   6.660  0.2973  0.4074 -1.4023
 5194SOL    HW217183   6.851   4.474   6.682  0.2120  0.4651 -0.8686
 5195SOL     OW17184   4.318   4.393   6.368 -0.5809  0.1631 -0.0061
 5195SOL    HW117185   4.282   4.301   6.384 -0.0950 -0.0054  0.1506
 5195SOL    HW217186   4.247   4.451   6.329 -0.5895 -0.5860 -1.1468
 5196SOL     OW17187   4.160   6.902   3.955  0.6314  0.6531 -0.1638
 5196SOL    HW117188   4.216   6.907   4.037 -0.8880  3.3239  0.8340
 5196SOL    HW217189   4.219   6.914   3.874  1.7899  0.9586  0.6934
 5197SOL     OW17190   3.479   6.622   4.144  0.7749  0.4285  0.2427
 5197SOL    HW117191   3.404   6.647   4.083 -0.0254 -0.5339  0.7825
 5197SOL    HW217192   3.567   6.641   4.100  0.2199  0.2879 -0.9671
 5198SOL     OW17193   2.684   0.243   2.963 -0.1293 -0.0663 -0.0326
 5198SOL    HW117194   2.680   0.159   3.017 -1.2039  0.0243  0.0532
 5198SOL    HW217195   2.722   0.222   2.873 -2.8452 -1.2614 -1.0249
 5199SOL     OW17196   1.025   3.824   2.176 -0.4275 -0.4374  0.1505
 5199SOL    HW117197   1.066   3.733   2.182 -1.3175 -0.7595  2.3190
 5199SOL    HW217198   0.926   3.816   2.179 -0.5408  0.5662 -0.6170
 5200SOL     OW17199   1.949   0.258   1.988  0.1769  0.6416  0.2374
 5200SOL    HW117200   1.987   0.340   1.945  1.7991  1.3519  2.8067
 5200SOL    HW217201   1.960   0.180   1.928  0.3979  1.9235 -1.4643
 5201SOL     OW17202   2.000   2.483   1.809 -0.6754 -0.3761  0.4980
 5201SOL    HW117203   1.941   2.428   1.868 -0.6434 -0.8014  0.1394
 5201SOL    HW217204   1.982   2.460   1.714 -0.8496  0.4281  0.3326
 5202SOL     OW17205   0.102   5.875   5.233 -0.4132  0.3414 -0.1024
 5202SOL    HW117206   0.019   5.819   5.243 -0.1988  0.0630  0.1176
 5202SOL    HW217207   0.133   5.905   5.323  0.4519 -0.6197 -0.0559
 5203SOL     OW17208   0.158   0.690   3.921  0.3802  0.0691 -0.1085
 5203SOL    HW117209   0.128   0.778   3.885 -3.2644 -0.9529  0.0810
 5203SOL    HW217210   0.169   0.625   3.847 -0.0597 -0.1479  0.0153
 5204SOL     OW17211   5.801   2.685   6.578 -0.5413 -0.7518  0.4881
 5204SOL    HW117212   5.799   2.780   6.549 -0.2350 -1.0899 -0.7004
 5204SOL    HW217213   5.881   2.668   6.635  0.1024 -0.5834 -0.3538
 5205SOL     OW17214   3.269   6.702   2.206  0.5602 -0.5660  0.6335
 5205SOL    HW117215   3.217   6.724   2.124 -0.8917 -0.6284  1.5117
 5205SOL    HW217216   3.366   6.725   2.192  0.2580 -0.1823 -0.9208
 5206SOL     OW17217   0.277   5.256   4.759  0.1622  0.2121 -0.0084
 5206SOL    HW117218   0.253   5.298   4.846  0.6533 -0.4006  0.4368
 5206SOL    HW217219   0.194   5.233   4.709 -0.1218  0.8018  0.1742
 5207SOL     OW17220   3.197   2.504   6.079 -0.3070 -0.5196 -0.5200
 5207SOL    HW117221   3.266   2.518   6.008 -1.5698  0.2390 -1.6553
 5207SOL    HW217222   3.220   2.559   6.160  1.5263 -1.9409 -0.0131
 5208SOL     OW17223   4.339   5.426   3.040 -0.2214  0.1166  0.2745
 5208SOL    HW117224   4.410   5.444   2.972 -2.7544  2.3184 -2.0552
 5208SOL    HW217225   4.326   5.328   3.051  2.3270 -0.3193 -0.0666
 5209SOL     OW17226   5.140   1.052   5.386  0.2716  0.2258  0.5468
 5209SOL    HW117227   5.208   1.057   5.459 -1.6400 -1.4961  2.6197
 5209SOL    HW217228   5.049   1.071   5.424 -1.0234 -2.3768 -0.9190
 5210SOL     OW17229   3.408   1.148   0.081 -0.0058  0.3871  0.9884
 5210SOL    HW117230   3.391   1.091   0.000 -1.8807 -0.5826  1.9980
 5210SOL    HW217231   3.498   1.191   0.073  0.8820 -1.5667 -0.5152
 5211SOL     OW17232   2.339   6.895   1.488 -0.8108  0.3647 -0.0609
 5211SOL    HW117233   2.369   6.829   1.419 -0.4961 -0.4239  0.8119
 5211SOL    HW217234   2.248   6.928   1.465 -0.9015 -0.2384 -0.6071
 5212SOL     OW17235   0.582   1.685   0.617 -0.1800  0.7146  0.4293
 5212SOL    HW117236   0.586   1.768   0.561  1.6872  1.4703  1.5722
 5212SOL    HW217237   0.497   1.684   0.669 -0.3090  1.8410  0.2729
 5213SOL     OW17238   4.605   2.696   5.943  0.4163  0.6729  0.2247
 5213SOL    HW117239   4.520   2.712   5.994  1.2937  2.0313  1.3382
 5213SOL    HW217240   4.583   2.660   5.853 -1.1687 -2.8674  1.8391
 5214SOL     OW17241   1.059   1.616   1.719  0.3211 -0.4464 -0.3060
 5214SOL    HW117242   1.018   1.582   1.635 -0.8114  1.6830 -0.6567
 5214SOL    HW217243   1.139   1.560   1.741  0.7639 -0.9464 -2.8761
 5215SOL     OW17244   4.682   1.255   5.429  0.4088 -0.0221 -0.1129
 5215SOL    HW117245   4.761   1.195   5.428  0.2129 -0.2776 -1.3387
 5215SOL    HW217246   4.598   1.201   5.430  0.2115  0.2343  2.3742
 5216SOL     OW17247   4.053   6.565   5.474  0.0008  0.1864  0.2546
 5216SOL    HW117248   3.967   6.610   5.450  0.7301  0.5302 -1.9635
 5216SOL    HW217249   4.122   6.634   5.496 -0.1643 -0.0773  1.7030
 5217SOL     OW17250   3.108   6.661   0.893 -0.3677 -0.6577  0.1902
 5217SOL    HW117251   3.176   6.674   0.965 -0.2320 -1.4497  0.2112
 5217SOL    HW217252   3.034   6.727   0.904 -0.0059 -0.3219  0.6412
 5218SOL     OW17253   4.992   0.018   5.962 -0.1947 -0.1054  0.0515
 5218SOL    HW117254   5.055   0.013   6.040  0.1730 -1.1325 -0.2997
 5218SOL    HW217255   4.976   0.114   5.938 -0.2963  0.2318  1.3743
 5219SOL     OW17256   6.193   3.243   3.335  0.0698  0.2924  0.0073
 5219SOL    HW117257   6.149   3.316   3.387 -0.8849 -1.0659  1.1831
 5219SOL    HW217258   6.133   3.213   3.261 -0.9215 -1.3254  1.3992
 5220SOL     OW17259   2.859   3.070   3.076  0.3752  0.3318 -0.4303
 5220SOL    HW117260   2.956   3.045   3.075  0.4605  0.5788  0.5568
 5220SOL    HW217261   2.817   3.037   3.160 -0.3036  0.5972 -0.6560
 5221SOL     OW17262   3.885   5.457   1.747 -0.2725 -0.3160  0.1483
 5221SOL    HW117263   3.799   5.467   1.697 -0.0511  0.4732 -0.0795
 5221SOL    HW217264   3.953   5.521   1.711  0.3441 -0.7677  0.4835
 5222SOL     OW17265   5.795   4.350   0.036 -0.9586 -0.4683 -0.5719
 5222SOL    HW117266   5.885   4.311   0.056 -0.7068  1.2156  2.0876
 5222SOL    HW217267   5.727   4.276   0.028  0.3321 -1.6651 -0.8741
 5223SOL     OW17268   6.865   0.521   5.688 -0.4290 -0.5996 -0.0446
 5223SOL    HW117269   6.857   0.581   5.767 -0.6355 -1.5759  0.6863
 5223SOL    HW217270   6.774   0.498   5.654 -0.3702 -1.0267  0.0847
 5224SOL     OW17271   4.524   6.835   0.987 -0.3007 -0.0348  0.7960
 5224SOL    HW117272   4.465   6.756   0.972 -0.8718  0.3200  1.1021
 5224SOL    HW217273   4.600   6.833   0.923  1.1733 -2.2195  2.4856
 5225SOL     OW17274   5.785   5.347   2.324  0.0229 -0.2630  0.5150
 5225SOL    HW117275   5.855   5.280   2.349  1.8218  1.1810 -0.4071
 5225SOL    HW217276   5.697   5.320   2.363  0.9146 -2.5590  1.0562
 5226SOL     OW17277   1.122   4.504   2.167  0.2461  0.4660 -0.2226
 5226SOL    HW117278   1.192   4.575   2.177 -0.0373  0.6953  0.1520
 5226SOL    HW217279   1.085   4.481   2.257  0.7457 -0.5773 -0.2648
 5227SOL     OW17280   5.667   6.709   2.102  0.2146 -0.3448  0.3934
 5227SOL    HW117281   5.570   6.719   2.126 -0.1504 -0.6982 -0.8580
 5227SOL    HW217282   5.722   6.761   2.166 -0.7955 -0.2410  1.2117
 5228SOL     OW17283   6.924   3.155   3.095 -0.2521  0.1792  0.2594
 5228SOL    HW117284   6.905   3.251   3.070  2.3767  0.7390  0.1648
 5228SOL    HW217285   6.885   3.136   3.185  1.1854  2.1059  1.3520
 5229SOL     OW17286   1.402   4.949   5.426 -0.6874  0.0447 -0.0171
 5229SOL    HW117287   1.359   5.012   5.490 -1.2079 -0.9914  0.6588
 5229SOL    HW217288   1.500   4.944   5.445 -0.4090  1.5555 -0.8548
 5230SOL     OW17289   2.637   6.508   0.257  0.3119  0.0215 -0.4769
 5230SOL    HW117290   2.717   6.490   0.314 -0.0303 -1.4317 -0.4177
 5230SOL    HW217291   2.577   6.428   0.258 -1.2056  1.1224 -0.4391
 5231SOL     OW17292   6.095   4.318   0.766  0.1215  0.6079 -0.1020
 5231SOL    HW117293   6.144   4.373   0.834  2.6654  0.1553 -1.4274
 5231SOL    HW217294   6.130   4.224   0.768 -0.1317  0.4589 -1.6562
 5232SOL     OW17295   6.508   4.852   5.658 -0.3850 -0.2417 -0.2508
 5232SOL    HW117296   6.492   4.921   5.587 -1.0145  0.8631  0.9162
 5232SOL    HW217297   6.536   4.766   5.616 -0.9573  0.3195 -1.8417
 5233SOL     OW17298   2.506   0.319   3.996  0.2904  0.3245 -0.0077
 5233SOL    HW117299   2.500   0.414   3.965 -2.9385  0.6433  1.1677
 5233SOL    HW217300   2.467   0.312   4.088  3.8825 -1.5861  1.6037
 5234SOL     OW17301   5.349   0.645   0.390  0.3501  0.0523  0.2523
 5234SOL    HW117302   5.289   0.668   0.466  2.2200  0.7154  1.6217
 5234SOL    HW217303   5.365   0.727   0.335  0.7932  0.1494  0.5141
 5235SOL     OW17304   5.422   5.807   1.644 -0.4758  0.1574 -0.3619
 5235SOL    HW117305   5.447   5.811   1.548 -1.2299 -2.0056 -0.7220
 5235SOL    HW217306   5.499   5.836   1.701  0.3138  0.5037 -1.5867
 5236SOL     OW17307   4.507   2.078   2.424 -0.2859 -0.1291  0.0442
 5236SOL    HW117308   4.446   2.067   2.345 -1.3051  1.1319  0.6361
 5236SOL    HW217309   4.601   2.090   2.391 -0.6679  0.2170 -0.9687
 5237SOL     OW17310   0.138   0.490   6.558  0.3383  1.0847  0.1859
 5237SOL    HW117311   0.146   0.412   6.620 -1.3145  1.0469  0.3953
 5237SOL    HW217312   0.073   0.467   6.485  2.7094  0.8697 -2.0180
 5238SOL     OW17313   1.466   5.426   2.046  0.0612 -0.4527 -0.2915
 5238SOL    HW117314   1.503   5.338   2.016 -0.4493 -0.6899 -0.2287
 5238SOL    HW217315   1.384   5.411   2.101  0.9269 -0.0345  1.1697
 5239SOL     OW17316   5.817   2.398   2.935  0.0086  0.0044 -0.9179
 5239SOL    HW117317   5.748   2.457   2.894 -0.8070 -0.6598 -0.5440
 5239SOL    HW217318   5.819   2.412   3.034  0.3117 -0.0816 -0.9109
 5240SOL     OW17319   1.852   4.133   5.697  0.1225 -0.0823  0.2105
 5240SOL    HW117320   1.948   4.137   5.724 -0.6995  0.6196  3.4474
 5240SOL    HW217321   1.804   4.214   5.731 -2.0770 -1.5616  0.9009
 5241SOL     OW17322   3.818   2.080   0.391  0.2597 -0.1457 -0.4468
 5241SOL    HW117323   3.901   2.096   0.444 -0.5288  0.0147  0.7800
 5241SOL    HW217324   3.764   2.163   0.387 -0.7582 -0.7429  0.4227
 5242SOL     OW17325   0.543   6.805   6.520 -0.2309  0.4729 -0.1650
 5242SOL    HW117326   0.512   6.876   6.457  0.1626 -0.7381 -1.7983
 5242SOL    HW217327   0.492   6.720   6.502  0.3880 -0.0863  0.6729
 5243SOL     OW17328   5.556   1.718   1.282  0.2799 -0.0361  1.0876
 5243SOL    HW117329   5.561   1.621   1.258 -0.0237  0.3013 -0.4384
 5243SOL    HW217330   5.510   1.728   1.371 -0.4658 -1.2390  0.8602
 5244SOL     OW17331   3.366   5.070   4.753 -0.0565  0.3662  0.4394
 5244SOL    HW117332   3.383   5.121   4.668  0.5424 -1.2139 -0.4365
 5244SOL    HW217333   3.411   5.117   4.829 -0.0414  1.4667 -0.2247
 5245SOL     OW17334   6.627   5.954   3.098  0.7405 -0.2076 -0.1807
 5245SOL    HW117335   6.652   5.862   3.070  2.0930  0.0125  0.2135
 5245SOL    HW217336   6.589   5.952   3.190  1.3115 -0.3187  0.0587
 5246SOL     OW17337   6.022   4.491   4.791 -0.0614  0.7920 -0.4078
 5246SOL    HW117338   5.991   4.555   4.862 -0.2663  1.1543 -0.8184
 5246SOL    HW217339   6.063   4.543   4.715 -1.8466  0.5886 -1.5679
 5247SOL     OW17340   0.295   5.789   0.770 -0.0197  0.1563  1.2464
 5247SOL    HW117341   0.262   5.718   0.832 -1.5878  1.0426  1.4829
 5247SOL    HW217342   0.268   5.879   0.805 -0.0358  0.7407 -0.1811
 5248SOL     OW17343   4.509   6.970   2.588 -0.1698  0.2651 -0.5380
 5248SOL    HW117344   4.477   6.946   2.680 -1.3165 -1.2594 -1.2755
 5248SOL    HW217345   4.492   7.067   2.571  0.7040  0.7449  1.0748
 5249SOL     OW17346   0.923   3.195   1.815  0.0668  0.7548 -0.3737
 5249SOL    HW117347   0.949   3.136   1.739 -0.9750  1.1311 -1.0430
 5249SOL    HW217348   0.852   3.150   1.869 -1.5838  1.8375 -1.5678
 5250SOL     OW17349   6.434   4.563   1.307 -0.4669 -0.3331  0.2041
 5250SOL    HW117350   6.391   4.634   1.253  1.9231  0.2126 -1.1218
 5250SOL    HW217351   6.408   4.473   1.272 -0.9583 -0.0485 -0.1696
 5251SOL     OW17352   5.104   4.971   6.502 -0.1670  0.0560 -0.5723
 5251SOL    HW117353   5.125   4.874   6.514 -0.8293 -0.0151  0.0450
 5251SOL    HW217354   5.186   5.018   6.470 -0.0931 -0.8638 -1.7865
 5252SOL     OW17355   4.523   6.564   0.253  0.9689  0.0863 -0.1229
 5252SOL    HW117356   4.586   6.596   0.324 -1.2162  0.8205  1.6059
 5252SOL    HW217357   4.511   6.636   0.184  0.7338  0.5861  0.4399
 5253SOL     OW17358   5.285   4.012   2.188  0.0803 -0.1501  0.8446
 5253SOL    HW117359   5.357   3.945   2.203 -0.7901 -1.4706 -0.4987
 5253SOL    HW217360   5.324   4.104   2.187  1.7267 -0.8150  0.2829
 5254SOL     OW17361   4.342   4.232   0.401  0.5013 -0.0511 -1.1575
 5254SOL    HW117362   4.323   4.327   0.377  2.0854  1.0397  1.3861
 5254SOL    HW217363   4.271   4.198   0.462  0.6108 -0.0041 -1.0003
 5255SOL     OW17364   4.567   5.646   5.759 -0.1409 -0.4167  0.5552
 5255SOL    HW117365   4.617   5.630   5.844 -1.5722  0.7926  1.6945
 5255SOL    HW217366   4.474   5.612   5.768 -0.7756  1.0897  0.0598
 5256SOL     OW17367   1.003   4.796   1.631  0.4287 -0.3947  0.0172
 5256SOL    HW117368   1.102   4.791   1.620  0.7065  1.7187  1.0271
 5256SOL    HW217369   0.960   4.820   1.543  1.0922  1.2631  0.1192
 5257SOL     OW17370   3.988   6.654   6.495 -0.0121 -0.0000  0.3381
 5257SOL    HW117371   4.033   6.567   6.474  0.4633  0.5178 -0.9382
 5257SOL    HW217372   4.041   6.729   6.454  0.2759  1.0191  2.4595
 5258SOL     OW17373   3.618   3.613   3.242  0.2117  0.0178 -0.3525
 5258SOL    HW117374   3.590   3.694   3.190  0.5265 -0.6504 -1.6136
 5258SOL    HW217375   3.541   3.579   3.296 -0.6855 -0.2687 -1.7509
 5259SOL     OW17376   6.905   2.231   3.838 -0.0702  0.6384  0.2586
 5259SOL    HW117377   6.806   2.230   3.824  0.0001 -1.3018 -0.3999
 5259SOL    HW217378   6.928   2.181   3.922  0.4427 -0.8316 -0.7085
 5260SOL     OW17379   5.882   5.309   4.105  0.1874 -0.3040  0.4601
 5260SOL    HW117380   5.785   5.289   4.089  0.1982  0.2510 -0.3503
 5260SOL    HW217381   5.899   5.406   4.087  0.7134 -0.1915  1.4998
 5261SOL     OW17382   1.414   5.901   1.641  0.0216 -0.6559  0.1517
 5261SOL    HW117383   1.383   5.977   1.699  0.5543  0.8671 -1.4549
 5261SOL    HW217384   1.478   5.844   1.693 -0.3011  0.0500  1.3691
 5262SOL     OW17385   2.706   5.078   6.244  0.5521  0.0054 -0.3149
 5262SOL    HW117386   2.784   5.132   6.211  0.3502 -0.2765 -1.2844
 5262SOL    HW217387   2.733   4.981   6.249  0.5944  0.0527  0.4031
 5263SOL     OW17388   6.946   5.422   0.192 -0.0954 -0.3337  0.1456
 5263SOL    HW117389   7.017   5.376   0.245 -0.1833  0.0132  0.5704
 5263SOL    HW217390   6.875   5.357   0.167  0.4135 -0.7082 -0.3634
 5264SOL     OW17391   6.306   0.030   1.548  0.1429 -1.0401  0.0007
 5264SOL    HW117392   6.344  -0.013   1.630  0.8416 -0.8983 -0.2361
 5264SOL    HW217393   6.268   0.119   1.571 -4.1345 -2.9039  1.1268
 5265SOL     OW17394   4.604   2.242   2.889  0.2323  0.5787 -0.4065
 5265SOL    HW117395   4.528   2.235   2.955  0.2200 -1.1474 -0.5578
 5265SOL    HW217396   4.567   2.261   2.798  0.1216  1.3532 -0.2069
 5266SOL     OW17397   4.204   2.273   6.515  0.2441  0.8744 -0.0445
 5266SOL    HW117398   4.293   2.290   6.472 -0.6819  0.8606 -2.1174
 5266SOL    HW217399   4.133   2.321   6.464 -0.9270  1.1194  1.7507
 5267SOL     OW17400   5.648   4.468   5.509 -0.2240  0.5045 -0.0559
 5267SOL    HW117401   5.662   4.409   5.429 -0.0795 -0.0937  0.4046
 5267SOL    HW217402   5.592   4.547   5.483  1.0992  1.1321 -1.1069
 5268SOL     OW17403   2.186   1.182   0.642  0.2176 -0.1080 -0.0236
 5268SOL    HW117404   2.237   1.103   0.678 -0.0411 -0.2683 -0.0031
 5268SOL    HW217405   2.180   1.252   0.713  0.1569 -0.2101  0.0735
 5269SOL     OW17406   1.372   3.550   4.098  0.5746 -0.4559 -0.2845
 5269SOL    HW117407   1.371   3.572   4.195  0.0401  2.4253 -0.8579
 5269SOL    HW217408   1.279   3.542   4.064  0.6086  1.7155 -1.0983
 5270SOL     OW17409   5.892   0.228   1.430 -0.5290 -0.3025 -0.1965
 5270SOL    HW117410   5.904   0.129   1.438 -0.3953 -0.4701 -2.1298
 5270SOL    HW217411   5.834   0.249   1.351 -1.6433  1.1246  0.9429
 5271SOL     OW17412   2.244   2.172   2.369  0.0793 -0.1589 -0.3731
 5271SOL    HW117413   2.209   2.238   2.303 -1.1794  0.0445  0.4614
 5271SOL    HW217414   2.321   2.212   2.418 -1.7269  1.4551  1.3424
 5272SOL     OW17415   2.386   4.705   1.268 -0.5322  0.0843  0.4955
 5272SOL    HW117416   2.339   4.735   1.351 -2.6526 -0.3306 -0.4968
 5272SOL    HW217417   2.426   4.614   1.284 -0.7033  0.1169  1.1357
 5273SOL     OW17418   5.108   0.188   0.466 -0.2783 -0.3518 -0.5985
 5273SOL    HW117419   5.107   0.202   0.367 -0.3703  0.8015 -0.4475
 5273SOL    HW217420   5.148   0.268   0.511 -2.3057  0.1807  0.4219
 5274SOL     OW17421   2.371   2.864   4.706  0.2598  0.2693  0.8653
 5274SOL    HW117422   2.342   2.860   4.801  0.2931 -0.7342  0.8435
 5274SOL    HW217423   2.452   2.807   4.693 -0.2382 -0.2740  0.0638
 5275SOL     OW17424   4.312   5.582   6.593  0.4512  0.0403 -0.8252
 5275SOL    HW117425   4.223   5.601   6.635  1.7978  0.4818  2.0617
 5275SOL    HW217426   4.368   5.665   6.593  1.5427 -0.6715 -0.7335
 5276SOL     OW17427   4.026   0.339   0.845 -0.0762  0.1127  0.4606
 5276SOL    HW117428   3.952   0.406   0.848 -1.4180 -1.2062 -0.9694
 5276SOL    HW217429   3.990   0.252   0.808  2.2330 -0.5220 -0.4552
 5277SOL     OW17430   4.593   6.856   5.509  0.1550  0.0069  0.0983
 5277SOL    HW117431   4.533   6.935   5.524 -0.2783 -0.4693  1.0016
 5277SOL    HW217432   4.555   6.777   5.557  1.2793 -0.4135  0.3098
 5278SOL     OW17433   5.268   6.019   0.044  0.0595 -0.1306  0.4527
 5278SOL    HW117434   5.227   6.107   0.019 -1.4709 -0.8259  0.4213
 5278SOL    HW217435   5.216   5.945   0.001 -0.2878 -1.1716  2.5561
 5279SOL     OW17436   5.091   1.804   3.979  0.0244  0.2798 -0.3268
 5279SOL    HW117437   5.040   1.889   3.962 -0.8908 -0.3619 -0.9174
 5279SOL    HW217438   5.126   1.769   3.892 -0.0800 -0.2400 -0.1588
 5280SOL     OW17439   0.742   5.183   2.046  0.0127  0.4247  0.0603
 5280SOL    HW117440   0.687   5.100   2.039  0.0701  0.2652  1.2756
 5280SOL    HW217441   0.731   5.223   2.138 -1.0752  2.5018 -0.8914
 5281SOL     OW17442   0.459   5.404   6.869  0.4847  0.0855  0.4671
 5281SOL    HW117443   0.517   5.384   6.948  0.3796  0.1258  0.5545
 5281SOL    HW217444   0.363   5.396   6.895  0.4065 -3.0087 -0.4325
 5282SOL     OW17445   1.141   0.331   4.555  0.5037  0.2543  0.0904
 5282SOL    HW117446   1.117   0.328   4.652 -2.6296  1.4705 -0.5218
 5282SOL    HW217447   1.210   0.262   4.536 -0.0628 -1.2322  2.8672
 5283SOL     OW17448   0.520   0.609   4.455  0.3039  0.2971 -0.5020
 5283SOL    HW117449   0.434   0.646   4.420  1.2308  1.7138 -1.3949
 5283SOL    HW217450   0.506   0.575   4.548 -1.5288 -0.7817 -1.1181
 5284SOL     OW17451   1.657   0.677   0.832 -0.1100  0.6961 -0.4359
 5284SOL    HW117452   1.724   0.619   0.786 -0.5335 -1.3836  1.4051
 5284SOL    HW217453   1.565   0.646   0.810 -0.4484  2.0756 -1.0985
 5285SOL     OW17454   3.996   5.062   5.957  0.2207 -0.1766 -0.1116
 5285SOL    HW117455   4.076   5.086   5.902 -0.1233  0.6352 -0.2750
 5285SOL    HW217456   3.923   5.027   5.897  0.3913 -0.7641  0.0183
 5286SOL     OW17457   5.838   0.562   2.715  0.0041 -0.0222  0.0151
 5286SOL    HW117458   5.815   0.641   2.772 -1.1228 -0.6615  0.4688
 5286SOL    HW217459   5.933   0.571   2.683  0.6116  0.4251  1.8445
 5287SOL     OW17460   4.543   4.775   4.167  0.4308  0.3934 -0.0509
 5287SOL    HW117461   4.482   4.699   4.186  2.6653 -1.5102  0.0242
 5287SOL    HW217462   4.605   4.789   4.245 -0.8535  3.3327  0.5681
 5288SOL     OW17463   0.691   1.942   0.428 -0.0300 -0.2852  0.3032
 5288SOL    HW117464   0.637   2.004   0.371 -2.9521 -0.9235  2.1155
 5288SOL    HW217465   0.721   1.864   0.374 -1.8003 -0.3662 -0.6426
 5289SOL     OW17466   6.902   4.302   6.379 -0.5155  0.6063  0.1811
 5289SOL    HW117467   6.860   4.233   6.437  0.0397  2.1382  2.5611
 5289SOL    HW217468   6.846   4.385   6.380 -0.0258  0.9639 -0.7493
 5290SOL     OW17469   0.138   6.561   3.669  0.0008 -0.0476 -0.3712
 5290SOL    HW117470   0.162   6.578   3.764 -1.1112  0.0249 -0.0838
 5290SOL    HW217471   0.220   6.562   3.612  0.4683  2.1076  0.2608
 5291SOL     OW17472   4.616   0.176   4.447  0.0204 -0.0542 -0.3079
 5291SOL    HW117473   4.715   0.166   4.457  0.0835  0.5368 -0.2974
 5291SOL    HW217474   4.575   0.088   4.426  0.4138 -0.5304  0.8370
 5292SOL     OW17475   0.292   1.704   6.858  0.2253  0.3533 -0.1265
 5292SOL    HW117476   0.378   1.680   6.814  1.2267  2.5052  0.5350
 5292SOL    HW217477   0.299   1.688   6.956 -0.2489  0.2452 -0.1054
 5293SOL     OW17478   3.206   0.695   5.706 -0.9917  0.0426 -0.2423
 5293SOL    HW117479   3.127   0.751   5.680 -0.4453  0.3320 -1.3671
 5293SOL    HW217480   3.214   0.617   5.644 -0.8050 -0.3839  0.3073
 5294SOL     OW17481   3.637   5.812   4.370  0.1134 -0.4617 -0.0810
 5294SOL    HW117482   3.621   5.772   4.460 -2.4235 -1.4098 -0.8668
 5294SOL    HW217483   3.696   5.751   4.316  1.7256  0.1600  0.8968
 5295SOL     OW17484   5.370   0.845   6.262  0.3054 -0.3419 -0.0201
 5295SOL    HW117485   5.418   0.758   6.263  0.1491 -0.4281  0.0631
 5295SOL    HW217486   5.356   0.874   6.167 -0.7200 -1.0158 -0.1034
 5296SOL     OW17487   6.613   5.693   2.611 -0.1897 -0.0283 -0.4810
 5296SOL    HW117488   6.551   5.657   2.681  0.9307 -0.7747  0.1612
 5296SOL    HW217489   6.591   5.650   2.523  0.2011 -1.2357 -0.0099
 5297SOL     OW17490   4.723   2.769   6.295 -0.1322  0.2155 -0.1156
 5297SOL    HW117491   4.766   2.688   6.255 -1.4116 -1.1491  1.1321
 5297SOL    HW217492   4.670   2.817   6.225  0.7902  0.0985 -0.9146
 5298SOL     OW17493   2.624   2.864   3.604 -0.6495  0.2816  0.2077
 5298SOL    HW117494   2.629   2.843   3.507 -0.8616  0.1727  0.2211
 5298SOL    HW217495   2.529   2.878   3.631 -0.5455  0.9337  0.2663
 5299SOL     OW17496   5.439   3.742   6.946  0.6385 -0.3206  0.2072
 5299SOL    HW117497   5.395   3.713   7.031  0.0886 -2.0147 -0.6147
 5299SOL    HW217498   5.372   3.744   6.872  1.7227 -2.2974 -0.9241
 5300SOL     OW17499   6.140   5.057   5.153  0.4626  0.0619  0.0754
 5300SOL    HW117500   6.154   5.128   5.084 -0.0029 -0.0320 -0.1164
 5300SOL    HW217501   6.044   5.030   5.155  0.5353 -0.1746  0.5304
 5301SOL     OW17502   6.422   2.892   5.879  0.3319 -0.4583  0.0983
 5301SOL    HW117503   6.479   2.901   5.797 -0.4174 -0.4062 -0.4218
 5301SOL    HW217504   6.330   2.865   5.853  0.5290 -2.2152  1.0642
 5302SOL     OW17505   5.094   1.434   3.897  0.3071 -0.1839 -0.5347
 5302SOL    HW117506   5.022   1.393   3.952 -0.4827  2.5276  0.6506
 5302SOL    HW217507   5.177   1.443   3.952  0.9663 -1.4688 -1.2642
 5303SOL     OW17508   0.501   6.484   5.883 -0.0416  0.2322 -0.3353
 5303SOL    HW117509   0.523   6.561   5.944 -2.5310  1.7329 -1.2161
 5303SOL    HW217510   0.584   6.429   5.870  1.8709  2.7185  0.3433
 5304SOL     OW17511   2.251   3.302   5.170  0.5149 -0.4749 -0.8135
 5304SOL    HW117512   2.350   3.294   5.176  0.5640 -0.0502 -1.0652
 5304SOL    HW217513   2.209   3.262   5.252  0.9753  1.0461  0.1895
 5305SOL     OW17514   1.931   0.189   4.222 -0.0669 -0.3715 -0.0057
 5305SOL    HW117515   1.922   0.245   4.305 -2.6960  0.0267 -0.4650
 5305SOL    HW217516   2.028   0.178   4.200  0.6360  1.6031  1.6977
 5306SOL     OW17517   0.246   4.423   5.505  0.1663 -0.3296 -0.1746
 5306SOL    HW117518   0.329   4.479   5.512  1.1577 -1.7292 -0.3761
 5306SOL    HW217519   0.167   4.476   5.536  1.4131  0.3973  1.8834
 5307SOL     OW17520   3.573   3.997   2.040  0.0166 -0.0198 -0.3152
 5307SOL    HW117521   3.548   3.951   1.954  0.1547  1.0239 -0.9270
 5307SOL    HW217522   3.664   4.037   2.031 -0.1219  0.4185  0.1882
 5308SOL     OW17523   6.144   4.018   3.791  0.7066 -0.0590 -0.1457
 5308SOL    HW117524   6.085   3.938   3.802 -0.7727  0.8063 -1.4936
 5308SOL    HW217525   6.098   4.099   3.826  2.2897  0.2447  1.4391
 5309SOL     OW17526   3.081   6.188   2.751 -0.1909 -0.5652  0.5878
 5309SOL    HW117527   3.146   6.259   2.779  0.3756 -0.8308 -0.0604
 5309SOL    HW217528   2.989   6.228   2.749 -0.1057 -0.2591  1.7717
 5310SOL     OW17529   4.254   6.474   0.190  0.0220 -0.2906  0.4667
 5310SOL    HW117530   4.195   6.512   0.261 -1.1158  0.1544 -0.6692
 5310SOL    HW217531   4.343   6.520   0.192 -0.5151  0.7659  0.6542
 5311SOL     OW17532   2.704   0.835   6.293 -0.0740 -0.2136  0.6223
 5311SOL    HW117533   2.776   0.901   6.271  0.3613 -0.3759  1.5387
 5311SOL    HW217534   2.616   0.870   6.259  0.4329 -0.0591 -0.5729
 5312SOL     OW17535   1.722   1.254   3.896 -0.2679 -0.5948  0.2297
 5312SOL    HW117536   1.665   1.204   3.831 -0.9781 -0.0075  0.3850
 5312SOL    HW217537   1.701   1.225   3.989 -1.1147  0.3938  0.3643
 5313SOL     OW17538   5.375   5.115   3.946 -0.0304  0.0466  0.7623
 5313SOL    HW117539   5.394   5.193   3.886 -1.2788  0.7641  1.2668
 5313SOL    HW217540   5.452   5.051   3.943  0.3803  0.5710 -0.7947
 5314SOL     OW17541   0.133   3.104   0.927 -0.2459 -0.6920  0.0847
 5314SOL    HW117542   0.038   3.134   0.927  0.1173  0.5237  0.3205
 5314SOL    HW217543   0.159   3.072   0.835 -0.6217 -0.1807 -0.2000
 5315SOL     OW17544   0.221   3.570   5.983 -0.1669  0.2249 -0.0501
 5315SOL    HW117545   0.274   3.639   6.032  0.1611  0.8738 -1.2604
 5315SOL    HW217546   0.205   3.602   5.889 -3.3418  0.4201  0.4494
 5316SOL     OW17547   3.219   4.385   6.964  0.4021  0.4488 -0.0662
 5316SOL    HW117548   3.265   4.327   6.896  0.2278  1.1569 -0.8081
 5316SOL    HW217549   3.136   4.338   6.996 -0.5080  0.8492 -1.7102
 5317SOL     OW17550   6.413   2.689   3.126  0.2424  0.2369 -0.4934
 5317SOL    HW117551   6.358   2.611   3.097 -0.4568 -0.0094  1.3699
 5317SOL    HW217552   6.383   2.719   3.217  1.6190  1.6140 -0.4570
 5318SOL     OW17553   1.249   4.739   2.971 -0.5210  0.1563  0.4463
 5318SOL    HW117554   1.348   4.722   2.966 -0.7824 -1.7716  0.9845
 5318SOL    HW217555   1.216   4.771   2.883  0.1693 -1.8379 -0.6021
 5319SOL     OW17556   3.364   4.828   1.566  0.0358  0.0402 -0.3606
 5319SOL    HW117557   3.400   4.767   1.496 -0.0807 -0.1162 -0.2819
 5319SOL    HW217558   3.373   4.923   1.535 -0.9157 -0.0735 -0.9983
 5320SOL     OW17559   0.848   6.985   5.790 -0.1293  0.9202 -0.1965
 5320SOL    HW117560   0.767   6.994   5.731 -0.5297  0.8624  0.3413
 5320SOL    HW217561   0.926   7.029   5.746 -0.2301  0.1861 -1.1479
 5321SOL     OW17562   1.472   2.137   3.708  0.3644  0.8291  0.4516
 5321SOL    HW117563   1.406   2.071   3.742 -0.2155  0.9509 -0.4235
 5321SOL    HW217564   1.560   2.122   3.753  1.6551 -3.5956 -2.8589
 5322SOL     OW17565   1.818   5.475   2.528 -0.3831 -0.4797  0.4411
 5322SOL    HW117566   1.791   5.480   2.624  0.6349 -1.3725  0.8019
 5322SOL    HW217567   1.906   5.428   2.521 -0.0288  0.3219 -0.8635
 5323SOL     OW17568   3.111   2.290   1.601 -0.4020  0.4876 -0.2108
 5323SOL    HW117569   3.150   2.205   1.565 -1.5941 -0.1914  0.0351
 5323SOL    HW217570   3.042   2.324   1.537  0.0350  1.2667 -0.2857
 5324SOL     OW17571   6.238   2.893   1.736  0.1448  0.0262 -0.2924
 5324SOL    HW117572   6.295   2.814   1.756 -1.6724 -1.5594 -1.0517
 5324SOL    HW217573   6.232   2.906   1.637 -1.0960 -0.0876 -0.2506
 5325SOL     OW17574   1.918   2.741   1.646 -0.1094 -0.2369 -0.2665
 5325SOL    HW117575   1.904   2.649   1.610  1.0052  0.5032 -2.7732
 5325SOL    HW217576   1.905   2.740   1.745 -0.9760 -2.8863 -0.3314
 5326SOL     OW17577   6.289   2.693   6.593 -0.1029 -0.4386  0.2881
 5326SOL    HW117578   6.379   2.731   6.615 -0.3923  1.1020 -1.0225
 5326SOL    HW217579   6.282   2.600   6.629  1.3268  0.0726  2.0030
 5327SOL     OW17580   0.795   6.053   2.340 -0.5092 -0.1495 -0.0092
 5327SOL    HW117581   0.739   5.988   2.289 -2.1579  0.9265  0.3515
 5327SOL    HW217582   0.840   6.116   2.276 -0.3427 -0.5333 -0.2694
 5328SOL     OW17583   3.117   5.630   3.304  0.5225  0.0369 -0.2880
 5328SOL    HW117584   3.140   5.533   3.296 -0.9525 -0.2258 -1.7020
 5328SOL    HW217585   3.109   5.654   3.401 -0.1354 -1.5069  0.0640
 5329SOL     OW17586   4.221   6.910   1.004  0.4896 -0.0375 -0.1072
 5329SOL    HW117587   4.182   6.966   1.076  1.1065  1.2822 -0.7747
 5329SOL    HW217588   4.301   6.860   1.040  0.0572 -0.3512  0.4305
 5330SOL     OW17589   3.651   1.161   6.567  0.4636 -0.5053  0.0019
 5330SOL    HW117590   3.553   1.157   6.585  0.6197 -2.7917  0.5607
 5330SOL    HW217591   3.666   1.176   6.469 -0.3583  3.3009  0.2838
 5331SOL     OW17592   4.010   4.598   0.232 -0.1930 -0.2109 -0.0873
 5331SOL    HW117593   3.933   4.648   0.271 -1.6590 -1.1410 -1.6252
 5331SOL    HW217594   4.007   4.503   0.264  1.4194  0.1428  1.2591
 5332SOL     OW17595   6.360   0.021   5.186  0.0407  0.0804 -0.5411
 5332SOL    HW117596   6.402  -0.005   5.099 -1.4125 -0.1309 -1.2200
 5332SOL    HW217597   6.414  -0.016   5.261  0.8568 -0.4694 -1.3699
 5333SOL     OW17598   5.553   6.386   1.732  0.0166 -0.2326  0.1099
 5333SOL    HW117599   5.541   6.472   1.782 -1.3619 -0.5395  0.3599
 5333SOL    HW217600   5.621   6.329   1.777 -1.1735 -0.4935  1.6783
 5334SOL     OW17601   5.193   6.254   0.430 -0.3160 -0.1071 -1.2154
 5334SOL    HW117602   5.146   6.216   0.510 -0.3393 -0.9551 -1.6230
 5334SOL    HW217603   5.244   6.182   0.384  0.4414  0.5727 -1.4487
 5335SOL     OW17604   5.303   2.432   2.180  0.2257  0.0515  0.0499
 5335SOL    HW117605   5.259   2.431   2.270  0.4834 -0.3997  0.1724
 5335SOL    HW217606   5.285   2.345   2.133 -0.7944  0.6749 -0.7719
 5336SOL     OW17607   6.349   3.925   0.070  0.9904 -0.7386  0.3504
 5336SOL    HW117608   6.387   3.927   0.162 -0.5656  0.7335  1.0086
 5336SOL    HW217609   6.389   3.999   0.015 -0.2992  0.3410  0.8188
 5337SOL     OW17610   6.227   3.036   2.983  0.0306  0.2348 -0.1679
 5337SOL    HW117611   6.224   2.948   2.937  0.3851  0.4205 -0.5525
 5337SOL    HW217612   6.310   3.042   3.039  1.2336  1.2130 -1.9729
 5338SOL     OW17613   5.415   5.534   0.800 -0.2669  0.0262  0.1052
 5338SOL    HW117614   5.499   5.484   0.778 -0.4142 -0.1635 -0.0377
 5338SOL    HW217615   5.372   5.564   0.715  0.4036  1.3858  0.2276
 5339SOL     OW17616   0.000   2.873   3.104 -0.1740 -0.1939 -0.5661
 5339SOL    HW117617  -0.054   2.794   3.076 -0.4720 -0.8621  1.6819
 5339SOL    HW217618  -0.038   2.956   3.063 -1.8579 -0.8552 -0.3943
 5340SOL     OW17619   0.885   6.287   5.344  0.1424  0.1229 -0.0654
 5340SOL    HW117620   0.848   6.349   5.414  0.9436  0.8746 -0.2899
 5340SOL    HW217621   0.812   6.264   5.279 -0.4135  0.0263  0.5746
 5341SOL     OW17622   4.950   1.199   6.752 -0.2158 -0.1017  0.2094
 5341SOL    HW117623   4.855   1.226   6.768  0.5221  1.7289  1.8894
 5341SOL    HW217624   4.963   1.105   6.784 -1.2928 -0.1065  0.6920
 5342SOL     OW17625   5.851   3.937   0.610 -0.2549  0.3538 -0.4068
 5342SOL    HW117626   5.864   3.944   0.511 -0.3493  2.4073 -0.3018
 5342SOL    HW217627   5.832   3.841   0.633  0.8418 -0.3771 -2.2165
 5343SOL     OW17628   2.563   1.807   1.548 -0.1905  0.4362  0.0355
 5343SOL    HW117629   2.653   1.769   1.527 -0.2338 -0.0490  0.6734
 5343SOL    HW217630   2.510   1.818   1.464  0.9348  1.9938 -0.5269
 5344SOL     OW17631   3.891   4.917   2.135  0.0313  0.4476  0.1110
 5344SOL    HW117632   3.867   4.861   2.056  0.2119 -0.7472  0.8793
 5344SOL    HW217633   3.819   4.983   2.153  1.3580  3.0118 -2.9877
 5345SOL     OW17634   5.119   0.528   0.253  0.3727  0.1419  0.1080
 5345SOL    HW117635   5.164   0.440   0.237 -0.3949 -0.2184 -0.0983
 5345SOL    HW217636   5.125   0.584   0.170 -0.3617 -0.2663 -0.2203
 5346SOL     OW17637   4.492   5.101   2.283 -0.6993 -0.0469 -0.2054
 5346SOL    HW117638   4.495   5.099   2.383 -1.8082 -0.1793 -0.1622
 5346SOL    HW217639   4.578   5.066   2.246  0.1907  1.0944  0.7012
 5347SOL     OW17640   6.798   6.378   1.580 -0.2101  0.3691  0.6435
 5347SOL    HW117641   6.750   6.449   1.632  0.6807  0.7581  0.9633
 5347SOL    HW217642   6.772   6.288   1.614 -0.1733  0.5970  1.2819
 5348SOL     OW17643   1.619   2.433   3.530  0.3746 -0.2941  0.3840
 5348SOL    HW117644   1.640   2.397   3.621 -0.5619 -1.5336  0.1265
 5348SOL    HW217645   1.658   2.373   3.461  1.6745  1.0069 -0.0708
 5349SOL     OW17646   6.694   3.341   4.672  0.3112  0.4920  1.0020
 5349SOL    HW117647   6.599   3.360   4.651  0.5025 -0.5589 -1.0228
 5349SOL    HW217648   6.753   3.376   4.599  1.2070 -1.3298  0.7828
 5350SOL     OW17649   1.150   6.036   2.246  0.3950  0.1374  0.0242
 5350SOL    HW117650   1.071   6.032   2.184  0.1228 -0.1097  0.3852
 5350SOL    HW217651   1.211   5.959   2.228  0.2161 -0.0455  0.1925
 5351SOL     OW17652   2.980   3.191   0.896  0.1433  0.0238  0.5001
 5351SOL    HW117653   3.008   3.185   0.992  0.1547  1.3651  0.5872
 5351SOL    HW217654   2.880   3.193   0.891  0.1418 -0.1033  0.4795
 5352SOL     OW17655   4.052   6.119   4.373 -0.0749 -0.3728  0.2714
 5352SOL    HW117656   3.964   6.080   4.400 -0.9280  1.6430  0.5478
 5352SOL    HW217657   4.109   6.133   4.454 -0.0612 -0.3486  0.2577
 5353SOL     OW17658   6.520   5.967   2.641 -0.1357  0.3221 -0.2316
 5353SOL    HW117659   6.479   5.942   2.729  1.3792 -1.7264 -0.0259
 5353SOL    HW217660   6.581   5.894   2.611  1.0119  1.8980 -1.9784
 5354SOL     OW17661   5.664   3.398   4.809 -0.1564 -0.2253  0.0187
 5354SOL    HW117662   5.611   3.471   4.852  0.7387  0.5913 -0.2159
 5354SOL    HW217663   5.678   3.420   4.713  2.2992  0.6539  0.4964
 5355SOL     OW17664   3.982   1.206   4.411 -0.4518 -1.1752  0.6207
 5355SOL    HW117665   3.960   1.109   4.402 -1.2805 -0.8767 -0.8671
 5355SOL    HW217666   3.915   1.250   4.469  0.2840 -1.5851  1.8238
 5356SOL     OW17667   4.069   6.735   0.216  0.1453 -0.0589 -0.1400
 5356SOL    HW117668   4.108   6.773   0.300 -1.8950  1.9409  0.0039
 5356SOL    HW217669   4.126   6.763   0.138  0.0387  1.3155  0.2386
 5357SOL     OW17670   2.454   4.863   5.763 -0.3348 -0.2255  0.3716
 5357SOL    HW117671   2.531   4.810   5.798 -0.8197  0.1188  2.0366
 5357SOL    HW217672   2.481   4.959   5.752 -0.9325  0.2602  2.6043
 5358SOL     OW17673   0.169   5.756   6.469 -0.1742  0.9832  0.6520
 5358SOL    HW117674   0.214   5.736   6.556 -1.2473 -3.3551  0.4635
 5358SOL    HW217675   0.237   5.792   6.404  2.2091 -1.5318  1.5297
 5359SOL     OW17676   5.746   3.059   4.913 -0.3381 -0.8549  0.4715
 5359SOL    HW117677   5.650   3.085   4.901 -0.7834 -2.7762 -0.5424
 5359SOL    HW217678   5.791   3.056   4.824  1.1810  1.5921  1.0491
 5360SOL     OW17679   2.809   1.678   1.521 -0.4209  0.2758 -0.3655
 5360SOL    HW117680   2.779   1.585   1.498 -0.6946 -0.5808  2.9858
 5360SOL    HW217681   2.884   1.674   1.587  1.0791  2.5011 -1.7919
 5361SOL     OW17682   0.214   5.059   3.024  0.5065  0.3590  0.6820
 5361SOL    HW117683   0.234   5.019   2.935  0.0843  1.0837  0.2619
 5361SOL    HW217684   0.206   5.158   3.016  0.2360  0.4126  1.4874
 5362SOL     OW17685   4.364   5.731   4.007 -0.2272 -0.4285 -0.3894
 5362SOL    HW117686   4.268   5.755   4.016  0.5880  2.8675  1.1854
 5362SOL    HW217687   4.383   5.699   3.914 -2.5188  0.5335 -1.2421
 5363SOL     OW17688   2.158   1.741   0.536  0.1399 -1.2849  0.2888
 5363SOL    HW117689   2.218   1.692   0.473 -0.1806 -1.6887  0.2908
 5363SOL    HW217690   2.167   1.840   0.521 -0.5772 -1.3898 -1.0045
 5364SOL     OW17691   4.276   0.522   0.074  0.0023  1.0030  0.3970
 5364SOL    HW117692   4.276   0.527   0.174  2.1679 -0.8289  0.5604
 5364SOL    HW217693   4.338   0.450   0.044  0.1689  2.1579 -2.3280
 5365SOL     OW17694   6.293   1.261   2.336 -0.0068  0.0345 -0.1916
 5365SOL    HW117695   6.306   1.186   2.271 -0.5902 -0.9790  0.8283
 5365SOL    HW217696   6.199   1.296   2.329  0.0769  0.2554 -0.2318
 5366SOL     OW17697   3.279   4.596   4.326  0.2792  0.0585 -0.4795
 5366SOL    HW117698   3.195   4.646   4.308 -0.9389 -1.8692 -0.3941
 5366SOL    HW217699   3.287   4.577   4.424 -0.0379 -1.1846 -0.6862
 5367SOL     OW17700   3.088   4.783   4.308  0.8401 -0.2539 -0.7522
 5367SOL    HW117701   3.005   4.785   4.365  0.7135  0.2319 -0.9539
 5367SOL    HW217702   3.065   4.812   4.215  0.9069 -1.6812 -1.2447
 5368SOL     OW17703   0.166   0.845   4.941 -0.6835  0.1277 -0.1812
 5368SOL    HW117704   0.074   0.883   4.951 -1.1977 -0.7747 -1.2048
 5368SOL    HW217705   0.174   0.763   4.997 -1.4958 -1.4087 -2.1892
 5369SOL     OW17706   6.012   3.273   6.034  0.0400  0.2665  0.4478
 5369SOL    HW117707   6.079   3.264   6.108  0.1195  2.0925  0.6527
 5369SOL    HW217708   6.054   3.245   5.947 -0.1473 -2.1825  1.0633
 5370SOL     OW17709   1.920   1.630   5.980 -0.4629  0.3208 -0.2802
 5370SOL    HW117710   1.993   1.562   5.969 -0.2449  0.5510 -0.2621
 5370SOL    HW217711   1.959   1.722   5.975 -0.7143  0.4432 -0.0073
 5371SOL     OW17712   1.634   5.018   5.574  0.2775  0.2007 -0.1957
 5371SOL    HW117713   1.699   4.946   5.599  0.2203 -0.1062 -0.9256
 5371SOL    HW217714   1.563   5.024   5.644  0.0459 -0.7368 -0.3414
 5372SOL     OW17715   0.907   2.826   5.856  0.6466  0.0450  0.3242
 5372SOL    HW117716   0.825   2.838   5.799  0.1408 -0.1750  0.9964
 5372SOL    HW217717   0.974   2.771   5.806 -0.1517 -0.9200  0.2786
 5373SOL     OW17718   4.565   5.624   5.335 -0.4984  0.4123 -0.1038
 5373SOL    HW117719   4.507   5.660   5.408 -1.1416  1.5757 -1.1453
 5373SOL    HW217720   4.525   5.539   5.300 -0.2647 -0.0707  0.7812
 5374SOL     OW17721   2.656   2.518   5.149 -0.6324 -0.1332  0.1350
 5374SOL    HW117722   2.752   2.538   5.169 -1.3416  1.1815  2.7733
 5374SOL    HW217723   2.626   2.573   5.070  0.1067  1.6401  1.0330
 5375SOL     OW17724   6.659   4.323   4.979  0.1331  0.2296  0.6391
 5375SOL    HW117725   6.741   4.363   5.020 -1.2055  3.2159  0.7235
 5375SOL    HW217726   6.616   4.392   4.919 -2.0904 -1.3670  0.2904
 5376SOL     OW17727   5.253   1.375   1.182  0.3216 -0.0830 -0.1788
 5376SOL    HW117728   5.265   1.352   1.279  1.3753 -0.9681 -0.4952
 5376SOL    HW217729   5.161   1.410   1.167  0.6575  1.5926  1.4164
 5377SOL     OW17730   1.115   1.177   4.529  0.1317 -0.2634  0.0151
 5377SOL    HW117731   1.182   1.250   4.517  0.3023 -0.4405 -0.1247
 5377SOL    HW217732   1.153   1.091   4.494 -0.8949 -0.0070 -1.8471
 5378SOL     OW17733   6.376   2.338   3.371  0.1135 -0.4150 -0.0763
 5378SOL    HW117734   6.391   2.239   3.377 -0.7169 -0.4702  2.5080
 5378SOL    HW217735   6.415   2.382   3.452  1.8899  1.6427 -1.9126
 5379SOL     OW17736   0.193   4.243   1.421 -0.7909  0.7271 -0.2019
 5379SOL    HW117737   0.182   4.256   1.322  1.6674  1.1200 -0.4995
 5379SOL    HW217738   0.106   4.213   1.461 -1.8637  0.6101 -2.4575
 5380SOL     OW17739   2.086   4.407   5.227  0.2470  0.3413  0.2489
 5380SOL    HW117740   2.066   4.387   5.323  1.7054 -1.5844  0.2047
 5380SOL    HW217741   2.013   4.371   5.169  0.4144 -0.4364  0.5129
 5381SOL     OW17742   5.737   3.058   1.093 -0.1617  0.1075  0.4959
 5381SOL    HW117743   5.749   3.019   1.184 -0.2343  1.2550  1.0159
 5381SOL    HW217744   5.682   2.996   1.037 -1.8008  0.2735  1.8508
 5382SOL     OW17745   0.920   1.589   4.520  0.0529 -0.1593  0.7993
 5382SOL    HW117746   0.854   1.555   4.588  0.6430  0.5470  1.7463
 5382SOL    HW217747   0.947   1.514   4.460 -0.5340 -0.7914  1.3054
 5383SOL     OW17748   4.952   0.501   1.367 -0.2287  0.1822  0.1745
 5383SOL    HW117749   4.925   0.444   1.444 -0.6309 -0.9156 -0.7498
 5383SOL    HW217750   5.051   0.515   1.370  0.0858 -1.6487 -0.2493
 5384SOL     OW17751   2.685   1.236   2.264  0.4656 -0.0182  0.0048
 5384SOL    HW117752   2.782   1.245   2.244  0.5122  1.8030  0.8362
 5384SOL    HW217753   2.673   1.189   2.351  0.6893  0.8648  0.5302
 5385SOL     OW17754   1.301   5.947   5.652 -0.5043 -0.4446  0.4312
 5385SOL    HW117755   1.206   5.977   5.644 -0.5449 -0.3484  1.1559
 5385SOL    HW217756   1.359   6.006   5.596 -0.9440 -0.9110 -0.5276
 5386SOL     OW17757   0.794   6.481   1.391  0.9196 -0.1588  0.1052
 5386SOL    HW117758   0.804   6.419   1.313 -0.9741 -0.8772  0.3721
 5386SOL    HW217759   0.811   6.430   1.476 -1.2075 -0.5631  0.3628
 5387SOL     OW17760   1.573   2.204   6.265 -0.1659  0.4532 -0.0821
 5387SOL    HW117761   1.483   2.161   6.264 -0.1047  0.2546  1.1453
 5387SOL    HW217762   1.594   2.241   6.174 -0.7754 -0.9457 -0.8141
 5388SOL     OW17763   2.074   0.717   6.730 -0.1571  0.6879  0.1070
 5388SOL    HW117764   2.154   0.671   6.768 -0.9518 -0.5581  0.3121
 5388SOL    HW217765   2.076   0.711   6.630 -0.1753  0.3472  0.1271
 5389SOL     OW17766   0.620   4.303   5.355 -0.2740 -0.0427 -0.1253
 5389SOL    HW117767   0.655   4.353   5.435 -0.8449 -0.6173  0.4936
 5389SOL    HW217768   0.531   4.263   5.377  0.5599 -2.0955 -0.2772
 5390SOL     OW17769   3.727   2.284   5.362  0.3839  0.0476  0.1954
 5390SOL    HW117770   3.818   2.322   5.375  1.4884 -1.5786 -1.9800
 5390SOL    HW217771   3.675   2.343   5.300  0.8240 -0.1762 -0.3987
 5391SOL     OW17772   4.446   5.927   0.681 -0.3611  0.0084  0.1611
 5391SOL    HW117773   4.486   5.995   0.620 -0.3950 -1.8309 -2.0777
 5391SOL    HW217774   4.346   5.933   0.678 -0.3493  0.6731  0.9720
 5392SOL     OW17775   3.674   6.318   3.186  0.0859  0.3020  0.6478
 5392SOL    HW117776   3.703   6.229   3.222 -0.3282 -0.3323 -0.5499
 5392SOL    HW217777   3.745   6.356   3.128 -0.1424  0.2894  0.3594
 5393SOL     OW17778   0.473   1.480   3.671  0.4036 -0.0220 -0.1011
 5393SOL    HW117779   0.408   1.470   3.746 -0.0900  0.9338 -0.3730
 5393SOL    HW217780   0.560   1.512   3.707 -0.3942  2.3316 -0.0813
 5394SOL     OW17781   0.082   2.435   3.128  0.3288  0.2097  0.0873
 5394SOL    HW117782   0.136   2.479   3.201  1.4636 -0.1440 -0.5180
 5394SOL    HW217783  -0.015   2.458   3.140  0.4641  0.0454  1.7879
 5395SOL     OW17784   0.926   5.971   5.354 -0.0560  0.1406 -0.4471
 5395SOL    HW117785   0.925   5.871   5.356 -0.0229  0.1364 -0.6525
 5395SOL    HW217786   0.938   6.006   5.447 -1.4243 -0.0332 -0.1735
 5396SOL     OW17787   4.260   2.627   5.670 -0.2756 -0.0154  0.3131
 5396SOL    HW117788   4.294   2.653   5.579  0.4681  1.7450  1.0431
 5396SOL    HW217789   4.162   2.642   5.673 -0.3458 -0.3006 -0.2610
 5397SOL     OW17790   0.289   3.514   3.519 -0.2796  0.0743 -0.5215
 5397SOL    HW117791   0.196   3.538   3.546 -0.9179 -1.5487 -1.1818
 5397SOL    HW217792   0.312   3.423   3.553  2.1878  1.5686  2.2029
 5398SOL     OW17793   5.091   0.910   2.399  0.0770 -0.2101  0.0024
 5398SOL    HW117794   4.999   0.925   2.435  0.0314  0.2964 -0.3039
 5398SOL    HW217795   5.130   0.998   2.371  0.4790 -0.4744 -0.2868
 5399SOL     OW17796   1.624   3.252   6.653  0.0772 -0.3256 -0.0064
 5399SOL    HW117797   1.663   3.190   6.586 -2.1530  1.5679 -3.3404
 5399SOL    HW217798   1.533   3.220   6.680 -0.5860  0.7957 -0.8337
 5400SOL     OW17799   3.188   2.035   6.360  0.0509  0.2321 -0.0994
 5400SOL    HW117800   3.259   2.103   6.376 -0.9566  1.5444 -0.9792
 5400SOL    HW217801   3.190   2.005   6.264 -1.3773  1.3029 -0.5107
 5401SOL     OW17802   1.844   0.082   1.576  0.3360  0.2843  0.2452
 5401SOL    HW117803   1.753   0.048   1.599  0.9166  0.0730  2.4948
 5401SOL    HW217804   1.836   0.167   1.525 -1.1220  0.5734  0.8956
 5402SOL     OW17805   4.018   2.923   6.034  0.0295  0.2081 -0.2754
 5402SOL    HW117806   4.026   2.858   6.109 -3.5922 -0.4632 -0.2926
 5402SOL    HW217807   4.105   2.929   5.986  2.2858  0.0677  3.3913
 5403SOL     OW17808   1.695   5.391   6.840  0.0999 -0.0560 -0.1269
 5403SOL    HW117809   1.619   5.339   6.880  0.4580  1.5885  3.0629
 5403SOL    HW217810   1.780   5.339   6.852 -0.0895 -0.5690 -0.9228
 5404SOL     OW17811   2.712   2.375   1.833  0.3853 -0.0366  0.3645
 5404SOL    HW117812   2.628   2.427   1.819  1.0446  0.9797  0.0411
 5404SOL    HW217813   2.740   2.382   1.929  0.4481  0.1857  0.3321
 5405SOL     OW17814   0.601   0.371   0.279  0.0062  0.6407  0.2694
 5405SOL    HW117815   0.514   0.371   0.329 -0.0433  0.3641  0.1879
 5405SOL    HW217816   0.665   0.433   0.324  0.2070 -0.1538  1.1319
 5406SOL     OW17817   3.537   0.691   1.258 -0.2545 -0.3226  0.2755
 5406SOL    HW117818   3.450   0.642   1.252 -0.8563  0.7929 -0.4253
 5406SOL    HW217819   3.611   0.630   1.228 -0.9483 -0.9052 -0.3086
 5407SOL     OW17820   6.700   1.438   1.226  0.0907  0.2944 -0.6134
 5407SOL    HW117821   6.642   1.517   1.246  0.9910  0.6670  0.7036
 5407SOL    HW217822   6.796   1.466   1.230  0.4110 -0.7678 -0.6111
 5408SOL     OW17823   3.737   0.726   4.034  0.5161  0.4764  0.2454
 5408SOL    HW117824   3.643   0.710   4.065  0.1379  1.0625 -0.5748
 5408SOL    HW217825   3.746   0.819   4.000  1.0720  0.0577 -0.8110
 5409SOL     OW17826   4.935   5.145   5.102 -0.4521  0.7497  0.5272
 5409SOL    HW117827   4.958   5.060   5.149 -0.8557  0.1164 -0.4031
 5409SOL    HW217828   5.019   5.191   5.074 -0.2143  0.9739  1.5650
 5410SOL     OW17829   5.112   2.409   1.746  0.0567  0.3764 -0.4147
 5410SOL    HW117830   5.031   2.353   1.760  0.9491 -1.2213 -1.4081
 5410SOL    HW217831   5.118   2.477   1.820 -2.6308  1.1508 -0.8051
 5411SOL     OW17832   1.715   4.087   3.076  0.1899  0.8535  0.5550
 5411SOL    HW117833   1.673   4.090   3.167  1.9375 -1.6367  1.5496
 5411SOL    HW217834   1.814   4.092   3.085  0.5247 -1.5139 -0.9703
 5412SOL     OW17835   4.601   1.337   4.801 -0.7082 -0.6455 -0.4169
 5412SOL    HW117836   4.644   1.248   4.783  0.0646 -0.4902  0.5472
 5412SOL    HW217837   4.502   1.327   4.800 -0.6319 -1.6376  0.1851
 5413SOL     OW17838   6.171   0.269   2.233 -0.5643 -0.6621 -0.1798
 5413SOL    HW117839   6.245   0.214   2.274  0.3562  0.9338  0.3690
 5413SOL    HW217840   6.094   0.273   2.297 -0.9421 -1.8965 -0.5322
 5414SOL     OW17841   6.149   4.057   3.527 -0.2529  0.3792  0.2665
 5414SOL    HW117842   6.171   4.023   3.618  2.5941  0.4686 -0.2838
 5414SOL    HW217843   6.098   4.142   3.534  0.1592  0.5285  1.8048
 5415SOL     OW17844   6.855   5.258   3.269  0.1691 -0.4008 -0.0258
 5415SOL    HW117845   6.757   5.242   3.284  0.0955 -0.0623 -0.1518
 5415SOL    HW217846   6.884   5.339   3.320  0.2899 -0.2409 -0.3457
 5416SOL     OW17847   1.962   5.413   0.758 -0.6097  0.2064 -0.8479
 5416SOL    HW117848   1.937   5.331   0.708 -1.9915  0.7114 -1.0302
 5416SOL    HW217849   2.026   5.468   0.703 -1.5803  0.4259 -1.7852
 5417SOL     OW17850   3.446   4.406   5.356  0.1039 -0.1444  0.2919
 5417SOL    HW117851   3.438   4.322   5.409 -0.8194  0.4571  1.1561
 5417SOL    HW217852   3.494   4.387   5.270 -0.9007 -1.7503  0.0354
 5418SOL     OW17853   2.361   0.236   0.512 -0.0230 -0.4301  0.0268
 5418SOL    HW117854   2.446   0.242   0.459  0.0511  0.4830  0.2317
 5418SOL    HW217855   2.367   0.159   0.575  1.1721  0.3304  0.8975
 5419SOL     OW17856   1.823   5.988   6.144  0.1656 -0.6220  0.3852
 5419SOL    HW117857   1.883   5.908   6.149  3.1915  1.4232  0.0932
 5419SOL    HW217858   1.824   6.034   6.233  0.0656  0.1168  0.0057
 5420SOL     OW17859   5.271   1.936   6.380 -0.2653 -0.3771 -0.4528
 5420SOL    HW117860   5.310   1.855   6.337  0.8553  1.4686 -3.2128
 5420SOL    HW217861   5.344   1.987   6.426 -0.8536 -0.5898  0.7587
 5421SOL     OW17862   3.902   6.290   0.647  0.5933 -0.2119  0.1356
 5421SOL    HW117863   3.989   6.280   0.695  1.2287  1.5703 -0.5419
 5421SOL    HW217864   3.852   6.367   0.686 -0.8465 -1.4011  0.7132
 5422SOL     OW17865   0.678   0.059   6.837  0.0048 -0.2762  0.5204
 5422SOL    HW117866   0.586   0.070   6.875 -0.4310  1.8490 -0.9939
 5422SOL    HW217867   0.691  -0.036   6.807 -1.4825 -0.7263  1.2171
 5423SOL     OW17868   4.718   4.863   1.154 -0.1098 -0.4351 -0.5479
 5423SOL    HW117869   4.711   4.962   1.163  0.4546 -0.2802 -1.6645
 5423SOL    HW217870   4.721   4.838   1.057 -1.5701 -1.6546 -0.3291
 5424SOL     OW17871   3.366   2.992   0.891  0.3985 -0.0343  0.4671
 5424SOL    HW117872   3.276   2.959   0.864  1.2216 -1.9286 -0.1135
 5424SOL    HW217873   3.408   3.040   0.814  1.2108 -2.1327 -0.4802
 5425SOL     OW17874   3.966   4.144   0.453 -0.1039 -0.3995  0.5129
 5425SOL    HW117875   3.885   4.200   0.464  1.3854  1.5271  2.6391
 5425SOL    HW217876   4.004   4.123   0.543  2.7591  0.3969 -0.4000
 5426SOL     OW17877   4.811   4.921   2.619 -1.1446  0.3448 -0.2510
 5426SOL    HW117878   4.890   4.878   2.573 -1.6040  0.0400 -0.7745
 5426SOL    HW217879   4.749   4.958   2.550 -1.3434  0.7943  0.1681
 5427SOL     OW17880   3.794   4.868   1.252  0.4742  0.1638 -0.1959
 5427SOL    HW117881   3.798   4.952   1.199  0.7854  0.5870  0.4921
 5427SOL    HW217882   3.825   4.791   1.196 -0.8802  0.3137 -1.1896
 5428SOL     OW17883   1.723   5.526   5.478 -0.4891 -0.0513 -0.3803
 5428SOL    HW117884   1.760   5.439   5.511 -1.6923 -0.4145  0.0699
 5428SOL    HW217885   1.690   5.514   5.384 -0.3184  0.0312 -0.4525
 5429SOL     OW17886   2.490   5.334   0.267  0.0205  0.5107 -0.2704
 5429SOL    HW117887   2.560   5.354   0.198  1.4559  0.6538  1.1589
 5429SOL    HW217888   2.418   5.402   0.262  0.8710  1.4127 -0.6561
 5430SOL     OW17889   2.420   0.899   1.687 -0.5587  0.1430  0.0106
 5430SOL    HW117890   2.405   0.952   1.603  1.3055  1.5297  0.4636
 5430SOL    HW217891   2.431   0.962   1.764  1.3548 -0.8902  0.6463
 5431SOL     OW17892   6.606   6.219   4.924 -0.0694 -0.9312  0.5877
 5431SOL    HW117893   6.561   6.262   4.845  1.1123 -0.2289  0.2776
 5431SOL    HW217894   6.661   6.142   4.892  2.0483  0.5719  0.3834
 5432SOL     OW17895   0.840   4.775   2.190  0.0816 -0.1888 -0.1050
 5432SOL    HW117896   0.826   4.863   2.235  0.9193  0.6125 -1.3379
 5432SOL    HW217897   0.813   4.701   2.251 -0.9568  0.9308  0.8365
 5433SOL     OW17898   6.160   6.599   2.386 -0.1255 -0.1510  0.4742
 5433SOL    HW117899   6.176   6.509   2.345 -0.3145 -1.3267  2.8164
 5433SOL    HW217900   6.245   6.653   2.383  0.2002 -0.6887 -0.2584
 5434SOL     OW17901   5.366   5.093   3.477 -0.1995 -1.0122 -0.1536
 5434SOL    HW117902   5.277   5.114   3.436 -0.3845  1.2170  1.2469
 5434SOL    HW217903   5.435   5.153   3.439  0.2595 -1.1685  0.4152
 5435SOL     OW17904   6.515   1.246   3.918  0.1854 -0.6044 -0.3858
 5435SOL    HW117905   6.429   1.286   3.887 -0.6187 -1.2208  0.9275
 5435SOL    HW217906   6.506   1.146   3.922  0.8769 -0.6596 -0.0022
 5436SOL     OW17907   0.690   1.593   3.798  0.2630  0.6995 -0.1760
 5436SOL    HW117908   0.755   1.627   3.729  0.3917  1.2907  0.2274
 5436SOL    HW217909   0.740   1.549   3.872  0.2897  1.9605  0.5859
 5437SOL     OW17910   3.652   0.192   5.699 -0.2175  0.3190  0.7252
 5437SOL    HW117911   3.582   0.144   5.645 -1.3359  0.1393  2.2536
 5437SOL    HW217912   3.722   0.228   5.639 -2.5377  2.0742 -1.1251
 5438SOL     OW17913   6.033   1.013   4.536 -0.6031  0.1376  0.1164
 5438SOL    HW117914   6.072   0.971   4.454 -1.3041  1.6762 -1.0469
 5438SOL    HW217915   6.106   1.048   4.594 -0.1025 -0.9638  0.1784
 5439SOL     OW17916   2.048   0.709   4.364 -0.0660  0.4454  0.6926
 5439SOL    HW117917   2.081   0.628   4.314 -0.4893  0.3762  0.5152
 5439SOL    HW217918   2.075   0.702   4.460  0.2551  0.2941  0.5940
 5440SOL     OW17919   2.357   0.306   1.252  0.7370  0.3610  0.0642
 5440SOL    HW117920   2.433   0.332   1.312  1.2549 -0.9364  0.0123
 5440SOL    HW217921   2.273   0.297   1.306  0.2588  3.1386 -0.0943
 5441SOL     OW17922   2.605   5.229   0.771  0.4997  0.7347 -0.0014
 5441SOL    HW117923   2.642   5.321   0.756  2.3737 -0.1539 -1.2321
 5441SOL    HW217924   2.679   5.162   0.761 -1.2617 -1.0976 -1.5174
 5442SOL     OW17925   3.162   0.464   2.464 -0.1340 -0.6144  0.3297
 5442SOL    HW117926   3.085   0.425   2.514  0.3921 -1.7672  0.2790
 5442SOL    HW217927   3.203   0.394   2.406 -0.2059  0.4711 -1.0916
 5443SOL     OW17928   4.019   0.764   6.228 -0.1261  0.1266  0.0877
 5443SOL    HW117929   3.991   0.835   6.163 -1.7399  0.0668  0.6890
 5443SOL    HW217930   4.097   0.713   6.190 -1.1375 -0.0366 -1.8979
 5444SOL     OW17931   1.661   0.978   5.118  0.2716 -0.1824 -0.5381
 5444SOL    HW117932   1.747   0.967   5.168  0.3112 -1.2125 -0.8227
 5444SOL    HW217933   1.680   0.993   5.021  0.1083 -2.1236 -0.8980
 5445SOL     OW17934   6.339   0.552   1.342 -0.5389  0.2770 -0.1571
 5445SOL    HW117935   6.380   0.503   1.419 -0.6319 -0.2952 -0.4755
 5445SOL    HW217936   6.325   0.490   1.266  0.8947  1.1404 -1.1692
 5446SOL     OW17937   1.191   1.619   5.481 -0.0262  0.0674 -0.1031
 5446SOL    HW117938   1.283   1.658   5.489 -0.6927  1.5477  0.6771
 5446SOL    HW217939   1.191   1.525   5.516  1.1419  0.1046  0.0274
 5447SOL     OW17940   6.538   5.118   4.110 -0.9036  0.0138  0.1561
 5447SOL    HW117941   6.578   5.138   4.199 -0.6534  1.4290 -0.2465
 5447SOL    HW217942   6.561   5.191   4.046 -1.7499 -0.5747 -0.8588
 5448SOL     OW17943   5.014   6.035   0.746  0.1539 -0.2098  0.5471
 5448SOL    HW117944   4.955   6.070   0.674 -0.0501 -1.3961  0.1201
 5448SOL    HW217945   5.015   6.100   0.822 -0.1966  0.7116 -0.2140
 5449SOL     OW17946   6.659   5.303   4.974  0.3118  0.2747 -0.4247
 5449SOL    HW117947   6.716   5.259   4.905  2.3295  0.2548  1.1683
 5449SOL    HW217948   6.581   5.245   4.995  0.7058 -0.6038 -1.3173
 5450SOL     OW17949   2.233   0.684   3.694  0.0962 -0.3229 -0.1269
 5450SOL    HW117950   2.158   0.619   3.687  0.8685 -1.2338 -0.1722
 5450SOL    HW217951   2.307   0.644   3.747  0.0230  1.0827  1.1151
 5451SOL     OW17952   1.117   6.298   6.032 -0.2664  0.5913 -0.0713
 5451SOL    HW117953   1.083   6.384   6.069 -2.4577 -0.8117  1.3502
 5451SOL    HW217954   1.053   6.263   5.964  0.5252 -0.0081 -0.5310
 5452SOL     OW17955   5.349   4.155   0.321  0.0235 -0.2779  0.1978
 5452SOL    HW117956   5.363   4.059   0.345  1.0997 -0.5757 -1.4450
 5452SOL    HW217957   5.413   4.212   0.373  1.3878 -0.7654 -0.8924
 5453SOL     OW17958   4.014   4.894   4.396 -0.4011 -0.3922 -0.3102
 5453SOL    HW117959   3.916   4.910   4.409 -0.6098 -0.1127 -2.0057
 5453SOL    HW217960   4.027   4.831   4.319  0.7940  0.7017 -1.0308
 5454SOL     OW17961   6.133   5.627   4.372  0.0519 -0.4441  0.0710
 5454SOL    HW117962   6.083   5.566   4.434  2.0302 -1.4258  0.8127
 5454SOL    HW217963   6.211   5.578   4.333  0.1291  0.8336 -1.5008
 5455SOL     OW17964   5.839   1.127   4.151 -0.1554 -0.2357  0.1472
 5455SOL    HW117965   5.845   1.143   4.250 -1.7508 -1.6779  0.5290
 5455SOL    HW217966   5.792   1.205   4.108  3.4026  1.9841 -0.0637
 5456SOL     OW17967   3.956   2.770   5.043 -0.4892 -0.7163  0.0501
 5456SOL    HW117968   3.973   2.716   5.125  0.6982  0.2938  0.4846
 5456SOL    HW217969   3.934   2.709   4.967  0.5496 -1.7963  0.5975
 5457SOL     OW17970   0.953   2.522   1.593 -0.4323 -0.7356  0.3384
 5457SOL    HW117971   0.918   2.447   1.537  1.0416 -0.2749 -1.2856
 5457SOL    HW217972   0.892   2.600   1.587 -1.5881 -1.5226  1.4406
 5458SOL     OW17973   1.032   3.563   4.523 -0.2733 -0.1770  0.0389
 5458SOL    HW117974   0.942   3.580   4.562 -0.5828  0.2912 -0.8683
 5458SOL    HW217975   1.026   3.561   4.423  0.7001 -0.2506 -0.0284
 5459SOL     OW17976   4.074   3.352   4.941  0.0230 -0.0422  0.3486
 5459SOL    HW117977   4.048   3.330   5.035  0.3663 -1.3647  0.1542
 5459SOL    HW217978   4.021   3.430   4.909  1.6930  2.1088  2.5026
 5460SOL     OW17979   6.375   0.003   3.165 -0.2840 -0.6542 -0.1723
 5460SOL    HW117980   6.345   0.098   3.170  0.4715 -0.4776  2.1153
 5460SOL    HW217981   6.469  -0.001   3.133  0.0374 -0.5342  0.7415
 5461SOL     OW17982   1.667   4.031   4.227 -0.2195  0.7208  0.2790
 5461SOL    HW117983   1.668   3.935   4.253 -2.2046  1.0774  1.9006
 5461SOL    HW217984   1.714   4.042   4.139  0.0414 -1.6935  0.0430
 5462SOL     OW17985   3.312   1.504   4.611 -0.5694  0.1745  0.1581
 5462SOL    HW117986   3.228   1.556   4.597 -1.4186 -0.8475  1.2648
 5462SOL    HW217987   3.294   1.427   4.672  0.8773 -0.8641 -0.6668
 5463SOL     OW17988   4.566   3.236   3.422  0.5234  0.6155  0.5672
 5463SOL    HW117989   4.499   3.171   3.460  1.1787  0.2544  1.1274
 5463SOL    HW217990   4.525   3.283   3.344 -0.9314  1.4915  1.7981
 5464SOL     OW17991   3.798   1.505   2.881  0.7452 -0.6353 -0.5190
 5464SOL    HW117992   3.879   1.564   2.891  1.8759 -2.1300 -0.5547
 5464SOL    HW217993   3.728   1.554   2.829  1.9685  0.3783 -1.2840
 5465SOL     OW17994   2.031   4.144   0.762  0.3701  0.4087  0.4137
 5465SOL    HW117995   2.076   4.223   0.803 -1.2671  1.7199 -0.2198
 5465SOL    HW217996   1.955   4.115   0.821 -0.5944  0.8940 -0.5718
 5466SOL     OW17997   5.082   1.797   0.635  0.0740 -0.2281  0.3863
 5466SOL    HW117998   5.018   1.769   0.564  0.5147  1.6255 -0.8080
 5466SOL    HW217999   5.162   1.840   0.593  0.6552  0.3194  1.9723
 5467SOL     OW18000   4.594   0.662   5.923 -0.2103  0.0655  0.1399
 5467SOL    HW118001   4.567   0.640   6.016  0.1229  0.4365  0.3274
 5467SOL    HW218002   4.662   0.594   5.891 -1.0637 -0.6470 -0.1996
 5468SOL     OW18003   4.143   0.477   5.893 -0.2848  0.2695  0.1786
 5468SOL    HW118004   4.129   0.406   5.963  1.6191 -3.0511 -2.5069
 5468SOL    HW218005   4.103   0.447   5.807 -0.5865  3.2089 -0.7994
 5469SOL     OW18006   3.838   6.357   0.233  0.2076  0.2912  0.4161
 5469SOL    HW118007   3.755   6.385   0.282 -1.7348 -0.5133 -2.1497
 5469SOL    HW218008   3.871   6.434   0.178 -0.3908 -0.0792 -0.4948
 5470SOL     OW18009   3.675   2.769   6.147 -0.3798  0.7684 -0.1459
 5470SOL    HW118010   3.613   2.719   6.208  0.5259 -0.5789 -0.2854
 5470SOL    HW218011   3.731   2.832   6.201 -1.0610  1.1362  0.1350
 5471SOL     OW18012   4.316   2.304   5.568  0.4517 -0.6374  0.0048
 5471SOL    HW118013   4.249   2.290   5.641 -0.6781 -3.4784 -1.4155
 5471SOL    HW218014   4.286   2.378   5.508 -0.3926 -0.5696  0.4890
 5472SOL     OW18015   1.988   3.804   1.230 -0.0697 -0.0880  0.1829
 5472SOL    HW118016   1.995   3.804   1.330 -2.4509  0.4278  0.4167
 5472SOL    HW218017   1.920   3.736   1.202  0.6537 -0.3074 -1.1146
 5473SOL     OW18018   5.155   4.524   2.649  0.0374  0.6077 -0.0368
 5473SOL    HW118019   5.239   4.479   2.679 -0.1864  1.4147  1.9068
 5473SOL    HW218020   5.136   4.498   2.554  1.4006 -1.1364  0.1159
 5474SOL     OW18021   5.308   1.207   6.283 -0.0499  0.4491 -0.2373
 5474SOL    HW118022   5.373   1.143   6.324  0.1072 -0.0643 -1.2655
 5474SOL    HW218023   5.259   1.255   6.355  1.4262  0.8050  0.5615
 5475SOL     OW18024   3.764   4.211   2.305  0.1505  0.1978  0.0782
 5475SOL    HW118025   3.706   4.287   2.335 -0.5226 -0.2270 -0.1384
 5475SOL    HW218026   3.707   4.135   2.276  0.8249 -0.6530  0.9386
 5476SOL     OW18027   1.042   3.017   1.107  0.0267  0.1117  0.2045
 5476SOL    HW118028   1.051   3.022   1.206 -0.0113  2.5807  0.1677
 5476SOL    HW218029   1.132   3.033   1.065 -0.0050 -0.6652 -0.1744
 5477SOL     OW18030   3.986   0.016   0.243  0.1686  0.1459 -0.5904
 5477SOL    HW118031   3.952  -0.078   0.243 -0.0999  0.2404 -0.8450
 5477SOL    HW218032   3.916   0.078   0.277  0.2710  0.2782 -0.6163
 5478SOL     OW18033   5.360   2.534   1.075 -0.3507 -0.2121 -0.4584
 5478SOL    HW118034   5.428   2.605   1.090 -1.4733  0.8364 -0.1351
 5478SOL    HW218035   5.365   2.466   1.148  1.5137 -1.1576 -1.3997
 5479SOL     OW18036   4.973   0.286   5.891  0.1457  0.7108 -0.2018
 5479SOL    HW118037   4.915   0.320   5.817  2.1344 -0.0016 -2.1966
 5479SOL    HW218038   5.066   0.321   5.879  0.4931  0.7147  2.1058
 5480SOL     OW18039   4.849   3.774   1.445  0.1704 -0.1355  0.5327
 5480SOL    HW118040   4.916   3.747   1.515  0.1518 -0.3390  0.4705
 5480SOL    HW218041   4.862   3.871   1.423 -1.2353  0.5360  2.4103
 5481SOL     OW18042   6.189   5.515   5.082  0.1791 -0.0187  0.4164
 5481SOL    HW118043   6.238   5.489   4.999  0.3647 -0.8285  0.7666
 5481SOL    HW218044   6.218   5.607   5.111  1.3486 -0.3906  0.4933
 5482SOL     OW18045   5.371   0.673   4.393 -0.5023 -0.5710  0.3004
 5482SOL    HW118046   5.439   0.730   4.440 -1.3556  1.0178 -0.3157
 5482SOL    HW218047   5.417   0.617   4.324  0.3586 -0.6025  0.8790
 5483SOL     OW18048   1.984   2.696   0.976 -0.1718  0.0099  0.4557
 5483SOL    HW118049   2.058   2.629   0.972 -0.1864  0.0481 -1.0015
 5483SOL    HW218050   2.013   2.780   0.930 -0.5377  0.6238  1.3273
 5484SOL     OW18051   4.995   2.577   5.906  0.4566 -0.5853 -0.2554
 5484SOL    HW118052   4.914   2.566   5.963 -0.8100 -0.7441 -2.0058
 5484SOL    HW218053   5.017   2.675   5.897 -0.8630 -0.3700 -1.4802
 5485SOL     OW18054   0.631   1.369   4.255 -0.0158 -0.7562  0.3227
 5485SOL    HW118055   0.719   1.410   4.231 -1.3198  1.3652 -1.1626
 5485SOL    HW218056   0.606   1.300   4.187  0.4107 -1.2994  0.7003
 5486SOL     OW18057   3.451   5.884   2.020  0.2197  0.4054 -0.4502
 5486SOL    HW118058   3.539   5.932   2.015 -0.3137  1.4544  0.0316
 5486SOL    HW218059   3.453   5.821   2.097  0.5396  0.4317 -0.4329
 5487SOL     OW18060   5.655   6.867   1.651  0.4804  0.1217 -0.2998
 5487SOL    HW118061   5.703   6.853   1.738  3.2262  1.1686 -1.5203
 5487SOL    HW218062   5.666   6.962   1.622  0.9563 -0.5467 -2.4928
 5488SOL     OW18063   1.128   3.014   3.362 -0.2847  0.2073  0.0681
 5488SOL    HW118064   1.126   2.992   3.265  0.2297  3.2707 -0.7280
 5488SOL    HW218065   1.045   2.979   3.406 -0.7907 -0.7421 -1.5471
 5489SOL     OW18066   1.736   1.448   6.443 -0.0984 -0.1503  0.2221
 5489SOL    HW118067   1.724   1.544   6.466 -1.7841 -0.1130 -0.6666
 5489SOL    HW218068   1.827   1.418   6.471  0.9706  2.0515 -0.7199
 5490SOL     OW18069   1.224   2.071   1.077  0.0812 -0.1728  0.2611
 5490SOL    HW118070   1.268   2.017   1.148  0.9893  1.2618  0.8288
 5490SOL    HW218071   1.270   2.055   0.989 -0.8953 -1.7650 -0.0036
 5491SOL     OW18072   1.807   6.889   0.991  0.1392  0.8833 -0.3254
 5491SOL    HW118073   1.755   6.942   1.058  0.8504  0.7339  0.3517
 5491SOL    HW218074   1.836   6.802   1.031  0.6340  0.8210 -0.8007
 5492SOL     OW18075   6.199   5.461   5.574 -0.7756  0.5243  0.2666
 5492SOL    HW118076   6.208   5.555   5.542  2.2818  0.8627  1.6978
 5492SOL    HW218077   6.171   5.402   5.499  0.2917  2.1284 -1.4603
 5493SOL     OW18078   4.088   0.241   6.038  0.3321 -0.0347  0.4011
 5493SOL    HW118079   4.004   0.270   6.084  0.0931  0.0416 -0.0662
 5493SOL    HW218080   4.064   0.181   5.961  0.6325  0.8404 -0.3870
 5494SOL     OW18081   4.763   6.487   4.139 -0.1076 -0.4176 -0.4085
 5494SOL    HW118082   4.711   6.412   4.098 -0.1002 -1.1656  0.8796
 5494SOL    HW218083   4.847   6.450   4.179  0.8507  0.5987 -1.4488
 5495SOL     OW18084   6.340   6.838   1.925 -0.5608  0.1118 -0.0186
 5495SOL    HW118085   6.279   6.759   1.928 -0.3060 -0.0677  0.4091
 5495SOL    HW218086   6.287   6.921   1.942 -0.8055  0.0240 -0.3435
 5496SOL     OW18087   1.637   0.414   1.551  0.0969 -0.5026  0.0426
 5496SOL    HW118088   1.675   0.456   1.634  1.4664  1.1277 -1.3529
 5496SOL    HW218089   1.712   0.381   1.493 -0.6938  0.4873 -1.6066
 5497SOL     OW18090   6.769   2.054   3.639  0.1695 -0.1539  0.6677
 5497SOL    HW118091   6.828   1.994   3.585 -0.5274 -1.6857  1.5472
 5497SOL    HW218092   6.688   2.079   3.587 -1.1783 -2.7299  1.3538
 5498SOL     OW18093   5.115   1.720   3.648 -0.8015 -0.1367 -0.5669
 5498SOL    HW118094   5.098   1.709   3.550  1.9910 -1.1009 -1.0348
 5498SOL    HW218095   5.205   1.682   3.671 -0.0819  2.6129  1.8425
 5499SOL     OW18096   5.685   4.878   2.825 -0.2446  0.5602  0.0710
 5499SOL    HW118097   5.709   4.834   2.911 -1.4372 -1.0164 -0.3683
 5499SOL    HW218098   5.586   4.895   2.823 -0.2775  0.2896 -1.1137
 5500SOL     OW18099   4.640   3.675   4.979 -0.6763 -0.5734 -0.4478
 5500SOL    HW118100   4.676   3.685   5.073 -0.7779 -1.6435 -0.2864
 5500SOL    HW218101   4.550   3.718   4.973 -0.3722  0.1082 -0.2437
 5501SOL     OW18102   3.032   5.267   3.333  0.2680 -0.5064 -0.2844
 5501SOL    HW118103   3.042   5.246   3.236  0.6542 -3.5593  0.3047
 5501SOL    HW218104   3.119   5.253   3.380  0.0463  0.7614  0.5611
 5502SOL     OW18105   0.176   0.022   6.571  0.0539 -0.3212  0.3826
 5502SOL    HW118106   0.121   0.043   6.652 -0.0030  1.5259 -0.0912
 5502SOL    HW218107   0.260   0.075   6.572 -0.2429  0.2263 -1.0742
 5503SOL     OW18108   6.092   6.364   0.483  0.4467  0.0613  0.1189
 5503SOL    HW118109   6.019   6.422   0.518  1.5247  1.9299 -0.6117
 5503SOL    HW218110   6.133   6.312   0.559 -0.6637  0.0856  0.7518
 5504SOL     OW18111   3.400   5.424   0.504 -0.1805  0.0339  0.1587
 5504SOL    HW118112   3.476   5.487   0.490 -0.8790  0.5402 -1.7246
 5504SOL    HW218113   3.352   5.410   0.417 -2.3524 -0.1273  1.3029
 5505SOL     OW18114   4.118   2.295   5.767 -0.2309 -0.5107  0.1476
 5505SOL    HW118115   4.032   2.265   5.725 -0.2343 -0.7376  0.3107
 5505SOL    HW218116   4.109   2.292   5.866  0.2180 -1.3040  0.1749
 5506SOL     OW18117   6.392   1.331   1.738 -0.2464 -0.0133 -0.3655
 5506SOL    HW118118   6.447   1.263   1.786 -1.8761 -0.2761  1.2552
 5506SOL    HW218119   6.447   1.412   1.718  1.1691 -0.9727 -0.4546
 5507SOL     OW18120   5.995   5.820   0.791  0.1871 -0.1157  0.7196
 5507SOL    HW118121   6.037   5.740   0.835 -0.0891 -0.4779  0.3259
 5507SOL    HW218122   5.896   5.816   0.802  0.0860 -0.4138 -0.2774
 5508SOL     OW18123   1.365   6.453   1.797  0.4607 -0.9401  0.2158
 5508SOL    HW118124   1.286   6.417   1.746  0.5882 -1.7608  0.5766
 5508SOL    HW218125   1.425   6.501   1.734 -0.6987  0.3853  0.0657
 5509SOL     OW18126   0.517   3.128   2.965  0.1219 -0.3769  0.0515
 5509SOL    HW118127   0.431   3.175   2.986  0.0288  0.1110 -1.3194
 5509SOL    HW218128   0.590   3.195   2.951  1.0015 -0.8117  2.1401
 5510SOL     OW18129   2.659   2.342   6.912 -0.1513 -0.4718 -0.3050
 5510SOL    HW118130   2.637   2.417   6.975  0.6065 -0.2060 -0.3544
 5510SOL    HW218131   2.756   2.320   6.919 -0.5821 -2.3152  0.6618
 5511SOL     OW18132   3.963   2.037   0.803  0.4433  0.2244 -0.1763
 5511SOL    HW118133   3.985   2.120   0.854  5.0453 -1.8891  1.8901
 5511SOL    HW218134   4.035   2.020   0.736 -0.8599 -1.6808 -1.1706
 5512SOL     OW18135   5.386   5.385   4.802 -0.2177  0.1743 -0.1923
 5512SOL    HW118136   5.315   5.334   4.754  1.4004 -2.7841  0.3459
 5512SOL    HW218137   5.467   5.393   4.744 -0.2036  1.6370 -0.0124
 5513SOL     OW18138   2.732   6.424   1.927 -0.6192 -0.0185 -0.0811
 5513SOL    HW118139   2.640   6.430   1.888 -0.8146  0.0938  0.3828
 5513SOL    HW218140   2.731   6.461   2.020 -0.6987 -2.2822  0.9063
 5514SOL     OW18141   1.533   2.413   5.705  0.8525  0.7785  0.5170
 5514SOL    HW118142   1.469   2.479   5.744  0.2524 -0.3619  1.4972
 5514SOL    HW218143   1.543   2.336   5.767 -0.7745 -1.5346 -1.9037
 5515SOL     OW18144   4.905   0.185   4.546  0.1943  0.1036 -0.3461
 5515SOL    HW118145   4.916   0.282   4.567 -1.3788  0.4510 -1.0117
 5515SOL    HW218146   4.902   0.133   4.631  0.7402  0.6618  0.0265
 5516SOL     OW18147   2.758   5.971   2.441  0.1890  0.1014 -0.3494
 5516SOL    HW118148   2.697   5.896   2.415 -0.6528  0.4263  0.6334
 5516SOL    HW218149   2.724   6.057   2.402  0.7607  0.0924 -0.8874
 5517SOL     OW18150   5.143   6.238   6.054 -0.0551  0.4567  0.3052
 5517SOL    HW118151   5.183   6.246   5.963  0.8561  0.2373  0.6684
 5517SOL    HW218152   5.056   6.286   6.057 -0.5144 -0.2443 -0.9196
 5518SOL     OW18153   3.840   5.792   0.642 -0.5939  0.4155  0.3267
 5518SOL    HW118154   3.887   5.704   0.642 -1.4737 -0.0766  1.4772
 5518SOL    HW218155   3.881   5.852   0.573 -0.8262 -1.3384 -1.4202
 5519SOL     OW18156   2.824   1.945   0.703 -0.9052  0.0881  0.4144
 5519SOL    HW118157   2.743   1.960   0.760 -1.5474 -1.1954 -0.1290
 5519SOL    HW218158   2.892   1.894   0.755 -2.0720 -2.4016 -0.3341
 5520SOL     OW18159   4.223   2.341   4.614 -0.5326 -0.2453 -0.2554
 5520SOL    HW118160   4.256   2.369   4.704 -1.9013 -0.4034  0.3080
 5520SOL    HW218161   4.135   2.294   4.623 -0.7020 -0.2484 -1.6752
 5521SOL     OW18162   4.684   1.532   3.503  0.0880 -0.4146  0.2363
 5521SOL    HW118163   4.764   1.491   3.459  0.1527  0.6456 -0.6945
 5521SOL    HW218164   4.714   1.606   3.564 -0.1671 -0.1498  0.0429
 5522SOL     OW18165   3.913   1.385   5.829 -0.3584  0.0592 -0.9035
 5522SOL    HW118166   3.840   1.382   5.897 -0.5292  0.1323 -1.0838
 5522SOL    HW218167   3.990   1.438   5.865  0.0864 -0.9974 -0.2444
 5523SOL     OW18168   2.490   0.087   5.928 -0.7471  0.0751  0.0210
 5523SOL    HW118169   2.520   0.007   5.877  1.8161  0.2934  1.0162
 5523SOL    HW218170   2.390   0.092   5.928 -1.0204 -3.2431  0.1494
 5524SOL     OW18171   6.639   0.404   5.095  0.0689  0.0467 -0.9978
 5524SOL    HW118172   6.712   0.363   5.040  0.2778  1.3612 -1.7478
 5524SOL    HW218173   6.550   0.379   5.057  0.2017  0.5073 -1.6240
 5525SOL     OW18174   0.591   3.019   6.320  0.1167  0.3527  0.2088
 5525SOL    HW118175   0.493   2.998   6.312  0.2337 -0.1500  0.0677
 5525SOL    HW218176   0.615   3.028   6.417  0.1701 -0.7162  0.3025
 5526SOL     OW18177   3.704   5.345   6.817 -0.2808  0.3002 -0.1559
 5526SOL    HW118178   3.680   5.438   6.789 -0.9775  0.5446  1.1952
 5526SOL    HW218179   3.662   5.280   6.753 -1.9212  0.8404  0.3231
 5527SOL     OW18180   1.591   6.614   0.964 -0.5163  0.1504 -0.0792
 5527SOL    HW118181   1.690   6.597   0.964 -0.3337  0.2920 -4.0344
 5527SOL    HW218182   1.543   6.531   0.936 -1.3092  0.7776 -0.5988
 5528SOL     OW18183   6.236   6.403   5.696 -0.3057 -0.2677 -0.1821
 5528SOL    HW118184   6.234   6.500   5.670  0.2953 -0.1713  0.1252
 5528SOL    HW218185   6.182   6.350   5.630 -0.9595  0.3212 -0.1367
 5529SOL     OW18186   2.362   1.984   3.771 -0.3736  0.2012 -0.5026
 5529SOL    HW118187   2.311   1.900   3.751 -0.6165  0.3700 -0.5989
 5529SOL    HW218188   2.459   1.970   3.752 -0.2975 -0.3075  0.2243
 5530SOL     OW18189   1.844   0.931   6.480 -0.1128  0.4511 -0.0899
 5530SOL    HW118190   1.858   1.019   6.435 -0.6234  0.5487 -0.0687
 5530SOL    HW218191   1.759   0.890   6.446  0.3915 -0.2745 -0.4822
 5531SOL     OW18192   6.188   6.406   3.320  0.0084  0.5501  0.0569
 5531SOL    HW118193   6.268   6.346   3.315  1.0279  1.8806  0.0106
 5531SOL    HW218194   6.210   6.487   3.374 -1.6097  0.5112  0.8266
 5532SOL     OW18195   1.819   2.038   0.633 -0.7577  0.3570 -0.0359
 5532SOL    HW118196   1.776   1.976   0.699  1.1477 -0.3884  0.5837
 5532SOL    HW218197   1.802   2.132   0.661 -2.0059  0.0907  0.1535
 5533SOL     OW18198   6.750   5.428   2.335  0.2009 -0.7373  0.1617
 5533SOL    HW118199   6.669   5.370   2.342 -0.0497 -0.2970  0.9981
 5533SOL    HW218200   6.750   5.474   2.246 -0.0003 -1.4217 -0.1971
 5534SOL     OW18201   1.887   6.975   6.585  0.0061 -0.0603 -0.0571
 5534SOL    HW118202   1.845   6.886   6.603 -0.7559  0.0987 -0.9827
 5534SOL    HW218203   1.898   6.987   6.487 -0.2234  1.0113  0.0417
 5535SOL     OW18204   6.009   1.963   6.058 -0.7252  0.2584  0.2911
 5535SOL    HW118205   5.987   2.058   6.083 -0.4382 -0.0969  2.0604
 5535SOL    HW218206   5.925   1.914   6.035 -1.1267  0.4655  1.2445
 5536SOL     OW18207   4.687   3.287   6.713 -0.3295  0.0228 -0.5221
 5536SOL    HW118208   4.696   3.378   6.672 -0.7309  0.7634  0.9587
 5536SOL    HW218209   4.767   3.231   6.689  0.0554  0.8539 -1.2197
 5537SOL     OW18210   2.720   3.901   5.533  0.0019 -0.2690 -0.6237
 5537SOL    HW118211   2.811   3.941   5.518 -0.4737  0.7618 -0.8653
 5537SOL    HW218212   2.727   3.826   5.598  0.7458  1.1625  1.0363
 5538SOL     OW18213   6.688   1.883   6.299  0.0487  0.7799 -0.0656
 5538SOL    HW118214   6.660   1.878   6.395  0.9703 -2.0519  0.1490
 5538SOL    HW218215   6.608   1.896   6.241 -0.7491  0.5095  0.9505
 5539SOL     OW18216   6.773   0.633   3.009 -0.3825  0.0572 -0.3694
 5539SOL    HW118217   6.759   0.549   3.062  0.6695 -1.4432 -2.3225
 5539SOL    HW218218   6.714   0.631   2.929 -0.6507  1.4253 -0.2215
 5540SOL     OW18219   3.441   4.903   3.610 -0.3891 -0.4172 -0.2192
 5540SOL    HW118220   3.498   4.912   3.528  0.3853  0.2492  0.3735
 5540SOL    HW218221   3.361   4.848   3.589 -0.6949  0.5307 -1.6729
 5541SOL     OW18222   5.730   6.120   5.451 -0.5512 -0.1627  0.1578
 5541SOL    HW118223   5.681   6.062   5.515 -0.6390  1.2666  1.4500
 5541SOL    HW218224   5.767   6.199   5.499 -1.9075  1.7875 -1.7701
 5542SOL     OW18225   2.019   6.436   6.449  0.7070 -0.0518 -0.3123
 5542SOL    HW118226   2.044   6.344   6.478 -0.2106 -0.3151 -0.3328
 5542SOL    HW218227   2.058   6.454   6.359 -0.6544 -1.1414 -1.1561
 5543SOL     OW18228   0.284   2.115   1.668  0.2739 -0.2647  0.7609
 5543SOL    HW118229   0.240   2.029   1.642  0.2711 -0.2576  0.7420
 5543SOL    HW218230   0.228   2.191   1.635  0.7865 -0.2496 -0.1065
 5544SOL     OW18231   6.895   5.945   1.279  0.1255 -0.4870 -0.1536
 5544SOL    HW118232   6.823   6.014   1.269  0.8250  0.4551  1.0075
 5544SOL    HW218233   6.911   5.901   1.191 -0.6142  0.5618 -0.8466
 5545SOL     OW18234   5.523   0.592   1.528 -0.6042 -0.2669 -0.2335
 5545SOL    HW118235   5.527   0.620   1.624 -0.5985 -2.1766  0.3776
 5545SOL    HW218236   5.615   0.582   1.492 -0.6080  0.5602 -0.4786
 5546SOL     OW18237   6.116   1.970   2.551  0.7824 -0.4767  0.0893
 5546SOL    HW118238   6.196   2.030   2.560  0.9742 -0.9041  1.4580
 5546SOL    HW218239   6.145   1.880   2.517  0.6568 -0.1810 -0.8369
 5547SOL     OW18240   1.448   6.332   0.101 -0.1392  0.0593 -0.0420
 5547SOL    HW118241   1.456   6.432   0.097 -1.0664  0.1065 -1.5453
 5547SOL    HW218242   1.476   6.293   0.013  0.5212 -1.0535  0.6264
 5548SOL     OW18243   6.021   0.873   3.455 -0.0897 -0.1003 -0.4182
 5548SOL    HW118244   6.081   0.947   3.484 -0.1304 -0.3602  0.3655
 5548SOL    HW218245   5.929   0.910   3.439  0.0864  0.1589 -0.8376
 5549SOL     OW18246   4.350   0.972   2.012  0.5567  0.6351 -0.3738
 5549SOL    HW118247   4.409   1.038   2.059  2.3305 -0.0849 -1.4614
 5549SOL    HW218248   4.261   1.014   1.994  0.0511  1.2045  2.8210
 5550SOL     OW18249   3.760   0.223   1.184  0.7991  0.0290  0.0667
 5550SOL    HW118250   3.828   0.150   1.177  1.3338  0.6087 -1.1650
 5550SOL    HW218251   3.700   0.220   1.104  0.2931  0.4335  0.4208
 5551SOL     OW18252   1.593   2.410   5.151  0.4610 -0.1299  0.3427
 5551SOL    HW118253   1.551   2.358   5.226  1.8719 -1.1093  0.4901
 5551SOL    HW218254   1.691   2.418   5.167  0.2800  2.9371  0.4804
 5552SOL     OW18255   6.995   6.501   5.838  0.4574 -0.1128  0.5912
 5552SOL    HW118256   7.085   6.465   5.816  0.9069  1.0641  0.4428
 5552SOL    HW218257   7.001   6.559   5.919 -0.3514 -0.7560  1.1414
 5553SOL     OW18258   6.943   4.056   2.734 -0.3305 -0.3407 -0.2022
 5553SOL    HW118259   6.859   4.040   2.786  0.4991 -0.4950  1.1460
 5553SOL    HW218260   6.984   4.142   2.764  0.8200 -1.0516  0.3337
 5554SOL     OW18261   3.583   2.391   1.289 -0.2700 -0.0071  0.4631
 5554SOL    HW118262   3.607   2.469   1.232  0.6194 -1.7922 -1.7322
 5554SOL    HW218263   3.642   2.389   1.370  0.9129  0.6088 -0.3562
 5555SOL     OW18264   3.711   3.171   3.059  0.1919 -0.9187 -0.4255
 5555SOL    HW118265   3.792   3.114   3.060  1.0610  0.2736 -0.3512
 5555SOL    HW218266   3.692   3.204   3.152  0.0368 -0.6301 -0.5555
 5556SOL     OW18267   2.113   2.201   6.186  0.3812  0.2590  0.1517
 5556SOL    HW118268   2.040   2.269   6.184  0.9132  0.9273  1.6766
 5556SOL    HW218269   2.082   2.119   6.234  0.3252  0.1372 -0.0880
 5557SOL     OW18270   3.723   3.292   1.653 -0.6828 -0.1088  0.4783
 5557SOL    HW118271   3.747   3.352   1.576 -0.8986 -0.2115  0.3284
 5557SOL    HW218272   3.786   3.215   1.657 -0.1602  0.3361  0.9139
 5558SOL     OW18273   1.633   2.332   6.039 -0.4354 -0.5492 -0.3340
 5558SOL    HW118274   1.639   2.285   5.951  1.7470 -0.6934 -0.1576
 5558SOL    HW218275   1.720   2.376   6.060 -0.8890 -0.5336  1.7704
 5559SOL     OW18276   5.070   2.324   1.119  0.1621 -0.1727  0.2721
 5559SOL    HW118277   5.097   2.382   1.042  2.3478 -2.8627 -1.1980
 5559SOL    HW218278   5.139   2.330   1.191 -0.9279  0.9094  1.2756
 5560SOL     OW18279   4.760   3.819   3.656  0.1982 -0.0104 -0.1857
 5560SOL    HW118280   4.688   3.822   3.587 -1.5731  1.2004  1.5994
 5560SOL    HW218281   4.722   3.847   3.745  3.1036  1.7073  0.6505
 5561SOL     OW18282   6.692   3.973   6.771  0.0142 -0.5098  0.5073
 5561SOL    HW118283   6.651   3.896   6.724  2.0924 -1.9223  0.8822
 5561SOL    HW218284   6.674   3.967   6.869 -1.6269  0.7054  0.3227
 5562SOL     OW18285   1.878   3.567   6.807 -0.6000 -0.2956 -0.4228
 5562SOL    HW118286   1.890   3.547   6.710 -1.7233 -0.5788 -0.5228
 5562SOL    HW218287   1.841   3.487   6.854  0.4273 -0.3376  0.3578
 5563SOL     OW18288   1.109   2.134   3.499 -0.7422  0.3124 -0.0477
 5563SOL    HW118289   1.069   2.179   3.579 -1.8898 -0.0033 -0.4242
 5563SOL    HW218290   1.143   2.203   3.435  2.8537  0.5999  1.9303
 5564SOL     OW18291   6.483   6.112   3.497  0.4314  0.0639 -0.0661
 5564SOL    HW118292   6.478   6.173   3.418  0.9263  0.6134  0.3167
 5564SOL    HW218293   6.579   6.091   3.517  0.2832 -0.5646  0.0232
 5565SOL     OW18294   0.883   2.368   0.472 -0.1558  0.1515 -0.0951
 5565SOL    HW118295   0.918   2.302   0.537  2.0929  0.1266 -1.2129
 5565SOL    HW218296   0.789   2.345   0.447 -0.2364 -1.1850  1.3240
 5566SOL     OW18297   5.960   3.771   1.610 -0.4708  0.9443  0.3668
 5566SOL    HW118298   5.908   3.715   1.675  0.8722 -0.0015  0.6717
 5566SOL    HW218299   5.935   3.746   1.517  0.4415 -0.5705  0.4865
 5567SOL     OW18300   0.089   1.904   3.963  0.4490 -0.0189  0.0889
 5567SOL    HW118301   0.026   1.980   3.979 -0.0136  0.0229 -1.6863
 5567SOL    HW218302   0.044   1.818   3.989  0.6923  0.2185  1.3739
 5568SOL     OW18303   3.446   0.721   0.171  0.6531  0.6757  0.1674
 5568SOL    HW118304   3.453   0.816   0.202 -0.7754  0.5621  0.9375
 5568SOL    HW218305   3.468   0.660   0.247  1.5571  0.3792 -0.3234
 5569SOL     OW18306   4.185   3.349   0.630  0.5721 -0.2035  0.6877
 5569SOL    HW118307   4.207   3.316   0.538  1.9786  1.2002  0.4779
 5569SOL    HW218308   4.086   3.343   0.644 -0.0547  1.8754 -1.9227
 5570SOL     OW18309   4.573   6.020   5.867  0.5882 -0.4384 -0.1552
 5570SOL    HW118310   4.521   6.054   5.946 -0.4995 -1.4898 -0.3926
 5570SOL    HW218311   4.655   5.972   5.898  1.0149  0.5234  0.2551
 5571SOL     OW18312   0.596   5.811   2.282  0.1224 -0.0044 -0.2911
 5571SOL    HW118313   0.653   5.771   2.354  1.6520  0.7612 -1.0274
 5571SOL    HW218314   0.501   5.781   2.294  0.6533 -1.2880  0.9961
 5572SOL     OW18315   2.387   0.011   4.060  0.0492 -0.1182  0.1227
 5572SOL    HW118316   2.389  -0.031   4.151  0.5159 -0.9233 -0.2535
 5572SOL    HW218317   2.434  -0.048   3.995  0.7190  0.9954 -0.4271
 5573SOL     OW18318   4.827   0.416   3.473  0.1493  0.3757 -0.3344
 5573SOL    HW118319   4.740   0.457   3.500 -0.0921  0.5006 -1.2505
 5573SOL    HW218320   4.903   0.466   3.514 -0.2219 -0.7103  1.7999
 5574SOL     OW18321   5.637   4.329   2.493 -0.2746  0.1152  0.5044
 5574SOL    HW118322   5.589   4.245   2.468  1.4581 -0.9800  0.7407
 5574SOL    HW218323   5.691   4.314   2.576 -0.9717  1.8751  1.3492
 5575SOL     OW18324   6.729   6.715   6.690  0.0921  0.0649  0.7686
 5575SOL    HW118325   6.766   6.791   6.637  1.0293 -0.2417  0.9711
 5575SOL    HW218326   6.630   6.728   6.701 -0.5543 -0.8014 -2.6595
 5576SOL     OW18327   0.684   2.252   1.632 -0.0731 -0.3183  0.0696
 5576SOL    HW118328   0.620   2.327   1.650 -2.3281 -1.8541 -0.8964
 5576SOL    HW218329   0.661   2.175   1.691  0.0991 -1.3084 -1.1227
 5577SOL     OW18330   1.165   3.251   1.613 -0.3065 -0.3179  0.1605
 5577SOL    HW118331   1.144   3.154   1.627 -0.3812 -0.5697 -1.4474
 5577SOL    HW218332   1.118   3.284   1.531  0.3268  0.8725  0.2502
 5578SOL     OW18333   3.505   5.496   5.829  0.0412  0.1838 -0.1233
 5578SOL    HW118334   3.471   5.410   5.793  0.9166  0.2429 -1.1351
 5578SOL    HW218335   3.430   5.546   5.872 -0.5952 -0.8073 -0.0563
 5579SOL     OW18336   1.014   4.999   6.408 -0.1462 -0.0770 -0.4128
 5579SOL    HW118337   0.970   4.998   6.318 -0.0479  2.1635 -0.5325
 5579SOL    HW218338   1.009   5.091   6.447  0.9451 -0.7028  1.3297
 5580SOL     OW18339   5.144   6.349   1.152  0.6292 -0.0820 -0.5960
 5580SOL    HW118340   5.180   6.443   1.149 -2.8112  1.3533 -1.1216
 5580SOL    HW218341   5.108   6.330   1.243 -1.5783  0.3862 -1.3133
 5581SOL     OW18342   2.629   6.218   0.882 -0.2708  0.4739  0.4430
 5581SOL    HW118343   2.702   6.285   0.900  0.5222 -0.1535 -0.3032
 5581SOL    HW218344   2.558   6.260   0.826 -0.3209  1.0082  0.9089
 5582SOL     OW18345   3.188   0.277   0.448  0.5908 -0.6472 -0.1116
 5582SOL    HW118346   3.141   0.363   0.429  0.1559 -0.0400  3.2178
 5582SOL    HW218347   3.126   0.200   0.428 -0.2010 -0.0450 -0.0068
 5583SOL     OW18348   2.918   0.004   6.516 -0.1298 -0.1886  0.0154
 5583SOL    HW118349   2.864   0.050   6.586 -1.1221 -2.4557  0.8307
 5583SOL    HW218350   2.863  -0.008   6.433 -0.2037 -0.6874  0.1303
 5584SOL     OW18351   2.905   5.694   0.705  0.0936  0.1988 -0.7879
 5584SOL    HW118352   2.866   5.746   0.781 -0.4780 -0.7883 -0.3791
 5584SOL    HW218353   2.998   5.726   0.686  0.4356  0.1209  0.6702
 5585SOL     OW18354   3.799   4.950   2.571 -0.2918 -0.0633  0.1720
 5585SOL    HW118355   3.753   4.861   2.570 -0.3474 -0.0604 -2.0930
 5585SOL    HW218356   3.874   4.949   2.505  0.7773  1.0566  1.3281
 5586SOL     OW18357   2.979   4.157   4.761 -0.1105  0.2400  0.0527
 5586SOL    HW118358   2.890   4.116   4.782  0.0578  0.4968  1.3759
 5586SOL    HW218359   2.966   4.242   4.711 -0.6547  0.5896  0.7619
 5587SOL     OW18360   1.218   1.033   5.612 -0.6643  0.3093  0.1605
 5587SOL    HW118361   1.192   0.953   5.558 -1.1951 -0.0397  0.9080
 5587SOL    HW218362   1.255   1.104   5.552 -0.8186 -0.2364 -0.5933
 5588SOL     OW18363   2.952   3.723   3.973  0.0524  0.2460  0.1006
 5588SOL    HW118364   2.945   3.750   3.877 -0.4422 -0.3680 -0.0475
 5588SOL    HW218365   2.870   3.753   4.022  0.3692  0.6864  0.3678
 5589SOL     OW18366   3.485   0.048   0.816  0.0784  0.9293 -0.0265
 5589SOL    HW118367   3.484   0.099   0.729  0.4582  0.4665 -0.3081
 5589SOL    HW218368   3.513  -0.046   0.799  2.0130  1.2960  0.8425
 5590SOL     OW18369   6.350   0.051   6.104  0.4722 -0.2493 -0.5886
 5590SOL    HW118370   6.441   0.052   6.146  0.0945 -0.5981  0.2558
 5590SOL    HW218371   6.351  -0.009   6.024  1.1458  0.2421 -0.9525
 5591SOL     OW18372   1.178   1.000   6.464  0.4328 -0.1780 -0.0318
 5591SOL    HW118373   1.083   1.004   6.434  0.2450 -0.4884  0.5037
 5591SOL    HW218374   1.192   1.064   6.540  0.7534  0.1577 -0.3648
 5592SOL     OW18375   3.453   0.777   3.707 -0.2934 -0.2798  0.3031
 5592SOL    HW118376   3.551   0.761   3.714 -0.0669  1.0917  0.5363
 5592SOL    HW218377   3.428   0.857   3.761 -0.9969  1.3282 -2.2041
 5593SOL     OW18378   3.596   5.700   4.075 -0.1985 -0.0595  0.8123
 5593SOL    HW118379   3.660   5.683   4.001  0.0351 -1.9312  1.3958
 5593SOL    HW218380   3.522   5.759   4.043  0.9119  0.7519 -0.3322
 5594SOL     OW18381   5.870   0.786   4.319  0.3519  0.1613  0.0211
 5594SOL    HW118382   5.813   0.834   4.253 -0.0451  1.7114  1.4269
 5594SOL    HW218383   5.965   0.814   4.307  0.2526  0.5978  0.2131
 5595SOL     OW18384   0.375   3.698   1.154  0.0732 -0.6553 -0.3927
 5595SOL    HW118385   0.299   3.633   1.142 -0.3020  0.0053 -1.7631
 5595SOL    HW218386   0.418   3.682   1.244 -1.0249 -1.7156 -0.0191
 5596SOL     OW18387   6.825   6.865   6.225  0.5318 -0.0873  1.0811
 5596SOL    HW118388   6.881   6.848   6.305 -0.9704  0.5536  2.3321
 5596SOL    HW218389   6.883   6.878   6.145  2.0080 -3.5681  1.4231
 5597SOL     OW18390   2.717   4.760   1.381  0.3030 -0.1935 -0.1398
 5597SOL    HW118391   2.624   4.796   1.369 -0.7917 -1.8664  2.4487
 5597SOL    HW218392   2.765   4.764   1.293 -1.4030  2.7174 -1.1106
 5598SOL     OW18393   5.952   0.982   6.952  0.1322 -0.0649  0.1414
 5598SOL    HW118394   5.888   1.010   7.024 -0.0383 -0.9122  0.3316
 5598SOL    HW218395   5.956   1.052   6.882 -0.0957  0.5404  0.7235
 5599SOL     OW18396   4.880   4.093   0.860  0.2476 -0.0477  0.1716
 5599SOL    HW118397   4.894   4.126   0.767  2.0186  0.7481  0.6722
 5599SOL    HW218398   4.964   4.050   0.893 -0.0392  0.5183  1.7147
 5600SOL     OW18399   0.635   5.858   2.007  1.0357  0.2493  0.1246
 5600SOL    HW118400   0.646   5.857   2.106 -0.8753 -1.4412  0.3711
 5600SOL    HW218401   0.564   5.925   1.982  1.1883  0.3403 -0.0709
 5601SOL     OW18402   1.738   1.594   5.751  0.3523  0.4012  0.2583
 5601SOL    HW118403   1.797   1.631   5.823  1.1834 -0.1397 -0.1335
 5601SOL    HW218404   1.651   1.644   5.751  0.8512  1.3105  0.7478
 5602SOL     OW18405   3.022   5.824   5.196 -0.4484  0.1434  0.6680
 5602SOL    HW118406   2.962   5.762   5.145  0.5057 -1.2289  1.1587
 5602SOL    HW218407   3.077   5.877   5.132 -0.7946  0.0110  0.2554
 5603SOL     OW18408   0.819   4.090   5.548 -0.2859 -0.6346  0.2725
 5603SOL    HW118409   0.800   4.003   5.593 -1.7297 -1.0485 -1.0228
 5603SOL    HW218410   0.798   4.165   5.610 -1.0250 -1.2014  0.7208
 5604SOL     OW18411   5.810   2.172   2.783  0.0991 -0.7781  0.4054
 5604SOL    HW118412   5.825   2.249   2.844  0.5526 -1.6871  1.4779
 5604SOL    HW218413   5.712   2.164   2.762  0.1336  0.5149 -0.3257
 5605SOL     OW18414   0.742   4.262   1.910 -0.1571 -0.3484  0.9250
 5605SOL    HW118415   0.799   4.182   1.929 -0.4362 -0.6246  0.6252
 5605SOL    HW218416   0.678   4.240   1.837  0.3166  0.4236  0.2684
 5606SOL     OW18417   6.889   6.755   2.582  0.4101  0.0993  0.2443
 5606SOL    HW118418   6.877   6.694   2.661  0.2153  0.7881  0.7499
 5606SOL    HW218419   6.863   6.705   2.499 -0.7308 -0.2073  0.7565
 5607SOL     OW18420   3.682   4.076   5.652  0.1308  0.4224 -0.4746
 5607SOL    HW118421   3.656   4.172   5.650 -0.3108  0.3218  0.0777
 5607SOL    HW218422   3.748   4.061   5.727  0.0091  0.2522 -0.4006
 5608SOL     OW18423   1.802   2.076   5.201 -0.0312  0.1221  0.1513
 5608SOL    HW118424   1.895   2.104   5.182  0.0812 -0.8275 -0.8002
 5608SOL    HW218425   1.802   1.984   5.242 -0.5565 -0.1841 -0.4935
 5609SOL     OW18426   0.276   6.918   4.558 -0.4280  0.6164 -0.1422
 5609SOL    HW118427   0.317   6.940   4.647 -0.9219  2.0969 -0.2541
 5609SOL    HW218428   0.308   6.983   4.489  0.8890 -1.2026 -1.3704
 5610SOL     OW18429   5.748   5.050   0.963 -0.4031  0.3490 -0.0947
 5610SOL    HW118430   5.655   5.088   0.969 -0.4308  0.6884 -1.9526
 5610SOL    HW218431   5.808   5.119   0.921  0.5460 -0.0977  0.5269
 5611SOL     OW18432   2.039   0.031   4.743  0.2599  0.0818  0.0190
 5611SOL    HW118433   1.945   0.060   4.759 -0.1525 -1.2713  0.1595
 5611SOL    HW218434   2.095   0.051   4.824 -0.6622 -2.0481  1.2595
 5612SOL     OW18435   6.972   0.310   2.366 -0.8336 -0.7645 -0.8552
 5612SOL    HW118436   7.033   0.371   2.316 -1.7709 -1.4802 -2.9828
 5612SOL    HW218437   7.002   0.303   2.462  0.1197  1.8413 -0.9016
 5613SOL     OW18438   3.586   3.810   6.407  0.1762  0.4775  0.0093
 5613SOL    HW118439   3.530   3.885   6.372  0.3942 -0.0429 -1.5450
 5613SOL    HW218440   3.534   3.724   6.401  1.1264 -0.0262 -1.5495
 5614SOL     OW18441   1.259   4.886   6.463 -0.1010  0.2809 -1.0552
 5614SOL    HW118442   1.273   4.787   6.465 -0.6323  0.2013  0.6250
 5614SOL    HW218443   1.161   4.906   6.450 -0.0212  0.5773 -1.2134
 5615SOL     OW18444   6.309   1.342   0.444 -0.4972 -0.1727 -0.3258
 5615SOL    HW118445   6.364   1.399   0.382  0.7530 -1.2897 -0.3050
 5615SOL    HW218446   6.347   1.347   0.536  0.6908 -2.2659 -0.6351
 5616SOL     OW18447   5.924   1.756   1.100  0.3881  0.6512 -0.2290
 5616SOL    HW118448   5.869   1.836   1.123 -0.3222 -0.0158  0.4446
 5616SOL    HW218449   6.019   1.772   1.126  0.3452  1.4371 -0.5112
 5617SOL     OW18450   3.596   3.351   0.173  0.6487  0.2326  0.1869
 5617SOL    HW118451   3.510   3.345   0.225  0.6201 -0.1716  0.1031
 5617SOL    HW218452   3.672   3.325   0.232  0.5442 -0.8843 -0.1369
 5618SOL     OW18453   0.888   2.953   0.111 -0.0589 -0.2444  0.4523
 5618SOL    HW118454   0.984   2.933   0.130 -0.3826 -2.3410  0.1329
 5618SOL    HW218455   0.830   2.895   0.168 -1.0888 -0.9650 -1.2619
 5619SOL     OW18456   1.583   5.226   1.720  0.2952  0.2515 -0.0926
 5619SOL    HW118457   1.569   5.245   1.818 -0.7716  1.1158 -0.3923
 5619SOL    HW218458   1.671   5.181   1.708  0.5819  0.3896  1.2407
 5620SOL     OW18459   5.350   1.607   4.930  0.0095 -0.5994 -0.2882
 5620SOL    HW118460   5.395   1.696   4.929 -1.9447  0.4388 -0.4137
 5620SOL    HW218461   5.417   1.536   4.908  1.9692  0.6222  1.2964
 5621SOL     OW18462   5.884   6.551   6.679 -0.0804  0.0175 -0.3446
 5621SOL    HW118463   5.895   6.549   6.580  0.5758  1.6322 -0.3276
 5621SOL    HW218464   5.869   6.458   6.713  0.5798 -0.6701 -1.8587
 5622SOL     OW18465   6.440   6.850   2.389  0.7757 -0.0252  0.7360
 5622SOL    HW118466   6.433   6.760   2.346 -0.1799  1.2249 -1.9436
 5622SOL    HW218467   6.535   6.867   2.415  1.6344 -0.5079 -1.8229
 5623SOL     OW18468   3.794   0.198   0.338 -0.1953  0.0429 -0.3584
 5623SOL    HW118469   3.720   0.235   0.281 -1.2327 -0.1559  0.8249
 5623SOL    HW218470   3.869   0.264   0.342 -1.2354  1.2353  0.2215
 5624SOL     OW18471   2.214   2.386   5.555 -0.4272 -0.1029 -0.9098
 5624SOL    HW118472   2.307   2.395   5.520  0.4131 -2.1846  0.5492
 5624SOL    HW218473   2.212   2.413   5.651 -1.4160  0.2595 -1.0211
 5625SOL     OW18474   4.160   4.985   3.797  0.1208  0.2534 -0.2899
 5625SOL    HW118475   4.242   4.980   3.740  1.5068 -2.6350  1.6492
 5625SOL    HW218476   4.079   4.969   3.741  0.7599  3.1563 -2.2589
 5626SOL     OW18477   2.101   0.103   2.796  0.1706  0.1109  0.2364
 5626SOL    HW118478   2.060   0.115   2.706  2.4548  0.9205 -0.7618
 5626SOL    HW218479   2.186   0.051   2.788 -0.3671 -1.1998  2.1723
 5627SOL     OW18480   1.391   1.876   6.377  0.4032  0.7197  0.1234
 5627SOL    HW118481   1.349   1.958   6.418  1.3362  0.4195  1.7764
 5627SOL    HW218482   1.480   1.899   6.339  1.8877  0.0665  2.9357
 5628SOL     OW18483   3.251   6.510   0.212 -0.5893 -0.4107  0.1564
 5628SOL    HW118484   3.204   6.559   0.139  0.2933  1.0794  0.5288
 5628SOL    HW218485   3.349   6.508   0.194 -0.6441 -2.6827 -0.1660
 5629SOL     OW18486   2.298   5.626   4.067 -0.2879  0.3813  0.0503
 5629SOL    HW118487   2.375   5.616   4.131  0.1244  0.3721 -0.4439
 5629SOL    HW218488   2.273   5.537   4.030  0.1963  0.5202 -0.6338
 5630SOL     OW18489   4.103   1.710   2.238 -0.0979  0.7409 -0.3193
 5630SOL    HW118490   4.007   1.694   2.214  0.3731 -1.0517 -1.2263
 5630SOL    HW218491   4.124   1.663   2.324 -0.1777  1.6549  0.2047
 5631SOL     OW18492   3.708   2.099   1.661 -0.3273 -0.2081 -0.5363
 5631SOL    HW118493   3.795   2.086   1.614  0.1713  1.3272 -0.1016
 5631SOL    HW218494   3.685   2.196   1.662 -1.4441 -0.4621  0.4185
 5632SOL     OW18495   4.804   5.498   3.609 -0.0519  0.4745  0.2132
 5632SOL    HW118496   4.745   5.576   3.630 -1.7343 -0.8891  0.8144
 5632SOL    HW218497   4.749   5.414   3.607  1.6773 -0.7082 -0.4847
 5633SOL     OW18498   0.313   4.349   0.090  0.1938  0.9078  1.0327
 5633SOL    HW118499   0.305   4.252   0.110 -1.3264  0.1540 -2.4757
 5633SOL    HW218500   0.405   4.369   0.056 -0.1852  0.1072 -0.5593
 5634SOL     OW18501   4.557   3.788   3.452 -0.3251  0.3915 -0.1929
 5634SOL    HW118502   4.580   3.691   3.464 -0.4343  0.2362 -1.1722
 5634SOL    HW218503   4.547   3.808   3.354  0.1993  1.5041 -0.0314
 5635SOL     OW18504   1.298   4.890   3.873  0.4989 -0.1223  0.3875
 5635SOL    HW118505   1.273   4.970   3.928 -0.4717 -0.5001  0.5203
 5635SOL    HW218506   1.222   4.867   3.812  1.1106 -0.4177 -0.2795
 5636SOL     OW18507   3.012   4.441   4.900  0.0014 -0.1668 -0.0491
 5636SOL    HW118508   2.989   4.352   4.939 -0.0298  0.2966  1.0137
 5636SOL    HW218509   2.932   4.478   4.853 -0.0037 -0.6638 -0.4440
 5637SOL     OW18510   4.741   2.014   2.236 -0.1706 -0.0153  0.2098
 5637SOL    HW118511   4.700   2.040   2.149  0.2782 -1.0118 -0.3000
 5637SOL    HW218512   4.838   1.994   2.224 -0.1205 -0.2483  0.9267
 5638SOL     OW18513   6.728   3.133   6.517 -0.0491  0.3265  0.7029
 5638SOL    HW118514   6.725   3.224   6.475 -0.7078  0.6460  1.4049
 5638SOL    HW218515   6.680   3.068   6.459  0.9652  0.2780 -0.1165
 5639SOL     OW18516   5.118   3.997   0.965  0.1843 -0.3787 -0.3864
 5639SOL    HW118517   5.146   3.902   0.965  1.3676 -0.0519  0.0737
 5639SOL    HW218518   5.189   4.053   1.010 -1.6205  0.3627  1.7623
 5640SOL     OW18519   0.622   2.838   6.941  0.1736  0.0515 -0.1355
 5640SOL    HW118520   0.581   2.879   7.023  1.4557  0.7762  0.1669
 5640SOL    HW218521   0.588   2.745   6.929 -1.1571  0.4555  0.3789
 5641SOL     OW18522   6.598   4.782   4.959  0.1720 -0.2651 -0.0246
 5641SOL    HW118523   6.514   4.801   4.907 -0.2588 -2.6577 -0.3154
 5641SOL    HW218524   6.580   4.709   5.025  2.6099 -2.8153 -1.9422
 5642SOL     OW18525   0.057   3.724   5.423 -0.6817 -0.2169 -0.5739
 5642SOL    HW118526   0.103   3.648   5.468 -0.9943 -0.0705  0.0083
 5642SOL    HW218527  -0.020   3.754   5.479 -2.0521 -1.0427 -1.9528
 5643SOL     OW18528   3.420   4.280   6.454  0.1305  0.4207  0.4932
 5643SOL    HW118529   3.389   4.318   6.541 -1.8725  1.4482 -0.5842
 5643SOL    HW218530   3.346   4.287   6.386  1.3886 -0.9574 -1.1213
 5644SOL     OW18531   3.301   5.238   3.434 -0.0317 -0.7266  0.1660
 5644SOL    HW118532   3.294   5.230   3.534  0.4484 -1.2711  0.1625
 5644SOL    HW218533   3.350   5.158   3.398 -1.3326 -1.1828 -0.6447
 5645SOL     OW18534   5.680   2.063   6.865 -0.0128 -0.5796  0.0240
 5645SOL    HW118535   5.684   2.038   6.768 -2.9490 -0.8280 -0.1244
 5645SOL    HW218536   5.719   1.988   6.920  1.5947 -0.4750 -0.9138
 5646SOL     OW18537   1.385   1.361   3.227  0.1018 -0.6404  0.0100
 5646SOL    HW118538   1.294   1.356   3.269 -0.2027 -1.4559 -0.7184
 5646SOL    HW218539   1.376   1.376   3.129  0.7681 -0.3508 -0.0119
 5647SOL     OW18540   5.526   2.814   1.280  0.7713  1.0186  0.2132
 5647SOL    HW118541   5.499   2.762   1.362  0.5527  1.8160  0.6563
 5647SOL    HW218542   5.448   2.866   1.247  1.0806  1.3339 -0.0236
 5648SOL     OW18543   3.836   3.261   5.147  0.2927  0.1185 -0.0138
 5648SOL    HW118544   3.761   3.319   5.177  0.4747  0.5067 -0.3049
 5648SOL    HW218545   3.801   3.172   5.119 -0.0909  0.3994 -0.4245
 5649SOL     OW18546   1.925   0.542   5.081  0.4924 -0.1680  0.1407
 5649SOL    HW118547   1.928   0.622   5.020  0.4254 -0.6429 -0.4941
 5649SOL    HW218548   1.839   0.494   5.068  1.5200 -1.7367 -1.3121
 5650SOL     OW18549   2.467   4.665   6.626  0.0734  0.0382 -0.2562
 5650SOL    HW118550   2.398   4.733   6.651  0.0045 -0.5318  1.1994
 5650SOL    HW218551   2.492   4.612   6.707  1.7067 -0.2466 -0.9065
 5651SOL     OW18552   6.875   6.609   6.456 -0.0888  0.0226  0.5408
 5651SOL    HW118553   6.808   6.622   6.530 -0.4074  0.0886  0.2452
 5651SOL    HW218554   6.828   6.570   6.377  0.4297 -0.9139  0.6828
 5652SOL     OW18555   2.951   0.662   1.182  0.1045 -0.0111  0.2306
 5652SOL    HW118556   2.868   0.648   1.127  0.6340  0.3829 -0.6944
 5652SOL    HW218557   2.985   0.754   1.167  1.3579 -0.5444 -0.3146
 5653SOL     OW18558   0.207   2.163   6.755 -0.0388 -0.0424 -0.1135
 5653SOL    HW118559   0.145   2.139   6.680  0.6978  0.7872 -1.0039
 5653SOL    HW218560   0.180   2.251   6.793 -1.2017 -1.0280  1.4981
 5654SOL     OW18561   2.655   5.095   5.779 -0.1012  0.3262  0.4780
 5654SOL    HW118562   2.660   5.185   5.737 -0.1657  0.0662 -0.1058
 5654SOL    HW218563   2.733   5.040   5.748 -0.8260 -0.2924 -0.3399
 5655SOL     OW18564   4.211   4.113   0.593  0.3432 -0.0559  0.4467
 5655SOL    HW118565   4.224   4.018   0.622  0.5199  0.1692  1.1183
 5655SOL    HW218566   4.187   4.169   0.672 -1.0917  0.2200 -0.1480
 5656SOL     OW18567   4.330   1.739   6.918  0.0112 -0.2007  0.2939
 5656SOL    HW118568   4.355   1.830   6.950  0.0911  0.0001 -0.3216
 5656SOL    HW218569   4.411   1.691   6.884 -0.4061  0.5028 -1.8230
 5657SOL     OW18570   6.744   2.874   3.508 -0.4459  0.2335 -0.1654
 5657SOL    HW118571   6.829   2.878   3.561  0.2579  2.1285 -1.3239
 5657SOL    HW218572   6.675   2.931   3.552 -0.3952  0.4726 -0.3930
 5658SOL     OW18573   1.953   0.409   3.886 -0.0302 -0.5499 -0.4604
 5658SOL    HW118574   2.047   0.379   3.873 -0.2933 -1.4094 -0.4449
 5658SOL    HW218575   1.890   0.339   3.851 -0.6827 -0.7597  1.0250
 5659SOL     OW18576   4.232   5.856   1.037  0.4881 -0.3488 -0.4367
 5659SOL    HW118577   4.321   5.890   1.067  0.9125 -1.6963 -0.0723
 5659SOL    HW218578   4.237   5.756   1.027 -1.1832 -0.5290  0.3158
 5660SOL     OW18579   6.979   4.162   3.817  0.0844 -0.2400  0.5796
 5660SOL    HW118580   7.045   4.088   3.830 -1.7197 -1.7333  1.7246
 5660SOL    HW218581   7.020   4.248   3.849  1.6200 -1.0182  0.8500
 5661SOL     OW18582   0.839   2.343   1.447  0.5392  0.0640 -0.0612
 5661SOL    HW118583   0.894   2.269   1.410  1.9812  0.4447  1.2500
 5661SOL    HW218584   0.775   2.307   1.514 -0.0284 -0.2127 -0.7322
 5662SOL     OW18585   2.832   0.834   2.513 -0.2641  0.4188  0.2509
 5662SOL    HW118586   2.927   0.810   2.493 -0.5355 -0.9605  0.4676
 5662SOL    HW218587   2.786   0.861   2.428 -0.1639 -0.7946 -0.2245
 5663SOL     OW18588   0.584   2.089   5.354  0.1642 -0.7279  0.7074
 5663SOL    HW118589   0.543   2.052   5.272 -0.8972  1.2361  0.2799
 5663SOL    HW218590   0.681   2.108   5.338 -0.3741  1.1716 -0.7343
 5664SOL     OW18591   5.603   5.784   5.824 -0.5068 -0.5998 -0.1566
 5664SOL    HW118592   5.569   5.812   5.913  1.4670  1.6130 -0.0118
 5664SOL    HW218593   5.683   5.726   5.836 -1.0022 -1.3687 -0.5083
 5665SOL     OW18594   4.657   4.852   2.326 -0.5781 -0.3529 -0.1674
 5665SOL    HW118595   4.729   4.916   2.301 -1.7582  0.8542 -0.5749
 5665SOL    HW218596   4.698   4.770   2.367  0.8963  1.6171  2.6147
 5666SOL     OW18597   6.610   4.114   5.130 -0.2967  0.6890  0.5008
 5666SOL    HW118598   6.629   4.200   5.082 -0.8621  0.8715  0.5940
 5666SOL    HW218599   6.515   4.088   5.114 -0.0501 -0.0711  0.2420
 5667SOL     OW18600   6.113   5.523   1.346  0.3042  0.0707  0.1177
 5667SOL    HW118601   6.085   5.537   1.251 -0.7142 -0.9120  0.2513
 5667SOL    HW218602   6.128   5.612   1.390 -0.0702  0.5533 -0.7106
 5668SOL     OW18603   0.643   6.315   5.692  0.2798  0.2220 -0.2732
 5668SOL    HW118604   0.611   6.302   5.598  0.0931  1.7917 -0.4570
 5668SOL    HW218605   0.617   6.236   5.747 -0.5088 -0.2699 -1.3034
 5669SOL     OW18606   4.221   4.757   2.220 -0.2321  0.2444  0.3324
 5669SOL    HW118607   4.298   4.722   2.167  0.3601 -1.7617  2.3336
 5669SOL    HW218608   4.136   4.718   2.185  0.1240 -0.8157  0.5954
 5670SOL     OW18609   4.033   6.830   4.961  0.1750  0.4330 -0.2539
 5670SOL    HW118610   4.016   6.858   5.055  2.5877 -0.6128  0.5735
 5670SOL    HW218611   4.081   6.903   4.913  1.7282 -0.1866  0.3059
 5671SOL     OW18612   1.479   0.788   4.512 -0.3096  0.7713  0.4385
 5671SOL    HW118613   1.431   0.706   4.482 -0.1720  1.0761 -0.6791
 5671SOL    HW218614   1.430   0.829   4.589 -1.8382  1.0441 -0.6341
 5672SOL     OW18615   5.476   5.860   1.397 -0.0439 -0.4603 -0.5093
 5672SOL    HW118616   5.506   5.924   1.326 -0.2764  0.2464  0.0231
 5672SOL    HW218617   5.421   5.788   1.356 -1.6480  0.8933 -0.8366
 5673SOL     OW18618   3.412   6.453   3.148  0.1949 -0.6187  0.2278
 5673SOL    HW118619   3.481   6.385   3.172 -0.1148 -0.2875  2.2183
 5673SOL    HW218620   3.324   6.407   3.134  0.3692 -0.8131 -0.2530
 5674SOL     OW18621   1.534   0.089   3.108  0.3495 -0.2277 -0.0638
 5674SOL    HW118622   1.573   0.035   3.034 -0.1211 -0.2308 -0.3093
 5674SOL    HW218623   1.437   0.103   3.092 -0.2006 -1.8441  1.5067
 5675SOL     OW18624   3.146   2.353   5.795  0.5875  0.0176  0.1641
 5675SOL    HW118625   3.107   2.319   5.880  2.7734 -0.7201  0.9424
 5675SOL    HW218626   3.126   2.289   5.721  0.1039 -0.1950  0.4750
 5676SOL     OW18627   2.089   6.187   6.528 -0.6673 -0.5030 -0.4485
 5676SOL    HW118628   2.015   6.127   6.559  0.1944 -0.2819  2.3358
 5676SOL    HW218629   2.166   6.132   6.496  0.1343 -0.9945  2.1313
 5677SOL     OW18630   1.275   1.643   3.741  0.1882  0.2314 -0.1431
 5677SOL    HW118631   1.180   1.612   3.740 -0.6293  2.5707  0.1539
 5677SOL    HW218632   1.296   1.690   3.655  0.7112  0.7587  0.2640
 5678SOL     OW18633   1.227   4.314   4.960  0.1714  0.0332  0.4597
 5678SOL    HW118634   1.184   4.344   5.045  0.2827 -0.2417  0.6181
 5678SOL    HW218635   1.316   4.274   4.981  0.4882  0.5597  0.1411
 5679SOL     OW18636   5.645   3.583   3.188 -0.3921 -0.3061  0.4638
 5679SOL    HW118637   5.730   3.636   3.182 -0.2086 -0.5652  0.6911
 5679SOL    HW218638   5.622   3.568   3.285  0.5195 -2.1279  0.4428
 5680SOL     OW18639   0.822   0.391   3.087 -0.2363  0.1587  0.3527
 5680SOL    HW118640   0.821   0.462   3.158  0.0702  0.6172 -0.1016
 5680SOL    HW218641   0.844   0.303   3.129 -0.9577  0.2591  0.9774
 5681SOL     OW18642   2.708   4.259   2.283  0.5856 -0.3027  0.6565
 5681SOL    HW118643   2.779   4.189   2.292  0.6475 -0.3085  0.1438
 5681SOL    HW218644   2.744   4.337   2.233 -0.1842 -0.9197 -0.9234
 5682SOL     OW18645   6.816   4.714   1.071  0.4011  0.5802  0.2415
 5682SOL    HW118646   6.914   4.695   1.063  0.1952 -0.3472 -0.2726
 5682SOL    HW218647   6.777   4.656   1.143  0.0900  0.3628 -0.0985
 5683SOL     OW18648   6.442   3.590   5.391 -0.0477 -0.2158 -0.2277
 5683SOL    HW118649   6.459   3.688   5.375 -2.5558  0.5048  1.0360
 5683SOL    HW218650   6.383   3.555   5.318 -0.1205 -0.4960 -0.0324
 5684SOL     OW18651   3.829   2.487   0.064  0.0288 -0.1764  0.3420
 5684SOL    HW118652   3.773   2.404   0.064  1.5279 -1.2466 -0.8072
 5684SOL    HW218653   3.800   2.547   0.138 -2.1907 -0.9594  0.1772
 5685SOL     OW18654   4.269   4.647   5.534  0.2930 -1.0192 -0.3143
 5685SOL    HW118655   4.203   4.643   5.609 -0.0183  1.6324 -0.3418
 5685SOL    HW218656   4.224   4.678   5.451  0.8343 -3.0182 -1.4237
 5686SOL     OW18657   1.118   6.829   0.300 -0.0243 -0.6501 -0.1553
 5686SOL    HW118658   1.148   6.820   0.205  1.6898 -0.0328  0.2948
 5686SOL    HW218659   1.039   6.770   0.316  0.0564 -1.2362 -1.8011
 5687SOL     OW18660   2.884   4.039   5.909 -0.0715  0.0097  0.2264
 5687SOL    HW118661   2.835   4.093   5.977 -1.2114  0.1385 -0.6798
 5687SOL    HW218662   2.854   4.064   5.817 -1.2022 -2.6398 -0.2271
 5688SOL     OW18663   1.461   0.287   2.856 -0.2790  0.3785 -0.3859
 5688SOL    HW118664   1.457   0.190   2.833 -0.7847  0.1779  0.4733
 5688SOL    HW218665   1.368   0.324   2.859 -0.1340  0.7231 -0.0461
 5689SOL     OW18666   0.549   4.450   3.665  0.2625 -0.3827 -0.5633
 5689SOL    HW118667   0.613   4.376   3.680 -0.3592 -0.8169 -0.0147
 5689SOL    HW218668   0.595   4.538   3.679  0.4851 -0.7045  0.8477
 5690SOL     OW18669   4.121   3.613   0.696 -0.2534  0.4697 -0.3069
 5690SOL    HW118670   4.138   3.533   0.638  0.0621  0.5913 -0.3866
 5690SOL    HW218671   4.032   3.604   0.740  0.8231 -1.1750  1.7155
 5691SOL     OW18672   5.496   0.484   5.204 -0.2709  0.2405  0.3098
 5691SOL    HW118673   5.441   0.417   5.254 -0.9714  2.3340  2.5141
 5691SOL    HW218674   5.439   0.561   5.177  0.0749 -0.6833 -3.8708
 5692SOL     OW18675   0.649   6.679   2.996 -0.3994 -0.0040 -0.7861
 5692SOL    HW118676   0.578   6.746   2.976 -1.6324 -1.1267 -0.2887
 5692SOL    HW218677   0.657   6.666   3.094  2.7948  2.4646 -0.5616
 5693SOL     OW18678   6.556   6.974   3.682  0.3553 -0.6413  0.1936
 5693SOL    HW118679   6.464   6.987   3.717  0.6699  1.5377  0.3970
 5693SOL    HW218680   6.622   6.984   3.757  0.9171  1.9812 -0.5131
 5694SOL     OW18681   3.457   3.957   1.127 -0.6940 -0.0917 -0.3656
 5694SOL    HW118682   3.499   3.872   1.158  1.0319  0.3513 -1.3209
 5694SOL    HW218683   3.447   3.954   1.027 -3.1744 -0.2338 -0.1696
 5695SOL     OW18684   0.056   5.559   4.629 -1.1981  0.0897 -0.3670
 5695SOL    HW118685  -0.020   5.586   4.570 -0.0448 -1.2466 -2.6130
 5695SOL    HW218686   0.141   5.596   4.592 -0.4566 -0.5558  0.6422
 5696SOL     OW18687   1.215   1.364   1.921 -0.2190  0.1450 -0.2392
 5696SOL    HW118688   1.158   1.301   1.868 -1.4375  0.4464  0.6533
 5696SOL    HW218689   1.294   1.314   1.958 -1.6429 -1.1503  1.2368
 5697SOL     OW18690   5.343   1.446   2.936  0.0069 -0.0622  0.3943
 5697SOL    HW118691   5.332   1.350   2.911  0.6041 -0.8350  2.8061
 5697SOL    HW218692   5.368   1.452   3.033 -0.3570  2.5609  0.3840
 5698SOL     OW18693   1.362   1.817   0.551 -0.0392 -0.2301 -0.1984
 5698SOL    HW118694   1.268   1.803   0.583 -0.2122  1.1123 -0.0509
 5698SOL    HW218695   1.381   1.755   0.475 -0.3130 -2.0273  1.1375
 5699SOL     OW18696   6.758   6.384   1.284 -0.5307  0.6909 -0.3308
 5699SOL    HW118697   6.777   6.412   1.378 -1.2467  1.8158 -0.4875
 5699SOL    HW218698   6.709   6.458   1.237 -1.2802 -0.3319 -1.2186
 5700SOL     OW18699   4.521   3.134   6.313  0.6962 -0.0024  0.7456
 5700SOL    HW118700   4.450   3.179   6.259 -1.1266 -2.1499  1.2112
 5700SOL    HW218701   4.595   3.198   6.331 -1.0933  2.3419  0.2026
 5701SOL     OW18702   0.553   6.135   5.867 -0.5393  0.8656  0.0086
 5701SOL    HW118703   0.466   6.100   5.902 -0.5224 -1.0551 -1.6577
 5701SOL    HW218704   0.625   6.068   5.884  0.0402  1.2032 -1.0279
 5702SOL     OW18705   5.817   3.708   6.871 -0.7258  0.7581  0.1407
 5702SOL    HW118706   5.816   3.684   6.969  3.5824 -1.7634 -0.1647
 5702SOL    HW218707   5.822   3.807   6.861  1.9987  1.0254  2.7461
 5703SOL     OW18708   2.777   3.110   5.598 -0.0503 -0.1296  0.3483
 5703SOL    HW118709   2.870   3.078   5.619  1.4575  3.2806 -0.4448
 5703SOL    HW218710   2.740   3.159   5.677 -0.5085 -0.0334  0.0760
 5704SOL     OW18711   3.077   3.162   6.165 -0.4079  0.0443  0.1081
 5704SOL    HW118712   3.112   3.218   6.239 -1.5562 -1.2546  1.7010
 5704SOL    HW218713   2.980   3.182   6.150 -1.2235 -2.3288  1.6232
 5705SOL     OW18714   3.078   6.500   1.568  0.5921  0.3481  0.2344
 5705SOL    HW118715   3.082   6.404   1.595  0.9434  0.2621 -0.1016
 5705SOL    HW218716   3.169   6.530   1.540  0.5127  0.8226  0.4810
 5706SOL     OW18717   4.845   6.924   0.867 -0.1325 -0.1135  0.1160
 5706SOL    HW118718   4.903   6.858   0.914 -0.7759 -0.4069  0.5074
 5706SOL    HW218719   4.889   7.014   0.869  0.3980 -0.3725  0.2316
 5707SOL     OW18720   0.141   4.698   0.168 -0.4786 -0.0731  0.3155
 5707SOL    HW118721   0.052   4.711   0.125 -0.5466 -2.7219 -0.4663
 5707SOL    HW218722   0.212   4.739   0.109 -0.8936 -0.6932 -0.6408
 5708SOL     OW18723   4.432   1.694   5.760 -0.6039 -0.1283  0.7441
 5708SOL    HW118724   4.425   1.793   5.754  0.6380 -0.0227  0.8707
 5708SOL    HW218725   4.360   1.659   5.821 -0.9614  0.6988  0.8061
 5709SOL     OW18726   5.928   6.533   2.203  0.5613  0.1245  0.3074
 5709SOL    HW118727   5.998   6.594   2.238  0.1425  1.3933 -0.9422
 5709SOL    HW218728   5.851   6.530   2.266 -0.5150  2.9727 -0.7150
 5710SOL     OW18729   2.327   2.076   6.041  0.6280 -0.0668 -0.0410
 5710SOL    HW118730   2.269   2.134   6.098 -0.4074 -0.4455 -0.6756
 5710SOL    HW218731   2.397   2.033   6.097 -0.8054 -0.9975  1.1145
 5711SOL     OW18732   2.670   3.231   4.920 -0.8445  0.2146 -0.6184
 5711SOL    HW118733   2.679   3.305   4.854 -1.7348 -0.8460 -1.9898
 5711SOL    HW218734   2.716   3.256   5.006 -0.5355  2.0339 -1.2807
 5712SOL     OW18735   1.152   2.679   5.497 -0.0418  0.4753 -0.3079
 5712SOL    HW118736   1.235   2.709   5.451  0.2489  0.6205  0.2991
 5712SOL    HW218737   1.109   2.757   5.542  0.8044  0.0082  1.4212
 5713SOL     OW18738   1.692   2.265   1.254 -0.5367  0.2696 -0.3381
 5713SOL    HW118739   1.731   2.325   1.185  0.8469 -0.7452 -0.4677
 5713SOL    HW218740   1.765   2.219   1.303 -1.5260  0.2003  1.1301
 5714SOL     OW18741   5.046   4.431   5.567  0.6755  0.2849  0.0574
 5714SOL    HW118742   4.998   4.514   5.539  0.9249 -0.2272 -2.0595
 5714SOL    HW218743   4.979   4.363   5.597  0.4155  0.9587  1.0496
 5715SOL     OW18744   3.499   6.729   3.241 -0.5320 -0.0931  0.0548
 5715SOL    HW118745   3.496   6.641   3.194 -1.2958 -0.5397  0.9111
 5715SOL    HW218746   3.413   6.778   3.227  0.0054  0.6750 -0.6811
 5716SOL     OW18747   6.542   1.443   3.666  0.3081 -0.7057  0.8932
 5716SOL    HW118748   6.619   1.387   3.632 -0.3688 -0.9316 -0.3291
 5716SOL    HW218749   6.471   1.382   3.702 -1.1465 -0.8560 -1.9111
 5717SOL     OW18750   0.808   6.051   6.315  0.3499  0.7060 -0.6353
 5717SOL    HW118751   0.809   6.101   6.401 -0.7997  1.1791 -0.8796
 5717SOL    HW218752   0.740   6.091   6.253 -0.3131 -0.8594 -0.9959
 5718SOL     OW18753   0.232   1.163   5.068  0.2576  0.0110  0.2908
 5718SOL    HW118754   0.243   1.256   5.102 -0.6101  0.0615  0.4594
 5718SOL    HW218755   0.316   1.133   5.024  0.1663  1.2902 -0.7923
 5719SOL     OW18756   4.149   0.744   5.723  0.3459  0.1184 -0.6680
 5719SOL    HW118757   4.061   0.769   5.764  1.7938  2.4781  1.2624
 5719SOL    HW218758   4.178   0.656   5.758  0.6220  1.2037  2.0349
 5720SOL     OW18759   6.663   1.618   4.616 -0.3593  0.0671  0.1483
 5720SOL    HW118760   6.642   1.567   4.532  1.4265  1.2936 -1.1025
 5720SOL    HW218761   6.699   1.708   4.593  3.3013 -0.7024  2.0509
 5721SOL     OW18762   3.210   6.521   4.005  0.4248  0.1921  0.0886
 5721SOL    HW118763   3.140   6.528   3.935 -0.3337 -1.3327  0.6532
 5721SOL    HW218764   3.223   6.425   4.030  0.1451  0.7187  2.5482
 5722SOL     OW18765   3.188   1.767   0.491  0.3571  0.3465  0.4450
 5722SOL    HW118766   3.281   1.793   0.467  0.2158 -0.8202 -1.5145
 5722SOL    HW218767   3.132   1.759   0.408 -1.3376  0.4025  1.5191
 5723SOL     OW18768   3.656   3.582   5.870 -0.5922 -0.0887 -0.3726
 5723SOL    HW118769   3.692   3.489   5.879  0.0429  0.2277  0.4594
 5723SOL    HW218770   3.670   3.615   5.777 -2.0125 -1.2971 -1.0564
 5724SOL     OW18771   3.323   6.948   2.576 -0.3020 -0.0318 -0.2901
 5724SOL    HW118772   3.317   7.006   2.657  1.1169 -0.5344  0.2242
 5724SOL    HW218773   3.375   6.865   2.599 -0.6777 -0.6192 -1.4792
 5725SOL     OW18774   0.886   2.188   4.375 -0.0722 -0.2098 -0.1115
 5725SOL    HW118775   0.951   2.119   4.405  1.5308  1.4709  0.4889
 5725SOL    HW218776   0.803   2.183   4.431  0.0632 -1.5423 -0.0111
 5726SOL     OW18777   6.269   6.345   3.760  0.1221 -0.4470 -0.3185
 5726SOL    HW118778   6.186   6.357   3.705 -0.3942  0.7764  0.6556
 5726SOL    HW218779   6.293   6.248   3.766 -0.4034 -0.6833 -1.8035
 5727SOL     OW18780   6.520   2.071   0.330  0.4972 -0.3142 -0.1736
 5727SOL    HW118781   6.522   2.084   0.231 -0.4713 -0.9848 -0.3046
 5727SOL    HW218782   6.613   2.060   0.365  0.9151  0.8719 -0.8650
 5728SOL     OW18783   2.137   5.736   6.578  0.0629 -0.8885  0.3344
 5728SOL    HW118784   2.168   5.711   6.486  1.0032  2.9487 -0.5524
 5728SOL    HW218785   2.194   5.690   6.646  0.7706 -2.1108 -1.0389
 5729SOL     OW18786   1.132   0.028   2.132  0.1635 -0.0099  0.3124
 5729SOL    HW118787   1.185   0.097   2.182  2.3600  0.1799 -2.0176
 5729SOL    HW218788   1.076   0.074   2.063 -1.0664 -0.3904  1.0374
 5730SOL     OW18789   1.322   0.495   6.389  0.0818 -0.3615  0.5842
 5730SOL    HW118790   1.342   0.592   6.381  3.1828 -0.8792  0.7881
 5730SOL    HW218791   1.337   0.450   6.300 -0.1407 -0.8469  0.7866
 5731SOL     OW18792   3.105   5.745   0.488 -0.1413  0.1227  0.0093
 5731SOL    HW118793   3.200   5.775   0.487 -0.3114  0.7776  1.1934
 5731SOL    HW218794   3.100   5.651   0.522  0.1200 -0.0941 -0.5455
 5732SOL     OW18795   1.788   5.539   2.808  0.3448 -0.4118  0.0080
 5732SOL    HW118796   1.715   5.471   2.809  0.2202 -0.2770  0.4528
 5732SOL    HW218797   1.830   5.544   2.899  0.2004  0.2668  0.0450
 5733SOL     OW18798   3.547   4.502   2.561  0.0721 -0.1867  0.2776
 5733SOL    HW118799   3.451   4.525   2.545 -0.0485 -1.3167 -0.7163
 5733SOL    HW218800   3.588   4.466   2.477  1.1548 -0.4546  0.8942
 5734SOL     OW18801   5.962   2.311   5.409 -0.1122  0.8371  0.0685
 5734SOL    HW118802   6.049   2.262   5.410 -0.4854  0.1597  1.1433
 5734SOL    HW218803   5.931   2.325   5.503 -1.4894  0.4948 -0.3162
 5735SOL     OW18804   1.291   1.587   5.182  0.6928 -0.2414  0.5594
 5735SOL    HW118805   1.321   1.658   5.245 -0.5813  0.4042  0.4817
 5735SOL    HW218806   1.257   1.629   5.098  0.2643 -0.9577  0.3612
 5736SOL     OW18807   4.491   4.315   1.880  0.0792 -0.2163 -0.5616
 5736SOL    HW118808   4.556   4.245   1.909  0.4382 -0.3064 -1.5517
 5736SOL    HW218809   4.448   4.357   1.960 -1.1629 -2.5032  0.0495
 5737SOL     OW18810   4.509   5.601   2.666 -0.2063 -0.3444  0.0697
 5737SOL    HW118811   4.490   5.673   2.599  2.4459 -1.1128 -1.6585
 5737SOL    HW218812   4.459   5.518   2.641 -0.1535 -0.2739 -0.2740
 5738SOL     OW18813   3.492   2.712   6.753  0.6271  0.5230  0.3471
 5738SOL    HW118814   3.459   2.688   6.844  0.3730  0.3141  0.2005
 5738SOL    HW218815   3.439   2.788   6.717 -0.9901 -1.0116 -0.6628
 5739SOL     OW18816   3.225   1.180   3.698 -0.1385 -0.0624 -0.5154
 5739SOL    HW118817   3.220   1.279   3.682  0.7069 -0.1372 -1.3645
 5739SOL    HW218818   3.224   1.133   3.610  0.4915 -0.7535 -0.1600
 5740SOL     OW18819   4.196   1.008   3.506 -0.2705  0.2002 -0.9575
 5740SOL    HW118820   4.157   0.960   3.584  1.0616 -0.4022 -0.6455
 5740SOL    HW218821   4.122   1.044   3.449 -1.2706 -0.5828 -0.1854
 5741SOL     OW18822   0.344   3.279   3.602  0.0005 -0.0305 -0.5633
 5741SOL    HW118823   0.322   3.182   3.593  1.9247 -0.4708 -1.0505
 5741SOL    HW218824   0.417   3.290   3.670 -1.7475  1.3562  1.2037
 5742SOL     OW18825   6.304   3.892   6.545 -0.1113 -0.5524 -0.0096
 5742SOL    HW118826   6.325   3.809   6.597  0.2116  0.4333  1.4862
 5742SOL    HW218827   6.372   3.904   6.473 -0.1820 -1.5952 -0.2622
 5743SOL     OW18828   3.415   1.162   3.300  0.0607  0.4064 -0.2142
 5743SOL    HW118829   3.318   1.184   3.304  0.4553  2.2610 -0.2282
 5743SOL    HW218830   3.460   1.194   3.384  0.7068 -0.2275 -0.3112
 5744SOL     OW18831   5.736   1.344   5.208 -0.1574 -0.0284 -0.8614
 5744SOL    HW118832   5.704   1.438   5.213  0.4875  0.1476  1.5138
 5744SOL    HW218833   5.673   1.284   5.258  1.1900 -0.2354  0.7059
 5745SOL     OW18834   3.958   1.646   3.409 -0.1501  0.0603  0.2796
 5745SOL    HW118835   4.010   1.561   3.401  0.9719  0.7625 -0.0814
 5745SOL    HW218836   3.917   1.651   3.500 -1.3683 -1.4815 -0.1443
 5746SOL     OW18837   1.261   3.539   1.971 -0.4809 -0.1004 -0.1667
 5746SOL    HW118838   1.314   3.511   2.052 -2.3346 -0.2097  1.0651
 5746SOL    HW218839   1.249   3.638   1.971 -0.5755 -0.1114 -0.2408
 5747SOL     OW18840   0.966   2.116   1.365 -1.0471  0.1502 -0.3244
 5747SOL    HW118841   0.973   2.097   1.267  0.2683  0.4997 -0.3170
 5747SOL    HW218842   0.984   2.032   1.417 -0.9457  0.1404 -0.3755
 5748SOL     OW18843   2.156   4.484   0.126  0.1291 -0.3213  0.0157
 5748SOL    HW118844   2.093   4.562   0.125  0.0966 -0.1474 -4.5359
 5748SOL    HW218845   2.106   4.401   0.150 -2.0665 -0.2011 -3.4731
 5749SOL     OW18846   3.207   6.996   1.520  0.7553  0.3906 -0.5989
 5749SOL    HW118847   3.222   6.970   1.615  1.4263  2.0716 -0.2069
 5749SOL    HW218848   3.281   7.057   1.490 -1.1525  2.5696 -1.1360
 5750SOL     OW18849   4.950   5.763   2.799 -0.3190  0.0327 -0.9276
 5750SOL    HW118850   5.037   5.745   2.755  0.1564  0.3157 -0.1365
 5750SOL    HW218851   4.897   5.679   2.806  0.5448 -0.4571 -0.0609
 5751SOL     OW18852   5.614   2.382   1.606  0.5276 -0.7563  0.0295
 5751SOL    HW118853   5.584   2.303   1.552  0.2977 -1.3092  0.9543
 5751SOL    HW218854   5.687   2.430   1.557 -0.9753 -0.0997 -1.6819
 5752SOL     OW18855   1.105   4.152   4.367 -0.1365  0.2196  0.8516
 5752SOL    HW118856   1.029   4.120   4.423 -3.2145 -0.6443 -3.2605
 5752SOL    HW218857   1.157   4.073   4.333 -0.5642  0.3591 -0.1937
 5753SOL     OW18858   6.517   6.988   6.871  0.3435 -0.0720  0.4078
 5753SOL    HW118859   6.576   7.060   6.833  0.1955  0.3551  0.9741
 5753SOL    HW218860   6.564   6.943   6.946  0.3593 -0.4488  0.1765
 5754SOL     OW18861   2.254   6.286   4.947  0.0478  0.5337  0.1081
 5754SOL    HW118862   2.263   6.385   4.953  1.5236  0.5585 -1.7545
 5754SOL    HW218863   2.345   6.244   4.949 -0.5575 -0.8042  0.9160
 5755SOL     OW18864   1.427   0.481   1.036 -0.3191  0.5911 -0.7333
 5755SOL    HW118865   1.446   0.394   1.083  1.0074 -0.3699 -2.8797
 5755SOL    HW218866   1.508   0.539   1.042 -0.1835  0.5101 -1.6750
 5756SOL     OW18867   5.256   1.516   6.085  0.9062  0.3024 -0.7106
 5756SOL    HW118868   5.205   1.543   6.003  0.6285  2.1359  0.0249
 5756SOL    HW218869   5.289   1.423   6.074 -1.9467 -0.7218 -1.5402
 5757SOL     OW18870   3.816   2.892   6.339  0.2131  0.5005  0.2135
 5757SOL    HW118871   3.796   2.856   6.430 -0.0178 -0.6659 -0.2789
 5757SOL    HW218872   3.808   2.991   6.339 -1.0076  0.4193  1.1592
 5758SOL     OW18873   4.504   6.498   4.289  0.2285  0.3462 -0.3432
 5758SOL    HW118874   4.419   6.473   4.243 -0.9012  0.8073  1.3990
 5758SOL    HW218875   4.581   6.470   4.233 -1.0362 -1.6162 -1.2225
 5759SOL     OW18876   4.838   3.917   1.812 -0.2655 -0.3790  0.4289
 5759SOL    HW118877   4.900   3.838   1.821 -1.3507 -1.4058 -0.7056
 5759SOL    HW218878   4.744   3.888   1.832 -0.8576  0.3105 -1.2351
 5760SOL     OW18879   6.725   6.135   1.804  0.3046 -0.0187  0.0572
 5760SOL    HW118880   6.743   6.074   1.881  1.5227 -0.6501 -0.7152
 5760SOL    HW218881   6.787   6.115   1.729  0.0075  1.4541 -0.6288
 5761SOL     OW18882   2.142   2.183   1.165 -0.1354  0.0336  0.3808
 5761SOL    HW118883   2.053   2.197   1.122  0.9805 -0.0676 -2.1380
 5761SOL    HW218884   2.169   2.087   1.155  0.3546  0.1069  0.9461
 5762SOL     OW18885   1.886   4.138   5.423  0.2407 -0.1599  0.1839
 5762SOL    HW118886   1.878   4.148   5.523  0.7758 -1.0290  0.3267
 5762SOL    HW218887   1.841   4.053   5.396  0.5858 -0.2071 -0.2426
 5763SOL     OW18888   1.253   5.001   6.805 -0.2168  0.3008 -0.4370
 5763SOL    HW118889   1.322   4.949   6.756 -1.7114 -2.4151  0.1456
 5763SOL    HW218890   1.198   5.054   6.740 -0.1251 -0.6965 -1.3545
 5764SOL     OW18891   5.931   5.765   3.048  0.3531 -0.0862  0.1168
 5764SOL    HW118892   5.894   5.725   2.964  0.9487  0.5549 -0.4592
 5764SOL    HW218893   5.871   5.839   3.079 -0.0881 -0.5936  0.4961
 5765SOL     OW18894   3.107   2.242   6.716 -0.7196  0.2940 -0.4123
 5765SOL    HW118895   3.164   2.310   6.671 -0.5343  0.8963  0.6894
 5765SOL    HW218896   3.138   2.150   6.691  0.7532  0.6122  0.1712
 5766SOL     OW18897   2.709   2.121   0.523  0.2186  0.2210 -0.0658
 5766SOL    HW118898   2.766   2.078   0.593 -0.7055  0.8487  1.1139
 5766SOL    HW218899   2.729   2.219   0.518  1.5716 -0.0922 -2.0077
 5767SOL     OW18900   6.602   5.089   3.026 -0.0836 -0.1680 -0.0277
 5767SOL    HW118901   6.598   5.036   3.111 -2.1243 -0.5812 -0.3161
 5767SOL    HW218902   6.695   5.122   3.011  0.5379 -0.9447  1.8310
 5768SOL     OW18903   5.134   1.573   5.078 -0.3876  0.4274 -0.2410
 5768SOL    HW118904   5.142   1.475   5.097 -1.2706  0.5996  1.2265
 5768SOL    HW218905   5.212   1.603   5.023  2.4238 -0.2418  3.0197
 5769SOL     OW18906   1.031   4.878   1.341  0.4983  0.3213  0.1343
 5769SOL    HW118907   1.072   4.789   1.325  0.2246  0.2814 -0.3748
 5769SOL    HW218908   0.932   4.873   1.325  0.6258  0.9575 -0.9812
 5770SOL     OW18909   5.145   0.290   1.779 -0.4774 -0.3205  0.0652
 5770SOL    HW118910   5.105   0.379   1.756 -0.8292 -0.4944 -0.0027
 5770SOL    HW218911   5.121   0.223   1.709 -2.5519 -1.1516  1.4582
 5771SOL     OW18912   3.690   2.032   3.855 -0.5680 -0.4995  0.0473
 5771SOL    HW118913   3.717   2.081   3.937  0.1522 -1.9664  0.7127
 5771SOL    HW218914   3.606   2.073   3.818 -1.0427  0.0461  1.6439
 5772SOL     OW18915   1.749   5.124   5.095 -0.0845 -0.5407  0.7694
 5772SOL    HW118916   1.780   5.035   5.060  0.9098  0.4948 -1.1334
 5772SOL    HW218917   1.819   5.161   5.157  0.8239  0.0963 -0.5785
 5773SOL     OW18918   2.433   5.137   5.542 -0.3482 -0.0867  0.1957
 5773SOL    HW118919   2.369   5.169   5.473  0.5807  1.5516  0.0527
 5773SOL    HW218920   2.476   5.052   5.511 -0.8369 -0.0186 -0.6836
 5774SOL     OW18921   0.999   1.548   5.306 -0.1134 -0.6511  0.1104
 5774SOL    HW118922   1.033   1.495   5.228  0.9609 -0.2111  0.2731
 5774SOL    HW218923   1.076   1.585   5.358 -0.7888  2.4806 -0.9253
 5775SOL     OW18924   6.217   3.928   3.176 -0.4224 -1.0617 -1.1047
 5775SOL    HW118925   6.204   3.891   3.268  0.3651 -0.4098 -0.7208
 5775SOL    HW218926   6.129   3.961   3.140 -0.6809 -1.0377 -0.4584
 5776SOL     OW18927   4.366   6.027   1.460 -0.0348  0.1172 -0.0608
 5776SOL    HW118928   4.313   6.091   1.515 -2.1981 -1.3881 -0.2557
 5776SOL    HW218929   4.423   5.970   1.520  1.8980  2.0971  0.1117
 5777SOL     OW18930   4.430   6.842   0.132  0.1483 -0.3227  0.6385
 5777SOL    HW118931   4.366   6.913   0.102  0.9000  0.2935  0.4654
 5777SOL    HW218932   4.496   6.881   0.196  1.5384 -0.4511 -0.6363
 5778SOL     OW18933   1.839   1.433   4.201 -0.1684 -0.2940  0.0369
 5778SOL    HW118934   1.912   1.365   4.213 -1.0010 -1.0654  0.8106
 5778SOL    HW218935   1.865   1.518   4.246  0.0885 -0.6956  0.6622
 5779SOL     OW18936   6.974   4.484   6.055  0.1777  0.4772  0.1834
 5779SOL    HW118937   7.072   4.483   6.073  0.3130  2.0066 -0.3429
 5779SOL    HW218938   6.937   4.391   6.065  1.5313  0.0098  1.0812
 5780SOL     OW18939   4.250   2.318   0.758  0.1977  0.3900  0.6648
 5780SOL    HW118940   4.162   2.307   0.806  0.4109  0.5543  1.1021
 5780SOL    HW218941   4.296   2.400   0.793  0.0035  0.9643 -0.3793
 5781SOL     OW18942   3.052   6.722   3.697 -0.3238  0.3049 -0.1053
 5781SOL    HW118943   3.035   6.813   3.733  0.1955  0.3544  0.0110
 5781SOL    HW218944   3.148   6.712   3.672 -0.7401  0.4112 -1.8684
 5782SOL     OW18945   4.123   1.349   0.502 -0.1559  0.2939 -0.0257
 5782SOL    HW118946   4.051   1.285   0.530  0.5874  0.6747  3.1434
 5782SOL    HW218947   4.094   1.443   0.519  1.2541  0.4269  2.0762
 5783SOL     OW18948   3.400   2.170   4.897 -0.1028 -0.0360  0.3872
 5783SOL    HW118949   3.310   2.128   4.891 -0.5815  0.6994  1.9137
 5783SOL    HW218950   3.392   2.269   4.882  0.3589  0.1079  1.0437
 5784SOL     OW18951   6.713   2.531   0.331 -0.4455  0.6274 -0.1952
 5784SOL    HW118952   6.807   2.543   0.365 -0.5945  2.3823 -0.2917
 5784SOL    HW218953   6.660   2.613   0.351 -3.4995 -2.0355  4.4121
 5785SOL     OW18954   3.894   4.120   6.905 -0.0726  0.0966 -0.2785
 5785SOL    HW118955   3.904   4.079   6.996 -1.8653  1.7865  0.7905
 5785SOL    HW218956   3.981   4.160   6.876  0.4199 -0.0698  0.9165
 5786SOL     OW18957   3.274   6.381   2.838 -0.7746 -0.1603  0.5779
 5786SOL    HW118958   3.330   6.302   2.859 -0.5870 -0.0478  0.5028
 5786SOL    HW218959   3.275   6.398   2.739  1.0293  1.2840  0.7850
 5787SOL     OW18960   5.482   4.765   4.528 -0.5751 -0.2196  0.5450
 5787SOL    HW118961   5.514   4.796   4.618  1.3686  2.7978 -0.9889
 5787SOL    HW218962   5.389   4.731   4.535 -0.1132 -1.1314  3.8387
 5788SOL     OW18963   4.781   2.066   6.290 -0.5202 -0.1381  0.3231
 5788SOL    HW118964   4.814   2.087   6.198 -0.7065 -0.4782  0.1799
 5788SOL    HW218965   4.842   1.999   6.332  1.3943  2.2304  1.6146
 5789SOL     OW18966   5.101   5.362   1.499 -0.4194 -0.3954 -0.1430
 5789SOL    HW118967   5.110   5.330   1.404 -0.2971 -1.0671  0.0972
 5789SOL    HW218968   5.118   5.287   1.562  1.6279  0.4913  0.4656
 5790SOL     OW18969   5.978   3.076   6.840 -0.5087  0.2677  0.3374
 5790SOL    HW118970   5.899   3.052   6.897 -1.8632 -0.0627 -1.5648
 5790SOL    HW218971   6.024   2.992   6.810 -0.3883  0.3916  0.1756
 5791SOL     OW18972   6.122   2.128   3.867  0.0230  0.0056  0.0076
 5791SOL    HW118973   6.144   2.224   3.886 -0.5210  0.0725  0.3246
 5791SOL    HW218974   6.034   2.122   3.821  1.1776 -0.1796 -2.3268
 5792SOL     OW18975   1.005   0.707   1.043  0.0174 -0.6796  0.6083
 5792SOL    HW118976   0.983   0.676   0.951 -1.7940 -0.5819  0.9732
 5792SOL    HW218977   1.065   0.640   1.087  1.1386 -0.5779 -0.7171
 5793SOL     OW18978   2.482   4.842   5.145 -0.2167 -0.1623 -0.0870
 5793SOL    HW118979   2.462   4.769   5.081 -0.3336  0.2141 -0.4854
 5793SOL    HW218980   2.416   4.916   5.133  0.2594  0.2654 -0.0990
 5794SOL     OW18981   0.624   2.530   0.508  0.0512 -0.5070 -0.5853
 5794SOL    HW118982   0.533   2.537   0.549  0.0536  1.6037 -0.8416
 5794SOL    HW218983   0.686   2.487   0.573 -0.8332 -0.7714  0.1004
 5795SOL     OW18984   6.025   2.523   6.973  0.2336  0.2929 -0.0730
 5795SOL    HW118985   6.060   2.509   7.066  1.3302 -1.4383 -0.6828
 5795SOL    HW218986   5.978   2.440   6.943  0.6262  0.5231 -1.3513
 5796SOL     OW18987   6.646   6.574   1.666 -0.4691  0.2469  0.6311
 5796SOL    HW118988   6.613   6.653   1.717  0.0819  0.1753  1.1107
 5796SOL    HW218989   6.607   6.575   1.573  1.0975  2.2118 -0.0703
 5797SOL     OW18990   6.233   4.951   2.091 -0.4863 -0.5327  0.2499
 5797SOL    HW118991   6.149   5.002   2.111 -0.0450  0.3380 -0.0673
 5797SOL    HW218992   6.210   4.866   2.043 -1.0868  0.4128 -1.1841
 5798SOL     OW18993   5.302   3.867   4.668 -0.2860 -0.1310 -0.1208
 5798SOL    HW118994   5.329   3.778   4.633  0.6606  0.1044 -0.0086
 5798SOL    HW218995   5.336   3.939   4.607  1.3365  0.2769  1.1945
 5799SOL     OW18996   3.041   2.337   1.903 -0.2450 -0.2957  0.0449
 5799SOL    HW118997   3.076   2.302   1.816 -0.2749 -1.2480  0.4031
 5799SOL    HW218998   2.996   2.425   1.888  3.5729  1.8092 -0.2295
 5800SOL     OW18999   2.903   2.765   6.925 -0.3595  0.1405 -0.2767
 5800SOL    HW119000   2.814   2.778   6.880  0.3781  1.6958 -1.3759
 5800SOL    HW219001   2.888   2.745   7.022 -1.9353  3.7644  0.4048
 5801SOL     OW19002   1.017   0.490   0.783 -0.3209  0.2896  0.3071
 5801SOL    HW119003   0.939   0.462   0.839  0.4840 -0.1216  1.2458
 5801SOL    HW219004   1.051   0.411   0.731  1.1164 -0.2297  1.9432
 5802SOL     OW19005   0.009   4.535   2.783 -0.2716 -0.2156 -0.5194
 5802SOL    HW119006  -0.063   4.578   2.837  0.4565  0.4627 -0.0567
 5802SOL    HW219007   0.047   4.602   2.719  1.5534  0.2085  0.8926
 5803SOL     OW19008   4.624   5.917   6.258 -0.2051  0.2685  0.2344
 5803SOL    HW119009   4.553   5.891   6.192  0.2986  0.2652 -0.3084
 5803SOL    HW219010   4.628   5.848   6.331  1.3190 -1.4220 -1.3391
 5804SOL     OW19011   4.475   4.244   5.401 -0.0718  0.1168  0.3370
 5804SOL    HW119012   4.429   4.227   5.488  1.2084  0.2557  1.0589
 5804SOL    HW219013   4.469   4.162   5.344 -0.6826 -0.0705  0.6657
 5805SOL     OW19014   3.601   5.844   2.532  0.0255 -0.4375 -0.5146
 5805SOL    HW119015   3.649   5.789   2.600  1.3909 -0.8002 -1.7132
 5805SOL    HW219016   3.504   5.850   2.556  0.6211  0.3497  2.0110
 5806SOL     OW19017   0.709   3.338   2.863  0.3133  0.6076  0.1200
 5806SOL    HW119018   0.747   3.291   2.784  1.1444  1.4656 -0.0018
 5806SOL    HW219019   0.628   3.389   2.836 -0.4647 -0.5304  0.2075
 5807SOL     OW19020   3.823   6.697   1.849  0.7522 -0.2488  0.2321
 5807SOL    HW119021   3.802   6.612   1.896  0.9318 -1.2333 -1.3878
 5807SOL    HW219022   3.862   6.763   1.914 -0.1902 -1.0728  1.6880
 5808SOL     OW19023   6.539   6.229   5.446  0.6274 -0.7288  0.3061
 5808SOL    HW119024   6.556   6.290   5.369 -2.1003  1.5879  1.3370
 5808SOL    HW219025   6.472   6.160   5.420 -1.8115  1.2455  0.9498
 5809SOL     OW19026   3.440   6.704   1.663  0.2856  0.2536 -0.3821
 5809SOL    HW119027   3.393   6.692   1.576 -1.5180 -0.1366  0.6019
 5809SOL    HW219028   3.525   6.650   1.663 -1.3174 -2.4741 -0.7341
 5810SOL     OW19029   4.271   4.486   0.503 -0.1881  0.1235 -0.1624
 5810SOL    HW119030   4.239   4.568   0.456 -0.5273 -0.8646 -1.6979
 5810SOL    HW219031   4.338   4.512   0.573  1.2537  1.5419 -1.9793
 5811SOL     OW19032   4.969   5.093   6.198  0.3063  0.2767 -0.4091
 5811SOL    HW119033   5.046   5.154   6.179  1.3204 -1.3456 -1.8665
 5811SOL    HW219034   5.003   5.010   6.243 -0.5636 -0.4786 -1.1062
 5812SOL     OW19035   6.828   6.399   5.295 -0.5368  0.0406 -0.0738
 5812SOL    HW119036   6.819   6.410   5.394 -1.1206 -2.4615  0.2173
 5812SOL    HW219037   6.750   6.347   5.260  0.2325 -0.0900 -1.6721
 5813SOL     OW19038   1.495   5.386   4.018  0.2686  0.2891  0.0129
 5813SOL    HW119039   1.588   5.397   3.982  0.1153  1.0610 -0.1617
 5813SOL    HW219040   1.433   5.361   3.944  0.0695  1.2509 -0.1566
 5814SOL     OW19041   5.184   0.687   0.600 -0.4388  0.5368 -0.3765
 5814SOL    HW119042   5.179   0.728   0.692 -0.6781 -0.2168 -0.0506
 5814SOL    HW219043   5.100   0.638   0.581 -1.6115  3.0068 -2.1493
 5815SOL     OW19044   1.893   5.550   3.072  0.1833 -0.2701  0.5137
 5815SOL    HW119045   1.895   5.452   3.093 -2.2626 -0.0038  2.4112
 5815SOL    HW219046   1.944   5.600   3.143 -0.5247 -0.0182  0.8535
 5816SOL     OW19047   5.900   2.356   4.660 -0.0737  0.5761  0.4977
 5816SOL    HW119048   5.950   2.299   4.595 -2.0539  0.7967 -1.3408
 5816SOL    HW219049   5.833   2.411   4.611 -0.0759  2.5247  2.5175
 5817SOL     OW19050   5.265   6.664   5.631  0.2141  0.1241 -0.2668
 5817SOL    HW119051   5.207   6.690   5.554  1.0171  2.1272 -0.2411
 5817SOL    HW219052   5.256   6.732   5.704  2.2297  0.2499 -0.0754
 5818SOL     OW19053   2.794   3.873   2.161  0.0744  0.7049  0.0974
 5818SOL    HW119054   2.775   3.960   2.117 -1.6907  0.4487  0.2675
 5818SOL    HW219055   2.722   3.852   2.227 -1.1336 -2.1335 -1.9049
 5819SOL     OW19056   4.161   3.912   0.326 -0.4864  0.3170  0.0226
 5819SOL    HW119057   4.202   3.886   0.238  0.4721 -1.2740  0.8948
 5819SOL    HW219058   4.134   4.008   0.323  0.4123  0.5525 -1.6792
 5820SOL     OW19059   5.250   3.522   1.516  0.3760 -0.2591 -0.2666
 5820SOL    HW119060   5.303   3.454   1.466  0.7006  0.7096 -1.2640
 5820SOL    HW219061   5.211   3.480   1.598 -0.1354 -1.8694 -1.2988
 5821SOL     OW19062   2.700   0.828   3.563  0.3912  0.1095  0.3849
 5821SOL    HW119063   2.605   0.825   3.595  0.4871  0.7718  0.7532
 5821SOL    HW219064   2.749   0.900   3.611 -0.2279  3.3593 -3.3411
 5822SOL     OW19065   2.547   1.258   5.430  0.2396 -0.1022  0.0835
 5822SOL    HW119066   2.572   1.346   5.389 -3.6573  0.8179 -0.7773
 5822SOL    HW219067   2.484   1.210   5.369  1.3559 -3.0254  1.0724
 5823SOL     OW19068   0.897   6.438   5.720 -0.4954  0.4289 -0.4025
 5823SOL    HW119069   0.869   6.487   5.803 -0.7453 -0.4211  0.0207
 5823SOL    HW219070   0.817   6.423   5.663 -0.6258 -0.4968  0.0108
 5824SOL     OW19071   5.249   0.100   4.646 -0.6547  0.3316  0.0399
 5824SOL    HW119072   5.222   0.011   4.683 -0.6257  0.7299  1.0466
 5824SOL    HW219073   5.272   0.090   4.549 -0.3832 -0.8104  0.2084
 5825SOL     OW19074   1.847   0.154   5.598  0.2628  0.4883  0.0909
 5825SOL    HW119075   1.811   0.197   5.681 -0.0916 -1.3014  0.9043
 5825SOL    HW219076   1.811   0.062   5.590  0.3131  0.6076 -2.0735
 5826SOL     OW19077   3.848   6.934   1.043 -0.2062 -0.4202  0.0915
 5826SOL    HW119078   3.937   6.971   1.068  0.4379 -1.3714 -0.7141
 5826SOL    HW219079   3.822   6.966   0.952 -1.1496  0.6254  0.7048
 5827SOL     OW19080   5.517   1.506   3.990  0.0306 -0.1175  0.9589
 5827SOL    HW119081   5.465   1.421   3.981 -1.4319  0.5750  2.5389
 5827SOL    HW219082   5.605   1.486   4.033  0.5883 -1.1079 -0.5692
 5828SOL     OW19083   5.625   1.463   4.627 -0.3729 -0.2232 -0.2347
 5828SOL    HW119084   5.606   1.375   4.584 -0.3664  0.2574 -1.2485
 5828SOL    HW219085   5.716   1.461   4.669  0.1055 -0.3453 -1.2475
 5829SOL     OW19086   0.045   5.612   4.880 -1.4328 -0.6504  0.3059
 5829SOL    HW119087   0.048   5.586   4.783 -0.6067 -2.1098  0.6921
 5829SOL    HW219088  -0.049   5.601   4.914 -2.1511  1.6601 -0.7431
 5830SOL     OW19089   2.534   0.595   6.189 -0.2091 -0.3855 -0.2668
 5830SOL    HW119090   2.459   0.548   6.142  1.0439 -1.0428 -1.6881
 5830SOL    HW219091   2.620   0.546   6.174  0.4742  0.0848  1.7162
 5831SOL     OW19092   3.994   5.779   5.905  0.6616 -0.4754 -0.1730
 5831SOL    HW119093   3.968   5.715   5.977 -1.4970  0.1252 -0.3472
 5831SOL    HW219094   4.091   5.801   5.913  0.3424  0.2147  3.0485
 5832SOL     OW19095   4.562   5.185   4.216  0.0431 -0.8690  0.1467
 5832SOL    HW119096   4.596   5.164   4.307 -1.4398 -1.9473  0.4898
 5832SOL    HW219097   4.601   5.272   4.185  0.7786 -0.6188  1.6754
 5833SOL     OW19098   4.931   0.424   0.016 -0.6815 -0.5085  0.2538
 5833SOL    HW119099   5.016   0.393   0.058 -0.8330 -1.2819 -0.0082
 5833SOL    HW219100   4.872   0.346  -0.002 -0.4067 -0.2555 -1.9156
 5834SOL     OW19101   3.033   5.448   0.943 -0.4447  0.1156 -0.2752
 5834SOL    HW119102   3.016   5.514   0.870 -1.1534 -0.1766 -0.3830
 5834SOL    HW219103   3.117   5.473   0.991 -0.0327  0.3744 -1.1137
 5835SOL     OW19104   2.535   0.648   1.599 -0.8133  0.0787 -0.4757
 5835SOL    HW119105   2.559   0.587   1.674  0.8010 -0.8476 -1.6761
 5835SOL    HW219106   2.507   0.737   1.635  0.1028 -0.2839  1.2005
 5836SOL     OW19107   1.111   3.197   4.791  0.3559 -0.3478 -0.5849
 5836SOL    HW119108   1.134   3.270   4.855  0.3771  0.1733 -1.1734
 5836SOL    HW219109   1.088   3.237   4.702  1.8749 -1.1270 -1.3730
 5837SOL     OW19110   2.996   6.969   3.808  0.2010 -0.0345 -0.2167
 5837SOL    HW119111   3.020   7.059   3.842 -0.3587  0.2656 -0.5925
 5837SOL    HW219112   2.898   6.954   3.820  0.7198 -1.8526  2.7665
 5838SOL     OW19113   6.830   3.136   5.048  0.6706  0.8752 -0.0107
 5838SOL    HW119114   6.867   3.142   5.140  3.7039  2.4698 -1.1897
 5838SOL    HW219115   6.782   3.220   5.026  2.1252  1.5701 -0.6623
 5839SOL     OW19116   2.044   5.150   1.941  0.5591 -0.7125 -0.1709
 5839SOL    HW119117   1.969   5.216   1.931  1.1037  0.0912  0.8235
 5839SOL    HW219118   2.105   5.157   1.862 -0.2123 -1.1233 -0.8147
 5840SOL     OW19119   1.101   4.242   2.069  0.3985 -0.3543 -0.2529
 5840SOL    HW119120   1.189   4.245   2.021  1.5187 -0.4107  1.6965
 5840SOL    HW219121   1.081   4.332   2.108  0.0366 -0.5744  0.0816
 5841SOL     OW19122   2.147   4.684   4.583  0.0166 -0.3346 -0.3975
 5841SOL    HW119123   2.185   4.637   4.504  0.9415  1.1401 -0.8797
 5841SOL    HW219124   2.059   4.725   4.559  0.3890  0.2806 -0.7564
 5842SOL     OW19125   4.917   1.385   6.290 -0.6138  0.3656 -0.5442
 5842SOL    HW119126   4.929   1.348   6.198 -3.5322  0.6497 -1.1461
 5842SOL    HW219127   4.877   1.476   6.284  0.1877  0.8621  1.0356
 5843SOL     OW19128   3.591   1.684   2.795 -0.4009 -0.0123  0.5661
 5843SOL    HW119129   3.525   1.610   2.780  0.0609 -0.6308  1.4367
 5843SOL    HW219130   3.598   1.741   2.714 -0.9119 -0.8176 -0.0508
 5844SOL     OW19131   0.231   5.150   4.484  0.4173 -0.0968  0.1860
 5844SOL    HW119132   0.317   5.114   4.521  0.7320 -0.4290 -0.8270
 5844SOL    HW219133   0.242   5.248   4.464  1.7681 -0.7562 -3.0915
 5845SOL     OW19134   2.227   2.106   1.625 -0.2638  0.2587 -0.7834
 5845SOL    HW119135   2.271   2.189   1.589 -1.1048  0.7775 -0.6390
 5845SOL    HW219136   2.287   2.065   1.694 -0.7955  2.0381  0.8332
 5846SOL     OW19137   3.998   5.251   5.133 -0.2025 -0.6181  0.4445
 5846SOL    HW119138   3.976   5.307   5.213 -0.4321  0.2705 -0.2325
 5846SOL    HW219139   3.920   5.193   5.111 -0.8481  0.4611 -0.2205
 5847SOL     OW19140   3.247   1.240   0.280 -0.2537 -0.0592 -0.6149
 5847SOL    HW119141   3.227   1.338   0.274  2.1361  0.6466  1.1919
 5847SOL    HW219142   3.290   1.209   0.195 -1.8982  0.1525 -1.5787
 5848SOL     OW19143   2.594   6.358   6.795  0.8177  0.6362 -0.4327
 5848SOL    HW119144   2.613   6.321   6.886  0.4889  0.0417 -0.5992
 5848SOL    HW219145   2.496   6.349   6.776  0.9417  0.4369 -0.9843
 5849SOL     OW19146   6.098   1.131   5.463 -0.1260  0.4862 -0.1989
 5849SOL    HW119147   6.099   1.183   5.548 -1.4527  0.5845 -0.2104
 5849SOL    HW219148   6.072   1.192   5.387 -0.1689  0.1457 -0.4613
 5850SOL     OW19149   6.816   2.680   1.219  0.0256 -0.2176 -0.1914
 5850SOL    HW119150   6.856   2.728   1.141 -0.7877  1.2391  0.2687
 5850SOL    HW219151   6.871   2.696   1.301  0.1844 -0.7279 -0.1922
 5851SOL     OW19152   5.029   1.564   1.218 -0.6688  0.6887 -0.3684
 5851SOL    HW119153   5.103   1.627   1.243 -0.5892  0.0981  0.9516
 5851SOL    HW219154   5.025   1.555   1.119  1.1419  0.6044 -0.4682
 5852SOL     OW19155   0.720   1.008   4.729  0.5164  0.0633 -0.1134
 5852SOL    HW119156   0.762   1.074   4.668 -0.8836 -0.2588 -1.4880
 5852SOL    HW219157   0.635   1.046   4.767 -0.6380 -1.1196 -1.4135
 5853SOL     OW19158   5.191   2.565   4.388 -0.4025  0.1166 -1.1988
 5853SOL    HW119159   5.277   2.517   4.369  0.1842  0.9942 -0.8581
 5853SOL    HW219160   5.114   2.503   4.374  0.4093 -2.8361  4.3014
 5854SOL     OW19161   4.288   0.329   6.195  0.3630 -0.1011 -0.3046
 5854SOL    HW119162   4.275   0.324   6.295  0.3652  0.0340 -0.2974
 5854SOL    HW219163   4.199   0.323   6.150  0.3241  0.2753 -0.2773
 5855SOL     OW19164   2.291   2.359   6.325  0.9525  0.2079 -0.1369
 5855SOL    HW119165   2.302   2.446   6.278 -0.9106  1.5632  1.7260
 5855SOL    HW219166   2.222   2.304   6.278 -0.3611  1.2366  0.5150
 5856SOL     OW19167   4.232   0.273   5.300 -0.5063  0.2996 -0.1080
 5856SOL    HW119168   4.178   0.317   5.371  0.4456  0.5763  0.4486
 5856SOL    HW219169   4.201   0.305   5.210 -1.7985 -0.1457  0.1494
 5857SOL     OW19170   1.416   3.107   6.161 -0.0192  0.5071  0.4534
 5857SOL    HW119171   1.403   3.117   6.260  3.1309  2.8486  0.7587
 5857SOL    HW219172   1.388   3.191   6.115  1.4115  0.6260 -0.2560
 5858SOL     OW19173   4.961   4.789   1.283  0.4774  0.5801  0.3405
 5858SOL    HW119174   4.900   4.807   1.206  1.2548 -0.6655 -0.6102
 5858SOL    HW219175   4.920   4.722   1.344  0.7560 -0.0166 -0.1266
 5859SOL     OW19176   0.404   4.603   6.242 -0.0365 -0.0839 -0.4722
 5859SOL    HW119177   0.498   4.569   6.247 -0.2036 -0.5001 -0.0436
 5859SOL    HW219178   0.391   4.653   6.157  1.2493  2.0467  0.4938
 5860SOL     OW19179   2.949   0.620   6.222  0.1591  0.6667  0.3831
 5860SOL    HW119180   2.984   0.675   6.298  0.4593 -0.7069  1.2843
 5860SOL    HW219181   3.005   0.538   6.212 -1.0937 -0.1681 -0.0091
 5861SOL     OW19182   2.394   0.030   0.114  0.2492 -0.1592  0.2165
 5861SOL    HW119183   2.485   0.026   0.157 -0.1696 -0.6747  1.0870
 5861SOL    HW219184   2.356   0.122   0.126  0.6763  0.0741 -0.1976
 5862SOL     OW19185   4.617   1.631   2.536  0.0905  0.3617  0.1141
 5862SOL    HW119186   4.561   1.592   2.610  1.9248  0.1678  1.4761
 5862SOL    HW219187   4.614   1.731   2.541  0.8480  0.3533  0.9999
 5863SOL     OW19188   6.609   3.622   0.151  0.2012 -0.7579  0.1208
 5863SOL    HW119189   6.591   3.698   0.212 -0.5387 -0.4369 -0.4801
 5863SOL    HW219190   6.698   3.635   0.106 -0.4230  0.3720 -0.8547
 5864SOL     OW19191   5.702   3.553   4.560  0.0850  0.0074 -0.1027
 5864SOL    HW119192   5.706   3.642   4.605 -3.8066  0.5365 -0.4906
 5864SOL    HW219193   5.719   3.564   4.462  1.9832 -0.1217  0.1803
 5865SOL     OW19194   1.684   6.515   2.372  0.2404  0.3737 -0.0800
 5865SOL    HW119195   1.612   6.556   2.317 -0.5733 -1.5337 -0.4912
 5865SOL    HW219196   1.747   6.465   2.314  0.9925  0.6737  0.4540
 5866SOL     OW19197   4.659   0.936   0.432  0.3354 -0.0515 -0.0611
 5866SOL    HW119198   4.678   0.862   0.496 -0.1328 -0.1195  0.0001
 5866SOL    HW219199   4.617   0.899   0.349  1.5639 -0.0482 -0.6995
 5867SOL     OW19200   3.059   2.868   5.259 -0.8410  0.1798 -0.3234
 5867SOL    HW119201   2.982   2.806   5.272 -0.6169  0.0822  0.5859
 5867SOL    HW219202   3.124   2.857   5.335 -1.6675  2.8395  0.8550
 5868SOL     OW19203   1.232   3.573   0.578 -0.3677  0.8613 -0.2519
 5868SOL    HW119204   1.292   3.624   0.517 -0.1108  0.8193 -0.0395
 5868SOL    HW219205   1.222   3.624   0.664 -0.1616  0.5883 -0.0641
 5869SOL     OW19206   2.491   0.420   2.648  0.1835  0.0557  0.1695
 5869SOL    HW119207   2.475   0.394   2.744  2.2634  0.4180  0.6756
 5869SOL    HW219208   2.565   0.488   2.645 -0.7389  1.0216 -1.6169
 5870SOL     OW19209   5.378   3.426   4.311 -0.0075 -0.1213 -0.0371
 5870SOL    HW119210   5.370   3.371   4.228  1.1008  1.5312 -1.3104
 5870SOL    HW219211   5.355   3.370   4.390  0.1010 -2.1063 -1.3330
 5871SOL     OW19212   1.029   0.840   2.161  0.2670 -0.0749  0.1594
 5871SOL    HW119213   1.004   0.746   2.183  0.0873 -0.2259 -0.6789
 5871SOL    HW219214   0.959   0.902   2.196 -0.9957 -0.4473 -1.5983
 5872SOL     OW19215   3.870   6.900   6.611  0.1129 -0.4153 -0.2216
 5872SOL    HW119216   3.894   6.815   6.564  1.3580  0.3661 -1.0848
 5872SOL    HW219217   3.783   6.934   6.577  0.6492 -0.2436 -1.4609
 5873SOL     OW19218   2.745   3.298   6.930 -0.3045 -0.1807  0.5481
 5873SOL    HW119219   2.713   3.219   6.982  1.5825 -1.4901 -0.1971
 5873SOL    HW219220   2.820   3.342   6.979 -2.3414  2.2182  1.7543
 5874SOL     OW19221   1.406   4.427   5.464 -0.4384  0.3641  0.3395
 5874SOL    HW119222   1.443   4.343   5.426 -1.1887  0.1398  0.0834
 5874SOL    HW219223   1.447   4.506   5.418 -1.6013  0.0982 -1.2372
 5875SOL     OW19224   5.779   3.175   6.158  0.6578  0.2403  0.0060
 5875SOL    HW119225   5.843   3.199   6.085 -1.2912  0.9960 -1.5284
 5875SOL    HW219226   5.805   3.224   6.241  1.3729  1.4994 -0.9063
 5876SOL     OW19227   2.682   3.096   0.086  0.0710 -0.0895 -0.2719
 5876SOL    HW119228   2.600   3.099   0.030 -0.2771 -1.2983  0.1386
 5876SOL    HW219229   2.661   3.130   0.178  0.0495 -0.2693 -0.2082
 5877SOL     OW19230   0.577   6.950   3.390  0.2596  0.0139 -0.6082
 5877SOL    HW119231   0.483   6.983   3.379  0.8492  1.3822 -1.9034
 5877SOL    HW219232   0.606   6.965   3.484 -0.5242  0.4410 -0.4211
 5878SOL     OW19233   2.663   4.298   6.934 -0.0565 -0.0723 -0.5771
 5878SOL    HW119234   2.580   4.275   6.885 -0.5069 -0.0066  0.1419
 5878SOL    HW219235   2.721   4.217   6.943 -1.0170 -0.6368  0.7721
 5879SOL     OW19236   5.098   4.366   4.597  0.0138 -0.1548 -0.2934
 5879SOL    HW119237   5.153   4.294   4.639  0.6431 -0.4752 -1.6172
 5879SOL    HW219238   5.005   4.333   4.582  0.1018 -0.4340 -0.2249
 5880SOL     OW19239   3.838   1.442   2.190  0.4998 -0.1114 -0.0214
 5880SOL    HW119240   3.805   1.505   2.119 -0.9547  0.3142  0.9844
 5880SOL    HW219241   3.808   1.475   2.279 -1.3076 -2.7747  0.4905
 5881SOL     OW19242   2.236   5.440   0.355 -0.7442 -0.3786 -0.2380
 5881SOL    HW119243   2.286   5.415   0.439  0.5362  2.5453  0.0033
 5881SOL    HW219244   2.171   5.513   0.376 -1.1251 -0.3051 -1.6142
 5882SOL     OW19245   5.450   3.173   0.840 -0.6332  0.4574  0.0994
 5882SOL    HW119246   5.546   3.191   0.822 -0.5496  0.7316  0.7834
 5882SOL    HW219247   5.404   3.145   0.755 -0.2559  1.6708 -0.5195
 5883SOL     OW19248   1.231   6.603   0.692  0.6763 -0.2735  0.0968
 5883SOL    HW119249   1.134   6.619   0.708 -0.3092 -3.3982 -1.9219
 5883SOL    HW219250   1.252   6.619   0.596  1.5111 -2.1211 -0.0715
 5884SOL     OW19251   6.955   0.445   0.714  1.0014  0.1259  0.1135
 5884SOL    HW119252   6.876   0.404   0.668  1.1195  1.3363 -1.2262
 5884SOL    HW219253   6.923   0.497   0.793  0.6889 -1.0799  0.8174
 5885SOL     OW19254   0.463   1.645   3.436  0.0245 -0.7831 -0.7117
 5885SOL    HW119255   0.376   1.694   3.440  0.4816 -0.0088  0.4942
 5885SOL    HW219256   0.464   1.573   3.505  0.2822 -0.8759 -0.8105
 5886SOL     OW19257   3.429   2.807   5.988 -0.0885  0.0048  0.0991
 5886SOL    HW119258   3.501   2.870   6.018  0.1767 -0.1529 -0.1992
 5886SOL    HW219259   3.345   2.826   6.039  0.2892 -0.1065  0.7753
 5887SOL     OW19260   3.918   0.310   4.939  0.1113  0.5998  0.3083
 5887SOL    HW119261   3.880   0.221   4.913  0.6255  0.7311 -0.9663
 5887SOL    HW219262   3.888   0.379   4.873 -0.2918  1.3934  1.2895
 5888SOL     OW19263   5.730   0.846   6.264 -0.1971  0.0438 -0.3353
 5888SOL    HW119264   5.711   0.938   6.231 -1.3345  0.4906  1.4358
 5888SOL    HW219265   5.648   0.789   6.251 -1.4123  0.7505  3.2837
 5889SOL     OW19266   0.918   1.420   4.298  0.2593 -0.1147  0.3411
 5889SOL    HW119267   0.995   1.376   4.253 -1.9426 -1.5130 -2.3085
 5889SOL    HW219268   0.907   1.513   4.261  0.0094 -0.3244 -0.1175
 5890SOL     OW19269   4.134   3.738   5.925 -0.1385 -0.1470 -0.5213
 5890SOL    HW119270   4.045   3.720   5.884 -1.5548 -1.1851  2.6680
 5890SOL    HW219271   4.137   3.832   5.959 -1.4829 -1.0311  2.3537
 5891SOL     OW19272   3.219   5.209   1.215  0.0653 -0.6056 -0.8439
 5891SOL    HW119273   3.214   5.121   1.167 -3.9022 -0.4854 -0.9508
 5891SOL    HW219274   3.128   5.248   1.223  1.3186  2.2109  1.7346
 5892SOL     OW19275   5.983   5.018   2.154  0.0759  0.3138 -0.1247
 5892SOL    HW119276   5.981   4.998   2.251 -0.1733 -0.7205 -0.3402
 5892SOL    HW219277   5.890   5.020   2.118  0.2164 -0.2554 -0.5291
 5893SOL     OW19278   1.026   3.678   0.918  0.0824  0.2535 -0.7555
 5893SOL    HW119279   0.933   3.681   0.881 -0.6315  3.0581  0.9591
 5893SOL    HW219280   1.085   3.742   0.868  0.5866 -0.0830 -0.6066
 5894SOL     OW19281   2.951   0.441   2.860 -0.3151 -0.3819 -0.5926
 5894SOL    HW119282   2.869   0.465   2.913 -0.2808 -0.9519 -0.2767
 5894SOL    HW219283   2.924   0.416   2.767 -0.4497 -0.0841 -0.6338
 5895SOL     OW19284   2.166   0.559   4.899  0.1918 -0.5240 -0.2619
 5895SOL    HW119285   2.230   0.523   4.967  0.1600 -0.9148 -0.4399
 5895SOL    HW219286   2.077   0.515   4.910 -0.3285  0.6704  0.5846
 5896SOL     OW19287   3.248   2.004   6.082  0.0043  0.3542 -0.1656
 5896SOL    HW119288   3.187   2.075   6.046  0.7890  0.6142 -1.0378
 5896SOL    HW219289   3.339   2.044   6.099  0.0243 -0.0877  0.8424
 5897SOL     OW19290   3.555   4.691   0.536  0.5739  0.5830 -0.0314
 5897SOL    HW119291   3.490   4.764   0.514  0.6051  0.7998  0.5707
 5897SOL    HW219292   3.531   4.608   0.485  0.2791  0.8853 -0.3888
 5898SOL     OW19293   6.970   2.032   3.015 -0.1678  0.0908  0.2548
 5898SOL    HW119294   6.915   2.112   2.990  0.0086 -0.3986 -1.8974
 5898SOL    HW219295   6.997   1.983   2.932  0.4751 -1.7196  1.4690
 5899SOL     OW19296   5.837   4.079   5.717  0.1945  0.1886 -0.4893
 5899SOL    HW119297   5.925   4.037   5.692 -0.1939 -0.8563 -0.1520
 5899SOL    HW219298   5.843   4.178   5.705  0.5379 -0.0872 -3.2264
 5900SOL     OW19299   1.861   4.167   4.905 -0.8992  0.1344 -0.0659
 5900SOL    HW119300   1.824   4.083   4.865 -2.6299  0.6329  0.4232
 5900SOL    HW219301   1.925   4.142   4.978 -0.6196 -0.7571 -0.5954
 5901SOL     OW19302   6.879   6.324   4.827 -0.3557 -0.2091  0.1087
 5901SOL    HW119303   6.785   6.346   4.851 -0.2649 -1.5652  1.9672
 5901SOL    HW219304   6.927   6.290   4.908  1.4109 -0.6714 -1.0599
 5902SOL     OW19305   4.814   3.379   6.964  0.0965 -0.4044  0.1800
 5902SOL    HW119306   4.751   3.397   6.889  0.7794 -0.3375 -0.3902
 5902SOL    HW219307   4.890   3.323   6.931  1.0948  0.7304  0.4865
 5903SOL     OW19308   0.424   6.253   3.889 -0.3676  0.1864  0.1082
 5903SOL    HW119309   0.432   6.165   3.936  0.9363 -0.3068 -0.9680
 5903SOL    HW219310   0.350   6.306   3.930  0.2552 -0.4873  2.2430
 5904SOL     OW19311   4.243   3.813   0.569  0.7575  0.0210  0.1602
 5904SOL    HW119312   4.202   3.857   0.490 -0.4978  2.0508  1.8522
 5904SOL    HW219313   4.174   3.756   0.615  0.3880  1.6462  1.7266
 5905SOL     OW19314   1.488   4.362   3.575 -0.6553 -0.3239 -0.6997
 5905SOL    HW119315   1.453   4.278   3.534  1.0634 -0.8891 -1.1269
 5905SOL    HW219316   1.530   4.342   3.663  0.2155 -0.0267 -1.0300
 5906SOL     OW19317   0.860   0.099   6.326 -0.3847  0.6371  0.1836
 5906SOL    HW119318   0.931   0.100   6.255 -0.2908  0.5999  0.2770
 5906SOL    HW219319   0.770   0.102   6.282 -0.3120  1.9312  0.1011
 5907SOL     OW19320   0.175   0.553   0.204 -0.3583 -0.3824 -0.3447
 5907SOL    HW119321   0.128   0.613   0.269  0.5909  0.6828 -0.6094
 5907SOL    HW219322   0.244   0.500   0.253 -0.0791 -0.0523 -0.3817
 5908SOL     OW19323   1.084   3.768   5.066 -0.5633 -0.1155 -0.4408
 5908SOL    HW119324   1.026   3.849   5.062 -2.5997 -1.5075 -0.2630
 5908SOL    HW219325   1.097   3.741   5.162  1.4362  0.8358 -0.3739
 5909SOL     OW19326   4.143   0.616   3.949  0.1210  0.1071  0.0872
 5909SOL    HW119327   4.054   0.625   3.905 -0.3562  0.3861  1.0871
 5909SOL    HW219328   4.168   0.519   3.952 -0.7098 -0.1006  0.8535
 5910SOL     OW19329   6.562   2.489   6.628 -0.0446 -0.2952 -0.0529
 5910SOL    HW119330   6.641   2.548   6.609 -0.0027 -0.6956 -1.2118
 5910SOL    HW219331   6.593   2.404   6.670  0.3575 -1.0733 -1.8078
 5911SOL     OW19332   2.517   0.989   0.947 -0.0184  0.0083  0.6045
 5911SOL    HW119333   2.594   0.960   0.890 -0.2327 -0.1281  0.3881
 5911SOL    HW219334   2.509   0.927   1.025 -0.3729 -0.4229  0.2312
 5912SOL     OW19335   6.084   6.457   4.598 -0.0911  0.2707  0.1122
 5912SOL    HW119336   6.062   6.553   4.580  1.8488  0.9218  0.8727
 5912SOL    HW219337   6.024   6.423   4.670  1.0295  1.8942  1.9597
 5913SOL     OW19338   5.861   5.343   4.696 -0.0335 -0.3960 -0.1130
 5913SOL    HW119339   5.883   5.261   4.642  1.2122 -0.7124  0.8203
 5913SOL    HW219340   5.856   5.319   4.793 -2.1269  0.1869 -0.0269
 5914SOL     OW19341   2.238   5.966   2.189  0.3605 -0.0437 -0.1701
 5914SOL    HW119342   2.280   5.997   2.104  0.5588  0.0575 -0.0377
 5914SOL    HW219343   2.244   6.040   2.257 -0.6003  0.2014 -0.3426
 5915SOL     OW19344   4.278   1.760   2.047  0.0876  0.5877 -0.0603
 5915SOL    HW119345   4.239   1.724   1.962  1.1572 -1.0286  0.0931
 5915SOL    HW219346   4.229   1.721   2.125  0.2361  0.6980  0.0893
 5916SOL     OW19347   0.247   2.192   3.087 -0.2073  0.2874 -0.6161
 5916SOL    HW119348   0.185   2.271   3.092 -0.2212  0.3563 -1.7423
 5916SOL    HW219349   0.206   2.115   3.136 -1.4893  0.1446 -1.8544
 5917SOL     OW19350   1.960   0.531   1.326  0.6185  0.2963 -0.1638
 5917SOL    HW119351   2.050   0.561   1.356  0.1514  2.8683 -1.1467
 5917SOL    HW219352   1.902   0.610   1.307 -1.5744 -1.2750 -0.4678
 5918SOL     OW19353   3.240   5.478   1.558  0.2995  0.4088 -0.1493
 5918SOL    HW119354   3.282   5.492   1.468  0.0843 -0.4877 -0.3981
 5918SOL    HW219355   3.273   5.392   1.597  1.3782  1.3815  1.2062
 5919SOL     OW19356   5.280   1.280   1.437 -0.4643  0.1417 -0.4049
 5919SOL    HW119357   5.287   1.376   1.462  2.3931 -0.0815  0.0143
 5919SOL    HW219358   5.372   1.243   1.421 -1.4983 -2.4374 -0.9089
 5920SOL     OW19359   2.516   2.609   0.507 -0.2066 -0.7096  0.2787
 5920SOL    HW119360   2.546   2.681   0.570 -1.4880  2.3848 -2.3429
 5920SOL    HW219361   2.433   2.566   0.543 -0.6639  0.6665  0.9441
 5921SOL     OW19362   2.567   6.625   1.704  0.0143 -0.1056  0.1872
 5921SOL    HW119363   2.557   6.607   1.606 -0.4228  0.7784  0.0587
 5921SOL    HW219364   2.501   6.570   1.755  0.2742 -0.6039 -0.0021
 5922SOL     OW19365   3.920   3.615   4.991 -0.5060 -0.1092  0.0330
 5922SOL    HW119366   3.918   3.577   5.083 -1.3958 -1.0218 -0.3349
 5922SOL    HW219367   3.843   3.677   4.980  1.1556  2.1858  0.7514
 5923SOL     OW19368   0.454   2.737   6.541  0.3915 -0.4188  0.1943
 5923SOL    HW119369   0.406   2.743   6.453  0.3853 -2.6670 -0.0120
 5923SOL    HW219370   0.528   2.805   6.543  1.1871 -1.0948 -2.0962
 5924SOL     OW19371   3.432   0.926   2.088 -0.2121 -0.1242  0.3275
 5924SOL    HW119372   3.378   0.845   2.108  0.4410 -0.4473  0.8344
 5924SOL    HW219373   3.436   0.941   1.989 -0.4956 -0.5944  0.2433
 5925SOL     OW19374   5.362   4.462   3.550  0.4000 -0.2011 -0.3131
 5925SOL    HW119375   5.283   4.429   3.602  1.5803  1.1141  2.5144
 5925SOL    HW219376   5.343   4.554   3.515  0.6043  0.0596  0.2489
 5926SOL     OW19377   6.970   2.449   0.079 -0.0975 -0.4743  0.3223
 5926SOL    HW119378   6.878   2.413   0.099 -0.1318 -1.3346 -1.2178
 5926SOL    HW219379   6.977   2.543   0.112 -2.2272  0.3063 -1.2227
 5927SOL     OW19380   0.511   1.660   6.519 -0.0703 -0.2381  0.0883
 5927SOL    HW119381   0.585   1.609   6.476  2.3524  2.8437  0.2178
 5927SOL    HW219382   0.469   1.721   6.451  0.6828  1.3431  0.9943
 5928SOL     OW19383   0.335   1.242   1.528  0.8355 -0.2431  0.4138
 5928SOL    HW119384   0.277   1.315   1.565  2.0754  0.6938  0.5683
 5928SOL    HW219385   0.300   1.215   1.438 -0.8531 -0.9339  1.2219
 5929SOL     OW19386   4.246   2.988   5.620 -0.2338  0.2734 -0.2424
 5929SOL    HW119387   4.319   2.922   5.602  0.2064  0.4075  0.9552
 5929SOL    HW219388   4.166   2.965   5.565 -0.1855 -1.4330  0.3525
 5930SOL     OW19389   6.149   3.284   4.246 -0.3644 -0.1178  0.4148
 5930SOL    HW119390   6.216   3.245   4.309 -0.5005 -0.1749  0.5254
 5930SOL    HW219391   6.057   3.269   4.282 -0.3626  2.5695  1.8069
 5931SOL     OW19392   1.822   0.645   5.332  0.0086 -0.3369  1.0026
 5931SOL    HW119393   1.882   0.652   5.252 -0.4616  1.5474  0.7829
 5931SOL    HW219394   1.813   0.549   5.358  1.2345 -0.8620 -0.3894
 5932SOL     OW19395   2.779   3.675   1.602 -0.4095 -0.4370  0.3893
 5932SOL    HW119396   2.843   3.752   1.599  1.5332 -1.9573  0.4740
 5932SOL    HW219397   2.746   3.663   1.696  1.2345 -1.1450  0.9292
 5933SOL     OW19398   6.431   3.950   3.014  0.1029 -0.1532 -0.4576
 5933SOL    HW119399   6.375   3.926   3.093 -1.2815  1.5641 -0.8435
 5933SOL    HW219400   6.385   3.920   2.930 -0.1908  1.0896 -0.7682
 5934SOL     OW19401   3.535   6.259   0.225 -0.1866  0.5684  0.1756
 5934SOL    HW119402   3.563   6.332   0.286  0.5514  0.8602 -0.5062
 5934SOL    HW219403   3.609   6.193   0.216 -0.0304  0.8915 -0.9541
 5935SOL     OW19404   6.218   1.515   3.927 -1.0621 -0.2647 -0.1963
 5935SOL    HW119405   6.181   1.604   3.901  0.1162  0.6608  1.1713
 5935SOL    HW219406   6.174   1.484   4.011  1.5656  1.1785  1.8526
 5936SOL     OW19407   6.272   4.760   6.877  0.1403 -0.3310 -0.1324
 5936SOL    HW119408   6.287   4.672   6.921 -0.0934 -0.5168 -0.4163
 5936SOL    HW219409   6.238   4.745   6.784 -1.3253  0.0587  0.3137
 5937SOL     OW19410   6.091   6.556   2.791 -0.1950  0.2667  0.6971
 5937SOL    HW119411   5.992   6.559   2.786 -0.1485  1.9397 -0.2787
 5937SOL    HW219412   6.128   6.644   2.761  1.5733 -0.2017  1.3752
 5938SOL     OW19413   3.061   5.139   2.797 -0.3065  0.2508 -0.0746
 5938SOL    HW119414   3.002   5.217   2.818 -2.0890 -0.9580 -0.4244
 5938SOL    HW219415   3.024   5.089   2.719  2.2453  0.5194 -1.5398
 5939SOL     OW19416   3.869   0.716   4.565  0.5287  0.5879  0.4802
 5939SOL    HW119417   3.847   0.777   4.489 -1.2875  2.0574  2.0736
 5939SOL    HW219418   3.872   0.769   4.650  1.9806 -1.0768  1.5380
 5940SOL     OW19419   6.036   0.634   3.271  0.7414 -0.0397 -0.1414
 5940SOL    HW119420   5.973   0.659   3.197  2.5334  0.3558 -1.6156
 5940SOL    HW219421   6.063   0.716   3.321 -0.1946 -0.2618  0.7514
 5941SOL     OW19422   3.388   1.210   6.641 -0.1760  0.1982  0.5417
 5941SOL    HW119423   3.319   1.204   6.713 -0.8588  1.8415  0.0660
 5941SOL    HW219424   3.345   1.236   6.555  0.9887  1.0862  0.1987
 5942SOL     OW19425   2.831   3.412   6.505  0.1741  0.5335  0.3554
 5942SOL    HW119426   2.889   3.336   6.532 -0.4243  0.4872  1.5847
 5942SOL    HW219427   2.772   3.384   6.429  1.2971  0.3965 -0.4979
 5943SOL     OW19428   3.153   0.455   3.069  0.5392  0.1830 -0.1872
 5943SOL    HW119429   3.168   0.383   3.137 -1.3190  1.5121  1.7277
 5943SOL    HW219430   3.089   0.422   2.999 -0.4663  0.0319  0.7923
 5944SOL     OW19431   1.463   2.434   2.362 -0.1521 -1.0789 -0.3695
 5944SOL    HW119432   1.481   2.461   2.267 -0.9971 -0.3088 -0.3187
 5944SOL    HW219433   1.543   2.386   2.397  1.2365  0.8581 -0.6611
 5945SOL     OW19434   4.019   1.561   6.102 -0.4976  0.4165  0.1946
 5945SOL    HW119435   3.945   1.627   6.110 -0.7215  0.0138  1.6561
 5945SOL    HW219436   4.100   1.595   6.149 -0.5047 -0.1665  0.6461
 5946SOL     OW19437   4.470   1.919   1.239  0.1583 -0.4235 -0.3257
 5946SOL    HW119438   4.447   1.990   1.172  0.3070  1.5016  1.5683
 5946SOL    HW219439   4.440   1.948   1.329  2.1262 -1.8413  0.8492
 5947SOL     OW19440   1.707   1.348   5.838  0.2398 -0.2085 -0.6791
 5947SOL    HW119441   1.790   1.354   5.893 -2.2102  1.3821  3.3089
 5947SOL    HW219442   1.697   1.431   5.784  0.4605  0.3700  0.1429
 5948SOL     OW19443   3.554   6.777   0.830  0.2742  0.1275  0.2156
 5948SOL    HW119444   3.463   6.744   0.802 -0.4494  1.6088  0.7662
 5948SOL    HW219445   3.573   6.748   0.923  0.9967 -1.3818 -0.3618
 5949SOL     OW19446   1.859   6.047   1.064  0.3661 -0.1074  0.5380
 5949SOL    HW119447   1.812   6.134   1.055 -0.3541 -0.6477 -1.3238
 5949SOL    HW219448   1.797   5.979   1.103 -0.2303 -0.6389 -1.2564
 5950SOL     OW19449   4.735   2.321   2.057  0.0025 -0.1598 -0.2751
 5950SOL    HW119450   4.815   2.283   2.104 -0.3213 -0.3256  0.1570
 5950SOL    HW219451   4.690   2.388   2.117 -1.8124 -2.1177  0.7189
 5951SOL     OW19452   0.601   0.182   4.884  0.0866 -1.4660 -0.0502
 5951SOL    HW119453   0.606   0.174   4.983  0.8156 -1.3025 -0.0650
 5951SOL    HW219454   0.676   0.241   4.852  0.2375 -2.0238 -0.7510
 5952SOL     OW19455   3.380   0.851   1.641  0.2399 -0.2648 -0.1419
 5952SOL    HW119456   3.447   0.783   1.612  1.0545  0.2998  0.3701
 5952SOL    HW219457   3.415   0.943   1.621  1.1862  0.2159  3.1464
 5953SOL     OW19458   5.232   1.767   1.191  0.1610 -0.2433 -0.0004
 5953SOL    HW119459   5.171   1.842   1.165  0.2635  0.2441  1.0978
 5953SOL    HW219460   5.325   1.788   1.159  0.7882  1.5176  2.7076
 5954SOL     OW19461   1.725   4.374   6.718  0.1592 -0.3609 -0.0964
 5954SOL    HW119462   1.688   4.397   6.808 -0.7060  1.1630 -0.8051
 5954SOL    HW219463   1.819   4.407   6.712  0.4827 -1.1430  0.4965
 5955SOL     OW19464   4.584   4.703   1.337 -0.1168 -0.2475 -0.0082
 5955SOL    HW119465   4.605   4.750   1.251  1.8889 -0.2188  0.4401
 5955SOL    HW219466   4.651   4.731   1.406 -2.7460  1.1540  2.1351
 5956SOL     OW19467   0.802   2.006   0.062  0.0044 -0.0010  0.4554
 5956SOL    HW119468   0.731   2.008  -0.008 -0.6335 -3.0227  0.8829
 5956SOL    HW219469   0.881   1.955   0.029  1.3467  1.8435  0.6221
 5957SOL     OW19470   4.579   5.948   0.918 -0.2441  0.2917 -0.0611
 5957SOL    HW119471   4.606   5.860   0.955 -1.7848  0.0604  0.5724
 5957SOL    HW219472   4.525   5.934   0.834 -1.8752  0.5152  0.9094
 5958SOL     OW19473   5.016   2.553   1.964 -0.6969 -0.2140 -0.2963
 5958SOL    HW119474   5.084   2.624   1.984  1.6503 -2.3839 -0.1741
 5958SOL    HW219475   4.925   2.595   1.960  0.3297  2.4954  1.6119
 5959SOL     OW19476   3.507   4.843   3.874  0.3101  0.0396 -0.2052
 5959SOL    HW119477   3.480   4.847   3.778  0.0499 -1.6433 -0.2331
 5959SOL    HW219478   3.456   4.911   3.927 -0.8263 -0.2035 -0.9745
 5960SOL     OW19479   0.192   6.019   1.636  0.1954  0.6578 -0.3424
 5960SOL    HW119480   0.220   5.923   1.635  2.3559  1.2138  0.7121
 5960SOL    HW219481   0.177   6.050   1.542  1.3436 -0.2265 -0.8454
 5961SOL     OW19482   1.326   4.926   1.909  0.1880 -0.0006 -0.6223
 5961SOL    HW119483   1.270   4.860   1.860  0.3402 -0.7556  0.1984
 5961SOL    HW219484   1.273   5.009   1.926  0.3370  0.5613 -2.6313
 5962SOL     OW19485   3.425   0.419   0.268 -0.3879  0.4320  0.0500
 5962SOL    HW119486   3.516   0.411   0.227  0.7751 -0.7369  2.6496
 5962SOL    HW219487   3.365   0.349   0.230  1.3005 -2.1163  1.7750
 5963SOL     OW19488   1.850   2.421   5.190 -0.1859 -0.3027  0.2649
 5963SOL    HW119489   1.923   2.366   5.231  1.3961  1.6407  0.2226
 5963SOL    HW219490   1.883   2.515   5.176 -1.7835 -0.0264 -2.3626
 5964SOL     OW19491   4.328   6.414   0.678  0.5355 -0.4827 -0.1106
 5964SOL    HW119492   4.303   6.376   0.767  1.0099  1.3062  0.8360
 5964SOL    HW219493   4.247   6.420   0.620 -0.4623  1.1930  1.3410
 5965SOL     OW19494   0.826   5.800   0.390 -0.3044 -0.1835  0.9715
 5965SOL    HW119495   0.731   5.815   0.363  0.4369  2.5920 -0.5415
 5965SOL    HW219496   0.847   5.853   0.471 -0.1176 -1.1039  1.5396
 5966SOL     OW19497   0.838   1.156   4.523 -0.3088  0.5537  0.1487
 5966SOL    HW119498   0.937   1.156   4.537 -0.5026 -0.4515  1.7060
 5966SOL    HW219499   0.816   1.097   4.445  0.2227 -0.2495  0.5920
 5967SOL     OW19500   0.060   3.457   4.442  0.2312  0.1023 -0.3093
 5967SOL    HW119501   0.028   3.468   4.536  0.1313  0.0764 -0.3407
 5967SOL    HW219502   0.043   3.541   4.390 -0.3071 -0.1087 -0.4806
 5968SOL     OW19503   0.832   5.679   4.302 -0.3675  0.6754  0.0006
 5968SOL    HW119504   0.873   5.766   4.328 -1.1404  0.9042  0.5078
 5968SOL    HW219505   0.873   5.605   4.355  0.1073  0.7604 -0.2444
 5969SOL     OW19506   1.061   3.312   6.038  0.4299 -0.3714 -0.4885
 5969SOL    HW119507   1.038   3.235   5.978  1.9629 -1.5084  0.3084
 5969SOL    HW219508   1.055   3.284   6.133  1.4773  0.3298 -0.1904
 5970SOL     OW19509   2.270   6.742   3.543  0.3638  1.0786  0.2866
 5970SOL    HW119510   2.324   6.741   3.627  0.4335 -0.4538  0.2403
 5970SOL    HW219511   2.234   6.835   3.528  2.3674  1.9642  0.6763
 5971SOL     OW19512   3.739   5.266   4.507 -0.9737  0.4810 -1.2141
 5971SOL    HW119513   3.666   5.203   4.479 -0.4272 -0.3217 -0.8560
 5971SOL    HW219514   3.828   5.228   4.481 -0.5455  0.4341  0.2267
 5972SOL     OW19515   2.379   2.864   1.136 -0.1346 -0.0535  0.5853
 5972SOL    HW119516   2.356   2.767   1.147 -0.9320  0.2816  2.2327
 5972SOL    HW219517   2.297   2.915   1.109  0.9994 -0.2778 -4.1740
 5973SOL     OW19518   6.113   3.444   3.482 -0.3942 -0.0457  0.3014
 5973SOL    HW119519   6.023   3.476   3.452 -0.2455 -0.9826 -1.2757
 5973SOL    HW219520   6.106   3.403   3.573 -1.3123  0.9821  0.7020
 5974SOL     OW19521   2.580   1.215   3.111  0.2555  0.0169 -0.4511
 5974SOL    HW119522   2.652   1.266   3.158  2.3123 -2.6449 -0.4783
 5974SOL    HW219523   2.497   1.215   3.167  1.5232 -0.0842  1.5153
 5975SOL     OW19524   4.463   5.208   4.689  0.8960 -0.3594 -0.3456
 5975SOL    HW119525   4.370   5.206   4.651  0.3841 -2.7531  0.8819
 5975SOL    HW219526   4.529   5.199   4.615  0.0732 -0.7646 -1.0482
 5976SOL     OW19527   3.552   3.560   1.723 -0.4338  0.1657  0.1642
 5976SOL    HW119528   3.511   3.469   1.714 -1.1752  0.4923  0.1613
 5976SOL    HW219529   3.631   3.555   1.784 -1.3383 -0.2209  1.3418
 5977SOL     OW19530   5.447   6.293   3.911  0.0442 -0.2736  0.1727
 5977SOL    HW119531   5.450   6.245   3.823 -0.3450  0.6605 -0.3674
 5977SOL    HW219532   5.418   6.230   3.983  1.0174 -1.2176 -0.2414
 5978SOL     OW19533   4.567   6.535   1.801  0.9949 -0.1932 -0.2859
 5978SOL    HW119534   4.663   6.516   1.823  0.8203  0.8464  1.5945
 5978SOL    HW219535   4.548   6.632   1.819 -0.2737 -0.2627 -1.1741
 5979SOL     OW19536   3.534   4.965   5.830  0.1899 -0.2574 -0.3468
 5979SOL    HW119537   3.554   4.964   5.928  0.0017 -1.3754 -0.3159
 5979SOL    HW219538   3.572   4.883   5.787 -1.1787 -0.6042 -0.9254
 5980SOL     OW19539   5.456   4.465   1.384 -0.0501  0.4238  0.0138
 5980SOL    HW119540   5.425   4.506   1.298 -2.7574  1.9360  1.5669
 5980SOL    HW219541   5.386   4.402   1.418  1.3560 -0.8216  0.7277
 5981SOL     OW19542   5.102   0.867   2.727  0.0055  0.6002 -0.8023
 5981SOL    HW119543   5.082   0.796   2.659  0.9142  0.4009 -0.8770
 5981SOL    HW219544   5.185   0.842   2.777 -1.0184  0.4004  0.8548
 5982SOL     OW19545   5.090   3.647   2.107  0.3614 -0.1098 -0.2758
 5982SOL    HW119546   5.006   3.677   2.152  0.3296 -2.1185  1.1450
 5982SOL    HW219547   5.162   3.636   2.176  0.4409 -2.8612 -0.6755
 5983SOL     OW19548   2.766   4.838   4.895 -0.0158 -0.3744 -0.2992
 5983SOL    HW119549   2.668   4.854   4.877 -0.1466 -1.3766 -0.5043
 5983SOL    HW219550   2.784   4.856   4.992 -0.1613  0.9269 -0.4954
 5984SOL     OW19551   6.076   3.563   0.275 -0.1900  0.1984 -0.3336
 5984SOL    HW119552   6.012   3.555   0.198 -0.7911  0.3971  0.1442
 5984SOL    HW219553   6.031   3.534   0.359 -0.4341  2.5605  0.4075
 5985SOL     OW19554   2.972   3.584   5.715 -0.0433 -0.1826  0.2786
 5985SOL    HW119555   2.889   3.610   5.666 -0.2083 -1.9065 -0.4259
 5985SOL    HW219556   3.038   3.659   5.710 -1.3831  1.0603  0.5074
 5986SOL     OW19557   4.246   2.611   6.777  0.1959 -0.1802  0.1564
 5986SOL    HW119558   4.157   2.626   6.822 -0.0642 -1.4650  0.1278
 5986SOL    HW219559   4.313   2.675   6.814 -0.3917 -0.1642  1.2585
 5987SOL     OW19560   5.083   1.694   6.202 -0.3183  0.1251  0.0083
 5987SOL    HW119561   5.132   1.618   6.159  0.5875  0.1379  0.9832
 5987SOL    HW219562   5.119   1.710   6.294 -1.0553  1.2018  0.1356
 5988SOL     OW19563   5.527   5.732   2.380  0.4253  0.0411 -0.2154
 5988SOL    HW119564   5.449   5.680   2.346  0.9474 -0.6237 -0.4235
 5988SOL    HW219565   5.612   5.692   2.345  1.0321 -0.9895  2.2600
 5989SOL     OW19566   2.013   1.662   5.159  0.0005 -0.2961 -0.4045
 5989SOL    HW119567   1.938   1.626   5.215 -0.0882  1.5285  0.7461
 5989SOL    HW219568   2.033   1.755   5.188  1.1978  0.0582 -2.2518
 5990SOL     OW19569   4.933   5.259   5.536 -0.0889  0.0260 -0.3672
 5990SOL    HW119570   5.023   5.282   5.573 -0.0180 -0.2803 -0.3507
 5990SOL    HW219571   4.865   5.263   5.610  0.2874 -2.0426  0.1546
 5991SOL     OW19572   4.406   6.532   6.579 -0.1598 -0.3913  0.1388
 5991SOL    HW119573   4.330   6.596   6.590 -1.1252 -1.4344 -0.2465
 5991SOL    HW219574   4.430   6.493   6.668  0.5606  0.6341  0.4035
 5992SOL     OW19575   0.272   4.614   6.721  0.2411  0.1693  0.3217
 5992SOL    HW119576   0.268   4.536   6.659  0.8213 -0.2653  0.8197
 5992SOL    HW219577   0.247   4.585   6.813 -1.7179  1.0434  0.1148
 5993SOL     OW19578   0.957   4.317   1.611  0.4816 -0.3647 -0.2359
 5993SOL    HW119579   0.887   4.365   1.663 -1.5438 -2.6138 -0.6917
 5993SOL    HW219580   0.995   4.243   1.666  3.1328  1.2624  0.2636
 5994SOL     OW19581   3.670   6.017   0.388 -0.2122  0.3950 -0.3284
 5994SOL    HW119582   3.684   6.061   0.477 -0.1245 -0.3108  0.0172
 5994SOL    HW219583   3.576   5.983   0.382  0.0932 -0.5251 -0.0552
 5995SOL     OW19584   5.564   6.966   6.857  0.2915 -0.3559  0.3689
 5995SOL    HW119585   5.624   7.008   6.788 -0.6462  0.1787 -0.1303
 5995SOL    HW219586   5.593   6.872   6.872  1.8947  0.1886  0.8771
 5996SOL     OW19587   1.379   2.439   1.499 -0.4732 -0.1336  0.0458
 5996SOL    HW119588   1.331   2.383   1.432  2.4998 -2.9869  0.0340
 5996SOL    HW219589   1.334   2.431   1.588 -1.2640 -0.9134 -0.4059
 5997SOL     OW19590   2.169   5.332   4.235 -0.3062  0.5621  0.1562
 5997SOL    HW119591   2.116   5.400   4.285  0.7087  0.2684  1.6712
 5997SOL    HW219592   2.242   5.297   4.292  1.5525  0.9369 -1.8570
 5998SOL     OW19593   1.345   0.807   0.038  0.2106 -0.5433  0.2127
 5998SOL    HW119594   1.390   0.875  -0.020 -1.2249  1.2249  1.0425
 5998SOL    HW219595   1.377   0.716   0.014  3.4855  0.4859  0.1128
 5999SOL     OW19596   0.076   3.831   5.709  0.1506  0.5663  0.5996
 5999SOL    HW119597   0.041   3.911   5.661 -0.2180  0.0618  0.0069
 5999SOL    HW219598   0.165   3.805   5.672  0.1245  0.5111  0.5758
 6000SOL     OW19599   0.116   0.019   6.837  0.8338 -0.9272 -0.2825
 6000SOL    HW119600   0.138   0.053   6.929  0.4440 -2.0425  0.2359
 6000SOL    HW219601   0.177  -0.057   6.814  1.3044 -0.3022 -1.1914
 6001SOL     OW19602   4.477   1.125   5.061  0.3171  0.5267  0.3631
 6001SOL    HW119603   4.573   1.140   5.085 -0.1700  0.8117  2.3337
 6001SOL    HW219604   4.469   1.048   4.998  1.7856  0.0123  0.7712
 6002SOL     OW19605   0.316   5.456   5.917  0.2849 -0.1468  0.2699
 6002SOL    HW119606   0.290   5.376   5.862 -1.4148 -0.0311  0.8585
 6002SOL    HW219607   0.257   5.462   5.997  0.0494  1.9729 -0.0046
 6003SOL     OW19608   5.491   0.028   0.887 -0.2085 -0.0109 -0.4896
 6003SOL    HW119609   5.441  -0.032   0.824  1.6945 -1.2951 -0.8664
 6003SOL    HW219610   5.427   0.088   0.934 -1.9608 -0.8357 -1.7180
 6004SOL     OW19611   0.757   0.694   4.858  0.0729 -0.2707  0.0956
 6004SOL    HW119612   0.830   0.757   4.885  0.9346 -0.8398 -0.8568
 6004SOL    HW219613   0.741   0.701   4.760 -0.1680 -1.1774  0.0579
 6005SOL     OW19614   2.976   2.404   2.661 -0.2548 -0.1795  0.0140
 6005SOL    HW119615   2.884   2.365   2.654 -0.0519 -0.6950  0.1498
 6005SOL    HW219616   2.994   2.463   2.582 -1.7874  2.3059  1.4111
 6006SOL     OW19617   3.463   1.487   5.619  0.1372 -0.7291 -0.3337
 6006SOL    HW119618   3.375   1.517   5.584  0.1971 -0.5612 -0.3418
 6006SOL    HW219619   3.493   1.404   5.571  0.8740  0.2764 -1.6548
 6007SOL     OW19620   5.680   2.983   2.698 -0.1123 -0.1318  0.3146
 6007SOL    HW119621   5.745   3.047   2.657  0.8886 -0.5809  1.1560
 6007SOL    HW219622   5.639   3.024   2.780 -2.3235  0.8771 -1.2141
 6008SOL     OW19623   5.721   3.797   4.688 -0.1358  0.5561 -0.1796
 6008SOL    HW119624   5.643   3.805   4.751  1.2114  0.9476  1.5056
 6008SOL    HW219625   5.802   3.835   4.731  1.8038 -2.8528 -0.4584
 6009SOL     OW19626   0.007   3.728   2.010  0.0186  0.0686  0.6370
 6009SOL    HW119627  -0.028   3.679   2.090 -1.6818  0.4670  0.1817
 6009SOL    HW219628  -0.042   3.815   2.001  1.3061  0.7545  0.0620
 6010SOL     OW19629   6.971   0.750   4.141 -0.4730  1.0185 -0.0246
 6010SOL    HW119630   7.042   0.731   4.074  1.3884  2.3951  1.4354
 6010SOL    HW219631   6.968   0.848   4.159 -0.4662  0.6460  2.3155
 6011SOL     OW19632   0.835   0.807   1.236  0.6228 -0.0947 -0.0419
 6011SOL    HW119633   0.744   0.775   1.263  0.3123  0.6778 -0.1323
 6011SOL    HW219634   0.873   0.746   1.166  0.0247 -0.2268 -0.2567
 6012SOL     OW19635   1.656   1.547   1.968  0.4246 -0.4025  0.3547
 6012SOL    HW119636   1.742   1.503   1.990  0.3800  0.3914  2.2726
 6012SOL    HW219637   1.596   1.547   2.048 -0.1924  1.6757 -0.0241
 6013SOL     OW19638   5.565   4.993   1.896  0.9488  0.4968 -0.0562
 6013SOL    HW119639   5.631   5.001   1.821  0.5458 -0.9751 -0.5918
 6013SOL    HW219640   5.486   5.050   1.877  0.4511 -0.5441 -1.2118
 6014SOL     OW19641   4.308   5.807   6.273  0.9895  0.7100 -0.3309
 6014SOL    HW119642   4.227   5.751   6.257  1.0814  1.3555 -3.8445
 6014SOL    HW219643   4.294   5.864   6.354 -0.9569 -1.0525  0.6575
 6015SOL     OW19644   4.248   0.039   2.441 -0.2321  0.0126 -0.1811
 6015SOL    HW119645   4.204  -0.037   2.489  2.5812 -1.2454  0.6037
 6015SOL    HW219646   4.322   0.004   2.384  0.1253  2.0503 -1.0398
 6016SOL     OW19647   3.634   2.290   5.682 -0.4219  0.0755 -0.1965
 6016SOL    HW119648   3.638   2.387   5.658  0.3404 -0.3251 -1.7986
 6016SOL    HW219649   3.727   2.256   5.696 -0.7538 -0.0157  2.3032
 6017SOL     OW19650   5.291   2.592   5.553 -0.4129 -0.5954 -0.4699
 6017SOL    HW119651   5.329   2.548   5.635 -1.5419 -0.2441  0.2699
 6017SOL    HW219652   5.365   2.623   5.494  0.4250 -1.0570  0.3165
 6018SOL     OW19653   0.593   0.698   6.936 -0.0090 -0.8646  0.2098
 6018SOL    HW119654   0.539   0.774   6.972  1.7568  1.2504 -1.3565
 6018SOL    HW219655   0.536   0.644   6.873 -0.8216  0.2091 -0.0078
 6019SOL     OW19656   3.675   3.562   5.566  0.0502  0.3846 -0.1165
 6019SOL    HW119657   3.635   3.623   5.497  1.3145  1.1087 -0.2523
 6019SOL    HW219658   3.741   3.502   5.522 -2.1291 -2.1075 -0.2301
 6020SOL     OW19659   4.583   4.232   1.294  0.4269 -0.3353 -0.0927
 6020SOL    HW119660   4.590   4.137   1.263  3.0557  0.0588 -1.0009
 6020SOL    HW219661   4.574   4.292   1.214  0.8599  0.2885  0.3205
 6021SOL     OW19662   6.561   6.915   2.069 -0.1729 -0.3118 -0.2961
 6021SOL    HW119663   6.633   6.846   2.061  0.3589  0.3291 -1.2216
 6021SOL    HW219664   6.478   6.882   2.023 -0.3554 -0.8652  0.3966
 6022SOL     OW19665   6.374   4.968   2.677  0.1657 -0.2161 -0.7888
 6022SOL    HW119666   6.283   4.993   2.712  0.6996  0.1747  0.3869
 6022SOL    HW219667   6.421   5.050   2.646  0.7704 -0.1574  0.2429
 6023SOL     OW19668   3.156   0.717   0.768  0.2465  0.1118  0.8073
 6023SOL    HW119669   3.190   0.699   0.860 -2.0380  1.3035  1.9775
 6023SOL    HW219670   3.121   0.633   0.727  1.8076 -0.5348  0.7563
 6024SOL     OW19671   1.928   3.060   0.323 -0.3465  0.1119 -0.0338
 6024SOL    HW119672   1.909   3.145   0.372 -0.2396  0.3169 -0.3395
 6024SOL    HW219673   1.843   3.024   0.285 -0.2319  0.6936 -0.8683
 6025SOL     OW19674   4.311   6.769   5.865 -0.2719 -0.4562  0.0978
 6025SOL    HW119675   4.220   6.749   5.829 -0.5278  2.1241 -0.8550
 6025SOL    HW219676   4.306   6.846   5.929  1.2365 -0.2767  0.0399
 6026SOL     OW19677   4.786   5.722   1.437 -0.5297  0.5165  0.1740
 6026SOL    HW119678   4.836   5.720   1.350  0.1358 -0.3160  0.5652
 6026SOL    HW219679   4.806   5.639   1.489 -2.0485  0.3270  0.5071
 6027SOL     OW19680   3.869   0.166   2.149  0.0672  0.3306 -0.1819
 6027SOL    HW119681   3.918   0.252   2.135 -0.2988  0.7661  1.0353
 6027SOL    HW219682   3.900   0.123   2.234 -0.5220 -0.1955 -0.2198
 6028SOL     OW19683   3.929   2.589   1.026  0.1861  0.3450 -0.1441
 6028SOL    HW119684   3.869   2.631   1.093  0.0832  1.3389 -0.8438
 6028SOL    HW219685   3.874   2.545   0.955  0.2500 -2.2251  1.2506
 6029SOL     OW19686   5.598   1.587   5.257  0.5561  0.2008  0.1267
 6029SOL    HW119687   5.563   1.678   5.280 -1.6027 -0.7604  0.9186
 6029SOL    HW219688   5.590   1.528   5.337 -0.6985 -1.4176 -1.1196
 6030SOL     OW19689   3.295   5.829   2.674  0.3326 -0.1024  0.4420
 6030SOL    HW119690   3.227   5.836   2.747  0.2613  1.8490  0.2481
 6030SOL    HW219691   3.292   5.912   2.618  1.1834 -1.0594 -1.0861
 6031SOL     OW19692   6.980   3.129   3.532  0.3336  0.3551 -0.3214
 6031SOL    HW119693   7.066   3.083   3.552 -0.2947 -0.0261  1.8191
 6031SOL    HW219694   6.987   3.226   3.554 -0.2966 -0.0278  1.8536
 6032SOL     OW19695   0.220   1.558   0.078  0.4401 -0.0329  0.3927
 6032SOL    HW119696   0.222   1.605   0.167  2.1674  0.2268  0.2564
 6032SOL    HW219697   0.261   1.467   0.088 -0.6983 -0.5855  0.1494
 6033SOL     OW19698   5.747   5.447   0.737  0.1502  0.0319  0.3761
 6033SOL    HW119699   5.719   5.379   0.669  3.0719 -0.1558 -0.7782
 6033SOL    HW219700   5.734   5.539   0.700  3.0282 -0.0834 -1.1260
 6034SOL     OW19701   0.624   0.040   3.687 -0.2771  0.1737  0.0035
 6034SOL    HW119702   0.723   0.046   3.693 -0.3248  0.6418  0.4118
 6034SOL    HW219703   0.588  -0.014   3.763 -0.4625  1.5140  0.9018
 6035SOL     OW19704   3.672   6.012   3.771 -0.0590 -0.1267 -0.0187
 6035SOL    HW119705   3.578   6.030   3.743  0.2216  1.0063 -0.3164
 6035SOL    HW219706   3.727   5.989   3.691  0.2368  0.7867 -0.0987
 6036SOL     OW19707   2.954   1.978   5.202  0.3448  0.1937  0.9391
 6036SOL    HW119708   3.026   1.954   5.267  1.1916 -0.1305 -0.0851
 6036SOL    HW219709   2.869   1.934   5.229  0.3556  1.0681  2.5125
 6037SOL     OW19710   2.986   0.037   0.288 -0.6861 -0.4420 -0.0112
 6037SOL    HW119711   2.905   0.059   0.234  1.4077  0.8062 -2.9166
 6037SOL    HW219712   2.992  -0.062   0.299 -2.2798 -0.5928 -0.2394
 6038SOL     OW19713   0.440   5.802   3.263  0.3387 -0.0312 -0.1608
 6038SOL    HW119714   0.432   5.856   3.346 -0.0911  0.2863 -0.4066
 6038SOL    HW219715   0.514   5.838   3.206  1.2428 -0.7993  0.4847
 6039SOL     OW19716   2.483   2.460   5.512 -0.1269 -0.1196 -0.9094
 6039SOL    HW119717   2.434   2.547   5.514 -0.2768 -0.2121 -0.5906
 6039SOL    HW219718   2.561   2.465   5.575 -0.7938 -0.6056 -0.0232
 6040SOL     OW19719   5.708   0.197   0.812 -0.0535  0.2326 -0.5336
 6040SOL    HW119720   5.648   0.140   0.867 -1.3622  0.6879 -1.4471
 6040SOL    HW219721   5.713   0.161   0.719 -0.1638  1.0826 -0.8803
 6041SOL     OW19722   5.246   0.945   6.877  0.0657  0.1099 -0.1108
 6041SOL    HW119723   5.157   0.904   6.860 -0.2380 -0.0671  1.7023
 6041SOL    HW219724   5.233   1.031   6.926  0.7443  1.9270 -2.8732
 6042SOL     OW19725   2.904   5.237   6.155 -0.5070 -0.2671  0.0856
 6042SOL    HW119726   3.000   5.237   6.125  0.4982  0.1686  2.9926
 6042SOL    HW219727   2.860   5.321   6.124  0.3704  0.0494 -0.3528
 6043SOL     OW19728   2.016   4.358   1.522 -0.1910  0.4162  0.1344
 6043SOL    HW119729   1.996   4.431   1.457 -1.0259  1.0940  1.1184
 6043SOL    HW219730   2.095   4.383   1.578 -0.9855  0.9976  1.0465
 6044SOL     OW19731   4.281   0.137   4.420 -0.3711 -0.1181  0.1134
 6044SOL    HW119732   4.242   0.226   4.397  0.0748  0.5937  1.9506
 6044SOL    HW219733   4.219   0.065   4.390 -1.1326  0.8331 -0.6762
 6045SOL     OW19734   0.731   3.042   3.953  0.0200 -0.2469  0.3556
 6045SOL    HW119735   0.638   3.021   3.921  0.1868  0.1023 -0.3788
 6045SOL    HW219736   0.728   3.121   4.015 -0.4427 -1.5721  2.1029
 6046SOL     OW19737   6.614   0.151   3.474 -0.5896  0.3635  0.0747
 6046SOL    HW119738   6.613   0.077   3.542 -2.0108  0.4037  0.1287
 6046SOL    HW219739   6.661   0.121   3.392 -0.4422 -0.3232  0.4065
 6047SOL     OW19740   1.536   3.360   5.252 -0.6686 -0.1875 -0.0216
 6047SOL    HW119741   1.481   3.437   5.283 -0.7625 -0.2675  0.0106
 6047SOL    HW219742   1.621   3.394   5.212 -0.0002 -0.1361  1.4015
 6048SOL     OW19743   0.043   0.287   3.084  0.2019 -0.1479  0.3551
 6048SOL    HW119744   0.035   0.201   3.034 -0.4076  0.9891 -1.6062
 6048SOL    HW219745   0.127   0.333   3.056 -0.3093  0.6547  0.1240
 6049SOL     OW19746   4.885   6.323   3.405  0.0628 -0.3255  0.1904
 6049SOL    HW119747   4.947   6.265   3.352 -0.7496  0.5957 -1.8717
 6049SOL    HW219748   4.869   6.281   3.495  2.7175 -1.1582  0.3638
 6050SOL     OW19749   4.846   2.986   5.645  0.0273  0.5629  0.1579
 6050SOL    HW119750   4.933   3.023   5.678  0.1419 -1.4756  2.4171
 6050SOL    HW219751   4.780   2.985   5.720 -0.6082 -1.7627 -0.3599
 6051SOL     OW19752   5.127   3.617   0.378 -0.5696 -0.9015  0.0241
 6051SOL    HW119753   5.186   3.588   0.452  2.6331  0.1085 -1.9242
 6051SOL    HW219754   5.087   3.707   0.400  3.0391  1.0453 -0.6256
 6052SOL     OW19755   1.461   2.339   2.962 -0.1043 -0.9829  0.0006
 6052SOL    HW119756   1.442   2.382   2.873 -1.5761 -0.6871  0.4219
 6052SOL    HW219757   1.459   2.409   3.033 -0.0389 -1.3766  0.3902
 6053SOL     OW19758   6.268   5.024   0.510  0.5457 -0.1111  0.5466
 6053SOL    HW119759   6.359   5.005   0.472  0.1633 -2.1764  0.5036
 6053SOL    HW219760   6.276   5.054   0.605  1.3468  1.8618 -0.1021
 6054SOL     OW19761   1.874   3.469   4.136 -0.3381 -0.0573  0.1081
 6054SOL    HW119762   1.945   3.414   4.178 -0.1738 -1.5732 -2.0341
 6054SOL    HW219763   1.902   3.498   4.045 -1.6648  1.0392 -0.0030
 6055SOL     OW19764   3.108   5.593   0.207 -0.3704  0.4644 -0.4043
 6055SOL    HW119765   3.042   5.659   0.244 -0.9194 -1.1173  1.6079
 6055SOL    HW219766   3.199   5.616   0.240 -1.1488 -2.6912  5.2534
 6056SOL     OW19767   3.918   4.368   1.443  0.2931  0.3355 -0.0455
 6056SOL    HW119768   3.903   4.445   1.381  1.8728  0.5503 -0.2199
 6056SOL    HW219769   3.940   4.286   1.389  3.7737  0.9884  0.1161
 6057SOL     OW19770   0.530   0.903   2.297 -1.0154 -0.0621  0.6978
 6057SOL    HW119771   0.603   0.959   2.337 -0.2913 -0.7811  0.4091
 6057SOL    HW219772   0.457   0.963   2.265 -1.2061  0.5886  2.2491
 6058SOL     OW19773   1.149   5.288   2.508  0.2276 -0.2152  0.6295
 6058SOL    HW119774   1.222   5.292   2.575  1.0009  0.6137 -0.2249
 6058SOL    HW219775   1.114   5.195   2.501  2.8829 -1.2032 -0.6693
 6059SOL     OW19776   3.212   3.213   2.114 -0.1638 -0.2125 -0.4591
 6059SOL    HW119777   3.288   3.263   2.073 -0.0708 -0.6428 -0.8142
 6059SOL    HW219778   3.234   3.115   2.118  0.0488 -0.1365  1.0780
 6060SOL     OW19779   2.458   3.975   6.731  0.1243  0.3538 -0.3160
 6060SOL    HW119780   2.486   4.056   6.679 -0.4630  0.7868  0.0240
 6060SOL    HW219781   2.358   3.972   6.736  0.1498 -0.2314 -0.0679
 6061SOL     OW19782   4.194   1.757   6.632 -0.2712  0.5734 -1.0523
 6061SOL    HW119783   4.274   1.721   6.679 -1.2761 -1.3060 -0.6737
 6061SOL    HW219784   4.184   1.855   6.653  0.3195  0.2093  1.2159
 6062SOL     OW19785   6.598   0.505   5.617 -0.1425 -0.1535  0.5264
 6062SOL    HW119786   6.551   0.482   5.702  0.7680  2.4052  1.8237
 6062SOL    HW219787   6.548   0.578   5.570 -0.1311 -0.9057 -0.7078
 6063SOL     OW19788   1.012   0.976   1.016  0.1456 -0.1204  0.3411
 6063SOL    HW119789   0.949   0.984   0.939 -1.1473 -0.9277  1.2692
 6063SOL    HW219790   1.019   0.880   1.044 -0.5688  0.3034  2.1232
 6064SOL     OW19791   0.041   5.097   1.451 -0.1102 -0.0467  0.0436
 6064SOL    HW119792   0.065   5.108   1.547 -0.4675 -1.9285  0.3828
 6064SOL    HW219793   0.102   5.152   1.395  2.0013 -1.1192  1.1704
 6065SOL     OW19794   1.639   6.267   1.505 -0.2469 -0.5964 -0.5042
 6065SOL    HW119795   1.601   6.358   1.520 -0.1851 -0.3802 -1.5373
 6065SOL    HW219796   1.692   6.267   1.420 -0.4130 -1.6408 -0.6195
 6066SOL     OW19797   3.195   4.786   2.217 -0.3974 -0.0040  0.0710
 6066SOL    HW119798   3.154   4.784   2.308  0.6054  1.8332  0.6291
 6066SOL    HW219799   3.163   4.868   2.168 -1.7677 -1.4976 -1.7040
 6067SOL     OW19800   6.615   2.270   3.801  0.0484 -0.1354  0.0084
 6067SOL    HW119801   6.639   2.366   3.787  0.5251 -0.3258 -0.5389
 6067SOL    HW219802   6.541   2.245   3.737  2.2588 -1.0190 -2.3968
 6068SOL     OW19803   0.494   1.620   2.146  0.0265  0.6879  0.0380
 6068SOL    HW119804   0.426   1.548   2.131 -0.0969  0.5723  1.0980
 6068SOL    HW219805   0.586   1.583   2.130  0.0536 -0.0800  1.8368
 6069SOL     OW19806   3.685   1.493   1.948  0.8684  0.6048 -0.3287
 6069SOL    HW119807   3.649   1.401   1.964  0.7948  0.4723 -1.2322
 6069SOL    HW219808   3.626   1.560   1.994  0.2174  0.2909 -0.6891
 6070SOL     OW19809   1.664   4.044   5.870  0.0311  0.2647 -0.2405
 6070SOL    HW119810   1.697   4.075   5.959  1.3975  1.5761 -1.1626
 6070SOL    HW219811   1.714   4.091   5.797 -0.9620 -0.8708 -1.7194
 6071SOL     OW19812   2.347   0.645   1.997  0.3799  0.4146  0.1601
 6071SOL    HW119813   2.437   0.607   1.972  0.3256  0.3898  0.0015
 6071SOL    HW219814   2.295   0.576   2.046  0.9978  0.8946  1.5435
 6072SOL     OW19815   5.330   3.644   3.482 -0.5179  0.2658 -0.3911
 6072SOL    HW119816   5.276   3.564   3.457  0.7714 -0.6457 -0.3432
 6072SOL    HW219817   5.298   3.723   3.430  0.0218 -0.8859 -2.5838
 6073SOL     OW19818   0.900   0.465   0.407  0.1121 -0.9128 -0.1297
 6073SOL    HW119819   0.940   0.536   0.348 -1.0148  1.2942  1.5826
 6073SOL    HW219820   0.972   0.426   0.465  0.5220 -0.0772 -0.0591
 6074SOL     OW19821   5.783   1.900   0.037 -0.2801  0.7033  0.0223
 6074SOL    HW119822   5.723   1.896   0.117 -1.1481  2.1938 -0.5253
 6074SOL    HW219823   5.878   1.900   0.067 -0.4582 -2.2118  0.8877
 6075SOL     OW19824   5.059   0.036   3.379  0.5010 -0.4858 -0.0981
 6075SOL    HW119825   4.971   0.082   3.368  1.0433  1.0810  1.5096
 6075SOL    HW219826   5.067   0.001   3.473  0.3955 -3.3924 -1.0648
 6076SOL     OW19827   5.551   4.327   0.391 -0.2181  0.0131  0.0060
 6076SOL    HW119828   5.648   4.304   0.387 -0.2093  0.1799 -1.0038
 6076SOL    HW219829   5.526   4.383   0.312 -1.4520 -1.2609 -0.5673
 6077SOL     OW19830   6.792   1.707   3.852  0.5377  0.2448 -0.6783
 6077SOL    HW119831   6.856   1.703   3.929  0.4725 -1.4122 -0.6727
 6077SOL    HW219832   6.735   1.788   3.861  0.0947 -0.2270  1.3918
 6078SOL     OW19833   6.510   5.844   2.180 -0.3979  0.0102  0.4067
 6078SOL    HW119834   6.548   5.754   2.204 -2.0739 -1.0726 -0.7664
 6078SOL    HW219835   6.415   5.849   2.210  0.0215  1.9518  1.6264
 6079SOL     OW19836   0.378   4.196   5.412 -0.3719 -0.0115  0.1600
 6079SOL    HW119837   0.314   4.259   5.456 -0.1671  0.0345  0.3918
 6079SOL    HW219838   0.401   4.122   5.476  1.1694  0.9052  0.7213
 6080SOL     OW19839   3.752   4.954   4.471 -0.4092 -0.0240 -0.3471
 6080SOL    HW119840   3.735   4.993   4.561 -0.5335  0.5040 -0.5891
 6080SOL    HW219841   3.674   4.974   4.411  0.0537  0.4122 -0.8199
 6081SOL     OW19842   3.511   5.401   1.115 -0.1480  0.2456  0.1574
 6081SOL    HW119843   3.596   5.430   1.071  0.6130 -1.3823  0.4905
 6081SOL    HW219844   3.524   5.400   1.214 -1.0493  1.4056  0.3139
 6082SOL     OW19845   6.890   1.995   4.904 -0.0099 -0.0802  0.4867
 6082SOL    HW119846   6.906   1.913   4.959  0.2212  0.4626  1.2432
 6082SOL    HW219847   6.965   2.059   4.917  0.0961  0.0307 -0.5483
 6083SOL     OW19848   2.637   0.853   3.987 -0.1796 -0.2164  0.0931
 6083SOL    HW119849   2.544   0.877   3.962 -0.7645 -1.5728  0.8742
 6083SOL    HW219850   2.700   0.889   3.918 -1.3597 -0.1276 -0.9783
 6084SOL     OW19851   5.735   3.258   3.054  0.1105  0.2033 -0.7589
 6084SOL    HW119852   5.703   3.319   2.981 -0.7383  1.0076  0.2511
 6084SOL    HW219853   5.669   3.183   3.066 -1.5184  1.8527  1.3128
 6085SOL     OW19854   3.471   0.394   5.788 -0.6765 -0.3572 -0.7963
 6085SOL    HW119855   3.543   0.325   5.775  2.0823  1.4353  3.1043
 6085SOL    HW219856   3.502   0.481   5.750 -1.8165 -0.0397 -1.0152
 6086SOL     OW19857   2.620   2.044   2.989  0.2943  0.2789  0.1202
 6086SOL    HW119858   2.540   2.074   3.041  0.3884 -2.3041  1.9591
 6086SOL    HW219859   2.701   2.050   3.047  1.6719  3.2646 -1.8379
 6087SOL     OW19860   3.481   2.220   4.232 -0.4997  0.0982  0.2355
 6087SOL    HW119861   3.384   2.231   4.210 -0.1158  0.8264 -1.1787
 6087SOL    HW219862   3.496   2.243   4.328 -2.1627 -2.7626  1.3193
 6088SOL     OW19863   6.997   3.332   0.489  0.0726 -0.5873 -0.0845
 6088SOL    HW119864   7.073   3.395   0.502 -1.4053  2.1948 -3.3863
 6088SOL    HW219865   6.934   3.339   0.566 -0.2202  2.4094 -0.4730
 6089SOL     OW19866   1.842   5.123   2.348 -0.0006 -1.0852  0.1208
 6089SOL    HW119867   1.839   5.129   2.447  0.6088  0.1794  0.0780
 6089SOL    HW219868   1.937   5.125   2.317 -0.2218 -0.3801 -0.5406
 6090SOL     OW19869   4.225   5.810   2.857 -0.6872  0.1007 -0.1809
 6090SOL    HW119870   4.243   5.848   2.766 -0.0788 -0.8441 -0.4721
 6090SOL    HW219871   4.127   5.815   2.876 -0.5496  2.7082  0.2251
 6091SOL     OW19872   6.948   6.686   6.869 -0.0834 -0.8081 -0.0140
 6091SOL    HW119873   6.876   6.661   6.803  0.0921 -2.8070  0.4939
 6091SOL    HW219874   7.024   6.728   6.820 -0.6604 -0.6972 -0.8510
 6092SOL     OW19875   3.225   0.990   0.847  0.9728 -0.4208 -0.0967
 6092SOL    HW119876   3.193   0.905   0.804 -1.2770  0.9911 -1.4359
 6092SOL    HW219877   3.242   1.059   0.776  0.8036  0.8617  1.0584
 6093SOL     OW19878   0.071   5.281   0.693 -0.6852 -0.0197 -0.3619
 6093SOL    HW119879   0.150   5.224   0.715 -0.9807 -0.4085 -0.2799
 6093SOL    HW219880   0.029   5.249   0.608  2.0522  3.1466 -3.1968
 6094SOL     OW19881   4.002   5.443   3.979 -0.6710  0.9065 -0.4235
 6094SOL    HW119882   3.942   5.406   3.909  0.8755 -2.0344 -0.3578
 6094SOL    HW219883   3.983   5.398   4.066  1.2681  0.1618 -0.3232
 6095SOL     OW19884   0.015   3.608   2.516  0.5241 -0.2881 -0.3878
 6095SOL    HW119885   0.001   3.705   2.498  0.6741 -0.4572 -1.5150
 6095SOL    HW219886   0.093   3.575   2.462  1.5664 -0.6623  1.2800
 6096SOL     OW19887   5.545   2.731   1.836 -0.0872  0.3493  0.4135
 6096SOL    HW119888   5.538   2.778   1.924  0.6873 -0.2293  0.7959
 6096SOL    HW219889   5.543   2.632   1.851 -1.1344  0.2392 -0.3314
 6097SOL     OW19890   6.345   2.091   2.630 -0.0237 -0.6951  0.4594
 6097SOL    HW119891   6.417   2.101   2.562  0.5882  0.7174  1.2686
 6097SOL    HW219892   6.382   2.106   2.721 -0.7546 -2.8877  1.1889
 6098SOL     OW19893   2.482   3.459   1.851  0.1780  0.0529  0.2589
 6098SOL    HW119894   2.557   3.524   1.843  0.5295 -0.4026 -0.2623
 6098SOL    HW219895   2.397   3.500   1.816  0.2613  0.4478  0.5284
 6099SOL     OW19896   6.052   4.298   3.848 -0.3553  0.4241  0.7136
 6099SOL    HW119897   5.985   4.346   3.905  1.2186 -0.1534  3.2398
 6099SOL    HW219898   6.137   4.350   3.846 -0.1456  0.0661 -0.6026
 6100SOL     OW19899   5.152   0.599   2.359  0.3422 -0.3070  0.4087
 6100SOL    HW119900   5.201   0.677   2.398  1.5123 -1.5007  1.4038
 6100SOL    HW219901   5.141   0.613   2.261  0.8427  0.9434  0.5051
 6101SOL     OW19902   1.607   4.782   2.676 -0.7400  0.4201  0.0461
 6101SOL    HW119903   1.521   4.749   2.637 -0.6091 -1.0018  0.8708
 6101SOL    HW219904   1.677   4.783   2.605 -1.0573  0.0618 -0.2806
 6102SOL     OW19905   4.997   1.645   0.148  0.0910  0.6063  0.1727
 6102SOL    HW119906   4.923   1.690   0.097  0.4298 -0.5667 -1.4198
 6102SOL    HW219907   4.980   1.547   0.151  0.1991  0.6038  2.1988
 6103SOL     OW19908   3.314   1.975   3.173  0.5887  0.3504 -0.3858
 6103SOL    HW119909   3.336   1.880   3.150 -0.1910  0.0991 -0.1540
 6103SOL    HW219910   3.367   2.004   3.252  1.1469  0.2525 -0.7223
 6104SOL     OW19911   2.630   6.521   0.669 -0.0176  0.3816  0.4268
 6104SOL    HW119912   2.722   6.510   0.633  0.5100  2.4425  1.0049
 6104SOL    HW219913   2.567   6.544   0.594 -0.7384 -3.7668 -0.4499
 6105SOL     OW19914   4.513   5.725   4.664 -0.7331 -0.6312  0.2559
 6105SOL    HW119915   4.452   5.773   4.727 -0.3953 -0.5335  0.5101
 6105SOL    HW219916   4.475   5.730   4.571 -0.0186  1.3276  0.0334
 6106SOL     OW19917   1.624   1.263   6.680 -0.3724 -0.0341  0.3161
 6106SOL    HW119918   1.593   1.221   6.595 -1.2909  1.2285  0.0025
 6106SOL    HW219919   1.594   1.358   6.684  1.6488  0.6396  0.9988
 6107SOL     OW19920   6.260   6.309   2.853 -0.6359 -0.2146  0.7118
 6107SOL    HW119921   6.280   6.282   2.759 -0.6733 -0.6348  0.8252
 6107SOL    HW219922   6.188   6.379   2.853 -1.2655 -0.8481  0.4739
 6108SOL     OW19923   0.599   1.324   1.534  0.3102  0.1272  0.3034
 6108SOL    HW119924   0.615   1.423   1.534 -3.0240  0.8142  1.4771
 6108SOL    HW219925   0.502   1.306   1.553  0.8436 -3.4102  0.3888
 6109SOL     OW19926   6.440   6.616   5.532  0.1682 -0.2140 -0.3550
 6109SOL    HW119927   6.527   6.646   5.571 -0.4588 -0.9094  1.6998
 6109SOL    HW219928   6.444   6.518   5.513 -0.2120 -0.2692 -0.1523
 6110SOL     OW19929   0.954   6.769   1.821 -0.4255  0.4182 -0.1723
 6110SOL    HW119930   0.919   6.858   1.790 -1.7060  0.7257  1.9535
 6110SOL    HW219931   0.918   6.749   1.912  1.3880 -1.4148  0.2184
 6111SOL     OW19932   6.873   1.283   2.660 -0.2306  0.0402  0.1172
 6111SOL    HW119933   6.951   1.320   2.611 -0.7719  1.7411  0.4560
 6111SOL    HW219934   6.848   1.194   2.622  1.2428 -0.0839 -0.6294
 6112SOL     OW19935   0.826   0.524   6.265 -0.1815  0.1280 -0.0368
 6112SOL    HW119936   0.836   0.461   6.188  0.6260  0.4410 -0.1985
 6112SOL    HW219937   0.914   0.568   6.284 -0.3005 -0.1111  1.2151
 6113SOL     OW19938   3.953   5.326   4.778 -0.1900 -0.2435  0.2364
 6113SOL    HW119939   4.032   5.283   4.822  1.7201  1.0059 -1.7451
 6113SOL    HW219940   3.904   5.259   4.723  1.2931 -0.4828 -0.8641
 6114SOL     OW19941   1.131   4.667   2.490  0.6513  0.2433  0.1184
 6114SOL    HW119942   1.141   4.680   2.391  0.3454 -0.9221 -0.0780
 6114SOL    HW219943   1.034   4.667   2.514  0.7295  0.5863  0.4222
 6115SOL     OW19944   5.968   6.619   3.398 -0.3155  0.4527 -0.3482
 6115SOL    HW119945   5.889   6.672   3.428 -0.6523 -0.4072  0.3431
 6115SOL    HW219946   5.936   6.535   3.354  0.1989 -0.0378  0.1932
 6116SOL     OW19947   2.626   2.171   6.394  0.5488 -0.3144 -0.1107
 6116SOL    HW119948   2.589   2.261   6.416  1.1806 -0.0877  0.0405
 6116SOL    HW219949   2.676   2.134   6.473  0.3827 -0.7554 -0.2045
 6117SOL     OW19950   5.779   6.927   2.612  0.6949  0.6794  0.2196
 6117SOL    HW119951   5.852   6.861   2.590  0.7014  0.5118  0.7379
 6117SOL    HW219952   5.819   7.017   2.627  0.4980  1.3500 -2.6649
 6118SOL     OW19953   0.259   2.598   2.517 -0.1747  0.6984 -0.1761
 6118SOL    HW119954   0.323   2.614   2.593  0.6977  1.0034 -0.9618
 6118SOL    HW219955   0.225   2.686   2.484  0.1855  0.6242 -0.7545
 6119SOL     OW19956   0.901   1.729   6.308  0.1236 -0.5507  0.8042
 6119SOL    HW119957   0.858   1.746   6.219  0.9765 -0.8768  0.3120
 6119SOL    HW219958   1.000   1.725   6.296  0.3126  0.3041  1.9297
 6120SOL     OW19959   1.700   6.025   5.633 -0.1627  0.1706 -0.9033
 6120SOL    HW119960   1.707   5.925   5.637  0.5317  0.2323  2.4018
 6120SOL    HW219961   1.605   6.051   5.617 -0.7070 -1.0574  0.1683
 6121SOL     OW19962   2.026   6.174   3.610  0.2206  0.8423 -0.2185
 6121SOL    HW119963   2.010   6.135   3.701  2.0052  1.4137  0.3799
 6121SOL    HW219964   1.945   6.158   3.553 -0.7491  0.0294  1.2925
 6122SOL     OW19965   1.680   4.717   5.807  0.0741 -0.1039 -0.4100
 6122SOL    HW119966   1.656   4.756   5.896 -0.4322 -0.1999 -0.4982
 6122SOL    HW219967   1.599   4.717   5.748  0.3324 -0.3119 -0.7706
 6123SOL     OW19968   0.944   6.526   1.665 -0.3352  0.5089 -0.0173
 6123SOL    HW119969   0.913   6.469   1.741  1.6780 -0.1418  0.4010
 6123SOL    HW219970   0.928   6.622   1.686 -1.7044  0.2318  0.2760
 6124SOL     OW19971   4.045   0.386   1.942  0.4138 -0.4212  0.0398
 6124SOL    HW119972   4.134   0.417   1.908  0.4677 -1.0159 -0.3882
 6124SOL    HW219973   4.026   0.295   1.905 -0.8069  0.0951 -0.6735
 6125SOL     OW19974   0.646   5.193   6.176 -0.2720  0.8508  0.3465
 6125SOL    HW119975   0.615   5.206   6.270  0.0605  0.1666  0.5580
 6125SOL    HW219976   0.580   5.137   6.126  0.6451 -0.7333  0.8398
 6126SOL     OW19977   0.871   4.147   3.422  0.3407 -0.3125  0.6538
 6126SOL    HW119978   0.814   4.170   3.344 -0.5835 -0.0685  1.3817
 6126SOL    HW219979   0.935   4.222   3.440  0.8428 -0.5448 -0.0999
 6127SOL     OW19980   1.350   2.017   5.766 -0.4111 -0.1593  0.1115
 6127SOL    HW119981   1.357   1.993   5.862 -1.5685  1.2584  0.5893
 6127SOL    HW219982   1.313   1.940   5.714  0.2481 -0.9376  0.7870
 6128SOL     OW19983   1.815   4.810   1.187  0.2475  0.2297  0.7405
 6128SOL    HW119984   1.719   4.804   1.216  0.2143 -0.5837  0.4916
 6128SOL    HW219985   1.826   4.760   1.101  0.9334  0.1636  0.8652
 6129SOL     OW19986   3.330   6.893   0.233  0.2616  0.4592 -0.2014
 6129SOL    HW119987   3.314   6.991   0.241 -0.4132  0.5769 -2.3639
 6129SOL    HW219988   3.244   6.844   0.247  0.6187  0.1362  0.9867
 6130SOL     OW19989   4.944   5.757   5.290 -0.4701 -0.0723  0.3181
 6130SOL    HW119990   4.949   5.693   5.367 -2.4963 -0.4923  0.1576
 6130SOL    HW219991   4.866   5.732   5.232 -0.5589  1.8191 -0.4188
 6131SOL     OW19992   0.691   6.170   0.190  0.3053  0.6732  0.1153
 6131SOL    HW119993   0.789   6.158   0.202  0.1776 -0.1238  0.3772
 6131SOL    HW219994   0.659   6.113   0.115 -0.0926  0.3156  0.5527
 6132SOL     OW19995   2.571   4.873   3.846 -0.2573  0.0055  0.2586
 6132SOL    HW119996   2.669   4.871   3.828 -0.3583 -0.4874 -0.2955
 6132SOL    HW219997   2.546   4.799   3.909 -0.5084 -0.9956 -0.9719
 6133SOL     OW19998   3.242   5.867   3.774  0.4359 -0.1025 -0.3953
 6133SOL    HW119999   3.168   5.925   3.808  0.4091  0.0678 -0.7493
 6133SOL    HW220000   3.301   5.919   3.712  2.7793  0.7626  2.3474
 6134SOL     OW20001   5.369   2.646   2.865 -0.3402 -0.0258  0.3071
 6134SOL    HW120002   5.312   2.563   2.864  0.4468 -0.5699 -0.0211
 6134SOL    HW220003   5.380   2.679   2.772 -1.5914  1.1250  0.5335
 6135SOL     OW20004   4.951   1.960   1.109  0.0352 -0.6700 -0.2982
 6135SOL    HW120005   4.966   1.906   1.026 -1.7957 -0.6702 -0.6822
 6135SOL    HW220006   4.860   1.940   1.145  0.1582  0.5828  0.7716
 6136SOL     OW20007   5.046   4.565   6.682  0.6122  0.0588 -0.1856
 6136SOL    HW120008   5.092   4.578   6.595  0.7106 -2.0975 -0.5169
 6136SOL    HW220009   5.074   4.477   6.721  0.4493  0.9028  1.9556
 6137SOL     OW20010   6.052   1.205   2.639 -0.2777 -0.1281 -0.6455
 6137SOL    HW120011   6.095   1.294   2.650  1.8116 -1.2214  0.7741
 6137SOL    HW220012   6.024   1.192   2.544  2.0706  0.8968 -1.5325
 6138SOL     OW20013   2.623   5.610   1.829 -0.3320  0.0647 -0.1026
 6138SOL    HW120014   2.637   5.649   1.920  0.0647  1.7747 -0.8501
 6138SOL    HW220015   2.527   5.617   1.803 -0.1016  1.6287 -0.6545
 6139SOL     OW20016   5.594   3.431   0.636  0.6816  0.5315 -0.3150
 6139SOL    HW120017   5.660   3.500   0.605  1.4131  0.1086  0.2776
 6139SOL    HW220018   5.517   3.476   0.681  0.4240  1.0472 -1.2415
 6140SOL     OW20019   3.802   1.996   5.196 -0.1462 -0.6899  0.1397
 6140SOL    HW120020   3.770   2.081   5.153  0.1867 -1.0374 -0.8435
 6140SOL    HW220021   3.901   1.987   5.182 -0.1032 -1.0081  0.6374
 6141SOL     OW20022   0.497   1.695   6.181  0.6215 -0.0325  0.0121
 6141SOL    HW120023   0.454   1.609   6.207 -0.5238  0.5415  0.0697
 6141SOL    HW220024   0.466   1.721   6.090 -1.1081  1.5932  0.9977
 6142SOL     OW20025   2.916   1.577   4.171 -0.2638 -0.0572  0.3673
 6142SOL    HW120026   2.948   1.666   4.204  1.2948 -0.5377  0.2235
 6142SOL    HW220027   2.928   1.572   4.072  1.6810 -1.1765  0.6171
 6143SOL     OW20028   0.488   2.209   6.456  0.0607 -0.1168 -0.3868
 6143SOL    HW120029   0.396   2.194   6.420  0.2758  0.5811 -1.2759
 6143SOL    HW220030   0.535   2.276   6.399  0.0609  1.8493  1.7704
 6144SOL     OW20031   6.171   2.930   6.697  0.0015 -0.0213  0.3852
 6144SOL    HW120032   6.197   2.872   6.620 -1.9945  0.8049 -1.0040
 6144SOL    HW220033   6.227   3.014   6.696  1.5269 -0.9749  1.2361
 6145SOL     OW20034   5.957   2.553   6.345 -0.5578  0.3593 -0.4444
 6145SOL    HW120035   5.895   2.608   6.401  0.8851  3.4117 -1.6018
 6145SOL    HW220036   5.982   2.605   6.263  0.2131 -2.4941 -2.1566
 6146SOL     OW20037   4.204   3.858   1.595 -0.3618  0.4357 -0.1550
 6146SOL    HW120038   4.152   3.942   1.610 -0.4088  0.2864  0.5151
 6146SOL    HW220039   4.299   3.871   1.625 -0.3981  0.2092  0.0541
 6147SOL     OW20040   2.426   2.796   0.771  0.1779  0.1438  0.2146
 6147SOL    HW120041   2.379   2.708   0.773 -0.3077  0.3342 -1.5746
 6147SOL    HW220042   2.520   2.783   0.803  0.2618 -1.1285 -0.4765
 6148SOL     OW20043   2.073   6.221   4.603 -0.3241  0.6646 -0.7821
 6148SOL    HW120044   2.173   6.217   4.599 -0.3207  1.3409 -1.7609
 6148SOL    HW220045   2.040   6.166   4.679  0.7328 -0.5348 -1.1647
 6149SOL     OW20046   1.020   2.411   1.100 -0.0337 -0.1444  0.9528
 6149SOL    HW120047   0.929   2.371   1.088  0.3627 -0.9323  0.5341
 6149SOL    HW220048   1.057   2.386   1.189 -0.5003  0.7453  1.4097
 6150SOL     OW20049   0.225   0.487   3.464 -0.1422 -0.0474 -0.3805
 6150SOL    HW120050   0.223   0.546   3.545 -0.4758 -1.0786  0.3855
 6150SOL    HW220051   0.136   0.491   3.418  0.4693  1.5856 -1.4999
 6151SOL     OW20052   5.436   1.242   1.041 -0.6177 -0.1195 -0.4435
 6151SOL    HW120053   5.359   1.266   1.100 -0.6971 -0.5880 -0.3471
 6151SOL    HW220054   5.421   1.276   0.949 -0.6320  0.3627 -0.2657
 6152SOL     OW20055   4.858   2.731   0.406 -0.4766  0.1191  0.4492
 6152SOL    HW120056   4.880   2.802   0.473 -0.8125  0.1672  0.5105
 6152SOL    HW220057   4.841   2.645   0.453  1.3023 -0.3615  0.2863
 6153SOL     OW20058   1.290   0.223   2.285  0.1689  0.1643  0.2713
 6153SOL    HW120059   1.239   0.215   2.371  0.6052  0.8438  0.6007
 6153SOL    HW220060   1.289   0.319   2.255 -1.4255 -0.2918 -1.3770
 6154SOL     OW20061   3.327   0.224   6.682  0.5359 -0.4654 -0.2886
 6154SOL    HW120062   3.237   0.181   6.687  0.3624 -0.0229  0.5896
 6154SOL    HW220063   3.365   0.233   6.774  1.5116 -0.7053 -0.6545
 6155SOL     OW20064   0.117   5.307   2.311  0.1679 -0.3710 -0.1506
 6155SOL    HW120065   0.161   5.368   2.245  0.4988 -0.5444 -0.0896
 6155SOL    HW220066   0.052   5.247   2.263 -0.4588  0.2956 -0.1600
 6156SOL     OW20067   2.457   1.226   6.110  0.3308  0.0235 -0.4067
 6156SOL    HW120068   2.432   1.202   6.203 -2.1207  1.9911 -0.4685
 6156SOL    HW220069   2.391   1.187   6.046  1.7433 -0.9515 -1.3430
 6157SOL     OW20070   1.074   2.217   4.735  0.2366  0.1273 -0.1336
 6157SOL    HW120071   1.039   2.266   4.654  0.6575 -0.7957 -0.8910
 6157SOL    HW220072   1.169   2.192   4.719  1.9094  3.8412  2.4265
 6158SOL     OW20073   0.953   6.170   5.854 -0.2279  0.6648  0.0344
 6158SOL    HW120074   0.890   6.094   5.836  2.0612 -1.4844  0.4998
 6158SOL    HW220075   0.950   6.235   5.778  0.6227 -2.0205 -2.4917
 6159SOL     OW20076   5.779   0.392   6.701 -0.1409 -0.2997 -0.1185
 6159SOL    HW120077   5.808   0.411   6.607  0.4092 -2.3456 -0.4117
 6159SOL    HW220078   5.762   0.478   6.749  0.5843  0.8102 -1.7687
 6160SOL     OW20079   5.591   5.872   0.236  0.4920 -0.4148  0.0645
 6160SOL    HW120080   5.542   5.785   0.230  2.1194 -1.7057  2.9672
 6160SOL    HW220081   5.686   5.859   0.206  1.2057 -0.1466  2.0561
 6161SOL     OW20082   5.398   0.460   5.624 -0.8943  0.1380  0.0422
 6161SOL    HW120083   5.359   0.373   5.653  1.0145 -1.5638 -2.1478
 6161SOL    HW220084   5.478   0.482   5.680 -0.0273 -0.7141 -0.8381
 6162SOL     OW20085   1.792   5.065   2.621  0.3155 -0.9104  0.8747
 6162SOL    HW120086   1.830   4.980   2.585  1.3751  0.5573 -1.7217
 6162SOL    HW220087   1.693   5.063   2.613  0.4831 -0.6061 -2.5123
 6163SOL     OW20088   0.018   1.757   1.777  0.8010 -0.3855 -0.2039
 6163SOL    HW120089   0.012   1.696   1.699 -3.1108  1.1538 -1.3597
 6163SOL    HW220090   0.048   1.847   1.747  1.5203 -0.3739  0.5210
 6164SOL     OW20091   5.772   4.325   3.740  0.0175  0.3256  0.1420
 6164SOL    HW120092   5.772   4.407   3.796  3.2640  2.7467 -2.9392
 6164SOL    HW220093   5.861   4.279   3.749 -0.7018 -1.2470 -0.3727
 6165SOL     OW20094   6.426   2.659   1.733 -0.8329  0.1729 -0.1564
 6165SOL    HW120095   6.396   2.573   1.693 -0.2366  0.5509 -1.4764
 6165SOL    HW220096   6.426   2.652   1.833 -0.8564 -1.3201 -0.2478
 6166SOL     OW20097   2.717   5.082   3.397 -0.5946  0.5669  0.4975
 6166SOL    HW120098   2.766   4.996   3.388  0.1370  1.0265 -0.0039
 6166SOL    HW220099   2.622   5.064   3.424 -0.3235 -0.3604  0.8424
 6167SOL     OW20100   4.628   0.453   1.390  0.3683  0.1055  0.2876
 6167SOL    HW120101   4.570   0.501   1.455 -0.0293 -0.7406  0.5634
 6167SOL    HW220102   4.575   0.429   1.308  0.6986  0.5818 -0.0765
 6168SOL     OW20103   1.776   1.855   3.789 -0.0103 -0.1576  0.1911
 6168SOL    HW120104   1.685   1.815   3.799 -0.9503  1.2701 -1.8381
 6168SOL    HW220105   1.843   1.783   3.770 -1.3874 -0.9649 -1.9399
 6169SOL     OW20106   0.623   4.088   6.116 -0.3518  0.2877 -0.0111
 6169SOL    HW120107   0.552   4.028   6.155  0.1327 -0.4339 -0.2275
 6169SOL    HW220108   0.579   4.161   6.064 -0.9708  0.4703  0.7376
 6170SOL     OW20109   5.830   0.039   6.339  0.0365 -0.3855  0.2578
 6170SOL    HW120110   5.815   0.005   6.432 -0.4000  0.2094  0.4111
 6170SOL    HW220111   5.928   0.046   6.321  0.1219  0.1169  0.9040
 6171SOL     OW20112   2.750   6.102   5.012  0.0637 -0.2946 -0.2951
 6171SOL    HW120113   2.798   6.029   4.963 -1.3607 -1.3472 -0.2012
 6171SOL    HW220114   2.816   6.170   5.045  1.6127 -2.1758  0.6880
 6172SOL     OW20115   5.867   2.911   5.077  0.2780  0.1300  0.7608
 6172SOL    HW120116   5.838   2.818   5.057 -1.1803  0.0183  3.0755
 6172SOL    HW220117   5.821   2.974   5.015 -0.3063 -0.5260  0.5158
 6173SOL     OW20118   6.952   3.099   1.768 -0.0767 -0.2456  0.1584
 6173SOL    HW120119   6.880   3.137   1.709  0.7171 -0.9784 -1.3475
 6173SOL    HW220120   7.039   3.144   1.748  0.4517 -1.3689 -0.1528
 6174SOL     OW20121   3.147   3.988   1.959  0.0212  0.0568 -0.1102
 6174SOL    HW120122   3.048   4.006   1.961 -0.0337 -0.0186 -1.2814
 6174SOL    HW220123   3.163   3.894   1.929  0.4381 -0.1181  0.6526
 6175SOL     OW20124   2.720   1.499   2.488 -0.3159  0.2903  0.8648
 6175SOL    HW120125   2.636   1.544   2.456 -0.6976 -0.2549  1.0661
 6175SOL    HW220126   2.750   1.543   2.573  0.4783  1.4808 -0.0076
 6176SOL     OW20127   4.161   0.740   1.859  0.3694 -0.2348 -0.0228
 6176SOL    HW120128   4.220   0.788   1.794  0.1782 -1.7352 -1.3594
 6176SOL    HW220129   4.076   0.790   1.871  0.8595  0.6202 -0.0660
 6177SOL     OW20130   6.709   3.946   1.949 -0.2419  0.5050 -0.6544
 6177SOL    HW120131   6.643   3.872   1.950  0.7470 -0.4471 -2.0953
 6177SOL    HW220132   6.738   3.964   1.855  2.2689  0.1972 -0.0123
 6178SOL     OW20133   1.328   2.963   2.922  0.1362 -0.2342 -0.0375
 6178SOL    HW120134   1.375   3.034   2.974 -1.3894  0.9619 -0.2309
 6178SOL    HW220135   1.383   2.941   2.841  0.6239  0.7488  0.0015
 6179SOL     OW20136   1.008   1.958   4.440  0.3060  0.2452  0.1847
 6179SOL    HW120137   0.930   1.895   4.438 -0.7712  1.5331  0.0239
 6179SOL    HW220138   1.079   1.925   4.378 -0.6473 -0.3229 -0.6537
 6180SOL     OW20139   0.909   0.979   1.691 -0.3469  0.2383 -0.5560
 6180SOL    HW120140   0.972   0.981   1.614 -0.1661  1.6977 -0.3857
 6180SOL    HW220141   0.823   0.936   1.662  0.4602 -1.1603 -0.9654
 6181SOL     OW20142   3.614   4.420   0.060 -0.3340  0.4974  0.3392
 6181SOL    HW120143   3.609   4.328   0.097 -1.3578  0.5505  0.3685
 6181SOL    HW220144   3.710   4.446   0.046 -0.0501 -1.5637 -2.2164
 6182SOL     OW20145   3.280   6.191   5.319 -0.1595  0.2552  0.3079
 6182SOL    HW120146   3.204   6.142   5.362  1.5050 -1.6759  1.2672
 6182SOL    HW220147   3.252   6.225   5.230 -2.2359 -0.0509  0.7918
 6183SOL     OW20148   4.262   2.026   4.604  0.4230 -0.2911  0.3066
 6183SOL    HW120149   4.178   2.081   4.596 -0.3939 -1.6341 -0.8965
 6183SOL    HW220150   4.341   2.087   4.607 -0.4947  0.9851 -0.1498
 6184SOL     OW20151   5.029   4.377   1.886  0.6136  0.4955  0.4987
 6184SOL    HW120152   5.067   4.328   1.807 -0.7962 -0.2825  0.2621
 6184SOL    HW220153   5.098   4.438   1.924  1.1242  1.4722 -1.8021
 6185SOL     OW20154   5.289   6.115   2.489  0.2906  0.6067 -0.0121
 6185SOL    HW120155   5.303   6.212   2.471  0.3001  0.3643 -1.4539
 6185SOL    HW220156   5.378   6.070   2.497  0.2877  0.5745 -0.1668
 6186SOL     OW20157   2.450   6.233   1.216 -0.1666 -0.0036 -0.2205
 6186SOL    HW120158   2.387   6.275   1.282  0.1963  0.7196 -0.3237
 6186SOL    HW220159   2.445   6.134   1.225 -0.6614  0.0635  0.3923
 6187SOL     OW20160   6.549   3.869   2.606 -0.1901  0.1681 -0.2597
 6187SOL    HW120161   6.591   3.950   2.647 -1.1535  1.1283 -1.1097
 6187SOL    HW220162   6.619   3.799   2.589  0.3767  0.0832  2.1194
 6188SOL     OW20163   2.271   5.237   2.776  0.1215  0.2508 -0.5381
 6188SOL    HW120164   2.370   5.235   2.781  0.0627 -0.2774  0.7188
 6188SOL    HW220165   2.237   5.146   2.750 -0.0409  0.3876 -0.8103
 6189SOL     OW20166   1.250   1.849   4.702  0.1109  0.2484 -0.5937
 6189SOL    HW120167   1.151   1.841   4.713  0.2865 -1.0793  0.2385
 6189SOL    HW220168   1.282   1.783   4.635  0.6064 -0.4151  0.2775
 6190SOL     OW20169   5.260   4.268   2.478 -0.8536 -0.4370 -0.2023
 6190SOL    HW120170   5.267   4.253   2.379 -1.6688 -0.4788 -0.2611
 6190SOL    HW220171   5.328   4.335   2.506  0.6212 -1.7670 -0.4877
 6191SOL     OW20172   3.410   4.093   1.730 -0.6593 -0.2242  0.4968
 6191SOL    HW120173   3.480   4.157   1.699  0.4068 -0.7391  1.7336
 6191SOL    HW220174   3.352   4.137   1.799 -1.1920  0.0103 -0.0889
 6192SOL     OW20175   6.613   2.099   2.478  0.1005  0.1971  0.3396
 6192SOL    HW120176   6.689   2.035   2.490  0.7487  1.0816  1.1455
 6192SOL    HW220177   6.597   2.114   2.381  0.8921 -0.0781  0.1586
 6193SOL     OW20178   2.996   4.445   4.558 -0.0036 -0.0618 -0.5910
 6193SOL    HW120179   2.953   4.433   4.468 -0.0670  0.8731 -0.6886
 6193SOL    HW220180   2.936   4.498   4.616 -1.1527 -2.7621  0.8915
 6194SOL     OW20181   6.688   6.136   1.286  0.0357 -0.2433  0.3590
 6194SOL    HW120182   6.705   6.232   1.307  0.9124 -0.3626  0.2663
 6194SOL    HW220183   6.648   6.091   1.366 -1.4182  0.4340  0.0339
 6195SOL     OW20184   6.163   6.849   3.223 -0.1871  0.5324 -0.3512
 6195SOL    HW120185   6.254   6.889   3.217 -0.9976  2.3935 -1.0618
 6195SOL    HW220186   6.158   6.768   3.164  0.9928  0.4096 -0.3000
 6196SOL     OW20187   3.561   6.238   1.944  0.2434 -0.1271  0.2275
 6196SOL    HW120188   3.545   6.187   1.859 -1.0820  0.0621  0.3515
 6196SOL    HW220189   3.606   6.325   1.923 -2.4493  1.1478 -0.6327
 6197SOL     OW20190   2.082   5.633   1.219  0.2157 -0.0129  0.6053
 6197SOL    HW120191   2.022   5.591   1.287 -0.9859  0.0782 -0.3668
 6197SOL    HW220192   2.066   5.731   1.216 -1.3697 -0.2544 -1.2896
 6198SOL     OW20193   6.126   6.121   5.135 -0.0528  0.0510 -0.2597
 6198SOL    HW120194   6.144   6.205   5.083  2.6687  0.0159  0.4858
 6198SOL    HW220195   6.114   6.045   5.071 -0.3569  0.6137 -0.8857
 6199SOL     OW20196   1.385   1.921   6.028  0.5605  0.4515  0.3589
 6199SOL    HW120197   1.451   1.931   6.102 -0.8637  1.1824  1.5699
 6199SOL    HW220198   1.292   1.923   6.065 -0.1771 -0.0766 -1.3509
 6200SOL     OW20199   6.836   5.244   2.983 -0.9685  0.4449  0.0625
 6200SOL    HW120200   6.853   5.318   2.918  0.7627  0.0522  0.0338
 6200SOL    HW220201   6.875   5.267   3.072 -1.2054 -0.0624  0.3058
 6201SOL     OW20202   4.802   6.388   0.911  0.3923 -0.1026  0.8318
 6201SOL    HW120203   4.773   6.345   0.826  0.1690  0.7748  0.4503
 6201SOL    HW220204   4.902   6.384   0.918  0.5405  1.1832 -0.2416
 6202SOL     OW20205   5.734   2.042   5.425  0.1868  0.3380  0.2770
 6202SOL    HW120206   5.665   2.106   5.392  0.1837  0.1111 -0.1721
 6202SOL    HW220207   5.706   1.948   5.402  1.0649  0.2995 -0.7465
 6203SOL     OW20208   4.995   0.511   0.810 -0.6591 -0.1146 -0.2011
 6203SOL    HW120209   4.897   0.528   0.802 -0.9314 -1.4836 -0.0454
 6203SOL    HW220210   5.030   0.478   0.722 -0.2274  0.8065 -0.3907
 6204SOL     OW20211   0.575   1.634   6.783 -0.3356  0.3192  0.5986
 6204SOL    HW120212   0.557   1.626   6.684  1.5532  0.9041  0.1684
 6204SOL    HW220213   0.655   1.578   6.806 -0.9422 -0.0528  1.8860
 6205SOL     OW20214   6.425   5.153   1.771 -0.3037 -0.0058  0.4087
 6205SOL    HW120215   6.523   5.170   1.759  0.0627 -2.0658  0.1758
 6205SOL    HW220216   6.377   5.179   1.687  0.5321 -2.1522 -0.8009
 6206SOL     OW20217   3.070   4.207   6.788 -0.1091  0.1481  0.2859
 6206SOL    HW120218   3.065   4.277   6.718  0.3840  0.1428  0.2414
 6206SOL    HW220219   3.099   4.120   6.747 -0.7578 -0.0897  0.3319
 6207SOL     OW20220   2.252   1.550   5.052 -0.8213  0.2848  0.4855
 6207SOL    HW120221   2.321   1.618   5.078 -0.3011  0.6941 -1.7334
 6207SOL    HW220222   2.161   1.587   5.068 -0.5324  1.1378  0.2110
 6208SOL     OW20223   5.700   0.095   1.998 -0.0135  0.2917 -0.2492
 6208SOL    HW120224   5.760   0.117   2.076  0.6518 -0.9355 -0.3889
 6208SOL    HW220225   5.695   0.174   1.937 -0.3465  1.1964  0.8883
 6209SOL     OW20226   3.409   0.637   6.106 -0.3820  0.5189 -0.1095
 6209SOL    HW120227   3.334   0.578   6.136 -0.3587  0.9581  0.8207
 6209SOL    HW220228   3.485   0.580   6.073 -0.8127  0.0619 -0.3387
 6210SOL     OW20229   4.882   4.528   0.689 -0.1918  0.0041  0.1841
 6210SOL    HW120230   4.947   4.466   0.734  1.7571  0.2989 -2.0096
 6210SOL    HW220231   4.809   4.475   0.646  0.4336 -0.6379 -0.0981
 6211SOL     OW20232   2.402   3.267   1.428 -0.8915  0.1881  0.2435
 6211SOL    HW120233   2.407   3.366   1.416 -0.1398  0.8456  4.2564
 6211SOL    HW220234   2.468   3.239   1.499 -1.9454 -3.0088  0.1215
 6212SOL     OW20235   2.683   2.672   5.942 -0.1102 -0.1967 -0.2036
 6212SOL    HW120236   2.653   2.677   6.037  0.0848  1.3514 -0.2058
 6212SOL    HW220237   2.777   2.708   5.935  0.3372 -1.4130 -0.8029
 6213SOL     OW20238   1.914   2.734   0.636  0.6698  0.1357 -0.4750
 6213SOL    HW120239   1.865   2.793   0.700 -0.6348 -0.7376 -0.6209
 6213SOL    HW220240   1.973   2.789   0.578  1.2632  1.0338  0.9231
 6214SOL     OW20241   3.148   3.616   5.992  0.1142 -0.0408 -0.8081
 6214SOL    HW120242   3.214   3.545   5.968  0.2086 -0.3901  0.4434
 6214SOL    HW220243   3.173   3.701   5.945  1.2439 -0.2596 -0.6303
 6215SOL     OW20244   6.001   0.428   0.226  0.0790  0.1147  0.7457
 6215SOL    HW120245   5.936   0.464   0.292  0.0861  0.3389  0.6304
 6215SOL    HW220246   5.953   0.364   0.165  0.0420  0.0161  0.8773
 6216SOL     OW20247   2.907   6.288   5.140 -0.5009  0.1189  0.2314
 6216SOL    HW120248   2.999   6.327   5.145 -1.3330  2.0523  1.3842
 6216SOL    HW220249   2.850   6.326   5.213 -2.0240 -1.6395  0.0448
 6217SOL     OW20250   1.367   2.974   0.004  0.1297 -0.5614  0.4356
 6217SOL    HW120251   1.312   2.960  -0.079  0.3065  1.2935 -0.0583
 6217SOL    HW220252   1.423   2.893   0.021 -0.6958 -1.3996 -0.6372
 6218SOL     OW20253   2.804   0.062   3.446  0.2977 -0.1844 -0.1366
 6218SOL    HW120254   2.903   0.063   3.441  0.5364 -0.6912  2.7046
 6218SOL    HW220255   2.770  -0.030   3.426  0.7430 -0.8937  2.0923
 6219SOL     OW20256   4.084   0.015   5.560 -0.3440 -0.3528  0.6563
 6219SOL    HW120257   4.150   0.052   5.625 -0.9616  2.2987 -0.0857
 6219SOL    HW220258   4.132  -0.035   5.488  0.9247  1.5096  0.1384
 6220SOL     OW20259   5.156   4.944   2.725 -0.1108  0.1367 -0.3579
 6220SOL    HW120260   5.121   4.870   2.668 -0.4248 -0.6927  0.8658
 6220SOL    HW220261   5.081   5.005   2.750 -0.8551 -1.7211  2.3848
 6221SOL     OW20262   3.255   4.233   1.894 -0.3974 -0.2223  0.1629
 6221SOL    HW120263   3.202   4.153   1.923 -0.8716  0.3135  0.8118
 6221SOL    HW220264   3.291   4.280   1.975  2.1280 -1.2335 -0.2545
 6222SOL     OW20265   3.173   3.438   5.525 -0.0089 -0.1097  0.3303
 6222SOL    HW120266   3.272   3.432   5.538  0.3536  2.8420 -0.3415
 6222SOL    HW220267   3.133   3.491   5.600 -0.5873  1.2314 -0.8681
 6223SOL     OW20268   6.916   1.498   6.645 -0.4077  0.3937  0.0419
 6223SOL    HW120269   6.954   1.484   6.737 -1.1794 -1.7663  0.0987
 6223SOL    HW220270   6.971   1.446   6.579 -1.7121 -0.7166 -0.2204
 6224SOL     OW20271   0.124   5.864   4.783  0.6669 -0.1660  0.2517
 6224SOL    HW120272   0.101   5.918   4.864  0.8284 -0.5157  0.5371
 6224SOL    HW220273   0.078   5.775   4.789 -0.4013  0.2954 -0.6932
 6225SOL     OW20274   0.355   5.152   1.287  0.2477  0.5173 -0.3506
 6225SOL    HW120275   0.394   5.172   1.377 -1.3220  0.9232  0.2701
 6225SOL    HW220276   0.320   5.237   1.246 -1.5591 -0.0624 -0.0903
 6226SOL     OW20277   6.283   1.294   6.845 -0.0268 -0.7328 -0.6512
 6226SOL    HW120278   6.281   1.305   6.944 -2.3669 -0.0753 -0.7183
 6226SOL    HW220279   6.355   1.352   6.806 -0.7896  1.0728  0.4788
 6227SOL     OW20280   4.405   0.362   0.674 -0.8663  0.4290  0.5632
 6227SOL    HW120281   4.310   0.351   0.646 -0.9415  1.6171  0.3128
 6227SOL    HW220282   4.436   0.455   0.654  0.3209  0.0970  0.7370
 6228SOL     OW20283   1.216   6.737   4.595  0.0598 -0.1105 -0.5381
 6228SOL    HW120284   1.247   6.651   4.635 -1.2577 -1.5526 -2.4101
 6228SOL    HW220285   1.154   6.718   4.518 -1.3761  2.5187 -0.1741
 6229SOL     OW20286   3.191   3.762   5.658 -0.1193  0.0367 -0.2385
 6229SOL    HW120287   3.174   3.781   5.561  2.5629 -0.5658 -0.9162
 6229SOL    HW220288   3.279   3.801   5.685  0.0016 -1.2816  1.4885
 6230SOL     OW20289   6.758   6.718   2.055  0.0943  0.2865  0.0142
 6230SOL    HW120290   6.739   6.624   2.083  0.4469 -0.0914 -0.9710
 6230SOL    HW220291   6.854   6.727   2.030  0.5738  1.4312  2.0323
 6231SOL     OW20292   1.955   4.493   2.250  0.2866  0.1970  0.2747
 6231SOL    HW120293   1.863   4.489   2.289  1.8044 -0.1544  4.2263
 6231SOL    HW220294   2.008   4.564   2.295  1.3096  2.4155 -3.8788
 6232SOL     OW20295   3.291   6.666   3.600 -0.0809 -0.2400  0.3289
 6232SOL    HW120296   3.360   6.620   3.657  0.0339  0.2689  0.6068
 6232SOL    HW220297   3.319   6.761   3.583 -0.1450 -0.3598 -0.5248
 6233SOL     OW20298   3.009   0.445   1.573  0.2074 -0.1075  0.6081
 6233SOL    HW120299   3.036   0.404   1.486  0.7192  0.2749  0.5785
 6233SOL    HW220300   3.081   0.507   1.604  0.1257 -0.4047  1.4160
 6234SOL     OW20301   4.688   6.384   3.225  0.7003 -0.0753 -0.2692
 6234SOL    HW120302   4.756   6.364   3.295 -0.0153 -1.1022  0.1631
 6234SOL    HW220303   4.688   6.312   3.156 -0.2423 -0.3354 -0.0191
 6235SOL     OW20304   0.420   4.991   0.205 -0.5350 -0.1174  0.1814
 6235SOL    HW120305   0.465   5.042   0.278  2.4630  1.1257 -2.3217
 6235SOL    HW220306   0.443   4.894   0.213  0.9136  0.2078  0.1394
 6236SOL     OW20307   2.774   2.512   6.719  0.6490  0.3572 -0.8809
 6236SOL    HW120308   2.736   2.446   6.784 -0.3258 -0.1550 -1.9166
 6236SOL    HW220309   2.750   2.605   6.747  0.2014  0.1387 -0.5322
 6237SOL     OW20310   0.077   5.908   0.198  0.4425 -0.5458 -0.5140
 6237SOL    HW120311   0.035   5.980   0.254  0.5747 -0.1110 -0.9594
 6237SOL    HW220312   0.036   5.909   0.107  3.0122  1.5199 -1.7841
 6238SOL     OW20313   2.454   4.951   1.014 -0.2616  0.1391  0.3282
 6238SOL    HW120314   2.544   4.977   1.048 -1.2335  2.2530  1.5283
 6238SOL    HW220315   2.463   4.911   0.923  1.8756  0.2877  0.4193
 6239SOL     OW20316   2.668   3.963   0.497  0.0404  0.4481 -0.1141
 6239SOL    HW120317   2.764   3.937   0.506 -0.0910 -0.1625 -0.4284
 6239SOL    HW220318   2.612   3.881   0.489 -0.5553  0.7840  0.4573
 6240SOL     OW20319   3.259   1.090   2.455 -0.2130  0.3553  0.0457
 6240SOL    HW120320   3.224   1.151   2.527  0.6101  1.6260 -0.6054
 6240SOL    HW220321   3.353   1.114   2.433 -0.5213  0.1278 -1.6211
 6241SOL     OW20322   3.103   0.097   1.806 -0.1215 -0.3081 -0.5299
 6241SOL    HW120323   3.187   0.043   1.798 -0.3520 -0.4279 -2.7791
 6241SOL    HW220324   3.124   0.193   1.787 -0.3675 -0.2282 -0.3994
 6242SOL     OW20325   2.469   1.954   6.221  0.4546 -0.5728  0.0960
 6242SOL    HW120326   2.557   2.001   6.221 -0.7446  1.8065  0.1698
 6242SOL    HW220327   2.413   1.989   6.295 -0.7480 -1.6915 -0.2578
 6243SOL     OW20328   1.755   2.702   1.895  0.8065  0.6046 -0.1018
 6243SOL    HW120329   1.710   2.616   1.871 -1.5874  1.6573  0.3890
 6243SOL    HW220330   1.844   2.682   1.936 -0.0809 -1.7122  0.8965
 6244SOL     OW20331   1.798   1.602   1.189 -0.2927 -0.1365  0.0354
 6244SOL    HW120332   1.845   1.652   1.116 -2.1271  0.5700 -0.7260
 6244SOL    HW220333   1.735   1.535   1.149  0.7538 -1.7941  1.0373
 6245SOL     OW20334   0.389   4.596   0.716  0.0585  0.3788  0.0317
 6245SOL    HW120335   0.485   4.570   0.727  0.5159  1.0712 -1.8412
 6245SOL    HW220336   0.382   4.663   0.642 -1.9037  0.1304 -0.0435
 6246SOL     OW20337   4.004   1.339   0.946 -0.0125  0.6887  0.9243
 6246SOL    HW120338   4.065   1.261   0.933  1.8665  2.3372 -0.7269
 6246SOL    HW220339   4.029   1.413   0.882 -1.1037  3.0244  3.0294
 6247SOL     OW20340   2.529   5.901   5.359  0.1209  0.0313  0.5860
 6247SOL    HW120341   2.458   5.832   5.343  0.3148  0.6131 -4.2384
 6247SOL    HW220342   2.617   5.855   5.373 -0.2706 -0.6736  0.8060
 6248SOL     OW20343   5.025   1.522   0.948 -0.6582 -0.1392 -0.6245
 6248SOL    HW120344   5.031   1.586   0.871  0.5153  0.2455 -0.2316
 6248SOL    HW220345   5.064   1.434   0.921  0.4132  0.2093 -0.2751
 6249SOL     OW20346   5.982   2.829   4.736 -0.0354 -0.6722 -0.3443
 6249SOL    HW120347   5.949   2.739   4.764  1.1929 -1.0992 -0.2071
 6249SOL    HW220348   6.082   2.831   4.739 -0.0418  0.7448 -0.2144
 6250SOL     OW20349   3.154   0.977   1.255 -0.2370  0.2984  0.3256
 6250SOL    HW120350   3.076   0.965   1.194 -0.0484  0.6659  0.0046
 6250SOL    HW220351   3.154   0.904   1.324  0.0252 -0.6484 -0.6372
 6251SOL     OW20352   1.073   4.578   4.557  0.3660  0.0898  0.2102
 6251SOL    HW120353   1.150   4.523   4.525  1.3381  0.7375  1.3538
 6251SOL    HW220354   1.021   4.526   4.624  0.8701  0.2790  0.7614
 6252SOL     OW20355   3.646   1.975   1.940 -0.5711 -0.6700 -0.1919
 6252SOL    HW120356   3.669   2.010   1.849  1.2502 -2.1399 -0.3625
 6252SOL    HW220357   3.618   1.879   1.932 -0.9595 -0.6455  0.7440
 6253SOL     OW20358   2.215   4.950   1.504  0.0411  0.0922 -0.1457
 6253SOL    HW120359   2.280   4.876   1.519  0.6358  0.8823  1.4132
 6253SOL    HW220360   2.142   4.919   1.442  0.3469 -1.7252  0.3503
 6254SOL     OW20361   3.112   2.933   0.824  0.7253 -0.1184  0.6362
 6254SOL    HW120362   3.079   3.026   0.841  0.3022 -0.4602  1.8209
 6254SOL    HW220363   3.049   2.867   0.865 -0.9372 -1.1526 -3.2241
 6255SOL     OW20364   3.776   5.094   5.079  0.9959  0.1634  0.0593
 6255SOL    HW120365   3.745   5.000   5.059 -0.3836  0.7737 -0.8311
 6255SOL    HW220366   3.772   5.111   5.177 -2.7154  0.5555 -0.0548
 6256SOL     OW20367   0.893   4.428   5.373  0.1820  0.2692  0.2947
 6256SOL    HW120368   0.979   4.462   5.411  0.6047  0.0056 -0.4092
 6256SOL    HW220369   0.830   4.407   5.448  0.0863  2.0907  0.7775
 6257SOL     OW20370   6.522   3.910   1.123 -0.3789  0.1351 -0.2607
 6257SOL    HW120371   6.570   3.866   1.199  0.9054 -1.1115 -1.7100
 6257SOL    HW220372   6.457   3.977   1.158  0.3782 -0.1923  1.9001
 6258SOL     OW20373   3.672   0.163   6.938 -0.0206  0.2526  0.2200
 6258SOL    HW120374   3.769   0.141   6.951 -0.1289  0.2325  1.0420
 6258SOL    HW220375   3.658   0.197   6.845  0.7552  0.1533  0.0570
 6259SOL     OW20376   1.184   0.013   0.954 -0.2779 -0.5743 -0.6604
 6259SOL    HW120377   1.139   0.049   0.872  2.4674  1.3020 -1.4508
 6259SOL    HW220378   1.269  -0.032   0.928  1.0066  0.6776  1.1736
 6260SOL     OW20379   6.682   4.146   2.440 -0.0910 -0.2108 -0.0960
 6260SOL    HW120380   6.592   4.187   2.431  0.2605  0.5621 -0.2149
 6260SOL    HW220381   6.748   4.215   2.470  0.5778 -0.6180 -0.5709
 6261SOL     OW20382   5.703   3.524   5.427 -0.4259  0.2589 -0.1032
 6261SOL    HW120383   5.718   3.489   5.520 -0.8645  1.1864  0.3250
 6261SOL    HW220384   5.788   3.562   5.391 -0.6391  1.4418  0.5899
 6262SOL     OW20385   1.858   0.189   2.948 -0.0400  0.0498  0.1303
 6262SOL    HW120386   1.929   0.159   2.884 -0.3725 -1.0899  0.2641
 6262SOL    HW220387   1.820   0.276   2.917 -1.1229 -1.0924 -2.0377
 6263SOL     OW20388   4.351   3.598   6.656 -0.0416  0.3533  0.0359
 6263SOL    HW120389   4.287   3.539   6.705 -0.2817 -0.2026 -0.9255
 6263SOL    HW220390   4.337   3.589   6.557  0.4650  1.4134 -0.1526
 6264SOL     OW20391   5.822   5.267   5.230  0.4322  0.2295 -0.1089
 6264SOL    HW120392   5.772   5.212   5.297  1.9691  0.8930  1.6795
 6264SOL    HW220393   5.787   5.360   5.231  0.7096  0.3321  0.0507
 6265SOL     OW20394   0.891   6.423   3.111  0.1428 -0.0707  0.9419
 6265SOL    HW120395   0.862   6.327   3.110 -0.3729  0.0669  1.6655
 6265SOL    HW220396   0.921   6.449   3.019 -0.5159 -0.6808  0.5340
 6266SOL     OW20397   4.460   6.111   6.370 -0.3723  0.2519 -0.1672
 6266SOL    HW120398   4.523   6.045   6.330 -0.4513  0.5154 -0.7515
 6266SOL    HW220399   4.383   6.063   6.412 -0.9359 -0.0111 -1.4611
 6267SOL     OW20400   3.830   6.253   6.712  0.1506 -0.3500  0.3469
 6267SOL    HW120401   3.895   6.217   6.645  1.1661  2.0693 -0.0814
 6267SOL    HW220402   3.862   6.232   6.805  0.6894 -0.5730  0.1124
 6268SOL     OW20403   3.126   0.085   0.705  0.4667  0.1214 -0.5232
 6268SOL    HW120404   3.051   0.021   0.721  0.2097  0.1720 -1.4514
 6268SOL    HW220405   3.158   0.121   0.792  0.8746 -1.5463  0.0609
 6269SOL     OW20406   2.747   0.302   6.789 -0.6761 -0.3784 -0.1666
 6269SOL    HW120407   2.813   0.293   6.864 -0.8380  0.4701  0.0970
 6269SOL    HW220408   2.772   0.381   6.733 -1.1526 -0.3848 -0.3906
 6270SOL     OW20409   6.900   3.589   4.995 -0.0053 -0.1236  0.2063
 6270SOL    HW120410   6.861   3.677   5.020 -0.1002 -0.6497  2.0058
 6270SOL    HW220411   6.994   3.602   4.963 -0.2610  0.6962 -0.2344
 6271SOL     OW20412   6.543   0.772   0.949 -0.3973  0.0634 -0.0512
 6271SOL    HW120413   6.520   0.848   0.889 -0.1596  0.7094  0.6580
 6271SOL    HW220414   6.641   0.772   0.968  0.0994 -2.0147 -2.1623
 6272SOL     OW20415   5.239   1.105   0.098  0.0299 -0.0357 -0.2930
 6272SOL    HW120416   5.299   1.162   0.154  1.2675 -1.6549  0.1144
 6272SOL    HW220417   5.149   1.147   0.093  0.4314  1.1290  1.3176
 6273SOL     OW20418   5.380   4.537   2.377  0.0973  0.3609 -0.9986
 6273SOL    HW120419   5.407   4.452   2.332  0.5369  0.1542 -0.3688
 6273SOL    HW220420   5.354   4.605   2.309 -1.0607 -0.5378 -1.4830
 6274SOL     OW20421   0.569   5.835   0.282  0.2545  0.1412 -0.1380
 6274SOL    HW120422   0.540   5.770   0.211 -0.8697  2.8157 -2.3524
 6274SOL    HW220423   0.489   5.863   0.335 -0.4252  3.1821 -2.4409
 6275SOL     OW20424   3.091   2.694   1.986 -0.8506  0.2616  0.2996
 6275SOL    HW120425   3.078   2.790   2.011  0.8846  0.4362  0.7094
 6275SOL    HW220426   3.014   2.663   1.931 -1.1976  2.0619 -0.3182
 6276SOL     OW20427   1.208   1.426   6.125  0.2235  0.0281 -0.3153
 6276SOL    HW120428   1.229   1.438   6.028  0.5176 -0.2638 -0.2907
 6276SOL    HW220429   1.222   1.513   6.173 -2.9593  1.0599 -1.0505
 6277SOL     OW20430   3.741   5.049   0.216  0.2221 -0.1444 -0.3034
 6277SOL    HW120431   3.799   5.091   0.146  0.6507 -0.2888 -0.0377
 6277SOL    HW220432   3.648   5.086   0.210  0.2107 -0.2860 -1.0639
 6278SOL     OW20433   6.821   6.337   0.763 -0.5692 -0.1311  0.0782
 6278SOL    HW120434   6.860   6.248   0.740  3.6189  0.7473  2.6017
 6278SOL    HW220435   6.761   6.327   0.842  1.8316 -0.6030  1.9769
 6279SOL     OW20436   5.616   4.157   3.441 -0.4921  0.0451  0.0421
 6279SOL    HW120437   5.617   4.250   3.477  2.3164  0.1831 -0.1805
 6279SOL    HW220438   5.527   4.115   3.461 -0.8041  1.7387  2.8267
 6280SOL     OW20439   1.893   2.491   1.554 -0.2808 -0.0477  0.7587
 6280SOL    HW120440   1.803   2.449   1.547 -0.4956  0.5071  0.0446
 6280SOL    HW220441   1.956   2.445   1.490 -0.5008  0.6505  0.0211
 6281SOL     OW20442   4.764   3.483   2.814  0.2051 -0.2928  0.0515
 6281SOL    HW120443   4.749   3.519   2.721 -1.7454 -1.5563 -0.1847
 6281SOL    HW220444   4.781   3.559   2.876 -1.0545  0.8220 -0.8989
 6282SOL     OW20445   6.692   1.124   0.487  0.6358 -0.5846  0.0104
 6282SOL    HW120446   6.776   1.154   0.441 -0.6168  0.0670 -1.9429
 6282SOL    HW220447   6.647   1.054   0.431 -0.2527 -0.7670  0.9265
 6283SOL     OW20448   6.531   5.393   3.993  0.0754  0.2332  0.0592
 6283SOL    HW120449   6.544   5.408   3.895 -1.3676  0.0097 -0.1897
 6283SOL    HW220450   6.613   5.422   4.042  0.8671  0.2535 -1.2131
 6284SOL     OW20451   6.728   1.523   6.450 -0.5306  0.2443  0.6561
 6284SOL    HW120452   6.768   1.555   6.364 -0.0487  0.0122  0.7938
 6284SOL    HW220453   6.799   1.514   6.519 -0.7392 -0.6242  0.7708
 6285SOL     OW20454   4.479   5.237   3.333 -0.4526  0.0259  0.0886
 6285SOL    HW120455   4.408   5.197   3.275 -1.6087  1.0628  0.7646
 6285SOL    HW220456   4.437   5.293   3.404  0.9643 -0.6187  1.5004
 6286SOL     OW20457   1.386   3.348   2.845 -0.3108 -0.5661  0.2513
 6286SOL    HW120458   1.399   3.352   2.746  1.9836 -1.4012  0.4661
 6286SOL    HW220459   1.364   3.440   2.879 -0.0979 -0.0748 -0.8880
 6287SOL     OW20460   1.114   0.822   5.394  0.3235  0.1626 -0.6226
 6287SOL    HW120461   1.205   0.829   5.353  0.5363  0.6458 -0.0908
 6287SOL    HW220462   1.044   0.837   5.324  0.6478 -0.1982 -1.0325
 6288SOL     OW20463   4.294   1.896   5.100  0.0592 -0.2836  0.2561
 6288SOL    HW120464   4.222   1.837   5.063 -0.4788  0.3008  0.3381
 6288SOL    HW220465   4.330   1.954   5.028 -0.0317 -0.1002  0.3570
 6289SOL     OW20466   3.236   1.732   6.621 -0.1009 -0.1736 -0.0695
 6289SOL    HW120467   3.143   1.752   6.653  0.3683  0.2446  1.0597
 6289SOL    HW220468   3.233   1.714   6.522 -1.2250  0.9070 -0.2639
 6290SOL     OW20469   0.759   3.912   2.824  0.2586 -0.3058 -0.3367
 6290SOL    HW120470   0.812   3.960   2.894 -2.3577  1.3815  0.6461
 6290SOL    HW220471   0.804   3.921   2.736  1.3272  1.5584  0.3437
 6291SOL     OW20472   5.772   0.380   1.626  0.1636 -0.8089 -0.7941
 6291SOL    HW120473   5.806   0.318   1.555  0.1397 -0.2167 -1.3348
 6291SOL    HW220474   5.775   0.474   1.592  0.4719 -0.4771  0.1188
 6292SOL     OW20475   6.772   1.909   5.214  0.2226 -0.5707  1.0159
 6292SOL    HW120476   6.681   1.949   5.202 -0.2698 -0.6775  3.6564
 6292SOL    HW220477   6.832   1.975   5.258  1.1565 -0.8306  0.1670
 6293SOL     OW20478   4.519   4.601   6.225  0.1220 -0.2218 -0.0891
 6293SOL    HW120479   4.493   4.521   6.281 -2.1598  0.6161  0.1661
 6293SOL    HW220480   4.528   4.681   6.284 -1.9497  0.5998 -0.8040
 6294SOL     OW20481   5.013   0.686   5.575 -0.1734  0.2107 -0.3647
 6294SOL    HW120482   4.993   0.595   5.611  1.2477  0.9826  2.8145
 6294SOL    HW220483   5.097   0.683   5.520  0.1080 -0.3707  0.0788
 6295SOL     OW20484   1.994   1.323   3.883  0.2256 -0.5895  0.3272
 6295SOL    HW120485   2.014   1.366   3.971  1.5246 -1.2041  0.3588
 6295SOL    HW220486   1.897   1.301   3.878  0.2905 -1.3975  2.0102
 6296SOL     OW20487   0.012   0.054   2.936  0.3219  0.5466 -0.0951
 6296SOL    HW120488  -0.066   0.014   2.887  1.8133 -0.6724 -1.5753
 6296SOL    HW220489   0.020   0.012   3.026 -1.0582  1.1283  0.3336
 6297SOL     OW20490   2.273   5.153   2.441  0.3931 -0.0451 -0.2517
 6297SOL    HW120491   2.306   5.120   2.353  1.4319  1.4837 -0.4732
 6297SOL    HW220492   2.336   5.222   2.477 -0.9844  0.7230  0.7966
 6298SOL     OW20493   0.317   0.963   3.537 -0.1637 -0.1175 -0.4830
 6298SOL    HW120494   0.283   0.985   3.446  3.1339  3.0698 -1.1840
 6298SOL    HW220495   0.411   0.929   3.531  0.2405  0.4380  1.7146
 6299SOL     OW20496   2.600   4.242   1.104  0.1102  0.2087 -0.3492
 6299SOL    HW120497   2.539   4.314   1.073  0.1704  0.1203 -0.6708
 6299SOL    HW220498   2.576   4.155   1.061  1.8542  0.5915 -2.2759
 6300SOL     OW20499   4.137   4.702   5.310 -0.0071 -0.0765 -0.3705
 6300SOL    HW120500   4.158   4.796   5.283 -0.6221  0.2759  0.3397
 6300SOL    HW220501   4.152   4.640   5.233  1.1412  0.4971 -0.6286
 6301SOL     OW20502   0.656   3.854   6.977  0.3516  0.1930 -0.1145
 6301SOL    HW120503   0.723   3.783   7.000  0.4815  0.4838  0.4086
 6301SOL    HW220504   0.666   3.932   7.039 -0.0824  0.4887 -0.4057
 6302SOL     OW20505   1.053   2.885   4.964  0.0627 -0.3995 -0.4438
 6302SOL    HW120506   1.121   2.838   5.019  0.2718 -0.4788 -0.7700
 6302SOL    HW220507   1.098   2.943   4.897 -0.0854  3.5604  2.5729
 6303SOL     OW20508   4.484   3.838   1.699 -0.0364  0.6280 -0.2268
 6303SOL    HW120509   4.524   3.924   1.667 -0.5928  0.8758 -0.2837
 6303SOL    HW220510   4.511   3.821   1.793  1.4958 -0.0271 -0.7612
 6304SOL     OW20511   5.419   0.313   5.404 -0.0619  0.4407 -0.5151
 6304SOL    HW120512   5.399   0.372   5.483 -0.0473 -0.7804  0.4361
 6304SOL    HW220513   5.518   0.306   5.392 -0.0650  1.4193 -1.2912
 6305SOL     OW20514   4.995   0.232   3.125 -0.1843  0.0290  0.1517
 6305SOL    HW120515   4.973   0.190   3.037 -1.3100  0.7176  0.0952
 6305SOL    HW220516   4.971   0.168   3.198  2.0227 -1.1160 -0.0340
 6306SOL     OW20517   0.708   0.704   0.201  0.4941 -0.0867 -0.6131
 6306SOL    HW120518   0.684   0.689   0.105  0.1617 -2.4583 -0.2248
 6306SOL    HW220519   0.805   0.686   0.215  0.7425  1.1620 -0.6500
 6307SOL     OW20520   6.225   6.440   6.300 -0.0559  0.1594  0.0908
 6307SOL    HW120521   6.141   6.396   6.331 -1.1567  1.8024 -0.4166
 6307SOL    HW220522   6.255   6.399   6.214 -0.2918 -0.4669  0.3031
 6308SOL     OW20523   2.230   0.257   1.705  0.0859  0.7540  0.0301
 6308SOL    HW120524   2.190   0.345   1.733 -0.8212  0.8219 -1.4092
 6308SOL    HW220525   2.195   0.231   1.616  0.4752 -1.0174  0.3574
 6309SOL     OW20526   4.149   6.304   1.945  0.6223  0.0463  0.3100
 6309SOL    HW120527   4.095   6.308   1.861  0.0145 -2.0174  0.5564
 6309SOL    HW220528   4.241   6.340   1.928  0.0533  1.0161 -0.8300
 6310SOL     OW20529   6.664   2.830   4.110 -0.1221 -0.0857 -0.4852
 6310SOL    HW120530   6.573   2.849   4.072 -0.6011  0.4423  0.8564
 6310SOL    HW220531   6.687   2.901   4.176  0.1881 -1.5326  1.0219
 6311SOL     OW20532   3.427   5.042   0.238 -0.3207 -0.0289 -0.9959
 6311SOL    HW120533   3.347   5.087   0.198 -1.1422 -0.9357 -0.4412
 6311SOL    HW220534   3.397   4.962   0.290  0.8431  0.2343  0.1469
 6312SOL     OW20535   6.934   5.987   2.251  0.3349  0.0223  0.3754
 6312SOL    HW120536   6.898   5.896   2.274 -1.1167  0.9274  1.8819
 6312SOL    HW220537   7.030   5.993   2.281  0.0237 -0.5712  1.5642
 6313SOL     OW20538   0.779   5.304   4.240  0.2302  0.1502  0.2757
 6313SOL    HW120539   0.766   5.389   4.190  1.5181 -1.0683 -2.3531
 6313SOL    HW220540   0.866   5.307   4.289  1.1709 -0.2051 -1.2740
 6314SOL     OW20541   3.502   1.291   2.531 -0.0986 -0.0202  0.0172
 6314SOL    HW120542   3.540   1.216   2.585  0.2136  0.2045  0.1073
 6314SOL    HW220543   3.541   1.289   2.439 -0.1805 -0.0392 -0.0175
 6315SOL     OW20544   5.643   6.564   4.731 -0.0687  0.3107  0.0660
 6315SOL    HW120545   5.656   6.621   4.650 -0.6159  0.7575  0.2833
 6315SOL    HW220546   5.716   6.583   4.797 -0.4798  1.0826  0.3121
 6316SOL     OW20547   3.433   2.778   5.152  0.4484  0.1611  0.1480
 6316SOL    HW120548   3.377   2.824   5.221 -0.3978 -0.9190  0.2129
 6316SOL    HW220549   3.480   2.846   5.097 -0.8495  1.1131  0.1710
 6317SOL     OW20550   4.803   1.081   4.917 -0.6476 -0.7872 -0.4333
 6317SOL    HW120551   4.893   1.103   4.880 -1.5798  2.1512 -1.2443
 6317SOL    HW220552   4.794   1.119   5.009 -1.1259 -0.8662 -0.4459
 6318SOL     OW20553   2.388   6.908   6.833 -0.2166 -0.7414 -0.0234
 6318SOL    HW120554   2.340   6.823   6.817 -0.8763 -0.1479 -1.3010
 6318SOL    HW220555   2.361   6.946   6.922  0.4534 -2.0727  0.7787
 6319SOL     OW20556   0.921   2.039   4.841  0.0860 -0.2339  0.0921
 6319SOL    HW120557   0.948   1.951   4.800 -1.0809  0.1498 -1.6169
 6319SOL    HW220558   0.977   2.112   4.801  0.3780 -0.0767  0.7784
 6320SOL     OW20559   0.995   1.195   2.123 -0.8257 -0.9231 -0.0727
 6320SOL    HW120560   1.058   1.216   2.048  0.1873 -0.9969  0.7433
 6320SOL    HW220561   0.906   1.170   2.085 -1.4121  2.3436 -1.1866
 6321SOL     OW20562   2.800   3.188   6.092  0.4002  0.2353 -0.0352
 6321SOL    HW120563   2.704   3.188   6.063  0.2382 -0.7425  0.4461
 6321SOL    HW220564   2.855   3.240   6.026 -0.7204  2.4717  0.6889
 6322SOL     OW20565   0.172   0.030   3.899  0.0700 -0.4509 -0.2496
 6322SOL    HW120566   0.233  -0.003   3.972 -0.1568 -2.2231 -0.8284
 6322SOL    HW220567   0.224   0.039   3.814  0.0377  0.3828 -0.1944
 6323SOL     OW20568   2.014   5.436   4.018 -0.2461 -0.1952 -0.1731
 6323SOL    HW120569   2.005   5.535   4.022 -0.2886 -0.1935 -0.2935
 6323SOL    HW220570   2.089   5.407   4.078  1.3897  0.1602 -1.9203
 6324SOL     OW20571   1.460   0.823   3.625  0.3007 -0.1896 -0.5136
 6324SOL    HW120572   1.496   0.788   3.538  0.2168 -0.3731 -0.4742
 6324SOL    HW220573   1.510   0.905   3.650  0.2543 -0.0735 -0.7913
 6325SOL     OW20574   1.168   1.673   4.026  0.4547 -0.3293 -0.2624
 6325SOL    HW120575   1.213   1.584   4.038  0.7122 -0.2045 -0.2914
 6325SOL    HW220576   1.230   1.735   3.979 -0.4257 -0.7266 -2.0293
 6326SOL     OW20577   4.305   1.021   6.593  0.4033 -0.0824 -0.1937
 6326SOL    HW120578   4.263   0.972   6.517 -1.6517  0.4343  0.5184
 6326SOL    HW220579   4.233   1.052   6.656  1.9256  0.6405  1.2777
 6327SOL     OW20580   1.558   1.685   0.033  0.2406  0.1116 -0.6002
 6327SOL    HW120581   1.582   1.691   0.130  2.9823  0.7037 -1.2379
 6327SOL    HW220582   1.544   1.777  -0.003 -0.7536 -0.1089 -0.8090
 6328SOL     OW20583   3.429   6.777   6.126 -0.1383  0.3193  0.4055
 6328SOL    HW120584   3.342   6.825   6.119  0.8218  1.9594 -1.2764
 6328SOL    HW220585   3.457   6.744   6.036  2.4379  2.7057  0.1583
 6329SOL     OW20586   6.050   6.053   3.186  0.3541 -1.2304 -0.7684
 6329SOL    HW120587   6.070   6.063   3.283 -0.0022 -0.8116 -0.7342
 6329SOL    HW220588   5.960   6.010   3.175  0.0705 -0.6129 -0.9051
 6330SOL     OW20589   1.822   3.113   5.293  1.0624 -0.3057 -0.0880
 6330SOL    HW120590   1.746   3.100   5.230  1.5207 -0.7489 -0.5637
 6330SOL    HW220591   1.885   3.035   5.286  0.6178 -0.8567  1.6366
 6331SOL     OW20592   1.746   2.941   0.727  0.2330 -0.1653 -0.0550
 6331SOL    HW120593   1.654   2.904   0.740 -0.2881  0.8164 -0.8457
 6331SOL    HW220594   1.741   3.025   0.673  1.5331  0.2459  0.4264
 6332SOL     OW20595   0.426   2.651   5.157  0.3674 -0.0325  0.3162
 6332SOL    HW120596   0.479   2.671   5.240 -0.5570  4.4090  0.0696
 6332SOL    HW220597   0.474   2.687   5.077 -0.5775 -0.7380 -0.5917
 6333SOL     OW20598   3.376   2.091   3.828  0.0400  0.4733 -0.0960
 6333SOL    HW120599   3.323   2.171   3.858  0.6689  1.1669 -0.7824
 6333SOL    HW220600   3.407   2.105   3.734 -0.1259 -0.7390 -0.3440
 6334SOL     OW20601   3.785   2.087   5.993 -0.1984 -0.0804  0.4833
 6334SOL    HW120602   3.863   2.079   6.055  0.4256  1.7005  0.0156
 6334SOL    HW220603   3.749   1.997   5.971  1.4545 -0.9087  1.0597
 6335SOL     OW20604   3.948   0.121   5.834 -0.0778 -0.2595 -0.0860
 6335SOL    HW120605   3.904   0.056   5.772  1.4730 -0.7946 -0.6838
 6335SOL    HW220606   3.913   0.213   5.816  0.4406 -0.3699 -1.9139
 6336SOL     OW20607   2.494   6.801   5.205  0.4391 -0.0641  0.5270
 6336SOL    HW120608   2.497   6.798   5.105  0.8547 -1.0225  0.5674
 6336SOL    HW220609   2.521   6.892   5.236 -1.7236  0.9348 -0.2988
 6337SOL     OW20610   3.129   2.096   3.493  0.2637 -0.5066 -0.5343
 6337SOL    HW120611   3.092   2.080   3.585 -2.1585  0.5606 -1.2310
 6337SOL    HW220612   3.226   2.119   3.499 -0.0033  0.2558  1.8080
 6338SOL     OW20613   0.331   0.837   0.746  0.4612 -0.3809 -0.5663
 6338SOL    HW120614   0.236   0.814   0.770  0.1759  1.2903  0.0808
 6338SOL    HW220615   0.332   0.914   0.682  1.3758 -1.2894 -1.6836
 6339SOL     OW20616   3.460   6.439   0.969 -0.5131  0.4851  0.2822
 6339SOL    HW120617   3.522   6.426   1.046 -1.4153 -0.5031  0.8590
 6339SOL    HW220618   3.402   6.519   0.986 -0.4717  0.4762  0.4655
 6340SOL     OW20619   4.992   2.667   6.296  0.1871 -0.3701 -0.3243
 6340SOL    HW120620   4.960   2.627   6.210 -0.6969 -0.4761  0.0471
 6340SOL    HW220621   5.092   2.672   6.295  0.1594  1.1115 -2.0359
 6341SOL     OW20622   2.363   2.001   3.153 -0.3531  0.6460  0.2948
 6341SOL    HW120623   2.288   2.065   3.140 -1.7155 -1.1763 -1.3766
 6341SOL    HW220624   2.414   2.026   3.236 -3.0899  1.6703  1.8107
 6342SOL     OW20625   1.895   6.319   0.763 -0.2844 -0.7409  0.1141
 6342SOL    HW120626   1.802   6.282   0.757 -0.7035  0.2244  0.3764
 6342SOL    HW220627   1.898   6.408   0.716  0.0880 -0.0092  1.4792
 6343SOL     OW20628   2.126   1.687   3.978 -0.0461 -0.2128  0.0905
 6343SOL    HW120629   2.077   1.635   4.047 -0.8259 -0.1135 -0.3796
 6343SOL    HW220630   2.225   1.672   3.988 -0.2667 -2.2140 -0.3851
 6344SOL     OW20631   0.350   0.960   2.564 -0.0523 -0.7116 -0.0289
 6344SOL    HW120632   0.284   1.033   2.548  1.6198  1.2334  1.4433
 6344SOL    HW220633   0.443   0.997   2.556  0.8592 -2.3102  2.1901
 6345SOL     OW20634   4.061   6.285   0.872  0.4366  0.4570  0.1365
 6345SOL    HW120635   4.137   6.328   0.921  0.1292  1.2338 -0.0471
 6345SOL    HW220636   4.076   6.186   0.867  0.9252  0.4817  0.9815
 6346SOL     OW20637   1.039   2.401   4.944  0.3691 -0.4727  1.1253
 6346SOL    HW120638   1.112   2.469   4.945  0.6871 -0.8100  1.1062
 6346SOL    HW220639   1.060   2.331   4.876 -1.1544  0.7008 -0.6264
 6347SOL     OW20640   1.010   3.293   3.360 -0.0469 -0.0917 -0.2165
 6347SOL    HW120641   1.017   3.193   3.359  0.0708 -0.0910  0.3468
 6347SOL    HW220642   1.089   3.332   3.312 -0.5967 -0.2855 -1.3084
 6348SOL     OW20643   6.566   5.093   4.451  0.6399 -0.2164 -0.6086
 6348SOL    HW120644   6.576   5.040   4.535 -1.2638  1.1563  0.5569
 6348SOL    HW220645   6.642   5.159   4.445  1.4999 -1.1890 -0.6607
 6349SOL     OW20646   5.950   1.141   6.727 -0.1341 -0.5048 -0.1995
 6349SOL    HW120647   5.859   1.167   6.696  0.5008  0.4622 -1.3248
 6349SOL    HW220648   6.019   1.172   6.661  1.2500  1.2949  1.9137
 6350SOL     OW20649   1.649   1.883   5.602 -0.4954  0.3905 -0.1750
 6350SOL    HW120650   1.707   1.889   5.683 -1.0935  0.8581  0.2271
 6350SOL    HW220651   1.651   1.970   5.552 -0.1388  0.1086 -0.6595
 6351SOL     OW20652   0.607   1.131   0.697  0.0046 -0.0391 -0.0354
 6351SOL    HW120653   0.558   1.047   0.720 -1.1133  0.4191 -0.6849
 6351SOL    HW220654   0.576   1.165   0.608 -0.0834  1.4511  0.5316
 6352SOL     OW20655   5.570   6.594   0.279 -0.4295  0.0521  0.1283
 6352SOL    HW120656   5.663   6.603   0.314 -0.6263  2.3962  0.2545
 6352SOL    HW220657   5.533   6.505   0.302  2.3939 -1.6877 -1.5201
 6353SOL     OW20658   4.885   4.813   6.371  0.0385 -0.4407 -0.3283
 6353SOL    HW120659   4.889   4.783   6.275  1.2743  1.3191 -0.8842
 6353SOL    HW220660   4.975   4.802   6.413 -0.2332 -0.2416  0.3148
 6354SOL     OW20661   2.773   6.588   4.284  0.2678 -0.7269  0.3601
 6354SOL    HW120662   2.711   6.664   4.304 -0.2619 -1.0469 -0.0575
 6354SOL    HW220663   2.864   6.624   4.261 -0.3813 -0.1320 -1.3967
 6355SOL     OW20664   3.818   1.330   4.590  0.0780 -0.0748 -0.1090
 6355SOL    HW120665   3.864   1.342   4.678  1.3539  2.0264 -0.9747
 6355SOL    HW220666   3.720   1.317   4.605  0.5950 -2.7307  1.6975
 6356SOL     OW20667   1.652   2.430   1.479  0.0692 -0.3199 -0.2065
 6356SOL    HW120668   1.558   2.452   1.503 -0.3656 -1.8974 -0.3449
 6356SOL    HW220669   1.653   2.354   1.415  1.4561 -0.8919  0.4419
 6357SOL     OW20670   4.045   1.029   2.687 -0.1576  0.3149 -0.9965
 6357SOL    HW120671   4.123   0.971   2.710  1.4228  2.8439  0.5206
 6357SOL    HW220672   3.961   0.989   2.724  0.6553 -1.5569 -1.0645
 6358SOL     OW20673   1.507   2.452   2.068  0.2624 -0.1018 -0.3038
 6358SOL    HW120674   1.563   2.487   1.993  0.4314 -1.1714 -0.6920
 6358SOL    HW220675   1.413   2.442   2.038 -0.0236  1.0564  0.1481
 6359SOL     OW20676   6.382   2.224   5.690  0.2709  0.7054 -0.3064
 6359SOL    HW120677   6.471   2.184   5.667 -0.7142 -0.9232 -1.4813
 6359SOL    HW220678   6.387   2.324   5.679  1.8630  0.6302 -0.5977
 6360SOL     OW20679   0.889   6.858   3.566 -0.4533  0.6643 -0.3359
 6360SOL    HW120680   0.885   6.875   3.664 -1.2296 -0.8213 -0.0679
 6360SOL    HW220681   0.983   6.867   3.534  0.1061 -0.5021  0.8992
 6361SOL     OW20682   1.491   4.046   0.288 -0.2914  0.1758  0.2173
 6361SOL    HW120683   1.468   4.099   0.205  2.5651  0.7486 -0.3100
 6361SOL    HW220684   1.568   3.985   0.268  1.7025  1.6424  2.8396
 6362SOL     OW20685   1.746   0.726   1.315 -0.5074 -0.0853  0.3620
 6362SOL    HW120686   1.752   0.822   1.343 -2.1828  0.3101 -0.5182
 6362SOL    HW220687   1.657   0.689   1.342 -1.3388 -0.3134 -2.3394
 6363SOL     OW20688   2.197   6.023   5.788  0.5456 -0.5535  0.2438
 6363SOL    HW120689   2.117   6.082   5.782  0.5233 -0.5041  1.0181
 6363SOL    HW220690   2.168   5.927   5.780  0.4579 -0.5184  0.1289
 6364SOL     OW20691   4.094   4.337   0.320 -0.3181 -0.2078 -0.3146
 6364SOL    HW120692   4.065   4.254   0.369  0.0553 -0.1318  0.0432
 6364SOL    HW220693   4.122   4.406   0.387 -0.9981  0.3546 -0.5931
 6365SOL     OW20694   3.954   3.695   0.468  0.2037 -0.3823  0.7220
 6365SOL    HW120695   3.989   3.714   0.377 -0.3231 -0.1798  0.5602
 6365SOL    HW220696   3.949   3.780   0.521 -1.4224 -0.1594  0.2549
 6366SOL     OW20697   2.347   5.250   6.971  0.5087  0.2664  0.1937
 6366SOL    HW120698   2.442   5.220   6.986  0.8452  0.7379 -0.9272
 6366SOL    HW220699   2.344   5.349   6.964  0.2414  0.1517 -1.7541
 6367SOL     OW20700   2.195   4.761   5.814  0.5035 -0.0502 -0.1386
 6367SOL    HW120701   2.146   4.842   5.781  0.5690 -0.4280 -1.1955
 6367SOL    HW220702   2.293   4.774   5.800  0.3860 -1.6251 -3.5893
 6368SOL     OW20703   3.883   1.806   1.651  0.2117 -0.2883  0.2390
 6368SOL    HW120704   3.865   1.819   1.554 -0.3543 -0.4385  0.3233
 6368SOL    HW220705   3.974   1.843   1.673 -0.2356  1.0642 -0.0649
 6369SOL     OW20706   0.375   5.536   0.644 -0.5365  0.0519 -0.0941
 6369SOL    HW120707   0.450   5.552   0.580 -1.2221  0.5108 -0.8028
 6369SOL    HW220708   0.337   5.624   0.672  0.5122 -0.0648  1.9056
 6370SOL     OW20709   0.445   4.983   1.122  0.4992  0.5689  0.3958
 6370SOL    HW120710   0.409   5.042   1.194  1.4047  0.2964  1.1029
 6370SOL    HW220711   0.455   4.890   1.157 -1.5673 -0.2097 -0.9161
 6371SOL     OW20712   5.121   1.977   4.658  0.1303 -0.3359  0.6390
 6371SOL    HW120713   5.021   1.979   4.655  0.1271 -1.0393 -0.0241
 6371SOL    HW220714   5.152   1.883   4.674  0.7131 -0.5044 -1.2669
 6372SOL     OW20715   1.234   4.796   4.211  0.6100 -0.1439 -0.5656
 6372SOL    HW120716   1.163   4.772   4.144 -0.0955 -0.1346  0.1659
 6372SOL    HW220717   1.289   4.715   4.230  0.9047 -0.1117 -1.2619
 6373SOL     OW20718   5.981   3.636   5.417 -0.2025  0.0302  0.8417
 6373SOL    HW120719   6.055   3.612   5.479  0.7647 -1.1636 -0.6988
 6373SOL    HW220720   6.018   3.652   5.325 -1.8786 -0.9770 -0.0637
 6374SOL     OW20721   6.171   3.271   2.318  0.0555  0.0680 -0.5494
 6374SOL    HW120722   6.159   3.172   2.326  0.9368  0.0037  0.1604
 6374SOL    HW220723   6.100   3.317   2.371  1.0662 -0.2435  1.1527
 6375SOL     OW20724   6.273   5.396   4.038  0.0465 -0.2451 -0.4613
 6375SOL    HW120725   6.373   5.404   4.029  0.0909  0.2446  0.4091
 6375SOL    HW220726   6.230   5.482   4.010 -0.1721 -0.6263 -1.3235
 6376SOL     OW20727   3.769   1.753   6.098 -0.2702 -0.2517  0.2036
 6376SOL    HW120728   3.679   1.758   6.141 -0.3303  0.8321 -0.0143
 6376SOL    HW220729   3.762   1.779   6.002  0.1758 -0.7667  0.0255
 6377SOL     OW20730   4.103   3.920   3.435 -0.3484 -0.1571 -0.3321
 6377SOL    HW120731   4.127   3.824   3.453  0.5983 -0.0518 -0.9554
 6377SOL    HW220732   4.019   3.923   3.381 -0.8082 -0.6040  0.3452
 6378SOL     OW20733   0.538   2.122   4.336 -0.1837 -0.8964  0.0614
 6378SOL    HW120734   0.582   2.165   4.257 -0.1073 -1.3988 -0.1746
 6378SOL    HW220735   0.580   2.157   4.420 -1.1067  0.5740 -0.0629
 6379SOL     OW20736   5.725   5.368   6.315  0.3909  0.9838 -0.2026
 6379SOL    HW120737   5.782   5.341   6.237 -1.2376 -1.2395 -0.7235
 6379SOL    HW220738   5.632   5.384   6.284 -0.4283 -0.5181  1.3552
 6380SOL     OW20739   5.670   0.221   4.886 -0.0980  0.0160 -0.2094
 6380SOL    HW120740   5.725   0.138   4.875 -1.3064 -1.1562  1.9829
 6380SOL    HW220741   5.675   0.253   4.980  0.2133  2.4072 -0.9649
 6381SOL     OW20742   5.410   0.236   0.052 -0.3526 -0.1028 -0.0597
 6381SOL    HW120743   5.452   0.319   0.089 -0.1965 -0.6886  1.1213
 6381SOL    HW220744   5.470   0.197  -0.018  0.3947 -0.1374  0.5833
 6382SOL     OW20745   5.817   4.161   3.259  0.2500  0.3631 -0.1346
 6382SOL    HW120746   5.803   4.131   3.164 -0.5176  4.0409 -1.3466
 6382SOL    HW220747   5.731   4.157   3.308  0.1752  0.4192 -0.2589
 6383SOL     OW20748   1.755   3.482   5.123 -0.7965 -0.6085  0.6907
 6383SOL    HW120749   1.799   3.459   5.037  0.1086  0.0170  0.9682
 6383SOL    HW220750   1.722   3.577   5.119  1.1246  0.1687  1.7261
 6384SOL     OW20751   5.692   1.430   0.428  0.2988 -0.1605 -0.4063
 6384SOL    HW120752   5.689   1.379   0.342  1.3540 -0.4724 -0.2807
 6384SOL    HW220753   5.763   1.500   0.423 -1.4290  1.6491 -0.7333
 6385SOL     OW20754   5.781   4.383   4.966 -0.1529 -0.3889 -0.1555
 6385SOL    HW120755   5.702   4.443   4.977 -0.6410 -1.2639  1.2748
 6385SOL    HW220756   5.763   4.317   4.893 -0.1920  0.2382 -0.7331
 6386SOL     OW20757   2.780   2.391   0.509 -0.3566 -1.0443  0.3982
 6386SOL    HW120758   2.774   2.426   0.603 -0.2886  0.2450 -0.0528
 6386SOL    HW220759   2.703   2.424   0.456  0.8670  0.3313 -0.6221
 6387SOL     OW20760   6.935   0.267   0.210 -0.4596 -0.4328  0.5471
 6387SOL    HW120761   6.902   0.173   0.216 -1.5358 -0.1943 -1.0564
 6387SOL    HW220762   6.962   0.287   0.116  0.3489  0.6823  0.9944
 6388SOL     OW20763   0.037   5.913   5.523  0.3059 -0.0460  0.8316
 6388SOL    HW120764   0.097   5.985   5.558 -0.3730  1.1654 -0.4184
 6388SOL    HW220765  -0.058   5.943   5.528 -0.1187 -1.4463  1.6245
 6389SOL     OW20766   0.183   5.338   3.966 -0.3663 -0.5104 -0.1483
 6389SOL    HW120767   0.248   5.282   4.017  0.7280  0.7972 -0.0453
 6389SOL    HW220768   0.089   5.313   3.992  0.0118 -3.1112 -1.0261
 6390SOL     OW20769   4.524   4.679   5.592 -0.0212  0.1652  0.5790
 6390SOL    HW120770   4.583   4.598   5.591  0.4481  0.5063 -0.2218
 6390SOL    HW220771   4.433   4.655   5.560 -0.1328 -0.2250  1.1789
 6391SOL     OW20772   3.788   3.456   1.445 -0.3391  0.1906  0.0390
 6391SOL    HW120773   3.817   3.544   1.484 -0.3583 -0.4367  1.5346
 6391SOL    HW220774   3.718   3.472   1.376  0.8689  1.4611 -0.9574
 6392SOL     OW20775   0.556   1.692   4.237  0.4469  0.4199  0.0799
 6392SOL    HW120776   0.550   1.729   4.330  1.0010  1.9609 -0.4692
 6392SOL    HW220777   0.652   1.688   4.209  0.3450 -0.7870 -0.1506
 6393SOL     OW20778   4.279   6.449   5.847  0.1996 -0.1857 -0.2326
 6393SOL    HW120779   4.249   6.544   5.843 -0.2552 -0.3557 -1.3964
 6393SOL    HW220780   4.240   6.405   5.928  1.2454  0.8636  0.8775
 6394SOL     OW20781   2.679   1.213   6.419  0.4690  0.3389 -0.2068
 6394SOL    HW120782   2.630   1.297   6.442 -0.0850  0.2533 -1.0154
 6394SOL    HW220783   2.761   1.236   6.367  0.0928  0.3698 -0.8018
 6395SOL     OW20784   5.053   6.468   6.461  0.6924 -0.6734  0.2267
 6395SOL    HW120785   5.123   6.498   6.396 -0.6702  2.4587  0.0262
 6395SOL    HW220786   5.009   6.385   6.427  2.9757 -1.6820 -0.5262
 6396SOL     OW20787   4.118   1.111   0.889  0.4682 -0.2275 -0.2443
 6396SOL    HW120788   4.112   1.057   0.805 -0.0378 -0.6025  0.0216
 6396SOL    HW220789   4.211   1.143   0.902  0.5415 -0.1191 -0.9773
 6397SOL     OW20790   1.646   1.090   0.970 -0.0593  0.1517  0.2484
 6397SOL    HW120791   1.596   1.116   1.053  0.2707 -2.0408  1.2109
 6397SOL    HW220792   1.729   1.039   0.996 -1.2546 -2.8745 -1.3916
 6398SOL     OW20793   5.495   4.537   3.832  0.0336  0.4453 -0.2252
 6398SOL    HW120794   5.409   4.532   3.780  0.2720 -0.2656 -0.5567
 6398SOL    HW220795   5.474   4.545   3.930 -0.4554 -2.5939 -0.0025
 6399SOL     OW20796   4.391   6.381   1.963 -0.5891  0.9418 -0.7228
 6399SOL    HW120797   4.407   6.317   2.037 -0.0207 -1.2592 -2.6271
 6399SOL    HW220798   4.472   6.439   1.951 -2.0894  4.2121  2.8077
 6400SOL     OW20799   0.948   5.692   5.482  0.5551 -0.1387 -0.1689
 6400SOL    HW120800   1.029   5.720   5.534  0.9272 -2.1945  0.4536
 6400SOL    HW220801   0.880   5.653   5.544  0.5642 -1.6670 -1.0649
 6401SOL     OW20802   3.434   3.403   5.576  0.2831  0.2960  0.0468
 6401SOL    HW120803   3.511   3.467   5.577  0.7590 -0.2555 -0.0035
 6401SOL    HW220804   3.469   3.310   5.559 -0.2076 -0.1897  1.4892
 6402SOL     OW20805   2.881   6.348   0.921  0.4832  0.3070 -0.2418
 6402SOL    HW120806   2.906   6.254   0.943  0.2462  0.2867 -0.0556
 6402SOL    HW220807   2.946   6.385   0.854  1.2772  0.3963  0.5480
 6403SOL     OW20808   2.280   6.649   6.851 -0.4604  0.1206  0.0206
 6403SOL    HW120809   2.309   6.592   6.928 -0.4199 -1.5589 -1.1788
 6403SOL    HW220810   2.183   6.635   6.834 -0.5394  0.7307 -0.0428
 6404SOL     OW20811   2.797   0.327   4.054 -0.4955 -0.1771  0.1848
 6404SOL    HW120812   2.765   0.419   4.032  0.4757 -0.1332 -1.2231
 6404SOL    HW220813   2.772   0.264   3.980  1.5541 -0.3659 -0.4190
 6405SOL     OW20814   6.301   6.112   1.555  0.2178  0.2471  0.5630
 6405SOL    HW120815   6.361   6.070   1.623  1.7623  2.1403  0.4601
 6405SOL    HW220816   6.354   6.173   1.496 -1.5338  0.6901 -0.6508
 6406SOL     OW20817   2.738   5.989   4.555 -0.1502  0.2223  0.1045
 6406SOL    HW120818   2.710   5.901   4.516 -0.2775  1.3791 -2.6294
 6406SOL    HW220819   2.662   6.029   4.605 -0.5603 -0.5534  0.1135
 6407SOL     OW20820   4.353   6.619   0.940 -0.0959  0.0035  0.3518
 6407SOL    HW120821   4.259   6.590   0.958 -0.1075 -0.9008 -1.0009
 6407SOL    HW220822   4.370   6.618   0.841  1.3296  0.1930  0.5686
 6408SOL     OW20823   0.263   3.199   4.571 -0.2208  0.3363  0.1190
 6408SOL    HW120824   0.202   3.172   4.496 -0.4039  1.2282 -0.0609
 6408SOL    HW220825   0.337   3.132   4.579 -0.9334 -0.4929  0.0104
 6409SOL     OW20826   2.262   4.160   6.980 -0.0945  0.2264  0.4744
 6409SOL    HW120827   2.259   4.218   7.061 -0.6439 -1.4932  1.7401
 6409SOL    HW220828   2.206   4.078   6.995  1.4591 -1.1529 -0.8231
 6410SOL     OW20829   4.092   5.006   3.324  0.6046  0.5065  0.2497
 6410SOL    HW120830   4.170   4.991   3.385 -0.7152  1.1932  2.1916
 6410SOL    HW220831   4.116   4.974   3.232  2.7769 -0.2877  1.0130
 6411SOL     OW20832   2.310   1.267   4.718  0.0396  0.1246 -0.1621
 6411SOL    HW120833   2.309   1.364   4.695 -3.0087 -0.2772 -2.2996
 6411SOL    HW220834   2.319   1.213   4.634  2.0831 -1.5258  1.0119
 6412SOL     OW20835   6.629   1.359   6.903  0.4028 -0.0660  0.7384
 6412SOL    HW120836   6.589   1.329   6.990  2.4252  0.9990  2.1019
 6412SOL    HW220837   6.717   1.315   6.890 -0.1598 -0.7169 -1.1515
 6413SOL     OW20838   5.390   1.702   6.267  0.7521 -0.2949  0.2460
 6413SOL    HW120839   5.473   1.755   6.252  0.3988  0.1984 -0.0239
 6413SOL    HW220840   5.382   1.631   6.197 -0.1987  1.1234 -1.1530
 6414SOL     OW20841   6.658   3.425   6.735  0.1760  0.0717  0.0197
 6414SOL    HW120842   6.595   3.463   6.803 -0.5571  3.5180 -2.3580
 6414SOL    HW220843   6.752   3.449   6.759 -0.2781  4.0817 -1.5461
 6415SOL     OW20844   5.983   1.526   0.933 -0.2011  0.3902 -0.1228
 6415SOL    HW120845   5.941   1.610   0.968 -0.2555 -0.6900  2.7072
 6415SOL    HW220846   5.912   1.465   0.898 -0.2163  1.2507 -1.6658
 6416SOL     OW20847   4.214   2.307   6.794 -0.1278 -0.3962 -0.3086
 6416SOL    HW120848   4.201   2.306   6.694 -1.5909  0.6436 -0.1587
 6416SOL    HW220849   4.256   2.394   6.820  1.0381 -1.0120 -0.0819
 6417SOL     OW20850   6.117   3.143   0.094 -0.2984 -0.3434 -0.2274
 6417SOL    HW120851   6.069   3.125   0.009 -1.8066  1.2752  0.2250
 6417SOL    HW220852   6.132   3.241   0.105 -0.5814 -0.4549  1.5700
 6418SOL     OW20853   5.459   4.748   5.607 -0.3775 -0.2378 -0.1419
 6418SOL    HW120854   5.424   4.672   5.552  1.1994 -2.0523  1.2052
 6418SOL    HW220855   5.535   4.792   5.558  0.2586 -1.0893  0.0590
 6419SOL     OW20856   2.339   6.541   4.957 -0.2407 -0.4910  0.4592
 6419SOL    HW120857   2.434   6.513   4.971 -0.1502 -0.2681  0.3097
 6419SOL    HW220858   2.290   6.540   5.044 -0.3131 -1.3657  0.4100
 6420SOL     OW20859   5.517   4.010   5.170  0.1158  0.3070  0.5232
 6420SOL    HW120860   5.458   3.941   5.128  0.1499 -0.3160  1.4880
 6420SOL    HW220861   5.472   4.099   5.164 -0.3576  0.0539  0.1327
 6421SOL     OW20862   2.960   3.864   1.610 -0.1035 -0.1908 -0.5088
 6421SOL    HW120863   2.931   3.923   1.685 -0.6852 -1.2774  0.1445
 6421SOL    HW220864   2.975   3.919   1.528 -1.6342  0.7430 -0.1935
 6422SOL     OW20865   5.034   2.375   0.371  0.4064 -0.5156 -0.2348
 6422SOL    HW120866   5.108   2.309   0.388 -1.2420 -2.4014  0.0204
 6422SOL    HW220867   5.070   2.468   0.379  1.9181 -1.2374  4.1057
 6423SOL     OW20868   1.293   3.833   4.874  0.1780  0.2320 -0.3843
 6423SOL    HW120869   1.215   3.851   4.934 -0.2714  1.1246 -1.2171
 6423SOL    HW220870   1.264   3.778   4.796  0.7211 -0.7565  0.0896
 6424SOL     OW20871   1.430   5.365   5.171 -0.1632 -0.2118  0.0081
 6424SOL    HW120872   1.407   5.397   5.079  0.3289  0.6907  0.1826
 6424SOL    HW220873   1.368   5.408   5.238 -0.6750 -1.0506  0.0820
 6425SOL     OW20874   0.018   4.076   0.440  0.1766  0.1642 -0.1230
 6425SOL    HW120875   0.079   3.996   0.431  0.8487  0.7139 -0.5718
 6425SOL    HW220876   0.067   4.150   0.484 -0.1150  0.6701 -0.6391
 6426SOL     OW20877   5.537   1.489   1.140  0.1560  0.0334 -0.0029
 6426SOL    HW120878   5.477   1.414   1.115 -1.9647  1.4043  0.7423
 6426SOL    HW220879   5.520   1.568   1.081  0.5821  0.7416  0.7850
 6427SOL     OW20880   4.039   0.903   6.967  0.0446 -0.2467 -0.0087
 6427SOL    HW120881   3.972   0.911   6.893 -0.3255 -0.0965  0.3429
 6427SOL    HW220882   4.042   0.988   7.020 -0.3751 -0.6855  0.7326
 6428SOL     OW20883   1.477   6.609   0.110  0.0838 -0.1811  0.0703
 6428SOL    HW120884   1.402   6.664   0.073  0.2528 -0.6731 -1.0446
 6428SOL    HW220885   1.518   6.657   0.187 -3.0097 -1.0503  2.4270
 6429SOL     OW20886   1.412   5.207   1.516  0.5771  0.4532  0.9994
 6429SOL    HW120887   1.482   5.193   1.586  1.2767 -1.1763  0.0156
 6429SOL    HW220888   1.455   5.243   1.433  0.5358 -1.8937 -0.0939
 6430SOL     OW20889   0.205   2.183   1.929 -0.1939  0.1061  0.0290
 6430SOL    HW120890   0.217   2.282   1.921  0.2562 -0.0001 -0.7851
 6430SOL    HW220891   0.212   2.141   1.838  0.3335 -0.7503  0.4441
 6431SOL     OW20892   4.069   6.533   5.184 -0.3995 -0.3713 -0.3650
 6431SOL    HW120893   4.081   6.550   5.282  0.4522  1.9052 -0.7871
 6431SOL    HW220894   4.154   6.554   5.136 -0.8750 -1.2201 -1.6169
 6432SOL     OW20895   4.823   5.552   5.429 -0.2518 -0.0945  0.3791
 6432SOL    HW120896   4.739   5.577   5.380  0.0389  2.4175  1.0123
 6432SOL    HW220897   4.847   5.458   5.407 -2.3051 -0.3493 -1.1396
 6433SOL     OW20898   0.242   1.406   6.766 -0.5229  0.4045  0.2430
 6433SOL    HW120899   0.193   1.483   6.806 -0.1985  0.4473  0.5641
 6433SOL    HW220900   0.247   1.418   6.667 -0.4138  0.8303  0.2988
 6434SOL     OW20901   2.409   0.947   1.963 -0.3876  0.0582  0.7100
 6434SOL    HW120902   2.447   0.857   1.944  0.6054  0.2342  1.7605
 6434SOL    HW220903   2.462   0.992   2.035  0.2405  2.2052 -0.9662
 6435SOL     OW20904   0.900   3.382   2.161 -0.6163  0.4489 -0.1202
 6435SOL    HW120905   0.922   3.291   2.195 -0.9263  0.8533  1.2073
 6435SOL    HW220906   0.898   3.380   2.061  1.8173 -0.4451 -0.2395
 6436SOL     OW20907   4.605   0.532   3.579 -0.1492  0.2915 -0.1925
 6436SOL    HW120908   4.531   0.585   3.539  0.5913  0.1816 -1.7695
 6436SOL    HW220909   4.573   0.489   3.664 -1.9853 -0.0119 -0.9921
 6437SOL     OW20910   0.862   4.786   6.521 -0.0638 -0.3676 -0.0516
 6437SOL    HW120911   0.862   4.721   6.445 -0.8278  2.6484 -2.8495
 6437SOL    HW220912   0.930   4.858   6.503  0.0113  0.2540  2.3780
 6438SOL     OW20913   3.238   1.579   1.136 -0.4987  0.0383 -0.2647
 6438SOL    HW120914   3.273   1.671   1.152 -0.9728  0.0860  0.5558
 6438SOL    HW220915   3.256   1.521   1.215 -0.1206 -0.6106 -0.8106
 6439SOL     OW20916   5.232   5.239   6.640  0.5666 -0.2595 -0.0991
 6439SOL    HW120917   5.230   5.269   6.735  0.5924 -1.6502  0.3595
 6439SOL    HW220918   5.143   5.202   6.614  0.9288 -1.0535 -0.2241
 6440SOL     OW20919   3.143   1.045   2.181  0.3942  0.2501 -0.5966
 6440SOL    HW120920   3.092   0.986   2.242 -1.0002  1.9979  0.0216
 6440SOL    HW220921   3.234   1.063   2.219  0.7666 -1.2945 -0.7114
 6441SOL     OW20922   3.483   5.447   5.447  0.3050 -0.2506 -0.1939
 6441SOL    HW120923   3.444   5.432   5.356  0.2901  0.1314 -0.2553
 6441SOL    HW220924   3.527   5.364   5.479 -1.4758 -1.0314  0.3325
 6442SOL     OW20925   6.151   1.232   1.894 -0.4847  0.3605  0.9342
 6442SOL    HW120926   6.135   1.153   1.836 -1.4608  0.0263  1.6483
 6442SOL    HW220927   6.228   1.285   1.857  1.1179 -1.6387  1.1875
 6443SOL     OW20928   6.029   2.535   3.577  0.2059 -0.2191 -0.1078
 6443SOL    HW120929   6.119   2.494   3.592  0.8010  0.9060 -0.5377
 6443SOL    HW220930   6.035   2.634   3.590 -0.8520 -0.0713 -0.6708
 6444SOL     OW20931   6.321   4.917   4.881  0.2744 -0.1708  0.0496
 6444SOL    HW120932   6.270   4.853   4.938  0.9890 -0.8725 -0.0803
 6444SOL    HW220933   6.306   4.896   4.784  0.2517  0.0692 -0.0001
 6445SOL     OW20934   2.437   1.070   4.953 -0.2766  0.2390  0.3340
 6445SOL    HW120935   2.430   0.977   4.917  0.0524  0.1022  0.6191
 6445SOL    HW220936   2.406   1.135   4.884 -0.0054 -0.0467 -0.0571
 6446SOL     OW20937   2.432   2.149   0.050  0.3364  0.1162 -0.1909
 6446SOL    HW120938   2.432   2.210   0.130  0.5004  0.8536 -0.7408
 6446SOL    HW220939   2.398   2.199  -0.030  0.5495 -0.4990 -0.6735
 6447SOL     OW20940   6.684   1.795   1.556  0.1768 -0.7299  0.0113
 6447SOL    HW120941   6.729   1.758   1.474 -0.6819  1.7767 -1.7380
 6447SOL    HW220942   6.747   1.857   1.603 -0.7565  1.6673 -1.6438
 6448SOL     OW20943   1.111   1.875   5.545  0.7610 -0.2427 -0.4208
 6448SOL    HW120944   1.149   1.783   5.553  1.5872  0.0364 -1.0172
 6448SOL    HW220945   1.016   1.869   5.517  0.3519 -0.9553  1.0106
 6449SOL     OW20946   2.616   5.868   3.937 -0.1992 -0.4803  0.3471
 6449SOL    HW120947   2.622   5.917   4.024  1.7502  0.8516 -0.4766
 6449SOL    HW220948   2.697   5.810   3.926 -0.8409 -1.2934 -0.2281
 6450SOL     OW20949   3.600   6.077   4.921  0.1580 -0.1461 -0.1220
 6450SOL    HW120950   3.586   6.085   5.019 -0.9898  0.7104 -0.3411
 6450SOL    HW220951   3.666   6.146   4.890 -0.6166  0.5843 -0.1709
 6451SOL     OW20952   0.103   6.246   4.455  0.1596 -0.2794  0.1182
 6451SOL    HW120953   0.147   6.202   4.533  2.5364  0.4442 -0.7087
 6451SOL    HW220954   0.016   6.286   4.483 -0.0537 -1.8724  1.8489
 6452SOL     OW20955   5.958   1.193   2.883 -0.0892 -0.1642  0.2137
 6452SOL    HW120956   6.001   1.198   2.793  0.6496  1.2225  0.5966
 6452SOL    HW220957   5.992   1.112   2.932  0.0866 -0.5094 -0.4704
 6453SOL     OW20958   0.498   6.176   0.397 -0.1949  0.0762  0.4095
 6453SOL    HW120959   0.446   6.091   0.402  0.3586 -0.2051  1.8290
 6453SOL    HW220960   0.573   6.166   0.332  1.7833 -1.6634  2.7881
 6454SOL     OW20961   0.162   3.473   2.339  0.4667  0.6811 -0.5872
 6454SOL    HW120962   0.175   3.376   2.314 -0.6785  0.6607 -1.1713
 6454SOL    HW220963   0.094   3.514   2.278 -0.7433  1.2580  1.0762
 6455SOL     OW20964   5.463   2.692   1.519  0.5161 -0.2083 -0.5894
 6455SOL    HW120965   5.490   2.698   1.615  0.4950 -0.8725 -0.5408
 6455SOL    HW220966   5.387   2.628   1.509 -0.1437  0.5960 -0.9200
 6456SOL     OW20967   5.026   3.721   1.634  0.1012  0.7077 -0.0021
 6456SOL    HW120968   5.055   3.738   1.728 -0.3605 -1.7962  0.6557
 6456SOL    HW220969   5.084   3.649   1.594  1.2217  2.6851 -2.1730
 6457SOL     OW20970   3.481   1.681   6.544 -0.2509 -0.1640  0.0438
 6457SOL    HW120971   3.393   1.710   6.580  0.0159  0.1266  0.4748
 6457SOL    HW220972   3.498   1.585   6.568  0.1376  0.1621  1.1299
 6458SOL     OW20973   5.823   6.996   5.443 -0.1329 -0.3359 -0.2062
 6458SOL    HW120974   5.778   6.913   5.475  1.0824 -0.4867  1.1972
 6458SOL    HW220975   5.860   6.980   5.351  1.2993 -1.8513  0.5746
 6459SOL     OW20976   0.495   5.497   1.221  0.0024  0.0972  0.0379
 6459SOL    HW120977   0.508   5.593   1.194 -1.4415  0.6412  1.1089
 6459SOL    HW220978   0.572   5.468   1.276 -0.5326  1.3874  1.5494
 6460SOL     OW20979   1.893   6.258   1.343  0.2651  0.0934  0.2708
 6460SOL    HW120980   1.876   6.164   1.373  0.6691 -0.1875 -0.3525
 6460SOL    HW220981   1.983   6.264   1.299  1.2187  1.2489  2.2456
 6461SOL     OW20982   0.205   6.628   3.958  0.3318 -0.5222  0.1318
 6461SOL    HW120983   0.303   6.640   3.941  0.3407 -0.3177  0.3227
 6461SOL    HW220984   0.180   6.675   4.042 -0.5021  1.9308 -1.4069
 6462SOL     OW20985   1.070   5.180   5.327 -0.2176  0.4302 -0.0689
 6462SOL    HW120986   1.013   5.261   5.316  0.3940  0.7706 -0.7786
 6462SOL    HW220987   1.017   5.109   5.375 -0.4634  1.5432  1.3909
 6463SOL     OW20988   5.053   4.569   0.089 -0.6333  0.0883 -0.2345
 6463SOL    HW120989   5.031   4.633   0.163 -0.8418  0.6019 -0.7374
 6463SOL    HW220990   5.050   4.475   0.125 -0.7521  0.3283  0.4045
 6464SOL     OW20991   2.264   1.702   4.358  0.1914 -0.8238  0.5457
 6464SOL    HW120992   2.219   1.783   4.397 -0.5091 -0.7935 -0.2838
 6464SOL    HW220993   2.362   1.718   4.353  0.2484 -0.6304  1.7892
 6465SOL     OW20994   1.859   1.629   5.499 -0.0030  0.4873 -0.0091
 6465SOL    HW120995   1.820   1.609   5.410  1.0010 -0.9835 -0.1521
 6465SOL    HW220996   1.788   1.621   5.569 -1.0023  2.4969 -0.7050
 6466SOL     OW20997   0.112   1.777   4.563  0.6566 -0.7867  0.1793
 6466SOL    HW120998   0.041   1.847   4.557  1.7015  0.3382  0.3356
 6466SOL    HW220999   0.131   1.741   4.472  1.6330  0.7667 -0.2731
 6467SOL     OW21000   6.982   6.988   1.796  0.0150  0.2347  0.3530
 6467SOL    HW121001   6.997   6.899   1.752  0.5712  1.2524 -1.6646
 6467SOL    HW221002   6.892   7.023   1.771 -0.3072  0.1460  1.3537
 6468SOL     OW21003   2.322   1.239   1.979 -0.4878 -0.0003 -0.4810
 6468SOL    HW121004   2.383   1.178   2.030  1.5144  1.4017 -1.0768
 6468SOL    HW221005   2.358   1.254   1.887 -1.0455  1.8313 -0.4493
 6469SOL     OW21006   3.924   0.456   2.189  0.1124 -0.2535 -0.0749
 6469SOL    HW121007   3.989   0.469   2.115  0.0173 -1.2842 -0.3647
 6469SOL    HW221008   3.831   0.459   2.152  0.0270  0.2711  0.1783
 6470SOL     OW21009   6.755   5.072   3.629  0.2122  0.2469  0.4590
 6470SOL    HW121010   6.822   5.004   3.602 -0.6487 -0.2091 -0.5998
 6470SOL    HW221011   6.700   5.099   3.550 -2.3044 -1.0392  1.6394
 6471SOL     OW21012   4.906   3.157   6.655  0.0225  0.4048 -0.0209
 6471SOL    HW121013   4.990   3.211   6.660  0.1231  0.1187  2.6206
 6471SOL    HW221014   4.920   3.080   6.592  1.8923  0.1377  0.6669
 6472SOL     OW21015   0.148   1.163   6.933 -0.4625  0.3174  0.5526
 6472SOL    HW121016   0.214   1.087   6.933 -0.4433  0.2824 -1.1934
 6472SOL    HW221017   0.188   1.241   6.884 -1.3074  0.6798  0.4322
 6473SOL     OW21018   6.741   6.974   6.549 -0.0621 -0.5496  0.3364
 6473SOL    HW121019   6.758   7.007   6.642 -0.6901  1.4317 -0.2100
 6473SOL    HW221020   6.653   7.008   6.517  1.2762  1.1267 -1.9146
 6474SOL     OW21021   6.932   6.797   5.736 -0.2266 -0.0572  0.1176
 6474SOL    HW121022   6.911   6.827   5.829  1.5876 -0.2063  0.6042
 6474SOL    HW221023   7.029   6.810   5.717 -0.7311  0.9174 -2.1320
 6475SOL     OW21024   5.114   2.012   3.658 -0.3123  0.0297 -0.3352
 6475SOL    HW121025   5.161   2.040   3.741 -0.3798  0.6398 -0.5022
 6475SOL    HW221026   5.111   1.912   3.654  0.8772 -0.0144 -0.2839
 6476SOL     OW21027   6.545   6.653   6.143  0.3396 -1.1042 -0.2775
 6476SOL    HW121028   6.561   6.737   6.091  2.1189 -0.5365  1.0864
 6476SOL    HW221029   6.542   6.575   6.080  2.6989 -0.4871 -1.2689
 6477SOL     OW21030   2.037   2.602   4.654 -0.2248 -0.3492  0.0529
 6477SOL    HW121031   2.003   2.670   4.589  0.5914  0.3334  0.3226
 6477SOL    HW221032   2.115   2.553   4.613  0.5229  0.3283  0.6259
 6478SOL     OW21033   1.407   4.147   5.897 -0.7920 -0.0852 -0.0213
 6478SOL    HW121034   1.488   4.095   5.871 -0.2478  1.0199 -0.6304
 6478SOL    HW221035   1.411   4.238   5.855 -2.1289  0.1518  0.3077
 6479SOL     OW21036   1.668   4.707   4.675  0.1972 -0.5646 -0.3573
 6479SOL    HW121037   1.648   4.610   4.660  0.6212 -0.8670  0.8928
 6479SOL    HW221038   1.722   4.717   4.759  0.4925  0.7236 -0.6771
 6480SOL     OW21039   0.938   2.353   5.652 -0.0809  0.2720  0.1666
 6480SOL    HW121040   0.907   2.258   5.648  2.2870 -0.5198 -0.7865
 6480SOL    HW221041   0.953   2.387   5.559 -1.0244  1.6477  0.4933
 6481SOL     OW21042   4.373   2.020   1.461  0.0608 -0.0579 -0.4742
 6481SOL    HW121043   4.456   2.037   1.514  0.2177 -0.4936 -0.5754
 6481SOL    HW221044   4.326   2.107   1.444  0.6386  0.2270 -0.6529
 6482SOL     OW21045   5.676   4.633   1.397 -0.6208 -0.3884 -0.6083
 6482SOL    HW121046   5.692   4.674   1.487 -1.7335  1.3917 -1.1764
 6482SOL    HW221047   5.597   4.573   1.402  1.1108 -2.7876  0.2656
 6483SOL     OW21048   1.394   1.409   2.945 -0.7321 -0.3505  0.2658
 6483SOL    HW121049   1.350   1.438   2.860  0.7677  0.5524 -0.2329
 6483SOL    HW221050   1.484   1.451   2.953  0.5072 -2.8979  0.7558
 6484SOL     OW21051   5.545   1.128   4.319 -0.5013 -0.6255 -0.2216
 6484SOL    HW121052   5.527   1.138   4.222 -1.3801 -0.8563 -0.0876
 6484SOL    HW221053   5.644   1.134   4.335 -0.3710 -0.2868 -1.0819
 6485SOL     OW21054   1.128   1.042   0.456 -0.2498 -0.1743  0.1582
 6485SOL    HW121055   1.174   1.127   0.483 -1.5186  0.4456  0.4919
 6485SOL    HW221056   1.195   0.976   0.423  0.6156  1.8249 -2.5456
 6486SOL     OW21057   0.974   0.897   3.630  0.2894  0.1434  0.1802
 6486SOL    HW121058   1.001   0.946   3.713  1.3915  1.0902 -0.7166
 6486SOL    HW221059   0.910   0.824   3.655  1.4477 -0.3204  2.0153
 6487SOL     OW21060   0.935   5.547   1.071  0.1644  0.0749 -0.1693
 6487SOL    HW121061   1.001   5.472   1.059  1.1314  0.6533  1.2666
 6487SOL    HW221062   0.842   5.510   1.065  0.6172 -1.2368  0.4077
 6488SOL     OW21063   4.540   0.565   4.990  0.5466  0.8286 -0.2460
 6488SOL    HW121064   4.479   0.504   4.940  0.2302 -1.3208  2.4866
 6488SOL    HW221065   4.632   0.525   4.992  0.4854  0.7066  1.0335
 6489SOL     OW21066   4.776   3.921   4.008  0.4462  0.1710  0.6936
 6489SOL    HW121067   4.718   3.951   3.932  0.2087 -2.5886 -0.3315
 6489SOL    HW221068   4.733   3.843   4.053  1.4392  0.6592  2.5911
 6490SOL     OW21069   4.819   0.431   3.865  0.6791  0.0345  0.0585
 6490SOL    HW121070   4.900   0.433   3.808  1.9407 -0.9806  1.7277
 6490SOL    HW221071   4.738   0.453   3.810  2.2759  3.3881 -1.1978
 6491SOL     OW21072   3.263   0.746   0.510  0.0418  0.5927 -0.1017
 6491SOL    HW121073   3.238   0.829   0.459  2.5122  1.6839  0.3168
 6491SOL    HW221074   3.240   0.759   0.607  0.3619  0.7479 -0.0477
 6492SOL     OW21075   1.446   2.274   0.316 -0.4667  0.0470 -0.0162
 6492SOL    HW121076   1.496   2.323   0.387 -0.3066 -1.2553  0.7925
 6492SOL    HW221077   1.476   2.179   0.313 -1.2623 -0.1941 -1.0879
 6493SOL     OW21078   1.603   5.978   3.167  0.5011  0.0556 -0.1280
 6493SOL    HW121079   1.526   6.035   3.137 -0.2853 -0.6659  0.4665
 6493SOL    HW221080   1.622   5.908   3.098  0.2091 -0.1528 -0.0008
 6494SOL     OW21081   0.945   4.013   1.752 -0.6824  0.6384  0.3188
 6494SOL    HW121082   1.036   3.978   1.725  0.2349  2.6824  0.5697
 6494SOL    HW221083   0.946   4.036   1.849 -1.9870 -0.6920  0.6874
 6495SOL     OW21084   3.344   3.242   1.038 -0.6690 -0.1751  0.2549
 6495SOL    HW121085   3.297   3.292   0.966  0.0221 -0.3238 -0.3058
 6495SOL    HW221086   3.341   3.144   1.018  0.1733 -0.1571  0.0436
 6496SOL     OW21087   3.259   2.776   5.514  0.2631  0.3674 -0.0651
 6496SOL    HW121088   3.320   2.853   5.496  1.3372 -0.2781  0.6818
 6496SOL    HW221089   3.311   2.701   5.555 -0.9131 -0.4583 -0.0236
 6497SOL     OW21090   5.267   6.122   2.134 -0.1281  0.2044 -0.2382
 6497SOL    HW121091   5.328   6.170   2.197  1.1351 -1.0239 -0.4499
 6497SOL    HW221092   5.187   6.089   2.183  0.8152 -0.6922  0.7716
 6498SOL     OW21093   2.108   2.999   1.124 -0.1016 -0.1952  0.3501
 6498SOL    HW121094   2.037   2.932   1.146  1.2332 -2.1229 -0.8997
 6498SOL    HW221095   2.084   3.046   1.039 -0.7159  0.4445  0.8691
 6499SOL     OW21096   1.113   3.547   2.228  0.1234 -0.6420 -0.0413
 6499SOL    HW121097   1.204   3.511   2.248  0.6420  0.2399 -0.7110
 6499SOL    HW221098   1.051   3.471   2.207  0.0357 -1.4550  2.7876
 6500SOL     OW21099   6.143   2.572   0.612  0.1575 -0.1368 -0.3659
 6500SOL    HW121100   6.112   2.536   0.524 -0.7892  0.6953 -0.3883
 6500SOL    HW221101   6.218   2.637   0.597  0.2860 -0.3169 -0.5146
 6501SOL     OW21102   0.508   1.807   2.500 -0.8785 -0.1250 -0.9785
 6501SOL    HW121103   0.460   1.721   2.486  0.8760 -1.1065 -1.3130
 6501SOL    HW221104   0.598   1.803   2.456 -1.3229  2.4606 -2.3373
 6502SOL     OW21105   6.748   0.049   2.197  0.2644 -0.0273 -0.2134
 6502SOL    HW121106   6.835   0.020   2.157  0.7928  2.5371 -1.1036
 6502SOL    HW221107   6.672   0.013   2.144  0.7633 -1.7185  0.1636
 6503SOL     OW21108   0.858   6.930   1.092 -0.3943 -0.2144  0.0480
 6503SOL    HW121109   0.871   7.020   1.133 -2.1321 -0.4705  1.3169
 6503SOL    HW221110   0.874   6.859   1.161 -1.0906 -0.7685 -0.3360
 6504SOL     OW21111   2.817   5.813   1.747  0.2324 -0.1018 -0.2427
 6504SOL    HW121112   2.735   5.756   1.748  0.7048 -0.7904 -0.3771
 6504SOL    HW221113   2.813   5.876   1.669 -0.3986  0.2224  0.0396
 6505SOL     OW21114   5.514   2.073   6.452 -0.0097  0.0095 -0.0991
 6505SOL    HW121115   5.508   2.171   6.433  0.1386 -0.0285 -0.3317
 6505SOL    HW221116   5.510   2.059   6.551  2.0991  0.3999  0.0803
 6506SOL     OW21117   6.354   0.530   4.373 -0.2806 -0.4521 -0.0897
 6506SOL    HW121118   6.420   0.555   4.444  1.5134  1.5707 -2.2757
 6506SOL    HW221119   6.388   0.451   4.322 -0.5863 -0.6754  0.0487
 6507SOL     OW21120   6.829   0.736   3.353 -0.4957  0.4760 -0.3773
 6507SOL    HW121121   6.878   0.652   3.376 -0.8594  0.4922  0.4927
 6507SOL    HW221122   6.741   0.738   3.402 -0.6830  1.1595 -0.7245
 6508SOL     OW21123   2.328   6.878   4.794 -0.3245  0.4798 -0.0988
 6508SOL    HW121124   2.296   6.926   4.876  0.2390  0.8773 -0.1059
 6508SOL    HW221125   2.278   6.792   4.784 -1.0796  0.8814  0.1265
 6509SOL     OW21126   5.761   1.402   0.805 -0.2823  0.1146  0.4082
 6509SOL    HW121127   5.770   1.334   0.878 -0.9284  1.5510  1.9018
 6509SOL    HW221128   5.677   1.385   0.754 -0.9462  0.3373  1.4007
 6510SOL     OW21129   2.775   0.055   4.769 -0.3112 -0.3866 -0.1295
 6510SOL    HW121130   2.685   0.037   4.730 -0.1240  0.3527 -0.9341
 6510SOL    HW221131   2.806  -0.025   4.820 -0.7774 -1.1965 -1.0878
 6511SOL     OW21132   0.975   1.801   4.725  0.4589  0.0037  0.7611
 6511SOL    HW121133   0.958   1.761   4.635 -0.9453  1.1282  0.4907
 6511SOL    HW221134   0.937   1.742   4.796  0.5668 -0.3308  0.5406
 6512SOL     OW21135   3.772   1.328   1.130  0.1077 -0.1278 -0.0357
 6512SOL    HW121136   3.845   1.333   1.062  1.7606  0.7095  1.7086
 6512SOL    HW221137   3.695   1.384   1.101 -0.2046 -1.5434 -2.2314
 6513SOL     OW21138   6.024   3.956   5.004  0.0177  0.3063  0.4468
 6513SOL    HW121139   6.021   4.055   4.997 -1.6447  0.2856  0.4668
 6513SOL    HW221140   5.999   3.915   4.916  0.3127 -0.1081  0.5479
 6514SOL     OW21141   0.448   4.019   3.036 -0.6151 -0.0519  0.0987
 6514SOL    HW121142   0.475   3.929   3.004  0.4414  0.4776 -0.5271
 6514SOL    HW221143   0.348   4.026   3.034 -0.6458 -0.1191 -2.9489
 6515SOL     OW21144   3.462   5.252   5.724  0.1943  0.7124 -0.7071
 6515SOL    HW121145   3.479   5.176   5.786 -3.7960 -1.0469 -1.4411
 6515SOL    HW221146   3.530   5.250   5.650  1.4829 -0.8093  0.4501
 6516SOL     OW21147   5.476   3.163   1.203  0.2579 -0.1219 -0.0969
 6516SOL    HW121148   5.562   3.179   1.155  0.9407  0.8636  1.4057
 6516SOL    HW221149   5.474   3.216   1.287 -2.1220  0.4265 -0.4295
 6517SOL     OW21150   5.714   5.741   3.290 -0.7404 -0.3521  0.1008
 6517SOL    HW121151   5.653   5.711   3.363 -2.7263 -1.3787 -1.8575
 6517SOL    HW221152   5.805   5.761   3.327 -0.6702 -4.0588  2.3305
 6518SOL     OW21153   5.762   3.855   3.552  0.2262  0.2578 -0.0881
 6518SOL    HW121154   5.808   3.873   3.465  0.9607 -0.9356  0.0403
 6518SOL    HW221155   5.821   3.882   3.628 -0.5826  1.6965  0.0697
 6519SOL     OW21156   0.411   1.005   4.935 -0.6974  0.2116  0.7616
 6519SOL    HW121157   0.422   1.039   4.841 -1.1058 -0.5273  0.4421
 6519SOL    HW221158   0.360   0.919   4.934 -0.2596 -0.0704  1.6215
 6520SOL     OW21159   5.000   1.364   5.344  0.6360  0.7446 -0.2934
 6520SOL    HW121160   4.931   1.380   5.273  0.5055  0.7519 -0.1662
 6520SOL    HW221161   5.091   1.361   5.302  0.3222 -2.8400 -1.0548
 6521SOL     OW21162   3.008   2.764   5.627 -0.1610  0.1857 -1.0049
 6521SOL    HW121163   3.096   2.740   5.586  0.1984  1.2686 -0.8925
 6521SOL    HW221164   2.961   2.680   5.656  0.5876 -0.4388 -1.5486
 6522SOL     OW21165   2.025   0.516   2.763  0.0835 -0.1762 -0.2639
 6522SOL    HW121166   1.984   0.603   2.736  0.1482 -0.7159 -2.2545
 6522SOL    HW221167   2.018   0.505   2.862 -2.5693  0.7667 -0.2620
 6523SOL     OW21168   4.086   2.417   1.989 -0.5067 -0.1183  0.5531
 6523SOL    HW121169   4.090   2.318   1.975 -1.3669 -0.0185 -0.5383
 6523SOL    HW221170   4.054   2.437   2.082  1.1610 -0.8382  1.3274
 6524SOL     OW21171   6.723   0.348   0.612 -0.6203  0.1055 -0.0334
 6524SOL    HW121172   6.662   0.285   0.660 -0.1808  0.0438  0.4578
 6524SOL    HW221173   6.686   0.441   0.616 -1.9573 -0.2943 -1.9129
 6525SOL     OW21174   4.847   2.204   3.083  0.0317  0.3639 -0.7965
 6525SOL    HW121175   4.904   2.283   3.103  0.8473  0.1052 -1.9756
 6525SOL    HW221176   4.773   2.231   3.021 -2.0848  1.0191  1.8216
 6526SOL     OW21177   5.639   3.475   4.065 -0.0876  0.1100 -0.1429
 6526SOL    HW121178   5.683   3.490   3.977 -1.3533  1.7416 -0.5464
 6526SOL    HW221179   5.612   3.379   4.073 -0.9712  0.1505 -2.0569
 6527SOL     OW21180   3.749   6.701   4.877  0.1276 -0.4645 -0.2504
 6527SOL    HW121181   3.821   6.761   4.844  0.1917 -0.4724 -0.1262
 6527SOL    HW221182   3.784   6.643   4.950 -0.3117  0.3992  0.6805
 6528SOL     OW21183   5.890   3.368   1.133 -0.4944 -0.0782  0.0365
 6528SOL    HW121184   5.862   3.459   1.102  0.2072  0.3160  0.5361
 6528SOL    HW221185   5.831   3.339   1.208  0.1640  0.5769  0.8183
 6529SOL     OW21186   4.696   4.380   5.538  0.2126  0.3355  0.4149
 6529SOL    HW121187   4.604   4.341   5.533  0.4890 -0.7803  2.6145
 6529SOL    HW221188   4.740   4.351   5.623  1.8585  2.5191  0.4077
 6530SOL     OW21189   3.304   6.895   1.795 -0.8910 -0.2265  0.8649
 6530SOL    HW121190   3.356   6.823   1.749 -0.8821 -0.4624  1.2400
 6530SOL    HW221191   3.354   6.927   1.876 -0.8188  0.3145  0.6120
 6531SOL     OW21192   6.802   4.398   2.196 -0.1338 -0.3670  0.8996
 6531SOL    HW121193   6.755   4.325   2.147 -0.9325  0.7086  0.0194
 6531SOL    HW221194   6.901   4.385   2.189 -0.2691 -1.1742  0.4751
 6532SOL     OW21195   0.763   1.125   2.003  0.2259 -0.1558  0.2828
 6532SOL    HW121196   0.727   1.188   1.934 -0.5370 -1.3508 -0.4372
 6532SOL    HW221197   0.698   1.051   2.019  1.4076 -1.1638  0.5956
 6533SOL     OW21198   3.648   1.435   0.659  0.2474 -0.4860  0.4229
 6533SOL    HW121199   3.731   1.381   0.667 -1.0795 -3.1813 -2.0555
 6533SOL    HW221200   3.623   1.444   0.563 -1.3635  1.9153  0.9623
 6534SOL     OW21201   1.447   2.512   6.664  0.4155 -0.3844 -0.0806
 6534SOL    HW121202   1.498   2.599   6.665 -0.7518  0.3137  0.4892
 6534SOL    HW221203   1.462   2.466   6.576  1.3819  0.1846 -0.2292
 6535SOL     OW21204   0.889   6.585   2.728 -0.5926  0.8724  0.0135
 6535SOL    HW121205   0.915   6.678   2.755  1.6026 -0.1804  1.7956
 6535SOL    HW221206   0.957   6.548   2.664 -1.1305  0.2541 -0.2142
 6536SOL     OW21207   5.418   2.948   4.903 -0.0954  0.3650 -0.4648
 6536SOL    HW121208   5.461   3.039   4.905 -1.5713  1.1181  2.0656
 6536SOL    HW221209   5.459   2.891   4.975  0.2956 -0.7502 -1.5442
 6537SOL     OW21210   1.122   2.945   3.105 -0.1593 -0.0343 -0.4182
 6537SOL    HW121211   1.182   2.932   3.026  1.3628 -1.1982  0.8659
 6537SOL    HW221212   1.027   2.936   3.076  0.3828 -1.2161 -1.9802
 6538SOL     OW21213   3.148   1.925   5.412 -0.0947  0.3079  0.0419
 6538SOL    HW121214   3.227   1.889   5.462 -0.3150 -1.1045 -0.5853
 6538SOL    HW221215   3.097   1.988   5.471  1.3763  1.0911  0.5187
 6539SOL     OW21216   2.289   6.108   5.542 -0.2762 -0.3720 -0.5086
 6539SOL    HW121217   2.388   6.122   5.538 -0.2259 -0.7839 -0.8358
 6539SOL    HW221218   2.262   6.088   5.636 -0.0903  0.0259 -0.3682
 6540SOL     OW21219   0.790   0.428   2.794 -0.2074  0.3364 -0.0683
 6540SOL    HW121220   0.691   0.442   2.795 -0.1666  0.6240  0.1824
 6540SOL    HW221221   0.827   0.451   2.883 -0.1533 -1.6136  0.4656
 6541SOL     OW21222   6.764   0.973   3.673  0.2013 -0.0350  0.2752
 6541SOL    HW121223   6.810   0.996   3.759 -0.5819  0.5972  0.5430
 6541SOL    HW221224   6.676   0.930   3.694  0.4422 -0.7821 -0.2233
 6542SOL     OW21225   3.377   4.167   3.546  0.2381  0.3512  0.1651
 6542SOL    HW121226   3.374   4.158   3.447 -0.9127  0.6913  0.1462
 6542SOL    HW221227   3.435   4.096   3.585  2.0233  1.1766 -0.8450
 6543SOL     OW21228   0.195   4.766   6.377 -0.3074 -0.4639 -0.2078
 6543SOL    HW121229   0.271   4.729   6.323  1.3892  1.6049  0.5946
 6543SOL    HW221230   0.151   4.692   6.428  1.6306 -1.6818 -0.1740
 6544SOL     OW21231   3.209   3.784   0.835 -0.3439 -0.4491 -0.3860
 6544SOL    HW121232   3.148   3.862   0.824  0.2219  0.1101  0.3476
 6544SOL    HW221233   3.161   3.710   0.882  0.2170  0.9174  2.5238
 6545SOL     OW21234   3.106   5.483   4.325  0.4904  0.6281  0.3295
 6545SOL    HW121235   3.129   5.386   4.334  1.0173  0.7092 -0.1250
 6545SOL    HW221236   3.183   5.539   4.355  0.2122  0.9086  0.5273
 6546SOL     OW21237   0.854   6.218   1.665  0.3538 -0.0152  0.3011
 6546SOL    HW121238   0.785   6.289   1.650  0.6586  0.0891 -0.6927
 6546SOL    HW221239   0.812   6.139   1.709 -0.3814  0.1005 -0.1780
 6547SOL     OW21240   6.060   5.963   4.927  0.4332 -0.9918 -0.5333
 6547SOL    HW121241   6.069   5.903   4.848  0.0003  0.0686 -1.4123
 6547SOL    HW221242   5.963   5.975   4.948  0.5461 -1.3011  0.1998
 6548SOL     OW21243   0.784   6.241   2.923 -0.1947 -0.0600 -0.3880
 6548SOL    HW121244   0.875   6.211   2.894  0.4203  0.2669  1.0771
 6548SOL    HW221245   0.729   6.263   2.843  0.2665 -2.3118 -1.3993
 6549SOL     OW21246   0.012   4.932   2.032 -0.2518  0.2696 -0.2669
 6549SOL    HW121247  -0.045   4.868   1.981 -0.5475 -0.5907  1.0913
 6549SOL    HW221248   0.056   4.884   2.108  0.4186  1.4426  0.1083
 6550SOL     OW21249   0.053   0.334   2.616 -0.2640 -0.4284  0.0493
 6550SOL    HW121250   0.122   0.405   2.626  0.2896 -0.8854 -0.4671
 6550SOL    HW221251  -0.020   0.349   2.683 -0.2254  0.6917 -0.1341
 6551SOL     OW21252   6.295   2.442   1.650  0.2648  0.2203  0.0892
 6551SOL    HW121253   6.324   2.362   1.597 -0.1303  1.4246 -2.0599
 6551SOL    HW221254   6.228   2.414   1.719 -0.9325 -1.1410 -1.5418
 6552SOL     OW21255   1.712   6.875   3.766  0.0735  0.1540  0.6043
 6552SOL    HW121256   1.636   6.938   3.749  0.7059  0.6682 -0.4248
 6552SOL    HW221257   1.711   6.846   3.862 -2.1457 -0.8348  0.3308
 6553SOL     OW21258   1.661   2.582   4.054 -0.2941  0.5851 -0.1408
 6553SOL    HW121259   1.668   2.617   4.147 -1.7501  0.4875  0.0304
 6553SOL    HW221260   1.649   2.483   4.056 -1.3329  0.6913 -0.3595
 6554SOL     OW21261   5.455   5.489   1.661 -0.1886 -0.6152 -0.0593
 6554SOL    HW121262   5.398   5.466   1.740 -0.1684 -0.4361  0.0071
 6554SOL    HW221263   5.427   5.578   1.624  0.4552 -0.2290  0.3559
 6555SOL     OW21264   3.637   2.441   0.894 -0.2304 -0.5877 -0.2851
 6555SOL    HW121265   3.678   2.435   0.803  1.3542 -0.9541  0.4313
 6555SOL    HW221266   3.669   2.365   0.950 -2.2973 -1.1795  0.1743
 6556SOL     OW21267   4.778   3.820   5.852  0.0645  0.0621 -0.2335
 6556SOL    HW121268   4.778   3.885   5.776  0.4524 -0.4133 -0.6469
 6556SOL    HW221269   4.742   3.732   5.821  0.6330 -0.2653  0.0218
 6557SOL     OW21270   4.185   6.119   2.284  0.8904 -0.5374 -0.0532
 6557SOL    HW121271   4.274   6.152   2.252  1.8616 -2.0576  0.9379
 6557SOL    HW221272   4.155   6.174   2.362  1.3438 -0.5019  0.0962
 6558SOL     OW21273   4.781   1.293   4.389  0.3702 -0.5106 -0.0352
 6558SOL    HW121274   4.703   1.240   4.421  0.2892 -0.9060 -0.8425
 6558SOL    HW221275   4.750   1.364   4.325  0.7860 -1.6885 -1.6204
 6559SOL     OW21276   0.907   5.539   4.543  0.2434 -0.3426  0.2398
 6559SOL    HW121277   0.814   5.552   4.576  0.2660  0.6372 -0.0461
 6559SOL    HW221278   0.917   5.448   4.504 -0.8937 -0.1035 -0.6505
 6560SOL     OW21279   6.149   2.122   6.883  0.2883  0.2389  0.2640
 6560SOL    HW121280   6.066   2.179   6.892  0.4800  0.3871  1.1909
 6560SOL    HW221281   6.122   2.027   6.871 -0.0145  0.2716  0.6703
 6561SOL     OW21282   0.378   0.688   5.519 -0.1102  1.0085 -0.0504
 6561SOL    HW121283   0.387   0.714   5.423 -0.0022  0.1219 -0.2893
 6561SOL    HW221284   0.290   0.642   5.533 -0.0213  0.9176  0.2214
 6562SOL     OW21285   2.223   1.080   5.654 -0.5815 -0.3221 -0.0683
 6562SOL    HW121286   2.304   1.137   5.641 -0.7326 -0.3403 -1.1514
 6562SOL    HW221287   2.243   1.008   5.721 -0.8764  1.9266  2.6096
 6563SOL     OW21288   5.787   6.308   6.714  0.0413 -0.4785  0.4554
 6563SOL    HW121289   5.786   6.236   6.783  1.2256 -0.2517  0.7352
 6563SOL    HW221290   5.699   6.355   6.713 -0.6530 -1.7517  0.4451
 6564SOL     OW21291   6.307   4.096   1.259 -0.3470  0.7346 -0.2885
 6564SOL    HW121292   6.225   4.062   1.305 -0.3550 -0.0396 -0.8674
 6564SOL    HW221293   6.368   4.138   1.327 -1.2457  1.3953  0.1346
 6565SOL     OW21294   5.594   4.865   4.250  0.0222 -0.0515 -0.3364
 6565SOL    HW121295   5.505   4.849   4.293 -0.4229 -1.1830 -1.6247
 6565SOL    HW221296   5.656   4.908   4.316 -0.8891 -0.9720  1.1637
 6566SOL     OW21297   3.351   1.468   1.946  0.1236  0.0156  0.8061
 6566SOL    HW121298   3.413   1.545   1.960  0.5589 -0.6191  2.5014
 6566SOL    HW221299   3.258   1.496   1.972 -0.1972  0.6644 -0.8419
 6567SOL     OW21300   1.239   6.477   5.129 -0.6338 -0.1399 -0.3735
 6567SOL    HW121301   1.250   6.576   5.136  0.4507 -0.3437  1.2091
 6567SOL    HW221302   1.222   6.452   5.034  0.2993  1.4447 -0.9876
 6568SOL     OW21303   6.015   5.523   2.546 -0.1191  0.2977 -0.6508
 6568SOL    HW121304   5.924   5.503   2.582 -0.3986  0.7345 -1.1101
 6568SOL    HW221305   6.008   5.550   2.450  0.4801  0.4962 -0.6418
 6569SOL     OW21306   0.616   2.059   6.874 -0.5624 -0.1032  0.1962
 6569SOL    HW121307   0.597   2.156   6.859  1.1681  0.3145  0.5479
 6569SOL    HW221308   0.565   2.004   6.807 -1.4729  1.0462 -0.0731
 6570SOL     OW21309   3.266   1.212   1.699  0.3977  0.0351 -0.8059
 6570SOL    HW121310   3.218   1.218   1.786  0.3372 -0.4112 -0.8061
 6570SOL    HW221311   3.210   1.160   1.634  1.2622 -1.2739 -0.5335
 6571SOL     OW21312   4.431   5.186   3.785  0.1044  0.3277  0.1588
 6571SOL    HW121313   4.447   5.278   3.820 -0.2536  0.0412  1.1220
 6571SOL    HW221314   4.482   5.120   3.840 -0.9277 -0.1881  0.5349
 6572SOL     OW21315   2.357   0.149   4.470 -0.2417  0.3481 -0.0897
 6572SOL    HW121316   2.321   0.225   4.525 -0.6010  0.7698 -0.8869
 6572SOL    HW221317   2.289   0.076   4.466 -0.6248  0.7394 -0.7982
 6573SOL     OW21318   3.378   1.149   0.500 -0.4675 -0.2256 -1.0153
 6573SOL    HW121319   3.331   1.179   0.583 -2.1591 -1.9916 -1.2558
 6573SOL    HW221320   3.351   1.206   0.423 -0.4115  0.1995 -0.7214
 6574SOL     OW21321   6.829   1.787   3.154 -0.3628  0.1005  0.0838
 6574SOL    HW121322   6.905   1.829   3.104  0.1342 -0.2371  0.5516
 6574SOL    HW221323   6.843   1.688   3.160 -0.8529  0.0328  0.1509
 6575SOL     OW21324   0.770   5.532   5.642 -0.3493 -0.0454  0.7165
 6575SOL    HW121325   0.724   5.488   5.565  0.3796  1.2751 -0.5358
 6575SOL    HW221326   0.702   5.578   5.700 -0.7974  0.1613  0.0384
 6576SOL     OW21327   0.705   4.649   4.324 -0.0611 -0.1012 -0.3343
 6576SOL    HW121328   0.628   4.613   4.377  0.3186 -0.8070 -0.2530
 6576SOL    HW221329   0.773   4.577   4.311  0.7431  0.6023 -0.1188
 6577SOL     OW21330   4.131   1.136   6.756  0.2527  0.7073  0.2441
 6577SOL    HW121331   4.122   1.194   6.837  0.4262  2.9767 -1.2669
 6577SOL    HW221332   4.045   1.136   6.705 -0.0828 -1.2764  0.7548
 6578SOL     OW21333   4.929   5.855   2.401 -0.0164 -0.0312 -0.2816
 6578SOL    HW121334   5.002   5.813   2.347 -1.1471  0.5442 -2.3742
 6578SOL    HW221335   4.916   5.803   2.485  2.8040 -0.1169  0.2193
 6579SOL     OW21336   0.237   2.880   5.114 -0.3351  0.1970 -0.0453
 6579SOL    HW121337   0.245   2.963   5.170  0.0766 -0.8460  1.5168
 6579SOL    HW221338   0.312   2.818   5.137 -1.1984 -1.0311 -0.4672
 6580SOL     OW21339   4.577   2.109   1.595  0.2847  0.3418  0.1980
 6580SOL    HW121340   4.557   2.176   1.667  1.1530  0.6686  0.1513
 6580SOL    HW221341   4.661   2.060   1.618 -0.6843 -1.2300  0.5619
 6581SOL     OW21342   1.260   0.102   3.102  0.6355  0.2123  1.0965
 6581SOL    HW121343   1.187   0.127   3.037  0.9321 -1.0099  0.2519
 6581SOL    HW221344   1.235   0.134   3.193 -1.2976 -0.7167  0.9608
 6582SOL     OW21345   1.453   4.988   5.150 -0.0968  0.2287 -0.3341
 6582SOL    HW121346   1.536   5.045   5.147 -1.1843  1.8949  0.1158
 6582SOL    HW221347   1.417   4.987   5.243  0.3039 -1.8870 -0.1443
 6583SOL     OW21348   4.632   6.260   5.689 -0.1316  0.3802 -0.0725
 6583SOL    HW121349   4.592   6.194   5.752 -0.5676  0.0103 -0.7234
 6583SOL    HW221350   4.687   6.211   5.621  0.5667  0.7952  0.1834
 6584SOL     OW21351   5.490   2.100   5.996 -0.2433  0.1722  0.2247
 6584SOL    HW121352   5.525   2.185   5.957 -0.7167  0.1689 -0.2179
 6584SOL    HW221353   5.402   2.118   6.041 -1.2002 -0.3932 -1.3542
 6585SOL     OW21354   6.824   1.008   6.070  0.3209  0.1310 -0.0918
 6585SOL    HW121355   6.846   1.087   6.128 -1.0655  0.5453 -0.1025
 6585SOL    HW221356   6.874   0.928   6.103  0.5933  0.6726  0.8496
 6586SOL     OW21357   1.870   0.799   4.877 -0.4946 -0.0107  0.3796
 6586SOL    HW121358   1.786   0.841   4.843 -0.0435  0.1212 -0.5936
 6586SOL    HW221359   1.947   0.860   4.862 -0.1489 -0.3109  0.8810
 6587SOL     OW21360   0.072   0.913   3.797  0.0465  0.2613  0.4262
 6587SOL    HW121361   0.070   0.933   3.699  0.0000 -0.4425  0.2736
 6587SOL    HW221362   0.117   0.987   3.845 -0.5721  0.9527 -0.0417
 6588SOL     OW21363   0.919   3.528   6.103  0.1472  0.3591 -0.8704
 6588SOL    HW121364   0.832   3.536   6.053  1.1636  0.1655 -2.7666
 6588SOL    HW221365   0.969   3.448   6.070  0.1817 -0.7396  1.6658
 6589SOL     OW21366   2.444   6.037   4.641  0.1471  0.0992 -0.1675
 6589SOL    HW121367   2.384   5.962   4.612 -0.2916  0.4433 -0.1687
 6589SOL    HW221368   2.413   6.122   4.599  0.8600  0.2236 -0.4540
 6590SOL     OW21369   4.245   1.959   0.324 -0.5373 -0.2076 -0.1080
 6590SOL    HW121370   4.309   1.971   0.247  0.4938 -0.3212  0.7121
 6590SOL    HW221371   4.236   1.862   0.345  0.7993 -0.0878  1.2049
 6591SOL     OW21372   1.067   3.437   2.894 -0.6024 -0.3535 -0.6352
 6591SOL    HW121373   0.998   3.509   2.902 -1.0454 -0.8720  0.3295
 6591SOL    HW221374   1.101   3.434   2.800 -1.3844  0.3711 -0.9543
 6592SOL     OW21375   0.192   2.653   1.392 -0.1489  0.2989 -0.3827
 6592SOL    HW121376   0.270   2.645   1.330  0.5189  0.2965  0.4397
 6592SOL    HW221377   0.145   2.739   1.375  0.2665  0.4844 -0.6234
 6593SOL     OW21378   1.496   6.899   4.501  0.0980  0.7004 -0.0014
 6593SOL    HW121379   1.404   6.862   4.512 -0.2285  0.5289 -2.6182
 6593SOL    HW221380   1.556   6.829   4.462  0.5906  1.5911 -0.9194
 6594SOL     OW21381   2.806   2.870   3.806 -0.8625  0.2870 -0.2641
 6594SOL    HW121382   2.851   2.782   3.803  0.2846  0.8468  0.0041
 6594SOL    HW221383   2.763   2.889   3.718 -1.2628 -0.6016 -0.2647
 6595SOL     OW21384   1.330   2.151   6.432  0.2859  0.2215 -0.0517
 6595SOL    HW121385   1.255   2.204   6.391  0.6487  0.7372 -0.0533
 6595SOL    HW221386   1.319   2.149   6.532 -1.1222 -1.8189 -0.1772
 6596SOL     OW21387   4.260   1.608   5.493 -0.0757 -0.5906 -0.1802
 6596SOL    HW121388   4.300   1.694   5.461  0.5024 -1.2535 -1.3066
 6596SOL    HW221389   4.195   1.626   5.567 -0.2791  0.8463 -0.6893
 6597SOL     OW21390   0.746   4.198   6.884 -0.0483 -0.2291 -0.2453
 6597SOL    HW121391   0.788   4.194   6.793  1.6070 -2.5697  0.5191
 6597SOL    HW221392   0.792   4.133   6.944 -0.7324  1.6582  2.4741
 6598SOL     OW21393   2.392   4.783   1.923  0.5313  0.3510  0.4830
 6598SOL    HW121394   2.385   4.819   2.016  0.5013 -0.9305  0.9996
 6598SOL    HW221395   2.415   4.685   1.927 -0.3551  0.0657 -0.8399
 6599SOL     OW21396   2.088   0.007   6.796  0.0688  0.3608 -0.4091
 6599SOL    HW121397   2.021   0.019   6.722 -0.1550  0.4440 -0.1930
 6599SOL    HW221398   2.168   0.064   6.777 -0.4880  1.3089  0.0102
 6600SOL     OW21399   1.208   2.838   1.818  0.5144  0.2192  0.0687
 6600SOL    HW121400   1.283   2.870   1.876  1.4572 -0.2494 -0.8588
 6600SOL    HW221401   1.246   2.789   1.739 -0.7500  0.4265 -0.6868
 6601SOL     OW21402   6.030   2.210   1.475  0.2608  0.5882  0.2956
 6601SOL    HW121403   5.973   2.263   1.537  1.7203  0.6599  1.6396
 6601SOL    HW221404   5.980   2.129   1.445 -1.3089  1.7418 -0.3123
 6602SOL     OW21405   5.453   0.603   6.842  0.1923  0.4349 -0.4570
 6602SOL    HW121406   5.464   0.504   6.844 -0.7563  0.3320  0.0452
 6602SOL    HW221407   5.535   0.645   6.801  0.9234 -0.4919  0.0211
 6603SOL     OW21408   3.819   4.529   0.595 -0.4213  0.2653 -0.4502
 6603SOL    HW121409   3.753   4.597   0.562 -0.5234  0.9736  1.1149
 6603SOL    HW221410   3.839   4.547   0.691  1.7869 -0.1787 -0.7900
 6604SOL     OW21411   4.993   3.821   5.507 -0.4388 -0.0877 -0.8083
 6604SOL    HW121412   4.998   3.757   5.583 -0.5387  3.8737  2.9369
 6604SOL    HW221413   5.049   3.788   5.432  2.0376 -2.9899  2.0333
 6605SOL     OW21414   3.240   6.251   4.079  0.3001  0.3540  0.0477
 6605SOL    HW121415   3.227   6.287   4.171 -0.8531  0.0916  0.0046
 6605SOL    HW221416   3.202   6.159   4.073  0.8101  0.1747 -0.5632
 6606SOL     OW21417   4.535   1.889   2.615 -0.5003 -0.0621 -0.0348
 6606SOL    HW121418   4.471   1.896   2.691 -1.2168 -1.4172 -0.4827
 6606SOL    HW221419   4.511   1.957   2.545  0.4062  1.4598  1.0774
 6607SOL     OW21420   3.008   4.662   1.023 -0.5442 -0.1541  0.1319
 6607SOL    HW121421   3.051   4.688   0.937  0.1535  0.8987  0.7813
 6607SOL    HW221422   3.017   4.563   1.036 -0.0740 -0.2273 -0.6763
 6608SOL     OW21423   2.448   1.653   6.241 -0.7794 -0.2555 -0.3009
 6608SOL    HW121424   2.453   1.744   6.201  0.4046 -0.0382  0.3077
 6608SOL    HW221425   2.398   1.657   6.328 -0.1849 -0.0631  0.0375
 6609SOL     OW21426   5.025   4.761   2.562  0.3135 -0.9831  0.4822
 6609SOL    HW121427   5.053   4.779   2.468  0.9653 -0.1494  0.8229
 6609SOL    HW221428   5.065   4.674   2.592  1.9734 -0.1918  0.7033
 6610SOL     OW21429   5.710   4.893   2.121 -0.3664  0.0613  0.5606
 6610SOL    HW121430   5.683   4.797   2.113  1.3495 -0.5820  1.9034
 6610SOL    HW221431   5.667   4.946   2.048 -0.3171 -1.9606 -1.0109
 6611SOL     OW21432   1.022   1.046   0.199  0.2736  0.1504 -0.7728
 6611SOL    HW121433   1.081   1.034   0.278  1.3836  2.9437 -1.0447
 6611SOL    HW221434   1.046   0.979   0.129 -0.2405 -1.8935  0.9131
 6612SOL     OW21435   5.056   1.958   0.396 -0.2446 -0.4128  0.5285
 6612SOL    HW121436   5.007   1.963   0.309 -2.0607  1.5129  1.5904
 6612SOL    HW221437   4.991   1.940   0.470  0.8509  0.6901  1.8149
 6613SOL     OW21438   2.351   1.222   3.250 -0.4550 -0.0626  0.0917
 6613SOL    HW121439   2.390   1.253   3.336  0.3219 -1.4744  0.2714
 6613SOL    HW221440   2.286   1.148   3.267  1.5362 -2.0873 -0.6536
 6614SOL     OW21441   6.675   5.919   3.641 -0.6576  0.1819 -0.2586
 6614SOL    HW121442   6.723   5.930   3.554 -0.6142 -0.3814 -0.3085
 6614SOL    HW221443   6.700   5.831   3.682 -3.2936 -1.1567 -1.3298
 6615SOL     OW21444   6.849   6.663   2.851 -0.2159 -0.2668  0.1197
 6615SOL    HW121445   6.753   6.681   2.870  0.1192 -0.5723  2.4362
 6615SOL    HW221446   6.870   6.567   2.874  0.2353 -0.8070 -2.2875
 6616SOL     OW21447   2.577   4.171   5.350  0.3936 -0.8681 -0.3238
 6616SOL    HW121448   2.485   4.171   5.311  0.2845  0.2873 -0.0913
 6616SOL    HW221449   2.572   4.151   5.448  0.3325 -0.3199 -0.2105
 6617SOL     OW21450   4.470   6.722   4.447  1.1201  0.0817  0.0493
 6617SOL    HW121451   4.389   6.699   4.501 -0.3996  1.8446 -1.3573
 6617SOL    HW221452   4.498   6.643   4.392 -0.5517 -0.1402 -0.5269
 6618SOL     OW21453   5.094   5.113   2.107  0.4661  0.3111  0.6055
 6618SOL    HW121454   5.038   5.031   2.103  1.0523 -0.0955  0.6161
 6618SOL    HW221455   5.059   5.181   2.042  0.0907 -0.0157  0.4680
 6619SOL     OW21456   3.393   4.587   0.027 -0.2170  0.2898 -0.0227
 6619SOL    HW121457   3.476   4.534   0.041 -0.4183 -0.2713 -0.8705
 6619SOL    HW221458   3.318   4.526   0.003 -0.8532  0.8037  0.5843
 6620SOL     OW21459   4.305   4.569   0.153 -0.1464 -0.4190  0.5289
 6620SOL    HW121460   4.263   4.626   0.224 -0.1399  1.1913 -0.7095
 6620SOL    HW221461   4.396   4.541   0.182 -0.1783  0.1434  1.1953
 6621SOL     OW21462   3.570   0.662   1.582 -0.0060 -0.0528  0.2376
 6621SOL    HW121463   3.535   0.581   1.629 -0.8788  0.6322  0.8086
 6621SOL    HW221464   3.563   0.649   1.483 -0.3673 -0.5806  0.3277
 6622SOL     OW21465   2.228   3.685   2.817 -0.5392 -0.0503  0.5602
 6622SOL    HW121466   2.201   3.627   2.893  0.1667  1.4462  2.0140
 6622SOL    HW221467   2.159   3.680   2.744 -0.5005 -2.6355  0.6234
 6623SOL     OW21468   5.861   2.780   2.643  0.9322 -0.2000  0.0954
 6623SOL    HW121469   5.898   2.730   2.721  0.7286  0.9264  0.9389
 6623SOL    HW221470   5.810   2.859   2.676  1.4219  0.6811 -1.2115
 6624SOL     OW21471   4.251   4.866   5.793 -0.0208  0.1320 -0.2600
 6624SOL    HW121472   4.171   4.806   5.783 -1.4523  1.8074  0.6473
 6624SOL    HW221473   4.314   4.826   5.859 -1.2850 -0.0788  0.8632
 6625SOL     OW21474   6.283   1.600   3.357  0.2861 -0.2144 -0.9325
 6625SOL    HW121475   6.381   1.587   3.346  0.4521 -0.8179  0.8819
 6625SOL    HW221476   6.249   1.540   3.429 -1.1365  1.0302 -0.4992
 6626SOL     OW21477   4.943   5.232   6.914  0.2737 -0.0641  0.1493
 6626SOL    HW121478   4.934   5.138   6.946 -0.8250  0.7931  2.6209
 6626SOL    HW221479   4.936   5.234   6.814 -0.3654 -2.5215  0.0774
 6627SOL     OW21480   2.187   3.927   3.862  0.7988 -0.1185 -0.0683
 6627SOL    HW121481   2.238   3.896   3.942 -0.5831 -1.1172  0.4781
 6627SOL    HW221482   2.093   3.949   3.889  0.1622 -0.9361 -1.4664
 6628SOL     OW21483   5.064   5.439   1.167 -0.0037  0.0856 -0.0066
 6628SOL    HW121484   5.142   5.469   1.111  1.7334  0.2014  2.3406
 6628SOL    HW221485   5.084   5.350   1.206 -0.9137  0.2784  0.9250
 6629SOL     OW21486   2.306   3.528   3.128  0.0497  0.0287  0.2045
 6629SOL    HW121487   2.288   3.467   3.050  0.2310 -1.1148  1.0408
 6629SOL    HW221488   2.340   3.474   3.205 -1.2169  0.9721  1.4590
 6630SOL     OW21489   2.735   0.432   4.496 -0.0119  0.2557  0.4188
 6630SOL    HW121490   2.721   0.521   4.540 -1.9955  0.3030 -0.2120
 6630SOL    HW221491   2.784   0.446   4.410  2.8602  0.2840  1.9453
 6631SOL     OW21492   3.027   1.483   6.679  0.2783 -0.4915  0.2063
 6631SOL    HW121493   3.040   1.384   6.689  1.9188 -0.0969  3.3225
 6631SOL    HW221494   3.055   1.529   6.764  1.8660  2.9019 -1.9495
 6632SOL     OW21495   3.317   2.601   2.045 -0.1573  0.0070 -0.4825
 6632SOL    HW121496   3.224   2.630   2.023 -0.8879 -1.2460  0.7351
 6632SOL    HW221497   3.381   2.674   2.024 -1.4866  1.1266 -0.7698
 6633SOL     OW21498   5.073   1.742   3.366  1.1788 -0.0383  0.2882
 6633SOL    HW121499   5.014   1.675   3.320  0.6643  0.4993  0.1366
 6633SOL    HW221500   5.075   1.826   3.312  1.8677  0.0494  0.4418
 6634SOL     OW21501   2.334   4.132   0.776  0.0321  0.3313  0.3112
 6634SOL    HW121502   2.421   4.082   0.773  0.7094  1.3965  1.2059
 6634SOL    HW221503   2.303   4.140   0.871 -1.4407 -0.6558 -0.0568
 6635SOL     OW21504   0.337   4.548   2.983  0.2399 -0.6905  0.4359
 6635SOL    HW121505   0.239   4.544   2.964  0.6816 -0.7730 -2.1883
 6635SOL    HW221506   0.388   4.503   2.910  2.2765 -0.2211  1.4733
 6636SOL     OW21507   6.075   3.346   1.699  0.3094 -0.5989 -0.6967
 6636SOL    HW121508   6.174   3.349   1.715  0.2106  0.1366 -0.1709
 6636SOL    HW221509   6.042   3.253   1.714  1.0112 -0.9792 -1.4519
 6637SOL     OW21510   6.609   4.587   1.560  0.4926  0.7668  0.1694
 6637SOL    HW121511   6.695   4.630   1.533 -0.2895  2.1424 -0.2741
 6637SOL    HW221512   6.540   4.604   1.489 -0.6952  1.5274  1.4538
 6638SOL     OW21513   5.135   1.578   5.830  0.4067 -0.3730  0.3668
 6638SOL    HW121514   5.084   1.659   5.803 -0.9885 -0.9174  1.3052
 6638SOL    HW221515   5.122   1.506   5.762  2.7583  0.5506 -1.2113
 6639SOL     OW21516   3.767   5.765   1.393 -0.4502 -0.2557 -0.9371
 6639SOL    HW121517   3.792   5.787   1.298  0.7680 -1.9563 -1.0756
 6639SOL    HW221518   3.791   5.841   1.452 -2.2344  1.2858 -2.0894
 6640SOL     OW21519   5.110   3.244   1.348 -0.4150  0.8181  0.0838
 6640SOL    HW121520   5.110   3.204   1.257 -2.3109  0.3794  0.2292
 6640SOL    HW221521   5.045   3.195   1.406 -1.9233  3.2816  0.6185
 6641SOL     OW21522   4.234   0.602   3.151 -0.7027  0.3037 -0.2291
 6641SOL    HW121523   4.306   0.591   3.082  1.1291  0.2293  1.6008
 6641SOL    HW221524   4.174   0.678   3.124  1.1655  1.5991 -0.9391
 6642SOL     OW21525   0.767   6.998   1.853  0.0268  0.2215  0.0221
 6642SOL    HW121526   0.730   6.936   1.923  1.0476 -0.8285 -0.3426
 6642SOL    HW221527   0.692   7.035   1.799 -0.7043  0.3083  1.0612
 6643SOL     OW21528   0.276   2.444   3.566  0.4852  0.4231  0.9004
 6643SOL    HW121529   0.253   2.483   3.655 -0.1408  0.7527  0.6022
 6643SOL    HW221530   0.331   2.361   3.579 -0.9724 -0.4752  1.6634
 6644SOL     OW21531   4.139   2.002   3.764  0.0217  0.0622  0.0437
 6644SOL    HW121532   4.188   2.048   3.838 -1.7894  0.5038  1.0514
 6644SOL    HW221533   4.172   1.909   3.753  0.9483  0.2986  0.7756
 6645SOL     OW21534   0.780   6.224   4.200 -0.4066  0.0836  0.3007
 6645SOL    HW121535   0.778   6.227   4.100  1.0210 -0.2131  0.2443
 6645SOL    HW221536   0.808   6.313   4.235  1.8846 -0.5593  0.2825
 6646SOL     OW21537   6.051   0.945   6.545 -0.7058  0.6929 -0.2321
 6646SOL    HW121538   6.132   0.952   6.487 -0.7860  0.3807 -0.3876
 6646SOL    HW221539   6.079   0.937   6.641 -0.5124 -0.2580 -0.3552
 6647SOL     OW21540   4.368   2.927   0.206 -0.4086 -0.2598  0.0723
 6647SOL    HW121541   4.357   2.918   0.305 -0.7308 -1.8637 -0.0880
 6647SOL    HW221542   4.394   3.021   0.184  0.1776 -0.0052  1.7228
 6648SOL     OW21543   6.740   0.320   6.094  0.3412  0.0681 -0.3872
 6648SOL    HW121544   6.797   0.397   6.123  0.4458 -0.1446 -0.0236
 6648SOL    HW221545   6.654   0.355   6.055 -0.0582  0.3512  0.7048
 6649SOL     OW21546   4.611   3.698   3.094 -0.3822 -0.0946  0.1285
 6649SOL    HW121547   4.673   3.771   3.066 -0.0376 -0.3081  0.3379
 6649SOL    HW221548   4.663   3.617   3.120 -0.6166  0.4198  2.4145
 6650SOL     OW21549   1.408   2.902   3.207  0.4997 -0.2203 -0.4733
 6650SOL    HW121550   1.363   2.912   3.119 -2.1676  1.1651  0.9251
 6650SOL    HW221551   1.438   2.991   3.241 -1.3924 -0.1652  1.3234
 6651SOL     OW21552   0.734   3.335   4.580 -0.1109 -0.1698 -0.5869
 6651SOL    HW121553   0.820   3.384   4.566  0.5220 -0.8215  0.7736
 6651SOL    HW221554   0.732   3.254   4.522  0.5018 -0.4855 -0.1899
 6652SOL     OW21555   0.280   6.330   5.856  0.2616 -0.0507  0.0634
 6652SOL    HW121556   0.370   6.374   5.859 -0.0318  0.5066  1.8505
 6652SOL    HW221557   0.289   6.237   5.820  1.9750 -0.8735  2.3557
 6653SOL     OW21558   0.568   3.735   4.127  0.4765 -0.0541  0.1887
 6653SOL    HW121559   0.605   3.713   4.037  1.6262  1.2749  0.2981
 6653SOL    HW221560   0.587   3.831   4.148  0.5227 -0.4188  1.9638
 6654SOL     OW21561   0.247   1.556   5.957 -0.0956  0.2716  0.3868
 6654SOL    HW121562   0.238   1.494   6.035  1.6413 -1.0573 -0.4249
 6654SOL    HW221563   0.314   1.520   5.893  0.9700  2.9895 -0.1461
 6655SOL     OW21564   0.504   1.798   3.782  0.3369 -0.1779 -0.3457
 6655SOL    HW121565   0.503   1.820   3.879 -0.3821  0.1680 -0.4251
 6655SOL    HW221566   0.539   1.706   3.769  0.6601 -0.1386  0.2212
 6656SOL     OW21567   6.049   2.608   6.070 -0.0232  0.1089  0.5211
 6656SOL    HW121568   6.042   2.707   6.058 -0.0991  0.1085  0.5606
 6656SOL    HW221569   6.128   2.574   6.019 -1.1951 -0.1202 -1.2317
 6657SOL     OW21570   3.713   6.642   4.007 -0.3311  0.0786 -0.1517
 6657SOL    HW121571   3.706   6.688   3.918  1.2656 -0.5564 -0.6313
 6657SOL    HW221572   3.762   6.701   4.072 -0.2283 -0.0466 -0.1151
 6658SOL     OW21573   0.339   1.917   4.327 -0.0597 -0.1559 -0.5855
 6658SOL    HW121574   0.422   1.971   4.339  0.0343 -0.0415 -1.6541
 6658SOL    HW221575   0.354   1.825   4.364  0.1445  0.1978  0.2536
 6659SOL     OW21576   3.216   0.290   4.249 -0.4889 -0.1327 -0.1614
 6659SOL    HW121577   3.299   0.246   4.217 -0.5437  0.3994 -1.0850
 6659SOL    HW221578   3.155   0.222   4.291  0.1851 -0.6045  0.0594
 6660SOL     OW21579   1.347   5.840   4.916  0.0451 -0.1307  0.1637
 6660SOL    HW121580   1.436   5.885   4.907  1.2888 -2.0591  2.0133
 6660SOL    HW221581   1.338   5.770   4.845  1.1277 -1.6157  1.4363
 6661SOL     OW21582   4.121   1.315   1.810  0.4760  0.1528 -0.3112
 6661SOL    HW121583   4.144   1.403   1.851 -0.5582  0.7851 -1.0641
 6661SOL    HW221584   4.128   1.321   1.711 -0.0656 -0.4824 -0.3904
 6662SOL     OW21585   1.784   0.847   6.737  0.4712  0.3077  0.5893
 6662SOL    HW121586   1.724   0.771   6.710 -0.9966  0.8862  2.0892
 6662SOL    HW221587   1.819   0.892   6.655  2.8846 -3.0260 -0.4459
 6663SOL     OW21588   1.393   0.276   1.503 -0.4354  0.0112  0.0662
 6663SOL    HW121589   1.342   0.258   1.587 -1.2910  1.0822 -0.2041
 6663SOL    HW221590   1.483   0.314   1.526 -0.2453 -0.7112  0.5191
 6664SOL     OW21591   4.761   3.256   1.105 -0.2070  0.1859 -0.6135
 6664SOL    HW121592   4.784   3.334   1.164  0.5547 -0.2033 -0.3792
 6664SOL    HW221593   4.801   3.270   1.014  1.0337 -0.4979 -0.2016
 6665SOL     OW21594   6.557   5.576   2.202 -0.7555  0.4163 -0.2941
 6665SOL    HW121595   6.481   5.551   2.263 -1.3387  0.5943 -0.9416
 6665SOL    HW221596   6.527   5.570   2.107 -0.0593  0.8375 -0.5464
 6666SOL     OW21597   4.108   2.691   6.494  0.8396  0.4749 -0.0381
 6666SOL    HW121598   4.200   2.665   6.525  0.3498 -0.9910  0.2315
 6666SOL    HW221599   4.047   2.700   6.572  1.0097  2.7085 -0.0943
 6667SOL     OW21600   6.976   0.904   0.523  0.1034 -0.1278  0.5171
 6667SOL    HW121601   7.050   0.948   0.575  0.5902  1.1659 -1.1730
 6667SOL    HW221602   6.976   0.939   0.430 -0.4814 -2.6756 -0.5072
 6668SOL     OW21603   4.815   3.894   6.763 -0.4031 -0.5729  0.3170
 6668SOL    HW121604   4.834   3.962   6.692  0.6071  1.3037  2.2742
 6668SOL    HW221605   4.728   3.849   6.744 -0.0948 -0.2558 -2.1604
 6669SOL     OW21606   1.210   2.339   2.459 -0.0306 -0.1279  0.3900
 6669SOL    HW121607   1.293   2.389   2.435 -0.3160  0.6601  0.9952
 6669SOL    HW221608   1.200   2.336   2.559  1.5209 -3.9434  0.6090
 6670SOL     OW21609   0.379   5.367   1.720  0.5894  0.7326  0.0427
 6670SOL    HW121610   0.399   5.414   1.635  4.2931  1.4408  1.0999
 6670SOL    HW221611   0.299   5.407   1.763  1.0104  3.1070 -1.2304
 6671SOL     OW21612   4.429   2.216   6.105 -0.0089 -0.2515 -0.5219
 6671SOL    HW121613   4.472   2.246   6.020  1.0127 -0.3600 -0.0516
 6671SOL    HW221614   4.459   2.274   6.181  1.8279 -2.2295  0.3605
 6672SOL     OW21615   1.756   1.991   6.410  0.6097 -0.2110 -0.2729
 6672SOL    HW121616   1.774   1.918   6.476 -2.5640 -0.7202  0.1706
 6672SOL    HW221617   1.745   2.078   6.459  0.7388 -0.1196 -0.4058
 6673SOL     OW21618   0.030   2.161   3.595  0.2638  0.3966 -0.3157
 6673SOL    HW121619  -0.054   2.153   3.649 -1.1760 -1.9514 -2.6612
 6673SOL    HW221620   0.100   2.206   3.650 -2.2788  1.8899  1.9833
 6674SOL     OW21621   3.103   6.482   2.246  0.2376  0.8317  0.4396
 6674SOL    HW121622   3.185   6.536   2.227  0.5033 -0.3578 -2.2360
 6674SOL    HW221623   3.090   6.415   2.173 -1.9252 -0.4899  1.9389
 6675SOL     OW21624   2.485   2.143   1.193 -0.0420  0.0950  0.6171
 6675SOL    HW121625   2.394   2.112   1.165 -0.5280  0.9116  1.2433
 6675SOL    HW221626   2.531   2.185   1.115 -0.0549 -0.6338  0.2085
 6676SOL     OW21627   4.986   1.366   1.886 -0.3438 -0.2372  0.0656
 6676SOL    HW121628   4.931   1.297   1.933 -2.2746 -0.0821 -1.7989
 6676SOL    HW221629   4.964   1.365   1.788  1.6207  1.1699 -0.4540
 6677SOL     OW21630   1.485   4.801   3.599 -0.0964 -0.4670 -1.0086
 6677SOL    HW121631   1.434   4.811   3.684 -0.2612  0.0942 -1.1727
 6677SOL    HW221632   1.438   4.850   3.526 -0.1578 -1.2496 -1.5117
 6678SOL     OW21633   1.464   4.278   0.956  0.3342 -0.6445 -0.3766
 6678SOL    HW121634   1.560   4.284   0.927  0.5950 -0.7558  0.4179
 6678SOL    HW221635   1.450   4.340   1.034  0.2237 -1.9813  0.6929
 6679SOL     OW21636   3.596   6.519   4.388  0.5403 -0.2614 -0.1698
 6679SOL    HW121637   3.540   6.523   4.305  0.0987 -0.3007  0.1178
 6679SOL    HW221638   3.648   6.433   4.389  1.5642  0.3251 -1.0331
 6680SOL     OW21639   4.699   2.423   4.458 -0.5807 -0.1292 -0.1965
 6680SOL    HW121640   4.707   2.404   4.555  0.7368 -0.1013 -0.2773
 6680SOL    HW221641   4.727   2.518   4.440  0.0148 -0.3875 -0.6897
 6681SOL     OW21642   1.662   3.606   5.551 -0.4142  0.0939  1.0756
 6681SOL    HW121643   1.581   3.577   5.602  0.0075  0.1063  1.7599
 6681SOL    HW221644   1.706   3.683   5.597 -0.0355  0.1173  0.6883
 6682SOL     OW21645   4.937   4.646   1.929 -0.2161  0.1070  0.3676
 6682SOL    HW121646   4.917   4.676   1.836  2.2292 -1.1452 -0.6706
 6682SOL    HW221647   4.973   4.553   1.927  2.1462  0.8518  2.2346
 6683SOL     OW21648   6.813   0.403   3.160  0.4258  0.6024  0.5135
 6683SOL    HW121649   6.905   0.378   3.130  0.5132 -0.2533  1.4225
 6683SOL    HW221650   6.749   0.331   3.131 -0.0204  1.3514 -0.3970
 6684SOL     OW21651   5.262   6.180   5.780 -0.4688  0.0728 -0.3381
 6684SOL    HW121652   5.171   6.196   5.741 -0.2458  0.6242 -0.6424
 6684SOL    HW221653   5.331   6.226   5.724  0.0111 -0.4152 -0.1631
 6685SOL     OW21654   3.513   5.462   2.485 -0.3935  0.0099  0.2738
 6685SOL    HW121655   3.580   5.437   2.555 -0.3230 -0.4262  0.0525
 6685SOL    HW221656   3.547   5.435   2.395 -2.1630 -3.0544  0.4084
 6686SOL     OW21657   1.347   6.892   5.885  0.3126 -0.2303 -0.4028
 6686SOL    HW121658   1.256   6.850   5.878  0.3897 -0.4167 -0.2743
 6686SOL    HW221659   1.412   6.840   5.828  0.4468 -0.3919 -0.1029
 6687SOL     OW21660   5.761   2.869   4.567 -0.4143  0.0655  0.9539
 6687SOL    HW121661   5.836   2.871   4.633  0.4389 -2.9001  0.2099
 6687SOL    HW221662   5.676   2.843   4.614 -0.5516  1.2329  1.3975
 6688SOL     OW21663   4.500   3.451   2.881 -0.1543 -0.0574  0.2550
 6688SOL    HW121664   4.600   3.456   2.869  0.0483 -0.3930  1.6608
 6688SOL    HW221665   4.467   3.538   2.918 -0.1587 -0.4328  1.1704
 6689SOL     OW21666   3.168   1.966   4.583 -0.8211 -0.2230 -0.0499
 6689SOL    HW121667   3.099   1.905   4.621 -0.9036 -0.1329 -0.0551
 6689SOL    HW221668   3.217   1.920   4.509 -1.7603  0.1773 -0.9275
 6690SOL     OW21669   6.742   0.013   5.728  0.3287  0.2699  0.4394
 6690SOL    HW121670   6.797   0.038   5.648  0.3182 -0.2223  0.2699
 6690SOL    HW221671   6.678   0.087   5.749 -0.0483  0.1920 -0.3529
 6691SOL     OW21672   1.674   3.773   4.306 -0.0710 -0.0713 -0.1511
 6691SOL    HW121673   1.617   3.699   4.270 -0.1294  0.3946 -1.0532
 6691SOL    HW221674   1.664   3.778   4.405 -1.0502 -0.4499 -0.2206
 6692SOL     OW21675   1.173   5.160   1.612 -0.6430 -0.3168 -0.8270
 6692SOL    HW121676   1.258   5.180   1.563  0.2516  0.0278  0.8109
 6692SOL    HW221677   1.194   5.120   1.701 -2.1707  0.4096 -0.1000
 6693SOL     OW21678   6.541   2.182   3.115  0.4138 -0.1286  0.0525
 6693SOL    HW121679   6.575   2.271   3.145  0.0373  0.5129 -1.3392
 6693SOL    HW221680   6.604   2.111   3.146  0.7095  0.5969  1.2053
 6694SOL     OW21681   6.199   4.706   4.087 -0.1101 -0.7540  0.5711
 6694SOL    HW121682   6.252   4.732   4.168  2.2519  0.0458 -1.1142
 6694SOL    HW221683   6.191   4.606   4.083  2.5354 -1.0320  0.2365
 6695SOL     OW21684   1.569   0.465   2.357 -0.1456 -0.1896  0.2169
 6695SOL    HW121685   1.616   0.552   2.346 -0.8762  0.3222  0.9839
 6695SOL    HW221686   1.627   0.390   2.325  0.8021  0.5109  0.2844
 6696SOL     OW21687   2.230   3.007   1.424 -0.2975  0.4978 -0.1461
 6696SOL    HW121688   2.201   3.021   1.330 -0.7700 -3.7136 -0.8427
 6696SOL    HW221689   2.325   3.037   1.435 -0.0488  0.5549 -2.1413
 6697SOL     OW21690   1.460   0.609   0.549 -0.0667  0.3462 -0.2784
 6697SOL    HW121691   1.408   0.543   0.494  1.9665 -1.1697 -0.4796
 6697SOL    HW221692   1.427   0.607   0.643  0.7619 -1.9366  0.0127
 6698SOL     OW21693   0.331   3.098   2.193 -0.6741  0.2243  0.4726
 6698SOL    HW121694   0.402   3.130   2.255 -0.5035  1.3569 -0.2824
 6698SOL    HW221695   0.244   3.144   2.214 -0.3839  1.4013 -0.7356
 6699SOL     OW21696   3.762   5.123   3.576 -0.5678 -0.0104 -0.5731
 6699SOL    HW121697   3.780   5.140   3.478 -2.4352  1.4709 -0.7113
 6699SOL    HW221698   3.678   5.170   3.603 -0.9530 -1.7176  1.4039
 6700SOL     OW21699   2.838   4.154   1.239  0.2201 -0.4140 -0.0506
 6700SOL    HW121700   2.876   4.118   1.154 -0.6276  0.5073 -0.8498
 6700SOL    HW221701   2.764   4.218   1.218  0.2731  0.1589  1.3788
 6701SOL     OW21702   2.387   2.379   0.223  0.6615  0.2730 -0.5669
 6701SOL    HW121703   2.344   2.359   0.135  1.0665  0.5332 -0.8242
 6701SOL    HW221704   2.444   2.461   0.215  1.7924 -0.4814 -0.4239
 6702SOL     OW21705   6.024   3.545   4.448  0.1686 -0.9297  0.2051
 6702SOL    HW121706   5.966   3.514   4.373 -0.9697 -2.9149  1.7972
 6702SOL    HW221707   5.967   3.564   4.528  1.2967  1.5360  0.5173
 6703SOL     OW21708   5.310   3.987   4.296  0.3330  0.2655 -0.4052
 6703SOL    HW121709   5.325   3.888   4.296  1.3510  0.4092 -0.7385
 6703SOL    HW221710   5.317   4.022   4.203 -0.9743  0.5304 -0.4221
 6704SOL     OW21711   3.921   5.069   3.990  0.4386  0.2191 -0.5572
 6704SOL    HW121712   3.868   4.984   3.987  2.3059 -1.1097  1.5423
 6704SOL    HW221713   3.989   5.068   3.917 -0.4127  0.5825 -1.3859
 6705SOL     OW21714   0.167   4.205   5.089 -0.9431 -0.6447 -0.2299
 6705SOL    HW121715   0.145   4.300   5.108 -0.9956 -0.3022 -1.8997
 6705SOL    HW221716   0.266   4.192   5.091 -0.8064 -0.0631 -2.0729
 6706SOL     OW21717   0.298   2.511   4.925 -0.3517 -0.4979 -0.3593
 6706SOL    HW121718   0.234   2.554   4.861 -1.7598 -2.5001 -0.3983
 6706SOL    HW221719   0.310   2.569   5.005  1.0106  1.8155 -2.1134
 6707SOL     OW21720   5.447   3.411   3.847  0.0953 -0.1814 -0.6117
 6707SOL    HW121721   5.433   3.509   3.831  0.1165 -0.1666 -0.5409
 6707SOL    HW221722   5.538   3.385   3.814  1.6401  0.5955  2.6428
 6708SOL     OW21723   3.261   5.440   6.289  0.0972 -0.2124 -0.4287
 6708SOL    HW121724   3.360   5.452   6.301 -0.0019 -0.8323  1.1675
 6708SOL    HW221725   3.218   5.529   6.272  0.8043  0.1769 -0.1990
 6709SOL     OW21726   4.082   6.111   1.494 -0.4007 -0.0870 -0.3166
 6709SOL    HW121727   4.165   6.141   1.540 -1.1444  1.3067  0.1763
 6709SOL    HW221728   4.023   6.190   1.478 -1.2740 -0.9356 -1.3861
 6710SOL     OW21729   4.071   4.484   6.240  0.0976  0.0500 -0.4865
 6710SOL    HW121730   4.021   4.504   6.325  0.3704 -2.7559  0.4447
 6710SOL    HW221731   4.076   4.567   6.185  2.6359  3.0186  3.5807
 6711SOL     OW21732   1.066   5.359   4.832 -0.6675 -0.6005  1.0148
 6711SOL    HW121733   1.090   5.334   4.738 -1.2041 -0.3654  0.8104
 6711SOL    HW221734   1.019   5.282   4.876  0.8870 -1.2703  1.5987
 6712SOL     OW21735   4.760   6.760   4.132 -0.4409  1.0956 -0.0061
 6712SOL    HW121736   4.858   6.781   4.135  0.0088 -0.8786  1.1262
 6712SOL    HW221737   4.746   6.665   4.159 -2.4965  0.6330 -2.3743
 6713SOL     OW21738   0.187   0.986   5.308  0.2628 -0.4289  0.4846
 6713SOL    HW121739   0.216   1.054   5.240  2.0503 -0.5038  1.1117
 6713SOL    HW221740   0.246   0.906   5.303 -1.8652 -2.0487 -0.2944
 6714SOL     OW21741   3.889   5.480   0.633 -0.5887 -0.3245  0.5444
 6714SOL    HW121742   3.970   5.454   0.685 -0.3033 -0.9528 -0.1913
 6714SOL    HW221743   3.866   5.407   0.569 -0.3339  0.8217 -0.9184
 6715SOL     OW21744   4.869   2.926   3.287 -0.3186 -0.3096 -0.3123
 6715SOL    HW121745   4.829   2.868   3.357 -1.9422  2.4704  1.1958
 6715SOL    HW221746   4.948   2.975   3.324  0.7383 -1.0756 -1.4264
 6716SOL     OW21747   4.410   3.526   1.233  0.3334  0.3958  0.2985
 6716SOL    HW121748   4.469   3.469   1.176  0.2109  1.1757 -0.6427
 6716SOL    HW221749   4.449   3.618   1.239 -0.4340  0.7354  0.2141
 6717SOL     OW21750   5.560   2.148   4.820  0.7879  0.1305 -0.4680
 6717SOL    HW121751   5.565   2.221   4.889  0.5727  0.3626 -0.6942
 6717SOL    HW221752   5.465   2.123   4.805  0.9162 -0.8796  0.3083
 6718SOL     OW21753   1.988   2.677   6.201  0.6778 -0.3137 -0.2206
 6718SOL    HW121754   1.950   2.709   6.288 -1.2146  0.8064 -1.3739
 6718SOL    HW221755   2.060   2.739   6.171  1.5193 -0.8508  0.6528
 6719SOL     OW21756   2.920   3.821   6.810 -0.0736  0.2218 -0.2914
 6719SOL    HW121757   2.878   3.783   6.728  0.3505 -0.9307  0.0079
 6719SOL    HW221758   3.017   3.798   6.811 -0.4478 -1.4725  1.4790
 6720SOL     OW21759   3.103   4.516   2.108  0.4116  0.1944  0.0546
 6720SOL    HW121760   3.032   4.544   2.173 -1.2267  0.3853 -1.7344
 6720SOL    HW221761   3.182   4.577   2.116 -0.4065  1.1906  0.7807
 6721SOL     OW21762   1.432   6.434   0.817  0.1088 -0.6220  0.7652
 6721SOL    HW121763   1.341   6.460   0.783  0.9658 -1.3997 -2.4151
 6721SOL    HW221764   1.437   6.335   0.827  0.8707 -0.6655  0.0260
 6722SOL     OW21765   4.685   1.203   0.602 -0.0008 -0.0490 -0.4205
 6722SOL    HW121766   4.779   1.215   0.569  0.0602  2.5243  0.4754
 6722SOL    HW221767   4.681   1.125   0.664  2.2030  1.3339  1.6370
 6723SOL     OW21768   1.201   2.503   6.726  0.2618 -0.2120 -0.4892
 6723SOL    HW121769   1.167   2.508   6.632  1.3324  0.5032 -0.8550
 6723SOL    HW221770   1.298   2.528   6.728 -0.0591  1.0679  0.9745
 6724SOL     OW21771   6.510   1.570   0.887  0.2917 -0.4340 -0.0849
 6724SOL    HW121772   6.598   1.537   0.920  0.0088 -0.4960  0.6291
 6724SOL    HW221773   6.523   1.656   0.838  0.8021 -0.6776 -0.3793
 6725SOL     OW21774   1.612   4.579   2.468 -0.4786  0.5487 -0.4396
 6725SOL    HW121775   1.635   4.536   2.555  1.2593  2.4382  0.1316
 6725SOL    HW221776   1.578   4.511   2.404 -0.1486 -1.1873  1.1655
 6726SOL     OW21777   4.238   4.936   2.852  0.0986 -0.1373 -0.4184
 6726SOL    HW121778   4.228   4.904   2.947 -1.5375 -1.1995 -0.9078
 6726SOL    HW221779   4.171   4.890   2.794 -0.2837  1.9711 -1.7536
 6727SOL     OW21780   6.889   3.483   5.585  0.0326 -0.2342  0.4470
 6727SOL    HW121781   6.815   3.417   5.578 -0.7663  0.6220  0.7056
 6727SOL    HW221782   6.917   3.512   5.494 -0.9723  0.5502  0.3710
 6728SOL     OW21783   3.414   1.735   1.273  0.5407  0.6818  0.0147
 6728SOL    HW121784   3.389   1.745   1.369 -1.7167  2.5085 -0.6983
 6728SOL    HW221785   3.488   1.798   1.251  0.4961  0.8542  0.3534
 6729SOL     OW21786   3.558   6.806   2.226 -0.0249 -0.4955 -0.4219
 6729SOL    HW121787   3.520   6.888   2.269  0.5328  1.2876 -3.0493
 6729SOL    HW221788   3.652   6.792   2.257 -0.5811 -1.0072  1.0971
 6730SOL     OW21789   3.389   5.676   3.459  0.6412  0.0103 -0.0287
 6730SOL    HW121790   3.445   5.759   3.463  2.0024 -0.9385  1.9010
 6730SOL    HW221791   3.394   5.637   3.367 -0.0223  2.0229 -0.9674
 6731SOL     OW21792   1.477   6.730   3.352 -0.0372 -0.4604 -0.0796
 6731SOL    HW121793   1.476   6.824   3.385  0.4663 -0.1989 -0.7694
 6731SOL    HW221794   1.565   6.711   3.308 -0.3328 -1.0835 -0.4191
 6732SOL     OW21795   6.122   2.813   4.332  0.2816 -0.7165 -0.8654
 6732SOL    HW121796   6.205   2.759   4.314 -0.5233 -2.3843  0.1265
 6732SOL    HW221797   6.066   2.765   4.400 -1.4041  0.4845 -1.3584
 6733SOL     OW21798   6.389   4.163   6.928 -0.7411 -0.0890  0.1318
 6733SOL    HW121799   6.468   4.196   6.876 -0.0521 -1.6791  0.1376
 6733SOL    HW221800   6.306   4.178   6.875 -0.1229 -1.0286 -1.1340
 6734SOL     OW21801   2.232   4.113   3.199  0.3175 -0.6331 -0.0199
 6734SOL    HW121802   2.261   4.069   3.284  0.0607  0.0832  0.4556
 6734SOL    HW221803   2.140   4.150   3.212  0.8866  0.8565 -0.0747
 6735SOL     OW21804   0.259   0.943   3.245  0.3372  0.0593 -0.0854
 6735SOL    HW121805   0.159   0.937   3.253  0.2592  2.0872  1.0600
 6735SOL    HW221806   0.284   0.977   3.154  0.0510 -1.2162 -0.6587
 6736SOL     OW21807   0.363   6.436   1.563  0.1354 -0.7938 -0.8806
 6736SOL    HW121808   0.369   6.353   1.619  0.9241  1.2967  2.3789
 6736SOL    HW221809   0.267   6.464   1.555  0.1411  0.4768  2.1773
 6737SOL     OW21810   1.908   0.169   2.258  0.1628  0.1926  0.4972
 6737SOL    HW121811   1.831   0.108   2.238 -1.2397  1.6033  1.3979
 6737SOL    HW221812   1.932   0.220   2.175  0.3692 -0.4780  0.1313
 6738SOL     OW21813   3.382   5.080   5.162  0.2247  0.4399  0.0211
 6738SOL    HW121814   3.364   4.996   5.111  0.7971 -0.9477  1.9706
 6738SOL    HW221815   3.300   5.106   5.212  0.5086  0.1240  0.6584
 6739SOL     OW21816   6.420   4.075   6.280  0.5015 -0.3369 -0.7244
 6739SOL    HW121817   6.427   4.142   6.354 -0.6336  0.3375 -1.2038
 6739SOL    HW221818   6.479   3.997   6.300 -1.0431 -0.9680  1.7267
 6740SOL     OW21819   6.852   3.690   5.770 -0.2330  0.0480 -0.5858
 6740SOL    HW121820   6.864   3.603   5.723  1.3952 -1.5946  2.6025
 6740SOL    HW221821   6.934   3.747   5.757 -0.5070  0.3376 -1.0946
 6741SOL     OW21822   3.739   6.459   0.799  0.3407 -0.0371  0.3222
 6741SOL    HW121823   3.737   6.509   0.885 -0.3309  0.3824  0.0697
 6741SOL    HW221824   3.648   6.459   0.757  0.7198  0.0211 -0.5325
 6742SOL     OW21825   6.499   2.696   0.397  0.2027 -1.1187  0.2455
 6742SOL    HW121826   6.527   2.790   0.379  1.6823 -1.5929 -0.1311
 6742SOL    HW221827   6.448   2.692   0.483 -0.4428  0.1071 -0.0642
 6743SOL     OW21828   0.445   3.328   1.697  0.2581  0.6055  0.3974
 6743SOL    HW121829   0.443   3.258   1.768 -1.0508  0.0392 -0.1533
 6743SOL    HW221830   0.514   3.397   1.719  2.7894 -1.6909  0.1267
 6744SOL     OW21831   2.819   2.204   6.602  0.1421 -0.1464  0.4914
 6744SOL    HW121832   2.811   2.153   6.688 -1.6207 -0.4996  0.1608
 6744SOL    HW221833   2.890   2.274   6.612 -1.5478  1.3948  3.0854
 6745SOL     OW21834   1.592   6.242   6.126  0.1464 -0.0188  0.0476
 6745SOL    HW121835   1.638   6.253   6.214 -0.0431 -1.1446  0.3055
 6745SOL    HW221836   1.647   6.184   6.066 -0.0024  0.2662 -0.3753
 6746SOL     OW21837   3.767   4.776   0.305 -0.1640 -0.3796 -0.0016
 6746SOL    HW121838   3.754   4.853   0.243 -0.7093  1.5763  2.3943
 6746SOL    HW221839   3.679   4.738   0.331 -0.0374 -0.1893  0.7303
 6747SOL     OW21840   6.301   1.695   5.804 -0.1717 -0.1292 -0.3119
 6747SOL    HW121841   6.220   1.750   5.781 -1.0317 -1.0572  0.4019
 6747SOL    HW221842   6.272   1.608   5.843  1.1834  0.1665  1.4855
 6748SOL     OW21843   1.941   3.750   0.502 -0.3027 -0.1266 -0.3974
 6748SOL    HW121844   2.033   3.770   0.468 -0.6897  0.1640 -1.3197
 6748SOL    HW221845   1.894   3.835   0.525  0.3495 -0.3683  2.0450
 6749SOL     OW21846   5.119   0.629   2.087 -0.2898 -0.2843 -0.0956
 6749SOL    HW121847   5.088   0.692   2.016 -0.5282  0.8856  1.0029
 6749SOL    HW221848   5.216   0.610   2.074  0.5864  2.6665  1.1385
 6750SOL     OW21849   1.032   2.831   4.537 -0.0807 -0.2257  0.5712
 6750SOL    HW121850   1.031   2.800   4.631  1.1179  0.4627  0.8381
 6750SOL    HW221851   1.124   2.820   4.499 -0.8507 -1.7825 -0.9833
 6751SOL     OW21852   5.886   6.530   3.042  0.0880 -0.6063 -0.1792
 6751SOL    HW121853   5.885   6.493   3.135 -1.0342  3.5536  1.6880
 6751SOL    HW221854   5.830   6.472   2.982 -0.2381 -2.6948  2.0132
 6752SOL     OW21855   6.771   0.803   0.310 -0.5063  0.2503 -0.2100
 6752SOL    HW121856   6.672   0.798   0.322 -0.2957 -2.2477  1.1764
 6752SOL    HW221857   6.816   0.798   0.399  0.8909  0.7253 -0.8636
 6753SOL     OW21858   0.696   4.675   3.700 -0.4878 -0.5616  0.1303
 6753SOL    HW121859   0.673   4.743   3.769  1.9750  1.3531 -0.7773
 6753SOL    HW221860   0.793   4.652   3.707 -0.7441 -2.1996 -1.1193
 6754SOL     OW21861   3.177   0.520   4.798  0.2164  0.0651  0.8220
 6754SOL    HW121862   3.107   0.590   4.786 -0.2285 -0.4264  0.4988
 6754SOL    HW221863   3.142   0.448   4.859  0.5083 -0.0949  0.8016
 6755SOL     OW21864   1.136   4.439   6.563  0.0201 -0.3096  0.5618
 6755SOL    HW121865   1.126   4.458   6.466  0.1497  0.8809  0.7659
 6755SOL    HW221866   1.046   4.434   6.606 -0.0263 -0.4823  0.4433
 6756SOL     OW21867   6.301   5.328   5.262  0.2307 -0.5197  0.6278
 6756SOL    HW121868   6.232   5.279   5.317  1.4788 -0.2073  2.5434
 6756SOL    HW221869   6.257   5.403   5.214 -0.8092 -0.3424  1.7866
 6757SOL     OW21870   4.150   1.389   3.038 -0.0180  0.2839 -0.3585
 6757SOL    HW121871   4.160   1.489   3.036 -0.0796  0.3298  0.8439
 6757SOL    HW221872   4.238   1.348   3.063 -0.4491  0.1485  0.9574
 6758SOL     OW21873   5.441   6.374   1.285  0.1389  0.2850  0.0345
 6758SOL    HW121874   5.382   6.306   1.328  1.1962 -0.2688  0.6332
 6758SOL    HW221875   5.443   6.359   1.186  1.3274 -1.3594  0.2674
 6759SOL     OW21876   1.269   1.646   6.973 -0.1600 -0.3161  1.0178
 6759SOL    HW121877   1.321   1.676   7.052  1.1600  0.5420 -0.1301
 6759SOL    HW221878   1.302   1.694   6.891 -0.7967 -1.9019 -0.2216
 6760SOL     OW21879   4.180   1.500   4.093 -0.0286 -0.4471  0.3429
 6760SOL    HW121880   4.147   1.410   4.065 -1.2634  0.5124 -1.4869
 6760SOL    HW221881   4.248   1.532   4.027 -0.5386  0.4692  0.2464
 6761SOL     OW21882   1.837   4.639   2.780  0.0833 -0.1201  0.4760
 6761SOL    HW121883   1.820   4.556   2.727  1.6851  0.7253 -1.4454
 6761SOL    HW221884   1.758   4.700   2.772 -0.0365 -0.3613 -0.2153
 6762SOL     OW21885   6.543   0.098   1.360 -0.0967  0.1983  0.6122
 6762SOL    HW121886   6.533   0.131   1.266  0.4572  0.8247  0.7622
 6762SOL    HW221887   6.454   0.098   1.405 -0.2561  0.5800  0.3036
 6763SOL     OW21888   4.970   6.107   3.249  0.3629 -0.4200 -0.0129
 6763SOL    HW121889   4.994   6.043   3.322  1.4710  0.2150  0.2065
 6763SOL    HW221890   5.052   6.128   3.195  0.1579  1.2168  0.2640
 6764SOL     OW21891   2.776   2.167   4.864  0.4378  0.1295  0.0534
 6764SOL    HW121892   2.789   2.067   4.864 -1.5737 -0.1873 -0.3901
 6764SOL    HW221893   2.690   2.188   4.817  1.3523  2.1681 -0.7924
 6765SOL     OW21894   3.549   0.256   3.833 -0.4226  0.1614  0.1877
 6765SOL    HW121895   3.551   0.264   3.932 -1.2028 -1.0284  0.3195
 6765SOL    HW221896   3.495   0.332   3.795 -0.8592  0.1362  0.7416
 6766SOL     OW21897   0.813   1.677   2.131 -0.4356  0.0267  0.0073
 6766SOL    HW121898   0.900   1.679   2.082 -0.5316  0.4961 -0.1452
 6766SOL    HW221899   0.786   1.582   2.147 -0.9037 -0.1661 -1.7477
 6767SOL     OW21900   4.991   3.916   3.584 -0.4636  0.0595  0.4046
 6767SOL    HW121901   5.016   3.819   3.593 -0.0607  0.1205 -0.0355
 6767SOL    HW221902   4.891   3.925   3.584 -0.5045 -0.2907  1.1052
 6768SOL     OW21903   1.498   5.955   1.356  0.5274  0.9290  0.1616
 6768SOL    HW121904   1.451   5.896   1.421  1.4444  1.5194  1.3999
 6768SOL    HW221905   1.448   6.041   1.345  0.1584  0.6705 -0.2549
 6769SOL     OW21906   5.077   0.023   1.168 -0.0766  0.0184  0.4457
 6769SOL    HW121907   5.160   0.064   1.130 -0.4002  0.9151  0.6928
 6769SOL    HW221908   4.996   0.063   1.123 -0.3843 -2.9782 -2.0224
 6770SOL     OW21909   3.761   3.357   3.742 -0.2469  0.0588 -0.0009
 6770SOL    HW121910   3.721   3.400   3.661  0.6757 -0.3275 -0.6825
 6770SOL    HW221911   3.852   3.322   3.719 -0.1939 -0.5322  1.0644
 6771SOL     OW21912   1.076   5.266   3.243 -0.7495  0.2567 -0.0217
 6771SOL    HW121913   0.997   5.213   3.274  0.9661 -1.9597  0.9003
 6771SOL    HW221914   1.122   5.307   3.322 -1.3794  2.2256 -0.6223
 6772SOL     OW21915   3.607   0.264   2.378 -0.4799 -0.4663 -0.5430
 6772SOL    HW121916   3.602   0.223   2.469 -0.3237 -0.1795 -0.4033
 6772SOL    HW221917   3.616   0.363   2.387 -1.7367 -0.3064 -0.8933
 6773SOL     OW21918   1.566   6.532   1.549 -0.1088  0.0654 -0.2687
 6773SOL    HW121919   1.638   6.599   1.568 -2.2185  2.2206  0.6574
 6773SOL    HW221920   1.498   6.572   1.489 -2.1145 -0.7610  1.3499
 6774SOL     OW21921   3.457   2.070   4.656  0.1313  0.0303 -0.3855
 6774SOL    HW121922   3.462   2.112   4.747  0.1977 -0.7250 -0.0307
 6774SOL    HW221923   3.374   2.016   4.649 -1.1726  2.0528 -1.6614
 6775SOL     OW21924   1.756   1.653   1.624  0.1920 -0.8867  0.4885
 6775SOL    HW121925   1.758   1.685   1.719  0.5569  0.7146 -0.0199
 6775SOL    HW221926   1.825   1.582   1.611 -0.3416 -1.6223  1.5769
 6776SOL     OW21927   0.127   4.879   6.907  0.0876 -0.4504 -0.3006
 6776SOL    HW121928   0.216   4.925   6.905 -0.6182  1.0216  0.6178
 6776SOL    HW221929   0.116   4.826   6.823  1.3442  0.2795 -0.9724
 6777SOL     OW21930   0.665   5.141   0.954 -0.1472  0.1716 -0.8849
 6777SOL    HW121931   0.600   5.103   1.020 -0.4239 -0.4041 -1.4721
 6777SOL    HW221932   0.619   5.152   0.865  0.1801  1.0603 -0.9549
 6778SOL     OW21933   4.821   3.442   4.920  0.2787  0.4351  1.0088
 6778SOL    HW121934   4.872   3.524   4.944  1.2228 -0.0115  0.5653
 6778SOL    HW221935   4.745   3.467   4.859  1.0163  0.8822  0.2576
 6779SOL     OW21936   3.801   0.519   0.896 -0.5187 -0.5237  0.5800
 6779SOL    HW121937   3.747   0.493   0.976  0.5259  0.5398  1.6588
 6779SOL    HW221938   3.856   0.599   0.917 -1.7819  1.0976 -1.8731
 6780SOL     OW21939   0.214   4.301   3.095 -0.5442 -0.2107 -0.6850
 6780SOL    HW121940   0.199   4.264   3.187  2.9548 -0.5079 -0.1027
 6780SOL    HW221941   0.284   4.372   3.099 -0.0169 -0.5165 -3.1979
 6781SOL     OW21942   4.947   4.138   3.218  0.0297  0.0745  0.1079
 6781SOL    HW121943   4.917   4.152   3.124 -0.7077  1.6320  0.5389
 6781SOL    HW221944   5.046   4.135   3.221  0.0479 -0.5706 -0.7891
 6782SOL     OW21945   4.343   1.354   5.463 -0.1854  0.8298  0.3068
 6782SOL    HW121946   4.389   1.332   5.549 -0.5163  1.1684  0.5721
 6782SOL    HW221947   4.306   1.447   5.468  1.0265  1.4020 -0.7276
 6783SOL     OW21948   5.972   3.481   2.746  0.3152  0.0312  0.0997
 6783SOL    HW121949   5.979   3.385   2.772  0.3112  0.3666  1.4062
 6783SOL    HW221950   6.063   3.521   2.740  0.4653 -0.5436 -2.5199
 6784SOL     OW21951   6.868   6.993   0.237  0.1305 -0.1662  0.0854
 6784SOL    HW121952   6.849   6.975   0.334  0.1811  0.7029  0.2638
 6784SOL    HW221953   6.859   6.908   0.185  2.1608 -1.1124  1.1586
 6785SOL     OW21954   3.691   5.000   4.722  0.0551 -0.3967 -0.0264
 6785SOL    HW121955   3.605   5.043   4.751  0.2556 -0.9785  1.4718
 6785SOL    HW221956   3.762   5.018   4.789  0.5560 -1.7294 -0.1735
 6786SOL     OW21957   2.933   5.445   0.050 -0.0957 -0.6800 -0.0515
 6786SOL    HW121958   2.994   5.482   0.120 -2.6487  1.4737  1.2031
 6786SOL    HW221959   2.936   5.504  -0.031  0.5785 -1.4664 -0.6281
 6787SOL     OW21960   6.725   1.946   2.809 -0.5863  0.3541  0.1435
 6787SOL    HW121961   6.783   2.019   2.846 -0.5020  1.9244 -2.8216
 6787SOL    HW221962   6.633   1.982   2.792 -0.7584 -0.4304 -0.6526
 6788SOL     OW21963   2.135   0.949   1.979 -0.4405  0.5172 -0.4042
 6788SOL    HW121964   2.106   0.854   1.992 -2.7355  1.2104  0.0674
 6788SOL    HW221965   2.233   0.957   1.993  0.2500 -2.1904 -2.8855
 6789SOL     OW21966   3.911   3.627   2.115  0.0928 -0.3609 -0.5461
 6789SOL    HW121967   3.896   3.528   2.108  3.1911 -1.0031  0.6036
 6789SOL    HW221968   4.009   3.646   2.122 -0.5247  2.5724  2.4899
 6790SOL     OW21969   3.624   4.220   6.808  0.3029  0.0772  0.3380
 6790SOL    HW121970   3.651   4.311   6.777  0.7894  0.5034  1.9354
 6790SOL    HW221971   3.685   4.190   6.882 -0.7921 -0.8825  0.8923
 6791SOL     OW21972   1.630   0.050   1.167  0.0561  0.1323  0.2370
 6791SOL    HW121973   1.603   0.076   1.075 -0.5301 -0.8649  0.1198
 6791SOL    HW221974   1.571  -0.023   1.200  0.7262 -0.0257  1.1245
 6792SOL     OW21975   2.706   0.866   0.388  0.7022  0.0075 -0.3151
 6792SOL    HW121976   2.769   0.901   0.458  0.9525  0.9005 -0.9760
 6792SOL    HW221977   2.619   0.916   0.393  0.4388 -0.4578 -0.1439
 6793SOL     OW21978   6.044   0.296   4.097  0.2780 -0.4377  0.0471
 6793SOL    HW121979   6.100   0.235   4.153 -0.8934 -0.4281  1.2657
 6793SOL    HW221980   6.073   0.391   4.112  0.0515 -0.4449  0.5582
 6794SOL     OW21981   6.820   4.128   4.829  0.2075  0.3245  0.0712
 6794SOL    HW121982   6.872   4.093   4.907  1.3489  1.3288 -0.2046
 6794SOL    HW221983   6.731   4.160   4.861 -1.3940 -3.6989  0.1751
 6795SOL     OW21984   5.118   6.597   3.106  0.2172  0.1249 -0.0338
 6795SOL    HW121985   5.136   6.630   3.198 -0.7802 -2.1394  1.0364
 6795SOL    HW221986   5.020   6.585   3.092  0.4876 -2.1270 -0.3884
 6796SOL     OW21987   5.121   5.822   5.563  0.4390 -0.7029 -0.0662
 6796SOL    HW121988   5.177   5.848   5.642 -0.4126 -0.8024  0.5928
 6796SOL    HW221989   5.077   5.903   5.524  2.3736 -0.3641 -1.6766
 6797SOL     OW21990   1.643   2.156   2.847  0.3115  0.5150 -0.4333
 6797SOL    HW121991   1.612   2.062   2.834 -0.2837  0.7663 -0.8812
 6797SOL    HW221992   1.563   2.216   2.862  0.7555  0.7571  1.1104
 6798SOL     OW21993   3.552   4.110   0.590  0.1369  0.1377  0.3008
 6798SOL    HW121994   3.468   4.100   0.643 -0.1168 -1.8149 -0.3840
 6798SOL    HW221995   3.614   4.035   0.613  0.9969  0.6028 -0.4534
 6799SOL     OW21996   3.468   3.106   3.423  0.1075 -0.1067  0.2726
 6799SOL    HW121997   3.499   3.107   3.518  3.7086 -3.3762 -0.6294
 6799SOL    HW221998   3.533   3.154   3.365 -0.0510 -1.2789 -0.9359
 6800SOL     OW21999   1.784   3.177   1.739  0.5326  0.1786 -0.5070
 6800SOL    HW122000   1.860   3.128   1.781 -1.3483 -0.5541  2.3273
 6800SOL    HW222001   1.710   3.114   1.718 -0.5217  1.2773 -0.2320
 6801SOL     OW22002   5.363   5.244   3.011  0.2067  0.5754  0.2498
 6801SOL    HW122003   5.347   5.294   3.096 -0.8448  0.8525 -0.0898
 6801SOL    HW222004   5.460   5.223   3.002  0.6089  2.1819  0.6069
 6802SOL     OW22005   4.833   6.881   5.171  0.2460  0.4573 -0.9487
 6802SOL    HW122006   4.765   6.833   5.227 -1.4035  2.0809 -1.4533
 6802SOL    HW222007   4.862   6.822   5.096 -0.4306 -0.3792 -0.5704
 6803SOL     OW22008   2.230   3.789   1.088  0.8751  0.1369 -0.2007
 6803SOL    HW122009   2.143   3.810   1.135  0.5941  1.1504 -1.1377
 6803SOL    HW222010   2.227   3.825   0.995  1.7461 -1.1343 -0.7456
 6804SOL     OW22011   0.304   5.157   0.471  0.2229  0.3559 -0.1966
 6804SOL    HW122012   0.306   5.058   0.458 -2.5562  0.0569  0.8607
 6804SOL    HW222013   0.321   5.178   0.568  0.9323  0.9254 -0.4402
 6805SOL     OW22014   2.036   0.890   0.169 -0.1937 -0.5393 -0.0601
 6805SOL    HW122015   2.131   0.861   0.180 -0.1571 -0.1230  0.7589
 6805SOL    HW222016   2.015   0.962   0.235 -0.6561  0.4208 -1.2287
 6806SOL     OW22017   6.634   2.010   0.835  0.4256 -0.0931  0.5544
 6806SOL    HW122018   6.609   2.004   0.931  3.3504 -1.4938  1.3742
 6806SOL    HW222019   6.695   2.088   0.821  0.9898 -0.5980  0.1257
 6807SOL     OW22020   5.722   4.799   2.562 -0.1109  0.5514 -0.2063
 6807SOL    HW122021   5.629   4.774   2.589  0.1197 -0.3791 -0.2238
 6807SOL    HW222022   5.779   4.806   2.643  0.2050 -0.6315 -0.3121
 6808SOL     OW22023   6.087   3.919   5.697 -0.1037 -0.1128 -0.3787
 6808SOL    HW122024   6.064   3.909   5.794  3.2685 -0.8017  0.4658
 6808SOL    HW222025   6.107   3.830   5.658  3.1840  0.4803 -0.3212
 6809SOL     OW22026   5.436   3.733   1.597  0.0515  0.5483  0.1959
 6809SOL    HW122027   5.357   3.677   1.570  1.4676 -1.6244  0.3157
 6809SOL    HW222028   5.451   3.804   1.529 -1.6684  0.6703 -0.1076
 6810SOL     OW22029   1.067   5.615   3.075 -0.5951  0.1940 -0.1278
 6810SOL    HW122030   1.053   5.629   3.173  1.1513  0.5113  0.1123
 6810SOL    HW222031   0.978   5.609   3.029 -1.4567  1.7882  1.2191
 6811SOL     OW22032   5.445   4.697   2.617 -0.1124 -0.2955  0.5585
 6811SOL    HW122033   5.434   4.637   2.537  0.5991  0.0891  0.1686
 6811SOL    HW222034   5.363   4.689   2.674 -1.1732  0.2938 -0.7960
 6812SOL     OW22035   2.179   5.863   4.005 -0.5779  0.5675 -0.0294
 6812SOL    HW122036   2.230   5.780   4.028  2.0631  1.7209 -1.2795
 6812SOL    HW222037   2.196   5.934   4.073  1.2281  1.5840 -1.4286
 6813SOL     OW22038   6.739   4.478   2.917 -0.6146  0.1116  0.5072
 6813SOL    HW122039   6.680   4.397   2.912  0.3173 -0.6127  0.7382
 6813SOL    HW222040   6.749   4.518   2.826 -2.6223  1.1399  0.6892
 6814SOL     OW22041   2.779   0.915   0.793 -0.0697 -0.2738  0.2933
 6814SOL    HW122042   2.840   0.875   0.725 -2.1318 -3.0061 -0.1176
 6814SOL    HW222043   2.731   0.993   0.754 -1.0224 -1.6324 -1.4321
 6815SOL     OW22044   1.108   1.936   1.526  0.2161  0.6729 -0.1631
 6815SOL    HW122045   1.065   1.862   1.578  0.2202  0.2185 -0.7944
 6815SOL    HW222046   1.183   1.975   1.579 -0.1881  0.6543  0.4384
 6816SOL     OW22047   0.740   0.882   5.752 -0.3063  0.0560  0.0634
 6816SOL    HW122048   0.840   0.885   5.758 -0.3591 -0.1737  1.4540
 6816SOL    HW222049   0.713   0.835   5.668  0.7808 -1.5796  0.5743
 6817SOL     OW22050   5.156   5.181   5.698 -0.2588 -0.4834 -0.4289
 6817SOL    HW122051   5.243   5.209   5.660 -0.5824  0.7070 -0.3334
 6817SOL    HW222052   5.152   5.205   5.795 -0.1193 -1.8995 -0.0497
 6818SOL     OW22053   5.065   1.080   1.309  0.7166  0.1354  0.6332
 6818SOL    HW122054   4.978   1.031   1.318 -0.0194  0.9865 -1.4245
 6818SOL    HW222055   5.081   1.134   1.392  0.2123 -1.4328  1.7981
 6819SOL     OW22056   0.466   3.734   1.424 -0.0164 -0.0617  0.0203
 6819SOL    HW122057   0.524   3.810   1.396  1.1796 -1.1949 -0.7137
 6819SOL    HW222058   0.461   3.731   1.524  1.4670 -0.1110  0.1131
 6820SOL     OW22059   4.927   1.761   5.117  0.7924  0.2656 -0.3190
 6820SOL    HW122060   4.831   1.736   5.105  0.4284  1.4155  0.0224
 6820SOL    HW222061   4.985   1.682   5.099 -0.3763 -1.5690  3.0438
 6821SOL     OW22062   3.519   1.181   4.003  0.1224 -0.3466 -0.5359
 6821SOL    HW122063   3.431   1.182   4.050  1.0163 -1.8450  1.2908
 6821SOL    HW222064   3.589   1.222   4.062  1.1347 -1.5965 -0.8258
 6822SOL     OW22065   6.262   2.413   3.637 -0.7628  0.3972 -0.1835
 6822SOL    HW122066   6.326   2.483   3.669  1.1650 -0.9941 -0.8029
 6822SOL    HW222067   6.288   2.325   3.675 -1.5917 -0.4101 -1.4194
 6823SOL     OW22068   0.491   5.809   4.184 -0.8799 -0.8198 -0.1630
 6823SOL    HW122069   0.542   5.804   4.099 -0.1181 -2.3277  0.3452
 6823SOL    HW222070   0.404   5.856   4.168  0.0864  0.6648 -1.3147
 6824SOL     OW22071   6.389   0.978   2.963  0.1016  0.0081 -0.0036
 6824SOL    HW122072   6.384   0.960   3.061  0.8991  1.7659  0.4051
 6824SOL    HW222073   6.312   1.035   2.936  0.4480  0.3903 -0.1846
 6825SOL     OW22074   5.875   2.723   3.867  0.4593  0.1791  0.5745
 6825SOL    HW122075   5.819   2.797   3.905  0.3979  0.4733 -0.0731
 6825SOL    HW222076   5.925   2.678   3.941  1.9447  2.0816  0.7914
 6826SOL     OW22077   1.935   4.180   3.236 -0.2894  0.1966  0.3796
 6826SOL    HW122078   1.958   4.099   3.290  0.6708  1.0399  1.2733
 6826SOL    HW222079   1.885   4.245   3.293 -0.8467  0.3508 -0.2708
 6827SOL     OW22080   4.481   5.784   2.496 -0.4280 -0.2695 -0.7480
 6827SOL    HW122081   4.535   5.804   2.414  1.1172  0.6487  0.4210
 6827SOL    HW222082   4.399   5.842   2.496  0.5531  1.1905 -0.7285
 6828SOL     OW22083   4.752   1.171   5.161 -0.1973 -0.0512  0.2834
 6828SOL    HW122084   4.806   1.147   5.241 -0.6071  1.9414  1.2355
 6828SOL    HW222085   4.749   1.271   5.152 -1.4522 -0.1921 -1.3204
 6829SOL     OW22086   6.515   6.025   4.524  0.4068  0.0111  0.1935
 6829SOL    HW122087   6.456   5.974   4.587  0.2295 -1.6979 -1.2609
 6829SOL    HW222088   6.461   6.054   4.445  1.2109 -0.4066 -0.5266
 6830SOL     OW22089   3.523   0.776   0.931  0.8004 -0.3643 -0.1578
 6830SOL    HW122090   3.597   0.815   0.875  2.0746 -1.4355  0.7155
 6830SOL    HW222091   3.507   0.835   1.010  0.0216  0.3786 -0.8535
 6831SOL     OW22092   4.876   1.971   4.362 -0.3991 -0.5620  0.1455
 6831SOL    HW122093   4.816   2.047   4.389  1.3033  0.6051  0.8046
 6831SOL    HW222094   4.970   2.003   4.356  0.3200 -2.5523  0.0277
 6832SOL     OW22095   1.754   5.240   4.402 -0.3370 -0.2377  0.4962
 6832SOL    HW122096   1.689   5.298   4.353 -1.7879  0.6851  3.3091
 6832SOL    HW222097   1.710   5.155   4.429  0.7025 -1.1153 -0.4874
 6833SOL     OW22098   3.308   2.312   5.294 -0.0996  0.6495  0.1175
 6833SOL    HW122099   3.320   2.301   5.393  0.4593  0.7653  0.0682
 6833SOL    HW222100   3.336   2.228   5.248 -2.2113 -0.1463  0.1653
 6834SOL     OW22101   5.457   1.917   6.732 -0.1775 -0.0079 -0.1060
 6834SOL    HW122102   5.545   1.870   6.735 -0.0072  0.3282  0.4110
 6834SOL    HW222103   5.454   1.985   6.805 -0.5032  0.6372 -0.7208
 6835SOL     OW22104   5.021   5.302   1.925  0.3684  0.4690  0.4383
 6835SOL    HW122105   4.930   5.297   1.965 -0.3663 -0.0058 -1.2093
 6835SOL    HW222106   5.028   5.385   1.869 -0.3045 -1.1649 -2.2216
 6836SOL     OW22107   4.141   0.932   0.654  0.5334  0.2787 -0.1028
 6836SOL    HW122108   4.223   0.968   0.610  0.2075  0.5743 -0.4769
 6836SOL    HW222109   4.161   0.842   0.693  1.1086  0.4653  0.0530
 6837SOL     OW22110   0.937   5.792   0.967 -0.5904 -0.4466 -0.4823
 6837SOL    HW122111   0.934   5.697   1.000 -1.5503 -0.4271 -0.4811
 6837SOL    HW222112   1.029   5.829   0.981 -0.8042 -0.6074  1.7545
 6838SOL     OW22113   6.312   2.419   3.106  0.0572 -0.7789  0.3820
 6838SOL    HW122114   6.323   2.423   3.205  1.6603  1.2342  0.2032
 6838SOL    HW222115   6.215   2.428   3.083 -0.2687 -0.5654  1.7417
 6839SOL     OW22116   4.910   2.813   6.856 -0.2004 -0.3080 -0.0327
 6839SOL    HW122117   4.840   2.864   6.906  1.8826  1.6731  1.0370
 6839SOL    HW222118   4.971   2.767   6.921  0.0719 -1.2456 -0.9219
 6840SOL     OW22119   3.493   6.523   5.494 -0.2076 -0.4876 -0.1076
 6840SOL    HW122120   3.460   6.549   5.585  1.8677  0.4019  0.4417
 6840SOL    HW222121   3.538   6.434   5.500 -1.9658 -1.4729 -0.7584
 6841SOL     OW22122   2.181   2.781   1.548 -0.2159  0.1621  0.0659
 6841SOL    HW122123   2.085   2.775   1.575  0.2480  0.6164  1.9579
 6841SOL    HW222124   2.195   2.865   1.496 -0.8176  0.1706 -0.0959
 6842SOL     OW22125   3.547   1.658   2.118 -0.2030  0.1894  0.0977
 6842SOL    HW122126   3.543   1.593   2.194 -0.0945  0.5056  0.3778
 6842SOL    HW222127   3.472   1.724   2.127 -0.2098  0.2062 -0.0886
 6843SOL     OW22128   4.192   5.295   0.459  0.1672  0.5699 -0.3306
 6843SOL    HW122129   4.141   5.301   0.372  1.2431 -1.7424 -1.2001
 6843SOL    HW222130   4.290   5.304   0.440  0.5048 -1.1514  0.4351
 6844SOL     OW22131   6.531   5.242   2.284  0.0453 -0.3859 -1.1042
 6844SOL    HW122132   6.504   5.206   2.196  0.8629 -1.8059 -0.8066
 6844SOL    HW222133   6.461   5.221   2.353 -0.3690  0.3055 -1.3034
 6845SOL     OW22134   4.329   1.518   5.055  0.0702  0.0530 -0.4467
 6845SOL    HW122135   4.246   1.551   5.101  0.0087 -2.1142  1.1387
 6845SOL    HW222136   4.349   1.577   4.977 -0.5657  3.1725  1.5552
 6846SOL     OW22137   6.911   3.650   0.285 -0.5146 -1.0974 -0.0684
 6846SOL    HW122138   6.867   3.564   0.259 -2.7322  0.1717 -0.7785
 6846SOL    HW222139   6.924   3.707   0.204  1.9257 -1.1090  0.2182
 6847SOL     OW22140   1.364   3.126   6.420  0.3316  0.2263  0.2656
 6847SOL    HW122141   1.266   3.132   6.440  0.2981  2.0750 -0.3523
 6847SOL    HW222142   1.410   3.210   6.448  1.5273 -0.0920 -0.6467
 6848SOL     OW22143   0.914   1.849   2.653 -0.0044  0.0428  0.4836
 6848SOL    HW122144   0.847   1.851   2.579  1.0726 -1.2658 -0.5944
 6848SOL    HW222145   0.968   1.933   2.651  0.0804 -0.0216 -0.2924
 6849SOL     OW22146   1.527   1.163   0.606  0.1473 -0.0517  0.2595
 6849SOL    HW122147   1.515   1.084   0.667  0.2819 -0.3541 -0.1063
 6849SOL    HW222148   1.556   1.242   0.660 -2.5426  0.5004  1.0963
 6850SOL     OW22149   3.835   4.537   6.413  0.7534  0.4135  0.3669
 6850SOL    HW122150   3.801   4.631   6.419  2.4224  1.1058 -0.4564
 6850SOL    HW222151   3.760   4.477   6.384 -0.8666  1.0870  2.8610
 6851SOL     OW22152   3.959   6.156   3.088  0.3465  0.5659 -0.2641
 6851SOL    HW122153   4.037   6.202   3.130 -0.1433  0.7608  0.4554
 6851SOL    HW222154   3.961   6.170   2.989  0.9215  1.0160 -0.1942
 6852SOL     OW22155   6.760   3.805   4.249  0.2172 -0.1363  0.2423
 6852SOL    HW122156   6.714   3.732   4.199  1.1709 -0.4438 -0.2131
 6852SOL    HW222157   6.692   3.859   4.299 -0.4348 -1.7524  1.1770
 6853SOL     OW22158   5.802   3.581   0.129 -0.2165 -0.5105  0.4853
 6853SOL    HW122159   5.725   3.602   0.189 -2.3501 -0.9414 -1.8782
 6853SOL    HW222160   5.790   3.489   0.091  1.7093 -0.7400  0.3559
 6854SOL     OW22161   6.763   0.639   5.159 -0.2513  0.0722  0.0441
 6854SOL    HW122162   6.729   0.549   5.130  3.1071 -1.1872 -0.3558
 6854SOL    HW222163   6.795   0.634   5.253  0.3961  0.7343 -0.1348
 6855SOL     OW22164   0.329   0.414   0.391 -0.7996  0.3936  0.3343
 6855SOL    HW122165   0.357   0.471   0.468  0.8218 -1.5406  1.2482
 6855SOL    HW222166   0.243   0.367   0.414 -1.7505  1.8231 -0.1414
 6856SOL     OW22167   4.154   2.836   3.549  0.7230  0.1476  0.1204
 6856SOL    HW122168   4.080   2.872   3.606  0.7403  0.1541  0.1389
 6856SOL    HW222169   4.232   2.813   3.608  1.1961  1.2964 -0.0344
 6857SOL     OW22170   3.011   6.843   3.263  0.2608  0.1366 -0.4164
 6857SOL    HW122171   3.006   6.893   3.177 -2.3206  1.3750  0.3426
 6857SOL    HW222172   2.946   6.768   3.262  0.6559 -0.2270  0.2335
 6858SOL     OW22173   6.368   5.815   4.089  0.2890 -0.0736  0.0481
 6858SOL    HW122174   6.338   5.903   4.126 -0.9311 -0.8018  0.8745
 6858SOL    HW222175   6.365   5.746   4.161 -0.8369 -1.2432 -1.0457
 6859SOL     OW22176   6.480   3.549   4.083  0.2739  0.3447  0.1376
 6859SOL    HW122177   6.509   3.580   3.993 -2.6694 -0.0901 -1.0803
 6859SOL    HW222178   6.463   3.628   4.142 -1.9562  0.9446 -1.1770
 6860SOL     OW22179   1.355   2.603   4.027 -0.4177 -0.1052  0.7901
 6860SOL    HW122180   1.378   2.518   4.074 -1.3198 -0.7819  0.0422
 6860SOL    HW222181   1.423   2.620   3.955 -0.8259 -0.7780  0.2306
 6861SOL     OW22182   4.642   2.133   6.695  0.0855  0.7442 -0.5988
 6861SOL    HW122183   4.625   2.035   6.702 -1.4381  1.0548  0.8427
 6861SOL    HW222184   4.617   2.164   6.603  2.3748 -0.4716 -1.7065
 6862SOL     OW22185   3.270   6.321   2.500  0.4221 -0.0936 -0.1403
 6862SOL    HW122186   3.206   6.397   2.489  0.6205  0.1300  0.2179
 6862SOL    HW222187   3.361   6.350   2.471 -0.1809 -1.4118 -3.9993
 6863SOL     OW22188   2.087   1.184   2.471  0.5384 -0.1776 -0.5754
 6863SOL    HW122189   2.173   1.147   2.436  1.3221  0.9638  0.0650
 6863SOL    HW222190   2.049   1.249   2.405  0.5674 -0.1070 -0.5228
 6864SOL     OW22191   0.022   1.824   5.097 -0.2930  0.6399  0.3735
 6864SOL    HW122192  -0.056   1.852   5.152 -0.0143  1.3717  0.4035
 6864SOL    HW222193   0.047   1.729   5.119 -1.3659  0.2914  0.1298
 6865SOL     OW22194   5.033   1.974   2.516  0.5986 -0.3054  0.2723
 6865SOL    HW122195   5.089   1.914   2.573  1.1829  0.0239  0.0552
 6865SOL    HW222196   5.013   1.928   2.429 -0.4821 -0.8974  0.8127
 6866SOL     OW22197   6.367   2.428   0.081  0.2308  0.1862  0.1505
 6866SOL    HW122198   6.385   2.522   0.055 -1.8225  0.8983  1.0663
 6866SOL    HW222199   6.337   2.425   0.177  0.2808 -1.4021  0.1436
 6867SOL     OW22200   1.103   5.837   1.261  0.2349 -0.1793  0.2245
 6867SOL    HW122201   1.158   5.848   1.343 -0.9599  0.9158  0.9091
 6867SOL    HW222202   1.034   5.766   1.276 -0.3383  0.4007  0.3813
 6868SOL     OW22203   2.692   5.994   2.124  0.3064  0.0154  0.0928
 6868SOL    HW122204   2.792   5.983   2.121  0.4607  1.4541 -1.0218
 6868SOL    HW222205   2.661   6.040   2.041 -1.1972  0.3748  0.8171
 6869SOL     OW22206   6.813   0.014   1.370 -0.6890  0.0863  0.3638
 6869SOL    HW122207   6.814  -0.083   1.395 -1.1925  0.2356  0.9945
 6869SOL    HW222208   6.718   0.044   1.359 -0.5265  0.4600 -0.0250
 6870SOL     OW22209   1.354   0.902   4.758  0.1675  0.6779  0.6435
 6870SOL    HW122210   1.363   1.000   4.774 -1.1191  0.7309  1.1319
 6870SOL    HW222211   1.261   0.873   4.780  0.4715 -0.6145  0.2927
 6871SOL     OW22212   5.033   1.108   5.869  0.0938 -0.0092  0.0384
 6871SOL    HW122213   5.106   1.160   5.826  0.9668 -1.3687 -0.1772
 6871SOL    HW222214   4.945   1.153   5.852  0.5616  0.2169 -2.0120
 6872SOL     OW22215   1.301   2.638   0.880 -0.3338 -0.7158  0.3191
 6872SOL    HW122216   1.322   2.623   0.977 -0.7347 -0.1055  0.5039
 6872SOL    HW222217   1.298   2.551   0.832  0.6453 -0.9667  0.6986
 6873SOL     OW22218   1.491   3.025   0.392  0.1836 -0.7658  0.5288
 6873SOL    HW122219   1.528   3.110   0.354 -0.5881 -1.1604 -1.2145
 6873SOL    HW222220   1.408   3.044   0.445 -0.6922 -0.5144 -0.8808
 6874SOL     OW22221   2.103   1.833   3.752 -0.2464  0.9042 -0.4671
 6874SOL    HW122222   2.061   1.775   3.682  1.5978 -1.9534  0.6146
 6874SOL    HW222223   2.105   1.783   3.839 -1.2778  3.8289  1.3769
 6875SOL     OW22224   4.246   0.667   4.365  0.1204  0.3446  0.3466
 6875SOL    HW122225   4.332   0.653   4.317 -0.9972  0.3582 -1.7636
 6875SOL    HW222226   4.219   0.763   4.359 -0.6303  0.1170 -0.0833
 6876SOL     OW22227   4.828   2.422   1.526 -0.7053 -0.0853 -0.0815
 6876SOL    HW122228   4.839   2.370   1.611 -0.0131  1.0130  0.5325
 6876SOL    HW222229   4.799   2.361   1.453 -1.1569 -1.0890  0.9046
 6877SOL     OW22230   4.597   0.208   6.012  0.2068 -0.1017  0.0096
 6877SOL    HW122231   4.672   0.246   6.067  1.5407  1.1226 -2.4540
 6877SOL    HW222232   4.576   0.116   6.044  1.8505  0.0249  1.6550
 6878SOL     OW22233   4.657   4.461   1.697 -0.1038  0.4406  0.7164
 6878SOL    HW122234   4.588   4.482   1.628 -0.5679  1.4268  1.4562
 6878SOL    HW222235   4.613   4.415   1.775  0.4645 -0.9513  0.2480
 6879SOL     OW22236   5.942   6.243   4.798 -0.3014 -0.3527 -0.2271
 6879SOL    HW122237   6.005   6.292   4.859 -1.2763  1.0309 -0.3004
 6879SOL    HW222238   5.869   6.202   4.853  0.2780 -1.3840 -0.2108
 6880SOL     OW22239   0.255   3.359   4.295 -0.7766  0.2319  0.2687
 6880SOL    HW122240   0.185   3.403   4.351 -1.3543  0.5536 -0.6934
 6880SOL    HW222241   0.239   3.260   4.295 -1.8332  0.3887 -0.7386
 6881SOL     OW22242   6.070   3.240   0.992  0.1142  0.4406  0.1505
 6881SOL    HW122243   5.992   3.279   1.042 -0.3886 -1.7986  1.2544
 6881SOL    HW222244   6.116   3.173   1.050  1.9651  0.6170 -1.0424
 6882SOL     OW22245   5.293   4.665   3.375 -0.5611  0.4391 -0.2661
 6882SOL    HW122246   5.359   4.723   3.327 -0.2535 -0.1858 -0.6139
 6882SOL    HW222247   5.201   4.686   3.344 -0.4162  0.4752 -0.6738
 6883SOL     OW22248   4.177   1.985   5.484  0.2116 -0.5315  0.2298
 6883SOL    HW122249   4.192   1.999   5.582 -1.8451 -0.0189  0.5146
 6883SOL    HW222250   4.092   1.934   5.471  0.4696 -0.5936 -1.3018
 6884SOL     OW22251   5.970   5.671   0.462 -0.0042 -0.2019  0.5658
 6884SOL    HW122252   5.994   5.575   0.481 -0.8628 -0.5605 -0.0734
 6884SOL    HW222253   6.047   5.730   0.485  0.7904 -1.1180  0.3152
 6885SOL     OW22254   4.929   1.690   3.111  0.6192 -0.2139 -0.3525
 6885SOL    HW122255   4.844   1.663   3.158 -1.4882 -0.5027 -3.9347
 6885SOL    HW222256   4.918   1.781   3.072  2.3658  0.1127 -0.1471
 6886SOL     OW22257   1.421   6.824   0.901  0.0381 -0.3739  0.2876
 6886SOL    HW122258   1.455   6.732   0.919  1.4183  0.0194 -0.2090
 6886SOL    HW222259   1.459   6.887   0.970 -1.1271 -0.2081  0.8008
 6887SOL     OW22260   1.655   3.536   6.058  0.3556  0.3704 -0.1780
 6887SOL    HW122261   1.721   3.558   6.130  0.9182 -0.9278 -0.2654
 6887SOL    HW222262   1.611   3.620   6.025 -0.8860  0.8963  2.5750
 6888SOL     OW22263   2.018   5.229   5.113  0.1491 -0.1116 -0.0510
 6888SOL    HW122264   2.070   5.314   5.102 -0.2457  0.0562 -0.6323
 6888SOL    HW222265   1.979   5.201   5.025  0.5004 -1.0427  0.0746
 6889SOL     OW22266   3.175   6.598   2.613 -0.7264 -0.0769 -0.2824
 6889SOL    HW122267   3.266   6.634   2.593  1.4852 -3.6507  2.2166
 6889SOL    HW222268   3.128   6.661   2.675  1.8546 -0.0109  1.8116
 6890SOL     OW22269   4.611   3.872   6.073 -0.3412 -0.0543  0.8081
 6890SOL    HW122270   4.676   3.870   5.997 -0.4941  0.4906  0.6603
 6890SOL    HW222271   4.661   3.869   6.159 -0.1811 -1.0875  0.6991
 6891SOL     OW22272   3.333   2.526   5.704 -0.5985  0.3019  0.2873
 6891SOL    HW122273   3.256   2.475   5.741  0.0642 -1.1734 -0.3034
 6891SOL    HW222274   3.385   2.567   5.779 -1.0342 -0.0465  0.7851
 6892SOL     OW22275   3.166   3.277   1.721 -1.0108  0.1309  0.1048
 6892SOL    HW122276   3.224   3.323   1.653 -0.3963  1.2590  1.3683
 6892SOL    HW222277   3.175   3.322   1.809 -0.0187 -2.6719  1.5473
 6893SOL     OW22278   0.069   6.319   3.800 -0.2966  0.0226  0.3248
 6893SOL    HW122279  -0.003   6.336   3.868 -2.4490 -1.7364 -1.3636
 6893SOL    HW222280   0.085   6.403   3.748 -2.0342  0.1948 -0.0111
 6894SOL     OW22281   1.304   4.482   3.347 -0.1016 -0.2852 -0.3532
 6894SOL    HW122282   1.360   4.431   3.412 -0.4091  0.7238  0.7272
 6894SOL    HW222283   1.362   4.520   3.275  0.3310 -0.8655 -0.3152
 6895SOL     OW22284   6.092   1.718   4.257  0.3626  0.1258  0.4886
 6895SOL    HW122285   6.174   1.666   4.280  1.6375  1.5428 -0.6848
 6895SOL    HW222286   6.019   1.696   4.323  1.4518 -1.6350  1.1668
 6896SOL     OW22287   5.447   3.690   3.853 -0.2171 -0.6724  0.6343
 6896SOL    HW122288   5.348   3.694   3.869 -0.2267 -0.6679  0.5755
 6896SOL    HW222289   5.495   3.693   3.940 -0.2460  0.2235  0.6329
 6897SOL     OW22290   1.479   5.383   5.608 -0.3208 -0.0383 -0.0631
 6897SOL    HW122291   1.409   5.400   5.539 -0.0361 -0.5775 -0.4980
 6897SOL    HW222292   1.548   5.456   5.605 -0.0023 -0.3554 -0.7577
 6898SOL     OW22293   5.158   6.499   0.093  0.2708  0.2399  0.2284
 6898SOL    HW122294   5.073   6.451   0.070  0.8552 -0.5931 -0.2157
 6898SOL    HW222295   5.159   6.518   0.192 -1.5851  2.5655 -0.0905
 6899SOL     OW22296   0.819   4.671   4.834  0.2933  0.4359 -0.3639
 6899SOL    HW122297   0.763   4.593   4.864 -1.9077  2.4522  1.1559
 6899SOL    HW222298   0.904   4.672   4.887  2.0213 -2.6892 -2.7195
 6900SOL     OW22299   4.228   3.688   4.998  0.2429 -0.0877  0.2683
 6900SOL    HW122300   4.268   3.599   4.974  2.0419  0.8738 -0.4770
 6900SOL    HW222301   4.129   3.677   5.010  0.4007 -2.1636  0.1109
 6901SOL     OW22302   5.338   6.248   0.802 -0.3871 -0.2706 -0.0853
 6901SOL    HW122303   5.428   6.284   0.776 -1.4674  1.8441 -1.2520
 6901SOL    HW222304   5.333   6.151   0.779  2.1399 -0.9345  1.6463
 6902SOL     OW22305   2.831   2.859   1.959 -0.2817  0.3456 -0.1814
 6902SOL    HW122306   2.883   2.939   1.928 -0.3876  0.5239  0.0934
 6902SOL    HW222307   2.756   2.889   2.018  0.3375 -0.0235  0.8265
 6903SOL     OW22308   6.613   5.936   6.743  0.6541  0.0819  0.4361
 6903SOL    HW122309   6.677   6.011   6.760 -0.7540  0.7944  3.2136
 6903SOL    HW222310   6.546   5.964   6.674  0.5559  1.1370  0.9440
 6904SOL     OW22311   2.033   4.891   1.729  0.6343  0.1249  0.6740
 6904SOL    HW122312   2.097   4.914   1.656  0.9525 -0.0296  0.9017
 6904SOL    HW222313   2.078   4.903   1.817  0.4539 -0.3136  0.8267
 6905SOL     OW22314   6.294   5.452   2.054  0.4532  0.2877  0.0115
 6905SOL    HW122315   6.330   5.365   2.088  0.5582 -0.0958 -1.0459
 6905SOL    HW222316   6.367   5.502   2.007  0.5609  1.2545  1.1727
 6906SOL     OW22317   1.155   0.853   1.318  0.0242  0.2286 -0.1464
 6906SOL    HW122318   1.197   0.795   1.389  1.6223  2.9877  1.3432
 6906SOL    HW222319   1.074   0.808   1.281  1.1310 -2.8818  0.9043
 6907SOL     OW22320   5.515   0.230   4.635  0.0301  0.2458  0.8384
 6907SOL    HW122321   5.563   0.209   4.720  0.3630 -2.3136  0.1105
 6907SOL    HW222322   5.417   0.215   4.647  0.0184  0.4020  0.9306
 6908SOL     OW22323   2.873   6.813   2.552  0.3271  0.0592 -0.0029
 6908SOL    HW122324   2.939   6.832   2.479  0.7850 -0.2801  0.3180
 6908SOL    HW222325   2.829   6.725   2.535  0.2208  0.1160 -0.0227
 6909SOL     OW22326   5.359   2.846   3.031 -0.1910 -0.2991  0.3855
 6909SOL    HW122327   5.293   2.842   3.106 -0.9837 -0.3871 -0.2943
 6909SOL    HW222328   5.355   2.760   2.979  0.8317 -0.5046  0.6386
 6910SOL     OW22329   4.291   2.421   4.852 -0.1838 -0.1429  0.0917
 6910SOL    HW122330   4.383   2.424   4.891  0.5257 -2.8470 -1.1250
 6910SOL    HW222331   4.225   2.394   4.922  0.3313 -0.3925  0.4849
 6911SOL     OW22332   0.092   1.537   0.491  0.2499 -0.0090  0.1853
 6911SOL    HW122333   0.061   1.442   0.494  0.2621  0.0085  1.2121
 6911SOL    HW222334   0.017   1.597   0.520  0.4862  0.2236  0.3216
 6912SOL     OW22335   0.253   4.894   2.775 -0.3626  0.3385  0.5552
 6912SOL    HW122336   0.280   4.973   2.719  0.9359 -0.4485  0.0231
 6912SOL    HW222337   0.209   4.826   2.717 -0.6703  0.2845  0.8488
 6913SOL     OW22338   3.733   2.724   0.490 -0.4688  0.2497 -0.6510
 6913SOL    HW122339   3.690   2.691   0.406 -0.2098  1.6935 -1.3795
 6913SOL    HW222340   3.832   2.713   0.484 -0.0306  3.7109 -2.2081
 6914SOL     OW22341   5.607   3.672   0.296  1.1177  0.3191 -0.0465
 6914SOL    HW122342   5.590   3.761   0.255  1.9284  0.7351  0.4911
 6914SOL    HW222343   5.523   3.637   0.338  1.1290  1.5220  1.0397
 6915SOL     OW22344   5.771   6.028   4.883  0.5670  0.0409 -0.4517
 6915SOL    HW122345   5.718   6.034   4.799  2.1833 -0.1871 -1.5198
 6915SOL    HW222346   5.709   6.032   4.962 -1.0129 -0.2051 -1.6383
 6916SOL     OW22347   5.483   3.831   5.950 -0.0740  0.5620 -0.0959
 6916SOL    HW122348   5.399   3.815   5.899  1.1399 -1.0762 -1.7175
 6916SOL    HW222349   5.554   3.864   5.888  1.6054 -1.9960  0.2807
 6917SOL     OW22350   1.172   1.800   2.823 -0.3120 -0.4025 -0.0344
 6917SOL    HW122351   1.172   1.792   2.922 -1.1413  0.8653  0.0876
 6917SOL    HW222352   1.078   1.803   2.789 -0.0908  1.5809 -0.6093
 6918SOL     OW22353   2.539   0.531   5.833  0.2848 -0.0088  0.0556
 6918SOL    HW122354   2.587   0.514   5.918 -0.1388 -0.5887  0.1828
 6918SOL    HW222355   2.539   0.449   5.777  0.6709  0.4066 -0.5643
 6919SOL     OW22356   5.901   0.018   4.157 -0.3367  0.7089 -0.4316
 6919SOL    HW122357   5.941   0.099   4.112  2.4941  1.2420  2.5991
 6919SOL    HW222358   5.963  -0.060   4.146 -0.3801  0.4374  1.0901
 6920SOL     OW22359   1.166   3.328   3.131 -0.7381 -0.7738  0.0386
 6920SOL    HW122360   1.130   3.369   3.048 -1.3595 -2.1427 -0.3976
 6920SOL    HW222361   1.239   3.264   3.108 -0.2687 -0.4771  0.6432
 6921SOL     OW22362   0.063   4.026   0.874  0.4108 -0.2884 -0.1571
 6921SOL    HW122363   0.141   3.979   0.915  1.1369  0.8838 -0.1521
 6921SOL    HW222364   0.095   4.106   0.823 -0.7325 -0.1468 -0.6863
 6922SOL     OW22365   4.331   3.416   1.823  0.1304  0.0785  0.3049
 6922SOL    HW122366   4.363   3.326   1.851 -0.9480 -0.2306  0.5675
 6922SOL    HW222367   4.376   3.442   1.737  1.2760 -0.2184  0.7911
 6923SOL     OW22368   3.211   0.252   3.243  1.2374 -0.0957 -0.4972
 6923SOL    HW122369   3.169   0.239   3.332  0.3963 -0.2104 -0.9066
 6923SOL    HW222370   3.247   0.164   3.210 -1.0550 -0.6900 -1.5603
 6924SOL     OW22371   4.162   2.220   6.026  0.5284  0.4049  0.4395
 6924SOL    HW122372   4.093   2.174   6.081  1.0656 -0.9939 -0.0073
 6924SOL    HW222373   4.244   2.237   6.082 -0.1621  2.1191  0.9862
 6925SOL     OW22374   6.690   4.275   0.599 -0.2481  0.1773  0.3283
 6925SOL    HW122375   6.607   4.274   0.655  0.1031 -0.4473  0.8503
 6925SOL    HW222376   6.686   4.201   0.532 -0.1278  0.1624  0.3373
 6926SOL     OW22377   0.347   6.361   5.289  0.4369 -0.2736  0.6356
 6926SOL    HW122378   0.322   6.444   5.239  0.5864 -0.3019  0.5152
 6926SOL    HW222379   0.330   6.281   5.232  2.2059 -0.2191 -0.0287
 6927SOL     OW22380   0.487   5.309   4.607 -0.0329  0.2711 -0.3994
 6927SOL    HW122381   0.455   5.346   4.519 -2.3232 -0.8385 -0.1268
 6927SOL    HW222382   0.408   5.293   4.666  1.4187  0.4909  1.6952
 6928SOL     OW22383   3.892   1.947   5.533  0.0743 -0.7519 -0.1522
 6928SOL    HW122384   3.875   1.854   5.566  1.6675 -1.3838 -1.0238
 6928SOL    HW222385   3.848   1.960   5.444 -0.7591 -0.3963  0.2908
 6929SOL     OW22386   0.859   4.469   1.377  0.4574 -0.4558 -0.1340
 6929SOL    HW122387   0.899   4.443   1.465 -1.1878 -1.3783  0.3933
 6929SOL    HW222388   0.925   4.449   1.304  1.1633 -1.4339  0.7251
 6930SOL     OW22389   0.730   3.822   4.800  1.0876  0.1609  0.4098
 6930SOL    HW122390   0.830   3.820   4.804  1.0349 -0.5126  1.4808
 6930SOL    HW222391   0.693   3.832   4.892  0.1668  0.9582 -0.0314
 6931SOL     OW22392   4.010   2.484   1.278  0.1773 -0.3234  0.0712
 6931SOL    HW122393   3.985   2.549   1.206 -0.3316 -1.3296 -0.6928
 6931SOL    HW222394   3.927   2.455   1.326  0.3036 -0.9271 -0.0658
 6932SOL     OW22395   1.406   2.781   5.449  0.5385 -0.3284 -0.2716
 6932SOL    HW122396   1.429   2.848   5.520 -0.4219 -0.6985  0.4053
 6932SOL    HW222397   1.488   2.731   5.424  1.1949  0.8193 -0.5043
 6933SOL     OW22398   3.590   2.701   0.251 -0.3763 -0.5787  0.3132
 6933SOL    HW122399   3.654   2.760   0.202 -1.0378  0.1212  0.2655
 6933SOL    HW222400   3.518   2.671   0.188 -0.8878 -0.1796  0.6905
 6934SOL     OW22401   5.815   0.800   2.837 -0.4502  0.0105 -0.5271
 6934SOL    HW122402   5.886   0.843   2.782  0.4895 -1.2826 -0.3765
 6934SOL    HW222403   5.746   0.868   2.862  0.2523  1.0913 -1.4430
 6935SOL     OW22404   3.083   3.667   0.586 -0.5861  0.0422 -0.1060
 6935SOL    HW122405   3.090   3.624   0.676 -0.5997 -3.5402 -1.6493
 6935SOL    HW222406   3.164   3.724   0.570  0.6266 -1.2231  1.2538
 6936SOL     OW22407   6.020   4.339   1.980 -0.0963 -0.1342  0.0186
 6936SOL    HW122408   6.102   4.310   1.931  0.3846 -0.3312  0.9046
 6936SOL    HW222409   5.988   4.264   2.039  0.3161  0.6193  1.2481
 6937SOL     OW22410   3.996   5.087   0.851  0.5910  0.2680  0.1110
 6937SOL    HW122411   4.042   5.006   0.888  0.6271 -0.2773 -1.0654
 6937SOL    HW222412   3.911   5.058   0.807 -0.9752  1.2606  2.3100
 6938SOL     OW22413   3.446   0.284   1.318 -0.0152  1.0353  0.1848
 6938SOL    HW122414   3.440   0.329   1.229  0.8827 -0.8933 -0.9254
 6938SOL    HW222415   3.542   0.274   1.344  0.0634 -2.2070 -0.8016
 6939SOL     OW22416   1.010   1.383   0.138  0.2359  0.2773  0.0000
 6939SOL    HW122417   0.992   1.288   0.161  2.4964 -0.3241 -0.4176
 6939SOL    HW222418   1.073   1.422   0.205 -0.4183  1.3923 -0.0123
 6940SOL     OW22419   2.677   4.419   0.830  0.2023 -0.6894  0.2838
 6940SOL    HW122420   2.692   4.512   0.862 -1.6115 -0.5895  0.9847
 6940SOL    HW222421   2.737   4.400   0.752  1.2092  0.7550  0.6720
 6941SOL     OW22422   0.830   5.749   1.450  0.7853  0.0392 -0.1413
 6941SOL    HW122423   0.855   5.660   1.410 -1.0745 -1.1981  1.2793
 6941SOL    HW222424   0.875   5.759   1.539 -1.9208 -1.3169  1.5072
 6942SOL     OW22425   4.498   1.151   1.365 -0.1179 -0.0776 -0.1309
 6942SOL    HW122426   4.398   1.158   1.366 -0.1163  0.1877 -0.9735
 6942SOL    HW222427   4.537   1.242   1.354  0.1539 -0.3537 -1.7192
 6943SOL     OW22428   3.369   2.545   2.532 -0.3158 -0.4299  0.3592
 6943SOL    HW122429   3.397   2.569   2.439 -1.0092 -1.4137 -0.1215
 6943SOL    HW222430   3.444   2.565   2.595  0.4120 -0.3580 -0.4938
 6944SOL     OW22431   1.127   1.381   0.694 -0.5728 -0.0235 -0.4301
 6944SOL    HW122432   1.104   1.341   0.783  0.8234  1.7949  0.8347
 6944SOL    HW222433   1.050   1.438   0.662 -0.9509 -0.4133 -0.2215
 6945SOL     OW22434   4.714   1.545   4.927 -0.2475  0.2409 -0.1232
 6945SOL    HW122435   4.642   1.605   4.959  0.0535  1.0112 -0.8497
 6945SOL    HW222436   4.675   1.472   4.871 -0.8367 -1.3989  2.2780
 6946SOL     OW22437   4.680   5.025   5.014  0.0337 -0.4365  0.2549
 6946SOL    HW122438   4.748   5.096   5.034  0.3183 -0.4057 -0.7495
 6946SOL    HW222439   4.714   4.967   4.940 -0.7321 -0.8635  0.2299
 6947SOL     OW22440   2.409   2.433   2.653  0.0070  0.0226  0.0458
 6947SOL    HW122441   2.411   2.449   2.554  0.0263  0.5926  0.1373
 6947SOL    HW222442   2.323   2.466   2.691 -0.3238 -0.8703  0.1140
 6948SOL     OW22443   1.833   3.197   6.028 -0.1444  0.6250  0.0644
 6948SOL    HW122444   1.796   3.222   6.117  0.1172  1.0007  0.0721
 6948SOL    HW222445   1.799   3.107   6.002  2.0002 -0.8115  1.8498
 6949SOL     OW22446   6.853   5.691   4.509  0.3718 -0.0045  0.1844
 6949SOL    HW122447   6.820   5.778   4.544  2.3266  0.5247  0.8528
 6949SOL    HW222448   6.927   5.708   4.443  0.2707 -1.1402 -0.2402
 6950SOL     OW22449   4.023   0.553   2.779 -0.1449  0.3619  0.3529
 6950SOL    HW122450   3.978   0.561   2.867 -0.7445 -2.0383  0.3358
 6950SOL    HW222451   3.976   0.610   2.711 -0.5698  1.0804  1.2352
 6951SOL     OW22452   2.343   5.360   0.629 -0.1544  0.4026 -0.3954
 6951SOL    HW122453   2.355   5.298   0.706  1.6964  0.2558 -0.7565
 6951SOL    HW222454   2.277   5.431   0.653 -0.2644 -0.1390  0.9975
 6952SOL     OW22455   6.812   5.892   1.934  0.5898 -0.0207  0.6131
 6952SOL    HW122456   6.776   5.829   2.002  0.9508 -0.5842  0.2887
 6952SOL    HW222457   6.869   5.842   1.869  1.0092  0.6638  0.4440
 6953SOL     OW22458   0.324   4.014   6.314 -0.5697  0.0957  0.1169
 6953SOL    HW122459   0.242   4.062   6.282 -0.7175 -0.3071 -0.1197
 6953SOL    HW222460   0.306   3.974   6.404 -1.0281 -0.9703 -0.4325
 6954SOL     OW22461   5.996   0.703   1.669 -0.6524 -0.1388  0.3465
 6954SOL    HW122462   6.093   0.701   1.696 -0.5758  0.4818  0.1508
 6954SOL    HW222463   5.951   0.780   1.715 -0.6390  0.6399 -0.8943
 6955SOL     OW22464   1.145   1.950   5.231  0.1781 -0.3211  0.1510
 6955SOL    HW122465   1.201   1.882   5.279  1.3963 -0.6033 -1.5870
 6955SOL    HW222466   1.190   1.977   5.146 -0.5439  2.2709  0.4882
 6956SOL     OW22467   4.228   4.853   1.253  0.6990  0.1353  0.1345
 6956SOL    HW122468   4.270   4.788   1.316 -0.0121  2.1100  2.8186
 6956SOL    HW222469   4.258   4.946   1.275 -2.1586  1.2597 -0.1599
 6957SOL     OW22470   4.036   2.318   0.926  0.1735 -0.2533  0.0057
 6957SOL    HW122471   4.064   2.298   1.020 -1.0462 -0.5727  0.3120
 6957SOL    HW222472   3.944   2.356   0.926  0.3040  0.1017 -1.0468
 6958SOL     OW22473   2.746   6.393   5.370  0.0678  0.0167  0.4930
 6958SOL    HW122474   2.706   6.484   5.356  0.8926  0.1404 -1.6045
 6958SOL    HW222475   2.680   6.323   5.344  0.0145  0.0897  0.4304
 6959SOL     OW22476   1.462   3.487   4.965 -0.4385 -0.2884  0.4779
 6959SOL    HW122477   1.380   3.432   4.954 -0.2989 -0.2478 -1.0043
 6959SOL    HW222478   1.451   3.550   5.042 -1.8124 -0.2399  0.2587
 6960SOL     OW22479   4.343   3.236   6.141 -0.2765 -0.2234 -0.4112
 6960SOL    HW122480   4.318   3.198   6.051  0.8153 -2.6499  0.2268
 6960SOL    HW222481   4.263   3.233   6.201 -0.5592 -0.2617 -0.7821
 6961SOL     OW22482   5.441   4.033   6.915 -0.1890  0.3923  0.2546
 6961SOL    HW122483   5.345   4.034   6.943  0.1229  0.7510  1.3739
 6961SOL    HW222484   5.480   3.943   6.933 -0.0127  0.5958  0.9115
 6962SOL     OW22485   0.676   6.066   0.783  0.1174 -0.4129 -1.0767
 6962SOL    HW122486   0.725   5.994   0.735 -1.0615 -0.0936 -2.8462
 6962SOL    HW222487   0.656   6.141   0.720 -1.2654  0.1436 -0.0291
 6963SOL     OW22488   6.090   4.954   3.748 -0.5802 -0.4190 -0.6223
 6963SOL    HW122489   6.106   5.039   3.699  1.0249  0.2487  0.9236
 6963SOL    HW222490   6.021   4.899   3.700 -0.2978  0.8993 -2.6425
 6964SOL     OW22491   0.764   3.055   6.839 -0.0887  0.1252  0.2575
 6964SOL    HW122492   0.714   2.971   6.860 -0.8597  0.8966  1.7318
 6964SOL    HW222493   0.858   3.047   6.873 -0.4095  0.1649  1.1795
 6965SOL     OW22494   3.696   1.757   3.068  0.7374  0.6362  0.4597
 6965SOL    HW122495   3.792   1.750   3.092  0.4948 -3.2012  0.8709
 6965SOL    HW222496   3.683   1.728   2.973 -0.1606 -0.2204  0.8306
 6966SOL     OW22497   2.092   4.840   0.081 -0.1997 -0.3954  0.0097
 6966SOL    HW122498   2.076   4.783   0.162  0.9982  0.5630  0.9594
 6966SOL    HW222499   2.042   4.926   0.090 -1.1878 -0.8551 -0.9452
 6967SOL     OW22500   4.978   2.734   0.131 -0.3482  0.1578  0.0038
 6967SOL    HW122501   4.890   2.693   0.110 -0.3003 -0.0662  0.2292
 6967SOL    HW222502   4.982   2.758   0.228 -0.3807  0.7122 -0.1321
 6968SOL     OW22503   4.948   2.610   4.607 -0.0455 -0.4530 -0.0708
 6968SOL    HW122504   5.026   2.662   4.571 -1.2651  1.0236 -0.7146
 6968SOL    HW222505   4.951   2.517   4.572  0.8240 -0.0982 -0.9891
 6969SOL     OW22506   0.329   5.499   3.605 -0.0533  0.5616  0.2863
 6969SOL    HW122507   0.377   5.507   3.518 -0.8522 -2.5846 -0.5597
 6969SOL    HW222508   0.238   5.538   3.597  0.6524  2.3382  0.4776
 6970SOL     OW22509   4.649   1.066   3.729  0.0007  0.4052  0.5045
 6970SOL    HW122510   4.651   1.132   3.804  0.0773 -0.6078  1.4187
 6970SOL    HW222511   4.694   1.105   3.649 -0.4286  1.6568  0.8505
 6971SOL     OW22512   4.323   3.438   4.910  0.5554  0.2002  0.6365
 6971SOL    HW122513   4.237   3.389   4.893  0.4640  0.6776 -0.3832
 6971SOL    HW222514   4.400   3.382   4.879  0.4472  0.6884 -0.5833
 6972SOL     OW22515   0.977   0.670   0.225 -0.1188 -0.4331 -0.3330
 6972SOL    HW122516   1.056   0.692   0.283 -1.6055  0.4596  1.4972
 6972SOL    HW222517   0.986   0.717   0.138 -0.4931  3.1244  1.3746
 6973SOL     OW22518   1.144   0.489   2.450 -0.2903 -0.4306  0.0354
 6973SOL    HW122519   1.214   0.505   2.379  0.6948  1.0372  1.2841
 6973SOL    HW222520   1.146   0.393   2.477  0.6715 -0.5877 -0.5427
 6974SOL     OW22521   6.281   4.471   5.039  0.3667 -0.1994 -0.0665
 6974SOL    HW122522   6.300   4.403   5.110  0.1334 -0.0806  0.1133
 6974SOL    HW222523   6.272   4.425   4.951  3.6758 -0.0539 -0.5935
 6975SOL     OW22524   0.317   3.298   1.007  0.0694 -0.1871  0.1995
 6975SOL    HW122525   0.363   3.288   1.095 -0.3441  0.6386  0.5232
 6975SOL    HW222526   0.250   3.225   0.996  0.1465 -0.3157  0.5559
 6976SOL     OW22527   4.147   1.441   3.392 -0.2510 -0.3891  0.0147
 6976SOL    HW122528   4.107   1.406   3.307 -0.7437 -0.3945  0.2425
 6976SOL    HW222529   4.239   1.476   3.374  0.0535 -1.3386 -0.3136
 6977SOL     OW22530   2.214   0.860   6.040  0.4239  0.3242 -0.4375
 6977SOL    HW122531   2.172   0.845   5.950  0.5535  0.8872 -0.5993
 6977SOL    HW222532   2.146   0.903   6.100  0.3130 -0.1233 -0.2381
 6978SOL     OW22533   3.685   2.479   2.558 -0.1877 -0.1542 -0.0597
 6978SOL    HW122534   3.704   2.430   2.643 -0.7934  0.1681  0.2682
 6978SOL    HW222535   3.674   2.414   2.483  2.9515 -0.3747 -0.4731
 6979SOL     OW22536   6.405   0.430   0.890 -0.1200 -0.5919 -0.4361
 6979SOL    HW122537   6.386   0.514   0.840  1.8044 -0.4599 -1.0221
 6979SOL    HW222538   6.369   0.437   0.983 -0.5636  0.6023 -0.6875
 6980SOL     OW22539   6.435   2.207   2.865 -0.2383  0.5766  0.1758
 6980SOL    HW122540   6.479   2.174   2.949 -2.2968 -1.3044  0.6046
 6980SOL    HW222541   6.357   2.265   2.890  0.2216  1.5126 -0.5062
 6981SOL     OW22542   2.922   1.236   0.013 -0.1866  0.4242 -0.0112
 6981SOL    HW122543   2.948   1.226   0.109  1.5619 -1.6472 -0.6185
 6981SOL    HW222544   2.978   1.307  -0.030  1.0488 -0.5631 -0.1056
 6982SOL     OW22545   5.494   5.233   0.016 -0.2528  0.4259  0.0622
 6982SOL    HW122546   5.544   5.293  -0.047 -1.0486 -1.6891 -2.8008
 6982SOL    HW222547   5.404   5.214  -0.022 -0.4950 -1.5705  1.5090
 6983SOL     OW22548   4.871   2.226   5.299  0.3528  0.1503  0.0488
 6983SOL    HW122549   4.852   2.172   5.217 -0.7898  0.2182  0.2459
 6983SOL    HW222550   4.967   2.216   5.325  0.1325 -2.0066  0.2353
 6984SOL     OW22551   4.465   2.029   3.721 -0.5607 -0.8055  0.8984
 6984SOL    HW122552   4.388   2.067   3.773 -1.3741 -1.1095 -0.0623
 6984SOL    HW222553   4.543   2.018   3.782 -0.9148  0.5507  1.6460
 6985SOL     OW22554   3.846   4.770   5.892  0.0892 -0.1532  0.4374
 6985SOL    HW122555   3.750   4.741   5.883  0.8965 -3.0239  0.0928
 6985SOL    HW222556   3.869   4.778   5.989 -0.4988  0.7171  0.5220
 6986SOL     OW22557   2.916   5.261   2.355 -0.6897  0.1829 -0.4897
 6986SOL    HW122558   2.999   5.221   2.394 -0.9368  1.1512  1.1083
 6986SOL    HW222559   2.929   5.276   2.257  1.4352  1.3070 -0.0986
 6987SOL     OW22560   0.898   1.328   6.597  0.6539 -0.4814 -0.3062
 6987SOL    HW122561   0.856   1.311   6.508  1.3210 -1.7393 -0.3930
 6987SOL    HW222562   0.832   1.376   6.655  0.3443  0.7188 -1.5849
 6988SOL     OW22563   0.224   5.312   2.964  0.2686 -0.9569  0.2692
 6988SOL    HW122564   0.284   5.354   2.896 -0.3849 -0.9334 -0.2995
 6988SOL    HW222565   0.169   5.382   3.008  0.8941 -0.9319  1.0513
 6989SOL     OW22566   4.050   5.002   0.106 -0.3846  0.2456  0.2011
 6989SOL    HW122567   4.080   4.990   0.201 -0.0978  0.5520  0.1487
 6989SOL    HW222568   4.118   5.055   0.056  0.4804 -1.6063 -0.7163
 6990SOL     OW22569   5.400   4.930   0.982 -0.5213  0.1251 -0.2968
 6990SOL    HW122570   5.476   4.875   1.017 -0.5605 -0.2883 -0.8544
 6990SOL    HW222571   5.324   4.928   1.048 -0.4543 -0.3346 -0.2341
 6991SOL     OW22572   1.854   5.723   0.893 -0.7054 -0.3217 -0.0301
 6991SOL    HW122573   1.952   5.738   0.880 -0.6430  0.2696  1.0414
 6991SOL    HW222574   1.808   5.730   0.804 -0.1885  2.7328 -0.1568
 6992SOL     OW22575   5.114   1.283   2.527 -0.2056 -0.0273  0.1295
 6992SOL    HW122576   5.032   1.256   2.578  0.3617  0.5888  1.4142
 6992SOL    HW222577   5.115   1.236   2.438 -1.4456 -0.7888  0.4908
 6993SOL     OW22578   1.322   3.605   2.930 -0.0580 -0.1366  0.5580
 6993SOL    HW122579   1.408   3.656   2.942 -0.3870  0.2368  1.4362
 6993SOL    HW222580   1.298   3.561   3.016 -1.2320  0.5368  0.5915
 6994SOL     OW22581   0.525   3.769   2.073  0.2663  0.6295 -0.3297
 6994SOL    HW122582   0.442   3.749   2.020 -0.5849  0.5972  0.9827
 6994SOL    HW222583   0.584   3.688   2.073  0.4038  0.7056 -1.4083
 6995SOL     OW22584   6.566   3.726   5.792 -0.3271  0.3268  0.0694
 6995SOL    HW122585   6.569   3.710   5.890  0.0391 -0.3718 -0.0454
 6995SOL    HW222586   6.659   3.735   5.757 -0.3014 -1.6665 -0.5371
 6996SOL     OW22587   3.363   3.188   1.317 -0.3629 -0.2454  0.2850
 6996SOL    HW122588   3.363   3.210   1.220 -0.6523 -1.0721  0.0882
 6996SOL    HW222589   3.326   3.096   1.331  1.6165 -1.0031  0.9788
 6997SOL     OW22590   3.461   3.289   1.707 -0.4337  0.0266 -0.1380
 6997SOL    HW122591   3.424   3.197   1.698 -1.4607  0.5738 -1.9392
 6997SOL    HW222592   3.558   3.288   1.681 -0.7414 -0.3491 -1.3303
 6998SOL     OW22593   6.721   5.227   1.710 -0.1050 -0.0208  0.3690
 6998SOL    HW122594   6.748   5.321   1.732  0.1009 -0.0764  0.3547
 6998SOL    HW222595   6.785   5.163   1.752 -0.0439 -0.1443  0.0886
 6999SOL     OW22596   4.730   0.319   2.417 -0.2927  0.0660 -0.2650
 6999SOL    HW122597   4.652   0.316   2.480  1.0995 -1.7707  1.5175
 6999SOL    HW222598   4.710   0.382   2.342 -3.1782  0.1785  0.4813
 7000SOL     OW22599   3.303   4.995   1.770  0.2213  0.0132 -0.2961
 7000SOL    HW122600   3.326   4.911   1.721 -0.9658 -0.0743 -0.7418
 7000SOL    HW222601   3.204   4.999   1.785  0.4157  0.6647  0.9650
 7001SOL     OW22602   0.133   0.996   4.615 -0.4424  0.1012 -1.3966
 7001SOL    HW122603   0.162   1.091   4.622 -0.5673  0.0670 -0.2517
 7001SOL    HW222604   0.207   0.940   4.578  0.4567  0.2710  0.0647
 7002SOL     OW22605   5.189   0.633   1.177 -0.5001  0.0271  0.4114
 7002SOL    HW122606   5.097   0.594   1.173  0.2078 -1.6905  0.1299
 7002SOL    HW222607   5.235   0.617   1.090  0.5181 -0.3052  1.0017
 7003SOL     OW22608   4.792   4.070   0.001  0.0235 -0.2594  0.0882
 7003SOL    HW122609   4.794   4.021   0.088  2.0898 -0.1199  0.1733
 7003SOL    HW222610   4.796   4.005  -0.075  2.6050 -0.3356  0.1979
 7004SOL     OW22611   3.598   0.359   1.863 -0.1878 -0.6573 -0.5576
 7004SOL    HW122612   3.560   0.313   1.943 -0.7139  0.3336 -0.2207
 7004SOL    HW222613   3.523   0.388   1.803  0.1013  0.3196 -0.4505
 7005SOL     OW22614   3.106   2.257   0.149 -0.4541 -0.1831 -0.4991
 7005SOL    HW122615   3.122   2.159   0.166 -2.0261 -0.3603  0.1398
 7005SOL    HW222616   3.072   2.299   0.233 -0.2608  0.8212 -0.9154
 7006SOL     OW22617   3.390   4.246   1.441 -1.2431  0.0214 -0.2221
 7006SOL    HW122618   3.337   4.269   1.523 -1.3630 -2.3255  0.4386
 7006SOL    HW222619   3.477   4.295   1.443 -0.3861 -1.4074  2.3796
 7007SOL     OW22620   0.507   6.189   4.942 -0.2505 -0.4503  0.0302
 7007SOL    HW122621   0.505   6.091   4.919 -0.7736 -0.0085 -2.0235
 7007SOL    HW222622   0.417   6.229   4.926  0.2310  0.5773 -0.2046
 7008SOL     OW22623   2.034   0.433   6.649  0.8518 -0.5439 -0.0945
 7008SOL    HW122624   2.088   0.433   6.733 -0.8115  2.2735  1.1367
 7008SOL    HW222625   1.956   0.495   6.660  1.3394  1.1217 -4.2151
 7009SOL     OW22626   3.709   1.903   4.302 -0.5386 -0.3437  0.1154
 7009SOL    HW122627   3.742   1.808   4.296 -1.0140 -0.6313  1.5863
 7009SOL    HW222628   3.619   1.909   4.259 -0.7327 -0.6816  0.4643
 7010SOL     OW22629   2.033   4.856   6.490  0.3939  0.4897  0.9272
 7010SOL    HW122630   2.009   4.950   6.463 -1.2941  0.0512  0.7564
 7010SOL    HW222631   2.130   4.840   6.474  0.1817  1.3287 -1.7673
 7011SOL     OW22632   1.505   4.226   3.805 -0.2860  0.2816  0.1670
 7011SOL    HW122633   1.422   4.172   3.821  0.2158 -1.1430 -1.6310
 7011SOL    HW222634   1.577   4.167   3.769  1.1019  1.7344  0.4379
 7012SOL     OW22635   5.160   6.061   3.046  0.0362  0.0843 -0.8969
 7012SOL    HW122636   5.154   6.160   3.060  0.6787  0.1710 -1.1882
 7012SOL    HW222637   5.177   6.042   2.949 -0.2762 -0.3217 -0.8751
 7013SOL     OW22638   3.370   0.938   6.258  0.0008 -0.0223  0.1272
 7013SOL    HW122639   3.342   0.945   6.354 -0.9979  0.8410 -0.2075
 7013SOL    HW222640   3.371   0.842   6.230  0.3342 -0.2832  1.0054
 7014SOL     OW22641   4.054   2.769   6.248  0.6013 -0.5389  0.1739
 7014SOL    HW122642   3.968   2.814   6.271  2.3148  1.7109  2.7678
 7014SOL    HW222643   4.099   2.737   6.332  2.6374 -0.9447 -0.9942
 7015SOL     OW22644   4.815   0.924   4.574 -0.1082  0.3354 -0.1688
 7015SOL    HW122645   4.865   1.008   4.597 -1.3539  0.6918  1.3862
 7015SOL    HW222646   4.857   0.847   4.622  0.1397  0.2997 -0.4372
 7016SOL     OW22647   6.116   1.114   3.850  0.3222 -0.2245  0.7498
 7016SOL    HW122648   6.130   1.085   3.944 -1.0385 -0.4038  0.9104
 7016SOL    HW222649   6.068   1.043   3.799  2.2075 -0.7127 -0.4726
 7017SOL     OW22650   0.632   6.641   0.099  0.1158  0.1000 -0.8475
 7017SOL    HW122651   0.580   6.571   0.052 -2.1089  0.5280  0.8074
 7017SOL    HW222652   0.649   6.613   0.193  4.3415 -0.6816 -1.6299
 7018SOL     OW22653   6.760   1.396   2.190  0.2887  0.4246  0.2141
 7018SOL    HW122654   6.728   1.430   2.101 -0.0955  1.1451  0.6177
 7018SOL    HW222655   6.685   1.397   2.255  0.9963  1.7863  1.0744
 7019SOL     OW22656   0.322   3.805   6.087 -0.3350 -0.1674  0.7610
 7019SOL    HW122657   0.309   3.898   6.122  0.9901  0.9742 -1.5168
 7019SOL    HW222658   0.385   3.755   6.146  0.6288  1.1417  0.8692
 7020SOL     OW22659   5.932   4.233   5.194 -0.3679 -0.1364 -0.1735
 7020SOL    HW122660   5.883   4.169   5.252  0.1277 -0.1715  0.2080
 7020SOL    HW222661   5.891   4.232   5.102 -4.4569  3.4470  1.2483
 7021SOL     OW22662   1.152   2.061   2.418  0.3856 -0.1812  0.1971
 7021SOL    HW122663   1.209   1.991   2.461  1.4654  0.1820 -0.5988
 7021SOL    HW222664   1.167   2.149   2.463  1.6080  0.2260 -0.9261
 7022SOL     OW22665   0.796   0.656   6.610  0.3017  0.4378  0.2449
 7022SOL    HW122666   0.721   0.590   6.606 -0.6803  1.4906  0.7460
 7022SOL    HW222667   0.772   0.737   6.557  1.3810  0.5194 -0.1481
 7023SOL     OW22668   5.998   4.221   4.869  0.3812  0.4421 -0.2565
 7023SOL    HW122669   6.087   4.184   4.842  0.5293 -0.4225  1.2830
 7023SOL    HW222670   5.991   4.316   4.840  1.7246  0.4655 -0.5745
 7024SOL     OW22671   1.730   4.802   4.292  0.2138  0.1895  0.0521
 7024SOL    HW122672   1.654   4.767   4.237 -0.0628 -0.7750  0.9995
 7024SOL    HW222673   1.757   4.892   4.259  2.0380 -1.5015 -3.5493
 7025SOL     OW22674   5.070   1.530   4.602 -0.1446  0.2543 -0.0905
 7025SOL    HW122675   4.980   1.572   4.612  0.1875  0.7372  1.1290
 7025SOL    HW222676   5.081   1.460   4.673  0.9311  1.1408  0.6542
 7026SOL     OW22677   5.214   5.313   6.304 -0.1403  0.3127  0.5976
 7026SOL    HW122678   5.225   5.354   6.394 -0.2044  0.3746  0.5768
 7026SOL    HW222679   5.144   5.362   6.253  1.0448  1.3200 -0.1066
 7027SOL     OW22680   1.531   1.619   4.848  0.0664 -0.5139 -0.1305
 7027SOL    HW122681   1.621   1.627   4.890 -0.0315 -0.3230  0.0448
 7027SOL    HW222682   1.524   1.532   4.799 -0.1681 -1.1965  1.0685
 7028SOL     OW22683   5.432   2.452   1.806 -0.1895  0.3610 -0.2080
 7028SOL    HW122684   5.354   2.393   1.784 -0.3542  0.6384 -0.3788
 7028SOL    HW222685   5.507   2.432   1.743 -0.2406  0.3232 -0.2573
 7029SOL     OW22686   6.947   6.736   1.039 -0.0915  0.1962 -0.1126
 7029SOL    HW122687   7.002   6.818   1.021  1.3623 -1.0879 -1.9488
 7029SOL    HW222688   6.942   6.681   0.956 -1.8805 -1.1043  0.7989
 7030SOL     OW22689   1.254   1.148   5.850 -0.6564 -0.0661  0.0445
 7030SOL    HW122690   1.339   1.200   5.864 -0.2151 -0.9493  0.7319
 7030SOL    HW222691   1.255   1.108   5.759 -1.2403  1.5228 -0.7091
 7031SOL     OW22692   0.648   1.318   1.838  0.2534 -0.1462  0.2590
 7031SOL    HW122693   0.658   1.319   1.738  0.8172  0.9292  0.3126
 7031SOL    HW222694   0.575   1.381   1.865 -0.5370 -1.1334  0.4783
 7032SOL     OW22695   5.161   2.861   3.244 -0.2985  1.0667  0.1916
 7032SOL    HW122696   5.101   2.782   3.257 -0.1192  1.0770  1.1565
 7032SOL    HW222697   5.117   2.927   3.183 -0.3746  0.1545 -0.7854
 7033SOL     OW22698   0.623   1.498   3.002 -0.1246  0.4088 -0.3127
 7033SOL    HW122699   0.554   1.496   2.930 -0.4611 -1.2922  0.0036
 7033SOL    HW222700   0.590   1.554   3.078 -1.2867 -0.5854 -0.0611
 7034SOL     OW22701   5.081   4.085   5.245  0.5272  0.2434 -1.0638
 7034SOL    HW122702   5.089   4.137   5.160 -0.3676  1.7108 -0.2900
 7034SOL    HW222703   5.135   4.002   5.238  2.7627  1.6843 -2.0289
 7035SOL     OW22704   2.999   5.895   6.268 -0.1352 -0.1260  0.0697
 7035SOL    HW122705   2.955   5.985   6.268  0.7278  0.3727 -2.4576
 7035SOL    HW222706   2.942   5.830   6.218 -0.0659 -0.6422  0.6420
 7036SOL     OW22707   0.959   2.606   3.241  0.3280  0.4105  0.0526
 7036SOL    HW122708   0.902   2.623   3.322  0.2260 -0.7525  0.2396
 7036SOL    HW222709   0.921   2.530   3.189  0.3143  1.2240 -1.1834
 7037SOL     OW22710   1.562   0.363   0.000  0.3551  0.7525  0.0156
 7037SOL    HW122711   1.633   0.412  -0.050 -0.0004  1.5221  0.2520
 7037SOL    HW222712   1.593   0.346   0.094 -0.3160  2.3822  0.5646
 7038SOL     OW22713   5.941   3.562   6.473 -0.4512  0.1564  0.9379
 7038SOL    HW122714   6.003   3.525   6.403  0.3672 -0.4727  1.9599
 7038SOL    HW222715   5.872   3.619   6.430  0.8168  0.8421 -0.2495
 7039SOL     OW22716   4.035   3.009   6.828 -0.0477  0.1970 -0.1499
 7039SOL    HW122717   4.039   3.045   6.921 -1.1059 -0.5322  0.1999
 7039SOL    HW222718   4.128   2.999   6.792  0.4929 -1.0536  1.4515
 7040SOL     OW22719   1.268   3.074   3.604 -0.2322 -0.1491 -0.0254
 7040SOL    HW122720   1.365   3.062   3.584 -0.1438  1.5081 -0.8214
 7040SOL    HW222721   1.214   3.050   3.523 -0.3901  0.1106  0.0007
 7041SOL     OW22722   4.874   6.700   6.448  0.6304  0.4252  0.1795
 7041SOL    HW122723   4.920   6.612   6.464  0.8130  0.8555  2.3305
 7041SOL    HW222724   4.890   6.730   6.354  1.3055 -1.3995 -0.3267
 7042SOL     OW22725   1.635   6.112   1.756 -0.0550 -0.0885 -0.0486
 7042SOL    HW122726   1.599   6.081   1.668 -0.1313  1.6339 -0.6637
 7042SOL    HW222727   1.562   6.110   1.824 -0.5632  0.5726 -0.5621
 7043SOL     OW22728   6.663   2.429   0.076  0.0875  0.7777 -0.3155
 7043SOL    HW122729   6.566   2.405   0.077  0.0333  0.8182 -2.0032
 7043SOL    HW222730   6.691   2.458   0.168 -1.5411  0.9796  0.1516
 7044SOL     OW22731   1.870   0.122   3.209  0.0909  0.0621 -0.2779
 7044SOL    HW122732   1.873   0.137   3.110  0.0068  1.2504 -0.1176
 7044SOL    HW222733   1.793   0.062   3.231  0.2556 -0.4134 -0.9432
 7045SOL     OW22734   5.403   0.594   2.018 -0.0739 -0.1994 -0.0210
 7045SOL    HW122735   5.397   0.509   1.965 -2.8205 -1.2923  1.8137
 7045SOL    HW222736   5.441   0.575   2.108  0.3474  0.7371  0.0060
 7046SOL     OW22737   2.504   2.942   3.328 -0.0995 -0.2621  0.2003
 7046SOL    HW122738   2.510   3.017   3.393 -0.5719 -0.0381 -0.0110
 7046SOL    HW222739   2.415   2.898   3.335 -0.1017 -0.3270 -0.1984
 7047SOL     OW22740   5.546   5.970   1.153  0.5447  0.6766  0.5750
 7047SOL    HW122741   5.557   5.897   1.085 -0.5977 -0.3546  1.4487
 7047SOL    HW222742   5.472   6.031   1.126  0.6329  0.7508  0.4980
 7048SOL     OW22743   6.656   2.317   6.825  0.3460 -0.4664  0.7009
 7048SOL    HW122744   6.557   2.310   6.832 -0.0723  2.9741  0.0806
 7048SOL    HW222745   6.694   2.343   6.914  0.2902  0.9137  0.3501
 7049SOL     OW22746   0.825   3.839   2.531  0.3823  0.2051  0.0106
 7049SOL    HW122747   0.859   3.746   2.521  0.5362  0.3325 -0.7455
 7049SOL    HW222748   0.900   3.903   2.518  0.4605  0.4280  1.4034
 7050SOL     OW22749   2.116   1.540   0.239 -0.2782 -0.2143 -0.0247
 7050SOL    HW122750   2.201   1.531   0.188 -0.4017  0.6090 -0.3983
 7050SOL    HW222751   2.066   1.620   0.205 -0.0733  0.7329  1.7789
 7051SOL     OW22752   0.254   4.078   0.174  0.1682 -0.0081 -0.1167
 7051SOL    HW122753   0.316   4.025   0.117 -2.8428 -2.8480 -1.0937
 7051SOL    HW222754   0.242   4.031   0.262 -4.0886 -2.5116 -1.7386
 7052SOL     OW22755   6.834   3.669   1.535  0.0358 -0.0950  0.2873
 7052SOL    HW122756   6.908   3.602   1.538  1.9129  1.8576  3.2379
 7052SOL    HW222757   6.830   3.711   1.444  2.5698 -0.2773  0.0354
 7053SOL     OW22758   2.534   0.712   4.834 -0.1194 -0.5969  0.4882
 7053SOL    HW122759   2.504   0.631   4.784 -0.4890 -0.8490  1.1030
 7053SOL    HW222760   2.455   0.758   4.875  0.2633 -1.0267  1.7656
 7054SOL     OW22761   6.671   1.628   2.821 -0.0053  0.3412  0.1727
 7054SOL    HW122762   6.707   1.714   2.858 -2.0139  1.7403 -0.8792
 7054SOL    HW222763   6.614   1.583   2.890 -0.1743  0.6587  0.2437
 7055SOL     OW22764   5.223   3.093   0.666  0.5125  0.2124 -0.3941
 7055SOL    HW122765   5.157   3.033   0.621  0.1028 -0.4286  0.9992
 7055SOL    HW222766   5.198   3.103   0.763  1.0915  1.9157 -0.3853
 7056SOL     OW22767   2.487   1.473   6.032  0.2337  0.8721 -0.0432
 7056SOL    HW122768   2.480   1.537   6.108  1.6925  0.1135  0.7895
 7056SOL    HW222769   2.468   1.380   6.065  0.9776  0.5209 -0.5512
 7057SOL     OW22770   3.712   5.345   0.874  0.1967 -0.2325 -0.0990
 7057SOL    HW122771   3.761   5.400   0.806  0.2804 -1.3729 -0.9827
 7057SOL    HW222772   3.617   5.334   0.845 -0.2092  0.6748  0.8322
 7058SOL     OW22773   4.220   0.946   4.299  0.3026 -0.5026 -0.0890
 7058SOL    HW122774   4.319   0.945   4.285  0.0843  1.0329 -2.2939
 7058SOL    HW222775   4.190   1.040   4.317 -0.6973 -1.0595  1.3283
 7059SOL     OW22776   4.094   1.254   6.468 -0.2125  0.1196 -0.1483
 7059SOL    HW122777   4.142   1.320   6.526 -0.0751  0.3692 -0.5439
 7059SOL    HW222778   4.160   1.198   6.419 -0.3304 -0.0785 -0.0835
 7060SOL     OW22779   4.417   3.003   5.136 -0.4061  0.1678 -0.8302
 7060SOL    HW122780   4.375   3.090   5.160 -0.2782 -0.5291  2.3667
 7060SOL    HW222781   4.353   2.949   5.082  0.2227  2.8478 -4.6770
 7061SOL     OW22782   5.970   2.302   5.151 -0.3212 -0.2049  0.8753
 7061SOL    HW122783   5.903   2.231   5.126 -1.1312  1.2202 -1.2393
 7061SOL    HW222784   5.940   2.346   5.236 -2.0841  0.3411  0.0233
 7062SOL     OW22785   5.474   5.481   5.135 -0.2400 -0.0404 -0.2505
 7062SOL    HW122786   5.448   5.546   5.063 -2.1928 -0.7102 -0.2130
 7062SOL    HW222787   5.491   5.531   5.220  0.2757  0.5853 -0.7065
 7063SOL     OW22788   6.674   0.209   3.075 -0.2596  0.5216 -0.0500
 7063SOL    HW122789   6.670   0.110   3.092 -0.1510  0.5272  0.0076
 7063SOL    HW222790   6.659   0.227   2.978 -0.9633  0.4919  0.0448
 7064SOL     OW22791   1.936   2.353   5.834  0.3598  0.2855 -0.0319
 7064SOL    HW122792   2.026   2.389   5.811 -0.0477  1.3845  0.0345
 7064SOL    HW222793   1.910   2.381   5.926  1.2655 -2.6969  1.2655
 7065SOL     OW22794   0.842   0.552   5.838  0.4977  0.2259  0.1626
 7065SOL    HW122795   0.813   0.608   5.915 -1.0226  0.8328 -0.8084
 7065SOL    HW222796   0.765   0.535   5.778  1.1895 -1.9004 -0.2395
 7066SOL     OW22797   4.459   1.222   2.079  0.2345  0.1273  0.9124
 7066SOL    HW122798   4.532   1.236   2.012  0.5826 -1.3957  0.9283
 7066SOL    HW222799   4.381   1.280   2.057 -0.5801 -1.9267 -2.1915
 7067SOL     OW22800   4.653   5.104   4.493 -0.4693 -0.4008  0.0510
 7067SOL    HW122801   4.731   5.166   4.483 -0.7910 -0.1363 -0.8741
 7067SOL    HW222802   4.682   5.024   4.546  0.8468 -0.9766 -1.4394
 7068SOL     OW22803   0.735   3.784   6.436  0.1216 -0.2252 -0.0795
 7068SOL    HW122804   0.715   3.799   6.533  0.0776 -0.8184  0.0101
 7068SOL    HW222805   0.819   3.731   6.428  1.5604  1.9730 -0.4453
 7069SOL     OW22806   3.115   6.567   2.988 -0.3216 -0.4755  0.0179
 7069SOL    HW122807   3.038   6.513   3.023 -2.1900  0.1419 -2.7720
 7069SOL    HW222808   3.170   6.511   2.926  0.0311 -0.2343  0.1092
 7070SOL     OW22809   1.154   3.689   2.693  0.2524  0.0307 -0.2409
 7070SOL    HW122810   1.098   3.758   2.739  0.4044  0.7110 -1.0366
 7070SOL    HW222811   1.196   3.630   2.761 -1.7768 -0.8011  0.3707
 7071SOL     OW22812   2.967   5.169   0.211  0.1871  0.1922 -0.4943
 7071SOL    HW122813   2.911   5.248   0.189 -1.1680 -0.6719 -0.2573
 7071SOL    HW222814   2.916   5.085   0.191  1.1955 -0.6255  0.2399
 7072SOL     OW22815   1.776   0.339   1.090  0.4463 -0.5067  0.2029
 7072SOL    HW122816   1.849   0.273   1.069  1.1628  0.4771 -0.4723
 7072SOL    HW222817   1.815   0.417   1.139 -0.1823 -0.0403 -0.0375
 7073SOL     OW22818   5.842   5.023   3.298 -0.3298  0.1138  0.4451
 7073SOL    HW122819   5.941   5.030   3.291 -0.1141 -2.2985  0.1720
 7073SOL    HW222820   5.800   5.053   3.211  0.2853 -0.4383 -0.0525
 7074SOL     OW22821   0.587   6.428   2.941 -0.0850 -0.1620 -0.2580
 7074SOL    HW122822   0.654   6.361   2.973 -1.9310 -1.8144  0.2971
 7074SOL    HW222823   0.610   6.518   2.978  0.6391 -1.0856  1.6831
 7075SOL     OW22824   6.849   5.474   1.689 -0.1236  0.0474  0.0786
 7075SOL    HW122825   6.912   5.467   1.612  2.1936 -1.7184  1.9777
 7075SOL    HW222826   6.826   5.571   1.704 -0.5784  0.4405 -2.6772
 7076SOL     OW22827   3.862   2.508   1.782  0.5757  0.4468 -0.0235
 7076SOL    HW122828   3.871   2.606   1.802  2.2754  0.4052 -0.4901
 7076SOL    HW222829   3.929   2.457   1.835  1.1746 -0.2430 -1.3939
 7077SOL     OW22830   3.889   5.258   0.491  0.6126  0.1818  0.0829
 7077SOL    HW122831   3.827   5.179   0.491  0.6967  0.0966  1.4413
 7077SOL    HW222832   3.897   5.293   0.398  0.1890 -1.1076 -0.4711
 7078SOL     OW22833   5.259   0.012   5.065 -0.5256  0.0722  0.2313
 7078SOL    HW122834   5.358   0.010   5.074 -0.6183 -1.0756  1.1556
 7078SOL    HW222835   5.231  -0.035   4.981 -0.1287  3.8567 -2.3111
 7079SOL     OW22836   5.103   1.848   1.995 -0.5375 -0.3843 -0.4145
 7079SOL    HW122837   5.198   1.830   2.021 -0.6160  0.1434  0.2795
 7079SOL    HW222838   5.067   1.771   1.942  0.2931 -0.5587 -0.7333
 7080SOL     OW22839   1.878   4.034   0.516  0.2748  0.1233 -0.0458
 7080SOL    HW122840   1.927   4.087   0.586 -0.6856  1.8408 -0.6166
 7080SOL    HW222841   1.792   4.080   0.494 -0.0285 -1.0639 -1.4722
 7081SOL     OW22842   0.679   2.203   4.553 -0.3231 -0.0313 -0.3821
 7081SOL    HW122843   0.669   2.170   4.647  2.0269  0.2159  0.0034
 7081SOL    HW222844   0.661   2.302   4.551 -0.6497 -0.0843 -0.2697
 7082SOL     OW22845   6.806   1.983   1.716  0.2525  0.0215  0.2786
 7082SOL    HW122846   6.896   1.983   1.674  0.1441 -2.2553 -0.0926
 7082SOL    HW222847   6.812   1.950   1.810 -0.1635 -0.0250  0.2943
 7083SOL     OW22848   2.608   3.005   5.124  0.6528 -0.2070 -0.5547
 7083SOL    HW122849   2.657   2.962   5.200  0.1639  1.3094  0.6697
 7083SOL    HW222850   2.650   2.978   5.038  2.1290 -0.8265  0.3233
 7084SOL     OW22851   6.722   4.552   3.930  0.2309  1.0389  0.2037
 7084SOL    HW122852   6.627   4.568   3.957  0.1663 -0.4744  1.0048
 7084SOL    HW222853   6.744   4.608   3.851 -1.3950  1.2699 -0.1238
 7085SOL     OW22854   5.389   6.619   0.030  0.0485  0.4115 -0.0273
 7085SOL    HW122855   5.440   6.634   0.114 -0.3718  0.1293  0.2862
 7085SOL    HW222856   5.306   6.568   0.051 -0.9537  1.8442 -0.3405
 7086SOL     OW22857   0.872   5.982   4.550 -0.0818 -0.3173  0.6098
 7086SOL    HW122858   0.956   5.930   4.536  0.4232  0.5277  0.4531
 7086SOL    HW222859   0.821   5.987   4.464 -0.2433 -0.7289  0.6772
 7087SOL     OW22860   0.225   4.976   2.482 -0.5385 -0.0850  0.3018
 7087SOL    HW122861   0.208   5.070   2.514 -1.4069 -0.5584  1.2909
 7087SOL    HW222862   0.278   4.979   2.397  3.2100  1.2158  2.4487
 7088SOL     OW22863   5.566   0.667   1.236 -0.3470  0.2060  0.6847
 7088SOL    HW122864   5.638   0.735   1.244 -0.4478  0.4183 -0.1389
 7088SOL    HW222865   5.508   0.669   1.317  0.6358 -0.0497  1.4125
 7089SOL     OW22866   3.014   4.920   3.119  0.0261  0.2046 -0.0201
 7089SOL    HW122867   3.018   5.019   3.106 -0.7461  0.3946  1.0372
 7089SOL    HW222868   3.000   4.900   3.216  0.2282 -0.9487 -0.2128
 7090SOL     OW22869   4.237   6.459   3.791 -0.4776  0.0946  0.3283
 7090SOL    HW122870   4.316   6.514   3.818  0.9393 -2.3799  1.6965
 7090SOL    HW222871   4.164   6.468   3.859 -0.7472  1.1721 -0.0965
 7091SOL     OW22872   0.444   1.497   0.351 -0.0544  0.0232 -0.4198
 7091SOL    HW122873   0.468   1.572   0.413 -0.9101 -0.8524  1.0338
 7091SOL    HW222874   0.355   1.517   0.308  0.5573  0.6485 -1.4284
 7092SOL     OW22875   0.334   3.443   2.037 -0.1362 -0.4140  0.7664
 7092SOL    HW122876   0.320   3.352   1.998 -0.5925  0.3151 -0.8731
 7092SOL    HW222877   0.349   3.436   2.135 -2.8584 -2.0507  1.1648
 7093SOL     OW22878   5.378   3.254   4.068 -0.1499  0.0380  0.0790
 7093SOL    HW122879   5.280   3.237   4.059 -0.1903  1.2152 -3.3308
 7093SOL    HW222880   5.409   3.309   3.990  3.4681 -1.3467  0.3607
 7094SOL     OW22881   4.939   6.334   0.370  0.6904  0.1463 -0.2852
 7094SOL    HW122882   5.035   6.315   0.348  0.6867  1.5952 -1.7728
 7094SOL    HW222883   4.929   6.429   0.400 -0.2632 -0.0178 -0.0328
 7095SOL     OW22884   3.300   0.487   6.453  0.0321  0.4041 -0.0631
 7095SOL    HW122885   3.392   0.450   6.437  0.6741  1.9116 -0.0386
 7095SOL    HW222886   3.251   0.492   6.366  1.6367  3.7400 -0.9085
 7096SOL     OW22887   6.666   0.865   2.422  0.5832  0.2799 -0.1911
 7096SOL    HW122888   6.687   0.801   2.348 -1.3616  0.3857 -0.8932
 7096SOL    HW222889   6.576   0.843   2.459  2.3282 -1.1676  3.7000
 7097SOL     OW22890   4.631   3.411   4.157 -0.4344 -0.2674 -0.0886
 7097SOL    HW122891   4.661   3.403   4.252  1.6222  1.0910 -0.5547
 7097SOL    HW222892   4.544   3.363   4.145 -0.0919 -1.5766  2.1552
 7098SOL     OW22893   4.198   5.917   6.920 -0.1458  0.0817  0.1992
 7098SOL    HW122894   4.276   5.919   6.857  0.0788 -0.3854  0.4591
 7098SOL    HW222895   4.231   5.927   7.014 -0.2808 -1.1749  0.4007
 7099SOL     OW22896   0.528   1.752   1.491  0.0227 -0.1979  0.0542
 7099SOL    HW122897   0.530   1.708   1.401  1.2013 -0.6223  0.2651
 7099SOL    HW222898   0.611   1.727   1.541 -0.6373  0.0013  1.2747
 7100SOL     OW22899   0.443   1.508   1.852  1.0302  0.3508  0.1516
 7100SOL    HW122900   0.393   1.515   1.766  1.0933  0.0395  0.0882
 7100SOL    HW222901   0.524   1.567   1.850  0.6582  0.8659  0.2599
 7101SOL     OW22902   0.520   4.453   5.845  0.3777  0.3354  0.0954
 7101SOL    HW122903   0.440   4.397   5.869  0.8768 -1.8278 -2.7643
 7101SOL    HW222904   0.491   4.546   5.822 -0.8806  0.4352  1.8819
 7102SOL     OW22905   2.191   6.681   1.161  0.3306 -0.3216  0.1834
 7102SOL    HW122906   2.121   6.626   1.206 -0.6398 -0.3872 -1.3311
 7102SOL    HW222907   2.255   6.622   1.112  1.1119 -0.2319  1.0750
 7103SOL     OW22908   1.536   4.246   4.357 -0.4366  0.5566  0.5810
 7103SOL    HW122909   1.506   4.228   4.450  0.8249  0.0158  0.8982
 7103SOL    HW222910   1.591   4.170   4.323 -0.5367  0.9233 -0.4582
 7104SOL     OW22911   5.466   6.553   3.835  0.0713  0.0161 -0.0089
 7104SOL    HW122912   5.439   6.462   3.867 -1.4875  1.3515  2.8488
 7104SOL    HW222913   5.518   6.600   3.907  0.1015  1.7170 -1.0752
 7105SOL     OW22914   5.806   5.865   1.463 -0.0296  0.0201 -0.2247
 7105SOL    HW122915   5.739   5.791   1.468 -1.5713  1.2097 -1.9314
 7105SOL    HW222916   5.761   5.952   1.481  0.4854  1.0999 -3.5743
 7106SOL     OW22917   5.956   3.237   2.855  0.3827 -0.8041 -0.1895
 7106SOL    HW122918   6.052   3.219   2.880  0.5233  1.5338  1.2758
 7106SOL    HW222919   5.905   3.265   2.937 -0.5077  1.9412 -1.5424
 7107SOL     OW22920   2.932   3.355   5.912  0.5378  0.4309  0.4226
 7107SOL    HW122921   3.015   3.313   5.874 -0.7816 -0.5356 -1.5114
 7107SOL    HW222922   2.927   3.450   5.883 -0.5175 -0.3250 -2.0890
 7108SOL     OW22923   2.827   1.222   2.785 -0.2027  0.2139  0.1382
 7108SOL    HW122924   2.900   1.154   2.795 -0.6848 -0.2170  0.7909
 7108SOL    HW222925   2.853   1.288   2.714  0.8519  0.1131  0.4057
 7109SOL     OW22926   2.175   0.658   0.067 -0.0542  0.4046 -0.4021
 7109SOL    HW122927   2.219   0.686   0.152 -1.4664 -1.7129  1.1102
 7109SOL    HW222928   2.105   0.726   0.042  0.2165  0.9347  0.2574
 7110SOL     OW22929   6.689   6.829   3.923 -0.0320 -0.0036  0.2406
 7110SOL    HW122930   6.787   6.831   3.904 -0.1957  1.3200 -0.5531
 7110SOL    HW222931   6.666   6.902   3.987 -0.7171  0.7190 -0.7934
 7111SOL     OW22932   1.031   4.036   5.100  0.0294  0.6366  0.6126
 7111SOL    HW122933   0.947   4.054   5.151 -0.2516 -0.9458  0.7432
 7111SOL    HW222934   1.016   4.057   5.003 -1.1949 -1.5106  0.2786
 7112SOL     OW22935   1.462   6.656   4.784  1.1184  0.3485  0.4700
 7112SOL    HW122936   1.470   6.731   4.717  2.0203 -0.9009 -0.8898
 7112SOL    HW222937   1.372   6.614   4.776  0.0515  2.1153  2.2306
 7113SOL     OW22938   6.848   2.664   5.037  0.6564 -0.4094 -0.8725
 7113SOL    HW122939   6.752   2.634   5.041  0.6867 -0.5306 -1.0345
 7113SOL    HW222940   6.891   2.650   5.126  0.0424  1.2810 -0.2733
 7114SOL     OW22941   0.793   0.325   0.907 -0.2957  0.5436  0.0593
 7114SOL    HW122942   0.729   0.382   0.959 -0.9773 -0.3746  0.2463
 7114SOL    HW222943   0.810   0.240   0.956 -2.0527 -0.9824 -1.8001
 7115SOL     OW22944   5.003   0.377   4.304  0.2991 -0.2293  0.1293
 7115SOL    HW122945   4.936   0.384   4.231 -1.4757  0.2907  1.7349
 7115SOL    HW222946   4.963   0.410   4.390  2.5840  0.0167  1.1797
 7116SOL     OW22947   6.551   3.806   3.489  0.0127 -0.6457 -0.1899
 7116SOL    HW122948   6.538   3.905   3.488  1.6683 -0.3851 -2.0217
 7116SOL    HW222949   6.462   3.760   3.480 -0.5925  0.7194 -1.5778
 7117SOL     OW22950   5.517   2.775   5.094 -0.1231 -0.0871  0.2348
 7117SOL    HW122951   5.471   2.686   5.088 -1.4921  0.2675  3.4314
 7117SOL    HW222952   5.544   2.792   5.189  1.6521  2.2198 -0.6014
 7118SOL     OW22953   4.730   0.611   6.202  0.3452 -0.1162 -0.2246
 7118SOL    HW122954   4.798   0.623   6.130  0.1493  1.2794 -0.2129
 7118SOL    HW222955   4.773   0.627   6.291  0.3779 -0.9128 -0.0946
 7119SOL     OW22956   0.749   4.719   6.079 -0.1934  0.0421 -0.3879
 7119SOL    HW122957   0.732   4.654   6.005 -3.2937  0.7545 -0.4539
 7119SOL    HW222958   0.787   4.803   6.041  1.0615 -0.6421 -0.7046
 7120SOL     OW22959   1.630   6.390   0.508  0.3729 -0.3572 -0.4397
 7120SOL    HW122960   1.642   6.317   0.575 -0.5685 -0.1050  0.0320
 7120SOL    HW222961   1.572   6.461   0.548  0.2094  0.0295 -1.3561
 7121SOL     OW22962   2.993   6.185   1.299 -0.1317 -0.5121 -0.3200
 7121SOL    HW122963   2.913   6.130   1.324 -0.3175 -0.2585 -0.3471
 7121SOL    HW222964   2.969   6.282   1.307  0.5671 -0.4216  0.9744
 7122SOL     OW22965   2.168   5.482   2.294 -0.5194 -0.5810 -0.1961
 7122SOL    HW122966   2.143   5.579   2.287  1.2247 -0.1472 -0.8384
 7122SOL    HW222967   2.133   5.445   2.380 -0.7068  0.7645  0.3353
 7123SOL     OW22968   1.146   2.866   0.202 -0.0016  0.1826  0.1510
 7123SOL    HW122969   1.184   2.795   0.261  0.2089  0.7724  0.7354
 7123SOL    HW222970   1.195   2.867   0.115  1.6820  1.2424  1.0559
 7124SOL     OW22971   6.585   2.046   5.640 -0.2253 -0.3341  0.1511
 7124SOL    HW122972   6.517   2.040   5.567 -1.7145  0.0709  1.4359
 7124SOL    HW222973   6.567   1.975   5.708  0.2349  0.1762  0.8197
 7125SOL     OW22974   2.980   2.696   1.570  0.1051 -0.1634  0.0982
 7125SOL    HW122975   3.017   2.632   1.502  0.2390 -0.7569  0.7145
 7125SOL    HW222976   2.963   2.647   1.656 -1.9185  0.1294 -0.0806
 7126SOL     OW22977   3.952   1.774   3.155 -0.1432 -0.7229  0.2555
 7126SOL    HW122978   4.006   1.857   3.140 -3.0027  1.7856  2.3330
 7126SOL    HW222979   3.964   1.743   3.249 -0.7765 -1.3214  0.1439
 7127SOL     OW22980   3.905   3.799   1.787 -0.0233  0.4295  0.5942
 7127SOL    HW122981   3.869   3.706   1.777 -0.4552  0.6732 -0.1531
 7127SOL    HW222982   4.004   3.798   1.775 -0.0796  0.1316  0.1492
 7128SOL     OW22983   1.171   3.154   2.264  0.0174  0.1217 -0.3439
 7128SOL    HW122984   1.076   3.148   2.296 -0.1427 -1.0581 -0.9736
 7128SOL    HW222985   1.176   3.125   2.168  0.6809  2.4039 -1.0578
 7129SOL     OW22986   0.531   4.958   6.054  0.1172  0.1772 -0.1945
 7129SOL    HW122987   0.533   4.858   6.063 -0.6959  0.2022  0.3291
 7129SOL    HW222988   0.475   4.983   5.975 -0.2527  0.2333  0.0822
 7130SOL     OW22989   2.928   6.183   0.174  0.7911  0.4226 -0.3393
 7130SOL    HW122990   3.012   6.179   0.118  0.8136  0.6876 -0.3247
 7130SOL    HW222991   2.934   6.115   0.247 -0.7080 -2.4757 -2.6649
 7131SOL     OW22992   4.980   5.158   6.650  0.3918  0.5034  0.0011
 7131SOL    HW122993   5.014   5.072   6.613  0.2285 -0.1279  1.2409
 7131SOL    HW222994   4.885   5.171   6.621  0.4945  0.3879 -0.3925
 7132SOL     OW22995   5.898   6.340   2.569 -0.4708  0.6945  0.0288
 7132SOL    HW122996   5.907   6.407   2.643  1.7284  0.8695 -0.3113
 7132SOL    HW222997   5.967   6.359   2.498 -2.0329  0.0964 -1.7373
 7133SOL     OW22998   1.630   3.607   1.992 -0.4463  0.6577  0.2439
 7133SOL    HW122999   1.587   3.640   1.908 -0.5342  2.4842  0.9798
 7133SOL    HW223000   1.709   3.664   2.015 -1.1752  1.0103  2.0669
 7134SOL     OW23001   0.787   6.094   6.912 -0.0090 -0.6110  0.0981
 7134SOL    HW123002   0.716   6.028   6.940 -1.8383  1.8796  1.7262
 7134SOL    HW223003   0.876   6.061   6.941 -0.8419 -2.4237  0.7639
 7135SOL     OW23004   5.145   1.631   2.897 -1.1844 -0.6788  0.1286
 7135SOL    HW123005   5.216   1.561   2.892 -2.5115 -2.0348 -1.2837
 7135SOL    HW223006   5.105   1.631   2.989  1.1668  0.7584  1.2390
 7136SOL     OW23007   1.883   2.991   4.005  0.0481  0.0949  0.0887
 7136SOL    HW123008   1.827   2.946   3.935  1.5072 -0.0304 -1.0550
 7136SOL    HW223009   1.824   3.039   4.069 -1.3697 -0.1997 -0.9472
 7137SOL     OW23010   6.395   1.785   6.914  0.2348  0.1940  0.2539
 7137SOL    HW123011   6.471   1.757   6.973  0.0887 -2.0833 -0.5293
 7137SOL    HW223012   6.309   1.773   6.963  0.2796  1.5139  0.6878
 7138SOL     OW23013   3.351   0.449   3.476 -0.3868 -0.0781 -0.2344
 7138SOL    HW123014   3.432   0.402   3.440 -0.3882 -0.5651  0.3614
 7138SOL    HW223015   3.281   0.381   3.498 -0.1384  0.1116  1.2813
 7139SOL     OW23016   5.057   6.435   5.682  0.4635  0.5085  0.9990
 7139SOL    HW123017   5.011   6.347   5.669 -1.6854  1.7528 -0.4840
 7139SOL    HW223018   5.096   6.465   5.595 -0.8761  2.0463  0.8794
 7140SOL     OW23019   1.962   1.847   6.739  0.1752  0.1968 -0.0916
 7140SOL    HW123020   1.889   1.914   6.724  0.2794  0.9741  2.4040
 7140SOL    HW223021   1.936   1.785   6.813  2.3351  1.0460  1.4983
 7141SOL     OW23022   0.715   6.697   5.663  0.1503  0.0909 -0.4228
 7141SOL    HW123023   0.768   6.778   5.639 -0.6467 -0.0896 -3.1402
 7141SOL    HW223024   0.729   6.675   5.759 -0.4289  4.0615  0.7482
 7142SOL     OW23025   1.101   0.708   0.642  0.0543  0.5583  0.5253
 7142SOL    HW123026   1.161   0.763   0.699  2.9817 -1.2521 -0.5193
 7142SOL    HW223027   1.069   0.628   0.693 -0.2008  0.7229  0.6253
 7143SOL     OW23028   4.265   0.769   6.985  0.3202  0.5064 -0.7359
 7143SOL    HW123029   4.258   0.673   7.012 -0.7998  1.1848  1.6193
 7143SOL    HW223030   4.177   0.800   6.949  0.7944  0.5764 -1.8810
 7144SOL     OW23031   5.908   0.216   0.587  0.7109  0.0607 -0.0105
 7144SOL    HW123032   5.892   0.307   0.625  0.8375 -0.5911  1.6857
 7144SOL    HW223033   5.999   0.184   0.615  0.5299 -0.7276 -0.2987
 7145SOL     OW23034   4.025   5.928   0.428  0.2258  0.0953  0.2520
 7145SOL    HW123035   4.000   5.870   0.351 -0.6924  0.8611 -0.0424
 7145SOL    HW223036   4.018   6.024   0.402  0.0714  0.3654  1.2342
 7146SOL     OW23037   5.822   3.186   2.603 -0.8371  0.5932  0.4865
 7146SOL    HW123038   5.917   3.182   2.633 -0.9560  0.2534  0.8274
 7146SOL    HW223039   5.783   3.276   2.624  0.1004  1.6117 -1.8062
 7147SOL     OW23040   3.154   1.017   6.082  0.0120 -0.1457 -0.5201
 7147SOL    HW123041   3.223   1.007   6.154 -0.2360 -1.1053 -0.3947
 7147SOL    HW223042   3.180   1.090   6.020  0.4239  0.4453  0.3320
 7148SOL     OW23043   0.089   2.556   2.830 -0.0891  0.2755 -0.5732
 7148SOL    HW123044   0.135   2.483   2.881 -0.2608  0.1723 -0.5687
 7148SOL    HW223045   0.143   2.578   2.749 -2.1343 -2.8397 -2.9830
 7149SOL     OW23046   5.788   5.372   5.979 -0.2266  0.0695 -0.8156
 7149SOL    HW123047   5.731   5.312   5.922  1.1985 -0.1856 -2.0349
 7149SOL    HW223048   5.808   5.456   5.929 -1.7048  1.3570  0.6511
 7150SOL     OW23049   2.311   0.463   3.242 -0.1409 -0.0308  0.1318
 7150SOL    HW123050   2.300   0.540   3.180 -1.6853 -0.4061 -0.1107
 7150SOL    HW223051   2.246   0.471   3.318  1.2299  0.0596  1.3614
 7151SOL     OW23052   4.477   2.221   4.681  0.0380 -0.2005 -0.4777
 7151SOL    HW123053   4.555   2.262   4.728 -2.4714  0.5704  3.4143
 7151SOL    HW223054   4.416   2.293   4.649 -1.9122 -0.6774  1.8904
 7152SOL     OW23055   4.202   0.847   1.262 -0.6050  0.3627  0.2366
 7152SOL    HW123056   4.271   0.891   1.205  0.1053 -1.1720 -0.1530
 7152SOL    HW223057   4.111   0.872   1.228 -0.2118  0.7517 -0.5689
 7153SOL     OW23058   5.639   3.203   4.162 -0.0449 -0.3816 -0.1736
 7153SOL    HW123059   5.559   3.189   4.102 -0.6503 -0.8028  0.7119
 7153SOL    HW223060   5.675   3.115   4.190 -0.6670 -0.2127  1.2364
 7154SOL     OW23061   1.292   4.516   0.668  0.6395  0.0102  0.1153
 7154SOL    HW123062   1.241   4.516   0.582  0.5304  0.8443  0.1681
 7154SOL    HW223063   1.282   4.428   0.713  2.2819 -1.1516 -1.6521
 7155SOL     OW23064   3.263   0.070   6.223 -0.0618 -0.2200  0.4092
 7155SOL    HW123065   3.233   0.044   6.315 -1.8506  0.2757  0.0168
 7155SOL    HW223066   3.193   0.041   6.156  1.5748 -1.3022 -0.9133
 7156SOL     OW23067   4.279   2.096   3.979 -0.2381 -0.2008  0.4890
 7156SOL    HW123068   4.334   2.014   3.995  2.5428  1.1903 -1.2707
 7156SOL    HW223069   4.305   2.167   4.045  1.2900  0.9583 -1.2694
 7157SOL     OW23070   6.461   4.584   3.973 -0.3451 -0.4209  0.3389
 7157SOL    HW123071   6.433   4.678   3.990 -1.1228 -0.7421  0.8852
 7157SOL    HW223072   6.444   4.528   4.054  0.0352 -1.0501 -0.0036
 7158SOL     OW23073   2.113   1.399   1.886 -0.4928  0.0144 -0.5394
 7158SOL    HW123074   2.197   1.343   1.888 -1.7585 -1.9918  2.2484
 7158SOL    HW223075   2.063   1.379   1.802  0.9354 -0.0756 -1.4179
 7159SOL     OW23076   6.384   2.764   4.314  0.0914  0.2340  0.2308
 7159SOL    HW123077   6.444   2.692   4.348 -0.5845 -1.0002 -1.0581
 7159SOL    HW223078   6.401   2.849   4.364  1.1083 -0.7384  1.5992
 7160SOL     OW23079   6.428   2.286   0.445  0.4676 -0.5431  0.0360
 7160SOL    HW123080   6.478   2.212   0.398  1.3981 -0.6544  1.1497
 7160SOL    HW223081   6.346   2.309   0.393  1.1166 -1.1073 -1.2931
 7161SOL     OW23082   5.886   4.121   5.434 -0.1716  0.0323 -0.5300
 7161SOL    HW123083   5.986   4.114   5.427 -0.0507 -0.4793  1.2967
 7161SOL    HW223084   5.860   4.137   5.529 -1.8839 -0.4458 -0.8836
 7162SOL     OW23085   1.760   6.485   2.623  0.0500  0.4599  0.1895
 7162SOL    HW123086   1.713   6.503   2.537  1.1589  1.3547 -0.2543
 7162SOL    HW223087   1.713   6.532   2.698  0.4328  1.6560 -0.3015
 7163SOL     OW23088   4.439   6.773   1.829 -0.7130 -0.3854 -0.5018
 7163SOL    HW123089   4.474   6.864   1.806 -0.4373  0.4458  2.6343
 7163SOL    HW223090   4.399   6.731   1.748  1.0499  1.6267 -2.5531
 7164SOL     OW23091   2.231   5.162   1.736 -0.0626 -0.0284 -0.1529
 7164SOL    HW123092   2.234   5.123   1.644 -1.7041 -0.7614  0.0813
 7164SOL    HW223093   2.318   5.208   1.755  0.7333 -0.8481 -1.6242
 7165SOL     OW23094   6.328   0.074   4.511  0.0910  0.3286  0.0755
 7165SOL    HW123095   6.365   0.166   4.503 -0.7217  0.9520  2.5421
 7165SOL    HW223096   6.285   0.047   4.425  1.0682  1.8912 -0.9402
 7166SOL     OW23097   5.843   6.252   5.703 -0.3814  0.0563 -0.5581
 7166SOL    HW123098   5.895   6.166   5.705 -0.0289  0.2518  1.8812
 7166SOL    HW223099   5.763   6.243   5.762  0.6203  1.9192  1.1914
 7167SOL     OW23100   3.878   0.763   5.331 -0.4753  0.1018  0.0354
 7167SOL    HW123101   3.849   0.788   5.239 -1.7702 -0.1982  0.3404
 7167SOL    HW223102   3.961   0.814   5.355  0.1299 -0.1424 -1.4371
 7168SOL     OW23103   3.765   3.557   1.864 -0.1409  0.0235 -0.7107
 7168SOL    HW123104   3.757   3.648   1.905 -1.2636 -0.2337 -0.3181
 7168SOL    HW223105   3.793   3.491   1.935 -0.7402 -0.1795 -0.6556
 7169SOL     OW23106   5.422   6.545   5.090 -0.6144  0.3697  1.0483
 7169SOL    HW123107   5.461   6.483   5.021 -0.2538  0.3263  1.2910
 7169SOL    HW223108   5.451   6.516   5.181 -0.5160  0.8489  1.1709
 7170SOL     OW23109   1.852   1.142   6.333  0.3013 -0.2494  0.3553
 7170SOL    HW123110   1.912   1.197   6.275  0.5161 -0.7623  0.0823
 7170SOL    HW223111   1.760   1.143   6.295  0.5639 -1.0404 -0.3148
 7171SOL     OW23112   0.662   2.718   3.021  0.0348  0.3814 -0.1485
 7171SOL    HW123113   0.582   2.692   3.076 -0.2403  1.4949 -0.0024
 7171SOL    HW223114   0.723   2.639   3.011 -0.2145 -0.0109  1.2407
 7172SOL     OW23115   0.732   5.689   5.935  0.5073 -0.3064  0.1896
 7172SOL    HW123116   0.655   5.668   5.874 -0.2917  1.6282  0.4436
 7172SOL    HW223117   0.756   5.608   5.988 -1.4597 -0.9184  0.2196
 7173SOL     OW23118   3.347   0.506   6.924  0.0374 -0.0936 -0.0869
 7173SOL    HW123119   3.349   0.572   6.999 -2.2935 -0.7333  0.6094
 7173SOL    HW223120   3.394   0.423   6.952 -0.1888 -0.0577  0.4144
 7174SOL     OW23121   2.312   6.363   5.826  0.1154  0.3890  0.3151
 7174SOL    HW123122   2.328   6.431   5.898 -1.2306  0.7227  0.3403
 7174SOL    HW223123   2.372   6.381   5.748 -0.1544  1.5769  0.3582
 7175SOL     OW23124   4.406   1.337   6.274 -0.5483 -0.1770  0.2533
 7175SOL    HW123125   4.500   1.357   6.304 -0.0924 -0.2491 -1.0423
 7175SOL    HW223126   4.391   1.238   6.278 -0.2291 -0.2618 -0.4316
 7176SOL     OW23127   1.045   6.514   5.355 -0.1001  0.5872  0.6080
 7176SOL    HW123128   0.989   6.437   5.324  1.6218  0.0268 -1.3889
 7176SOL    HW223129   1.118   6.530   5.289  2.2233  1.1563  3.1481
 7177SOL     OW23130   3.574   6.751   0.343  0.4391 -0.4018  0.1265
 7177SOL    HW123131   3.514   6.697   0.402  0.6297  0.7509  1.4189
 7177SOL    HW223132   3.521   6.818   0.292  0.5728  0.5571  1.2023
 7178SOL     OW23133   6.025   1.702   2.248  0.3503 -0.0835  0.3068
 7178SOL    HW123134   5.968   1.635   2.295 -0.4116  0.5246  0.2594
 7178SOL    HW223135   6.101   1.728   2.307 -0.0253 -0.0915  0.8027
 7179SOL     OW23136   3.800   6.042   4.689  0.1996  0.0048 -0.5903
 7179SOL    HW123137   3.704   6.016   4.693 -0.1000  1.0765 -0.5542
 7179SOL    HW223138   3.818   6.115   4.754  0.5944  1.1609 -1.9589
 7180SOL     OW23139   6.172   4.627   1.424 -0.0958  0.0265  0.0733
 7180SOL    HW123140   6.100   4.603   1.359  0.3900  0.8395 -0.7849
 7180SOL    HW223141   6.258   4.642   1.375  0.1914  1.0412  0.8494
 7181SOL     OW23142   0.872   2.701   1.285  0.2259  0.3959 -0.3953
 7181SOL    HW123143   0.908   2.696   1.192  1.3842 -0.8615  0.0870
 7181SOL    HW223144   0.812   2.623   1.301  1.9792 -0.7993  0.6579
 7182SOL     OW23145   6.810   3.007   1.173  0.0230  0.4608 -0.4618
 7182SOL    HW123146   6.789   3.094   1.218 -0.1322  1.3166 -2.0751
 7182SOL    HW223147   6.798   3.018   1.074  0.3002 -1.3289 -0.7268
 7183SOL     OW23148   0.178   3.499   0.603 -0.2662  0.2554 -0.1106
 7183SOL    HW123149   0.249   3.436   0.635 -0.3460 -0.2826 -0.9759
 7183SOL    HW223150   0.139   3.548   0.682  0.2486 -0.2932  0.4957
 7184SOL     OW23151   1.348   1.666   4.506  0.4389 -0.3486 -0.1660
 7184SOL    HW123152   1.447   1.648   4.505  0.7889  1.4028 -0.2854
 7184SOL    HW223153   1.319   1.696   4.415  0.0635  0.4429  0.2084
 7185SOL     OW23154   5.886   5.352   0.213  0.6018 -0.2990 -0.0781
 7185SOL    HW123155   5.867   5.358   0.115 -0.5739  0.3807  0.1682
 7185SOL    HW223156   5.864   5.440   0.256  2.7417 -0.0106  0.5463
 7186SOL     OW23157   5.504   1.249   6.842 -0.2223  1.2401 -0.0312
 7186SOL    HW123158   5.406   1.265   6.825 -0.4313 -1.7851 -3.0097
 7186SOL    HW223159   5.519   1.151   6.856  2.3511  1.7235  1.1221
 7187SOL     OW23160   4.678   5.975   2.433  0.8645 -0.6036 -0.2592
 7187SOL    HW123161   4.648   5.994   2.527  0.5927 -0.5054 -0.3643
 7187SOL    HW223162   4.777   5.963   2.432  0.9812  0.2950 -0.1009
 7188SOL     OW23163   5.759   6.761   3.545  1.0173 -0.5442 -0.1092
 7188SOL    HW123164   5.848   6.796   3.574  0.6570  0.8634 -0.6481
 7188SOL    HW223165   5.737   6.679   3.599  2.7948 -1.1566 -0.2468
 7189SOL     OW23166   2.870   2.382   1.486 -0.0537  0.3595  0.6013
 7189SOL    HW123167   2.844   2.478   1.489  0.1857  0.5333 -1.2604
 7189SOL    HW223168   2.796   2.329   1.446  0.5362  0.0907 -0.1702
 7190SOL     OW23169   1.702   3.919   0.894 -0.2680 -0.1489  0.7835
 7190SOL    HW123170   1.702   3.864   0.978 -0.0820 -0.9340  0.2879
 7190SOL    HW223171   1.706   3.857   0.815  1.0945  0.6188  0.2231
 7191SOL     OW23172   6.810   6.382   0.271 -0.5896 -0.3905  0.4794
 7191SOL    HW123173   6.834   6.304   0.214  1.9684  1.1183 -0.6935
 7191SOL    HW223174   6.769   6.453   0.214  0.4044  0.4721  0.8135
 7192SOL     OW23175   2.727   3.433   1.479 -0.0504 -0.1213  0.1958
 7192SOL    HW123176   2.645   3.407   1.529  0.0434  0.0599  0.4493
 7192SOL    HW223177   2.754   3.526   1.506  0.8912 -0.6024  0.9730
 7193SOL     OW23178   1.183   6.463   0.297  0.2995 -0.0634  0.1387
 7193SOL    HW123179   1.248   6.390   0.274 -1.3441 -1.8869  1.0364
 7193SOL    HW223180   1.101   6.454   0.241  0.2720  1.4832 -0.1300
 7194SOL     OW23181   2.082   5.119   6.452 -0.2493 -0.0941  0.2701
 7194SOL    HW123182   2.023   5.160   6.382  0.8812  1.5380  0.2092
 7194SOL    HW223183   2.159   5.181   6.471  0.6525 -1.4981  1.3905
 7195SOL     OW23184   6.046   6.545   5.036  0.5474 -0.2437  0.7196
 7195SOL    HW123185   6.074   6.601   5.114  1.8301  1.1037 -0.6254
 7195SOL    HW223186   6.123   6.534   4.974 -0.1734 -2.1054  0.0780
 7196SOL     OW23187   3.881   0.333   3.878  0.0629  0.7324 -0.4054
 7196SOL    HW123188   3.812   0.280   3.829  1.0256 -0.4370 -0.5249
 7196SOL    HW223189   3.896   0.420   3.831  0.2413  0.0585 -1.6131
 7197SOL     OW23190   2.016   2.803   2.054  0.1981  0.1959 -0.4176
 7197SOL    HW123191   2.013   2.882   2.116  0.2428  0.3481 -0.6096
 7197SOL    HW223192   2.060   2.726   2.101 -1.1357 -0.1733  0.2792
 7198SOL     OW23193   5.853   3.076   3.280 -0.4679 -0.0251 -0.8989
 7198SOL    HW123194   5.811   3.103   3.193 -1.1483  1.1667 -0.2211
 7198SOL    HW223195   5.791   3.097   3.355  0.4603 -0.2558 -0.0479
 7199SOL     OW23196   5.856   3.283   6.383  0.3071 -0.1731  0.2420
 7199SOL    HW123197   5.866   3.251   6.477  1.5331 -0.1080  0.1477
 7199SOL    HW223198   5.945   3.312   6.348 -0.3035  0.7598 -0.5959
 7200SOL     OW23199   3.197   4.731   0.155 -0.9657  0.2393 -0.3084
 7200SOL    HW123200   3.284   4.718   0.107 -1.0423 -0.0202 -0.3780
 7200SOL    HW223201   3.122   4.703   0.096 -1.1295  0.8803 -0.4104
 7201SOL     OW23202   5.721   0.851   1.359  0.0341  0.0094 -0.5666
 7201SOL    HW123203   5.789   0.925   1.357  1.1469 -1.0071 -1.5873
 7201SOL    HW223204   5.754   0.777   1.417 -0.3320 -0.3961 -0.8699
 7202SOL     OW23205   6.615   0.223   5.362  0.0043 -0.6933  0.1595
 7202SOL    HW123206   6.530   0.210   5.412  0.6004 -1.0534  1.1160
 7202SOL    HW223207   6.613   0.311   5.314 -1.0753 -0.9073 -0.2056
 7203SOL     OW23208   3.472   6.953   1.995 -0.0041  0.2112 -0.3725
 7203SOL    HW123209   3.509   6.880   2.054 -1.2673 -0.7717 -0.7428
 7203SOL    HW223210   3.484   7.041   2.040 -0.4640 -0.4556  1.1471
 7204SOL     OW23211   6.294   6.946   3.767  0.3809 -0.4277 -0.5855
 7204SOL    HW123212   6.253   7.028   3.808  0.3287 -0.2929 -0.9097
 7204SOL    HW223213   6.252   6.928   3.679 -0.9507 -1.8909  0.2958
 7205SOL     OW23214   5.333   4.868   4.300  0.7386 -0.0379 -0.0830
 7205SOL    HW123215   5.310   4.893   4.394 -0.0048  0.9445 -0.5089
 7205SOL    HW223216   5.268   4.800   4.266 -0.7596  1.6620 -0.7932
 7206SOL     OW23217   4.013   2.821   2.202 -0.3069 -0.2032 -0.7469
 7206SOL    HW123218   4.077   2.744   2.204 -0.3233 -0.1960  0.5552
 7206SOL    HW223219   3.954   2.818   2.282  0.2511  1.6233 -0.2177
 7207SOL     OW23220   5.894   5.244   0.837  0.1427  0.6353  0.2294
 7207SOL    HW123221   5.861   5.327   0.793  2.1448  1.7418  0.6817
 7207SOL    HW223222   5.989   5.228   0.812 -0.2396 -1.6941 -0.0197
 7208SOL     OW23223   2.735   1.316   3.533 -0.3066 -0.2509 -0.4531
 7208SOL    HW123224   2.727   1.272   3.622  1.8009 -1.4742 -0.8092
 7208SOL    HW223225   2.745   1.415   3.545  0.5255 -0.4636  0.7182
 7209SOL     OW23226   3.794   3.240   0.339 -0.2266 -0.2766 -0.0899
 7209SOL    HW123227   3.744   3.174   0.396  0.7715  0.0431  1.2140
 7209SOL    HW223228   3.794   3.329   0.385  3.2706 -0.7270  1.0803
 7210SOL     OW23229   4.289   0.972   4.830 -0.3134  0.3819  0.0569
 7210SOL    HW123230   4.375   0.983   4.781 -0.2247 -3.0797 -0.8557
 7210SOL    HW223231   4.306   0.924   4.916 -1.3896 -1.6159 -0.7780
 7211SOL     OW23232   5.763   3.260   1.361  0.2877 -0.5859 -0.1856
 7211SOL    HW123233   5.825   3.300   1.428 -0.0449 -1.3963  0.6272
 7211SOL    HW223234   5.772   3.160   1.362  0.3138 -0.6157 -1.3921
 7212SOL     OW23235   4.175   4.758   6.615 -0.0966 -0.1794  0.5734
 7212SOL    HW123236   4.159   4.668   6.655 -0.8980 -0.3685 -0.1487
 7212SOL    HW223237   4.087   4.804   6.602  0.1326 -0.1307 -0.9821
 7213SOL     OW23238   4.194   4.419   1.175 -0.5468  0.2807 -0.2512
 7213SOL    HW123239   4.195   4.351   1.103  1.6229  0.4961 -0.4843
 7213SOL    HW223240   4.186   4.374   1.264  1.1393 -0.3601 -0.3840
 7214SOL     OW23241   1.522   1.771   3.828 -0.7066  0.2394  0.3414
 7214SOL    HW123242   1.462   1.831   3.881 -1.0980 -0.3903  0.6236
 7214SOL    HW223243   1.467   1.716   3.765 -0.3360  0.2960 -0.0363
 7215SOL     OW23244   5.592   4.747   1.126  0.2040 -0.2290 -0.1309
 7215SOL    HW123245   5.544   4.660   1.117  0.1276 -0.2344  0.3071
 7215SOL    HW223246   5.622   4.759   1.221  0.6314  0.0017 -0.2949
 7216SOL     OW23247   5.278   3.681   6.195  0.4538  0.0878  0.2058
 7216SOL    HW123248   5.262   3.656   6.290  0.8824 -3.8480 -0.5860
 7216SOL    HW223249   5.371   3.655   6.169 -0.7174 -2.3169 -2.1008
 7217SOL     OW23250   4.199   5.961   5.045 -0.1564  0.4273  0.3151
 7217SOL    HW123251   4.133   5.959   5.120 -1.5923 -0.2606 -0.9244
 7217SOL    HW223252   4.233   5.868   5.028 -0.9666  0.3273 -0.8302
 7218SOL     OW23253   4.424   0.244   3.571  0.4811  0.5620 -0.2255
 7218SOL    HW123254   4.446   0.325   3.626  0.1508  0.9033 -0.5844
 7218SOL    HW223255   4.345   0.197   3.611 -0.8424  1.7563 -1.3104
 7219SOL     OW23256   5.722   0.397   4.587 -0.2914  0.2288  0.7316
 7219SOL    HW123257   5.634   0.353   4.608 -1.5335  1.4419 -1.5351
 7219SOL    HW223258   5.715   0.495   4.605  1.0771  0.1528  1.7817
 7220SOL     OW23259   4.605   2.966   0.823 -0.0776 -0.2080 -0.7123
 7220SOL    HW123260   4.612   3.043   0.760  0.2094 -0.1633 -0.6281
 7220SOL    HW223261   4.567   2.887   0.774 -1.3398  0.2663 -0.5394
 7221SOL     OW23262   0.084   2.318   1.564 -0.2992  0.3425 -0.0636
 7221SOL    HW123263   0.055   2.276   1.478 -0.3854  1.5695 -0.6618
 7221SOL    HW223264   0.008   2.369   1.603  0.2933  1.4390 -0.3019
 7222SOL     OW23265   6.266   4.292   1.925 -0.4196  0.2614  0.0928
 7222SOL    HW123266   6.286   4.194   1.915  0.0575  0.4170 -0.5960
 7222SOL    HW223267   6.290   4.321   2.017 -0.3230 -0.2213  0.2241
 7223SOL     OW23268   0.902   1.614   1.240  0.7018  0.4230 -0.2602
 7223SOL    HW123269   0.888   1.691   1.178 -0.8785  0.9320  0.6435
 7223SOL    HW223270   0.844   1.537   1.212  0.2892  0.5125  0.3009
 7224SOL     OW23271   3.540   0.115   5.301  0.2089  0.0153  0.3928
 7224SOL    HW123272   3.505   0.164   5.381 -0.4151 -0.9780  0.7430
 7224SOL    HW223273   3.496   0.151   5.219  0.2187  0.4634  0.5796
 7225SOL     OW23274   3.351   4.183   0.390 -0.1885  0.0353  0.2290
 7225SOL    HW123275   3.344   4.094   0.345  0.2544 -0.0563  0.3319
 7225SOL    HW223276   3.444   4.194   0.426 -0.9427 -0.6129  2.5634
 7226SOL     OW23277   6.062   3.071   5.418 -0.1791 -0.3647 -0.0947
 7226SOL    HW123278   6.155   3.084   5.453  0.1380  2.3467 -1.6227
 7226SOL    HW223279   6.060   2.989   5.360  1.2288 -0.5244  0.0403
 7227SOL     OW23280   4.740   3.905   6.370  0.3724  0.4501 -0.2201
 7227SOL    HW123281   4.774   3.816   6.402 -0.2623  0.8579  1.7205
 7227SOL    HW223282   4.788   3.978   6.419  0.1962  1.1707 -1.0904
 7228SOL     OW23283   5.838   3.562   2.224  0.0348  0.3198  0.3189
 7228SOL    HW123284   5.870   3.529   2.135 -0.4142  1.1991 -0.1875
 7228SOL    HW223285   5.775   3.496   2.264  0.1975 -0.0570 -0.0401
 7229SOL     OW23286   0.521   4.216   2.385 -0.6141 -0.1426  0.2604
 7229SOL    HW123287   0.558   4.127   2.410 -1.2055 -1.0900 -2.0294
 7229SOL    HW223288   0.453   4.205   2.313  0.8319  2.3175 -1.6365
 7230SOL     OW23289   2.400   0.766   5.733 -0.2390  0.3196 -1.0184
 7230SOL    HW123290   2.485   0.817   5.718 -0.8583  2.4289  1.7727
 7230SOL    HW223291   2.421   0.679   5.777  0.5959 -0.3893 -2.7200
 7231SOL     OW23292   5.941   5.783   4.256 -0.1059  0.4965 -0.5387
 7231SOL    HW123293   5.909   5.855   4.318  2.2759  1.2425 -0.0807
 7231SOL    HW223294   6.020   5.737   4.295  0.5238 -0.0610 -2.3405
 7232SOL     OW23295   5.936   1.432   4.461  0.1265 -0.1562 -0.7522
 7232SOL    HW123296   5.897   1.427   4.553  0.6635  2.0027 -0.3524
 7232SOL    HW223297   5.929   1.343   4.417  0.3989 -1.4129  1.5968
 7233SOL     OW23298   0.628   0.095   2.966  0.3155 -0.3927 -0.6922
 7233SOL    HW123299   0.685   0.072   3.045 -0.6901 -0.5597 -0.0100
 7233SOL    HW223300   0.617   0.194   2.960 -0.3491 -0.4279 -0.0944
 7234SOL     OW23301   1.012   0.081   1.572  0.5816  0.2268 -0.3042
 7234SOL    HW123302   0.988   0.170   1.533  2.3455  0.6054 -0.6169
 7234SOL    HW223303   0.929   0.025   1.581 -0.5650  1.8927 -0.0543
 7235SOL     OW23304   2.455   4.521   1.926 -0.0465  0.3222 -0.3006
 7235SOL    HW123305   2.388   4.479   1.864 -0.6457  2.4046 -1.1429
 7235SOL    HW223306   2.546   4.485   1.905 -0.3884  0.1742 -1.6694
 7236SOL     OW23307   5.440   1.633   2.328 -0.0303 -0.2969  0.2421
 7236SOL    HW123308   5.513   1.675   2.274 -0.2307 -1.2630 -0.8226
 7236SOL    HW223309   5.361   1.618   2.270 -0.6195 -0.4495  1.0718
 7237SOL     OW23310   0.555   6.673   6.082 -0.1125 -0.5641  0.9377
 7237SOL    HW123311   0.473   6.728   6.099  1.0876  1.3726  0.7095
 7237SOL    HW223312   0.619   6.684   6.159  1.4232  0.8586 -0.4625
 7238SOL     OW23313   6.593   1.686   2.577 -0.0736 -0.6109  0.4189
 7238SOL    HW123314   6.662   1.732   2.522  0.0081 -0.0900  0.9467
 7238SOL    HW223315   6.632   1.664   2.667  0.2504 -2.6911 -0.1758
 7239SOL     OW23316   5.449   6.699   1.797 -0.6917  0.3047 -0.0243
 7239SOL    HW123317   5.449   6.772   1.865  0.1307 -0.3217  0.6703
 7239SOL    HW223318   5.490   6.732   1.712 -0.1452  0.5921  0.3486
 7240SOL     OW23319   0.559   6.000   6.572  0.2765  0.2973  0.3193
 7240SOL    HW123320   0.654   6.031   6.569  0.4226 -0.0145  1.2657
 7240SOL    HW223321   0.551   5.923   6.636 -0.3018 -0.7881 -1.0037
 7241SOL     OW23322   5.731   5.052   1.680  0.3161 -0.0729 -0.5279
 7241SOL    HW123323   5.660   5.122   1.687 -0.6981 -1.0995 -0.4262
 7241SOL    HW223324   5.807   5.075   1.741  0.1002  1.0403 -0.6583
 7242SOL     OW23325   4.177   6.840   0.473  0.1652 -0.2557  0.0180
 7242SOL    HW123326   4.108   6.910   0.456  0.5020  0.0299 -0.1858
 7242SOL    HW223327   4.261   6.883   0.505  0.7205 -0.4653 -1.1159
 7243SOL     OW23328   5.387   1.367   4.391 -0.0397  0.3468  0.4709
 7243SOL    HW123329   5.294   1.364   4.429 -0.6005 -0.1611 -0.9070
 7243SOL    HW223330   5.431   1.278   4.404  0.4625  0.7385  1.5787
 7244SOL     OW23331   6.051   2.987   6.308  0.1649 -0.2289 -0.0058
 7244SOL    HW123332   6.133   2.937   6.335 -0.0509 -0.5500  0.0577
 7244SOL    HW223333   6.073   3.085   6.302  0.0868 -0.0312  1.9697
 7245SOL     OW23334   2.201   5.231   5.405  0.1072  0.2146  0.3681
 7245SOL    HW123335   2.202   5.328   5.429 -0.2252  1.0528 -2.6407
 7245SOL    HW223336   2.125   5.212   5.344 -0.2409 -2.1439  1.4287
 7246SOL     OW23337   4.223   3.516   5.303 -0.0771 -0.1920 -0.3048
 7246SOL    HW123338   4.274   3.600   5.286  0.5708 -0.6678 -0.7841
 7246SOL    HW223339   4.128   3.528   5.277 -0.1607  0.6234  0.3312
 7247SOL     OW23340   3.700   2.091   2.890  0.1183  0.4334  0.3550
 7247SOL    HW123341   3.720   2.006   2.842  2.5868  1.6611 -0.9580
 7247SOL    HW223342   3.603   2.112   2.881  0.1558 -0.2241 -2.7792
 7248SOL     OW23343   1.583   1.600   1.392 -0.4076 -0.3587 -0.1128
 7248SOL    HW123344   1.642   1.590   1.472 -1.0397 -0.7066  0.3211
 7248SOL    HW223345   1.639   1.613   1.311  0.2249  1.5647  0.5768
 7249SOL     OW23346   1.090   3.068   1.987  0.0377 -0.1839 -0.2161
 7249SOL    HW123347   1.052   2.992   2.040  0.8408  0.2322  1.0042
 7249SOL    HW223348   1.016   3.122   1.949 -0.6120  0.1087  1.3748
 7250SOL     OW23349   0.581   5.621   0.873 -0.1410  0.8409 -0.3409
 7250SOL    HW123350   0.652   5.689   0.884  0.5108  0.1455 -0.1326
 7250SOL    HW223351   0.591   5.574   0.785 -0.2867  0.6762 -0.2722
 7251SOL     OW23352   3.155   5.724   4.138  0.2067 -0.4172 -0.1952
 7251SOL    HW123353   3.147   5.641   4.084  1.0511 -1.7448  1.6263
 7251SOL    HW223354   3.197   5.703   4.227 -0.8433  1.7062  0.8853
 7252SOL     OW23355   2.525   6.518   2.630 -0.2867  0.1882 -0.3359
 7252SOL    HW123356   2.591   6.536   2.557 -0.5989  0.3108 -0.5907
 7252SOL    HW223357   2.509   6.420   2.637 -1.0115  0.2297 -1.1203
 7253SOL     OW23358   4.393   1.100   3.836  0.0486  0.3152  0.2272
 7253SOL    HW123359   4.311   1.050   3.809 -0.6532  1.8622 -0.5683
 7253SOL    HW223360   4.467   1.080   3.772 -0.6918  1.4890 -1.0354
 7254SOL     OW23361   4.160   6.981   4.788  0.5300  0.4097 -0.4097
 7254SOL    HW123362   4.257   7.004   4.777  0.5495  0.2785 -0.5155
 7254SOL    HW223363   4.115   6.983   4.698  1.1089 -2.5534 -0.8688
 7255SOL     OW23364   3.660   5.907   6.892  0.1918 -0.4327  0.0598
 7255SOL    HW123365   3.744   5.941   6.935 -0.0438 -1.3507  1.3326
 7255SOL    HW223366   3.621   5.835   6.950 -0.3727 -1.4569 -1.5415
 7256SOL     OW23367   3.324   3.352   3.840 -0.4461  0.7801 -0.3072
 7256SOL    HW123368   3.310   3.274   3.901  0.2760  0.6387 -0.3221
 7256SOL    HW223369   3.334   3.319   3.746 -1.6394  1.0023 -0.5318
 7257SOL     OW23370   5.066   3.134   5.121 -0.3493  0.0538  0.1141
 7257SOL    HW123371   4.977   3.146   5.166 -0.2578  1.0837  0.0526
 7257SOL    HW223372   5.063   3.179   5.031 -0.2712 -1.2816 -0.5737
 7258SOL     OW23373   3.189   5.281   6.076 -0.0825 -0.1696 -0.0917
 7258SOL    HW123374   3.209   5.332   5.992  0.2792  0.0607  0.1342
 7258SOL    HW223375   3.246   5.315   6.151 -0.8748  0.0865  0.4160
 7259SOL     OW23376   0.990   2.036   3.188 -0.5395 -0.3343 -0.6108
 7259SOL    HW123377   0.921   2.022   3.260 -0.1013 -0.2788 -0.1756
 7259SOL    HW223378   0.945   2.036   3.099 -1.0105 -1.0489 -0.3829
 7260SOL     OW23379   6.024   6.910   0.977 -0.2185 -0.1662  0.3022
 7260SOL    HW123380   5.975   6.997   0.980  0.1605  0.0391  0.6572
 7260SOL    HW223381   5.970   6.839   1.023 -0.7691 -0.2485 -0.4513
 7261SOL     OW23382   2.984   1.583   1.267 -0.5556 -0.5545  0.0750
 7261SOL    HW123383   3.074   1.581   1.223 -1.4133 -0.2748 -1.8008
 7261SOL    HW223384   2.966   1.676   1.301  0.1634 -0.7999  1.1581
 7262SOL     OW23385   5.544   1.393   3.599 -0.2028 -0.7086  0.1246
 7262SOL    HW123386   5.586   1.303   3.612  1.6848  0.0394 -0.4632
 7262SOL    HW223387   5.587   1.459   3.661 -1.3774 -0.1391  0.3535
 7263SOL     OW23388   1.531   6.329   4.080  0.5346 -0.7373  0.1306
 7263SOL    HW123389   1.544   6.426   4.100  0.1514 -0.8271  0.8581
 7263SOL    HW223390   1.564   6.275   4.158  0.1289 -1.1555  0.0143
 7264SOL     OW23391   2.733   4.048   4.842  0.9948 -0.0223  0.1139
 7264SOL    HW123392   2.745   4.028   4.940 -1.5972  2.9374  1.2125
 7264SOL    HW223393   2.670   3.982   4.802 -1.2859  1.0926  1.6331
 7265SOL     OW23394   4.186   2.044   3.493  0.2539  0.1999  0.0585
 7265SOL    HW123395   4.281   2.063   3.468 -0.4154  3.4025 -0.4676
 7265SOL    HW223396   4.178   2.044   3.593  0.7453  0.3295  0.1032
 7266SOL     OW23397   2.905   0.212   4.571 -0.5684 -0.4540 -0.3497
 7266SOL    HW123398   2.850   0.294   4.556  0.6182  0.2985 -0.7371
 7266SOL    HW223399   2.858   0.151   4.635 -1.2197  0.7686  0.3621
 7267SOL     OW23400   6.272   0.972   3.211 -0.7869 -0.7810  0.0993
 7267SOL    HW123401   6.259   1.071   3.206 -0.2410 -0.7533 -1.1098
 7267SOL    HW223402   6.336   0.951   3.285 -2.2085 -0.3989  1.5104
 7268SOL     OW23403   6.590   0.636   2.776  0.5613 -0.5841 -0.2659
 7268SOL    HW123404   6.550   0.595   2.694  0.2818 -0.9494  0.0479
 7268SOL    HW223405   6.525   0.627   2.852  1.2120 -1.1351  0.2353
 7269SOL     OW23406   3.989   5.509   5.293 -0.0592 -0.1608  0.6875
 7269SOL    HW123407   3.917   5.560   5.342  0.1826 -0.9885  1.9490
 7269SOL    HW223408   4.035   5.447   5.357  1.8779  0.4431 -0.0736
 7270SOL     OW23409   0.517   1.075   4.444 -0.1866  0.4480 -0.0387
 7270SOL    HW123410   0.583   1.148   4.428 -2.1819  2.2299 -0.6183
 7270SOL    HW223411   0.474   1.049   4.358 -0.6826 -0.2247  0.3978
 7271SOL     OW23412   0.470   2.268   6.760  0.1709 -0.1372  0.1216
 7271SOL    HW123413   0.375   2.249   6.786  0.3549  0.6697  1.4650
 7271SOL    HW223414   0.483   2.248   6.663 -0.7471 -2.5840  0.4342
 7272SOL     OW23415   5.409   4.571   5.417  0.4825  0.0589  0.3954
 7272SOL    HW123416   5.442   4.625   5.339  1.4338 -0.2400  0.5695
 7272SOL    HW223417   5.348   4.499   5.385 -2.3976  2.3585  0.3353
 7273SOL     OW23418   3.058   2.901   1.769 -0.1582 -0.4275  0.0431
 7273SOL    HW123419   3.039   2.823   1.710  0.6458  0.3467 -1.3086
 7273SOL    HW223420   3.044   2.986   1.717 -0.0787  0.3010  1.1747
 7274SOL     OW23421   1.641   6.767   0.256 -0.4100 -0.6728 -0.2708
 7274SOL    HW123422   1.615   6.854   0.299 -1.5377 -0.6826 -0.9180
 7274SOL    HW223423   1.715   6.784   0.191 -0.3790 -0.2616 -0.1336
 7275SOL     OW23424   1.049   3.623   0.219 -1.1029  0.4974  0.2832
 7275SOL    HW123425   1.004   3.628   0.308  0.8664  2.2030  1.2767
 7275SOL    HW223426   1.139   3.580   0.229 -0.6995  1.0456 -0.7882
 7276SOL     OW23427   4.503   3.123   6.609  1.1644 -0.5176 -0.3962
 7276SOL    HW123428   4.579   3.175   6.648 -0.2708  2.9531 -1.7845
 7276SOL    HW223429   4.501   3.136   6.509 -1.4301 -0.0961 -0.3680
 7277SOL     OW23430   6.732   3.383   5.024  0.2958  0.1091 -0.1718
 7277SOL    HW123431   6.801   3.456   5.028 -0.6210  0.9762  3.3853
 7277SOL    HW223432   6.641   3.424   5.015 -0.0714 -0.7477 -0.4135
 7278SOL     OW23433   1.133   0.552   6.775  0.6092 -0.2975 -0.0356
 7278SOL    HW123434   1.073   0.538   6.697  0.1230 -2.0614  0.6177
 7278SOL    HW223435   1.090   0.517   6.858  0.7842  2.2051  1.2298
 7279SOL     OW23436   0.635   0.631   2.587  0.6430 -0.3111 -0.3458
 7279SOL    HW123437   0.719   0.576   2.594  0.4056 -0.6058  0.2653
 7279SOL    HW223438   0.657   0.719   2.544  1.1605 -0.5980 -0.6949
 7280SOL     OW23439   0.497   3.007   0.914  0.5669  0.6664 -0.3996
 7280SOL    HW123440   0.510   2.973   0.821 -1.5991  1.9182 -1.2228
 7280SOL    HW223441   0.577   3.059   0.941  0.3402  2.2288 -2.4810
 7281SOL     OW23442   0.604   5.677   3.581  0.0369  0.3684  0.2019
 7281SOL    HW123443   0.603   5.773   3.554  1.0572 -0.0093 -1.3279
 7281SOL    HW223444   0.627   5.620   3.501 -2.4888 -1.3459  0.5469
 7282SOL     OW23445   0.295   3.997   1.868 -0.1555 -0.5287  0.0010
 7282SOL    HW123446   0.340   3.927   1.924 -2.1558 -1.3492  0.6851
 7282SOL    HW223447   0.259   3.955   1.785  0.8986  0.2465 -0.8628
 7283SOL     OW23448   0.755   6.896   0.392  0.1543 -0.4042 -0.4466
 7283SOL    HW123449   0.768   6.959   0.316 -1.5054  0.5192 -0.0169
 7283SOL    HW223450   0.821   6.821   0.385  1.8977  1.1360 -1.1917
 7284SOL     OW23451   1.753   4.422   5.492  0.0406  0.0936 -0.6784
 7284SOL    HW123452   1.735   4.393   5.586  1.9197  2.4620  0.5627
 7284SOL    HW223453   1.835   4.376   5.458 -0.2397 -0.2503 -0.8868
 7285SOL     OW23454   1.113   4.990   2.420  0.2009 -0.4421  0.7168
 7285SOL    HW123455   1.058   4.971   2.338  0.4673  1.2458  0.1002
 7285SOL    HW223456   1.054   4.988   2.501 -0.2809 -1.0413  0.3587
 7286SOL     OW23457   6.993   6.541   3.241 -0.0288  0.6270  0.0681
 7286SOL    HW123458   7.082   6.503   3.213  0.0008 -0.2710  1.3165
 7286SOL    HW223459   6.923   6.513   3.176  0.5056  0.9316 -0.6576
 7287SOL     OW23460   6.927   5.826   0.804  0.0994  0.5392 -0.2231
 7287SOL    HW123461   6.932   5.923   0.781 -1.7755  0.5494 -0.7598
 7287SOL    HW223462   6.877   5.778   0.732  1.9288 -1.0379 -0.5026
 7288SOL     OW23463   0.738   0.113   2.224 -0.2086  0.1477 -0.2367
 7288SOL    HW123464   0.727   0.015   2.209  0.4865  0.2504 -1.5205
 7288SOL    HW223465   0.679   0.163   2.160 -0.0249  0.5719 -0.0792
 7289SOL     OW23466   3.950   0.147   4.613  0.0814 -0.4185 -0.5490
 7289SOL    HW123467   4.002   0.222   4.653 -0.4672  0.1905 -0.9436
 7289SOL    HW223468   3.862   0.182   4.580 -1.5099 -1.7685  1.9419
 7290SOL     OW23469   4.721   3.732   5.250 -0.5245  0.3572 -0.5661
 7290SOL    HW123470   4.716   3.678   5.334  1.8834  0.9680  0.0393
 7290SOL    HW223471   4.751   3.825   5.271 -0.0392  0.5830 -2.0756
 7291SOL     OW23472   0.743   6.554   0.751 -0.2356 -0.0024  0.0807
 7291SOL    HW123473   0.701   6.586   0.836  2.3677 -2.6234  2.5940
 7291SOL    HW223474   0.685   6.482   0.712 -0.6110  0.0010  0.6121
 7292SOL     OW23475   1.255   3.478   5.319 -0.6524  0.2301  0.0628
 7292SOL    HW123476   1.313   3.560   5.315 -0.4185  0.0278 -1.8632
 7292SOL    HW223477   1.284   3.421   5.395 -0.5886  1.7494  1.2326
 7293SOL     OW23478   3.542   1.114   4.872  0.1453  0.2796  0.1953
 7293SOL    HW123479   3.638   1.092   4.887  0.3077  0.8891  0.0898
 7293SOL    HW223480   3.516   1.087   4.779  0.2239  0.1500  0.2103
 7294SOL     OW23481   3.846   0.333   3.092 -0.1749  0.3730 -0.0466
 7294SOL    HW123482   3.799   0.257   3.137  1.3477 -0.2144  0.6076
 7294SOL    HW223483   3.934   0.350   3.137  0.8886  0.5354 -2.0653
 7295SOL     OW23484   2.674   6.219   0.026 -0.1658 -0.0434 -0.8729
 7295SOL    HW123485   2.764   6.226   0.070 -0.7942  2.0953  0.2057
 7295SOL    HW223486   2.638   6.127   0.039  1.6731 -0.8239 -0.9770
 7296SOL     OW23487   2.563   2.283   2.139  0.0502  0.0745  0.1221
 7296SOL    HW123488   2.614   2.366   2.118 -1.7348  1.2219  0.0992
 7296SOL    HW223489   2.495   2.266   2.067 -0.1883 -0.9192  0.5621
 7297SOL     OW23490   5.836   5.910   0.104 -0.3175  0.1206  0.3917
 7297SOL    HW123491   5.828   5.967   0.022  1.5984 -1.9174 -1.3756
 7297SOL    HW223492   5.916   5.939   0.156  1.4223 -1.5655 -1.1824
 7298SOL     OW23493   3.868   0.892   6.751  0.1679 -0.3965  0.0375
 7298SOL    HW123494   3.888   0.951   6.673  0.1300 -1.0841 -0.5049
 7298SOL    HW223495   3.779   0.917   6.790 -0.1481 -0.5018 -0.5920
 7299SOL     OW23496   2.246   1.927   5.197 -0.0355 -0.3932 -0.0349
 7299SOL    HW123497   2.307   2.003   5.215 -2.4278  1.9357 -1.1034
 7299SOL    HW223498   2.210   1.891   5.283 -0.9908  1.5814  0.4384
 7300SOL     OW23499   0.439   0.707   0.263  0.6652  0.0711 -0.2645
 7300SOL    HW123500   0.530   0.692   0.226  0.4460 -1.2637 -0.3186
 7300SOL    HW223501   0.431   0.661   0.352  0.3011  0.8744  0.1331
 7301SOL     OW23502   6.785   1.953   0.181  0.4659  0.0777  0.5399
 7301SOL    HW123503   6.752   1.996   0.096 -1.8215 -2.2227  0.1212
 7301SOL    HW223504   6.874   1.911   0.165  1.7064  2.5759  0.3515
 7302SOL     OW23505   3.882   6.795   4.144  0.1482  0.1248 -0.3048
 7302SOL    HW123506   3.883   6.839   4.234  0.5840  0.7812 -0.6213
 7302SOL    HW223507   3.915   6.859   4.075 -0.7892 -0.1620 -1.0429
 7303SOL     OW23508   2.738   0.045   2.628  0.0691  0.2255 -0.4531
 7303SOL    HW123509   2.802   0.059   2.704 -2.3362 -1.1194  1.9980
 7303SOL    HW223510   2.755  -0.043   2.586  0.1228  0.0710 -0.1084
 7304SOL     OW23511   6.314   6.720   1.651 -0.8954  0.4172 -0.1438
 7304SOL    HW123512   6.268   6.691   1.735 -0.7207 -0.2857 -0.2791
 7304SOL    HW223513   6.258   6.788   1.604 -1.0581  0.7110  0.4716
 7305SOL     OW23514   6.930   3.792   3.026  0.2022  0.0821 -0.1549
 7305SOL    HW123515   6.944   3.885   3.060 -0.9733 -0.0179  0.6623
 7305SOL    HW223516   6.833   3.778   3.007  0.7375  0.1332 -3.6285
 7306SOL     OW23517   1.850   2.765   3.631  0.5769 -0.4276 -0.3744
 7306SOL    HW123518   1.779   2.724   3.573 -0.1839  0.6296 -0.2117
 7306SOL    HW223519   1.817   2.769   3.725 -0.1840  2.3196 -0.6903
 7307SOL     OW23520   0.266   6.654   3.088 -0.4014  0.1845  0.1525
 7307SOL    HW123521   0.278   6.564   3.130  0.0391  0.0101 -0.3299
 7307SOL    HW223522   0.309   6.654   2.997 -0.0546  0.9955  0.3070
 7308SOL     OW23523   5.942   3.435   1.992  0.1033  0.3862  0.0169
 7308SOL    HW123524   6.038   3.453   1.970  0.8864 -1.0946  1.9077
 7308SOL    HW223525   5.933   3.340   2.025 -2.0618  0.4105 -0.3971
 7309SOL     OW23526   5.815   5.602   4.063 -0.2200  0.0847 -0.4850
 7309SOL    HW123527   5.815   5.636   3.969  0.2893  0.3416 -0.3915
 7309SOL    HW223528   5.865   5.665   4.122  1.9613 -1.4767 -0.5571
 7310SOL     OW23529   2.734   1.538   5.939  0.0789 -0.0231  0.3360
 7310SOL    HW123530   2.794   1.458   5.944 -1.9253 -1.5417  1.7297
 7310SOL    HW223531   2.640   1.510   5.959 -0.9691  2.4324 -0.7703
 7311SOL     OW23532   6.230   2.563   4.631  0.2201  0.1879  0.1554
 7311SOL    HW123533   6.263   2.644   4.680  0.0406 -0.2585  1.0440
 7311SOL    HW223534   6.137   2.580   4.599 -0.5820 -0.3270  2.0584
 7312SOL     OW23535   5.521   5.488   1.272  0.2607 -0.0488 -0.4582
 7312SOL    HW123536   5.581   5.478   1.193 -0.1688 -1.2312 -0.6563
 7312SOL    HW223537   5.430   5.519   1.242  0.1105 -0.4543 -0.4335
 7313SOL     OW23538   4.923   2.588   2.284  0.6531 -0.0434 -0.2995
 7313SOL    HW123539   4.862   2.612   2.208 -1.0137  0.7959  1.2301
 7313SOL    HW223540   4.889   2.507   2.331  1.8515 -0.7518 -0.5974
 7314SOL     OW23541   2.341   5.569   5.733  0.3219  0.2710 -0.0446
 7314SOL    HW123542   2.430   5.604   5.704  1.5775 -2.7957 -0.3090
 7314SOL    HW223543   2.355   5.494   5.798 -2.1751  0.7527  1.1519
 7315SOL     OW23544   3.510   0.962   0.366  0.6293  0.1014 -0.2466
 7315SOL    HW123545   3.571   0.902   0.419  1.7882 -1.1666 -2.8115
 7315SOL    HW223546   3.467   1.028   0.427  1.4313 -1.5726  2.3111
 7316SOL     OW23547   1.957   5.868   3.491 -0.3147 -0.3369  0.8571
 7316SOL    HW123548   1.924   5.774   3.493  0.9318 -0.7815  1.5044
 7316SOL    HW223549   2.043   5.874   3.540 -0.4533  1.1880  0.9533
 7317SOL     OW23550   4.437   4.890   4.541 -0.1511 -0.1140 -0.1512
 7317SOL    HW123551   4.469   4.936   4.624  2.3951 -1.9518  0.0028
 7317SOL    HW223552   4.427   4.957   4.467  0.1031  1.1541  0.9372
 7318SOL     OW23553   0.053   0.029   4.335  0.0904 -0.5978 -0.7792
 7318SOL    HW123554   0.045   0.068   4.243 -0.1855  0.1944 -0.4309
 7318SOL    HW223555  -0.028  -0.025   4.355 -0.3873  0.1698 -0.5824
 7319SOL     OW23556   0.163   2.391   4.364  0.6857 -0.2061 -0.1696
 7319SOL    HW123557   0.069   2.364   4.342  0.0613  1.5843  0.1998
 7319SOL    HW223558   0.210   2.313   4.406 -0.9394 -0.8463  0.5754
 7320SOL     OW23559   1.059   4.224   1.355 -0.2403  0.0174  0.2214
 7320SOL    HW123560   1.118   4.276   1.294 -1.5398  1.1512 -0.1110
 7320SOL    HW223561   1.061   4.265   1.446 -0.3331 -0.0986  0.2759
 7321SOL     OW23562   1.499   4.865   0.856 -0.4120  0.8509  0.4539
 7321SOL    HW123563   1.493   4.767   0.836  0.0712  0.8405  0.3516
 7321SOL    HW223564   1.408   4.907   0.845 -0.4985  0.5329 -0.0993
 7322SOL     OW23565   1.479   5.204   6.866  0.5156  0.6168  0.4497
 7322SOL    HW123566   1.428   5.139   6.923 -0.7196  1.5734  0.4605
 7322SOL    HW223567   1.501   5.161   6.779  3.2482 -1.2199  1.8677
 7323SOL     OW23568   3.233   2.741   0.616  0.1567 -0.0976 -0.0547
 7323SOL    HW123569   3.234   2.822   0.558 -2.4808  0.3141  0.3217
 7323SOL    HW223570   3.162   2.752   0.687 -0.6935 -2.9197 -0.3360
 7324SOL     OW23571   5.929   6.489   6.363 -0.1753  0.2302 -0.1490
 7324SOL    HW123572   5.949   6.415   6.427 -0.3914 -0.4926 -0.8956
 7324SOL    HW223573   5.907   6.450   6.273  0.3741  1.2193 -0.7367
 7325SOL     OW23574   0.396   5.326   5.140  0.3609 -0.0104 -0.3504
 7325SOL    HW123575   0.328   5.342   5.069  0.4478  1.0951 -0.2037
 7325SOL    HW223576   0.446   5.411   5.158 -0.2454 -0.0206  1.6394
 7326SOL     OW23577   3.043   1.507   6.967 -0.5043  0.7151 -0.1522
 7326SOL    HW123578   3.085   1.508   7.058 -2.4531 -1.9205  0.8909
 7326SOL    HW223579   2.959   1.562   6.968  0.5134  2.3767 -1.0139
 7327SOL     OW23580   1.888   5.813   2.728 -0.2447 -0.1956  0.2585
 7327SOL    HW123581   1.890   5.884   2.799  1.8753 -0.7243  0.7830
 7327SOL    HW223582   1.839   5.733   2.763  1.9333 -0.9870  1.7574
 7328SOL     OW23583   1.612   1.535   6.811  0.1865 -0.9511  0.2769
 7328SOL    HW123584   1.589   1.581   6.725 -0.1961 -0.5645  0.5882
 7328SOL    HW223585   1.590   1.594   6.888  1.8569 -0.7027  0.6092
 7329SOL     OW23586   6.656   2.660   6.934 -0.2172  0.1695  0.6414
 7329SOL    HW123587   6.648   2.582   6.996  1.2839  0.5111  1.3259
 7329SOL    HW223588   6.695   2.738   6.984  0.1749  0.7330 -0.5089
 7330SOL     OW23589   6.485   0.955   1.836  0.4362  0.5557  0.0429
 7330SOL    HW123590   6.550   1.019   1.878  2.4477 -1.8086  0.7556
 7330SOL    HW223591   6.419   0.924   1.905 -1.6205  2.9798 -0.6877
 7331SOL     OW23592   3.577   0.217   2.094  0.0912 -0.3462 -0.0244
 7331SOL    HW123593   3.676   0.206   2.085  0.0615 -0.1049 -0.7265
 7331SOL    HW223594   3.554   0.231   2.190  1.0042  1.9616 -0.0723
 7332SOL     OW23595   3.354   5.859   0.618 -0.0824 -0.3393  0.5426
 7332SOL    HW123596   3.287   5.817   0.679  0.3014 -0.1190  1.1251
 7332SOL    HW223597   3.445   5.849   0.657  0.2630 -0.9074 -0.3971
 7333SOL     OW23598   0.340   2.064   0.537 -0.5232 -0.3024  0.3603
 7333SOL    HW123599   0.376   2.090   0.447 -0.1649 -0.5715  0.4279
 7333SOL    HW223600   0.384   2.120   0.608  0.2749 -1.0976  0.5110
 7334SOL     OW23601   1.587   6.304   5.529 -0.0275  0.0399 -0.7948
 7334SOL    HW123602   1.669   6.301   5.472 -0.1703 -1.9758 -0.9571
 7334SOL    HW223603   1.614   6.308   5.626  0.2998 -1.2200 -0.8172
 7335SOL     OW23604   2.517   3.795   1.533 -0.2270 -0.8411  0.1879
 7335SOL    HW123605   2.521   3.862   1.607  0.5484 -0.4776 -0.1715
 7335SOL    HW223606   2.596   3.734   1.538 -0.0404 -0.6649 -0.4743
 7336SOL     OW23607   2.792   4.886   2.957 -0.0297 -0.0710 -0.1102
 7336SOL    HW123608   2.869   4.875   3.020  0.9378  0.9710 -1.0764
 7336SOL    HW223609   2.819   4.944   2.880 -1.1662 -1.3144 -1.5186
 7337SOL     OW23610   4.438   3.993   6.914  0.3610 -0.1272 -0.6742
 7337SOL    HW123611   4.396   4.033   6.833 -0.8785  0.4881  0.2237
 7337SOL    HW223612   4.487   4.064   6.965  2.8642 -0.9005 -1.8741
 7338SOL     OW23613   4.103   5.531   5.996  0.0233  0.2729  0.2927
 7338SOL    HW123614   4.030   5.499   5.935 -0.7249 -0.4863  1.5359
 7338SOL    HW223615   4.124   5.459   6.062  1.2728  0.8340  0.5248
 7339SOL     OW23616   1.481   3.558   0.045  0.4040  0.2069  0.3355
 7339SOL    HW123617   1.573   3.583   0.014  0.3292 -1.3724 -1.3111
 7339SOL    HW223618   1.424   3.536  -0.034 -1.1591  0.3603  1.3856
 7340SOL     OW23619   0.444   1.835   1.994  0.3179 -0.2829  0.0819
 7340SOL    HW123620   0.391   1.805   1.915  0.8186  1.0585 -0.8021
 7340SOL    HW223621   0.478   1.755   2.044 -0.6590 -1.1495 -0.6034
 7341SOL     OW23622   6.884   1.500   3.441 -0.7394  0.1631  0.1320
 7341SOL    HW123623   6.878   1.468   3.536 -0.3903  0.5815  0.2966
 7341SOL    HW223624   6.938   1.584   3.437  0.8916 -0.8938 -0.6947
 7342SOL     OW23625   4.396   2.796   6.101 -0.0197 -0.3042 -0.2185
 7342SOL    HW123626   4.347   2.709   6.098  0.6839 -0.7001 -0.5622
 7342SOL    HW223627   4.392   2.834   6.193  1.0731 -1.5424  0.3685
 7343SOL     OW23628   3.831   3.016   0.726 -0.2956 -0.0245 -0.0337
 7343SOL    HW123629   3.894   2.954   0.773 -0.0572 -0.8269 -1.3956
 7343SOL    HW223630   3.743   2.971   0.712 -0.1531 -0.0401 -0.9377
 7344SOL     OW23631   5.165   4.144   4.976 -0.0155 -0.7769 -0.0343
 7344SOL    HW123632   5.252   4.166   4.931  0.3058 -2.3875 -0.2495
 7344SOL    HW223633   5.093   4.203   4.940  1.3237  2.0731  1.6303
 7345SOL     OW23634   2.803   0.050   6.765  0.2658 -0.2693 -0.6300
 7345SOL    HW123635   2.792   0.150   6.770 -0.9498 -0.2236 -2.8197
 7345SOL    HW223636   2.744   0.007   6.833  0.1329  0.4740 -0.2555
 7346SOL     OW23637   6.047   4.871   3.114  0.5946 -0.1180 -0.1155
 7346SOL    HW123638   6.037   4.965   3.082  0.5230 -0.6976 -1.9317
 7346SOL    HW223639   6.121   4.865   3.180  0.5189  1.2280  0.1119
 7347SOL     OW23640   4.247   6.635   4.571  0.3299  0.6231 -0.2272
 7347SOL    HW123641   4.190   6.557   4.545  1.6981 -0.0414 -1.3308
 7347SOL    HW223642   4.212   6.674   4.656 -0.4126 -1.1505  0.3360
 7348SOL     OW23643   3.754   6.781   4.435  0.3477 -0.9617 -0.3292
 7348SOL    HW123644   3.748   6.875   4.401 -1.5216 -0.3555  1.4296
 7348SOL    HW223645   3.669   6.732   4.412  0.5176 -1.6053  0.3881
 7349SOL     OW23646   0.280   1.798   2.266  0.7309 -0.4113 -0.0771
 7349SOL    HW123647   0.203   1.735   2.264 -0.3043  0.7631  0.6720
 7349SOL    HW223648   0.365   1.748   2.258 -0.1392 -1.6440 -2.3671
 7350SOL     OW23649   4.702   4.926   4.738 -0.0136  0.0545 -1.1735
 7350SOL    HW123650   4.800   4.941   4.729  0.4415 -1.0495  1.2525
 7350SOL    HW223651   4.682   4.828   4.733 -0.8719  0.1881 -0.6436
 7351SOL     OW23652   5.877   3.459   1.535 -0.0185 -0.2114 -0.5766
 7351SOL    HW123653   5.948   3.416   1.590  0.7182 -0.1146 -1.4236
 7351SOL    HW223654   5.812   3.505   1.595  0.6507 -0.2754  0.2194
 7352SOL     OW23655   2.329   3.978   2.023 -0.1777 -0.3765  1.0750
 7352SOL    HW123656   2.236   3.957   2.055 -0.7267  1.4588  0.7865
 7352SOL    HW223657   2.343   4.076   2.026  1.6621 -0.6101  0.7697
 7353SOL     OW23658   6.195   5.504   2.956 -0.7676  0.0124 -0.0280
 7353SOL    HW123659   6.271   5.442   2.940 -0.7953  0.3506 -1.6632
 7353SOL    HW223660   6.228   5.599   2.955 -1.3676  0.2435 -2.1638
 7354SOL     OW23661   6.100   0.026   6.290 -0.3261 -0.0457 -0.1390
 7354SOL    HW123662   6.150   0.048   6.374  0.5061  1.3759 -0.9765
 7354SOL    HW223663   6.163  -0.015   6.223 -1.1851 -2.0934  0.2308
 7355SOL     OW23664   2.818   2.490   6.204 -0.4677  0.2907  0.0581
 7355SOL    HW123665   2.834   2.392   6.211 -2.8664 -0.1667 -0.2596
 7355SOL    HW223666   2.746   2.508   6.137 -0.1588  2.2838  0.1869
 7356SOL     OW23667   2.891   6.485   6.532  0.2646 -0.4344  0.2065
 7356SOL    HW123668   2.849   6.511   6.619  0.4312  1.6541 -0.2773
 7356SOL    HW223669   2.978   6.438   6.549  0.2857 -0.0586  1.1691
 7357SOL     OW23670   0.263   3.904   1.015  0.2408  0.3669 -0.3005
 7357SOL    HW123671   0.284   3.831   1.080  1.4284 -0.2002 -1.2755
 7357SOL    HW223672   0.327   3.980   1.028 -0.7204  1.0924  0.4226
 7358SOL     OW23673   1.756   4.663   0.022 -0.1230  0.7772 -0.4115
 7358SOL    HW123674   1.837   4.655  -0.036 -0.5029  0.5226 -0.9202
 7358SOL    HW223675   1.731   4.759   0.031 -0.2576  0.7976 -0.9520
 7359SOL     OW23676   4.077   1.212   0.016 -0.2316 -0.2655 -0.6861
 7359SOL    HW123677   4.077   1.163   0.103  1.0465  1.4799  0.3780
 7359SOL    HW223678   3.992   1.264   0.006  0.4377  1.1713  0.5837
 7360SOL     OW23679   5.797   2.207   0.264 -0.2799 -0.2220 -0.4040
 7360SOL    HW123680   5.752   2.248   0.344  0.9108  0.0681  0.1433
 7360SOL    HW223681   5.870   2.145   0.295 -0.5223 -0.9505 -1.2583
 7361SOL     OW23682   2.572   2.715   6.194 -0.1258  0.2110 -0.0069
 7361SOL    HW123683   2.575   2.644   6.264 -0.4016  0.4658  0.2622
 7361SOL    HW223684   2.607   2.801   6.232 -1.9402  0.8276  0.3854
 7362SOL     OW23685   5.740   4.435   0.806 -1.0393  0.0298  0.5032
 7362SOL    HW123686   5.799   4.373   0.754 -0.4479  0.1104  1.0638
 7362SOL    HW223687   5.665   4.465   0.748  0.0929  0.8335 -0.6040
 7363SOL     OW23688   2.773   6.195   6.647  1.0597 -0.1662 -0.8067
 7363SOL    HW123689   2.829   6.267   6.605  1.3290 -0.4248 -0.8976
 7363SOL    HW223690   2.699   6.237   6.700  2.8949  0.2956  1.5741
 7364SOL     OW23691   2.171   6.641   1.858  0.2121 -0.0466 -0.5407
 7364SOL    HW123692   2.187   6.736   1.886  0.3709  0.2885 -1.7043
 7364SOL    HW223693   2.236   6.581   1.904  0.8128  0.5500 -0.5964
 7365SOL     OW23694   6.032   4.265   0.107  0.4410  0.0139  0.1527
 7365SOL    HW123695   6.080   4.195   0.055 -0.5516 -0.8647  0.3842
 7365SOL    HW223696   6.061   4.262   0.203  0.6256  0.1236  0.0996
 7366SOL     OW23697   0.453   4.817   3.273 -0.2513  0.0523  0.0195
 7366SOL    HW123698   0.500   4.803   3.186 -0.8096  1.7322 -0.5799
 7366SOL    HW223699   0.365   4.768   3.271  0.6149 -1.6154  0.4720
 7367SOL     OW23700   0.130   2.448   6.586 -0.2815  0.5826 -0.7123
 7367SOL    HW123701   0.041   2.425   6.625  0.3703  0.3888  0.7311
 7367SOL    HW223702   0.179   2.509   6.649  0.7372  0.4381 -1.3393
 7368SOL     OW23703   5.143   4.943   5.568 -0.2191  0.2486 -0.3718
 7368SOL    HW123704   5.182   4.869   5.623  0.4269  0.4697 -0.5268
 7368SOL    HW223705   5.139   5.027   5.623 -0.4594  0.2301 -0.3620
 7369SOL     OW23706   1.739   3.344   6.898 -0.4489  0.1824  0.0082
 7369SOL    HW123707   1.691   3.329   6.812 -0.7096  1.0949 -0.0152
 7369SOL    HW223708   1.751   3.256   6.945 -0.3574 -0.3145 -0.9207
 7370SOL     OW23709   1.137   4.786   5.942  0.0024 -0.2660 -0.3460
 7370SOL    HW123710   1.078   4.855   5.899 -1.7412 -0.7238  1.2133
 7370SOL    HW223711   1.191   4.829   6.014  1.4041  0.0856 -1.5566
 7371SOL     OW23712   1.285   2.654   6.243 -0.0361  0.5613 -0.1721
 7371SOL    HW123713   1.198   2.611   6.221 -0.0470 -0.5904  1.9262
 7371SOL    HW223714   1.311   2.716   6.169 -2.5653  0.8662 -0.8744
 7372SOL     OW23715   2.575   4.766   2.834 -0.1445 -0.0251 -0.4129
 7372SOL    HW123716   2.653   4.802   2.886 -0.9731  1.0775  0.1167
 7372SOL    HW223717   2.490   4.787   2.883 -0.7012 -3.2148  0.2064
 7373SOL     OW23718   1.601   3.251   5.517 -0.4327  0.4280 -0.2089
 7373SOL    HW123719   1.678   3.189   5.530 -0.5201  0.2860 -0.3695
 7373SOL    HW223720   1.595   3.276   5.421 -2.1928 -1.6590 -0.7033
 7374SOL     OW23721   5.902   1.091   0.879 -0.1324  0.1100 -0.0293
 7374SOL    HW123722   5.855   1.158   0.936 -1.6194  0.3864 -1.5134
 7374SOL    HW223723   5.875   1.102   0.784  1.1687 -1.2818 -0.6150
 7375SOL     OW23724   0.578   0.349   3.620  0.7254 -0.5771  0.5214
 7375SOL    HW123725   0.596   0.292   3.699  0.4302 -0.9945  0.2903
 7375SOL    HW223726   0.519   0.300   3.555 -0.4605  0.3772  0.8285
 7376SOL     OW23727   3.221   3.005   0.502 -0.3356  0.0845 -0.1390
 7376SOL    HW123728   3.293   2.980   0.437  0.2350 -0.9997  0.8581
 7376SOL    HW223729   3.263   3.029   0.590 -1.1686 -0.0915  0.3175
 7377SOL     OW23730   2.515   0.292   3.211 -0.0786 -0.1805 -0.4203
 7377SOL    HW123731   2.487   0.213   3.156 -0.4589 -1.1536  1.1062
 7377SOL    HW223732   2.441   0.359   3.214  0.4263  0.5083 -2.1275
 7378SOL     OW23733   1.576   3.119   3.279  0.2750 -0.2050 -0.2793
 7378SOL    HW123734   1.633   3.037   3.277  0.0472 -0.3808 -2.6098
 7378SOL    HW223735   1.631   3.198   3.305  1.4100 -0.5089 -1.6626
 7379SOL     OW23736   3.770   5.739   3.085  0.7321 -0.5671  0.3050
 7379SOL    HW123737   3.811   5.649   3.068 -0.9981 -1.5682  1.2205
 7379SOL    HW223738   3.757   5.752   3.184  3.5549  1.9307  0.4983
 7380SOL     OW23739   6.755   5.688   3.021 -0.7832 -0.6695  0.9304
 7380SOL    HW123740   6.788   5.721   2.933 -1.6911  0.2481  0.9196
 7380SOL    HW223741   6.703   5.604   3.008 -2.2461  0.2963  0.3677
 7381SOL     OW23742   4.072   5.812   4.374  0.0181 -0.1766  0.7020
 7381SOL    HW123743   4.032   5.865   4.299 -0.5228 -0.7306  0.5847
 7381SOL    HW223744   4.159   5.772   4.344 -0.8488 -1.5339 -0.1307
 7382SOL     OW23745   5.892   1.989   1.416 -0.0393  0.3666 -0.5115
 7382SOL    HW123746   5.860   1.971   1.324 -0.0453 -0.9720 -0.2609
 7382SOL    HW223747   5.891   1.905   1.470 -1.2717  1.3385  1.0990
 7383SOL     OW23748   1.624   1.069   5.512  0.1870 -0.4982  0.4311
 7383SOL    HW123749   1.615   0.972   5.487 -0.8751 -0.6423  1.2678
 7383SOL    HW223750   1.686   1.114   5.449 -0.7548 -1.3035 -1.1422
 7384SOL     OW23751   5.118   1.172   4.207  0.2763  0.6775  0.1653
 7384SOL    HW123752   5.073   1.233   4.272  0.5477  1.1926 -0.1205
 7384SOL    HW223753   5.100   1.077   4.232 -0.0301  0.8733  0.7034
 7385SOL     OW23754   4.530   2.240   0.202  0.2833 -0.4101 -0.7772
 7385SOL    HW123755   4.565   2.243   0.108 -1.0991 -1.3462 -1.3404
 7385SOL    HW223756   4.525   2.145   0.234 -2.2896 -0.4025 -0.9632
 7386SOL     OW23757   4.915   1.037   0.316  0.0957  0.4049  0.2603
 7386SOL    HW123758   4.832   0.988   0.342  0.9687  0.0750  2.7105
 7386SOL    HW223759   4.992   0.973   0.316  0.4771  0.8019 -1.5228
 7387SOL     OW23760   6.020   2.672   3.316  0.0126 -0.4047  0.0144
 7387SOL    HW123761   5.951   2.644   3.384  1.3527 -0.9614  1.2052
 7387SOL    HW223762   6.111   2.648   3.350  0.8474  0.8364 -1.2660
 7388SOL     OW23763   5.835   4.903   6.984  0.5985 -0.0538 -0.9146
 7388SOL    HW123764   5.927   4.909   7.023 -0.0536 -0.2479  0.7667
 7388SOL    HW223765   5.818   4.808   6.956  0.6638 -0.1717 -0.5648
 7389SOL     OW23766   3.897   0.796   1.963  0.3152  0.0729  0.5685
 7389SOL    HW123767   3.835   0.734   2.011  0.6066 -0.3644  0.3787
 7389SOL    HW223768   3.847   0.840   1.888 -0.1929  0.8973  1.3724
 7390SOL     OW23769   0.469   4.064   5.751 -0.3230 -0.1656  0.2187
 7390SOL    HW123770   0.400   4.136   5.757  0.0711  0.2667 -0.3640
 7390SOL    HW223771   0.558   4.102   5.777 -0.0734 -0.3880 -0.3107
 7391SOL     OW23772   2.604   0.747   1.923 -0.0723 -0.0019 -0.1212
 7391SOL    HW123773   2.599   0.654   1.885  0.1025 -0.5346  1.1082
 7391SOL    HW223774   2.700   0.777   1.923  0.0691 -0.4236  0.8426
 7392SOL     OW23775   5.297   2.779   3.486  0.4208 -0.2281  0.1941
 7392SOL    HW123776   5.260   2.813   3.399  0.7375 -2.4702 -0.8749
 7392SOL    HW223777   5.397   2.780   3.482  0.4410 -1.4759  0.0275
 7393SOL     OW23778   1.536   3.812   4.626 -0.2296  0.7580  0.2230
 7393SOL    HW123779   1.452   3.853   4.590 -0.1981  0.5240 -0.1195
 7393SOL    HW223780   1.524   3.713   4.632 -0.1021  0.7588  0.5113
 7394SOL     OW23781   4.771   3.401   3.817 -0.2822 -0.1945 -0.2793
 7394SOL    HW123782   4.776   3.468   3.743  2.1728 -0.2933 -0.2991
 7394SOL    HW223783   4.800   3.443   3.903 -0.2329 -0.8216  0.0238
 7395SOL     OW23784   1.345   5.697   0.686 -0.0303  0.3391 -0.0509
 7395SOL    HW123785   1.384   5.605   0.686  1.1742  0.8393 -0.2596
 7395SOL    HW223786   1.256   5.694   0.731 -0.3040 -1.0432 -0.6029
 7396SOL     OW23787   1.531   4.757   6.040  0.4213  0.3329 -0.2107
 7396SOL    HW123788   1.491   4.847   6.019 -0.3333  0.5269  1.7799
 7396SOL    HW223789   1.576   4.761   6.130 -1.7785 -1.8655  1.1085
 7397SOL     OW23790   3.957   3.569   5.268 -0.2724  0.0160 -0.1887
 7397SOL    HW123791   3.919   3.488   5.313  3.1088 -0.9154  1.3231
 7397SOL    HW223792   3.926   3.651   5.316 -2.1282 -0.4791 -0.4785
 7398SOL     OW23793   0.082   2.166   1.302  0.4435  0.2798  0.1099
 7398SOL    HW123794   0.098   2.260   1.271  0.9176  0.6635  1.4628
 7398SOL    HW223795   0.164   2.112   1.287 -0.1224 -0.1808 -1.5077
 7399SOL     OW23796   4.391   1.417   2.352  0.0919  0.5397 -0.1758
 7399SOL    HW123797   4.424   1.362   2.428  1.5274 -0.0191 -1.1725
 7399SOL    HW223798   4.467   1.445   2.295 -1.0726 -0.4774 -2.3535
 7400SOL     OW23799   3.848   5.845   1.144  0.1341  0.2421 -0.0689
 7400SOL    HW123800   3.768   5.866   1.088  0.3802 -0.1677 -0.5797
 7400SOL    HW223801   3.923   5.906   1.119 -0.1849  1.0370  0.8276
 7401SOL     OW23802   5.059   5.619   4.269 -0.4829 -0.0043 -0.4144
 7401SOL    HW123803   5.124   5.649   4.199 -0.6858  0.2870 -0.4791
 7401SOL    HW223804   5.097   5.541   4.318 -0.1864  0.0130 -0.6119
 7402SOL     OW23805   4.090   5.023   6.480 -0.7996  0.0916 -0.1529
 7402SOL    HW123806   4.129   4.991   6.393 -2.8257 -1.5313 -0.5417
 7402SOL    HW223807   4.164   5.035   6.546  0.5558 -1.0328 -1.3665
 7403SOL     OW23808   5.516   2.395   6.434 -0.0470 -0.0175  0.3425
 7403SOL    HW123809   5.490   2.479   6.387 -0.8145  0.1374  1.0073
 7403SOL    HW223810   5.582   2.417   6.507 -1.4075  0.2732  1.5339
 7404SOL     OW23811   5.050   5.801   4.718  0.6096  0.2505 -0.7592
 7404SOL    HW123812   4.953   5.826   4.723  0.5443 -0.0653 -0.3777
 7404SOL    HW223813   5.091   5.811   4.808  0.5890 -0.9642 -0.5911
 7405SOL     OW23814   1.109   3.808   4.661 -0.0759 -0.1916 -0.6817
 7405SOL    HW123815   1.088   3.743   4.589  2.8771 -0.1752 -1.7007
 7405SOL    HW223816   1.179   3.873   4.628  2.1252 -0.7695  2.4071
 7406SOL     OW23817   4.758   5.243   2.063 -0.6792 -0.3043  0.6355
 7406SOL    HW123818   4.735   5.157   2.108  0.2228  0.2734  2.3168
 7406SOL    HW223819   4.680   5.305   2.067 -0.7092 -0.3716  1.1453
 7407SOL     OW23820   1.838   3.858   5.351  0.1682  0.0878  1.1260
 7407SOL    HW123821   1.893   3.807   5.418  1.1640  0.6422  0.7431
 7407SOL    HW223822   1.891   3.870   5.267 -1.0321 -0.5138  0.2557
 7408SOL     OW23823   3.252   0.983   6.496  0.1388 -0.2378 -0.0204
 7408SOL    HW123824   3.241   1.079   6.472 -0.9235 -0.0861  0.9630
 7408SOL    HW223825   3.314   0.975   6.573  0.7249 -0.4034 -0.5050
 7409SOL     OW23826   4.361   3.930   3.600 -0.0128  0.1601  0.1256
 7409SOL    HW123827   4.418   3.859   3.556 -0.9436 -0.8986  0.5826
 7409SOL    HW223828   4.354   4.008   3.539  0.8575 -0.2186 -0.4962
 7410SOL     OW23829   2.977   4.277   2.015  0.4656 -0.3780  0.3081
 7410SOL    HW123830   3.020   4.366   2.025  1.2093 -0.4748 -1.7024
 7410SOL    HW223831   2.982   4.228   2.103 -0.1833  1.5980  1.5121
 7411SOL     OW23832   0.745   1.386   1.171 -0.1393 -0.2503 -0.3604
 7411SOL    HW123833   0.705   1.394   1.080 -1.5808 -0.5597  0.2098
 7411SOL    HW223834   0.792   1.298   1.180  0.0890 -0.1754 -0.8298
 7412SOL     OW23835   3.486   2.697   1.207  0.0288 -0.1435  0.3431
 7412SOL    HW123836   3.450   2.618   1.157  2.2882 -1.8869  1.3132
 7412SOL    HW223837   3.434   2.710   1.292 -0.7590 -0.1308 -0.1236
 7413SOL     OW23838   4.353   6.762   1.564 -0.1057 -0.5090  0.4016
 7413SOL    HW123839   4.324   6.815   1.485  0.2061  0.8967  1.1990
 7413SOL    HW223840   4.280   6.701   1.592 -1.1958  0.8584  0.6051
 7414SOL     OW23841   4.484   6.578   3.933 -0.2481 -0.3181 -0.7825
 7414SOL    HW123842   4.537   6.661   3.914  1.1004 -1.0807 -0.3994
 7414SOL    HW223843   4.461   6.575   4.031 -1.5968  0.3245 -1.0450
 7415SOL     OW23844   2.526   1.404   2.066  0.0495  0.4441  0.3051
 7415SOL    HW123845   2.585   1.350   2.127 -0.8476 -0.2705  0.5597
 7415SOL    HW223846   2.436   1.360   2.059  0.6960 -0.5561 -3.0631
 7416SOL     OW23847   6.769   4.302   6.139  0.4620  0.0143 -0.5828
 7416SOL    HW123848   6.821   4.264   6.216  0.9738  1.2777 -0.2872
 7416SOL    HW223849   6.674   4.274   6.147  0.6285 -0.3736  0.1834
 7417SOL     OW23850   5.447   2.533   3.240 -0.1501 -0.4092 -0.5567
 7417SOL    HW123851   5.439   2.469   3.164  0.7729 -0.6036 -0.4960
 7417SOL    HW223852   5.438   2.483   3.327  1.4403 -0.6126 -0.4883
 7418SOL     OW23853   1.945   1.276   4.473  0.5976  0.3484  0.1490
 7418SOL    HW123854   1.992   1.364   4.468  0.3561  0.4238 -1.1437
 7418SOL    HW223855   2.007   1.203   4.445  0.9332  0.0199  1.6310
 7419SOL     OW23856   0.293   1.662   5.004 -0.4803 -0.1601 -0.4830
 7419SOL    HW123857   0.291   1.730   4.931 -2.5139  1.4171  0.9346
 7419SOL    HW223858   0.202   1.621   5.015 -0.5768  0.4769  1.8256
 7420SOL     OW23859   4.058   0.104   1.156 -0.7767 -0.0277 -0.6427
 7420SOL    HW123860   4.119   0.176   1.125  1.3280 -0.6889  1.6103
 7420SOL    HW223861   4.033   0.120   1.252 -0.2377 -2.2312 -0.0630
 7421SOL     OW23862   3.398   6.738   6.572  0.3365 -0.0126 -0.2146
 7421SOL    HW123863   3.433   6.706   6.484 -0.2655  1.4950 -1.0534
 7421SOL    HW223864   3.468   6.795   6.617  0.1204  0.4162 -0.4154
 7422SOL     OW23865   2.874   3.766   5.143 -0.9540  0.5063  0.4349
 7422SOL    HW123866   2.819   3.844   5.113 -0.9990  0.5336  0.5872
 7422SOL    HW223867   2.966   3.797   5.166 -0.6150  0.3326 -0.6122
 7423SOL     OW23868   2.032   0.862   3.514  0.0603  0.0358  0.4268
 7423SOL    HW123869   2.035   0.762   3.512 -1.0520 -0.0122  0.7468
 7423SOL    HW223870   1.945   0.894   3.477  0.0520  0.8504  1.1194
 7424SOL     OW23871   5.095   5.082   3.678  0.4475 -0.2207  0.3589
 7424SOL    HW123872   5.159   5.127   3.740 -0.2005  0.4597  0.5544
 7424SOL    HW223873   5.002   5.090   3.715 -0.0102  0.5901 -0.8894
 7425SOL     OW23874   0.592   6.124   1.518  0.2074 -0.1226  0.6219
 7425SOL    HW123875   0.584   6.136   1.419 -2.4704 -1.7043  0.5472
 7425SOL    HW223876   0.614   6.212   1.560 -1.9012  1.3754 -1.1586
 7426SOL     OW23877   4.058   3.570   2.974 -0.1351 -0.0429 -0.1795
 7426SOL    HW123878   4.050   3.669   2.974  1.7034  0.1551  0.9192
 7426SOL    HW223879   3.967   3.529   2.982 -0.7774  1.6044  1.7385
 7427SOL     OW23880   1.730   3.693   0.730  0.5125 -0.1310 -0.4926
 7427SOL    HW123881   1.672   3.612   0.731 -1.1627  0.9660 -1.8959
 7427SOL    HW223882   1.802   3.681   0.661  1.7062 -1.2682  0.8679
 7428SOL     OW23883   3.011   0.845   5.622  0.6535 -0.1476  0.4781
 7428SOL    HW123884   2.947   0.837   5.699 -0.6493  1.2187 -0.4037
 7428SOL    HW223885   2.959   0.844   5.536  1.9490 -0.1438 -0.3248
 7429SOL     OW23886   1.753   3.458   1.448 -0.0798 -0.8879 -0.4425
 7429SOL    HW123887   1.838   3.406   1.448  0.5559  0.1345 -0.7395
 7429SOL    HW223888   1.723   3.473   1.543  2.8031  3.0171  0.1044
 7430SOL     OW23889   3.881   3.650   0.891  0.5389  0.0964 -0.4546
 7430SOL    HW123890   3.894   3.552   0.902  1.0049 -0.0378 -1.9715
 7430SOL    HW223891   3.962   3.698   0.925  0.1017  0.0218  0.7662
 7431SOL     OW23892   3.314   3.027   6.688 -0.4990  0.5702  0.4456
 7431SOL    HW123893   3.341   3.122   6.703 -4.3221  1.9076  0.1162
 7431SOL    HW223894   3.248   2.999   6.758  1.9566 -2.6591  1.7245
 7432SOL     OW23895   2.866   5.035   4.696 -0.0556  0.5501 -0.7753
 7432SOL    HW123896   2.830   4.968   4.760  0.0968  0.5192 -0.7229
 7432SOL    HW223897   2.949   4.999   4.653  1.3721  1.6218  0.9556
 7433SOL     OW23898   4.286   2.392   0.175  0.0663  0.1906  0.2833
 7433SOL    HW123899   4.369   2.339   0.194  0.2377 -0.2512 -1.5121
 7433SOL    HW223900   4.205   2.335   0.191  0.1338  0.2729  0.9639
 7434SOL     OW23901   4.756   3.158   4.920 -0.4128  0.1786  0.1506
 7434SOL    HW123902   4.819   3.104   4.864 -0.6825  1.5342 -1.5185
 7434SOL    HW223903   4.797   3.247   4.941 -1.0926  0.4183  0.4976
 7435SOL     OW23904   5.241   5.149   2.556  0.3834 -0.1121  0.0352
 7435SOL    HW123905   5.162   5.114   2.606  1.2631  0.0808  1.5912
 7435SOL    HW223906   5.300   5.073   2.529  1.5528 -0.0112  2.1507
 7436SOL     OW23907   1.970   0.349   3.326  0.2783  0.1885  0.2679
 7436SOL    HW123908   1.949   0.256   3.296  1.1696  0.0631 -0.0117
 7436SOL    HW223909   1.889   0.407   3.315  0.1486 -0.2026 -1.0070
 7437SOL     OW23910   5.252   2.370   1.305  0.0537  0.6566  0.6585
 7437SOL    HW123911   5.320   2.297   1.307  1.6256  1.9973 -0.9386
 7437SOL    HW223912   5.230   2.398   1.398 -0.4536 -1.6480  1.3169
 7438SOL     OW23913   6.818   4.652   0.789  0.3645 -0.6813 -0.0371
 7438SOL    HW123914   6.845   4.558   0.810 -1.3062 -0.8300  1.7685
 7438SOL    HW223915   6.815   4.705   0.874 -0.1011  0.6352 -0.8429
 7439SOL     OW23916   5.506   0.956   6.781  0.5469 -0.9585  0.4605
 7439SOL    HW123917   5.586   0.898   6.801  1.9786  0.8505  0.2214
 7439SOL    HW223918   5.429   0.927   6.838  2.7959  0.3505  4.5399
 7440SOL     OW23919   1.909   3.783   1.999 -0.4407 -0.2932 -0.7003
 7440SOL    HW123920   1.986   3.832   2.040 -1.0380  1.0174 -1.1254
 7440SOL    HW223921   1.933   3.686   1.991 -0.0797 -0.5611  2.2302
 7441SOL     OW23922   4.874   6.036   1.029  0.3340 -0.1748 -0.2198
 7441SOL    HW123923   4.875   5.936   1.023  0.1805 -0.1085 -1.7123
 7441SOL    HW223924   4.780   6.069   1.020  0.4861  0.1402 -0.6980
 7442SOL     OW23925   4.275   6.144   2.784  0.2815 -0.0434  0.5823
 7442SOL    HW123926   4.214   6.222   2.772 -1.2222 -1.2170  0.3354
 7442SOL    HW223927   4.305   6.139   2.879  0.6571  1.0039  0.5301
 7443SOL     OW23928   1.549   4.409   6.958 -0.2812  0.2605 -0.0844
 7443SOL    HW123929   1.465   4.440   6.916 -0.4890 -2.0200 -1.5345
 7443SOL    HW223930   1.532   4.384   7.054 -0.7574  1.6627  0.2082
 7444SOL     OW23931   6.295   1.048   1.547  0.3100  0.1066 -0.6323
 7444SOL    HW123932   6.317   0.968   1.491 -0.7799  0.1440 -1.1265
 7444SOL    HW223933   6.370   1.114   1.541  1.1739 -0.8056 -0.3111
 7445SOL     OW23934   4.919   3.048   3.642  0.5723  0.0717  0.2134
 7445SOL    HW123935   4.960   3.039   3.551 -1.4032  0.2982 -0.7447
 7445SOL    HW223936   4.821   3.032   3.637  0.3478  0.4240  2.2707
 7446SOL     OW23937   6.883   0.419   2.792  0.3782  0.3406  0.0975
 7446SOL    HW123938   6.792   0.377   2.792 -0.5945  2.3443 -0.8503
 7446SOL    HW223939   6.897   0.470   2.877  0.0244  1.2178 -0.3628
 7447SOL     OW23940   6.605   5.159   3.413 -0.1893 -0.1885  0.1305
 7447SOL    HW123941   6.521   5.213   3.410 -0.6210 -0.8337  0.5160
 7447SOL    HW223942   6.590   5.070   3.370  0.7287  0.2568 -1.1857
 7448SOL     OW23943   2.359   2.079   4.066 -0.7147  0.2305  0.2401
 7448SOL    HW123944   2.321   2.078   3.973 -1.1882 -2.1845  0.3881
 7448SOL    HW223945   2.299   2.131   4.126 -0.5065  1.6575 -0.7405
 7449SOL     OW23946   6.615   2.882   5.164  0.1300  0.3163  0.2555
 7449SOL    HW123947   6.600   2.785   5.145 -1.1577  0.2253  1.5678
 7449SOL    HW223948   6.692   2.892   5.228  0.8281  0.2417 -0.5555
 7450SOL     OW23949   4.719   6.920   0.597 -0.1055 -0.0823 -0.2192
 7450SOL    HW123950   4.735   6.902   0.694  0.5953 -0.6631 -0.4251
 7450SOL    HW223951   4.743   6.838   0.545  0.0965  0.4265 -0.9341
 7451SOL     OW23952   2.002   0.478   3.022 -0.0765 -0.7225  0.3401
 7451SOL    HW123953   1.910   0.437   3.021 -0.3078 -0.2294 -0.8397
 7451SOL    HW223954   2.069   0.408   3.045 -0.6884 -1.2204  0.6677
 7452SOL     OW23955   0.632   2.465   4.848 -0.0053 -0.1123  0.5337
 7452SOL    HW123956   0.539   2.494   4.869  0.1083  1.6733 -1.1334
 7452SOL    HW223957   0.668   2.410   4.923 -2.4249 -0.9406  1.1554
 7453SOL     OW23958   5.110   3.228   4.106  0.2521  0.3965  0.1205
 7453SOL    HW123959   5.025   3.263   4.067  0.2190  1.5562  1.1859
 7453SOL    HW223960   5.088   3.157   4.173  0.0758  0.9624  0.6782
 7454SOL     OW23961   5.016   4.733   4.443 -0.4638  0.5342  0.0066
 7454SOL    HW123962   5.046   4.674   4.368 -1.2604 -1.1489  0.9578
 7454SOL    HW223963   5.056   4.824   4.432  1.3678 -0.3560 -1.1287
 7455SOL     OW23964   6.705   2.411   3.204  0.1438 -0.5420 -0.0517
 7455SOL    HW123965   6.674   2.505   3.221  0.4004 -0.4847  0.1141
 7455SOL    HW223966   6.747   2.375   3.287 -0.4543 -1.0047  0.0543
 7456SOL     OW23967   1.520   0.619   1.404 -0.3180  0.5774  0.8647
 7456SOL    HW123968   1.423   0.635   1.423 -0.6573 -1.8241  1.5418
 7456SOL    HW223969   1.550   0.537   1.454  1.6126  0.2570 -0.7115
 7457SOL     OW23970   1.706   2.490   2.814  0.3088  0.2319 -0.3998
 7457SOL    HW123971   1.699   2.545   2.897  0.7599  0.6246 -0.6180
 7457SOL    HW223972   1.770   2.414   2.829 -0.4631 -0.3662 -0.0352
 7458SOL     OW23973   2.930   4.606   2.294  0.2974  0.2968  0.2499
 7458SOL    HW123974   2.969   4.687   2.337 -0.1327  1.3060 -1.1902
 7458SOL    HW223975   2.831   4.607   2.305  0.2014  0.4668 -0.5779
 7459SOL     OW23976   0.548   0.684   3.802  0.0215  0.3675 -0.6397
 7459SOL    HW123977   0.476   0.748   3.831 -1.6050 -2.2267  1.5338
 7459SOL    HW223978   0.529   0.652   3.709 -0.7403  0.9009 -0.6752
 7460SOL     OW23979   5.369   6.673   3.561  0.2276 -0.5068  0.4148
 7460SOL    HW123980   5.438   6.739   3.590 -1.2196  1.2472  0.0652
 7460SOL    HW223981   5.410   6.605   3.500  1.7313  0.1324  0.6815
 7461SOL     OW23982   3.051   4.334   6.537  0.5554 -0.2052 -0.4895
 7461SOL    HW123983   3.089   4.283   6.461  0.0173  0.1564 -1.0071
 7461SOL    HW223984   3.006   4.417   6.503 -0.0161 -0.2290  0.1802
 7462SOL     OW23985   3.195   6.460   5.432  0.3362 -0.5410  0.1405
 7462SOL    HW123986   3.282   6.502   5.406  0.5822 -1.4177 -0.4796
 7462SOL    HW223987   3.155   6.412   5.354  0.2261 -1.7399  0.8992
 7463SOL     OW23988   1.506   4.740   2.947 -0.8062 -0.2670 -0.7341
 7463SOL    HW123989   1.529   4.760   2.852 -2.7990  0.6027 -1.0774
 7463SOL    HW223990   1.543   4.813   3.006 -1.4955  0.4123 -1.1203
 7464SOL     OW23991   3.385   6.080   1.118  0.4502 -0.3111  0.0281
 7464SOL    HW123992   3.345   6.162   1.160 -1.8999 -0.7926 -1.0880
 7464SOL    HW223993   3.338   6.061   1.031  2.4611 -1.5959 -0.8503
 7465SOL     OW23994   6.010   5.529   3.391 -0.1831  0.0881 -0.0112
 7465SOL    HW123995   5.925   5.490   3.427 -2.5474  4.8534  0.4196
 7465SOL    HW223996   6.085   5.510   3.454 -1.8317 -0.8673  1.7761
 7466SOL     OW23997   2.337   3.383   2.864  0.3168  0.1177 -0.2535
 7466SOL    HW123998   2.407   3.317   2.891  0.9564  0.6565 -0.5599
 7466SOL    HW223999   2.381   3.464   2.823 -0.3658  1.2096  1.0704
 7467SOL     OW24000   6.640   4.734   1.798  0.1158  0.4714 -0.2411
 7467SOL    HW124001   6.635   4.689   1.709 -1.0864 -1.2419  0.6366
 7467SOL    HW224002   6.550   4.731   1.842  0.8927  0.4784  1.4103
 7468SOL     OW24003   6.856   5.336   3.573 -0.0186  0.0768  0.4719
 7468SOL    HW124004   6.786   5.274   3.609  1.8234 -1.7873  1.0346
 7468SOL    HW224005   6.913   5.288   3.507 -1.1166  2.4591 -2.4307
 7469SOL     OW24006   4.327   4.453   5.317  0.1625  0.6097 -0.3362
 7469SOL    HW124007   4.369   4.364   5.332  0.7127  0.9558  0.2135
 7469SOL    HW224008   4.292   4.489   5.404 -1.9602  0.0052 -0.8702
 7470SOL     OW24009   1.833   1.943   1.208  0.0586  0.3397 -0.6529
 7470SOL    HW124010   1.802   1.872   1.271 -0.7292  0.8482 -0.4544
 7470SOL    HW224011   1.833   2.032   1.255  1.2073  0.4547 -0.8419
 7471SOL     OW24012   4.343   0.828   1.498 -0.0459 -0.2313 -0.2654
 7471SOL    HW124013   4.311   0.821   1.403 -0.0432 -0.2729 -0.2634
 7471SOL    HW224014   4.271   0.870   1.554 -0.2804 -0.7399 -0.1729
 7472SOL     OW24015   4.652   0.089   3.531 -0.1968 -0.0841  0.4049
 7472SOL    HW124016   4.693   0.082   3.622 -1.9259 -1.7584  1.1469
 7472SOL    HW224017   4.592   0.169   3.528  1.8999  1.5394 -0.2168
 7473SOL     OW24018   3.703   4.191   0.971 -0.1004 -0.3224  0.5104
 7473SOL    HW124019   3.651   4.255   0.915  0.3999 -1.3784 -1.2260
 7473SOL    HW224020   3.642   4.150   1.040 -1.9093 -2.1658 -1.9975
 7474SOL     OW24021   6.176   4.712   5.048 -0.2949  0.2850 -0.2540
 7474SOL    HW124022   6.216   4.620   5.053 -3.8201 -1.4594 -1.1410
 7474SOL    HW224023   6.184   4.756   5.138  0.0650 -1.5437  0.6766
 7475SOL     OW24024   1.536   1.005   1.787 -0.1687 -0.0045  0.1275
 7475SOL    HW124025   1.548   0.921   1.734 -0.0231 -0.4954  0.9229
 7475SOL    HW224026   1.442   1.038   1.774 -0.4239 -0.6342  0.2924
 7476SOL     OW24027   4.113   5.830   3.948 -0.5080  0.1373 -0.3066
 7476SOL    HW124028   4.051   5.856   4.021  0.5701  2.0941 -0.0312
 7476SOL    HW224029   4.063   5.778   3.879 -2.4735  1.7060 -0.1433
 7477SOL     OW24030   2.522   3.827   0.862 -0.3829 -0.9628  0.1189
 7477SOL    HW124031   2.597   3.761   0.868 -1.5642 -2.2418  1.5578
 7477SOL    HW224032   2.449   3.790   0.805 -1.5394 -1.4384  1.8470
 7478SOL     OW24033   6.862   4.078   4.564 -0.8539  0.6941  0.1328
 7478SOL    HW124034   6.838   4.093   4.660  1.7698  1.1564  0.8050
 7478SOL    HW224035   6.895   4.164   4.525  3.5716 -0.5314  0.6328
 7479SOL     OW24036   0.810   3.559   6.696  0.3148 -0.3786  0.6041
 7479SOL    HW124037   0.762   3.484   6.743  1.5217 -1.1484  0.6458
 7479SOL    HW224038   0.749   3.637   6.688 -1.4243 -1.7487 -0.5009
 7480SOL     OW24039   1.171   1.567   1.294 -0.1341  0.4001 -0.8993
 7480SOL    HW124040   1.082   1.572   1.249 -1.2020  3.3900  1.2108
 7480SOL    HW224041   1.236   1.627   1.247 -1.0691  3.0041  0.8497
 7481SOL     OW24042   3.942   5.958   0.006 -0.0181 -0.4810 -0.3494
 7481SOL    HW124043   4.034   5.939  -0.029 -0.7240 -2.6833 -1.2291
 7481SOL    HW224044   3.923   5.896   0.083 -1.1118 -0.7497 -0.8262
 7482SOL     OW24045   4.095   5.024   4.862  0.1096  0.2180  0.2517
 7482SOL    HW124046   4.133   5.117   4.869 -0.6654  0.5204  0.4947
 7482SOL    HW224047   4.121   4.984   4.774  1.9886 -0.0351  0.8796
 7483SOL     OW24048   5.889   2.055   3.061 -0.4540 -0.0484 -0.0297
 7483SOL    HW124049   5.809   2.042   3.120 -1.0030 -1.4423 -1.0101
 7483SOL    HW224050   5.863   2.108   2.980 -0.1143  0.4389  0.1786
 7484SOL     OW24051   4.956   0.855   5.771 -0.0496  0.1101 -0.2537
 7484SOL    HW124052   4.992   0.794   5.700  1.5547  1.6525 -0.8422
 7484SOL    HW224053   5.011   0.939   5.774 -1.0741  0.7724  1.7465
 7485SOL     OW24054   2.900   6.162   6.335 -0.2793  0.2733 -0.7179
 7485SOL    HW124055   2.919   6.240   6.275 -0.4422 -0.6181 -1.9683
 7485SOL    HW224056   2.948   6.174   6.421 -1.0007  2.1723 -0.5375
 7486SOL     OW24057   0.717   1.551   6.375  0.6944 -0.0050 -0.3057
 7486SOL    HW124058   0.723   1.453   6.355 -0.3668 -0.2560  0.5115
 7486SOL    HW224059   0.791   1.599   6.328 -0.2368 -0.8618 -2.8235
 7487SOL     OW24060   6.861   2.913   4.878  0.2601 -0.5138  0.1218
 7487SOL    HW124061   6.872   2.835   4.940  1.7500  0.5174  1.2130
 7487SOL    HW224062   6.828   2.992   4.929 -2.3488 -0.6330 -1.1745
 7488SOL     OW24063   5.553   2.531   4.378 -0.0824  0.2889  0.0154
 7488SOL    HW124064   5.528   2.626   4.395 -1.6270 -0.1342  0.2358
 7488SOL    HW224065   5.559   2.515   4.279 -0.8995  0.3609 -0.0522
 7489SOL     OW24066   1.134   4.041   0.335  0.3188 -0.0426 -0.2345
 7489SOL    HW124067   1.114   4.006   0.243  0.0463  1.1905 -0.6710
 7489SOL    HW224068   1.219   4.001   0.369  1.1944  0.5459 -1.6305
 7490SOL     OW24069   4.480   4.283   5.899 -0.3526 -0.8425 -0.0206
 7490SOL    HW124070   4.450   4.281   5.995 -0.9097  2.4482 -0.0024
 7490SOL    HW224071   4.549   4.355   5.888 -2.4144  0.9132 -2.5706
 7491SOL     OW24072   4.997   1.388   3.633  0.0878  0.2677  0.3377
 7491SOL    HW124073   4.954   1.301   3.661  1.1607 -0.1118  0.8705
 7491SOL    HW224074   5.034   1.433   3.714  1.3319  0.2234 -0.1890
 7492SOL     OW24075   2.603   0.100   5.268 -0.3878  0.5126 -0.1375
 7492SOL    HW124076   2.611   0.138   5.177 -0.2521  1.5966  0.3156
 7492SOL    HW224077   2.534   0.150   5.320 -0.9162 -0.4951  0.1593
 7493SOL     OW24078   0.112   0.202   0.765 -0.1772  0.0134 -0.5296
 7493SOL    HW124079   0.055   0.283   0.751  0.2079  0.6825  1.4432
 7493SOL    HW224080   0.110   0.145   0.683 -0.5701  1.9429 -1.9230
 7494SOL     OW24081   3.073   4.702   1.895  0.0244 -0.5209  0.1710
 7494SOL    HW124082   3.034   4.658   1.976 -0.4604  0.8825  0.7202
 7494SOL    HW224083   3.093   4.798   1.915 -1.4820  0.2722 -1.8022
 7495SOL     OW24084   0.446   0.349   0.036 -0.1786 -0.1062 -1.1080
 7495SOL    HW124085   0.359   0.308   0.063 -0.8666  2.3751  0.7846
 7495SOL    HW224086   0.507   0.353   0.115  0.2341  1.5504 -1.4833
 7496SOL     OW24087   0.341   0.020   6.229 -0.0547 -0.0825 -0.3503
 7496SOL    HW124088   0.392   0.097   6.269  0.6004 -1.2019  1.0821
 7496SOL    HW224089   0.246   0.047   6.215  0.0487  0.8595  0.5895
 7497SOL     OW24090   6.460   3.918   1.570 -0.0940  0.2630 -0.1083
 7497SOL    HW124091   6.360   3.918   1.566 -0.0573  0.7526 -2.4804
 7497SOL    HW224092   6.494   4.009   1.546  0.9337  0.1128  0.7157
 7498SOL     OW24093   2.358   6.695   4.189 -0.1531 -0.3183  0.1020
 7498SOL    HW124094   2.359   6.696   4.089  3.7533  1.7371 -0.0165
 7498SOL    HW224095   2.372   6.601   4.222 -1.1504 -0.9657 -1.2031
 7499SOL     OW24096   3.282   5.517   5.609 -0.2770  0.2679  0.5503
 7499SOL    HW124097   3.366   5.490   5.564 -0.0506 -0.4945  1.3987
 7499SOL    HW224098   3.221   5.561   5.543  0.3010 -0.2277 -0.3315
 7500SOL     OW24099   6.684   1.318   0.967 -0.0907  0.2449  0.8903
 7500SOL    HW124100   6.746   1.382   0.922  0.1905  0.6088  1.7649
 7500SOL    HW224101   6.686   1.334   1.066  0.0613 -1.1664  1.1396
 7501SOL     OW24102   0.250   4.098   4.772 -0.4808 -0.7224  0.3587
 7501SOL    HW124103   0.273   4.016   4.718  0.8286  0.7441 -1.4548
 7501SOL    HW224104   0.197   4.071   4.852 -1.4009 -3.1846 -0.9523
 7502SOL     OW24105   1.820   5.053   4.211  0.0168  0.3574 -0.0555
 7502SOL    HW124106   1.820   5.135   4.270  1.8750 -0.5307  1.2947
 7502SOL    HW224107   1.911   5.041   4.171 -0.9885  0.4567 -2.5136
 7503SOL     OW24108   2.233   6.813   2.989  0.3547  0.1854  0.2717
 7503SOL    HW124109   2.238   6.766   3.077  0.3190  2.4879  1.5850
 7503SOL    HW224110   2.325   6.821   2.951  0.5811  0.4152  0.8392
 7504SOL     OW24111   1.775   0.962   6.987 -0.0094  0.5341  0.2964
 7504SOL    HW124112   1.775   0.934   6.891  2.3350  0.0907  0.3670
 7504SOL    HW224113   1.698   0.918   7.035 -0.5527 -0.1169 -1.1193
 7505SOL     OW24114   1.271   5.788   5.900  0.1253 -0.8680 -0.1909
 7505SOL    HW124115   1.315   5.840   5.826 -0.0967  0.4730  0.6059
 7505SOL    HW224116   1.201   5.843   5.943  0.6179 -1.4271  1.3943
 7506SOL     OW24117   2.749   6.869   3.835 -0.1301 -0.6923  0.7231
 7506SOL    HW124118   2.686   6.946   3.841 -0.6258 -0.8239 -1.6412
 7506SOL    HW224119   2.736   6.823   3.747 -0.4024 -3.9792  2.3435
 7507SOL     OW24120   3.879   5.184   6.170  0.3911  0.5158  0.1385
 7507SOL    HW124121   3.902   5.108   6.109 -1.4406  0.2377 -0.2830
 7507SOL    HW224122   3.827   5.253   6.119 -1.2806  0.2269  1.3674
 7508SOL     OW24123   3.593   0.515   5.150  0.7832  0.0661 -0.5875
 7508SOL    HW124124   3.580   0.585   5.080 -0.7898  0.6739  0.2695
 7508SOL    HW224125   3.585   0.556   5.241  1.9098 -0.8696 -0.0376
 7509SOL     OW24126   5.794   5.958   4.407  0.2211 -0.3550  0.1981
 7509SOL    HW124127   5.830   6.021   4.475 -1.2784  0.2253  0.4865
 7509SOL    HW224128   5.776   6.006   4.321  2.5074 -1.1652 -0.8244
 7510SOL     OW24129   1.402   1.221   3.990  0.3871 -0.8004  0.0602
 7510SOL    HW124130   1.492   1.242   4.028  0.1908  0.2129 -0.0174
 7510SOL    HW224131   1.407   1.137   3.936  1.3925 -0.4821 -0.3468
 7511SOL     OW24132   3.097   5.322   4.032 -0.0512 -0.6021 -0.0457
 7511SOL    HW124133   2.998   5.330   4.044  0.0070  0.9405 -0.3812
 7511SOL    HW224134   3.143   5.331   4.121 -0.1622 -0.1361 -0.0326
 7512SOL     OW24135   5.687   2.045   1.627  0.5222 -0.0542 -0.6339
 7512SOL    HW124136   5.757   2.047   1.555  1.3363 -2.6219 -0.0194
 7512SOL    HW224137   5.732   2.042   1.716 -0.4718  1.5799 -0.0224
 7513SOL     OW24138   3.530   3.849   4.026 -0.0789  0.1175 -0.3071
 7513SOL    HW124139   3.472   3.929   4.043 -0.3754  0.0453 -0.9286
 7513SOL    HW224140   3.477   3.778   3.979  0.4924  0.0446 -0.8699
 7514SOL     OW24141   1.631   0.227   6.615 -0.3367 -0.4145  0.4350
 7514SOL    HW124142   1.705   0.211   6.680  0.5271 -1.3676 -0.7310
 7514SOL    HW224143   1.543   0.222   6.662  0.3195  1.8682  2.0799
 7515SOL     OW24144   4.523   1.319   4.166 -0.7272 -0.2186  0.0071
 7515SOL    HW124145   4.464   1.351   4.240 -0.2718 -1.8816  1.1492
 7515SOL    HW224146   4.613   1.361   4.173 -0.7509 -0.2162  0.2759
 7516SOL     OW24147   2.218   5.589   2.949  0.0402  0.1370 -0.1043
 7516SOL    HW124148   2.123   5.580   2.918 -0.8656  0.8531  2.2056
 7516SOL    HW224149   2.241   5.512   3.009  0.4930  0.5631  0.2795
 7517SOL     OW24150   2.505   1.730   5.032 -0.3449 -0.0230 -0.2038
 7517SOL    HW124151   2.506   1.827   5.006 -3.4947  0.2401  0.3264
 7517SOL    HW224152   2.562   1.717   5.113 -2.5370  2.1573  1.8501
 7518SOL     OW24153   3.482   0.029   2.344 -0.8356 -0.0395  0.2797
 7518SOL    HW124154   3.457   0.006   2.438  0.8188 -0.5472  0.6287
 7518SOL    HW224155   3.551   0.102   2.345 -0.6146 -0.2257 -0.5222
 7519SOL     OW24156   2.111   4.771   0.836  0.0977 -0.2166  0.0703
 7519SOL    HW124157   2.187   4.705   0.828  0.6344  0.5234 -1.2079
 7519SOL    HW224158   2.143   4.861   0.809 -1.0242  0.2902  0.4111
 7520SOL     OW24159   1.819   1.375   2.698  0.3812  0.2534 -0.3471
 7520SOL    HW124160   1.875   1.305   2.742 -0.3942  0.0801  0.3849
 7520SOL    HW224161   1.748   1.405   2.761 -0.8964 -0.1579 -1.5503
 7521SOL     OW24162   5.445   5.220   0.743  0.2409 -0.1804  0.2877
 7521SOL    HW124163   5.515   5.260   0.684 -0.2297 -1.3210 -1.1238
 7521SOL    HW224164   5.432   5.124   0.717 -1.8375  0.0057  0.5055
 7522SOL     OW24165   5.437   4.972   2.521 -0.2650  0.0860  0.4066
 7522SOL    HW124166   5.414   4.880   2.552 -0.5467 -0.1105 -0.3528
 7522SOL    HW224167   5.469   4.968   2.426  2.3570  0.4307  1.2022
 7523SOL     OW24168   0.260   6.797   6.752 -0.7453  0.1200  0.5481
 7523SOL    HW124169   0.360   6.799   6.754 -0.7289 -0.6716  1.4130
 7523SOL    HW224170   0.230   6.762   6.664 -0.2138 -0.8974  0.7527
 7524SOL     OW24171   6.453   2.665   2.000 -0.1301  0.3495  0.5211
 7524SOL    HW124172   6.497   2.729   2.063 -0.8540  0.0288  1.3670
 7524SOL    HW224173   6.515   2.589   1.980  0.0667  0.3997  0.9372
 7525SOL     OW24174   0.096   5.215   3.434 -0.5993  0.4941 -0.3143
 7525SOL    HW124175   0.163   5.159   3.386  1.2264 -0.9514  3.4630
 7525SOL    HW224176   0.113   5.311   3.414  0.2363 -0.0045 -2.2056
 7526SOL     OW24177   6.752   4.099   5.359  0.8117  0.3680 -0.3985
 7526SOL    HW124178   6.840   4.147   5.365  1.1951 -0.2957 -0.6002
 7526SOL    HW224179   6.714   4.111   5.268 -0.0934  1.9857  0.1581
 7527SOL     OW24180   1.856   3.761   3.918  0.5146 -0.2942  0.0302
 7527SOL    HW124181   1.764   3.731   3.942  0.4293 -0.9274 -1.0694
 7527SOL    HW224182   1.922   3.690   3.943  0.5992 -0.2633 -0.1031
 7528SOL     OW24183   1.243   6.356   3.859 -0.2288 -0.3421  0.4636
 7528SOL    HW124184   1.314   6.376   3.926  0.6972  0.5117 -0.7135
 7528SOL    HW224185   1.232   6.435   3.798 -1.7734 -0.6987  0.2552
 7529SOL     OW24186   5.317   3.539   6.455  0.1174 -0.4332 -0.1246
 7529SOL    HW124187   5.370   3.456   6.436 -0.3332 -0.7368 -0.0658
 7529SOL    HW224188   5.228   3.514   6.492 -0.3981  0.0389 -1.0061
 7530SOL     OW24189   0.338   6.094   5.173  0.0055 -0.1681  0.3519
 7530SOL    HW124190   0.416   6.049   5.131  0.3177  1.3722 -0.7800
 7530SOL    HW224191   0.255   6.069   5.123  0.1860  0.5160 -0.3112
 7531SOL     OW24192   5.668   3.401   2.309 -0.1827  0.0706 -0.0144
 7531SOL    HW124193   5.637   3.420   2.402  2.8719 -0.8754  1.3128
 7531SOL    HW224194   5.626   3.316   2.276 -1.4696  0.5377  0.3542
 7532SOL     OW24195   0.507   2.039   1.062 -0.2528  0.5745  0.0803
 7532SOL    HW124196   0.458   2.096   0.996 -0.9775 -0.2058 -0.0797
 7532SOL    HW224197   0.456   2.034   1.147 -0.3153 -0.0085  0.0145
 7533SOL     OW24198   2.559   6.059   1.623  0.0507  0.2717  0.1466
 7533SOL    HW124199   2.590   5.994   1.553  0.0076 -0.1215  0.4889
 7533SOL    HW224200   2.569   6.152   1.588  1.0704  0.1318  0.0243
 7534SOL     OW24201   1.724   6.279   6.363  0.0452  0.0695  0.2149
 7534SOL    HW124202   1.806   6.330   6.387  0.7303 -1.0666  0.3486
 7534SOL    HW224203   1.729   6.186   6.401 -1.2812 -0.0362  0.1932
 7535SOL     OW24204   4.665   3.641   1.631 -0.6733  0.4013 -0.2326
 7535SOL    HW124205   4.721   3.705   1.577 -1.1260  0.3700 -0.7532
 7535SOL    HW224206   4.588   3.691   1.671 -1.7541 -0.0144 -1.6787
 7536SOL     OW24207   5.766   4.023   6.106  0.4243  0.1264  0.0010
 7536SOL    HW124208   5.816   3.967   6.171  2.3636  2.9311  1.0939
 7536SOL    HW224209   5.673   4.040   6.140  0.6279 -0.3929  0.8208
 7537SOL     OW24210   6.323   6.046   5.324  0.0053 -0.3402 -0.2805
 7537SOL    HW124211   6.405   6.025   5.270  1.4260  1.5226  1.0393
 7537SOL    HW224212   6.251   6.080   5.263  1.5157  1.5842 -1.1023
 7538SOL     OW24213   4.083   4.490   2.109  0.2771  0.5443  0.0150
 7538SOL    HW124214   4.003   4.536   2.148 -0.1132  0.1300 -0.2812
 7538SOL    HW224215   4.087   4.396   2.142  0.6063  0.5436 -0.0220
 7539SOL     OW24216   2.564   6.293   1.513  0.6254 -0.4460 -0.1843
 7539SOL    HW124217   2.480   6.283   1.460 -0.2733 -1.4091  1.3410
 7539SOL    HW224218   2.622   6.363   1.471 -0.7484 -0.0332 -1.4883
 7540SOL     OW24219   3.658   1.743   1.798 -0.1473  0.1156  0.1866
 7540SOL    HW124220   3.667   1.646   1.821  1.0829  0.3103  0.6074
 7540SOL    HW224221   3.719   1.765   1.723 -0.4411  0.5685  0.0769
 7541SOL     OW24222   0.982   1.580   3.319  0.6140  0.5326  0.0677
 7541SOL    HW124223   0.890   1.542   3.331  0.2268  0.8608 -1.6758
 7541SOL    HW224224   0.988   1.667   3.369 -1.1601  2.1868 -2.3560
 7542SOL     OW24225   4.081   2.167   0.376 -0.0513  0.3928 -0.0547
 7542SOL    HW124226   4.009   2.150   0.309 -0.3060  0.0033  0.3145
 7542SOL    HW224227   4.158   2.105   0.358 -0.2918 -0.0042  0.2636
 7543SOL     OW24228   0.135   0.516   5.536  0.2354 -0.0143 -0.5793
 7543SOL    HW124229   0.055   0.523   5.596  1.0589  1.8888  0.3773
 7543SOL    HW224230   0.151   0.419   5.513 -1.9886 -0.4820 -0.3750
 7544SOL     OW24231   0.518   5.078   5.106  0.0280  0.0428  0.5438
 7544SOL    HW124232   0.459   4.997   5.096  0.0104  0.1083  0.0891
 7544SOL    HW224233   0.460   5.159   5.116  0.0275  0.1657 -0.3677
 7545SOL     OW24234   6.052   6.734   6.426  0.5726  0.1956 -0.3171
 7545SOL    HW124235   5.987   6.667   6.390 -2.0168  2.8056 -0.8253
 7545SOL    HW224236   6.101   6.777   6.350  1.5100 -0.3807 -0.0546
 7546SOL     OW24237   5.392   4.019   3.457 -0.8712 -0.2678 -0.5532
 7546SOL    HW124238   5.321   4.085   3.478 -0.5855 -0.2936  0.5556
 7546SOL    HW224239   5.412   3.964   3.538 -0.9874 -1.6179 -1.3930
 7547SOL     OW24240   0.290   1.528   4.264 -0.0435  0.0636 -0.1606
 7547SOL    HW124241   0.384   1.509   4.236  0.1119  0.2452  0.2325
 7547SOL    HW224242   0.290   1.566   4.356 -0.5929 -1.0492  0.3183
 7548SOL     OW24243   1.627   4.283   1.583  0.0812  0.2344  0.3093
 7548SOL    HW124244   1.685   4.355   1.622  0.4215  0.2000 -0.1329
 7548SOL    HW224245   1.681   4.225   1.523  0.0460 -1.0147  1.4366
 7549SOL     OW24246   5.298   4.703   2.177 -0.0929 -0.7364 -0.2059
 7549SOL    HW124247   5.381   4.726   2.126 -0.8970 -0.0345 -1.2524
 7549SOL    HW224248   5.244   4.637   2.124 -0.6253 -0.5019  0.0409
 7550SOL     OW24249   0.857   4.761   0.382 -0.1613  0.1170  0.5640
 7550SOL    HW124250   0.951   4.778   0.413 -0.3760  0.8526  0.8332
 7550SOL    HW224251   0.816   4.848   0.354 -0.8260 -0.1780  0.6307
 7551SOL     OW24252   2.152   0.756   1.150 -0.2106  0.1909 -0.2078
 7551SOL    HW124253   2.129   0.826   1.082 -0.4544  0.8264  0.5001
 7551SOL    HW224254   2.117   0.667   1.120 -0.2466  0.4440 -0.9416
 7552SOL     OW24255   1.056   5.039   5.779  0.4584 -0.3169 -0.6040
 7552SOL    HW124256   1.103   5.102   5.841  0.4127 -1.6441  0.8443
 7552SOL    HW224257   1.097   5.046   5.688  1.6104  0.5277 -0.0564
 7553SOL     OW24258   0.750   3.662   0.822 -1.0389  0.3723 -0.1820
 7553SOL    HW124259   0.676   3.633   0.882  0.9207 -4.6787  0.2896
 7553SOL    HW224260   0.735   3.626   0.730 -0.7503  2.2893 -1.0356
 7554SOL     OW24261   5.053   2.303   5.889  0.3979  0.1173 -0.8271
 7554SOL    HW124262   5.051   2.259   5.799 -1.8763 -2.1515  0.1958
 7554SOL    HW224263   5.032   2.400   5.879  0.3762 -0.0387 -2.7466
 7555SOL     OW24264   1.819   0.502   0.689 -0.2430 -0.1287 -0.0283
 7555SOL    HW124265   1.821   0.513   0.590 -1.0670 -2.9999 -0.4437
 7555SOL    HW224266   1.912   0.510   0.725  0.1773  0.1489 -1.1236
 7556SOL     OW24267   4.486   3.266   1.047 -0.1507  0.3251 -0.1563
 7556SOL    HW124268   4.580   3.242   1.024  0.2328  0.5425  1.0756
 7556SOL    HW224269   4.438   3.300   0.966  1.3250  1.7967 -0.4633
 7557SOL     OW24270   6.289   6.119   3.050 -0.1863 -0.0447  0.0416
 7557SOL    HW124271   6.265   6.196   2.991  1.3885  0.9983  0.6658
 7557SOL    HW224272   6.208   6.086   3.097 -1.2131  0.0070 -1.6366
 7558SOL     OW24273   1.168   5.980   0.478  0.1227 -0.4418  0.3179
 7558SOL    HW124274   1.227   5.927   0.419  1.0474  0.9424 -0.0587
 7558SOL    HW224275   1.167   6.076   0.447  0.9478  0.4207  2.7165
 7559SOL     OW24276   0.022   4.492   5.737  0.5645 -0.3922  0.8839
 7559SOL    HW124277   0.030   4.393   5.725 -1.2050 -0.5349  0.6855
 7559SOL    HW224278  -0.030   4.512   5.819  4.1667  0.4907  3.1727
 7560SOL     OW24279   2.868   5.161   4.291 -0.1139 -0.1810  0.2144
 7560SOL    HW124280   2.835   5.079   4.245  0.5251  0.6522 -1.8566
 7560SOL    HW224281   2.792   5.207   4.336 -1.0695 -0.3206 -1.1809
 7561SOL     OW24282   2.240   6.059   2.793  0.3921  0.2377  0.0017
 7561SOL    HW124283   2.194   6.125   2.734  1.4518 -0.3699 -1.5552
 7561SOL    HW224284   2.172   5.999   2.835 -0.5672  2.0887  1.2531
 7562SOL     OW24285   0.476   5.303   3.706  0.1438  0.4975  0.7096
 7562SOL    HW124286   0.413   5.373   3.674  0.5481  0.0692 -1.1362
 7562SOL    HW224287   0.492   5.236   3.633  1.1150 -0.5638  1.8381
 7563SOL     OW24288   4.657   5.276   3.577 -0.2245 -0.5048 -0.4393
 7563SOL    HW124289   4.575   5.285   3.635 -0.7827  2.5393 -1.5151
 7563SOL    HW224290   4.629   5.272   3.481  0.8315 -1.4630 -0.7159
 7564SOL     OW24291   5.942   0.212   4.570  0.0026 -0.1495  0.3250
 7564SOL    HW124292   5.861   0.270   4.577 -0.7467 -0.8591 -1.7195
 7564SOL    HW224293   6.024   0.269   4.565 -0.4987  0.6253  0.7844
 7565SOL     OW24294   3.569   2.098   3.288  0.2038  0.3322 -0.2271
 7565SOL    HW124295   3.651   2.053   3.323  0.4977  0.0429 -1.2577
 7565SOL    HW224296   3.563   2.086   3.190 -1.7700 -0.7426 -0.0247
 7566SOL     OW24297   0.735   2.985   1.829 -0.2767  0.1240  0.0433
 7566SOL    HW124298   0.686   2.923   1.890 -2.0508  1.4943  0.0912
 7566SOL    HW224299   0.690   2.988   1.739  1.9950 -1.4730 -1.2508
 7567SOL     OW24300   6.815   2.884   5.350  0.3276 -0.4128 -0.0103
 7567SOL    HW124301   6.762   2.840   5.423 -1.5066  1.4818 -0.0884
 7567SOL    HW224302   6.893   2.827   5.326 -0.7528 -2.5734  1.2845
 7568SOL     OW24303   2.529   0.049   4.643 -0.0779  0.2996  0.2148
 7568SOL    HW124304   2.455   0.007   4.694  0.0578  0.3652  0.4720
 7568SOL    HW224305   2.496   0.079   4.554 -0.1808 -0.3180  0.0431
 7569SOL     OW24306   1.772   0.711   2.426  0.0623 -0.3481  0.0427
 7569SOL    HW124307   1.793   0.698   2.523  0.3209 -1.1402 -0.1062
 7569SOL    HW224308   1.682   0.754   2.416 -0.0221 -0.3837  0.6286
 7570SOL     OW24309   4.276   2.553   1.325 -0.1973 -0.4938 -0.1863
 7570SOL    HW124310   4.187   2.518   1.296 -0.1542 -1.9005  1.2094
 7570SOL    HW224311   4.349   2.494   1.289  0.1746  0.4870 -1.0875
 7571SOL     OW24312   6.362   1.180   4.465  0.1935  0.1972 -0.6990
 7571SOL    HW124313   6.364   1.256   4.530  0.1029  0.0987 -0.5808
 7571SOL    HW224314   6.406   1.100   4.505  1.2817  0.5094 -1.2413
 7572SOL     OW24315   6.154   4.583   2.337 -0.2175 -0.6573 -1.1859
 7572SOL    HW124316   6.145   4.498   2.389  0.3062  0.4257  0.7853
 7572SOL    HW224317   6.085   4.649   2.367  0.7204  0.3393 -1.1010
 7573SOL     OW24318   1.641   3.563   3.215 -0.7286  0.2080  0.5751
 7573SOL    HW124319   1.667   3.638   3.277  0.3526 -0.2123  0.6474
 7573SOL    HW224320   1.544   3.542   3.228 -1.2013  1.9438  0.1705
 7574SOL     OW24321   5.476   5.300   3.786 -0.3400  0.1646  0.2111
 7574SOL    HW124322   5.521   5.233   3.726  0.5424  0.1991  0.8184
 7574SOL    HW224323   5.397   5.339   3.738  1.0622  1.1360 -1.4498
 7575SOL     OW24324   3.464   5.439   6.653 -0.4694 -0.2207  0.5357
 7575SOL    HW124325   3.367   5.430   6.632  0.0355 -0.0059 -2.2731
 7575SOL    HW224326   3.512   5.356   6.626  0.3237  0.2167  0.5612
 7576SOL     OW24327   0.139   4.054   2.373 -0.0836  0.0100 -0.1170
 7576SOL    HW124328   0.169   4.069   2.468  1.0157 -0.7271 -0.3220
 7576SOL    HW224329   0.049   4.095   2.359  0.8906  2.5258  0.4965
 7577SOL     OW24330   1.371   3.975   0.548  0.2496 -0.4074 -0.1179
 7577SOL    HW124331   1.403   4.010   0.636 -1.5093  0.2989  0.2902
 7577SOL    HW224332   1.411   4.030   0.475  0.1106  0.3594  0.3610
 7578SOL     OW24333   4.735   2.682   4.790  0.3901 -0.6140  0.4952
 7578SOL    HW124334   4.808   2.651   4.729  1.9077  1.9486  0.8488
 7578SOL    HW224335   4.773   2.701   4.880 -0.0776  3.0218  0.0697
 7579SOL     OW24336   0.721   0.509   2.258  0.7139  0.7532  0.0139
 7579SOL    HW124337   0.622   0.521   2.265  0.6495  0.0339  0.4255
 7579SOL    HW224338   0.741   0.429   2.202  1.0862  1.3785 -0.7621
 7580SOL     OW24339   1.096   6.161   5.496 -0.0853  0.0429  0.3280
 7580SOL    HW124340   1.177   6.167   5.437  0.7882 -2.0143  1.2469
 7580SOL    HW224341   1.020   6.209   5.452  1.0306  0.1525 -1.5969
 7581SOL     OW24342   0.510   6.108   1.946  0.1599 -0.5271  0.5424
 7581SOL    HW124343   0.542   6.180   2.008  0.2566  0.2629 -0.4129
 7581SOL    HW224344   0.487   6.148   1.857  0.1620 -1.6747  0.0144
 7582SOL     OW24345   6.722   3.429   1.757 -0.3611 -0.4600  0.0092
 7582SOL    HW124346   6.660   3.507   1.772 -1.0204 -0.9964  0.1216
 7582SOL    HW224347   6.737   3.383   1.845  1.2415  0.4178  0.2383
 7583SOL     OW24348   0.660   3.521   4.292 -0.0549  0.1389  0.3634
 7583SOL    HW124349   0.571   3.486   4.320  0.2708 -0.6426  0.4460
 7583SOL    HW224350   0.648   3.608   4.245 -1.0407 -0.8454 -1.2826
 7584SOL     OW24351   4.098   6.587   1.043  0.2391  0.1107 -0.3840
 7584SOL    HW124352   4.065   6.648   0.971 -0.9043  1.5779  1.2843
 7584SOL    HW224353   4.039   6.507   1.049  0.6147 -0.2581 -1.3355
 7585SOL     OW24354   6.255   0.619   6.738 -0.3583  0.1933 -0.1034
 7585SOL    HW124355   6.196   0.699   6.739 -1.0568 -0.3142 -0.2454
 7585SOL    HW224356   6.248   0.572   6.825 -3.0720 -1.9369 -1.3212
 7586SOL     OW24357   6.118   2.387   3.917 -0.1541  0.3203  0.4150
 7586SOL    HW124358   6.078   2.466   3.964  2.2344  1.0384  1.4010
 7586SOL    HW224359   6.160   2.417   3.832 -0.7572 -0.2129 -0.0715
 7587SOL     OW24360   5.086   4.058   1.964  0.4826  0.1207 -0.2299
 7587SOL    HW124361   5.084   3.961   1.940  1.0916  0.2741 -0.9247
 7587SOL    HW224362   5.134   4.069   2.051 -1.7447 -0.4367  1.1682
 7588SOL     OW24363   6.245   0.148   4.207  0.3801 -0.2219  0.6453
 7588SOL    HW124364   6.326   0.206   4.202  0.2795  0.0053  1.4942
 7588SOL    HW224365   6.273   0.052   4.205  0.6052 -0.1453  0.0675
 7589SOL     OW24366   4.354   6.189   5.012  0.0757 -0.7052  0.1530
 7589SOL    HW124367   4.287   6.118   5.034 -0.1299 -0.7216 -0.5268
 7589SOL    HW224368   4.352   6.259   5.084  0.3147 -1.3971  0.8569
 7590SOL     OW24369   2.340   1.692   6.497 -0.2318  0.2669  0.2418
 7590SOL    HW124370   2.355   1.607   6.548  0.8458  0.9813  1.1738
 7590SOL    HW224371   2.247   1.724   6.512 -0.8316 -1.0147 -0.5632
 7591SOL     OW24372   5.387   6.816   6.579 -0.1375  0.2362  0.1268
 7591SOL    HW124373   5.479   6.790   6.608 -0.8834 -0.9830  1.5053
 7591SOL    HW224374   5.320   6.759   6.626 -1.5784  0.5400 -1.4789
 7592SOL     OW24375   0.936   4.942   0.123 -0.7129  0.3199  0.4791
 7592SOL    HW124376   0.958   5.038   0.143 -1.3171  0.3818  0.8674
 7592SOL    HW224377   1.005   4.905   0.061  1.4270  0.0375  2.8649
 7593SOL     OW24378   4.542   6.263   2.917  0.0494 -0.5653  0.1041
 7593SOL    HW124379   4.638   6.246   2.940 -0.0634 -1.7705 -0.2203
 7593SOL    HW224380   4.536   6.309   2.828  0.3090 -1.9426 -0.6619
 7594SOL     OW24381   3.870   3.706   1.506 -0.2590 -0.0700  0.9633
 7594SOL    HW124382   3.866   3.726   1.408 -0.7153 -0.7393  0.8391
 7594SOL    HW224383   3.793   3.752   1.552 -0.8500 -0.8594  0.7933
 7595SOL     OW24384   4.133   6.807   2.532  0.2273 -0.0094 -0.1605
 7595SOL    HW124385   4.062   6.737   2.538  0.3589 -0.1747 -0.5034
 7595SOL    HW224386   4.223   6.765   2.541  0.2556  0.3223  1.2311
 7596SOL     OW24387   6.984   4.726   3.995 -0.0051  0.0157 -0.0686
 7596SOL    HW124388   7.058   4.659   4.001 -0.5664 -0.7265 -0.9496
 7596SOL    HW224389   6.918   4.695   3.926  1.7663  3.4713 -3.6786
 7597SOL     OW24390   0.970   6.895   4.930  0.6299 -0.1779  0.2345
 7597SOL    HW124391   1.007   6.880   4.839  1.0009 -0.9928  0.5062
 7597SOL    HW224392   0.960   6.993   4.947  0.8149 -0.0155 -0.5719
 7598SOL     OW24393   0.374   0.183   1.622 -0.0153 -0.3176 -0.4675
 7598SOL    HW124394   0.433   0.199   1.701 -0.0447  0.6514 -0.6291
 7598SOL    HW224395   0.320   0.100   1.637 -0.0957 -0.0961  0.5852
 7599SOL     OW24396   2.895   5.147   1.515  0.0184  0.4713  1.0252
 7599SOL    HW124397   2.807   5.113   1.547  0.6786 -0.7519  1.6174
 7599SOL    HW224398   2.952   5.070   1.487  0.6999  1.2846  0.0947
 7600SOL     OW24399   5.964   0.945   5.337 -0.3299  0.4544 -1.0479
 7600SOL    HW124400   6.004   1.020   5.390  0.7535 -0.3127 -0.7381
 7600SOL    HW224401   6.008   0.941   5.247 -0.7068  0.4647 -1.2358
 7601SOL     OW24402   6.757   2.247   4.264  0.4065 -0.0094  0.3764
 7601SOL    HW124403   6.703   2.188   4.324  2.3978 -0.5594  1.7299
 7601SOL    HW224404   6.773   2.335   4.309  0.3907  0.2458 -0.1167
 7602SOL     OW24405   0.768   2.741   0.979  0.3221  0.4774  0.0404
 7602SOL    HW124406   0.857   2.697   0.967  0.8579  1.3253  0.7141
 7602SOL    HW224407   0.772   2.834   0.942 -0.8662 -0.0872 -1.5913
 7603SOL     OW24408   6.185   1.181   0.927 -0.4800 -0.5338 -0.4442
 7603SOL    HW124409   6.172   1.206   1.023  1.0629  2.3052 -0.8755
 7603SOL    HW224410   6.095   1.177   0.881 -1.0681  0.8805  0.5203
 7604SOL     OW24411   5.468   5.830   4.728 -0.7200 -0.2098 -0.2647
 7604SOL    HW124412   5.429   5.763   4.792 -1.3301  1.3741  1.0988
 7604SOL    HW224413   5.480   5.918   4.775  0.1834  0.6204 -1.9600
 7605SOL     OW24414   5.303   3.306   2.919  0.2868 -0.2939 -0.2956
 7605SOL    HW124415   5.304   3.209   2.897  0.7514 -0.7021  1.3559
 7605SOL    HW224416   5.272   3.318   3.014  0.7546  1.1123 -0.3023
 7606SOL     OW24417   0.542   3.688   6.250 -0.0925 -0.0511 -0.2287
 7606SOL    HW124418   0.568   3.592   6.237  1.1504  0.4168 -1.5117
 7606SOL    HW224419   0.615   3.735   6.299  0.3622  0.7250 -1.6140
 7607SOL     OW24420   2.162   3.535   5.770 -0.1213 -0.6510 -0.2018
 7607SOL    HW124421   2.099   3.469   5.810  1.0570 -1.8406 -0.2394
 7607SOL    HW224422   2.236   3.553   5.834 -0.0491  0.0846 -0.4853
 7608SOL     OW24423   3.453   2.889   3.783  0.3170 -0.2168 -0.0320
 7608SOL    HW124424   3.406   2.882   3.870 -1.5138  0.3912 -0.9146
 7608SOL    HW224425   3.396   2.851   3.711  1.6381 -0.3973 -1.0314
 7609SOL     OW24426   0.549   5.109   3.499 -0.1048  0.1590 -0.1045
 7609SOL    HW124427   0.550   5.012   3.521 -0.0496 -0.0028 -0.8065
 7609SOL    HW224428   0.555   5.121   3.400 -1.1846  0.8433 -0.1069
 7610SOL     OW24429   1.043   2.088   2.742  0.3668 -0.3921  0.0850
 7610SOL    HW124430   1.037   2.128   2.833  1.0365  0.1465 -0.1017
 7610SOL    HW224431   1.133   2.108   2.702 -0.2514  0.2104 -1.0679
 7611SOL     OW24432   6.173   6.613   1.883  0.7589 -1.0730  0.2049
 7611SOL    HW124433   6.223   6.552   1.944  1.0455  0.8544  2.0038
 7611SOL    HW224434   6.075   6.595   1.890  0.6822 -0.1928  2.1419
 7612SOL     OW24435   3.916   5.649   3.698 -0.2703  0.1481 -0.0779
 7612SOL    HW124436   3.870   5.579   3.644 -1.4662  0.6209  0.3029
 7612SOL    HW224437   4.012   5.624   3.710 -0.4842 -0.9992 -0.6435
 7613SOL     OW24438   6.913   5.665   2.400 -0.4072 -0.3944  0.5231
 7613SOL    HW124439   6.873   5.574   2.387  1.2549 -1.1766  0.6393
 7613SOL    HW224440   6.991   5.676   2.339 -1.5077  1.5813 -0.6127
 7614SOL     OW24441   6.849   5.217   0.387  0.0846  0.3567 -0.2015
 7614SOL    HW124442   6.939   5.216   0.343  0.3252  1.6362  0.2302
 7614SOL    HW224443   6.838   5.134   0.441  0.9393  0.1053 -0.3957
 7615SOL     OW24444   1.102   1.063   3.813  0.6784 -0.1804  0.2706
 7615SOL    HW124445   1.016   1.103   3.844  0.8401  0.0265  0.4505
 7615SOL    HW224446   1.158   1.134   3.769  0.2347 -0.5638 -0.9792
 7616SOL     OW24447   4.751   6.585   0.440  0.0720  0.2837 -0.7364
 7616SOL    HW124448   4.825   6.601   0.505 -0.9708  1.9269  0.1247
 7616SOL    HW224449   4.739   6.665   0.381 -3.3023  1.7851  1.6155
 7617SOL     OW24450   2.841   4.421   0.244  0.0662  0.8516 -0.4446
 7617SOL    HW124451   2.856   4.329   0.281 -0.6859  0.7353 -0.3939
 7617SOL    HW224452   2.908   4.484   0.282 -0.6661  0.7353  1.1553
 7618SOL     OW24453   4.265   4.810   6.879  0.2601  0.2350 -0.2618
 7618SOL    HW124454   4.256   4.799   6.780  2.1341  0.9617 -0.5462
 7618SOL    HW224455   4.194   4.756   6.925 -0.5399 -0.2418 -1.9828
 7619SOL     OW24456   4.647   1.859   3.332 -0.1861 -0.0060 -0.2997
 7619SOL    HW124457   4.618   1.823   3.420  1.4302  1.2516  0.7980
 7619SOL    HW224458   4.713   1.933   3.346 -0.4094  0.6991 -2.5521
 7620SOL     OW24459   4.498   2.676   1.966  0.1243 -0.1198 -0.2125
 7620SOL    HW124460   4.458   2.666   1.875  2.6338 -0.1393 -1.4059
 7620SOL    HW224461   4.479   2.767   2.001 -1.4982 -0.3606 -0.3921
 7621SOL     OW24462   5.918   0.097   0.354  0.5280 -0.1532 -0.0039
 7621SOL    HW124463   5.892   0.145   0.438 -1.5383 -0.8029 -0.2166
 7621SOL    HW224464   6.015   0.114   0.334  0.4994  1.8243  1.2864
 7622SOL     OW24465   6.540   0.626   3.863  0.0749 -0.3972 -0.4952
 7622SOL    HW124466   6.511   0.704   3.806  0.1008 -1.6391 -2.2856
 7622SOL    HW224467   6.492   0.630   3.951 -0.8170  0.9921 -1.0033
 7623SOL     OW24468   0.007   5.412   5.391 -0.2541 -0.1795 -0.7632
 7623SOL    HW124469  -0.029   5.355   5.465 -0.2109  0.1146 -0.5109
 7623SOL    HW224470   0.053   5.492   5.430 -1.2999  0.6175 -1.1222
 7624SOL     OW24471   2.234   5.685   5.034  0.0560 -0.1330  0.3267
 7624SOL    HW124472   2.274   5.774   5.056 -1.3037  0.3935  0.7291
 7624SOL    HW224473   2.135   5.694   5.024 -0.2961 -1.8407  1.7551
 7625SOL     OW24474   6.634   1.904   4.863 -0.1271 -0.0799 -0.2700
 7625SOL    HW124475   6.568   1.978   4.875 -0.1362 -0.1485  0.1281
 7625SOL    HW224476   6.727   1.939   4.874 -0.1991 -0.5870  2.6290
 7626SOL     OW24477   4.859   2.148   4.844 -0.5075  0.2877  0.2766
 7626SOL    HW124478   4.874   2.133   4.942 -3.7491 -0.5467  0.7787
 7626SOL    HW224479   4.878   2.064   4.794 -0.9812  0.0225  0.5320
 7627SOL     OW24480   0.243   6.661   0.635  0.6347  0.2762  0.0117
 7627SOL    HW124481   0.294   6.747   0.637 -0.0474  0.7465 -1.4265
 7627SOL    HW224482   0.145   6.681   0.630  0.3418 -0.6144  1.5258
 7628SOL     OW24483   6.230   4.232   5.220 -0.2836  0.2300 -0.0252
 7628SOL    HW124484   6.237   4.247   5.319  0.7373 -0.9286  0.1184
 7628SOL    HW224485   6.134   4.224   5.194 -0.6170  1.5659  0.6878
 7629SOL     OW24486   5.780   5.173   4.916 -0.2205 -0.2589 -0.0421
 7629SOL    HW124487   5.851   5.213   4.974 -0.6960  0.9752 -0.2586
 7629SOL    HW224488   5.690   5.198   4.952 -0.5539  1.8292 -2.0326
 7630SOL     OW24489   4.278   0.530   2.735 -0.3046  0.1706 -0.6978
 7630SOL    HW124490   4.181   0.544   2.752 -0.3534 -0.0484 -0.7901
 7630SOL    HW224491   4.290   0.454   2.671 -0.0393 -0.3353 -0.0544
 7631SOL     OW24492   3.761   1.197   5.175 -0.7137 -0.1767 -0.6621
 7631SOL    HW124493   3.801   1.253   5.247 -1.3315 -1.1048  0.4235
 7631SOL    HW224494   3.748   1.253   5.093  1.3655  0.5342 -0.5703
 7632SOL     OW24495   3.405   5.190   4.506 -0.3743 -0.0826 -0.0962
 7632SOL    HW124496   3.466   5.194   4.428 -0.1462 -2.4203 -0.1075
 7632SOL    HW224497   3.310   5.204   4.476 -0.2335 -0.4100 -0.6869
 7633SOL     OW24498   0.737   6.893   4.305  0.3773 -0.0525  0.4551
 7633SOL    HW124499   0.826   6.868   4.268  0.4443 -1.2272  1.3575
 7633SOL    HW224500   0.745   6.978   4.358  0.8648  0.0609  0.1977
 7634SOL     OW24501   5.047   6.766   1.821 -0.5592  0.1563 -0.2544
 7634SOL    HW124502   5.142   6.739   1.836 -0.3579 -0.1377 -1.9190
 7634SOL    HW224503   4.989   6.722   1.891  0.6954  1.8949  2.0148
 7635SOL     OW24504   3.316   1.906   2.417 -1.1654 -0.0593 -0.0752
 7635SOL    HW124505   3.355   1.970   2.483  1.3074  0.1467 -1.6417
 7635SOL    HW224506   3.302   1.952   2.330 -2.0455 -0.9588 -0.4265
 7636SOL     OW24507   5.743   5.417   3.442  0.3193 -0.1707 -0.2538
 7636SOL    HW124508   5.782   5.357   3.513  0.2953  1.6345  1.3501
 7636SOL    HW224509   5.687   5.487   3.485  0.7420  1.3261 -2.0451
 7637SOL     OW24510   3.317   3.155   4.920  0.7182  0.1925 -0.2991
 7637SOL    HW124511   3.237   3.193   4.966 -0.1251  1.1961 -2.4751
 7637SOL    HW224512   3.348   3.073   4.969 -1.8500 -0.4322  0.4166
 7638SOL     OW24513   3.773   5.969   5.282  0.4841  0.0251  0.4100
 7638SOL    HW124514   3.848   5.923   5.236  1.9940 -0.3599  3.0330
 7638SOL    HW224515   3.804   6.058   5.316 -1.0621  1.0355 -0.6821
 7639SOL     OW24516   0.979   1.305   6.193 -0.0963 -0.3793  0.3243
 7639SOL    HW124517   0.998   1.225   6.137  1.5683  1.1576 -1.4307
 7639SOL    HW224518   1.061   1.362   6.199 -1.3654  1.4676  1.1037
 7640SOL     OW24519   3.765   0.872   0.834 -0.4963  0.3924  0.3071
 7640SOL    HW124520   3.746   0.947   0.898  1.9133  0.1999  1.3330
 7640SOL    HW224521   3.773   0.908   0.741 -0.8190  1.1688  0.5734
 7641SOL     OW24522   1.277   6.659   0.432  0.1231 -0.1404  0.4273
 7641SOL    HW124523   1.255   6.578   0.376 -1.4979  1.6257 -1.6800
 7641SOL    HW224524   1.237   6.740   0.390  4.7818  2.4536  0.3290
 7642SOL     OW24525   5.230   5.589   1.392  0.3633  0.3586 -0.1926
 7642SOL    HW124526   5.166   5.665   1.401 -0.7542 -0.5414 -0.4291
 7642SOL    HW224527   5.195   5.509   1.440  2.2556  0.3977  1.3749
 7643SOL     OW24528   5.688   2.295   5.950  0.2977 -0.2331 -0.2573
 7643SOL    HW124529   5.787   2.284   5.935  0.9422  1.6061  1.9892
 7643SOL    HW224530   5.672   2.375   6.007 -2.3821 -1.5694  1.0604
 7644SOL     OW24531   2.384   5.074   0.229  0.0451 -0.6156 -0.1291
 7644SOL    HW124532   2.360   5.054   0.134  1.2512 -2.0874 -0.1450
 7644SOL    HW224533   2.395   5.173   0.240  2.2709 -0.5523 -2.1263
 7645SOL     OW24534   4.589   2.802   1.303  0.2684  0.0783 -0.2750
 7645SOL    HW124535   4.518   2.863   1.339  0.7647  0.7431 -0.4061
 7645SOL    HW224536   4.651   2.854   1.244  0.0782 -0.7790 -1.2578
 7646SOL     OW24537   5.329   6.042   5.254  0.3494 -0.3759  0.2428
 7646SOL    HW124538   5.242   6.009   5.218  0.9225 -3.2270  1.1967
 7646SOL    HW224539   5.313   6.097   5.336 -0.5774 -0.6082  0.2316
 7647SOL     OW24540   3.486   4.345   6.110 -0.0016 -0.3517 -0.3749
 7647SOL    HW124541   3.574   4.327   6.152 -0.3963 -2.4950 -0.3956
 7647SOL    HW224542   3.498   4.358   6.011  0.4970  1.3991 -0.1252
 7648SOL     OW24543   4.378   1.003   0.530 -0.2303 -0.5898  0.1518
 7648SOL    HW124544   4.346   0.946   0.454  0.1356 -1.9964  1.0103
 7648SOL    HW224545   4.478   1.013   0.524 -0.2714 -0.2002  0.1184
 7649SOL     OW24546   2.808   1.440   0.788  0.0044  0.6478 -0.4508
 7649SOL    HW124547   2.849   1.351   0.768  0.2166  1.0938 -2.1686
 7649SOL    HW224548   2.807   1.455   0.887  1.3703 -0.5909 -0.2191
 7650SOL     OW24549   3.135   3.784   5.375 -0.1852  0.6321 -0.1542
 7650SOL    HW124550   3.158   3.688   5.359  0.1181  0.5835  0.5436
 7650SOL    HW224551   3.139   3.834   5.289 -1.4884 -0.2119 -0.7420
 7651SOL     OW24552   3.370   2.516   1.037 -0.1031  0.4396 -0.4037
 7651SOL    HW124553   3.333   2.444   1.095  2.1818  0.1424  0.7919
 7651SOL    HW224554   3.462   2.491   1.006 -0.1393  1.8695 -1.8005
 7652SOL     OW24555   4.186   1.580   2.456 -0.3697 -0.5167  0.7324
 7652SOL    HW124556   4.251   1.520   2.409 -0.4650  0.8650 -1.3185
 7652SOL    HW224557   4.198   1.573   2.555  1.0807 -2.2502  0.4720
 7653SOL     OW24558   5.528   3.092   4.581 -0.1035  0.3157  0.0711
 7653SOL    HW124559   5.525   3.004   4.629 -0.1874  0.9695  1.2986
 7653SOL    HW224560   5.622   3.113   4.555 -0.3104 -1.0354 -1.9952
 7654SOL     OW24561   1.451   2.990   2.690 -0.9079 -0.5037  0.0178
 7654SOL    HW124562   1.531   3.051   2.693 -1.7546  0.5906  1.5076
 7654SOL    HW224563   1.387   3.022   2.621 -0.0063 -1.5365 -1.3728
 7655SOL     OW24564   1.251   3.386   1.126 -0.5115 -0.2282 -0.2697
 7655SOL    HW124565   1.282   3.481   1.121 -1.4628  0.1034 -0.1546
 7655SOL    HW224566   1.156   3.380   1.094 -0.1958 -1.2857 -1.0637
 7656SOL     OW24567   6.138   4.693   3.403 -0.5762 -0.7092  0.2884
 7656SOL    HW124568   6.079   4.746   3.464  0.9297 -0.5907  1.6906
 7656SOL    HW224569   6.083   4.660   3.326 -2.0859  0.8407  0.6114
 7657SOL     OW24570   0.488   3.307   6.551 -0.0870 -0.2198  0.8331
 7657SOL    HW124571   0.524   3.340   6.639  3.2437 -0.9211 -0.1294
 7657SOL    HW224572   0.429   3.228   6.566 -0.6456  0.4759  2.4947
 7658SOL     OW24573   4.911   4.126   1.128 -0.0508  0.1354  0.3382
 7658SOL    HW124574   4.938   4.223   1.128 -1.7145  0.6296  0.3152
 7658SOL    HW224575   4.902   4.095   1.034 -0.9901  0.4131  0.3265
 7659SOL     OW24576   6.538   0.786   5.217  0.5711  0.2294 -0.2629
 7659SOL    HW124577   6.506   0.842   5.140 -1.7742 -2.2819 -1.3282
 7659SOL    HW224578   6.618   0.734   5.189  0.1070 -0.1947 -0.8469
 7660SOL     OW24579   5.963   5.078   6.116 -0.7610  0.1626  0.1149
 7660SOL    HW124580   5.970   5.032   6.205 -0.3636 -0.7437 -0.3675
 7660SOL    HW224581   5.984   5.175   6.128  3.5954 -0.6068  0.4257
 7661SOL     OW24582   1.673   0.969   1.445  0.4689  0.0818 -0.4504
 7661SOL    HW124583   1.635   0.893   1.497 -0.8773 -1.0396 -2.8958
 7661SOL    HW224584   1.598   1.026   1.410  1.3105  0.8061 -1.1282
 7662SOL     OW24585   5.510   4.969   5.102 -0.4649  0.3966 -0.0448
 7662SOL    HW124586   5.530   4.928   5.013  1.7405  0.8257  0.2024
 7662SOL    HW224587   5.510   5.069   5.093 -1.7705  0.4384  0.1681
 7663SOL     OW24588   3.881   0.215   5.528 -0.7724  0.2550  0.1864
 7663SOL    HW124589   3.953   0.148   5.549 -2.1991 -0.9258  1.5956
 7663SOL    HW224590   3.837   0.191   5.441 -0.5721 -0.0177  0.1581
 7664SOL     OW24591   6.249   4.615   6.615  0.2096  0.0831 -0.3301
 7664SOL    HW124592   6.267   4.517   6.606  1.6444  0.1824  1.0054
 7664SOL    HW224593   6.321   4.666   6.569  0.4233  0.4983  0.4445
 7665SOL     OW24594   5.895   6.647   4.807 -1.1350 -0.2135  0.0798
 7665SOL    HW124595   5.944   6.690   4.730 -1.3716 -0.3670 -0.1579
 7665SOL    HW224596   5.957   6.638   4.885 -0.2074 -2.1162 -0.8109
 7666SOL     OW24597   2.442   2.224   0.433 -0.5073  1.1176  0.2429
 7666SOL    HW124598   2.415   2.296   0.369 -0.7746 -0.2857 -1.2819
 7666SOL    HW224599   2.526   2.180   0.401 -1.3835 -0.5094  0.0851
 7667SOL     OW24600   3.847   3.904   3.306  0.0265  0.4139  0.0003
 7667SOL    HW124601   3.832   3.805   3.308 -0.2133  0.4525  0.2657
 7667SOL    HW224602   3.759   3.950   3.296 -0.0537  0.6448  1.4579
 7668SOL     OW24603   1.783   5.213   5.848  0.1190 -0.8069 -0.4291
 7668SOL    HW124604   1.813   5.234   5.755 -1.5511 -0.1270 -0.8525
 7668SOL    HW224605   1.855   5.237   5.913  0.9903 -0.5194 -1.4805
 7669SOL     OW24606   3.445   5.697   2.220  0.0611 -0.5807 -0.5013
 7669SOL    HW124607   3.471   5.747   2.303  0.2843  0.3039 -1.0922
 7669SOL    HW224608   3.489   5.607   2.221 -1.3300 -1.3156  1.1736
 7670SOL     OW24609   3.052   0.286   4.903 -0.0725 -0.4261  0.1064
 7670SOL    HW124610   3.058   0.187   4.908 -1.1682 -0.5111 -0.0499
 7670SOL    HW224611   2.961   0.313   4.872 -0.1033  0.6612  1.0551
 7671SOL     OW24612   1.676   2.116   5.491 -0.9733  0.1521  0.0184
 7671SOL    HW124613   1.673   2.212   5.520 -0.4788 -0.2204  1.3453
 7671SOL    HW224614   1.718   2.110   5.401 -0.3973  1.1206  0.2076
 7672SOL     OW24615   1.487   1.886   4.867  0.3098 -0.6183 -0.0253
 7672SOL    HW124616   1.502   1.790   4.845  0.3372 -0.6106 -0.0401
 7672SOL    HW224617   1.400   1.916   4.826  0.4115 -0.5760 -0.2127
 7673SOL     OW24618   4.420   5.059   1.901  0.1258  0.1223  0.3606
 7673SOL    HW124619   4.393   4.989   1.836 -1.0441 -0.4687  1.4332
 7673SOL    HW224620   4.353   5.064   1.975  0.2102  2.3339  0.3640
 7674SOL     OW24621   6.533   5.476   5.175 -0.3862  0.4145 -0.5410
 7674SOL    HW124622   6.586   5.438   5.100  1.3794 -2.0023  1.7154
 7674SOL    HW224623   6.464   5.410   5.204  0.1549  0.4743  1.0244
 7675SOL     OW24624   4.777   6.325   2.584  0.2493 -0.5849 -0.0028
 7675SOL    HW124625   4.855   6.347   2.525 -0.0970 -0.9633 -0.6122
 7675SOL    HW224626   4.803   6.252   2.647  0.8655  0.3562  0.8644
 7676SOL     OW24627   6.006   0.929   2.698 -0.5217  0.1228  0.2172
 7676SOL    HW124628   6.017   1.026   2.678 -0.6053  0.3422  1.1873
 7676SOL    HW224629   6.083   0.897   2.753 -0.3000 -0.4532 -0.4240
 7677SOL     OW24630   1.853   3.769   5.920 -0.5754  0.8118  0.3786
 7677SOL    HW124631   1.881   3.756   5.825 -0.8705  2.3655  0.0627
 7677SOL    HW224632   1.754   3.763   5.927 -0.5849  1.1104  0.5127
 7678SOL     OW24633   3.562   5.010   1.011 -0.4532  0.2427 -0.2774
 7678SOL    HW124634   3.593   5.103   1.026  0.4206  0.3589 -2.4434
 7678SOL    HW224635   3.633   4.958   0.964 -1.0387 -1.4406  0.6224
 7679SOL     OW24636   5.529   5.871   1.877  0.3982  0.6261 -0.0178
 7679SOL    HW124637   5.457   5.803   1.863  0.2083  0.9500 -0.6445
 7679SOL    HW224638   5.537   5.891   1.975 -0.3313  0.5467  0.0642
 7680SOL     OW24639   2.352   5.911   3.806  0.0804 -0.1767  0.0194
 7680SOL    HW124640   2.439   5.901   3.855  0.0928  1.0096  0.2684
 7680SOL    HW224641   2.277   5.896   3.870  0.1007  0.5783  0.2267
 7681SOL     OW24642   6.763   3.685   0.537  0.1480  0.3528 -0.0112
 7681SOL    HW124643   6.809   3.729   0.614 -0.4383  1.3136 -0.2002
 7681SOL    HW224644   6.819   3.693   0.455  0.1789  0.4726  0.0221
 7682SOL     OW24645   1.744   1.795   0.785 -0.0208  0.0405  0.2863
 7682SOL    HW124646   1.803   1.727   0.744 -0.3270 -2.5224  3.6406
 7682SOL    HW224647   1.649   1.765   0.780 -0.4539  1.4474 -0.3137
 7683SOL     OW24648   5.430   5.624   2.631 -0.1010 -0.1916 -0.5743
 7683SOL    HW124649   5.488   5.666   2.561  0.3957  1.7476  0.9182
 7683SOL    HW224650   5.479   5.549   2.674  0.2262 -0.3300 -1.1782
 7684SOL     OW24651   3.629   6.846   6.302  0.3706  0.4045 -0.0939
 7684SOL    HW124652   3.554   6.833   6.238  1.0661 -0.6768 -0.7151
 7684SOL    HW224653   3.602   6.913   6.372 -1.7272 -1.0662  0.5883
 7685SOL     OW24654   3.203   1.112   6.804  0.4216 -0.0730  0.3930
 7685SOL    HW124655   3.217   1.013   6.803 -0.6484 -0.2349  0.1906
 7685SOL    HW224656   3.124   1.135   6.747  0.5134  0.8790  0.6325
 7686SOL     OW24657   0.182   3.223   1.655 -0.0469 -0.2294 -0.5761
 7686SOL    HW124658   0.145   3.309   1.621 -0.5142 -0.3003 -0.2524
 7686SOL    HW224659   0.280   3.233   1.671 -0.3276  0.6260  0.6992
 7687SOL     OW24660   3.009   0.752   4.798  0.3507 -0.5318  0.3999
 7687SOL    HW124661   2.930   0.740   4.858 -0.1218 -0.4428 -0.1972
 7687SOL    HW224662   3.048   0.843   4.812 -0.3853 -0.1139 -0.1450
 7688SOL     OW24663   4.025   0.010   5.164  0.5906  0.0305  0.3788
 7688SOL    HW124664   3.944   0.044   5.211  0.2115 -0.4073  0.0533
 7688SOL    HW224665   4.096   0.080   5.165 -0.8918  1.7600 -2.1551
 7689SOL     OW24666   3.352   5.547   2.792 -0.6112  0.3352 -0.1730
 7689SOL    HW124667   3.391   5.639   2.792 -1.6459  0.8048 -0.9163
 7689SOL    HW224668   3.347   5.513   2.698 -0.6339 -0.3064  0.0527
 7690SOL     OW24669   2.114   5.757   5.817  0.1526  0.4625  0.1533
 7690SOL    HW124670   2.022   5.719   5.806  0.3452  0.3233 -1.1476
 7690SOL    HW224671   2.182   5.688   5.791  0.5675  1.0765 -0.4291
 7691SOL     OW24672   3.527   2.910   5.761  0.0253 -0.1845  0.1780
 7691SOL    HW124673   3.488   2.868   5.843  0.6590  0.5386  0.8677
 7691SOL    HW224674   3.485   2.999   5.746 -2.3262 -1.5600 -2.0763
 7692SOL     OW24675   3.097   6.161   2.272 -0.2108 -0.3450 -0.1631
 7692SOL    HW124676   3.108   6.172   2.173  0.4721 -0.0227 -0.0563
 7692SOL    HW224677   3.166   6.215   2.319  0.6728 -1.9542  0.4626
 7693SOL     OW24678   6.728   4.531   0.277 -0.1077  0.7396  0.2663
 7693SOL    HW124679   6.636   4.503   0.252  0.4567 -1.5004  0.5084
 7693SOL    HW224680   6.735   4.536   0.377 -0.0469  1.1938  0.2397
 7694SOL     OW24681   5.399   2.247   0.230  0.2863 -0.4288 -0.1294
 7694SOL    HW124682   5.490   2.263   0.192 -0.2060  2.2831 -0.3402
 7694SOL    HW224683   5.330   2.278   0.166 -0.7957 -1.7127  0.3721
 7695SOL     OW24684   6.273   6.793   4.928  0.7112 -0.0253 -0.1459
 7695SOL    HW124685   6.217   6.844   4.862 -1.2062  1.6940  2.6184
 7695SOL    HW224686   6.353   6.848   4.953 -0.3956  0.9081  1.4741
 7696SOL     OW24687   6.800   6.769   4.951 -0.5297 -0.8041  0.1607
 7696SOL    HW124688   6.787   6.699   4.881  0.7559 -1.8542  0.9126
 7696SOL    HW224689   6.812   6.858   4.908 -0.2731 -1.3442 -0.9222
 7697SOL     OW24690   6.204   1.223   5.029  0.6321 -0.3330 -0.2043
 7697SOL    HW124691   6.107   1.218   5.054  0.7396  0.3427  0.4101
 7697SOL    HW224692   6.260   1.206   5.110  1.0603 -1.9451 -0.8074
 7698SOL     OW24693   1.552   3.720   2.942  0.4227  0.5669  0.1326
 7698SOL    HW124694   1.539   3.806   2.990  0.5092  0.5102  0.2592
 7698SOL    HW224695   1.609   3.734   2.862  1.8234  0.3451  1.0501
 7699SOL     OW24696   6.304   1.312   3.779 -0.3074 -0.1257  0.1924
 7699SOL    HW124697   6.264   1.394   3.820  0.1049 -0.4912  1.3615
 7699SOL    HW224698   6.247   1.233   3.801 -1.0471 -0.0842 -1.4616
 7700SOL     OW24699   1.214   6.195   0.250 -0.1649  0.4502  0.5052
 7700SOL    HW124700   1.277   6.124   0.281 -0.8587 -0.2662  0.3172
 7700SOL    HW224701   1.220   6.204   0.150  1.8031  2.5004  0.7334
 7701SOL     OW24702   0.861   6.476   3.637  0.7456 -0.2532  0.1037
 7701SOL    HW124703   0.777   6.452   3.685  0.3935 -0.2403 -0.4897
 7701SOL    HW224704   0.921   6.397   3.632 -0.2917 -0.9846 -1.6065
 7702SOL     OW24705   1.045   0.738   4.553  0.8028  0.0555 -0.7254
 7702SOL    HW124706   1.032   0.833   4.582 -0.3764  0.2954 -1.9148
 7702SOL    HW224707   0.956   0.694   4.541  1.3303 -1.3630  0.2331
 7703SOL     OW24708   6.688   4.009   2.866 -0.2362 -1.0595 -0.1337
 7703SOL    HW124709   6.645   4.096   2.890  1.7820 -0.7144  2.6260
 7703SOL    HW224710   6.633   3.934   2.901 -0.5244 -0.8000 -0.0197
 7704SOL     OW24711   0.501   6.840   0.435  0.5074  0.5482  0.2882
 7704SOL    HW124712   0.595   6.851   0.402  0.6690 -0.4248  0.3915
 7704SOL    HW224713   0.471   6.746   0.419  0.7726 -0.1484  3.2842
 7705SOL     OW24714   5.380   0.180   6.648  0.2890 -0.8200 -0.2912
 7705SOL    HW124715   5.297   0.216   6.691  1.0586  0.3566  0.2886
 7705SOL    HW224716   5.363   0.088   6.613 -0.5281 -1.6961  2.1689
 7706SOL     OW24717   5.942   3.120   4.716  0.5032  0.0477 -0.0315
 7706SOL    HW124718   5.934   3.209   4.760  1.6565  0.2835 -0.2790
 7706SOL    HW224719   6.021   3.071   4.754 -0.4427 -1.1047  0.5067
 7707SOL     OW24720   1.989   6.384   0.272 -0.1301  0.5932 -0.0734
 7707SOL    HW124721   1.986   6.461   0.336  0.7612  0.7378 -0.1884
 7707SOL    HW224722   2.051   6.406   0.197 -0.4023  0.0281 -0.4737
 7708SOL     OW24723   6.454   1.729   3.076 -0.1777 -0.4791 -0.0796
 7708SOL    HW124724   6.383   1.790   3.111  1.7581  1.0246  1.4917
 7708SOL    HW224725   6.524   1.784   3.029  1.0468 -1.6120  0.3596
 7709SOL     OW24726   6.605   6.280   5.186 -0.3614 -0.6111 -0.3869
 7709SOL    HW124727   6.583   6.279   5.088  1.2600 -1.5297 -0.7845
 7709SOL    HW224728   6.635   6.189   5.214 -1.8104 -0.6291  1.2515
 7710SOL     OW24729   4.024   5.824   4.622  0.4737  0.1824  0.2402
 7710SOL    HW124730   3.995   5.918   4.639  0.2530  0.3442 -0.9750
 7710SOL    HW224731   4.051   5.814   4.526  0.0748 -1.1080  0.2495
 7711SOL     OW24732   2.246   4.111   3.489 -0.2191 -0.1645 -0.5534
 7711SOL    HW124733   2.263   4.014   3.506  0.4158  0.0724  0.2126
 7711SOL    HW224734   2.330   4.163   3.502 -0.4011  0.4183 -1.5790
 7712SOL     OW24735   4.902   6.078   4.082 -0.1112 -0.0088  0.1338
 7712SOL    HW124736   4.999   6.064   4.101  0.1077  1.7352  0.5154
 7712SOL    HW224737   4.848   6.023   4.145  0.5755 -2.2562 -1.1200
 7713SOL     OW24738   6.483   0.990   4.631 -0.4933  0.2096  0.3737
 7713SOL    HW124739   6.522   1.044   4.706  2.7182 -0.7864 -0.4411
 7713SOL    HW224740   6.434   0.911   4.669 -1.4069  1.2443  1.4313
 7714SOL     OW24741   3.432   3.991   5.834 -0.2202  0.4827 -0.2959
 7714SOL    HW124742   3.517   4.008   5.883  1.4744 -0.8874 -2.5290
 7714SOL    HW224743   3.453   3.966   5.739 -3.0052 -1.7357 -0.4564
 7715SOL     OW24744   2.080   0.403   0.999  0.0216 -0.6134 -0.4267
 7715SOL    HW124745   2.029   0.458   0.932 -1.3537  1.9217  2.4339
 7715SOL    HW224746   2.169   0.445   1.016 -0.5146  0.0834  0.8327
 7716SOL     OW24747   1.467   6.136   4.474  0.1778  0.0477 -0.5881
 7716SOL    HW124748   1.533   6.143   4.399  0.2056  1.0176 -0.4783
 7716SOL    HW224749   1.378   6.108   4.439  0.7184 -1.6739 -0.6943
 7717SOL     OW24750   3.799   3.025   6.986  0.2204  0.0189  0.3624
 7717SOL    HW124751   3.827   2.980   6.901  1.0895  0.3881  0.4453
 7717SOL    HW224752   3.707   3.063   6.975 -0.7527 -2.1534  0.4259
 7718SOL     OW24753   2.293   6.434   0.511  0.2874  0.3725 -0.1254
 7718SOL    HW124754   2.362   6.469   0.449 -0.6695  1.2565 -0.7238
 7718SOL    HW224755   2.230   6.508   0.536 -1.6391 -0.8204 -1.2008
 7719SOL     OW24756   5.783   0.038   3.840  0.2892  0.3113 -0.3009
 7719SOL    HW124757   5.738   0.127   3.837 -1.3391 -0.4937 -2.0088
 7719SOL    HW224758   5.719  -0.032   3.808  2.3476 -1.0964 -1.5593
 7720SOL     OW24759   5.373   3.454   0.839  0.6565 -0.1202  0.1327
 7720SOL    HW124760   5.391   3.370   0.788 -1.1076 -0.9489  0.8206
 7720SOL    HW224761   5.454   3.479   0.892  1.9081 -0.2314 -1.6298
 7721SOL     OW24762   3.914   6.265   3.503 -0.4845  0.0657 -0.2358
 7721SOL    HW124763   4.010   6.293   3.514 -0.0576 -1.4885  0.2591
 7721SOL    HW224764   3.877   6.237   3.591 -1.9390  2.1446 -0.1197
 7722SOL     OW24765   2.279   0.791   0.279  0.0026 -0.0531  0.1635
 7722SOL    HW124766   2.249   0.871   0.331 -0.4939 -0.3824  0.3857
 7722SOL    HW224767   2.300   0.717   0.342 -1.6998 -0.8354 -0.1334
 7723SOL     OW24768   2.840   0.948   5.850  0.1110  0.2539 -0.0607
 7723SOL    HW124769   2.776   0.991   5.914  0.4657  1.8463 -0.7426
 7723SOL    HW224770   2.894   0.879   5.899 -2.7215 -1.8833  0.3477
 7724SOL     OW24771   6.569   3.215   3.866 -0.3997 -0.0456  0.9477
 7724SOL    HW124772   6.567   3.304   3.819  1.3078 -0.9261 -0.9866
 7724SOL    HW224773   6.560   3.229   3.964 -0.2627  2.2582  0.6935
 7725SOL     OW24774   3.572   0.364   4.795 -0.5318  0.0994 -0.6196
 7725SOL    HW124775   3.504   0.411   4.739 -0.1830 -0.8742 -1.9195
 7725SOL    HW224776   3.661   0.408   4.785 -0.3894 -0.3002 -1.1449
 7726SOL     OW24777   0.560   6.037   2.524  0.0839 -0.1140  0.3515
 7726SOL    HW124778   0.517   5.947   2.526 -0.9332  0.2415 -2.2515
 7726SOL    HW224779   0.633   6.038   2.456 -0.0131  1.0691  0.2438
 7727SOL     OW24780   6.225   1.019   0.192 -0.3570  0.1054 -0.0776
 7727SOL    HW124781   6.164   1.045   0.117 -0.2275 -1.5449 -0.8088
 7727SOL    HW224782   6.178   0.954   0.252 -0.2976  1.0656  1.0479
 7728SOL     OW24783   2.427   6.054   0.553 -0.1164 -0.3687 -0.2516
 7728SOL    HW124784   2.335   6.088   0.570  0.3063  0.3270  0.7209
 7728SOL    HW224785   2.493   6.128   0.566  0.7589 -1.3677  1.2588
 7729SOL     OW24786   5.928   0.441   0.788 -0.5791 -0.3669  0.1048
 7729SOL    HW124787   5.949   0.528   0.833  0.2202 -0.3981 -0.1936
 7729SOL    HW224788   5.863   0.389   0.844  1.5828 -1.1167  2.0758
 7730SOL     OW24789   2.585   5.185   6.648  0.3611  0.4089 -0.5610
 7730SOL    HW124790   2.579   5.274   6.692  1.8102 -0.5750  1.8165
 7730SOL    HW224791   2.618   5.196   6.554 -1.5793  2.4811 -1.0757
 7731SOL     OW24792   0.949   5.741   1.699  0.5434  0.5282 -0.5632
 7731SOL    HW124793   1.041   5.713   1.670  0.1576  1.2674 -2.7005
 7731SOL    HW224794   0.938   5.723   1.796  2.9936  0.5474 -0.2125
 7732SOL     OW24795   6.511   0.428   3.185 -0.2153  0.6779 -0.9354
 7732SOL    HW124796   6.582   0.365   3.155 -0.4327 -0.4773  0.8418
 7732SOL    HW224797   6.547   0.486   3.259 -0.7192  1.0027 -0.9390
 7733SOL     OW24798   2.847   2.512   5.643  0.7668 -0.1984  0.6507
 7733SOL    HW124799   2.759   2.488   5.683 -0.4703  1.7802 -0.7216
 7733SOL    HW224800   2.894   2.428   5.614 -1.5164 -1.2334 -0.3132
 7734SOL     OW24801   2.463   3.273   3.782  0.3695  0.4136 -0.1791
 7734SOL    HW124802   2.382   3.327   3.765  0.3390  0.0225 -1.4118
 7734SOL    HW224803   2.445   3.206   3.854 -0.5003  0.1412 -0.6387
 7735SOL     OW24804   2.022   1.036   6.752  0.1219 -0.3182  0.6071
 7735SOL    HW124805   1.945   0.976   6.775 -0.2545  0.5754  1.8031
 7735SOL    HW224806   1.987   1.116   6.703  0.0612  0.6757  2.1772
 7736SOL     OW24807   3.987   2.005   1.171 -0.0593  0.7000  0.5068
 7736SOL    HW124808   4.041   2.083   1.203  1.7086 -1.3590  2.9000
 7736SOL    HW224809   4.045   1.941   1.121 -0.8112 -0.4087  1.0047
 7737SOL     OW24810   5.098   1.408   4.378 -0.5499  0.8235 -0.3653
 7737SOL    HW124811   5.091   1.464   4.460  0.5397  0.7344 -0.2029
 7737SOL    HW224812   5.110   1.467   4.298  0.0407  0.8493 -0.2602
 7738SOL     OW24813   6.783   6.577   2.382  0.0830 -0.1287 -0.4637
 7738SOL    HW124814   6.751   6.524   2.304 -0.4384  0.4757 -0.6788
 7738SOL    HW224815   6.781   6.520   2.464  0.7106 -0.7895 -0.8981
 7739SOL     OW24816   3.051   6.640   0.026  0.0906  0.6275  0.1876
 7739SOL    HW124817   2.964   6.688   0.033 -0.1799  0.4705 -1.6402
 7739SOL    HW224818   3.040   6.558  -0.030  1.2206  0.0645  0.7401
 7740SOL     OW24819   3.103   6.833   2.740 -0.4977  0.0656  0.0954
 7740SOL    HW124820   3.168   6.901   2.775  0.8507 -0.8382 -0.5771
 7740SOL    HW224821   3.031   6.880   2.689  0.5056  1.0044 -0.5191
 7741SOL     OW24822   6.244   3.045   4.148 -0.6285 -0.1042  0.0523
 7741SOL    HW124823   6.207   3.130   4.186 -1.8346 -0.6537  0.1656
 7741SOL    HW224824   6.217   2.968   4.205 -2.2879 -0.9276 -1.7127
 7742SOL     OW24825   3.567   6.259   5.433  0.6056  0.5589 -0.5568
 7742SOL    HW124826   3.473   6.238   5.405  0.6900 -0.7929  0.0877
 7742SOL    HW224827   3.620   6.286   5.353 -0.6162  2.6234 -0.7613
 7743SOL     OW24828   2.563   5.534   6.318  0.4212  0.5007  0.5571
 7743SOL    HW124829   2.642   5.592   6.299  0.4295  0.4205  0.3503
 7743SOL    HW224830   2.497   5.540   6.243  0.3969  0.2871  0.5605
 7744SOL     OW24831   5.478   2.753   0.779 -0.5257  1.4756 -0.3198
 7744SOL    HW124832   5.479   2.659   0.743 -2.3564  1.4128 -0.2922
 7744SOL    HW224833   5.566   2.773   0.822 -0.1392 -0.2676 -0.2243
 7745SOL     OW24834   2.688   3.160   1.251  0.0732  0.0600 -0.2391
 7745SOL    HW124835   2.783   3.183   1.272 -0.1933 -1.2027  2.9325
 7745SOL    HW224836   2.636   3.243   1.234  1.4001  0.8770 -0.4387
 7746SOL     OW24837   4.955   6.669   2.725  0.0264 -0.5103 -0.0332
 7746SOL    HW124838   5.030   6.609   2.752  3.2226  3.1862  0.1482
 7746SOL    HW224839   4.936   6.656   2.628  1.3049 -1.1136 -0.2242
 7747SOL     OW24840   0.632   5.873   5.544 -0.4765  0.8335  0.0130
 7747SOL    HW124841   0.545   5.843   5.582 -0.3224 -1.3052 -1.1633
 7747SOL    HW224842   0.617   5.949   5.481 -1.8526 -0.9026 -1.8616
 7748SOL     OW24843   3.760   4.202   5.375  0.1767  0.4225  0.6848
 7748SOL    HW124844   3.733   4.152   5.457  0.7933  0.8406  1.1564
 7748SOL    HW224845   3.834   4.266   5.398  0.1724  0.7375 -0.1394
 7749SOL     OW24846   0.514   0.430   2.813  0.0322 -0.0820 -0.5390
 7749SOL    HW124847   0.502   0.509   2.873  0.8114 -0.0179 -0.4672
 7749SOL    HW224848   0.431   0.417   2.759 -0.5540  0.0560  0.3116
 7750SOL     OW24849   2.466   3.648   3.801  0.5456 -0.0621  0.0658
 7750SOL    HW124850   2.415   3.598   3.730 -1.4851  0.4319  1.0996
 7750SOL    HW224851   2.538   3.589   3.837 -0.7710 -1.7049  0.1485
 7751SOL     OW24852   6.319   3.238   3.759 -0.1074 -0.3091 -0.4680
 7751SOL    HW124853   6.260   3.157   3.757  0.5314 -0.7769 -0.5653
 7751SOL    HW224854   6.415   3.210   3.768  0.1463  0.4219 -0.7793
 7752SOL     OW24855   1.955   4.647   5.176 -0.1091  0.3853 -0.8376
 7752SOL    HW124856   1.935   4.553   5.151 -0.2755  0.1021  0.2953
 7752SOL    HW224857   2.052   4.667   5.158  0.2240 -0.3892  0.0229
 7753SOL     OW24858   5.927   4.875   0.559 -0.4177  0.1534 -0.3280
 7753SOL    HW124859   5.942   4.950   0.495  0.1034  0.5241  0.2280
 7753SOL    HW224860   5.831   4.876   0.588  0.0954  2.0989  1.5161
 7754SOL     OW24861   0.094   6.786   6.448 -0.2770 -0.2050  0.0577
 7754SOL    HW124862   0.118   6.877   6.481 -1.4301  0.5186 -1.0058
 7754SOL    HW224863   0.004   6.761   6.483 -0.1299 -0.7921  0.0304
 7755SOL     OW24864   3.103   4.851   6.583 -0.8368 -0.0906 -0.2001
 7755SOL    HW124865   3.176   4.782   6.591  0.6120  1.3668 -0.4235
 7755SOL    HW224866   3.139   4.933   6.539 -2.4244  0.9836  0.4243
 7756SOL     OW24867   3.165   3.878   0.094  0.9315 -0.4007 -0.3683
 7756SOL    HW124868   3.101   3.818   0.143 -0.7945  0.4275 -1.5282
 7756SOL    HW224869   3.179   3.843   0.002  0.5296  0.5532 -0.7939
 7757SOL     OW24870   1.984   5.970   6.663 -0.0472 -0.7115  0.5709
 7757SOL    HW124871   2.014   5.977   6.758  0.0949  0.2704  0.4634
 7757SOL    HW224872   2.024   5.889   6.621  0.7121 -0.5913  1.0530
 7758SOL     OW24873   5.949   6.976   4.447  0.6539 -0.1809 -0.9380
 7758SOL    HW124874   5.966   6.987   4.349  2.6445 -1.6606 -0.8203
 7758SOL    HW224875   5.958   7.064   4.493  0.5602  0.3759 -1.9770
 7759SOL     OW24876   5.573   3.030   3.281  0.2651 -0.4473 -0.1439
 7759SOL    HW124877   5.582   3.029   3.181  0.3874 -1.9307 -0.1460
 7759SOL    HW224878   5.546   2.939   3.312 -0.2706  0.1371  1.1430
 7760SOL     OW24879   0.660   6.441   0.338 -0.5659  0.3543  0.0458
 7760SOL    HW124880   0.564   6.463   0.355 -0.9876 -0.7985 -0.7163
 7760SOL    HW224881   0.667   6.348   0.302  0.8711  0.3013  0.3906
 7761SOL     OW24882   5.253   3.355   0.530  0.1217  0.4268  0.0497
 7761SOL    HW124883   5.267   3.270   0.580 -1.0415  0.1787 -0.0008
 7761SOL    HW224884   5.201   3.336   0.447  0.6715  1.0594 -0.4506
 7762SOL     OW24885   5.848   6.132   3.462 -0.5160  0.2710 -0.2936
 7762SOL    HW124886   5.920   6.063   3.469 -0.4038  0.4080 -0.0956
 7762SOL    HW224887   5.767   6.092   3.419 -0.9425 -0.3612  1.0514
 7763SOL     OW24888   3.842   5.632   4.253  0.1543 -0.0860 -0.2728
 7763SOL    HW124889   3.782   5.557   4.226  0.6489 -0.5070 -0.2223
 7763SOL    HW224890   3.862   5.625   4.351 -1.6801  1.4662  0.2775
 7764SOL     OW24891   3.356   5.883   6.714 -0.7213  0.0232  0.0396
 7764SOL    HW124892   3.345   5.968   6.662 -0.7826 -0.1602 -0.2543
 7764SOL    HW224893   3.453   5.859   6.718 -0.6777  0.2615  0.3733
 7765SOL     OW24894   3.845   2.216   6.772  0.3967 -0.5088  0.1236
 7765SOL    HW124895   3.827   2.183   6.864 -0.3409 -0.4409  0.0112
 7765SOL    HW224896   3.837   2.316   6.771 -1.2389 -0.6051 -0.3346
 7766SOL     OW24897   5.787   6.247   1.832 -0.5535  0.5374 -0.0447
 7766SOL    HW124898   5.829   6.221   1.744 -0.6505 -0.2012  0.1216
 7766SOL    HW224899   5.807   6.176   1.900  2.1134  2.4886  1.3857
 7767SOL     OW24900   0.306   1.323   0.705  0.0852  0.0957 -0.2217
 7767SOL    HW124901   0.356   1.292   0.625 -1.3037  0.6265 -1.3304
 7767SOL    HW224902   0.327   1.420   0.721  0.7767 -0.1469  0.4021
 7768SOL     OW24903   1.457   5.903   2.027  0.1050 -0.7482 -0.2998
 7768SOL    HW124904   1.520   5.979   2.047 -0.7140  0.1420 -0.9824
 7768SOL    HW224905   1.509   5.828   1.986  0.6661  0.1992 -1.4056
 7769SOL     OW24906   1.668   0.078   6.970 -0.0089  0.4007  0.1793
 7769SOL    HW124907   1.573   0.098   6.995 -1.5333 -1.6075 -3.2037
 7769SOL    HW224908   1.682  -0.021   6.969  2.2569  0.6573  0.8376
 7770SOL     OW24909   6.758   4.536   6.407  0.3894  0.1704  0.4634
 7770SOL    HW124910   6.755   4.536   6.507 -1.0594  0.7920  0.4448
 7770SOL    HW224911   6.742   4.629   6.373 -0.1336 -0.2062 -0.3616
 7771SOL     OW24912   2.633   4.760   1.717 -0.6787 -0.6537 -0.2978
 7771SOL    HW124913   2.630   4.826   1.642 -1.1955  2.2751  2.0987
 7771SOL    HW224914   2.549   4.767   1.772  1.2240  0.2636  2.7644
 7772SOL     OW24915   5.235   5.614   5.413  0.8863  0.2152 -0.1032
 7772SOL    HW124916   5.208   5.709   5.430  0.8488  0.0204  1.0009
 7772SOL    HW224917   5.334   5.608   5.405  0.8895  0.3469 -0.1660
 7773SOL     OW24918   1.938   3.899   0.253  0.3567 -0.4124 -0.3912
 7773SOL    HW124919   1.847   3.860   0.264 -0.2649  0.8464 -0.9754
 7773SOL    HW224920   1.958   3.960   0.330 -0.8513  2.2660 -2.0909
 7774SOL     OW24921   0.540   2.599   4.321  0.0674  0.1525 -0.2630
 7774SOL    HW124922   0.587   2.687   4.324  0.7506 -0.1018 -2.1633
 7774SOL    HW224923   0.582   2.541   4.251 -1.6689 -0.9182 -0.4733
 7775SOL     OW24924   1.387   2.346   4.920  0.2466  0.0239 -0.7688
 7775SOL    HW124925   1.471   2.367   4.969 -0.2264 -2.4374  1.3315
 7775SOL    HW224926   1.324   2.423   4.927  1.2599  0.7923  0.1231
 7776SOL     OW24927   1.566   6.683   6.505 -0.4884 -0.3678 -0.2166
 7776SOL    HW124928   1.478   6.647   6.536 -0.9396  0.0107 -1.0248
 7776SOL    HW224929   1.607   6.738   6.578 -1.8058  1.0008 -0.4624
 7777SOL     OW24930   4.268   6.174   0.355  0.1179 -0.9922  0.3709
 7777SOL    HW124931   4.171   6.184   0.374  0.5362  0.8727  1.8277
 7777SOL    HW224932   4.299   6.249   0.296  0.8795 -0.9577  0.7962
 7778SOL     OW24933   0.783   3.707   1.112  0.3027  0.1080  0.0111
 7778SOL    HW124934   0.727   3.665   1.041 -0.5097  1.5243 -0.2300
 7778SOL    HW224935   0.876   3.672   1.107 -0.1046 -0.8866 -0.8100
 7779SOL     OW24936   6.817   4.684   6.132  0.1144  0.2507 -0.1453
 7779SOL    HW124937   6.728   4.655   6.099  0.7152  0.8456 -2.4751
 7779SOL    HW224938   6.886   4.617   6.105  0.3409 -0.6272  2.3317
 7780SOL     OW24939   5.383   3.646   2.044  0.1185  0.3818  0.2622
 7780SOL    HW124940   5.374   3.731   1.993  3.3810 -0.3062 -1.7940
 7780SOL    HW224941   5.351   3.569   1.988 -1.9885  0.0687  1.7619
 7781SOL     OW24942   2.039   6.190   6.082  0.4012  0.4420  0.0221
 7781SOL    HW124943   2.128   6.156   6.113  0.4757 -0.9949 -1.6615
 7781SOL    HW224944   1.967   6.126   6.109 -0.2651  1.8729  1.8802
 7782SOL     OW24945   2.711   6.524   1.412  0.4333 -0.1743  0.0519
 7782SOL    HW124946   2.773   6.501   1.337  0.0614  0.2953 -0.4143
 7782SOL    HW224947   2.757   6.586   1.476  0.3620  0.4088 -0.4470
 7783SOL     OW24948   6.949   1.846   2.226 -0.0528  0.0845 -0.4357
 7783SOL    HW124949   6.985   1.830   2.318 -1.1579  0.8476  0.1564
 7783SOL    HW224950   7.003   1.916   2.181  0.0619  0.2159 -0.0975
 7784SOL     OW24951   1.250   6.096   3.570  0.0808  0.1025  0.0735
 7784SOL    HW124952   1.188   6.161   3.615 -0.9886  0.3792 -1.6930
 7784SOL    HW224953   1.201   6.048   3.497  2.1850  1.1469 -2.1735
 7785SOL     OW24954   6.246   1.781   0.885 -0.8783  0.3268  0.3868
 7785SOL    HW124955   6.268   1.744   0.975  0.9516  0.1483 -0.0916
 7785SOL    HW224956   6.323   1.765   0.823 -0.3741  4.0133 -0.1331
 7786SOL     OW24957   4.626   1.631   0.375 -0.0744  0.5289  0.5053
 7786SOL    HW124958   4.537   1.671   0.393  0.4683  1.2915  1.6174
 7786SOL    HW224959   4.642   1.628   0.277 -1.6811 -0.4571  0.2324
 7787SOL     OW24960   4.279   4.765   4.959 -0.3575  0.1696 -1.0846
 7787SOL    HW124961   4.323   4.840   4.909  0.1418 -0.5319 -1.7202
 7787SOL    HW224962   4.182   4.787   4.973  0.1480  1.7169  0.3036
 7788SOL     OW24963   0.135   4.465   5.170  0.3024  0.4334  0.8372
 7788SOL    HW124964   0.181   4.490   5.085 -0.0163  0.6016  0.7114
 7788SOL    HW224965   0.166   4.524   5.244 -1.0592  1.7864  0.3723
 7789SOL     OW24966   1.146   5.410   6.452 -0.0506 -0.1674  0.1555
 7789SOL    HW124967   1.229   5.461   6.429 -0.7705  1.1636  0.3883
 7789SOL    HW224968   1.171   5.318   6.484  1.1715 -0.9610 -2.7316
 7790SOL     OW24969   1.847   4.410   5.073 -0.0953 -0.1975  0.2753
 7790SOL    HW124970   1.759   4.457   5.064  0.4337  0.4832 -1.9086
 7790SOL    HW224971   1.848   4.329   5.014  0.3225 -0.9545  1.2721
 7791SOL     OW24972   3.733   5.602   6.226 -0.0825 -0.0795 -0.2217
 7791SOL    HW124973   3.785   5.625   6.308 -1.9576 -0.9785  1.2972
 7791SOL    HW224974   3.712   5.685   6.175  0.6705  0.5370  0.4512
 7792SOL     OW24975   4.676   5.343   5.696  0.9242 -0.1881  0.0989
 7792SOL    HW124976   4.645   5.293   5.777  0.3333 -0.8520 -0.5204
 7792SOL    HW224977   4.634   5.433   5.693 -0.2585 -0.7405 -0.2587
 7793SOL     OW24978   1.328   4.148   3.464  0.5117 -0.0985 -0.6114
 7793SOL    HW124979   1.289   4.099   3.542  1.1439  0.7025  0.2295
 7793SOL    HW224980   1.264   4.144   3.387 -0.5425 -0.1279  0.2379
 7794SOL     OW24981   3.422   0.793   5.833  0.3937 -0.0108 -0.7541
 7794SOL    HW124982   3.340   0.778   5.778 -0.1767 -1.0416  0.3516
 7794SOL    HW224983   3.439   0.714   5.891  0.9070  1.0906  0.6581
 7795SOL     OW24984   2.307   5.697   2.463  0.5506  0.0595  0.0654
 7795SOL    HW124985   2.296   5.641   2.546 -0.9182 -0.4822 -0.4649
 7795SOL    HW224986   2.239   5.770   2.463  1.2830  0.7462 -0.1307
 7796SOL     OW24987   3.177   0.167   4.650  0.4258  0.2363 -0.1714
 7796SOL    HW124988   3.226   0.254   4.646 -0.8362  1.0065  0.5328
 7796SOL    HW224989   3.079   0.184   4.645  0.1054 -1.0667  1.1101
 7797SOL     OW24990   0.510   2.227   0.693  0.5959 -0.3268  0.7847
 7797SOL    HW124991   0.579   2.300   0.695 -1.4849  1.7839  0.1142
 7797SOL    HW224992   0.458   2.229   0.778 -1.5627  1.2138 -0.4818
 7798SOL     OW24993   1.988   5.096   0.060  0.3244  0.7278  0.2902
 7798SOL    HW124994   2.030   5.147  -0.016 -1.0807  0.8863 -0.4000
 7798SOL    HW224995   1.896   5.130   0.076 -0.1964 -0.7838  0.6412
 7799SOL     OW24996   2.787   5.828   6.484  0.3234  0.2468  0.0198
 7799SOL    HW124997   2.837   5.889   6.422  0.8567  0.2444  0.4421
 7799SOL    HW224998   2.850   5.789   6.550 -0.4523  1.2426  1.3830
 7800SOL     OW24999   0.771   5.285   0.554 -0.1754 -0.1311  0.5659
 7800SOL    HW125000   0.716   5.226   0.613  0.4662  0.4444  1.7695
 7800SOL    HW225001   0.868   5.271   0.574  0.0403  0.2866 -0.1551
 7801SOL     OW25002   6.339   4.351   1.113 -0.4491  0.0881  0.4694
 7801SOL    HW125003   6.304   4.260   1.137  1.8248 -1.1586 -0.6426
 7801SOL    HW225004   6.283   4.390   1.039 -0.8325 -0.8374  0.2556
 7802SOL     OW25005   6.994   6.282   5.109 -0.4864  0.0239  0.3917
 7802SOL    HW125006   7.067   6.333   5.063 -0.1808 -1.1410 -0.4692
 7802SOL    HW225007   6.966   6.330   5.192 -0.1524  1.5243 -0.3400
 7803SOL     OW25008   5.308   6.686   6.133  0.1367  0.3842  0.2118
 7803SOL    HW125009   5.394   6.636   6.128  1.1294  1.9285  1.2530
 7803SOL    HW225010   5.319   6.768   6.189 -2.0732  0.5016  0.5950
 7804SOL     OW25011   1.202   4.376   4.064 -0.4014 -0.2827 -0.8853
 7804SOL    HW125012   1.298   4.350   4.051 -0.6361 -0.2310 -3.3198
 7804SOL    HW225013   1.143   4.299   4.039 -1.0330 -0.4078  0.8518
 7805SOL     OW25014   6.533   4.364   3.649  0.4661 -0.2471  0.7309
 7805SOL    HW125015   6.604   4.298   3.672 -0.1159 -0.6544  1.3816
 7805SOL    HW225016   6.506   4.415   3.731 -0.2660 -0.3658  0.5693
 7806SOL     OW25017   3.450   4.772   1.295  0.0706  0.0652 -0.3386
 7806SOL    HW125018   3.487   4.861   1.268  0.1067 -0.3691 -1.7912
 7806SOL    HW225019   3.500   4.699   1.248 -0.5555 -0.6915  0.1316
 7807SOL     OW25020   1.150   6.953   3.435  0.3867 -0.2132  0.6815
 7807SOL    HW125021   1.207   6.902   3.370  0.3431  0.1165  0.3789
 7807SOL    HW225022   1.152   7.050   3.411 -1.9082 -0.4282 -0.5811
 7808SOL     OW25023   4.361   3.468   1.493  0.3764 -0.0646 -0.7679
 7808SOL    HW125024   4.263   3.487   1.503  0.1887 -1.1022 -0.5836
 7808SOL    HW225025   4.389   3.488   1.399  0.2807  1.4470 -0.5103
 7809SOL     OW25026   2.000   0.348   4.448  0.1214 -0.0887 -0.2098
 7809SOL    HW125027   2.086   0.347   4.498 -0.4484 -1.7795  0.8283
 7809SOL    HW225028   1.936   0.410   4.492 -0.7224 -2.3033  1.9306
 7810SOL     OW25029   3.858   6.366   6.343 -0.1635 -0.7032 -0.5974
 7810SOL    HW125030   3.949   6.383   6.382 -0.2648  0.0549 -0.6855
 7810SOL    HW225031   3.814   6.453   6.321 -1.3822 -1.0020  0.5122
 7811SOL     OW25032   5.033   5.007   4.757  0.0085 -0.0864 -0.2348
 7811SOL    HW125033   5.128   5.000   4.788  0.1943  0.0941 -0.7660
 7811SOL    HW225034   5.004   5.102   4.761  0.1865  0.0044 -1.0755
 7812SOL     OW25035   1.405   1.314   2.426  0.1782 -0.0840  0.6425
 7812SOL    HW125036   1.456   1.391   2.387 -0.7086  0.9697  1.5197
 7812SOL    HW225037   1.307   1.334   2.424  0.0579 -0.3314  2.6640
 7813SOL     OW25038   5.222   5.204   0.302 -0.2269 -0.0098 -0.4401
 7813SOL    HW125039   5.179   5.127   0.256 -2.3048  0.8646 -0.0966
 7813SOL    HW225040   5.152   5.273   0.324  1.2785  1.2209  0.7549
 7814SOL     OW25041   4.440   6.395   6.351  0.0099  0.0306  0.2734
 7814SOL    HW125042   4.448   6.297   6.364  2.0153  0.2628  1.1756
 7814SOL    HW225043   4.423   6.439   6.440 -0.1628  0.5488 -0.0109
 7815SOL     OW25044   2.695   3.320   5.779 -0.6083 -0.0584  0.3191
 7815SOL    HW125045   2.644   3.394   5.737  0.0100 -1.3357 -3.0251
 7815SOL    HW225046   2.778   3.356   5.821  0.8504  1.0539 -3.1913
 7816SOL     OW25047   5.234   1.327   6.799 -0.0672  0.2140 -0.6195
 7816SOL    HW125048   5.149   1.274   6.797 -0.3470  0.6678 -0.9117
 7816SOL    HW225049   5.213   1.425   6.804  0.4323  0.3449 -0.9045
 7817SOL     OW25050   0.710   2.965   6.083 -0.2182 -0.2578 -0.5395
 7817SOL    HW125051   0.746   3.050   6.045  0.4451 -0.9649 -1.5439
 7817SOL    HW225052   0.675   2.981   6.175 -0.3809  1.1571 -0.8335
 7818SOL     OW25053   1.707   4.367   5.754 -0.2370  0.7721  0.2718
 7818SOL    HW125054   1.746   4.420   5.830 -0.8122  1.8641 -0.1631
 7818SOL    HW225055   1.608   4.386   5.749  0.0872  2.2532 -1.8999
 7819SOL     OW25056   4.311   4.158   3.439  0.0228  0.0946  0.0659
 7819SOL    HW125057   4.225   4.181   3.395 -0.3857  0.8415  1.2019
 7819SOL    HW225058   4.376   4.233   3.425 -0.0220  0.2159  0.4938
 7820SOL     OW25059   4.110   1.714   5.750 -0.5906 -0.1289  0.2778
 7820SOL    HW125060   4.127   1.805   5.787 -0.7885 -0.4570  1.2178
 7820SOL    HW225061   4.152   1.645   5.810 -0.9133 -0.6858 -0.1219
 7821SOL     OW25062   4.473   6.136   3.804 -0.5277  0.6183  0.0895
 7821SOL    HW125063   4.380   6.101   3.814 -0.9184  1.1609 -1.3865
 7821SOL    HW225064   4.479   6.191   3.721  1.1895  0.3502 -0.0025
 7822SOL     OW25065   3.432   5.835   5.089  0.5287 -0.3286  0.2642
 7822SOL    HW125066   3.457   5.930   5.105  0.2108 -0.6594  3.3065
 7822SOL    HW225067   3.355   5.831   5.024  1.7746  1.2898 -1.4104
 7823SOL     OW25068   2.812   5.839   1.177 -0.7758 -0.9816 -0.4378
 7823SOL    HW125069   2.870   5.771   1.222 -0.2892 -0.1302  0.2565
 7823SOL    HW225070   2.771   5.799   1.095  2.0393 -1.1632 -1.8797
 7824SOL     OW25071   2.113   1.495   4.487  0.2047  0.1247  0.3901
 7824SOL    HW125072   2.191   1.523   4.432  0.5388  1.9983  1.7242
 7824SOL    HW225073   2.136   1.502   4.584 -1.5243  0.4400  0.8104
 7825SOL     OW25074   1.977   3.060   4.842 -0.1626 -0.4146 -0.2068
 7825SOL    HW125075   2.057   3.014   4.882 -0.6317  0.9523  2.5008
 7825SOL    HW225076   1.985   3.159   4.857 -2.6169 -0.2966  0.6445
 7826SOL     OW25077   5.200   5.933   1.294  0.1053  0.3814  0.5528
 7826SOL    HW125078   5.264   5.994   1.342 -0.9371  1.9480  0.0564
 7826SOL    HW225079   5.113   5.981   1.280 -0.2093 -0.6404 -1.3711
 7827SOL     OW25080   4.882   4.208   0.611  0.2359  0.9915 -0.2568
 7827SOL    HW125081   4.928   4.290   0.577 -0.0854  0.2370 -2.7252
 7827SOL    HW225082   4.800   4.190   0.556  0.3444 -1.0103  0.1405
 7828SOL     OW25083   5.601   3.996   0.246 -0.1714 -0.0933  0.2360
 7828SOL    HW125084   5.534   4.000   0.320  2.1017  1.0097  2.3557
 7828SOL    HW225085   5.592   4.076   0.188 -2.3775 -1.2617 -1.1955
 7829SOL     OW25086   4.581   3.716   1.339  0.4363 -0.6513 -0.6592
 7829SOL    HW125087   4.673   3.720   1.378  0.3285 -2.6239 -0.1231
 7829SOL    HW225088   4.514   3.710   1.413 -0.3400  2.4643 -0.9489
 7830SOL     OW25089   1.711   4.136   3.651  0.6557 -0.0056 -0.8144
 7830SOL    HW125090   1.680   4.044   3.625  0.9878 -0.1507 -0.6918
 7830SOL    HW225091   1.806   4.148   3.624  0.7932  0.0895 -0.2815
 7831SOL     OW25092   5.230   0.475   2.951  0.2092  0.0393 -0.1347
 7831SOL    HW125093   5.132   0.457   2.944  0.4795 -1.1237 -1.5108
 7831SOL    HW225094   5.275   0.397   2.994  0.8160 -0.5674 -1.7937
 7832SOL     OW25095   0.188   1.586   1.334  0.4096 -0.0650 -0.2429
 7832SOL    HW125096   0.143   1.508   1.290  0.1275 -0.2499  0.3695
 7832SOL    HW225097   0.211   1.654   1.264 -0.4368 -0.1565 -0.6303
 7833SOL     OW25098   4.705   3.014   5.137  0.1458  0.3326  0.9834
 7833SOL    HW125099   4.738   3.080   5.069  0.2715 -1.2866 -0.6000
 7833SOL    HW225100   4.607   2.998   5.122  0.4085 -0.8704  0.4029
 7834SOL     OW25101   2.863   6.768   4.055 -0.3926  1.1652 -0.6986
 7834SOL    HW125102   2.816   6.797   3.972 -0.1281  0.2159 -1.1966
 7834SOL    HW225103   2.959   6.797   4.050 -0.8340  2.8214  0.1718
 7835SOL     OW25104   2.384   2.464   2.385  0.6015  0.3600  0.7987
 7835SOL    HW125105   2.377   2.547   2.329  0.8211 -1.2852 -1.8345
 7835SOL    HW225106   2.473   2.421   2.370  1.0110  0.2618  3.1407
 7836SOL     OW25107   4.762   3.822   0.972  0.6013  0.3729 -0.1154
 7836SOL    HW125108   4.799   3.855   0.885  0.0028  2.4299  0.3731
 7836SOL    HW225109   4.833   3.774   1.022  1.2606  0.1288 -1.2515
 7837SOL     OW25110   1.814   3.262   2.874 -0.0295 -0.5728  0.4037
 7837SOL    HW125111   1.914   3.262   2.879  0.1154  0.0581 -1.7185
 7837SOL    HW225112   1.779   3.348   2.912  0.4569  0.4536 -1.3468
 7838SOL     OW25113   1.108   1.378   5.135 -0.6357 -0.0273 -0.1280
 7838SOL    HW125114   1.138   1.300   5.080 -0.7585  1.1773 -1.9790
 7838SOL    HW225115   1.176   1.451   5.129 -0.3552 -0.0665  1.8593
 7839SOL     OW25116   6.294   5.865   1.977 -0.7933  0.7656 -0.1688
 7839SOL    HW125117   6.294   5.835   2.072 -0.5223 -0.0080 -0.4055
 7839SOL    HW225118   6.219   5.930   1.963 -1.7214 -0.1679  0.2598
 7840SOL     OW25119   6.323   5.591   4.823  0.4800  0.4191 -0.2209
 7840SOL    HW125120   6.416   5.617   4.850  0.4675  1.5675 -1.1904
 7840SOL    HW225121   6.283   5.663   4.767 -1.3779  0.3913  0.9604
 7841SOL     OW25122   0.865   5.014   5.437 -0.1062 -0.0099 -0.0025
 7841SOL    HW125123   0.800   5.065   5.379  0.2121  0.5259  0.1081
 7841SOL    HW225124   0.814   4.956   5.501 -0.4707 -1.3725 -1.4583
 7842SOL     OW25125   5.631   2.451   5.243  0.5656 -0.9089  0.1257
 7842SOL    HW125126   5.533   2.470   5.249  1.0852  2.3990 -0.0706
 7842SOL    HW225127   5.670   2.448   5.335  0.9292  2.6792  0.2536
 7843SOL     OW25128   6.070   3.686   5.973  0.0454  0.2532  0.5116
 7843SOL    HW125129   5.993   3.750   5.979 -0.0163  0.1816  0.4818
 7843SOL    HW225130   6.048   3.614   5.908  0.2918  0.4475  0.2043
 7844SOL     OW25131   5.713   2.749   2.321  0.5353 -0.0170 -0.4094
 7844SOL    HW125132   5.804   2.787   2.339 -0.0597  1.0630  0.5144
 7844SOL    HW225133   5.713   2.651   2.342  1.4887 -0.0368 -0.4529
 7845SOL     OW25134   2.349   4.140   1.588 -0.0128 -0.5135  0.5291
 7845SOL    HW125135   2.294   4.080   1.530 -1.8952  0.9810  0.6796
 7845SOL    HW225136   2.422   4.181   1.534 -1.8749  1.0432 -0.9302
 7846SOL     OW25137   5.626   3.329   0.337  0.5862 -0.0254 -0.0462
 7846SOL    HW125138   5.702   3.367   0.284  0.8365 -0.6518 -0.1449
 7846SOL    HW225139   5.613   3.383   0.420  0.9545  0.2642 -0.1737
 7847SOL     OW25140   6.501   4.911   6.936 -0.5949 -0.2014 -0.1897
 7847SOL    HW125141   6.479   4.992   6.990 -0.7234  0.6345 -1.4323
 7847SOL    HW225142   6.426   4.845   6.942 -1.0280  0.2923 -0.0912
 7848SOL     OW25143   6.630   0.080   6.178 -0.1261 -0.1257 -0.2311
 7848SOL    HW125144   6.679   0.163   6.151 -1.1775  0.2167 -1.2055
 7848SOL    HW225145   6.692   0.002   6.175  0.5775  0.4327 -0.5415
 7849SOL     OW25146   6.795   2.229   2.874 -0.7633 -0.1356  0.0004
 7849SOL    HW125147   6.827   2.228   2.779 -1.6245 -0.5448 -0.2932
 7849SOL    HW225148   6.737   2.308   2.889 -0.7594 -0.1590  0.1438
 7850SOL     OW25149   3.375   5.408   6.965 -0.8191 -0.1226 -0.1509
 7850SOL    HW125150   3.427   5.341   6.912 -0.1569  0.2261  0.0583
 7850SOL    HW225151   3.294   5.436   6.912 -1.0048 -0.9429 -0.3176
 7851SOL     OW25152   0.370   3.149   4.977 -0.0783 -0.5790  0.1616
 7851SOL    HW125153   0.388   3.239   5.017  0.4044  0.2400 -1.7748
 7851SOL    HW225154   0.282   3.150   4.930 -0.8659 -1.6733  1.5473
 7852SOL     OW25155   3.712   5.424   6.000 -0.1111  0.1342 -0.7711
 7852SOL    HW125156   3.734   5.479   6.080 -1.8208  1.3788 -1.1098
 7852SOL    HW225157   3.634   5.464   5.952 -1.6373 -2.7302 -0.8897
 7853SOL     OW25158   3.471   5.544   4.282  0.3062 -0.0839 -0.2646
 7853SOL    HW125159   3.425   5.600   4.350  1.9385 -1.6974  2.3730
 7853SOL    HW225160   3.517   5.602   4.215 -0.5863  1.5975  0.5294
 7854SOL     OW25161   2.235   1.838   2.971  0.2928 -0.0784  0.2177
 7854SOL    HW125162   2.159   1.901   2.951  0.8506  0.1106 -1.4697
 7854SOL    HW225163   2.306   1.887   3.021  0.1504  0.2924  0.0628
 7855SOL     OW25164   0.907   4.159   0.353  0.2313  0.6103  0.3135
 7855SOL    HW125165   0.997   4.116   0.365  0.1132  0.5798  1.1718
 7855SOL    HW225166   0.900   4.238   0.415 -0.5167  0.3214  0.6046
 7856SOL     OW25167   5.241   4.537   1.963 -0.2247  0.1062 -0.0896
 7856SOL    HW125168   5.316   4.474   1.982 -1.0356 -1.0517 -0.5997
 7856SOL    HW225169   5.274   4.612   1.904  1.2635  1.3970  2.2237
 7857SOL     OW25170   1.771   5.051   3.004  0.2976 -0.1782  0.1385
 7857SOL    HW125171   1.835   5.041   2.928  1.2257 -0.8465  0.9859
 7857SOL    HW225172   1.685   5.088   2.970  0.3729 -1.3333 -1.3846
 7858SOL     OW25173   2.107   1.434   3.631 -0.6312  0.4594  0.2008
 7858SOL    HW125174   2.087   1.383   3.714 -1.4051  0.5386  0.0640
 7858SOL    HW225175   2.101   1.373   3.552  1.8978 -0.0723  0.3298
 7859SOL     OW25176   6.593   5.337   4.649  0.6112  0.2360 -0.4898
 7859SOL    HW125177   6.665   5.300   4.708 -0.5340 -0.7186  0.3451
 7859SOL    HW225178   6.504   5.305   4.680 -0.0451 -0.3380 -2.7672
 7860SOL     OW25179   6.476   1.691   5.604  0.5036  0.1333  0.0728
 7860SOL    HW125180   6.559   1.688   5.659  0.2887 -0.3553  0.3760
 7860SOL    HW225181   6.396   1.697   5.663  0.2430 -0.9291 -0.1488
 7861SOL     OW25182   3.697   6.696   3.464  0.5558  0.0747 -0.0005
 7861SOL    HW125183   3.609   6.715   3.420  0.4117  2.7359  1.2478
 7861SOL    HW225184   3.707   6.598   3.477 -2.1791 -0.3162 -0.2812
 7862SOL     OW25185   6.520   1.738   0.417  0.2280 -0.2367  0.6657
 7862SOL    HW125186   6.422   1.754   0.424  0.6380  2.5839  1.3525
 7862SOL    HW225187   6.552   1.769   0.328  0.7098  0.3281  1.0302
 7863SOL     OW25188   2.655   6.098   1.883 -0.2771  0.7372 -1.1181
 7863SOL    HW125189   2.625   6.083   1.789  1.5608  2.3478 -2.0353
 7863SOL    HW225190   2.751   6.125   1.884  0.3276 -1.0738  1.4140
 7864SOL     OW25191   1.461   4.315   4.080 -0.0414 -0.2917  0.1351
 7864SOL    HW125192   1.499   4.289   3.991 -1.4227  0.2518 -0.6533
 7864SOL    HW225193   1.483   4.245   4.148  0.3903 -1.0966 -0.8107
 7865SOL     OW25194   5.420   4.758   6.852  0.1179  0.2117  0.0243
 7865SOL    HW125195   5.338   4.807   6.822  0.4670 -0.8321 -3.0043
 7865SOL    HW225196   5.496   4.823   6.859 -0.5979  0.9398  1.3846
 7866SOL     OW25197   6.449   4.098   3.538 -0.4279 -0.4246  0.5239
 7866SOL    HW125198   6.350   4.085   3.551 -1.1055  0.8809 -2.4318
 7866SOL    HW225199   6.484   4.157   3.610 -2.2528  0.6922  0.5694
 7867SOL     OW25200   5.184   3.115   1.642 -0.2360 -0.3390 -0.1710
 7867SOL    HW125201   5.101   3.084   1.594 -1.6428  2.6719  0.1291
 7867SOL    HW225202   5.263   3.067   1.604 -1.7512 -1.1168 -2.6187
 7868SOL     OW25203   4.067   1.582   1.619 -0.6765 -0.5281 -0.3903
 7868SOL    HW125204   3.978   1.625   1.635  0.3218  1.8729 -0.8892
 7868SOL    HW225205   4.125   1.644   1.566  2.5396 -0.3930  2.8418
 7869SOL     OW25206   1.014   3.998   2.747  0.0499 -0.0290  0.2980
 7869SOL    HW125207   1.053   4.066   2.685 -1.4806  0.7706  0.1788
 7869SOL    HW225208   1.036   4.022   2.841 -1.5603  1.4121  0.3544
 7870SOL     OW25209   2.673   1.316   4.277  0.1662 -0.4310 -0.9385
 7870SOL    HW125210   2.618   1.368   4.342  0.6253 -0.9925 -0.0831
 7870SOL    HW225211   2.761   1.294   4.318  0.7076 -0.2763 -1.9806
 7871SOL     OW25212   6.742   4.205   3.708  0.0250  0.3928 -0.2530
 7871SOL    HW125213   6.816   4.181   3.771 -0.0634 -2.1309 -1.0112
 7871SOL    HW225214   6.769   4.185   3.614 -1.7279 -1.0243 -0.5182
 7872SOL     OW25215   2.135   6.399   3.500  0.0201  0.4981  0.1604
 7872SOL    HW125216   2.101   6.315   3.542 -0.1258  0.8947  0.8443
 7872SOL    HW225217   2.071   6.430   3.429 -1.0787  1.2424  1.4382
 7873SOL     OW25218   6.016   2.754   5.619  0.3438  0.1261  0.5151
 7873SOL    HW125219   5.952   2.830   5.602  0.6339  0.8564  2.4026
 7873SOL    HW225220   5.975   2.668   5.588 -0.6530  0.8515 -0.2452
 7874SOL     OW25221   5.681   2.476   5.517 -0.3504  0.3968  0.4453
 7874SOL    HW125222   5.637   2.557   5.555 -2.0527 -1.6859  3.3136
 7874SOL    HW225223   5.703   2.412   5.591  3.6257 -0.6280 -1.3514
 7875SOL     OW25224   4.748   2.998   6.491 -0.0614 -0.1189 -0.0948
 7875SOL    HW125225   4.754   2.920   6.428 -1.2393  1.0088 -1.6849
 7875SOL    HW225226   4.802   3.074   6.454 -1.9238  1.0464 -0.5661
 7876SOL     OW25227   1.110   6.605   3.698  0.3486 -0.4207  0.1427
 7876SOL    HW125228   1.174   6.628   3.625  1.3737 -4.8448 -0.6048
 7876SOL    HW225229   1.016   6.609   3.662  0.4399  1.8193  0.0075
 7877SOL     OW25230   4.391   1.633   4.764  0.2580  0.3277  0.3981
 7877SOL    HW125231   4.292   1.647   4.765  0.2485  0.3973 -0.5753
 7877SOL    HW225232   4.412   1.542   4.729  0.5326  0.2878  0.6681
 7878SOL     OW25233   1.041   4.279   5.683  0.5224 -0.3142 -0.0048
 7878SOL    HW125234   1.049   4.318   5.775  0.8577 -0.2581 -0.0595
 7878SOL    HW225235   1.032   4.179   5.690  4.6206 -0.8573 -0.0332
 7879SOL     OW25236   4.733   0.122   5.729  0.2170 -0.0443 -0.2970
 7879SOL    HW125237   4.728   0.035   5.779  0.4496 -0.7622 -1.4832
 7879SOL    HW225238   4.702   0.196   5.788  0.6716 -0.8331  0.9672
 7880SOL     OW25239   6.955   1.581   2.889  0.1889  0.1496 -0.7470
 7880SOL    HW125240   6.876   1.574   2.828  0.1933 -1.7338 -0.5803
 7880SOL    HW225241   6.937   1.531   2.973  2.2642 -2.0568 -1.5012
 7881SOL     OW25242   1.721   6.085   5.909 -0.2353 -0.2095 -0.0619
 7881SOL    HW125243   1.722   6.045   5.818 -0.8744 -0.2681 -0.0450
 7881SOL    HW225244   1.753   6.018   5.976 -2.1248 -1.0290  0.0923
 7882SOL     OW25245   5.156   0.002   1.431  0.0124 -0.0823  0.0814
 7882SOL    HW125246   5.129   0.015   1.336  0.8186 -0.5861 -0.2358
 7882SOL    HW225247   5.123  -0.086   1.463 -0.6158  0.2679  0.4081
 7883SOL     OW25248   3.786   6.661   5.392 -0.1514  0.2060 -0.6743
 7883SOL    HW125249   3.767   6.721   5.315  0.3627 -1.7406 -2.4070
 7883SOL    HW225250   3.701   6.642   5.441 -0.7821  0.2091 -1.7311
 7884SOL     OW25251   1.508   5.598   3.570  0.2784 -0.2770 -0.4161
 7884SOL    HW125252   1.599   5.580   3.607  0.2222 -0.7451 -0.4976
 7884SOL    HW225253   1.475   5.516   3.522 -0.5276 -0.4008  0.3168
 7885SOL     OW25254   4.538   3.140   3.003  0.0716 -0.2393  0.4655
 7885SOL    HW125255   4.511   3.169   2.911 -3.2148  0.2189  1.4219
 7885SOL    HW225256   4.609   3.070   2.996  0.6755  0.5207 -2.3475
 7886SOL     OW25257   3.905   3.067   6.596  0.2342  0.5729 -0.3198
 7886SOL    HW125258   3.935   3.026   6.682  0.1037 -0.8406 -0.9131
 7886SOL    HW225259   3.982   3.070   6.532 -0.0285  0.2090 -0.6576
 7887SOL     OW25260   4.774   1.607   1.339  0.0192 -0.4772 -0.1422
 7887SOL    HW125261   4.858   1.569   1.300  0.3436 -0.5870  0.6362
 7887SOL    HW225262   4.753   1.694   1.294  1.1530  0.0894  0.3709
 7888SOL     OW25263   3.136   5.181   5.721 -0.2556 -0.0556 -0.6255
 7888SOL    HW125264   3.135   5.264   5.777 -0.6325 -0.2195 -0.3902
 7888SOL    HW225265   3.217   5.182   5.662 -0.7410  0.9357 -1.3038
 7889SOL     OW25266   3.531   6.476   6.073 -0.2824 -0.5160  0.3240
 7889SOL    HW125267   3.560   6.476   5.978 -1.0277 -0.2280  0.0865
 7889SOL    HW225268   3.434   6.501   6.078  0.0285  0.5979  1.2403
 7890SOL     OW25269   1.697   4.161   2.584  0.3776 -0.3241  0.9442
 7890SOL    HW125270   1.695   4.118   2.494 -0.7351 -2.1747  1.8007
 7890SOL    HW225271   1.699   4.091   2.655  1.2082  1.0871  2.3997
 7891SOL     OW25272   0.952   0.301   0.194 -0.2485 -0.3138  0.2022
 7891SOL    HW125273   0.905   0.343   0.272  1.1594  0.8086  0.4849
 7891SOL    HW225274   0.963   0.370   0.121  0.1771 -0.8081 -0.2073
 7892SOL     OW25275   4.687   1.316   6.751  0.0280 -0.4660  0.0422
 7892SOL    HW125276   4.715   1.316   6.655 -0.4349 -1.3364 -0.1018
 7892SOL    HW225277   4.601   1.265   6.761  0.1666 -0.5435  0.9423
 7893SOL     OW25278   0.614   4.217   0.768 -0.2139  0.0284 -0.1112
 7893SOL    HW125279   0.622   4.121   0.743  0.2437  0.3530 -1.3178
 7893SOL    HW225280   0.520   4.247   0.754 -0.3838 -0.2747  0.3823
 7894SOL     OW25281   2.046   5.902   6.938  0.1509  0.6527 -0.3470
 7894SOL    HW125282   2.061   5.803   6.935  2.3732  0.8971  0.6485
 7894SOL    HW225283   2.075   5.938   7.027 -1.8695  2.0692 -0.1761
 7895SOL     OW25284   0.602   3.984   2.508  0.1372  0.1468 -0.5191
 7895SOL    HW125285   0.679   3.922   2.501  0.8034  0.7179  1.0815
 7895SOL    HW225286   0.533   3.945   2.570 -0.2319  0.2501 -0.8587
 7896SOL     OW25287   6.222   2.027   6.554  0.0549 -0.3583 -0.1661
 7896SOL    HW125288   6.264   1.978   6.478  2.0298 -0.0413  0.6555
 7896SOL    HW225289   6.196   2.119   6.524 -0.1435 -0.5953 -0.7283
 7897SOL     OW25290   3.327   6.556   5.718  0.0511 -0.2147 -0.2334
 7897SOL    HW125291   3.313   6.656   5.718 -0.1130 -0.2288  0.7387
 7897SOL    HW225292   3.260   6.514   5.779 -0.1193 -0.9651 -0.9286
 7898SOL     OW25293   2.293   5.568   2.709 -0.7811 -0.0755  0.3399
 7898SOL    HW125294   2.244   5.593   2.793 -1.4628 -1.8839  0.5264
 7898SOL    HW225295   2.379   5.524   2.732 -0.9749 -0.5884  0.0945
 7899SOL     OW25296   3.418   5.156   3.062  0.2238 -0.0976  0.2887
 7899SOL    HW125297   3.381   5.103   2.987  0.2193  0.8108 -0.3669
 7899SOL    HW225298   3.435   5.250   3.032 -0.8074  0.5888  1.7147
 7900SOL     OW25299   6.791   0.902   1.404 -0.0929 -0.1698 -0.5873
 7900SOL    HW125300   6.748   0.825   1.358 -0.9825 -0.2889  0.3843
 7900SOL    HW225301   6.733   0.983   1.394 -1.1313 -0.5702  1.5831
 7901SOL     OW25302   6.002   0.967   3.076  0.1153 -1.1059 -0.3313
 7901SOL    HW125303   6.047   0.966   3.165 -0.1121 -1.9621 -0.2240
 7901SOL    HW225304   6.017   0.880   3.030  0.2864 -0.6518 -1.1665
 7902SOL     OW25305   6.457   0.850   3.684  0.0176  0.4247  0.9016
 7902SOL    HW125306   6.470   0.926   3.621 -1.5414 -1.7539 -2.3617
 7902SOL    HW225307   6.372   0.802   3.661  1.5868 -3.1048  1.7957
 7903SOL     OW25308   1.341   4.448   2.828  0.4039 -0.5849  0.2899
 7903SOL    HW125309   1.248   4.413   2.839  0.1155 -0.1760 -0.7091
 7903SOL    HW225310   1.366   4.502   2.908  0.1077 -1.3988  0.9416
 7904SOL     OW25311   1.691   3.117   2.677  0.0799 -0.1898  0.4883
 7904SOL    HW125312   1.757   3.044   2.659  0.4302  0.4430 -0.9927
 7904SOL    HW225313   1.725   3.177   2.749  1.4372  0.4510 -0.6318
 7905SOL     OW25314   0.913   4.552   1.789  0.4743  0.0559 -0.3139
 7905SOL    HW125315   0.879   4.591   1.875 -2.8772 -0.5762 -1.1810
 7905SOL    HW225316   0.937   4.627   1.727 -1.6720  0.7368 -0.4231
 7906SOL     OW25317   0.067   0.137   3.313  0.2254 -0.0817  0.3960
 7906SOL    HW125318   0.017   0.052   3.298 -0.5155  0.4541 -0.2418
 7906SOL    HW225319   0.038   0.205   3.247  1.3596  0.4479  0.4130
 7907SOL     OW25320   4.181   6.989   0.754  0.0266 -0.2409 -0.1706
 7907SOL    HW125321   4.192   6.951   0.845 -0.6106  0.2892  0.1393
 7907SOL    HW225322   4.262   6.969   0.699  1.5431  1.5425  1.2558
 7908SOL     OW25323   2.830   3.646   6.626 -0.0628 -0.0486 -0.0477
 7908SOL    HW125324   2.845   3.561   6.575 -0.8209 -1.5337  2.0673
 7908SOL    HW225325   2.732   3.668   6.624  0.2911  1.6110 -1.7447
 7909SOL     OW25326   4.329   6.354   0.989 -0.1964 -0.4012 -0.4950
 7909SOL    HW125327   4.334   6.291   1.066  0.1239 -1.2593 -1.2022
 7909SOL    HW225328   4.373   6.440   1.013  0.9034 -1.0615 -0.1055
 7910SOL     OW25329   5.496   0.306   1.493 -0.0294 -0.2867 -0.2277
 7910SOL    HW125330   5.535   0.381   1.546 -0.1423  0.1190 -0.7141
 7910SOL    HW225331   5.400   0.324   1.474 -0.0403 -0.5199 -0.4055
 7911SOL     OW25332   2.890   2.921   1.141  0.5834 -0.0268 -0.2344
 7911SOL    HW125333   2.892   2.925   1.241 -0.6785  1.8250 -0.2319
 7911SOL    HW225334   2.918   3.009   1.103 -2.5835  0.6318 -1.3572
 7912SOL     OW25335   5.241   0.605   5.948 -0.4913 -0.6758 -0.0874
 7912SOL    HW125336   5.314   0.645   5.893 -0.5960  1.4409  1.1772
 7912SOL    HW225337   5.281   0.548   6.020  0.0797  1.1836  1.1652
 7913SOL     OW25338   2.553   0.186   6.170  0.4173 -0.0135  0.0809
 7913SOL    HW125339   2.519   0.149   6.084  2.8518 -1.2970 -0.3974
 7913SOL    HW225340   2.623   0.255   6.151  1.2469 -0.5774  1.0231
 7914SOL     OW25341   4.013   3.084   4.868  0.0876  0.2122 -0.3737
 7914SOL    HW125342   4.062   3.025   4.933  0.7287 -0.0106 -1.0395
 7914SOL    HW225343   4.041   3.179   4.882  0.1029  0.1839 -0.2096
 7915SOL     OW25344   1.613   1.019   3.718  0.3271  0.9023 -0.0043
 7915SOL    HW125345   1.702   1.029   3.672  0.0551 -1.1391 -1.0960
 7915SOL    HW225346   1.626   0.970   3.804  0.2807  0.7252 -0.0977
 7916SOL     OW25347   2.352   5.106   3.233 -0.6086 -0.2643  0.3969
 7916SOL    HW125348   2.452   5.103   3.238 -0.6517 -0.3055  1.7402
 7916SOL    HW225349   2.323   5.191   3.189  0.0126  0.3108  1.0714
 7917SOL     OW25350   4.754   4.549   5.876  0.7861  0.3303 -0.0733
 7917SOL    HW125351   4.833   4.489   5.887  0.8537  0.6375  1.2304
 7917SOL    HW225352   4.783   4.636   5.836  1.0387  0.3006  0.0481
 7918SOL     OW25353   6.035   4.799   2.693  0.0678  0.2389 -0.1360
 7918SOL    HW125354   6.065   4.858   2.768 -1.3935  0.7959  0.0487
 7918SOL    HW225355   6.042   4.849   2.607 -2.6345  1.3581  0.1822
 7919SOL     OW25356   0.063   4.900   5.839 -0.1170 -0.2985 -0.5731
 7919SOL    HW125357  -0.033   4.918   5.816 -0.1733 -0.6263 -0.6102
 7919SOL    HW225358   0.068   4.860   5.931  0.2768  3.0249  0.9802
 7920SOL     OW25359   0.630   6.096   3.625  0.4897  0.1499 -0.2606
 7920SOL    HW125360   0.678   6.161   3.566 -0.4529  0.1036 -1.0987
 7920SOL    HW225361   0.532   6.100   3.606  0.4835 -2.3210 -1.1759
 7921SOL     OW25362   1.687   4.935   6.973 -0.0971 -0.0400 -0.4966
 7921SOL    HW125363   1.710   5.002   7.043 -1.9900 -0.8083  0.9469
 7921SOL    HW225364   1.662   4.983   6.888 -0.5202  1.0558  0.2171
 7922SOL     OW25365   3.033   4.596   0.356  0.1961  0.1896 -0.1698
 7922SOL    HW125366   3.109   4.532   0.343  0.8777  1.1555 -1.0470
 7922SOL    HW225367   3.051   4.681   0.307 -0.2999  1.4090  1.6287
 7923SOL     OW25368   0.751   3.530   4.935 -0.1291  0.0570 -0.0427
 7923SOL    HW125369   0.741   3.560   5.030 -0.3112  2.6543 -0.8053
 7923SOL    HW225370   0.661   3.511   4.896 -0.0772 -0.7176  0.2055
 7924SOL     OW25371   0.545   3.195   6.907 -0.0470  0.3535 -0.0210
 7924SOL    HW125372   0.543   3.191   7.007  0.6325  2.0996  0.1024
 7924SOL    HW225373   0.633   3.159   6.874  0.0372  0.4712  0.0717
 7925SOL     OW25374   1.109   2.178   2.161 -1.0521  0.2977 -0.7966
 7925SOL    HW125375   1.013   2.192   2.139 -1.0669  1.6766  0.0409
 7925SOL    HW225376   1.117   2.142   2.254 -0.7705 -0.6101 -1.1550
 7926SOL     OW25377   0.857   6.137   2.092  0.0692  0.6341  0.1457
 7926SOL    HW125378   0.767   6.180   2.089 -1.6338 -2.7018 -1.5596
 7926SOL    HW225379   0.875   6.090   2.005  2.3574 -0.9170  1.3371
 7927SOL     OW25380   5.866   4.674   5.562 -0.6311 -0.1205  0.6840
 7927SOL    HW125381   5.813   4.592   5.540 -2.0493  0.3473  2.1482
 7927SOL    HW225382   5.958   4.648   5.592  0.3834 -0.9116 -2.7070
 7928SOL     OW25383   3.026   6.030   3.840  0.1281 -0.3540 -0.1659
 7928SOL    HW125384   2.937   6.073   3.825  1.0201  1.7390  0.1580
 7928SOL    HW225385   3.042   6.021   3.938 -1.0285 -3.7661 -0.1637
 7929SOL     OW25386   6.128   6.569   6.866  0.2465  0.0552 -0.0620
 7929SOL    HW125387   6.036   6.534   6.853 -0.0248  0.9950 -0.7354
 7929SOL    HW225388   6.143   6.649   6.807  0.8964  0.9720  1.2837
 7930SOL     OW25389   5.064   0.080   6.956 -0.3925 -0.1629 -0.1981
 7930SOL    HW125390   5.152   0.054   6.995 -0.0082  1.1576 -0.1341
 7930SOL    HW225391   5.055   0.043   6.864  0.8172  0.8046 -0.7220
 7931SOL     OW25392   4.850   6.315   6.102 -0.1991 -0.2879  0.3547
 7931SOL    HW125393   4.844   6.218   6.124  0.7738  0.3049  3.9233
 7931SOL    HW225394   4.772   6.364   6.141 -0.4129  0.4624 -0.9456
 7932SOL     OW25395   0.534   4.087   6.558  0.1198  0.6775 -0.6175
 7932SOL    HW125396   0.633   4.078   6.550  0.1589  1.1528 -0.7091
 7932SOL    HW225397   0.493   3.997   6.571  0.5612  0.4766 -0.6054
 7933SOL     OW25398   1.298   5.367   4.353 -0.1797 -0.5293  0.3701
 7933SOL    HW125399   1.270   5.271   4.354  0.3759 -0.7353 -1.2538
 7933SOL    HW225400   1.286   5.405   4.262  1.0500  0.5187  0.6102
 7934SOL     OW25401   4.005   1.086   5.105  0.7541  0.3746 -0.4007
 7934SOL    HW125402   4.065   1.165   5.094  0.2876  1.0708  1.6596
 7934SOL    HW225403   3.916   1.116   5.139  0.2633 -0.9521 -0.4592
 7935SOL     OW25404   5.397   3.913   0.468 -0.1726 -0.5219  0.0099
 7935SOL    HW125405   5.340   3.887   0.546 -3.0629  2.9608 -0.7066
 7935SOL    HW225406   5.474   3.967   0.500  0.7431 -2.1225  0.6549
 7936SOL     OW25407   0.080   5.704   2.158 -0.2049 -0.6329 -0.3211
 7936SOL    HW125408   0.158   5.717   2.098 -0.1934 -1.7974 -0.5844
 7936SOL    HW225409  -0.002   5.687   2.103 -0.4165 -0.5404 -0.0338
 7937SOL     OW25410   6.802   1.665   4.858  0.1828 -0.1090 -0.3625
 7937SOL    HW125411   6.734   1.739   4.856 -0.6780 -0.8911 -0.5545
 7937SOL    HW225412   6.784   1.602   4.783 -0.6188 -1.8306  1.1979
 7938SOL     OW25413   0.037   2.700   0.158 -0.0827  0.2049 -0.1581
 7938SOL    HW125414   0.014   2.778   0.100  2.0702  1.0465  0.0567
 7938SOL    HW225415   0.123   2.717   0.206 -0.7552 -1.3319  1.7390
 7939SOL     OW25416   0.174   3.612   0.347 -0.0391 -0.3631  0.1256
 7939SOL    HW125417   0.165   3.577   0.440 -0.5941  3.1632  1.5236
 7939SOL    HW225418   0.086   3.607   0.301  0.2433 -2.1440 -0.3066
 7940SOL     OW25419   6.118   1.236   1.449  0.0557 -0.1262  0.0598
 7940SOL    HW125420   6.193   1.172   1.465  0.3180 -0.2026 -1.3341
 7940SOL    HW225421   6.126   1.314   1.511  0.5771 -0.7202  0.7556
 7941SOL     OW25422   5.012   3.217   5.983 -0.8676  0.5967  1.0145
 7941SOL    HW125423   5.004   3.125   6.022  1.6581 -1.1867 -2.1221
 7941SOL    HW225424   4.922   3.246   5.948 -1.2379 -2.0199 -0.4741
 7942SOL     OW25425   3.603   2.907   0.665 -0.1207 -0.2311 -0.3989
 7942SOL    HW125426   3.565   2.851   0.737 -0.7455 -1.3790 -1.5828
 7942SOL    HW225427   3.659   2.851   0.604  1.1417  0.8775 -0.3196
 7943SOL     OW25428   1.704   0.619   0.401  0.1892 -0.2786 -0.7241
 7943SOL    HW125429   1.613   0.637   0.438  1.1001 -0.6180  1.8587
 7943SOL    HW225430   1.715   0.521   0.383  0.4553 -0.4368  0.2408
 7944SOL     OW25431   1.078   4.314   2.877 -0.4046  0.0969  0.2794
 7944SOL    HW125432   1.113   4.244   2.938  0.2585  0.3597  0.2158
 7944SOL    HW225433   1.009   4.369   2.924  0.7875  0.9110  1.1245
 7945SOL     OW25434   1.679   5.919   3.754 -0.2959 -0.0517 -0.4324
 7945SOL    HW125435   1.713   5.990   3.693 -0.2335 -0.4407 -0.8648
 7945SOL    HW225436   1.585   5.938   3.779 -0.0705  0.5274 -0.0058
 7946SOL     OW25437   3.956   2.277   4.224 -0.1438  0.7625  0.5408
 7946SOL    HW125438   4.053   2.263   4.244 -0.1619 -0.4545 -0.1221
 7946SOL    HW225439   3.901   2.213   4.277 -0.6502  1.8487  1.3718
 7947SOL     OW25440   4.204   5.246   4.934 -0.0156 -0.0547 -0.4633
 7947SOL    HW125441   4.239   5.340   4.938  0.6904 -0.3012 -0.7789
 7947SOL    HW225442   4.142   5.231   5.010  1.5199  0.0025  0.8422
 7948SOL     OW25443   6.930   5.141   2.211  0.6495  0.7953  0.2031
 7948SOL    HW125444   6.957   5.063   2.154  1.5015 -0.1127  1.7813
 7948SOL    HW225445   6.938   5.116   2.307  0.3651  2.6597  0.7469
 7949SOL     OW25446   6.653   5.761   4.154  0.3272  0.2883 -0.5638
 7949SOL    HW125447   6.612   5.852   4.144  0.5952  0.6822  1.4872
 7949SOL    HW225448   6.748   5.764   4.123  0.5871  0.9564  0.2464
 7950SOL     OW25449   3.327   5.169   0.948 -0.4933 -0.0111 -0.1918
 7950SOL    HW125450   3.326   5.228   1.029 -0.3972 -1.2396  0.7206
 7950SOL    HW225451   3.398   5.100   0.958  0.0537  0.3069 -1.6964
 7951SOL     OW25452   0.063   0.372   5.810  0.3205  0.7252  0.7236
 7951SOL    HW125453  -0.019   0.408   5.765  0.7979 -1.6690 -2.4131
 7951SOL    HW225454   0.042   0.284   5.852  1.1051  0.4444  0.5418
 7952SOL     OW25455   6.582   6.788   1.802  0.0226 -0.3073  0.1854
 7952SOL    HW125456   6.615   6.782   1.897 -0.2447 -1.8641  0.1999
 7952SOL    HW225457   6.485   6.813   1.802  0.3013  0.8021  0.2712
 7953SOL     OW25458   3.304   5.454   4.920 -0.0642 -0.8363  0.3253
 7953SOL    HW125459   3.227   5.513   4.899 -0.3317 -1.9537 -2.1792
 7953SOL    HW225460   3.388   5.495   4.886  0.2196 -0.4693  1.4240
 7954SOL     OW25461   0.404   3.173   1.935  0.1178  0.3475  0.1555
 7954SOL    HW125462   0.387   3.099   1.870 -1.9015  1.4239 -0.6165
 7954SOL    HW225463   0.372   3.147   2.026 -2.5010  0.9523 -0.5262
 7955SOL     OW25464   2.472   0.701   0.011  0.6782 -0.8041 -0.0661
 7955SOL    HW125465   2.475   0.685  -0.088 -0.3193  1.7502 -0.6033
 7955SOL    HW225466   2.378   0.692   0.043  0.2740  2.1422 -0.1811
 7956SOL     OW25467   0.318   2.463   0.263 -0.0802 -0.0251  0.1976
 7956SOL    HW125468   0.410   2.426   0.251 -0.3072 -0.2090 -1.1563
 7956SOL    HW225469   0.250   2.392   0.245 -0.5005  0.0973  1.2192
 7957SOL     OW25470   2.321   3.442   5.569  0.4403  0.5694  0.0178
 7957SOL    HW125471   2.277   3.364   5.525 -0.8131  1.0284  0.4347
 7957SOL    HW225472   2.256   3.488   5.630  1.9516  0.2498  1.9822
 7958SOL     OW25473   1.222   6.325   2.936  0.9810 -0.3101  0.1855
 7958SOL    HW125474   1.288   6.264   2.979  0.5106 -0.6134  0.4964
 7958SOL    HW225475   1.243   6.420   2.960  2.1129 -0.2795 -0.8461
 7959SOL     OW25476   5.074   1.332   4.795  0.7591  0.3796 -0.4954
 7959SOL    HW125477   5.018   1.375   4.865 -0.8010 -1.3769 -0.5795
 7959SOL    HW225478   5.120   1.252   4.833 -1.0089 -1.2861 -1.6197
 7960SOL     OW25479   4.532   1.543   6.867 -0.3833  0.1323  0.2182
 7960SOL    HW125480   4.447   1.494   6.886  0.3164 -0.7923  1.0327
 7960SOL    HW225481   4.598   1.482   6.824  0.3688  0.4352  0.9058
 7961SOL     OW25482   2.897   6.442   3.109 -0.0326 -0.0016  0.4264
 7961SOL    HW125483   2.874   6.345   3.114  1.7436 -0.5453 -0.9484
 7961SOL    HW225484   2.929   6.473   3.199  0.3753 -0.9732  0.6308
 7962SOL     OW25485   2.072   5.659   3.240 -0.2182  0.2154 -0.0556
 7962SOL    HW125486   2.132   5.703   3.306  0.6842  0.9424 -1.3067
 7962SOL    HW225487   2.093   5.694   3.148 -3.4325  1.4925 -0.4257
 7963SOL     OW25488   6.116   2.261   3.412 -0.7375 -1.0111  0.3779
 7963SOL    HW125489   6.145   2.332   3.476  0.9429 -0.8701 -0.4720
 7963SOL    HW225490   6.082   2.304   3.328  1.4321 -1.1078 -0.6385
 7964SOL     OW25491   6.681   3.741   6.615  0.1634 -0.4221 -0.5690
 7964SOL    HW125492   6.712   3.653   6.580 -1.2010 -0.8300 -0.7977
 7964SOL    HW225493   6.606   3.775   6.559 -3.3515 -1.9197  2.7263
 7965SOL     OW25494   6.725   4.961   2.109  0.5001  0.2599 -0.0411
 7965SOL    HW125495   6.715   5.054   2.144  1.6506  0.3568  0.0879
 7965SOL    HW225496   6.693   4.896   2.177 -1.0517  0.5702 -0.4400
 7966SOL     OW25497   2.597   0.825   4.439 -0.2090 -0.1859 -0.0998
 7966SOL    HW125498   2.650   0.825   4.354 -0.6344 -2.0193 -0.3978
 7966SOL    HW225499   2.646   0.773   4.509  0.5791  2.0707  1.1274
 7967SOL     OW25500   1.653   5.647   3.340  0.0341  0.0690 -0.4386
 7967SOL    HW125501   1.586   5.651   3.414 -0.1400  2.7939 -0.6511
 7967SOL    HW225502   1.745   5.653   3.378  0.0906 -1.2491 -0.3137
 7968SOL     OW25503   2.396   0.953   2.994  0.6954  0.1377 -0.1834
 7968SOL    HW125504   2.479   1.007   2.981  0.7802  0.0025 -0.2085
 7968SOL    HW225505   2.327   0.979   2.926  0.4394  0.7894  0.3153
 7969SOL     OW25506   3.970   0.944   1.132  0.3936  0.6717 -0.1172
 7969SOL    HW125507   3.979   1.015   1.062 -0.6653  0.0654 -0.8752
 7969SOL    HW225508   3.878   0.945   1.170  0.4059 -0.2306 -0.0437
 7970SOL     OW25509   5.533   0.607   6.249 -0.2133  0.4264  0.4316
 7970SOL    HW125510   5.559   0.536   6.184  0.3730  1.1333 -0.1372
 7970SOL    HW225511   5.519   0.567   6.340  1.1634 -0.2692  0.3719
 7971SOL     OW25512   6.610   3.685   1.686 -0.3022 -0.1535  0.2420
 7971SOL    HW125513   6.560   3.768   1.662 -1.8931 -0.5542  1.8601
 7971SOL    HW225514   6.701   3.687   1.646 -0.5418  2.0502 -0.3024
 7972SOL     OW25515   4.439   1.962   0.122  0.2802  0.4418  0.4546
 7972SOL    HW125516   4.381   2.009   0.055 -2.0002 -1.4944  0.9478
 7972SOL    HW225517   4.531   1.952   0.085 -1.1400 -1.6200 -3.0321
 7973SOL     OW25518   2.673   6.989   3.121 -0.5043 -0.1704 -0.3854
 7973SOL    HW125519   2.643   6.982   3.216  0.0313 -0.2569 -0.2189
 7973SOL    HW225520   2.613   6.934   3.062  0.9917 -2.6832  0.3112
 7974SOL     OW25521   0.985   5.221   0.070  0.0531  0.0941  0.1138
 7974SOL    HW125522   0.968   5.240   0.167 -0.7078  0.4107 -0.0733
 7974SOL    HW225523   0.939   5.290   0.014  1.4345  0.5837 -0.4606
 7975SOL     OW25524   6.003   2.806   3.647 -0.2679 -0.2620  0.8757
 7975SOL    HW125525   5.953   2.753   3.715  0.6042 -0.2553  1.5424
 7975SOL    HW225526   6.034   2.892   3.687  0.3707 -0.3176  0.5149
 7976SOL     OW25527   1.813   1.063   0.271  0.2361 -0.0799  0.3830
 7976SOL    HW125528   1.733   1.036   0.323 -0.0701  0.9376  0.4670
 7976SOL    HW225529   1.827   1.000   0.195 -2.4085  1.3587 -1.4323
 7977SOL     OW25530   0.708   0.684   6.048 -0.2011  0.1866  0.3883
 7977SOL    HW125531   0.746   0.629   6.122  1.9826  0.6657 -0.2945
 7977SOL    HW225532   0.742   0.778   6.055  0.1988  0.2019 -1.3022
 7978SOL     OW25533   6.944   3.033   0.605 -0.6648 -0.0709  0.4292
 7978SOL    HW125534   6.938   3.070   0.512  0.2176 -2.1787 -0.5186
 7978SOL    HW225535   6.885   2.952   0.613  0.2950 -0.7045  1.2982
 7979SOL     OW25536   3.956   1.435   4.906 -0.0343  0.3949  0.4264
 7979SOL    HW125537   3.857   1.433   4.922 -0.3329  0.4547 -1.2601
 7979SOL    HW225538   3.998   1.501   4.969 -1.3059  1.6518  0.0180
 7980SOL     OW25539   4.223   3.681   3.444  0.0177 -0.1066 -0.0346
 7980SOL    HW125540   4.289   3.693   3.369 -1.0208  0.6889 -0.8548
 7980SOL    HW225541   4.234   3.590   3.483  1.1248 -0.2479 -0.6179
 7981SOL     OW25542   3.718   1.737   5.106 -0.2153 -0.1447 -0.5749
 7981SOL    HW125543   3.792   1.741   5.038  1.9052  0.4714  1.6433
 7981SOL    HW225544   3.718   1.821   5.160 -2.0877 -0.4720 -0.0178
 7982SOL     OW25545   3.639   2.368   1.697  0.1323  0.2054  0.4618
 7982SOL    HW125546   3.551   2.394   1.736 -0.6633 -3.3953  1.4699
 7982SOL    HW225547   3.712   2.415   1.746 -1.1393  1.8117  0.9026
 7983SOL     OW25548   2.450   3.841   5.457  0.1063 -0.3311  0.3103
 7983SOL    HW125549   2.414   3.868   5.546  0.5785 -0.3500  0.5134
 7983SOL    HW225550   2.540   3.884   5.444  1.0010 -1.9597  0.7476
 7984SOL     OW25551   3.552   0.272   4.087 -0.0621  0.0009  0.2891
 7984SOL    HW125552   3.518   0.185   4.124 -0.0917 -0.7241 -1.3687
 7984SOL    HW225553   3.604   0.320   4.158 -1.3757 -0.6039  1.7237
 7985SOL     OW25554   5.228   2.169   0.427 -0.2311  0.1518 -0.0245
 7985SOL    HW125555   5.169   2.088   0.418 -1.2553  0.9230 -0.3376
 7985SOL    HW225556   5.296   2.168   0.353  0.3132 -0.8444  0.4541
 7986SOL     OW25557   3.947   5.952   5.515  0.2399 -0.3151 -0.2661
 7986SOL    HW125558   3.973   5.895   5.593  1.9286  0.3690 -0.2740
 7986SOL    HW225559   3.924   5.894   5.437  2.2140 -1.0499 -0.3701
 7987SOL     OW25560   2.776   1.612   3.540  0.3576  0.6925 -0.4744
 7987SOL    HW125561   2.718   1.671   3.485 -0.6861 -2.1507 -2.6953
 7987SOL    HW225562   2.872   1.637   3.526 -0.0067  1.3403 -2.0294
 7988SOL     OW25563   3.449   0.266   5.081  0.3994  0.4111  0.1881
 7988SOL    HW125564   3.485   0.351   5.119  1.7144  0.0923 -0.2876
 7988SOL    HW225565   3.468   0.262   4.982  1.1356 -0.7950  0.3486
 7989SOL     OW25566   4.342   1.626   0.422 -0.2656 -0.8620 -0.2338
 7989SOL    HW125567   4.278   1.635   0.499 -1.5106 -1.2401 -1.2049
 7989SOL    HW225568   4.300   1.571   0.350  1.4083 -1.6425 -0.6478
 7990SOL     OW25569   6.426   0.344   3.966 -0.0551 -0.7331 -0.0537
 7990SOL    HW125570   6.500   0.347   3.898  0.3745 -0.4605  0.4198
 7990SOL    HW225571   6.399   0.438   3.989  2.1006 -0.6492  2.6137
 7991SOL     OW25572   0.015   0.682   6.176  0.4185 -0.0658 -0.4658
 7991SOL    HW125573   0.067   0.701   6.093 -1.1506 -0.8803 -1.6608
 7991SOL    HW225574  -0.071   0.637   6.153 -0.2651  0.1019  1.5713
 7992SOL     OW25575   3.505   0.212   4.447 -0.4477 -0.4229 -0.2205
 7992SOL    HW125576   3.430   0.265   4.488 -0.6883 -1.3234  0.5261
 7992SOL    HW225577   3.533   0.140   4.510  0.6256 -0.4974 -0.7693
 7993SOL     OW25578   6.914   2.139   3.355 -0.4827  0.0911  0.0507
 7993SOL    HW125579   7.000   2.127   3.306 -0.3131 -1.5941  0.6972
 7993SOL    HW225580   6.931   2.134   3.453 -1.4647 -1.5637  0.1705
 7994SOL     OW25581   4.783   0.061   2.290  0.1130  0.0060  0.3666
 7994SOL    HW125582   4.760  -0.005   2.362 -0.8819  0.1612  0.2129
 7994SOL    HW225583   4.762   0.154   2.321 -0.9872  0.0253 -0.3370
 7995SOL     OW25584   4.616   1.053   2.323 -0.3790  0.1756 -0.1027
 7995SOL    HW125585   4.646   1.027   2.232  0.5536  1.3601 -0.1490
 7995SOL    HW225586   4.602   0.971   2.378 -0.2889 -0.5176 -1.0914
 7996SOL     OW25587   6.897   5.754   3.248  0.1528 -0.7315  0.0922
 7996SOL    HW125588   6.992   5.760   3.218 -0.1432 -0.3475 -0.8261
 7996SOL    HW225589   6.837   5.746   3.168 -0.6812  0.3874  0.5731
 7997SOL     OW25590   4.204   1.165   1.321 -0.3537 -0.3623 -0.0420
 7997SOL    HW125591   4.142   1.088   1.339  0.3203 -1.7361 -2.8872
 7997SOL    HW225592   4.179   1.208   1.234  1.4115  0.3818 -0.2241
 7998SOL     OW25593   1.514   6.703   6.092  0.0173 -0.1476 -0.0210
 7998SOL    HW125594   1.462   6.662   6.018  2.2329  1.0124 -2.3836
 7998SOL    HW225595   1.566   6.632   6.140 -0.4379 -0.7518 -0.4063
 7999SOL     OW25596   1.027   4.427   5.969  0.2621 -0.4407  0.3517
 7999SOL    HW125597   1.078   4.512   5.983  0.7835 -0.6799 -0.0513
 7999SOL    HW225598   0.934   4.438   6.004 -0.2888  0.9425 -1.4140
 8000SOL     OW25599   5.836   3.473   3.452  0.2362  0.5947 -0.3995
 8000SOL    HW125600   5.846   3.429   3.362 -0.0793 -0.7468  0.1897
 8000SOL    HW225601   5.746   3.516   3.457  0.1913  0.5388 -0.6726
 8001SOL     OW25602   5.612   2.363   2.206  0.4031  0.1681 -0.0447
 8001SOL    HW125603   5.522   2.405   2.203  0.9911  1.5357  0.4919
 8001SOL    HW225604   5.603   2.263   2.209 -1.0514  0.2535 -0.8281
 8002SOL     OW25605   1.532   5.875   0.811  0.7178 -0.0115  0.0797
 8002SOL    HW125606   1.605   5.896   0.746  0.8930  1.0195  0.5929
 8002SOL    HW225607   1.464   5.816   0.767  1.9700 -1.1875 -0.3275
 8003SOL     OW25608   1.834   2.152   3.621  0.1415 -0.4567  0.4655
 8003SOL    HW125609   1.925   2.116   3.642  0.1513 -0.5473  0.2659
 8003SOL    HW225610   1.780   2.157   3.706  0.4320 -0.1182  0.6358
 8004SOL     OW25611   4.349   5.128   5.948  0.1915  0.2116 -0.0007
 8004SOL    HW125612   4.317   5.040   5.983  0.9466  0.2328  0.7862
 8004SOL    HW225613   4.293   5.155   5.870  0.2026 -1.1579 -0.5090
 8005SOL     OW25614   2.616   2.982   6.297 -0.3922 -0.0274  0.0273
 8005SOL    HW125615   2.628   3.056   6.363 -0.6475  0.1507 -0.1215
 8005SOL    HW225616   2.550   3.011   6.227  0.3795  0.0493 -0.6892
 8006SOL     OW25617   5.378   5.159   4.239  0.3348  0.5375  0.3350
 8006SOL    HW125618   5.349   5.171   4.144  0.5101  0.6875  0.3012
 8006SOL    HW225619   5.374   5.062   4.263  0.9642  0.4103 -0.0437
 8007SOL     OW25620   1.156   5.910   3.024 -0.1273  0.6642  0.1646
 8007SOL    HW125621   1.214   5.948   2.951 -1.6065  1.2624 -0.7586
 8007SOL    HW225622   1.139   5.813   3.007  0.5779  0.4939  0.4274
 8008SOL     OW25623   2.286   3.293   1.070  0.1280 -0.1145 -0.2275
 8008SOL    HW125624   2.242   3.383   1.063  3.7281  1.9327  0.5365
 8008SOL    HW225625   2.248   3.242   1.147 -2.9531  0.0300 -1.5028
 8009SOL     OW25626   4.094   4.257   5.670  0.3090 -0.6060  0.0330
 8009SOL    HW125627   4.039   4.274   5.752  3.0344 -0.5695  1.9724
 8009SOL    HW225628   4.064   4.319   5.597 -1.5020  0.1116  1.2926
 8010SOL     OW25629   5.660   4.736   0.505 -0.0810 -0.1898  0.0765
 8010SOL    HW125630   5.711   4.729   0.419  0.3550  2.3556  0.0606
 8010SOL    HW225631   5.576   4.787   0.489 -0.2168 -0.0774  1.0871
 8011SOL     OW25632   6.920   3.416   2.972 -0.3816  0.1571  0.1381
 8011SOL    HW125633   7.007   3.375   2.944 -0.2205 -0.4131  1.4007
 8011SOL    HW225634   6.936   3.507   3.008 -0.0998 -0.4740  1.6590
 8012SOL     OW25635   0.490   4.614   2.016 -0.6802 -0.1258  0.0262
 8012SOL    HW125636   0.521   4.527   2.055  0.7090 -0.2887 -1.3310
 8012SOL    HW225637   0.567   4.660   1.972 -1.9015  0.5667 -1.4918
 8013SOL     OW25638   2.775   4.678   0.531  0.8246 -0.0188  0.5022
 8013SOL    HW125639   2.798   4.590   0.571 -4.5445 -0.6098  3.0872
 8013SOL    HW225640   2.717   4.665   0.451 -0.8375  1.0799  1.4763
 8014SOL     OW25641   3.425   5.175   6.327 -0.4596  0.2500  0.1234
 8014SOL    HW125642   3.470   5.263   6.342 -0.5135  0.1537  0.8666
 8014SOL    HW225643   3.449   5.141   6.236 -1.1462  1.4481 -0.5318
 8015SOL     OW25644   3.707   1.842   5.837  0.4617 -0.0847 -0.1894
 8015SOL    HW125645   3.648   1.761   5.832  1.0463 -0.7479  2.2750
 8015SOL    HW225646   3.768   1.844   5.758 -0.4133 -1.3502 -0.9358
 8016SOL     OW25647   2.773   2.363   2.439 -0.5123 -0.5270 -0.3000
 8016SOL    HW125648   2.859   2.320   2.412 -1.8084 -1.4658 -3.2885
 8016SOL    HW225649   2.720   2.298   2.494  0.7616  0.2165  1.9560
 8017SOL     OW25650   2.583   0.479   0.417  0.1768 -0.4507 -0.8295
 8017SOL    HW125651   2.515   0.438   0.357 -1.0151  0.6268 -0.2635
 8017SOL    HW225652   2.598   0.574   0.391  1.6431 -0.7244 -1.0692
 8018SOL     OW25653   5.751   6.957   0.624 -0.0482 -0.4314  0.5030
 8018SOL    HW125654   5.813   7.035   0.619 -0.1592 -0.4245 -0.9184
 8018SOL    HW225655   5.798   6.880   0.667  1.2570 -0.6940 -1.2960
 8019SOL     OW25656   2.412   6.378   4.249 -0.4583  0.1349 -0.1576
 8019SOL    HW125657   2.505   6.413   4.256 -1.0971  1.9076  0.0724
 8019SOL    HW225658   2.397   6.342   4.157  0.4073 -0.0831 -0.2270
 8020SOL     OW25659   6.937   3.288   0.980  0.5209 -0.3712 -0.5738
 8020SOL    HW125660   6.884   3.355   1.033  0.7326  1.2947 -2.3736
 8020SOL    HW225661   6.911   3.293   0.884  1.8465 -1.6408 -1.0346
 8021SOL     OW25662   1.430   0.801   6.000  0.0912 -0.4813 -0.1154
 8021SOL    HW125663   1.464   0.884   6.045 -0.2635  0.1552 -1.0012
 8021SOL    HW225664   1.455   0.721   6.055 -0.1579  0.2539  1.0971
 8022SOL     OW25665   2.629   5.221   3.182 -0.3318  0.6229 -0.1477
 8022SOL    HW125666   2.581   5.304   3.209 -0.7046  0.3610  0.0111
 8022SOL    HW225667   2.678   5.183   3.260  1.1483  1.5359 -0.5803
 8023SOL     OW25668   3.202   5.062   2.461  0.3348  0.0910 -0.1568
 8023SOL    HW125669   3.297   5.031   2.460  0.6306  0.7732  2.2542
 8023SOL    HW225670   3.200   5.162   2.473 -0.7078  0.1018 -0.3734
 8024SOL     OW25671   6.090   5.344   5.772 -0.5367  0.1276 -0.0539
 8024SOL    HW125672   6.140   5.397   5.703  0.2286 -1.0434 -0.4193
 8024SOL    HW225673   6.104   5.385   5.862  1.7912 -0.6309 -0.0123
 8025SOL     OW25674   1.745   6.322   3.315  0.7219 -0.1009  0.4995
 8025SOL    HW125675   1.757   6.380   3.396  1.5452  0.5221 -0.0605
 8025SOL    HW225676   1.745   6.226   3.344  0.3773  0.1263  1.3060
 8026SOL     OW25677   3.938   1.347   3.239  0.0313 -0.5060 -0.2187
 8026SOL    HW125678   3.845   1.377   3.260 -0.5452 -1.1150 -1.8033
 8026SOL    HW225679   3.959   1.368   3.144  0.6555 -2.4544 -0.5549
 8027SOL     OW25680   0.789   5.794   0.706 -0.4317  0.4291 -0.6108
 8027SOL    HW125681   0.818   5.815   0.799  0.6530 -0.8290 -0.6352
 8027SOL    HW225682   0.847   5.843   0.641  0.5432 -0.6879 -0.6299
 8028SOL     OW25683   5.649   5.595   5.587 -0.0819 -0.1327 -0.0838
 8028SOL    HW125684   5.688   5.515   5.632  1.2388  1.4053  1.7185
 8028SOL    HW225685   5.620   5.661   5.656  3.2255  2.9295 -1.2800
 8029SOL     OW25686   6.209   0.772   0.498  0.0353 -0.3091  0.3680
 8029SOL    HW125687   6.238   0.780   0.402 -3.0689 -0.0002 -0.6603
 8029SOL    HW225688   6.176   0.861   0.530  0.9616 -0.4362  1.7463
 8030SOL     OW25689   3.841   6.437   1.064  0.4298 -0.1812 -1.1265
 8030SOL    HW125690   3.853   6.384   0.979  0.3173 -2.2005  0.0493
 8030SOL    HW225691   3.781   6.386   1.126 -0.3290  1.7434 -0.2174
 8031SOL     OW25692   6.503   5.569   1.925 -0.2024 -0.2182  0.1400
 8031SOL    HW125693   6.465   5.592   1.836 -1.4047  1.8605  1.1059
 8031SOL    HW225694   6.601   5.585   1.925 -0.4551  1.5508 -0.3297
 8032SOL     OW25695   0.192   5.692   6.996 -0.1850  0.3591  0.5840
 8032SOL    HW125696   0.107   5.692   6.945  0.4805 -0.3743 -0.5773
 8032SOL    HW225697   0.183   5.633   7.077 -0.8301  0.4447  0.5764
 8033SOL     OW25698   5.124   0.692   3.566 -0.0302  0.3816 -0.1758
 8033SOL    HW125699   5.075   0.693   3.654 -0.9020  1.0903 -0.6448
 8033SOL    HW225700   5.210   0.741   3.576 -0.1948  0.5963  0.2470
 8034SOL     OW25701   3.452   2.119   1.319  0.8134  0.8097 -0.4806
 8034SOL    HW125702   3.505   2.202   1.338  2.0051 -0.1151  0.4304
 8034SOL    HW225703   3.503   2.063   1.253  1.5260 -0.5794  1.1934
 8035SOL     OW25704   5.931   5.439   2.873  0.0830  0.1093 -0.4449
 8035SOL    HW125705   5.900   5.376   2.943  0.8122 -0.5707 -0.7166
 8035SOL    HW225706   6.022   5.474   2.898  0.3104 -0.0752 -1.0016
 8036SOL     OW25707   2.395   1.806   4.707  0.1426 -0.0979  0.0213
 8036SOL    HW125708   2.367   1.894   4.667 -2.2141 -1.5141 -1.6911
 8036SOL    HW225709   2.350   1.793   4.795  2.3389  1.3397  1.4606
 8037SOL     OW25710   6.554   3.115   4.648  0.2493  0.4375  0.5499
 8037SOL    HW125711   6.634   3.174   4.643 -0.2365  1.0698  0.1075
 8037SOL    HW225712   6.540   3.086   4.743  1.1755  0.0633  0.5867
 8038SOL     OW25713   3.218   6.558   3.346  0.1972 -0.1358  0.0173
 8038SOL    HW125714   3.298   6.554   3.286 -0.3443  0.4418 -0.7495
 8038SOL    HW225715   3.248   6.559   3.441  1.1299  0.8819 -0.2786
 8039SOL     OW25716   2.003   1.933   4.142  0.2589 -0.4775  0.2439
 8039SOL    HW125717   2.030   1.870   4.070 -0.3630  0.2118 -0.6173
 8039SOL    HW225718   2.016   2.027   4.110 -2.8253 -0.0809 -0.1692
 8040SOL     OW25719   3.470   6.533   3.774  0.2625  0.1380 -0.5209
 8040SOL    HW125720   3.533   6.499   3.704  0.0910 -1.0036 -0.1523
 8040SOL    HW225721   3.451   6.459   3.839 -1.0284  0.6338 -0.3145
 8041SOL     OW25722   5.932   4.725   3.968  0.5672  0.4419  0.7974
 8041SOL    HW125723   6.032   4.726   3.975  0.6830 -0.0703 -0.5214
 8041SOL    HW225724   5.896   4.816   3.989  1.5424  1.4185 -1.3959
 8042SOL     OW25725   4.750   5.898   2.955 -0.0257  0.0908  0.7087
 8042SOL    HW125726   4.824   5.844   2.915 -0.7755 -0.6382  0.2740
 8042SOL    HW225727   4.666   5.884   2.902 -0.3083  1.4881  0.7428
 8043SOL     OW25728   4.507   5.928   3.189 -0.5896 -0.0831  0.0044
 8043SOL    HW125729   4.433   5.861   3.183 -0.9788  0.4322 -1.3675
 8043SOL    HW225730   4.543   5.947   3.097 -0.3952  1.4753  0.3697
 8044SOL     OW25731   3.814   0.562   2.959  0.4932  0.2339  0.4243
 8044SOL    HW125732   3.815   0.471   3.001  1.5849 -1.1281 -2.2467
 8044SOL    HW225733   3.756   0.560   2.878  0.4090  1.9894  0.4095
 8045SOL     OW25734   0.314   6.823   5.855 -0.2858  0.5860  0.4945
 8045SOL    HW125735   0.404   6.827   5.813 -0.8772 -1.7289 -1.2123
 8045SOL    HW225736   0.316   6.758   5.932 -1.1149 -2.2065 -1.6613
 8046SOL     OW25737   6.658   5.973   0.551  0.4400 -0.3928  0.2654
 8046SOL    HW125738   6.648   5.899   0.617  2.1811  0.1586  1.2028
 8046SOL    HW225739   6.576   6.031   0.553 -0.5563 -1.7603  0.1559
 8047SOL     OW25740   0.971   6.711   2.137  0.2382  0.3800 -0.2823
 8047SOL    HW125741   0.991   6.614   2.126  0.4613  0.6734 -3.2275
 8047SOL    HW225742   1.037   6.752   2.199  1.3907 -0.9748 -0.5697
 8048SOL     OW25743   3.548   2.944   1.067 -0.2533  0.5866  0.3727
 8048SOL    HW125744   3.529   2.861   1.120  1.1362 -2.0511 -2.9086
 8048SOL    HW225745   3.483   2.951   0.992 -0.7173  2.9140  0.9157
 8049SOL     OW25746   4.664   0.285   6.333  0.1930  0.5445 -0.5912
 8049SOL    HW125747   4.746   0.299   6.278  0.1161 -1.7047 -1.3500
 8049SOL    HW225748   4.655   0.188   6.356 -1.8290  0.8671  0.1697
 8050SOL     OW25749   4.504   0.307   2.585 -0.6141  0.2513 -0.1370
 8050SOL    HW125750   4.406   0.326   2.582 -0.1884  2.7152 -0.0206
 8050SOL    HW225751   4.537   0.314   2.679  0.1225  2.2422 -0.4998
 8051SOL     OW25752   2.995   0.286   6.244 -0.4538 -0.3886  0.1875
 8051SOL    HW125753   2.907   0.244   6.266 -0.3601 -0.8763 -0.3145
 8051SOL    HW225754   3.064   0.254   6.309  0.0346 -2.5991 -1.2784
 8052SOL     OW25755   1.634   3.871   6.789 -0.0953 -0.1984  0.4847
 8052SOL    HW125756   1.689   3.954   6.797  1.1647 -0.9037 -0.5678
 8052SOL    HW225757   1.602   3.862   6.694 -0.9891 -0.4550  0.8040
 8053SOL     OW25758   3.309   6.688   0.716  0.8486  0.1694  0.7912
 8053SOL    HW125759   3.226   6.658   0.764  0.2658 -0.5512 -0.6161
 8053SOL    HW225760   3.287   6.763   0.654  1.2173 -0.1255  0.2965
 8054SOL     OW25761   2.640   6.221   0.575 -0.0950 -0.0922  0.2931
 8054SOL    HW125762   2.727   6.173   0.588  0.4737  0.7274 -0.3867
 8054SOL    HW225763   2.642   6.308   0.624 -0.4805  0.0044  0.1435
 8055SOL     OW25764   6.111   3.089   3.577  0.6980 -0.2356  0.0270
 8055SOL    HW125765   6.126   3.084   3.479 -1.2506 -2.0831 -0.2459
 8055SOL    HW225766   6.194   3.060   3.625  1.2542 -0.5584 -1.0971
 8056SOL     OW25767   5.707   2.532   6.133 -0.1208 -0.0694  0.0993
 8056SOL    HW125768   5.726   2.621   6.092 -0.9096  0.1416  0.1746
 8056SOL    HW225769   5.788   2.501   6.184 -0.0637  0.9188  0.6388
 8057SOL     OW25770   1.568   0.722   4.179  0.4645  0.0400 -0.1992
 8057SOL    HW125771   1.620   0.711   4.264 -1.9180  1.3012  1.5581
 8057SOL    HW225772   1.497   0.652   4.174 -0.3388  0.8502 -0.3921
 8058SOL     OW25773   5.813   5.975   1.885  0.4620  0.2802  0.5968
 8058SOL    HW125774   5.875   5.904   1.853 -0.4817 -0.5804  0.6556
 8058SOL    HW225775   5.719   5.953   1.859  0.0051  0.9223  1.6151
 8059SOL     OW25776   0.415   3.393   4.088  0.0456  0.0419  0.0846
 8059SOL    HW125777   0.365   3.463   4.038 -0.8697 -0.8482 -0.2797
 8059SOL    HW225778   0.377   3.383   4.180 -0.2139 -0.3873 -0.0680
 8060SOL     OW25779   6.341   0.782   4.776  0.0071 -0.6834 -0.0334
 8060SOL    HW125780   6.261   0.729   4.805 -0.0584 -1.0301 -0.8164
 8060SOL    HW225781   6.422   0.724   4.780 -0.2137 -1.1848 -1.8327
 8061SOL     OW25782   0.571   1.639   0.073  0.0832  0.2816 -0.0948
 8061SOL    HW125783   0.585   1.542   0.095  3.6675  0.7213  0.2217
 8061SOL    HW225784   0.547   1.648  -0.023  0.5228 -0.9067 -0.3420
 8062SOL     OW25785   6.461   1.916   3.927  0.2388 -0.0945 -0.3321
 8062SOL    HW125786   6.548   1.964   3.918 -0.8984  1.8541 -1.6704
 8062SOL    HW225787   6.449   1.853   3.850  0.6647 -0.7299  0.1158
 8063SOL     OW25788   5.198   2.328   0.044 -0.6111 -0.5351 -0.7761
 8063SOL    HW125789   5.198   2.428   0.052  0.7842 -0.4034 -2.0279
 8063SOL    HW225790   5.106   2.293   0.061 -0.8587  0.8178  1.0685
 8064SOL     OW25791   5.159   1.081   4.870 -0.0956 -0.1182 -0.0497
 8064SOL    HW125792   5.226   1.015   4.836 -0.5475 -0.3212 -0.5589
 8064SOL    HW225793   5.125   1.051   4.960 -0.8449 -0.9866 -0.5983
 8065SOL     OW25794   3.125   2.061   4.926 -0.1982 -0.3904  0.0112
 8065SOL    HW125795   3.059   2.049   5.000 -1.9946 -1.8704 -1.7167
 8065SOL    HW225796   3.098   2.138   4.869  0.2793 -0.2226  0.0088
 8066SOL     OW25797   0.844   2.957   2.979 -0.1775  0.4225  0.4086
 8066SOL    HW125798   0.849   2.934   2.882 -0.5819  3.3597 -0.4095
 8066SOL    HW225799   0.765   2.911   3.020  0.4624 -1.5110 -0.3989
 8067SOL     OW25800   0.223   3.917   3.821  0.6068  0.6127  0.1422
 8067SOL    HW125801   0.231   3.989   3.752  1.8040 -1.2395 -1.7854
 8067SOL    HW225802   0.246   3.953   3.911 -1.3726  3.2196 -0.2808
 8068SOL     OW25803   5.770   4.104   0.940  0.6383  0.2376 -0.2671
 8068SOL    HW125804   5.837   4.101   1.013  1.1224 -0.7584 -0.7358
 8068SOL    HW225805   5.789   4.183   0.881 -0.1053  1.3875  0.9694
 8069SOL     OW25806   3.094   2.534   2.456 -0.1329  0.0471 -0.5130
 8069SOL    HW125807   3.112   2.491   2.367 -0.3631 -1.5538  0.1760
 8069SOL    HW225808   3.182   2.553   2.501 -0.0225  0.5660 -0.9362
 8070SOL     OW25809   5.145   5.748   6.973 -0.3423 -0.1673  0.5436
 8070SOL    HW125810   5.113   5.709   7.059 -0.7160 -0.0122  0.4781
 8070SOL    HW225811   5.234   5.708   6.949 -1.1286 -1.6826 -0.0013
 8071SOL     OW25812   5.204   0.015   2.928 -0.2159 -0.1308  0.1948
 8071SOL    HW125813   5.210  -0.039   3.012 -0.2429 -0.4833 -0.0255
 8071SOL    HW225814   5.118  -0.005   2.882  1.0643 -2.3018 -1.4796
 8072SOL     OW25815   4.064   5.925   6.688  0.1262 -0.5569  0.4465
 8072SOL    HW125816   4.088   5.907   6.784  2.0513 -1.7840 -0.2038
 8072SOL    HW225817   3.969   5.897   6.672 -1.1081  2.0090  2.5358
 8073SOL     OW25818   6.692   4.787   6.344  0.2329  0.0687  0.2154
 8073SOL    HW125819   6.755   4.780   6.267  0.8550 -0.8108  0.7884
 8073SOL    HW225820   6.627   4.861   6.327  1.2942  0.8679 -0.4648
 8074SOL     OW25821   6.365   6.534   4.657  0.2322  0.3821 -0.2666
 8074SOL    HW125822   6.267   6.518   4.668  0.6246 -1.8496  0.5203
 8074SOL    HW225823   6.412   6.446   4.649  2.4169  1.2888  1.5865
 8075SOL     OW25824   2.148   4.902   1.997 -0.2762  0.1766  0.3009
 8075SOL    HW125825   2.232   4.879   1.948  0.2356 -1.0866  1.7135
 8075SOL    HW225826   2.147   4.999   2.019  0.1425  0.4766 -0.9438
 8076SOL     OW25827   5.343   2.817   6.208  0.3576  0.4429  0.2591
 8076SOL    HW125828   5.370   2.898   6.259  0.9088 -0.3109  1.1993
 8076SOL    HW225829   5.262   2.776   6.251 -0.0978  0.6515 -0.3870
 8077SOL     OW25830   6.523   5.030   6.281  0.0221 -0.8723  0.1770
 8077SOL    HW125831   6.429   5.049   6.251  0.9705  2.7169 -1.0957
 8077SOL    HW225832   6.532   5.054   6.378  0.4507  3.4008 -0.6954
 8078SOL     OW25833   3.755   4.352   5.665  0.0608  0.2516  0.0693
 8078SOL    HW125834   3.822   4.348   5.590  1.4526  2.9336  1.0395
 8078SOL    HW225835   3.796   4.395   5.745 -1.9612 -0.8106  1.7980
 8079SOL     OW25836   0.620   3.043   3.388  0.6084  0.1765 -0.4885
 8079SOL    HW125837   0.578   3.001   3.307  0.7684 -1.6801  0.3230
 8079SOL    HW225838   0.619   3.142   3.379 -0.6495  0.0624 -2.1267
 8080SOL     OW25839   4.832   0.371   1.581  0.3988  0.0111 -0.1855
 8080SOL    HW125840   4.864   0.277   1.568 -0.2972 -0.1696 -0.6873
 8080SOL    HW225841   4.756   0.389   1.518 -1.2437  0.0528  1.7098
 8081SOL     OW25842   3.772   2.760   1.473 -0.7291  0.3606 -0.2216
 8081SOL    HW125843   3.682   2.802   1.488 -0.6199  0.2754  0.7231
 8081SOL    HW225844   3.827   2.767   1.556 -0.2167 -0.4710 -0.4752
 8082SOL     OW25845   0.698   3.128   4.417 -0.1682  0.0137 -0.8253
 8082SOL    HW125846   0.637   3.082   4.353 -0.1053 -0.2038 -0.7291
 8082SOL    HW225847   0.790   3.092   4.407  0.1091  0.8921 -1.5149
 8083SOL     OW25848   6.801   3.263   2.780 -0.0107 -0.3273 -0.4981
 8083SOL    HW125849   6.804   3.334   2.850 -0.3449 -0.7034 -0.0992
 8083SOL    HW225850   6.827   3.175   2.819  0.2492 -0.4551 -0.9527
 8084SOL     OW25851   3.284   5.487   3.911  0.1677 -0.0561  0.3639
 8084SOL    HW125852   3.209   5.421   3.912 -0.2175  0.3666 -0.0947
 8084SOL    HW225853   3.291   5.528   3.820  0.1205  0.8617  0.7626
 8085SOL     OW25854   5.970   1.019   2.159  0.4397  0.0546 -0.0104
 8085SOL    HW125855   5.961   0.932   2.207  3.0714 -0.7933 -0.9164
 8085SOL    HW225856   5.921   1.090   2.210 -1.4043 -1.8055  0.9880
 8086SOL     OW25857   0.838   4.951   5.913 -0.1359 -0.2118 -0.2010
 8086SOL    HW125858   0.892   4.994   5.840 -0.0293  1.1945  0.6732
 8086SOL    HW225859   0.741   4.965   5.895 -0.1190 -0.1112 -0.2169
 8087SOL     OW25860   3.665   5.466   4.685  0.1080 -0.0919  0.4853
 8087SOL    HW125861   3.722   5.457   4.767  1.4094  0.9333 -0.2493
 8087SOL    HW225862   3.690   5.396   4.619 -1.1463 -1.1023  1.0555
 8088SOL     OW25863   3.225   5.716   6.223 -0.2467  0.2804  0.5890
 8088SOL    HW125864   3.265   5.730   6.133 -0.5015 -1.4299  0.1699
 8088SOL    HW225865   3.166   5.793   6.246  0.5014  1.1445 -0.3237
 8089SOL     OW25866   6.463   1.349   6.413 -0.6838  0.3559  0.2758
 8089SOL    HW125867   6.528   1.398   6.470  0.9740  0.5438 -1.6664
 8089SOL    HW225868   6.382   1.405   6.398 -0.2929  1.0780  0.8377
 8090SOL     OW25869   6.137   0.025   1.930  0.1333  0.1821  0.1627
 8090SOL    HW125870   6.107  -0.020   2.014  2.1177  1.5119  1.6669
 8090SOL    HW225871   6.120   0.123   1.935  2.6455  0.6943  0.2259
 8091SOL     OW25872   1.990   5.975   0.376  0.2260 -0.5007  0.1833
 8091SOL    HW125873   2.040   6.053   0.415 -1.2439  0.7054 -0.2061
 8091SOL    HW225874   2.012   5.967   0.279 -2.5088  2.0300 -0.7986
 8092SOL     OW25875   6.176   0.789   2.959  0.5198  0.1311 -0.3620
 8092SOL    HW125876   6.245   0.861   2.963  0.9561 -0.3264  1.0848
 8092SOL    HW225877   6.215   0.703   2.991 -0.7982 -0.0533  0.8745
 8093SOL     OW25878   4.241   1.747   3.732  0.3351  0.0852  0.2664
 8093SOL    HW125879   4.325   1.746   3.678 -0.6459  1.3429 -1.4107
 8093SOL    HW225880   4.189   1.664   3.713  1.2350 -0.7675  1.4258
 8094SOL     OW25881   2.566   6.216   2.209  0.0885 -0.5264 -0.3606
 8094SOL    HW125882   2.655   6.262   2.215 -0.1728  0.0228 -0.6930
 8094SOL    HW225883   2.578   6.128   2.162  0.0081  0.8128 -3.1056
 8095SOL     OW25884   5.484   2.195   1.266  0.3078  0.0894  0.3195
 8095SOL    HW125885   5.541   2.274   1.244 -0.7566  1.0592  0.9340
 8095SOL    HW225886   5.501   2.122   1.200  0.4662  1.2545 -0.9672
 8096SOL     OW25887   0.631   3.940   0.782 -0.3031  0.0094 -0.3578
 8096SOL    HW125888   0.706   3.923   0.718 -2.3425 -0.6669 -2.7370
 8096SOL    HW225889   0.606   3.854   0.828 -0.4404 -0.0372 -0.5199
 8097SOL     OW25890   0.231   6.014   2.005 -0.0864 -0.4498  0.0760
 8097SOL    HW125891   0.315   6.063   1.985 -0.8672  0.7256 -0.4269
 8097SOL    HW225892   0.152   6.070   1.979 -1.0327 -1.4826  0.6128
 8098SOL     OW25893   5.095   0.759   4.986 -0.0538  0.1814  0.8077
 8098SOL    HW125894   5.121   0.762   4.890  0.6697  0.2018  0.9998
 8098SOL    HW225895   5.004   0.799   4.997  0.0320  0.5562  0.1865
 8099SOL     OW25896   5.380   1.313   2.261  0.6233 -0.3244 -0.8871
 8099SOL    HW125897   5.363   1.396   2.208  1.7590  0.9375  0.6177
 8099SOL    HW225898   5.469   1.321   2.306 -0.2493 -1.3549  1.1246
 8100SOL     OW25899   3.056   6.923   1.194  0.1431 -0.2387  0.0961
 8100SOL    HW125900   3.147   6.964   1.198  0.2658 -0.5853  2.3038
 8100SOL    HW225901   2.993   6.977   1.250 -0.7962 -0.5223 -0.6633
 8101SOL     OW25902   0.473   0.615   5.945 -0.9796  0.2391  0.0683
 8101SOL    HW125903   0.556   0.669   5.963 -1.4108  0.9972 -0.1453
 8101SOL    HW225904   0.499   0.525   5.911 -0.2355  0.2742  0.5173
 8102SOL     OW25905   5.961   5.071   1.836 -0.1888  0.2541 -0.1966
 8102SOL    HW125906   6.034   5.003   1.841  0.8310  1.3569  0.4007
 8102SOL    HW225907   5.998   5.162   1.854 -1.3812  1.0927 -1.7327
 8103SOL     OW25908   2.402   0.875   4.593  0.4923 -0.0745 -0.6422
 8103SOL    HW125909   2.461   0.874   4.512  0.5116  1.9405 -0.6875
 8103SOL    HW225910   2.452   0.839   4.671  1.2239  0.0717 -1.0371
 8104SOL     OW25911   0.438   4.711   1.229 -0.7621  0.3948  0.1225
 8104SOL    HW125912   0.377   4.688   1.305 -0.9710  1.6045  0.3259
 8104SOL    HW225913   0.522   4.656   1.237 -1.8393 -1.3714 -0.2346
 8105SOL     OW25914   2.831   5.579   2.118 -0.3771  0.1993  0.3529
 8105SOL    HW125915   2.772   5.651   2.082 -0.2810  1.1463  2.0139
 8105SOL    HW225916   2.927   5.603   2.101 -0.3716  0.0315  0.1417
 8106SOL     OW25917   4.917   3.542   0.862 -0.1594  0.0858  0.1764
 8106SOL    HW125918   4.853   3.559   0.937 -0.3401  1.7110 -0.3104
 8106SOL    HW225919   5.008   3.525   0.899 -0.5918 -0.9226  0.8196
 8107SOL     OW25920   2.609   5.723   2.073 -0.0464 -0.3046 -0.1029
 8107SOL    HW125921   2.627   5.816   2.105  0.2121 -0.0564 -0.9621
 8107SOL    HW225922   2.517   5.696   2.101  0.2769 -0.2255  1.1348
 8108SOL     OW25923   0.152   4.177   2.004 -0.3444 -0.0155 -0.1077
 8108SOL    HW125924   0.079   4.121   2.042 -2.0903  1.1494 -1.5537
 8108SOL    HW225925   0.200   4.126   1.932  0.2027 -0.7216  0.7349
 8109SOL     OW25926   3.060   6.107   3.405  0.5607 -0.1958  0.0935
 8109SOL    HW125927   3.064   6.152   3.494 -0.5174 -1.3271  0.7428
 8109SOL    HW225928   2.967   6.116   3.368  0.4849 -1.4016 -0.0217
 8110SOL     OW25929   6.181   1.696   6.550 -0.0451  0.4570  0.0187
 8110SOL    HW125930   6.141   1.781   6.585 -0.9295 -0.5213  1.4935
 8110SOL    HW225931   6.278   1.692   6.575 -0.3998  0.2849  1.4512
 8111SOL     OW25932   5.495   0.608   2.283  0.5785 -0.4912 -0.4586
 8111SOL    HW125933   5.474   0.694   2.236  0.6497 -0.3813 -0.2918
 8111SOL    HW225934   5.508   0.626   2.380  2.0947 -0.4385 -0.6432
 8112SOL     OW25935   4.000   2.640   5.648  0.6786 -0.1350  0.3350
 8112SOL    HW125936   3.986   2.739   5.653  2.3836  0.2872 -1.4975
 8112SOL    HW225937   3.917   2.593   5.675 -0.9611  1.8525 -0.9129
 8113SOL     OW25938   4.438   3.755   5.510  0.6522 -0.7727 -0.2443
 8113SOL    HW125939   4.415   3.742   5.414  0.2262 -1.1860 -0.0952
 8113SOL    HW225940   4.374   3.819   5.552  0.1629 -1.4111  0.0112
 8114SOL     OW25941   5.288   3.018   4.244  0.1381  0.3398 -0.0850
 8114SOL    HW125942   5.308   3.116   4.237 -2.6777  1.0166  0.1578
 8114SOL    HW225943   5.358   2.974   4.300  1.0756  2.3438  0.4135
 8115SOL     OW25944   5.295   1.613   1.882 -0.2353  0.1067  0.0645
 8115SOL    HW125945   5.211   1.585   1.837  0.4464 -0.9965 -0.5780
 8115SOL    HW225946   5.366   1.628   1.813  0.4994 -0.4456  0.6814
 8116SOL     OW25947   0.970   5.282   1.476 -0.3638  0.0387 -0.1105
 8116SOL    HW125948   0.905   5.211   1.450  0.0791 -0.0533 -1.0282
 8116SOL    HW225949   1.041   5.243   1.535  0.4784 -0.5605 -1.4725
 8117SOL     OW25950   3.489   3.878   5.585  0.4249 -0.6781 -0.0413
 8117SOL    HW125951   3.477   3.824   5.501  0.5528  0.8884 -1.1074
 8117SOL    HW225952   3.582   3.916   5.587 -0.2015  0.9431 -0.2287
 8118SOL     OW25953   3.041   1.380   5.530 -0.2957 -0.2207 -0.6448
 8118SOL    HW125954   3.097   1.457   5.560  0.5243 -1.0678  0.0938
 8118SOL    HW225955   2.946   1.394   5.558 -0.6357  1.5386 -2.4636
 8119SOL     OW25956   0.594   3.820   5.035  0.0755 -0.6963 -0.1058
 8119SOL    HW125957   0.552   3.881   5.101 -0.7646 -0.8445 -0.4914
 8119SOL    HW225958   0.650   3.752   5.083  2.2385  1.2081  0.2708
 8120SOL     OW25959   0.723   0.427   1.640  0.2216  0.3194  0.3677
 8120SOL    HW125960   0.814   0.461   1.662  1.3088 -2.1475 -0.0331
 8120SOL    HW225961   0.713   0.417   1.541  0.2120 -1.0992  0.4838
 8121SOL     OW25962   0.415   2.670   2.706  0.2411  0.0676  0.2404
 8121SOL    HW125963   0.419   2.582   2.754 -1.3675  0.7204  1.6390
 8121SOL    HW225964   0.463   2.740   2.758  3.2692 -0.2775 -1.8084
 8122SOL     OW25965   5.524   3.195   6.075 -0.4384  0.6046  0.0575
 8122SOL    HW125966   5.506   3.290   6.052 -2.4474  0.8429  2.2930
 8122SOL    HW225967   5.607   3.189   6.130 -0.4484  1.1019  0.1310
 8123SOL     OW25968   0.533   0.218   4.202 -0.3862 -0.2122 -0.7069
 8123SOL    HW125969   0.465   0.285   4.173  0.7250  1.3222  0.0998
 8123SOL    HW225970   0.593   0.259   4.270  1.6576 -1.3634 -1.7355
 8124SOL     OW25971   1.900   4.728   4.520 -0.2107  0.0019  0.7654
 8124SOL    HW125972   1.826   4.735   4.587 -0.4596  3.6636  0.3274
 8124SOL    HW225973   1.860   4.728   4.428  0.2972  0.1479  0.5473
 8125SOL     OW25974   5.869   4.458   4.015 -0.1022  0.4203 -0.0196
 8125SOL    HW125975   5.886   4.555   3.996  1.0400  0.0760 -0.8557
 8125SOL    HW225976   5.896   4.437   4.109  1.7968  0.4536 -0.5226
 8126SOL     OW25977   2.803   5.774   5.403  0.0349  0.3911 -0.8732
 8126SOL    HW125978   2.867   5.793   5.328  0.0022 -2.0086 -1.5844
 8126SOL    HW225979   2.851   5.784   5.490  0.5936  1.3150 -1.2657
 8127SOL     OW25980   4.649   6.016   2.695  0.0876 -0.2919  0.2678
 8127SOL    HW125981   4.580   5.948   2.720  0.6294 -0.8149  0.3606
 8127SOL    HW225982   4.718   6.021   2.767 -0.3797  0.9622  0.6626
 8128SOL     OW25983   1.059   1.206   1.775  0.3341  0.1290 -0.2882
 8128SOL    HW125984   1.081   1.210   1.677 -1.1483 -0.6585 -0.6775
 8128SOL    HW225985   1.002   1.126   1.793  0.1327  0.5723  1.1406
 8129SOL     OW25986   6.512   0.333   4.612 -0.2983 -0.3284 -0.0796
 8129SOL    HW125987   6.567   0.250   4.621 -0.2384 -0.3355 -0.4788
 8129SOL    HW225988   6.558   0.397   4.550  0.0053  0.3066  0.7924
 8130SOL     OW25989   5.850   0.183   6.844 -0.5524 -0.0310  0.0480
 8130SOL    HW125990   5.809   0.254   6.787 -2.1364 -2.0962 -1.5783
 8130SOL    HW225991   5.882   0.109   6.785  0.7219 -0.8401  1.6945
 8131SOL     OW25992   1.040   0.056   4.439  0.2579  0.3404  0.2246
 8131SOL    HW125993   1.023   0.011   4.351  1.1008 -1.2777  0.8505
 8131SOL    HW225994   1.137   0.050   4.461  0.5971  3.2624 -0.0292
 8132SOL     OW25995   6.434   4.287   2.403 -0.7877 -0.0670 -0.3519
 8132SOL    HW125996   6.418   4.268   2.306 -1.9517 -2.1100  0.1853
 8132SOL    HW225997   6.348   4.280   2.453  0.0249 -0.4560  1.0424
 8133SOL     OW25998   1.426   5.939   6.901  0.1826  0.5978 -0.4537
 8133SOL    HW125999   1.387   5.853   6.934 -0.7465  1.6021  1.1423
 8133SOL    HW226000   1.517   5.951   6.940 -0.9656  1.8493  2.0463
 8134SOL     OW26001   0.484   2.963   5.621 -0.1054  0.3084 -0.3273
 8134SOL    HW126002   0.489   3.055   5.661 -0.1197 -0.0208  0.4350
 8134SOL    HW226003   0.389   2.942   5.598 -0.2418  0.1171  0.3817
 8135SOL     OW26004   5.364   1.014   5.671  0.1471 -0.0836  0.0010
 8135SOL    HW126005   5.416   0.973   5.596 -0.3827  0.0679 -0.4539
 8135SOL    HW226006   5.341   0.943   5.738  1.2698 -0.0786  0.4116
 8136SOL     OW26007   1.879   6.393   6.944 -0.3570 -0.2863  0.0432
 8136SOL    HW126008   1.828   6.452   7.006 -0.5599  0.3829 -0.7463
 8136SOL    HW226009   1.820   6.317   6.915  0.0614 -1.1959  1.4511
 8137SOL     OW26010   6.795   1.773   3.569  0.1808 -0.1679  0.0599
 8137SOL    HW126011   6.874   1.760   3.510 -0.2467  0.5119 -0.6798
 8137SOL    HW226012   6.811   1.727   3.656  1.0963 -0.6213 -0.3331
 8138SOL     OW26013   6.138   4.039   6.704  0.0755  0.4589 -0.4978
 8138SOL    HW126014   6.198   3.997   6.636 -0.0511  0.5164 -0.6438
 8138SOL    HW226015   6.128   3.977   6.782 -0.6943 -0.1028 -1.0275
 8139SOL     OW26016   0.938   3.001   6.302 -0.1296 -0.4101 -0.2706
 8139SOL    HW126017   0.957   3.099   6.298  2.0162 -0.7544  0.1013
 8139SOL    HW226018   0.869   2.983   6.372 -1.0654  0.8786 -0.8280
 8140SOL     OW26019   6.809   6.217   4.197 -0.2677  0.6258  0.1095
 8140SOL    HW126020   6.857   6.176   4.119 -1.0221 -2.2894  1.0553
 8140SOL    HW226021   6.865   6.290   4.236  2.6537 -1.4294  0.0938
 8141SOL     OW26022   6.843   6.433   3.954 -0.2421  0.1457 -0.4425
 8141SOL    HW126023   6.796   6.484   4.026 -0.5744 -0.6306 -0.0987
 8141SOL    HW226024   6.781   6.417   3.878  0.1079  0.9605 -0.9148
 8142SOL     OW26025   3.188   1.596   5.639  0.7036  0.0308  0.1272
 8142SOL    HW126026   3.147   1.624   5.725  0.6576  0.8171 -0.1437
 8142SOL    HW226027   3.227   1.675   5.592  0.2640 -0.2948 -0.8226
 8143SOL     OW26028   4.594   0.308   2.824 -0.5571 -0.1716  0.0216
 8143SOL    HW126029   4.627   0.395   2.860 -1.2093 -0.8434  2.4220
 8143SOL    HW226030   4.659   0.236   2.847 -1.4954 -0.7806  0.8640
 8144SOL     OW26031   6.804   6.137   6.689 -0.1945  0.0023  0.3450
 8144SOL    HW126032   6.895   6.123   6.726  0.1340 -1.6969 -0.9905
 8144SOL    HW226033   6.785   6.236   6.685  1.9092  0.4404 -0.1062
 8145SOL     OW26034   5.782   2.638   5.087 -0.1754 -0.2465 -0.2663
 8145SOL    HW126035   5.778   2.621   4.989 -0.7897 -0.3255 -0.2303
 8145SOL    HW226036   5.725   2.572   5.135 -1.4298  0.9732 -0.0144
 8146SOL     OW26037   6.599   4.816   5.307  0.0312  0.1560 -0.4042
 8146SOL    HW126038   6.584   4.726   5.267 -1.1936 -1.4120  3.1890
 8146SOL    HW226039   6.520   4.874   5.289 -0.6792 -0.6529  0.0354
 8147SOL     OW26040   0.955   0.646   4.231 -0.2667 -0.1457 -0.2403
 8147SOL    HW126041   0.858   0.651   4.205 -0.3483 -0.0335  0.0867
 8147SOL    HW226042   1.011   0.672   4.153 -0.4803 -0.8370 -0.6330
 8148SOL     OW26043   0.354   0.680   2.555 -0.1404 -0.1988  0.1808
 8148SOL    HW126044   0.349   0.778   2.542 -2.5917 -0.3009 -0.0449
 8148SOL    HW226045   0.450   0.653   2.571  0.8771  1.9031 -1.8621
 8149SOL     OW26046   1.172   1.817   4.246 -0.4626  0.1714 -0.0920
 8149SOL    HW126047   1.165   1.746   4.177 -1.5084  0.0073  0.1740
 8149SOL    HW226048   1.268   1.843   4.256 -0.2266 -0.2115 -1.1751
 8150SOL     OW26049   2.823   3.740   0.635 -0.8868  0.2911 -0.7901
 8150SOL    HW126050   2.918   3.745   0.605 -0.3463  2.0296  0.9710
 8150SOL    HW226051   2.810   3.661   0.694  0.7098  2.2622  2.5074
 8151SOL     OW26052   4.994   3.767   0.162 -0.1534 -0.4813 -0.3205
 8151SOL    HW126053   5.024   3.798   0.253 -2.2425 -1.7103  0.8842
 8151SOL    HW226054   4.895   3.751   0.164 -0.3489 -0.0397 -3.0096
 8152SOL     OW26055   3.172   5.787   0.832  0.0027 -0.2859 -0.4181
 8152SOL    HW126056   3.220   5.700   0.818 -0.8865 -0.6999 -0.9466
 8152SOL    HW226057   3.135   5.791   0.924  0.6351 -0.1659 -0.1648
 8153SOL     OW26058   4.923   2.010   4.039 -0.2018 -0.4127 -0.6074
 8153SOL    HW126059   4.953   2.100   4.072  0.6484 -0.3142 -1.5856
 8153SOL    HW226060   4.930   1.943   4.113  1.6550 -0.2098 -0.5439
 8154SOL     OW26061   5.844   6.121   2.122 -0.5141 -0.0892  0.9117
 8154SOL    HW126062   5.766   6.156   2.173 -1.1773  1.6209 -1.1672
 8154SOL    HW226063   5.817   6.038   2.073 -0.2665 -0.9276  2.1363
 8155SOL     OW26064   4.998   5.415   3.404 -0.0629 -0.0042  0.5168
 8155SOL    HW126065   4.927   5.408   3.334 -0.5004  0.1692  0.9351
 8155SOL    HW226066   4.955   5.413   3.494  0.5055 -0.3368  0.7819
 8156SOL     OW26067   2.377   1.167   4.074 -0.2139  0.1512 -0.0817
 8156SOL    HW126068   2.364   1.072   4.102 -1.2321  0.4172  0.4204
 8156SOL    HW226069   2.470   1.196   4.096 -0.4911 -0.1318  1.6105
 8157SOL     OW26070   1.594   0.810   6.407  0.1127  0.6991  0.5182
 8157SOL    HW126071   1.658   0.735   6.389 -0.9198 -0.1180  0.1723
 8157SOL    HW226072   1.573   0.813   6.505  0.0484  0.4311  0.5149
 8158SOL     OW26073   6.241   1.707   1.165  0.0682  0.1887  0.0226
 8158SOL    HW126074   6.284   1.629   1.118  0.3691  1.1688 -1.3975
 8158SOL    HW226075   6.181   1.674   1.237  0.5976 -1.3380 -0.2054
 8159SOL     OW26076   2.626   4.070   0.764  0.8198  0.3718  0.2231
 8159SOL    HW126077   2.616   3.975   0.793 -0.3357  0.4034 -0.0433
 8159SOL    HW226078   2.616   4.076   0.665 -4.2566  1.3087  0.5465
 8160SOL     OW26079   5.503   4.977   2.269 -0.3132  0.4090 -0.5723
 8160SOL    HW126080   5.579   4.943   2.213  1.3157  2.3861  0.3110
 8160SOL    HW226081   5.440   5.029   2.212  0.5988  1.2562 -0.8334
 8161SOL     OW26082   1.727   0.248   0.729  0.2199 -0.4678  0.7581
 8161SOL    HW126083   1.768   0.339   0.737 -0.1440 -0.4397  2.6043
 8161SOL    HW226084   1.797   0.178   0.745  0.1565 -0.4741  1.0138
 8162SOL     OW26085   2.622   1.314   0.510 -0.5954 -0.8676  0.3140
 8162SOL    HW126086   2.554   1.383   0.487 -0.6124 -1.2740 -0.9823
 8162SOL    HW226087   2.713   1.350   0.493 -0.5906 -1.0418 -0.0451
 8163SOL     OW26088   6.317   4.023   1.919 -0.2265 -0.0523  0.6195
 8163SOL    HW126089   6.291   3.993   2.011 -0.8583 -0.5224  0.3000
 8163SOL    HW226090   6.318   3.944   1.857 -0.2964  0.3326  0.1151
 8164SOL     OW26091   0.639   1.901   6.287  0.4323 -0.2477 -0.5083
 8164SOL    HW126092   0.617   1.812   6.249 -0.8076 -0.2344  0.1256
 8164SOL    HW226093   0.602   1.908   6.380  0.3302  0.9946 -0.6246
 8165SOL     OW26094   1.792   5.501   4.868  0.0257  1.0178  0.5892
 8165SOL    HW126095   1.740   5.418   4.885  0.9955  0.5700  1.4882
 8165SOL    HW226096   1.792   5.521   4.770  0.4984 -0.5358  0.2538
 8166SOL     OW26097   4.777   3.464   5.662  0.0716 -0.3576  0.4369
 8166SOL    HW126098   4.710   3.534   5.689 -1.8437 -1.9137 -0.0913
 8166SOL    HW226099   4.868   3.506   5.660 -0.9829  2.1453  0.0714
 8167SOL     OW26100   6.509   0.562   6.136 -0.2329  0.7130  0.0380
 8167SOL    HW126101   6.491   0.591   6.230 -0.4603 -0.1201  0.2639
 8167SOL    HW226102   6.463   0.625   6.073 -1.5935  0.2709  0.5410
 8168SOL     OW26103   0.372   0.868   4.555  0.2725  0.1363  0.5359
 8168SOL    HW126104   0.362   0.831   4.462 -0.8704  0.6306  0.4453
 8168SOL    HW226105   0.431   0.949   4.552  1.8938 -0.9843  0.5732
 8169SOL     OW26106   2.204   3.127   1.719 -0.3654 -0.2691 -0.4227
 8169SOL    HW126107   2.247   3.050   1.672  1.1492 -0.3624  1.0134
 8169SOL    HW226108   2.167   3.191   1.652 -2.5451 -2.6546 -1.6521
 8170SOL     OW26109   1.182   0.429   1.399  0.9529  0.1069 -0.5169
 8170SOL    HW126110   1.236   0.347   1.418 -1.1984 -1.5910 -1.2426
 8170SOL    HW226111   1.198   0.458   1.304  1.5388  0.4027 -0.3316
 8171SOL     OW26112   5.085   3.387   2.052 -0.2034  0.4022 -0.0723
 8171SOL    HW126113   5.075   3.478   2.092  1.1918 -0.4389  2.3696
 8171SOL    HW226114   5.169   3.382   1.998 -0.7433  0.7704 -0.9824
 8172SOL     OW26115   4.385   6.981   4.606 -0.3830 -0.1690  0.6024
 8172SOL    HW126116   4.459   6.932   4.561  1.2503  1.9973  0.7693
 8172SOL    HW226117   4.335   7.036   4.539 -0.5960 -0.1200  0.7998
 8173SOL     OW26118   6.457   5.841   6.504 -0.0613  0.3378 -0.9442
 8173SOL    HW126119   6.410   5.905   6.444 -0.4462 -0.8455 -1.9674
 8173SOL    HW226120   6.497   5.767   6.448  0.3120 -0.3391  0.1883
 8174SOL     OW26121   0.734   4.408   6.011 -0.5242  0.2426  0.6431
 8174SOL    HW126122   0.673   4.419   5.932  0.3437 -1.4790 -0.3452
 8174SOL    HW226123   0.686   4.436   6.094 -2.9440 -1.5977  0.0129
 8175SOL     OW26124   5.179   6.570   3.720 -0.1859  0.5364 -0.2785
 8175SOL    HW126125   5.166   6.478   3.683  1.1368  0.1023  0.2502
 8175SOL    HW226126   5.251   6.616   3.668  1.6147 -0.0352  1.5772
 8176SOL     OW26127   3.747   5.057   0.748  0.0744  0.5274  0.1139
 8176SOL    HW126128   3.693   5.046   0.665  0.2150  2.9317 -0.3654
 8176SOL    HW226129   3.749   5.153   0.774 -0.9106 -0.2558  3.5838
 8177SOL     OW26130   5.576   3.535   6.817 -0.0134 -0.0158 -0.0380
 8177SOL    HW126131   5.521   3.598   6.872  1.0106 -0.1441  1.1745
 8177SOL    HW226132   5.673   3.552   6.834  0.2914 -1.8066  0.1741
 8178SOL     OW26133   4.072   4.664   1.107  0.6057 -0.1523 -0.2009
 8178SOL    HW126134   4.087   4.571   1.140  1.3042 -0.4520 -1.2893
 8178SOL    HW226135   4.128   4.728   1.160  1.2331 -0.5384 -0.3852
 8179SOL     OW26136   2.313   2.553   0.717  0.4626 -0.0061 -0.1702
 8179SOL    HW126137   2.214   2.539   0.716  0.6631 -1.5662 -1.3836
 8179SOL    HW226138   2.359   2.467   0.697  2.0948  0.6297  0.7021
 8180SOL     OW26139   5.022   4.018   2.236  0.5559 -0.5662 -0.1708
 8180SOL    HW126140   5.117   3.987   2.226  1.1138  0.7767  0.6134
 8180SOL    HW226141   4.996   4.011   2.333  0.4610  0.6692 -0.0934
 8181SOL     OW26142   1.129   4.796   6.935 -0.5520  0.2289  0.5796
 8181SOL    HW126143   1.169   4.709   6.907 -1.4172 -0.7077  2.0567
 8181SOL    HW226144   1.177   4.872   6.891 -0.8287 -1.0167 -2.0606
 8182SOL     OW26145   4.918   6.875   2.923 -0.0934 -0.2364 -0.1193
 8182SOL    HW126146   4.921   6.805   2.851 -1.8372 -0.5677  0.0878
 8182SOL    HW226147   4.978   6.848   2.999 -0.4677 -1.3291 -0.1985
 8183SOL     OW26148   5.635   1.274   2.372 -0.5921  0.0523 -0.3952
 8183SOL    HW126149   5.649   1.352   2.433 -1.5640  1.7969 -2.2787
 8183SOL    HW226150   5.652   1.189   2.422 -1.0035  1.3811  2.1692
 8184SOL     OW26151   3.901   4.785   0.566 -0.1195  0.7155  0.4551
 8184SOL    HW126152   3.919   4.687   0.576  0.6961  0.6545 -1.1867
 8184SOL    HW226153   3.849   4.800   0.481  0.5983  1.7766  0.1928
 8185SOL     OW26154   2.022   3.315   3.187 -0.3993  0.6904  0.5247
 8185SOL    HW126155   1.980   3.398   3.150 -0.0381  0.2063 -1.0170
 8185SOL    HW226156   2.083   3.275   3.120 -0.0955 -0.5083  1.4747
 8186SOL     OW26157   2.026   4.390   1.126  0.2345  0.9881  0.9519
 8186SOL    HW126158   1.930   4.419   1.132 -0.0107  0.6582 -0.9753
 8186SOL    HW226159   2.041   4.313   1.188 -1.2177 -0.1440 -0.0426
 8187SOL     OW26160   4.456   2.071   3.428 -0.5888  0.0891  0.0489
 8187SOL    HW126161   4.465   2.061   3.527 -0.2170  2.6933  0.3565
 8187SOL    HW226162   4.542   2.044   3.384  0.9057  2.9696  0.9190
 8188SOL     OW26163   0.928   0.473   6.968 -0.6924  0.1794  0.0678
 8188SOL    HW126164   0.874   0.413   6.907 -1.5535 -0.5666  1.5066
 8188SOL    HW226165   0.898   0.567   6.956  0.2489  0.2822 -1.7857
 8189SOL     OW26166   5.395   1.634   5.691 -0.0797  0.6961 -0.6123
 8189SOL    HW126167   5.409   1.721   5.739  1.3268 -1.3824  3.2537
 8189SOL    HW226168   5.300   1.605   5.700  0.1157  0.4404  0.9632
 8190SOL     OW26169   0.125   1.566   2.293 -0.1526 -0.1811 -0.0609
 8190SOL    HW126170   0.063   1.584   2.216  0.7862  0.0954 -0.7750
 8190SOL    HW226171   0.098   1.482   2.339 -0.3821 -0.6695 -1.0650
 8191SOL     OW26172   3.927   6.661   2.177  0.3127 -0.2744 -0.3731
 8191SOL    HW126173   3.997   6.719   2.136 -0.6776  0.8196 -0.5443
 8191SOL    HW226174   3.865   6.717   2.232  1.0628 -1.5519  1.9537
 8192SOL     OW26175   1.988   2.485   2.443 -0.0727 -0.7267 -0.0826
 8192SOL    HW126176   1.893   2.513   2.459  0.5403  2.4598 -1.2703
 8192SOL    HW226177   2.018   2.424   2.516 -2.3014  0.0650  1.6128
 8193SOL     OW26178   0.081   2.445   1.237 -0.3712  0.5580  0.0677
 8193SOL    HW126179   0.104   2.526   1.292 -1.3840  1.5553 -0.9357
 8193SOL    HW226180  -0.013   2.452   1.204 -0.2502 -0.7092 -0.6243
 8194SOL     OW26181   5.177   6.411   4.005  0.2686 -0.1911 -0.2613
 8194SOL    HW126182   5.265   6.446   3.972  0.5271  1.7662  2.2043
 8194SOL    HW226183   5.108   6.483   3.996 -0.2480 -0.5158  0.9557
 8195SOL     OW26184   1.665   4.326   2.925  0.1455 -0.4365 -0.3479
 8195SOL    HW126185   1.625   4.402   2.977 -1.6258 -1.5470 -0.0098
 8195SOL    HW226186   1.683   4.250   2.987 -2.2389 -1.8890 -1.2804
 8196SOL     OW26187   6.050   6.552   4.282  0.0217 -0.2956 -0.1942
 8196SOL    HW126188   5.960   6.511   4.298 -0.9174  1.2781 -1.2533
 8196SOL    HW226189   6.092   6.509   4.202  0.1497 -0.9045  0.1915
 8197SOL     OW26190   5.851   3.652   1.075 -1.2407 -0.0450  0.4875
 8197SOL    HW126191   5.923   3.715   1.046 -2.1607  0.9293  0.2627
 8197SOL    HW226192   5.767   3.671   1.022 -1.4634 -1.6260  0.2323
 8198SOL     OW26193   4.455   5.406   3.931 -0.3382 -0.1361 -0.3138
 8198SOL    HW126194   4.540   5.404   3.984  0.6481 -3.4241 -1.7127
 8198SOL    HW226195   4.383   5.360   3.982  0.4682 -2.8152 -1.4049
 8199SOL     OW26196   5.304   4.414   6.356 -0.2374  0.9198  0.3464
 8199SOL    HW126197   5.307   4.404   6.257 -0.7204  0.6797  0.3529
 8199SOL    HW226198   5.375   4.479   6.386  0.4407  0.3898 -0.0753
 8200SOL     OW26199   3.872   6.170   2.676  0.3043 -0.1249  0.2387
 8200SOL    HW126200   3.775   6.160   2.697  0.2947  0.6513  0.6043
 8200SOL    HW226201   3.893   6.120   2.592 -0.2668 -0.8576  0.5170
 8201SOL     OW26202   6.134   2.030   2.919  0.0231  0.1363 -0.2733
 8201SOL    HW126203   6.066   2.034   2.993 -0.1646 -0.2365 -0.4247
 8201SOL    HW226204   6.089   2.045   2.832  0.3508  1.2454 -0.2605
 8202SOL     OW26205   0.170   1.968   0.914 -0.1563 -0.0682  0.4137
 8202SOL    HW126206   0.179   1.921   0.827 -0.8877 -0.8636  0.7571
 8202SOL    HW226207   0.084   1.942   0.958  1.1323 -1.3288  2.3493
 8203SOL     OW26208   3.017   1.817   5.822 -0.2072 -0.2299  0.0855
 8203SOL    HW126209   3.082   1.891   5.807  0.4101 -0.7484  0.1770
 8203SOL    HW226210   2.953   1.813   5.745 -0.0788  0.2237 -0.0476
 8204SOL     OW26211   6.409   0.565   0.206 -0.1303 -0.1147 -0.3284
 8204SOL    HW126212   6.416   0.467   0.223 -0.0048 -0.3533 -1.6182
 8204SOL    HW226213   6.456   0.588   0.120 -1.4867  0.7994 -0.8792
 8205SOL     OW26214   6.310   5.567   3.727 -0.4587 -0.0524 -0.3075
 8205SOL    HW126215   6.338   5.660   3.754 -0.4897 -0.3807  0.9513
 8205SOL    HW226216   6.390   5.507   3.726 -0.5102 -0.1157 -0.6390
 8206SOL     OW26217   4.179   0.299   5.014 -0.3312 -0.3207 -0.3036
 8206SOL    HW126218   4.243   0.328   4.943 -0.0956 -0.7408 -0.2691
 8206SOL    HW226219   4.088   0.289   4.975  0.1539 -2.4202 -1.0267
 8207SOL     OW26220   1.388   0.719   2.106 -0.0802 -0.6975 -0.1505
 8207SOL    HW126221   1.438   0.739   2.191  1.3412 -2.5903 -0.4701
 8207SOL    HW226222   1.380   0.803   2.052 -1.5494  0.6868  2.0710
 8208SOL     OW26223   6.765   2.260   0.487  0.3913 -0.0241  0.2654
 8208SOL    HW126224   6.722   2.294   0.572  0.0844  0.7714 -0.1949
 8208SOL    HW226225   6.754   2.329   0.415 -1.8461 -1.8065 -1.2378
 8209SOL     OW26226   2.745   4.825   5.183  0.0883 -0.5063 -0.5437
 8209SOL    HW126227   2.645   4.829   5.172  0.0427  1.4359  0.1917
 8209SOL    HW226228   2.767   4.758   5.254 -0.7700 -0.2261  0.0076
 8210SOL     OW26229   1.363   2.760   3.515 -0.1543  0.5037 -0.1522
 8210SOL    HW126230   1.316   2.776   3.428 -1.0764 -1.6008 -0.1201
 8210SOL    HW226231   1.332   2.672   3.553  2.8697 -0.3791  0.5214
 8211SOL     OW26232   1.031   2.555   6.185  0.2970 -0.1908 -0.0313
 8211SOL    HW126233   0.996   2.642   6.151  2.0826  0.2825 -0.7776
 8211SOL    HW226234   1.003   2.482   6.122 -0.6211 -0.0692  0.2212
 8212SOL     OW26235   3.352   3.331   0.345  0.1594 -0.5253 -0.3448
 8212SOL    HW126236   3.405   3.337   0.430  0.5813 -2.8588 -0.3541
 8212SOL    HW226237   3.261   3.369   0.359  0.3167 -0.6219  1.0953
 8213SOL     OW26238   1.947   1.649   3.615 -0.3834 -0.1193  0.0539
 8213SOL    HW126239   1.852   1.633   3.591 -0.1175 -0.9617 -0.4762
 8213SOL    HW226240   1.996   1.562   3.620  0.3914  0.3083  0.1864
 8214SOL     OW26241   5.578   2.828   2.105  0.0121  0.7840 -0.2874
 8214SOL    HW126242   5.490   2.861   2.140 -1.0713  0.0946 -2.1893
 8214SOL    HW226243   5.631   2.790   2.180 -2.5441 -1.4102  0.5820
 8215SOL     OW26244   5.964   1.737   1.799  0.1599  0.9102  0.2238
 8215SOL    HW126245   6.015   1.818   1.770  1.0571  0.3052  0.0755
 8215SOL    HW226246   6.028   1.667   1.829 -0.5701 -0.0093 -0.3243
 8216SOL     OW26247   6.490   0.727   5.475  0.4325 -0.3444  0.3344
 8216SOL    HW126248   6.414   0.786   5.503  0.4818 -1.0967  2.2175
 8216SOL    HW226249   6.510   0.742   5.378  0.1208  2.3395  0.6043
 8217SOL     OW26250   1.878   4.721   4.842  0.2401  0.6141 -0.7070
 8217SOL    HW126251   1.853   4.778   4.920  1.6471 -0.8502  0.8668
 8217SOL    HW226252   1.943   4.771   4.784 -1.4724  2.0403 -1.4948
 8218SOL     OW26253   4.969   4.253   6.074 -0.4287  0.1776  0.0552
 8218SOL    HW126254   4.883   4.266   6.122  0.0531 -0.0250  0.9884
 8218SOL    HW226255   4.996   4.157   6.079 -1.2102 -0.2149 -2.0879
 8219SOL     OW26256   1.280   3.805   1.964  0.0209 -0.5473  0.0021
 8219SOL    HW126257   1.271   3.868   2.042  1.0517 -1.2954  0.7698
 8219SOL    HW226258   1.230   3.841   1.886 -0.6611  0.4682  0.8690
 8220SOL     OW26259   3.643   0.074   5.975 -0.2817  0.0655  0.1458
 8220SOL    HW126260   3.639   0.129   5.892 -1.4443 -1.0166 -0.5440
 8220SOL    HW226261   3.658  -0.022   5.952 -1.0997 -0.3224  1.1292
 8221SOL     OW26262   5.407   4.929   2.868  0.2387 -0.0969  0.0295
 8221SOL    HW126263   5.313   4.912   2.838  1.0568  1.1600 -3.7901
 8221SOL    HW226264   5.416   5.024   2.897  0.8631  0.7230 -2.5933
 8222SOL     OW26265   5.074   4.577   4.907 -0.2190  0.7306 -0.2164
 8222SOL    HW126266   5.034   4.640   4.841  1.3504  1.1358 -0.8091
 8222SOL    HW226267   5.017   4.494   4.913 -0.1820  0.4960 -2.3918
 8223SOL     OW26268   1.327   3.590   4.361  0.1486  0.1984 -0.2315
 8223SOL    HW126269   1.281   3.614   4.447  0.4620  1.1499 -0.3274
 8223SOL    HW226270   1.330   3.490   4.352 -0.1149  0.0973  0.7348
 8224SOL     OW26271   2.881   3.349   5.433  0.2616 -0.3734  0.8625
 8224SOL    HW126272   2.835   3.435   5.408 -0.8195 -1.0502  0.4396
 8224SOL    HW226273   2.932   3.362   5.518 -1.0697  0.3141  1.5996
 8225SOL     OW26274   3.904   3.384   0.937 -0.2223 -0.2785  0.3581
 8225SOL    HW126275   3.903   3.367   1.036 -2.2907 -1.3226  0.2152
 8225SOL    HW226276   3.977   3.331   0.894 -0.7241 -1.5743  1.0729
 8226SOL     OW26277   1.579   3.995   5.421 -0.4418 -0.1902 -0.3499
 8226SOL    HW126278   1.653   3.937   5.387  2.0058  0.5313  3.1772
 8226SOL    HW226279   1.600   4.091   5.400 -1.5171 -0.1013 -1.1195
 8227SOL     OW26280   2.716   6.659   4.770 -0.1709  0.1507 -0.6167
 8227SOL    HW126281   2.738   6.688   4.677  0.9734  2.0921  0.1934
 8227SOL    HW226282   2.747   6.564   4.783  1.7806  0.6092 -1.5329
 8228SOL     OW26283   6.889   0.717   4.718  0.3616  0.3204 -0.2552
 8228SOL    HW126284   6.909   0.812   4.692  1.1108 -0.1945 -1.6605
 8228SOL    HW226285   6.921   0.656   4.646 -1.7763 -0.9058 -0.2138
 8229SOL     OW26286   1.598   3.888   3.642  0.2142  0.4961  0.2762
 8229SOL    HW126287   1.500   3.870   3.632  0.0439  0.4787  1.7027
 8229SOL    HW226288   1.636   3.825   3.710  1.2122  0.5287 -0.2444
 8230SOL     OW26289   1.677   4.449   0.256 -0.4207  0.2260  0.3433
 8230SOL    HW126290   1.651   4.471   0.162  1.1804 -2.4676 -0.8429
 8230SOL    HW226291   1.595   4.434   0.310 -1.5438 -2.7976 -1.9055
 8231SOL     OW26292   0.422   1.036   0.343  0.4287 -0.0502 -0.1418
 8231SOL    HW126293   0.516   1.004   0.344  0.2523 -0.6264 -0.8137
 8231SOL    HW226294   0.371   0.987   0.272 -0.1335  0.9465 -0.4463
 8232SOL     OW26295   3.923   1.330   6.198 -0.5388  0.0911 -0.4239
 8232SOL    HW126296   3.975   1.266   6.141  1.3868  0.3801  0.9136
 8232SOL    HW226297   3.957   1.423   6.183  0.2018  0.1373  1.3713
 8233SOL     OW26298   4.585   1.113   3.151  0.1818 -0.5594 -0.3049
 8233SOL    HW126299   4.639   1.032   3.126  0.8658 -0.4426  0.7160
 8233SOL    HW226300   4.537   1.095   3.237  1.7630  0.7073  0.9056
 8234SOL     OW26301   0.496   1.184   4.709 -0.5968  0.2590 -0.3047
 8234SOL    HW126302   0.488   1.265   4.767  1.8878  0.9990 -0.8756
 8234SOL    HW226303   0.445   1.198   4.624 -1.1814  0.7024  0.1098
 8235SOL     OW26304   2.652   4.385   1.780  0.4342  0.1152  0.2762
 8235SOL    HW126305   2.671   4.310   1.716 -1.8580 -0.5625  0.3004
 8235SOL    HW226306   2.727   4.451   1.776 -0.3332  1.0747 -4.5123
 8236SOL     OW26307   4.613   4.383   2.478 -0.0840 -0.3202 -0.2441
 8236SOL    HW126308   4.644   4.299   2.522 -0.9812 -0.8954 -0.6804
 8236SOL    HW226309   4.572   4.361   2.389 -0.0117  0.6139 -0.5211
 8237SOL     OW26310   2.550   5.674   4.190  0.1396  0.4144  0.2000
 8237SOL    HW126311   2.578   5.766   4.160  0.3395  0.1764 -0.3634
 8237SOL    HW226312   2.567   5.664   4.288  0.9902  0.6588  0.0864
 8238SOL     OW26313   1.166   0.489   1.107  0.4682  0.1710  0.2125
 8238SOL    HW126314   1.143   0.392   1.115  1.6657 -0.1859 -0.4839
 8238SOL    HW226315   1.261   0.499   1.079  0.3354  1.5550  0.1740
 8239SOL     OW26316   4.082   3.318   3.282 -0.2572 -0.1242 -0.5167
 8239SOL    HW126317   4.057   3.401   3.332  0.6400 -0.0119 -0.2286
 8239SOL    HW226318   4.011   3.248   3.295 -0.8831  0.5011 -0.5355
 8240SOL     OW26319   1.964   3.001   1.862 -0.0849 -0.3734  0.1631
 8240SOL    HW126320   2.052   3.039   1.832  0.5052 -2.2969 -0.7318
 8240SOL    HW226321   1.980   2.926   1.925 -1.1812  0.3032  1.2821
 8241SOL     OW26322   5.944   5.853   3.434 -0.3343 -0.0415 -0.1407
 8241SOL    HW126323   5.901   5.852   3.524  2.5181  0.6571  1.3104
 8241SOL    HW226324   6.037   5.818   3.440 -0.7380 -2.0863 -3.2690
 8242SOL     OW26325   4.831   0.666   1.678  0.5206 -0.3969  0.4219
 8242SOL    HW126326   4.736   0.691   1.696  0.7856  0.3185  0.8321
 8242SOL    HW226327   4.834   0.571   1.645 -0.5946  0.4075 -2.2404
 8243SOL     OW26328   6.298   0.275   3.204 -1.0777 -0.3062  0.1410
 8243SOL    HW126329   6.375   0.338   3.210 -1.1180 -0.3505  1.5935
 8243SOL    HW226330   6.220   0.313   3.254 -1.9911 -0.3097 -1.2129
 8244SOL     OW26331   1.493   6.719   5.697 -0.6853 -0.9582 -0.3110
 8244SOL    HW126332   1.457   6.677   5.613  0.6993 -0.5081 -1.1545
 8244SOL    HW226333   1.572   6.666   5.729 -0.8289 -0.7662  0.3824
 8245SOL     OW26334   3.993   3.037   1.839  0.0690 -0.2793 -0.0167
 8245SOL    HW126335   4.073   3.080   1.798 -0.0592  0.0559  0.0853
 8245SOL    HW226336   3.925   3.018   1.768 -1.0091  2.1429  0.2905
 8246SOL     OW26337   2.548   5.339   1.219 -0.8229 -0.4190 -0.2379
 8246SOL    HW126338   2.540   5.438   1.227 -0.7211 -0.4914  0.8351
 8246SOL    HW226339   2.644   5.313   1.209 -0.7387 -0.4841  0.6836
 8247SOL     OW26340   5.036   1.317   2.827  0.2757 -0.5102  0.0761
 8247SOL    HW126341   5.124   1.270   2.835  1.5815  1.5746 -1.1095
 8247SOL    HW226342   4.967   1.253   2.792  2.1179 -1.4707 -2.0849
 8248SOL     OW26343   4.435   3.581   2.033 -0.5379 -0.4808  0.2194
 8248SOL    HW126344   4.453   3.496   2.084 -0.3504 -0.3948  0.2980
 8248SOL    HW226345   4.388   3.559   1.948  0.2014 -0.7394 -0.1263
 8249SOL     OW26346   4.260   6.205   5.399  0.3106 -0.4836  0.0746
 8249SOL    HW126347   4.198   6.254   5.461  0.3914 -0.4828  0.1554
 8249SOL    HW226348   4.290   6.267   5.326 -0.5238 -0.7473 -0.5081
 8250SOL     OW26349   4.122   4.209   6.813  0.6536  0.0816  0.5718
 8250SOL    HW126350   4.166   4.247   6.895  2.1683  1.0998 -0.6407
 8250SOL    HW226351   4.191   4.165   6.756  0.4275  2.7067 -1.9504
 8251SOL     OW26352   0.727   0.822   2.879 -0.7884 -0.1129  0.1444
 8251SOL    HW126353   0.803   0.767   2.914 -0.5483  0.3078  0.2946
 8251SOL    HW226354   0.746   0.849   2.785 -1.8892 -2.0805 -0.6830
 8252SOL     OW26355   4.430   4.569   0.699 -0.0392 -0.0843  0.5036
 8252SOL    HW126356   4.427   4.580   0.798  5.9932 -0.2106  1.0957
 8252SOL    HW226357   4.455   4.657   0.657 -1.6244 -0.2488 -0.8794
 8253SOL     OW26358   6.086   1.849   5.803  0.2467 -0.4222  0.1825
 8253SOL    HW126359   6.029   1.903   5.742 -0.3070 -0.6020  0.5293
 8253SOL    HW226360   6.059   1.865   5.897  1.2199 -0.0062  0.4050
 8254SOL     OW26361   1.974   0.738   6.265 -0.1369  0.3663 -0.2745
 8254SOL    HW126362   1.895   0.768   6.211 -0.2839 -0.1034 -0.3314
 8254SOL    HW226363   2.020   0.817   6.304 -0.0202  0.7152 -1.0988
 8255SOL     OW26364   6.134   0.278   1.590  0.6160 -0.7371  0.6196
 8255SOL    HW126365   6.104   0.328   1.671  2.2487 -0.2984  0.9846
 8255SOL    HW226366   6.057   0.270   1.526  0.3289  2.5422  0.3916
 8256SOL     OW26367   2.566   1.618   0.135  0.0523 -0.7108  0.9050
 8256SOL    HW126368   2.585   1.621   0.037  0.8735  0.3733  1.0678
 8256SOL    HW226369   2.653   1.623   0.185 -0.2746 -2.3434  1.6968
 8257SOL     OW26370   3.112   5.838   2.896 -0.5103 -0.2113  0.1343
 8257SOL    HW126371   3.109   5.744   2.932  0.2627  0.1744  1.2582
 8257SOL    HW226372   3.019   5.874   2.892 -1.0738 -1.7183 -2.3058
 8258SOL     OW26373   2.989   0.836   3.946 -0.1547 -0.7301 -0.3974
 8258SOL    HW126374   2.974   0.746   3.906  0.5702 -0.8897 -0.3399
 8258SOL    HW226375   3.081   0.839   3.987 -0.5862 -0.3299  0.5740
 8259SOL     OW26376   1.200   0.354   2.884 -0.1966  0.6531 -0.1391
 8259SOL    HW126377   1.114   0.303   2.879  0.1859 -0.1868  1.3804
 8259SOL    HW226378   1.205   0.404   2.970  0.8301  0.7200 -0.2190
 8260SOL     OW26379   5.436   5.521   5.860 -0.9235 -0.1372  0.9174
 8260SOL    HW126380   5.427   5.609   5.906 -0.2906 -0.1024  0.9746
 8260SOL    HW226381   5.430   5.447   5.927 -0.6618 -0.1099  0.9706
 8261SOL     OW26382   1.658   6.172   3.907  0.0674 -0.1158  0.8825
 8261SOL    HW126383   1.599   6.235   3.959  1.3465 -0.3734  2.7481
 8261SOL    HW226384   1.744   6.218   3.886  0.1776 -0.5525  0.3840
 8262SOL     OW26385   2.546   3.118   5.890 -0.2109 -0.1196 -0.1639
 8262SOL    HW126386   2.553   3.041   5.827  1.6075 -0.5102  0.4650
 8262SOL    HW226387   2.572   3.202   5.842 -1.5527  0.0318 -0.6678
 8263SOL     OW26388   6.114   6.347   1.180 -0.1109 -0.4940 -0.3343
 8263SOL    HW126389   6.097   6.356   1.278  0.5767  0.3665 -0.2824
 8263SOL    HW226390   6.119   6.250   1.156  3.0240 -0.8478  1.1213
 8264SOL     OW26391   5.637   5.642   6.657 -0.2296 -0.0698  0.6889
 8264SOL    HW126392   5.592   5.705   6.720  1.8487  1.6598  0.5334
 8264SOL    HW226393   5.733   5.633   6.681  0.6157  0.5401 -2.1136
 8265SOL     OW26394   0.185   6.665   4.457 -0.2402  0.7597 -0.0684
 8265SOL    HW126395   0.236   6.750   4.472 -2.5199  2.0344  0.8495
 8265SOL    HW226396   0.155   6.629   4.545  1.5954 -1.6758 -0.3341
 8266SOL     OW26397   6.028   0.282   2.482  0.4155  0.1383 -0.0395
 8266SOL    HW126398   5.985   0.371   2.473  1.2902  0.6263  0.4104
 8266SOL    HW226399   5.983   0.229   2.554 -0.4620 -0.0109 -0.6917
 8267SOL     OW26400   6.839   0.632   6.483  0.1938 -0.7596 -0.1165
 8267SOL    HW126401   6.856   0.549   6.430  1.6507 -0.1797 -0.6143
 8267SOL    HW226402   6.876   0.711   6.434 -1.5202  0.2572  0.1513
 8268SOL     OW26403   0.358   0.770   5.260  0.1913  0.4696 -0.3301
 8268SOL    HW126404   0.290   0.716   5.209 -1.0331  2.1065 -0.5204
 8268SOL    HW226405   0.425   0.807   5.195 -0.6720  1.5562 -0.6418
 8269SOL     OW26406   0.170   6.946   1.157 -0.5294  0.6160  0.3975
 8269SOL    HW126407   0.205   7.027   1.204 -1.5259  1.2728  0.0433
 8269SOL    HW226408   0.180   6.866   1.216  1.0847  0.8643  0.4889
 8270SOL     OW26409   1.449   2.123   0.921  0.0506 -0.3832 -0.8387
 8270SOL    HW126410   1.532   2.072   0.943  0.0748 -1.1420 -2.5521
 8270SOL    HW226411   1.471   2.220   0.911  0.4386 -0.3561  0.1091
 8271SOL     OW26412   2.503   2.258   4.279  0.3739 -0.0358  0.3852
 8271SOL    HW126413   2.478   2.352   4.304 -1.0830 -0.1797 -0.3879
 8271SOL    HW226414   2.508   2.251   4.179  2.1233 -0.4137  0.4574
 8272SOL     OW26415   2.754   1.455   2.930 -0.6161 -0.4741  0.1576
 8272SOL    HW126416   2.755   1.368   2.881  1.1433 -1.2270  1.4377
 8272SOL    HW226417   2.726   1.440   3.025  1.3166  0.0517  0.8426
 8273SOL     OW26418   6.178   1.064   3.538 -0.4251 -0.3757  0.0273
 8273SOL    HW126419   6.209   1.112   3.456 -0.4862 -0.8743 -0.2843
 8273SOL    HW226420   6.247   1.074   3.610 -0.5641  0.4265  0.0614
 8274SOL     OW26421   6.710   0.072   1.739  0.2871 -0.4452 -0.5685
 8274SOL    HW126422   6.691  -0.023   1.760  0.8712 -0.4423 -0.0073
 8274SOL    HW226423   6.643   0.131   1.785 -0.2170 -0.5905 -1.1057
 8275SOL     OW26424   2.882   3.555   3.409 -0.3099 -0.1572 -0.3948
 8275SOL    HW126425   2.813   3.604   3.463  1.4221  1.4798  0.4483
 8275SOL    HW226426   2.852   3.551   3.313 -1.1605  1.3567 -0.2249
 8276SOL     OW26427   4.969   6.103   6.926  0.2483 -0.4570 -0.3328
 8276SOL    HW126428   4.976   6.194   6.967 -1.1007  0.0201 -1.0966
 8276SOL    HW226429   4.906   6.047   6.979 -0.5179 -0.2556 -1.0150
 8277SOL     OW26430   1.863   1.427   6.797 -0.4743  0.1328  0.5390
 8277SOL    HW126431   1.895   1.377   6.877  0.3934  0.5320  0.4570
 8277SOL    HW226432   1.776   1.472   6.818 -0.3808  0.0188  1.1716
 8278SOL     OW26433   6.080   0.360   3.379 -0.1361 -0.2129  0.2874
 8278SOL    HW126434   6.062   0.457   3.391  1.6988  0.3352 -1.0467
 8278SOL    HW226435   6.123   0.324   3.462  0.5182  0.4563  0.2438
 8279SOL     OW26436   0.432   2.690   1.172  0.3275 -0.3402 -0.3372
 8279SOL    HW126437   0.475   2.674   1.083 -2.8102 -1.1817 -1.8274
 8279SOL    HW226438   0.370   2.768   1.166  0.3574 -0.1602  1.2517
 8280SOL     OW26439   0.063   1.561   1.996  0.2885  0.1743 -0.0572
 8280SOL    HW126440   0.070   1.636   1.930 -0.4937 -0.7187 -1.1933
 8280SOL    HW226441  -0.008   1.497   1.966 -0.2174 -0.1724  1.7540
 8281SOL     OW26442   3.524   0.268   3.364 -0.1021 -0.1524  0.1211
 8281SOL    HW126443   3.473   0.235   3.285 -0.9934  0.3427  0.4779
 8281SOL    HW226444   3.594   0.201   3.389 -0.5521 -0.8265 -0.3977
 8282SOL     OW26445   3.151   1.242   5.928 -0.3669 -0.5058  0.0901
 8282SOL    HW126446   3.219   1.235   5.856 -1.4702 -0.6222 -0.9686
 8282SOL    HW226447   3.173   1.321   5.987  0.4121 -0.2681 -0.5042
 8283SOL     OW26448   4.892   1.329   1.611  0.4000  0.4127 -0.1355
 8283SOL    HW126449   4.951   1.406   1.589  1.9469 -0.8096 -0.4524
 8283SOL    HW226450   4.840   1.302   1.530  1.0098  0.1638 -0.4453
 8284SOL     OW26451   2.010   3.392   6.238  0.5016 -0.3384 -1.0635
 8284SOL    HW126452   1.916   3.422   6.256  1.1240 -0.0778  2.2778
 8284SOL    HW226453   2.014   3.292   6.242  0.5075 -0.3137 -0.4940
 8285SOL     OW26454   4.637   3.711   4.117  0.0010 -0.0335 -0.1952
 8285SOL    HW126455   4.554   3.761   4.146 -0.8827 -1.1075 -0.8083
 8285SOL    HW226456   4.622   3.613   4.129  1.0021 -0.2699 -0.8312
 8286SOL     OW26457   2.842   6.676   1.611  0.3707  0.1897 -0.2784
 8286SOL    HW126458   2.905   6.599   1.617  0.8962  0.3705 -2.5317
 8286SOL    HW226459   2.764   6.660   1.672  1.0600 -1.5191  0.2239
 8287SOL     OW26460   0.067   5.625   5.524 -0.1773 -0.0266  0.2687
 8287SOL    HW126461   0.053   5.722   5.502 -0.0272  0.0165  0.3603
 8287SOL    HW226462   0.084   5.615   5.622 -0.7840 -0.2131  0.3578
 8288SOL     OW26463   6.847   4.467   4.170  0.3509 -0.0859  0.1687
 8288SOL    HW126464   6.778   4.499   4.235 -0.4571 -2.4773  0.5775
 8288SOL    HW226465   6.819   4.491   4.077 -1.4599 -1.6544  0.2659
 8289SOL     OW26466   1.492   1.710   0.784  0.0266  0.0309  0.5423
 8289SOL    HW126467   1.414   1.699   0.845  0.6157  0.0731  1.3141
 8289SOL    HW226468   1.460   1.746   0.696 -0.7079  0.9839  1.1690
 8290SOL     OW26469   1.699   3.705   6.982  0.0816  0.3955  0.2200
 8290SOL    HW126470   1.774   3.660   6.933  0.4559  0.7456  0.4642
 8290SOL    HW226471   1.659   3.776   6.924 -0.4648 -0.1932 -0.1398
 8291SOL     OW26472   1.298   3.532   6.849 -0.2251 -0.1594  0.2355
 8291SOL    HW126473   1.257   3.454   6.897 -1.6618  0.2098 -0.3635
 8291SOL    HW226474   1.230   3.604   6.837  0.7679  0.7224 -0.2717
 8292SOL     OW26475   3.320   4.066   5.465 -0.1304  0.1251  0.0048
 8292SOL    HW126476   3.384   4.004   5.509 -0.0696 -0.1395 -0.4454
 8292SOL    HW226477   3.310   4.040   5.369 -0.5742  0.4357 -0.0350
 8293SOL     OW26478   0.785   3.452   5.605  0.2225  0.1836 -0.0452
 8293SOL    HW126479   0.847   3.384   5.568  0.4649  1.2082 -1.6115
 8293SOL    HW226480   0.837   3.519   5.660  0.2361  0.0556  0.0979
 8294SOL     OW26481   5.170   5.203   5.997  0.1628  0.3057  0.2623
 8294SOL    HW126482   5.266   5.227   5.987  1.2890 -2.7638  2.3009
 8294SOL    HW226483   5.117   5.285   6.021  2.1158  2.1218 -1.2447
 8295SOL     OW26484   0.859   2.813   3.672 -0.1258  0.0978 -0.3329
 8295SOL    HW126485   0.917   2.750   3.620  2.1536  1.4722  0.4035
 8295SOL    HW226486   0.869   2.794   3.769  0.0514  1.1234 -0.1406
 8296SOL     OW26487   3.336   3.085   0.186  0.0242 -0.5001 -0.5152
 8296SOL    HW126488   3.311   3.160   0.246  1.5270 -0.1364 -0.2838
 8296SOL    HW226489   3.371   3.009   0.241  0.5660 -0.5067 -0.8542
 8297SOL     OW26490   2.448   2.103   6.694 -0.5588  0.0688  0.0102
 8297SOL    HW126491   2.492   2.038   6.756  0.3547  1.3599  0.7562
 8297SOL    HW226492   2.406   2.177   6.747 -1.6913  0.0509 -0.8194
 8298SOL     OW26493   1.786   2.359   4.586 -0.2972  0.2379 -0.1255
 8298SOL    HW126494   1.846   2.350   4.666  1.3431  0.4845 -1.2718
 8298SOL    HW226495   1.732   2.443   4.594 -0.9095 -0.2519  1.1722
 8299SOL     OW26496   0.950   1.666   3.694  0.5865 -0.1807  0.5698
 8299SOL    HW126497   0.952   1.745   3.634 -0.5754  0.5577  1.4648
 8299SOL    HW226498   0.996   1.589   3.650  2.3058  1.1470 -0.0529
 8300SOL     OW26499   5.938   0.879   2.405  0.2522  0.4735 -0.1281
 8300SOL    HW126500   5.960   0.885   2.502 -0.4067  0.5443  0.0239
 8300SOL    HW226501   5.851   0.925   2.388  0.3439  0.4273 -0.7461
 8301SOL     OW26502   6.968   4.990   4.035  0.3638  0.3731 -0.4726
 8301SOL    HW126503   6.874   5.022   4.020 -0.8109 -1.8319  1.6398
 8301SOL    HW226504   6.973   4.892   4.018  1.8654  0.1271  1.1687
 8302SOL     OW26505   6.139   3.608   3.012 -0.3434  0.2863 -0.4556
 8302SOL    HW126506   6.193   3.595   2.928  0.2144  1.1392 -0.2388
 8302SOL    HW226507   6.183   3.561   3.088  2.1141  3.6928  0.5068
 8303SOL     OW26508   1.141   3.048   1.354  0.5723  0.5624  0.0335
 8303SOL    HW126509   1.229   3.093   1.340  1.0238 -0.8640 -2.2340
 8303SOL    HW226510   1.139   3.006   1.445  2.5478 -0.0028 -0.1527
 8304SOL     OW26511   6.654   4.297   1.665  0.3940  0.4090  0.0698
 8304SOL    HW126512   6.626   4.318   1.759 -1.0230 -0.4731 -0.1287
 8304SOL    HW226513   6.620   4.367   1.603  0.4835  0.4756  0.0964
 8305SOL     OW26514   1.003   6.438   2.123 -0.0170  0.3623 -1.0539
 8305SOL    HW126515   1.092   6.399   2.147  0.0735 -0.9318 -3.2489
 8305SOL    HW226516   0.935   6.365   2.117 -1.0029  1.1971 -0.5123
 8306SOL     OW26517   1.476   0.604   3.810 -0.4597  0.1997  0.3583
 8306SOL    HW126518   1.497   0.698   3.784 -0.2560  0.1925  0.4997
 8306SOL    HW226519   1.470   0.547   3.728  0.2922  0.1526  0.3295
 8307SOL     OW26520   5.208   4.304   5.350  0.2881  0.0030  0.1555
 8307SOL    HW126521   5.158   4.375   5.399  0.4163  0.4130 -0.2915
 8307SOL    HW226522   5.146   4.230   5.325 -0.1338  0.5703 -0.5098
 8308SOL     OW26523   2.823   6.774   4.534 -0.1133  0.2085  0.1260
 8308SOL    HW126524   2.918   6.746   4.526 -0.3330 -0.3088 -0.8569
 8308SOL    HW226525   2.794   6.816   4.448 -1.2354 -1.1196 -0.1807
 8309SOL     OW26526   1.881   4.840   5.643 -0.1473  0.8612 -0.0196
 8309SOL    HW126527   1.809   4.799   5.699  0.6003 -0.5792 -0.0569
 8309SOL    HW226528   1.891   4.787   5.559  1.4564  0.5448  0.3372
 8310SOL     OW26529   0.002   3.053   2.453 -0.1063 -0.3015 -0.0924
 8310SOL    HW126530  -0.019   3.055   2.551 -0.4550 -2.7352 -0.0510
 8310SOL    HW226531  -0.072   3.007   2.404 -0.8605  2.5167 -1.8443
 8311SOL     OW26532   1.695   0.383   5.023 -0.3970 -0.5836 -0.3526
 8311SOL    HW126533   1.620   0.383   5.089  0.5390  0.2340  0.7533
 8311SOL    HW226534   1.729   0.290   5.010 -0.8044 -0.7935  0.0791
 8312SOL     OW26535   5.470   0.973   2.428 -0.0467 -0.3335  0.0498
 8312SOL    HW126536   5.475   0.944   2.523  1.7436  0.1100  0.1247
 8312SOL    HW226537   5.402   0.917   2.380  0.7024 -2.1797  1.0282
 8313SOL     OW26538   0.750   4.867   2.581  0.3521  0.3709  0.3819
 8313SOL    HW126539   0.654   4.874   2.555  0.2901  0.8912  0.7242
 8313SOL    HW226540   0.778   4.771   2.584 -0.3439  0.1843  0.9658
 8314SOL     OW26541   4.250   5.942   2.609 -0.3048  0.4367  0.4599
 8314SOL    HW126542   4.159   5.946   2.569 -0.4603  2.3349  0.9239
 8314SOL    HW226543   4.267   6.025   2.663  2.7142  1.5665 -1.9226
 8315SOL     OW26544   5.142   2.236   5.402 -0.2620  0.1116  0.3201
 8315SOL    HW126545   5.069   2.232   5.470 -0.4091  3.8657  0.5657
 8315SOL    HW226546   5.230   2.242   5.448 -0.2781  1.5340  0.1942
 8316SOL     OW26547   6.363   4.751   0.266  0.4671 -0.2229 -0.1121
 8316SOL    HW126548   6.407   4.665   0.240  2.1604  0.4917  0.2723
 8316SOL    HW226549   6.432   4.823   0.271 -0.8047  0.9970  0.3265
 8317SOL     OW26550   1.723   2.844   3.263  0.0348  0.8580 -0.0787
 8317SOL    HW126551   1.663   2.817   3.188  0.8769  0.4139 -0.5991
 8317SOL    HW226552   1.689   2.806   3.349 -0.7326  1.0749 -0.2759
 8318SOL     OW26553   1.849   6.628   1.102 -0.0892  0.4331 -0.5099
 8318SOL    HW126554   1.864   6.637   1.200 -0.6876  0.9797 -0.4647
 8318SOL    HW226555   1.896   6.546   1.068 -1.0029 -0.5213  0.4712
 8319SOL     OW26556   5.633   3.058   0.193 -0.1378  0.3351 -0.1833
 8319SOL    HW126557   5.665   3.020   0.106 -2.7918 -0.8218 -0.7334
 8319SOL    HW226558   5.561   3.125   0.176 -1.1906 -0.4264  1.1326
 8320SOL     OW26559   2.619   4.802   4.594  0.1794  0.5211  0.2123
 8320SOL    HW126560   2.562   4.822   4.674  0.4270 -1.7373  1.0187
 8320SOL    HW226561   2.562   4.775   4.517  0.0363  0.9989  0.1464
 8321SOL     OW26562   0.952   0.762   1.857 -0.4602  0.0928 -0.0696
 8321SOL    HW126563   0.962   0.849   1.808 -0.2963  0.5617  0.7794
 8321SOL    HW226564   0.965   0.777   1.955  0.1297 -0.9947  0.0324
 8322SOL     OW26565   4.470   0.788   5.122  0.0077  0.5711  0.2207
 8322SOL    HW126566   4.516   0.715   5.072  1.8266  0.3515  2.1099
 8322SOL    HW226567   4.494   0.784   5.219  0.5235  3.8869  0.3676
 8323SOL     OW26568   0.370   2.324   1.456 -0.1030 -0.4636 -0.0007
 8323SOL    HW126569   0.274   2.353   1.453  0.6598  2.3387 -2.0796
 8323SOL    HW226570   0.409   2.349   1.545 -0.7998  0.3536  0.0974
 8324SOL     OW26571   5.315   5.911   5.746 -0.0923 -0.2361  0.1214
 8324SOL    HW126572   5.364   5.867   5.822  0.3573  0.8799  0.4902
 8324SOL    HW226573   5.295   6.006   5.770  0.8277  0.3984 -1.4913
 8325SOL     OW26574   1.344   5.303   5.834 -0.0180  0.5533  0.2882
 8325SOL    HW126575   1.408   5.343   5.767 -0.7345  0.1475 -0.6695
 8325SOL    HW226576   1.268   5.365   5.848 -1.6358 -0.7859 -1.9440
 8326SOL     OW26577   4.764   5.831   5.971  0.3411  0.0685  0.0124
 8326SOL    HW126578   4.807   5.768   6.036  1.4374  0.9546  0.1843
 8326SOL    HW226579   4.770   5.792   5.879  1.5946  0.1645  0.0255
 8327SOL     OW26580   1.544   4.014   4.907 -0.0995 -0.2126  0.4817
 8327SOL    HW126581   1.488   3.932   4.917  1.0931 -0.8958  1.8232
 8327SOL    HW226582   1.617   3.997   4.841  0.0715 -0.1864  0.6644
 8328SOL     OW26583   6.575   5.264   1.504  0.6118  0.1726 -0.1890
 8328SOL    HW126584   6.480   5.283   1.528 -0.0961 -1.2231 -1.6787
 8328SOL    HW226585   6.632   5.268   1.586 -1.2007 -1.6469  1.2608
 8329SOL     OW26586   1.822   5.636   2.175  0.5640 -0.2305  0.0058
 8329SOL    HW126587   1.830   5.536   2.181  0.8120 -0.1928  0.3956
 8329SOL    HW226588   1.902   5.678   2.219  1.6155  0.1403 -2.1416
 8330SOL     OW26589   6.948   5.110   2.732  0.1529  0.7252  0.4540
 8330SOL    HW126590   6.932   5.167   2.813  0.8835  0.1132  1.0394
 8330SOL    HW226591   7.041   5.074   2.734 -0.0027  0.2526 -0.3828
 8331SOL     OW26592   6.450   0.941   4.284 -0.2852 -0.8610 -0.6931
 8331SOL    HW126593   6.489   1.028   4.315 -0.8832 -0.0553 -2.0914
 8331SOL    HW226594   6.477   0.868   4.346  2.9283 -0.2442 -1.2076
 8332SOL     OW26595   5.575   3.519   1.283  0.0331 -0.4826 -0.1309
 8332SOL    HW126596   5.542   3.556   1.370  2.2755  0.6718  0.3108
 8332SOL    HW226597   5.601   3.423   1.295  0.6483 -0.2359  0.5904
 8333SOL     OW26598   3.253   5.029   5.987 -0.2895 -0.2935  0.2622
 8333SOL    HW126599   3.261   5.124   6.019  1.7334 -0.0561 -0.7969
 8333SOL    HW226600   3.179   5.023   5.920 -0.0338  0.6884 -0.1310
 8334SOL     OW26601   6.832   3.263   0.726  0.7709  0.3592 -0.0892
 8334SOL    HW126602   6.774   3.212   0.788  2.3974 -0.6229  0.6965
 8334SOL    HW226603   6.891   3.200   0.675  0.9292  1.2898 -1.0958
 8335SOL     OW26604   3.629   6.894   1.285 -0.5382  0.1759  0.3889
 8335SOL    HW126605   3.654   6.910   1.190  0.5686 -1.5994  0.3310
 8335SOL    HW226606   3.699   6.933   1.345  1.4176 -2.8079  0.2790
 8336SOL     OW26607   0.187   4.721   2.599 -0.2987  0.0863  0.1988
 8336SOL    HW126608   0.213   4.645   2.540 -1.2731  0.2397 -0.4480
 8336SOL    HW226609   0.209   4.807   2.553 -0.9016  0.2043  0.1226
 8337SOL     OW26610   4.998   6.597   3.931 -0.6641 -0.5044  0.5127
 8337SOL    HW126611   5.036   6.598   3.839 -2.2006 -1.0376 -0.1584
 8337SOL    HW226612   5.011   6.686   3.974  0.0079 -0.2347 -0.2425
 8338SOL     OW26613   3.227   3.395   1.494  0.2415  0.0286  0.2061
 8338SOL    HW126614   3.286   3.331   1.446  1.4935  1.7886 -0.6916
 8338SOL    HW226615   3.270   3.486   1.496 -1.5068  0.8887  1.3463
 8339SOL     OW26616   2.454   2.330   5.966 -0.2753  0.1238 -0.0050
 8339SOL    HW126617   2.462   2.387   6.048  2.1230 -0.5956  0.3210
 8339SOL    HW226618   2.435   2.236   5.993 -0.5816  0.0851 -0.3492
 8340SOL     OW26619   4.213   6.645   3.441 -0.2141 -0.5424  0.2707
 8340SOL    HW126620   4.308   6.618   3.460 -0.0587  0.4222  0.9545
 8340SOL    HW226621   4.171   6.578   3.380  1.7696  0.4280 -2.3953
 8341SOL     OW26622   6.614   0.460   1.243  0.5471 -0.3354  0.1631
 8341SOL    HW126623   6.590   0.390   1.176 -1.5885  0.6983 -0.2325
 8341SOL    HW226624   6.713   0.460   1.257  0.9904 -1.0969 -2.4117
 8342SOL     OW26625   2.594   0.197   0.342  0.1062  0.0721 -0.0499
 8342SOL    HW126626   2.539   0.247   0.275 -0.6941  0.0017  0.5445
 8342SOL    HW226627   2.686   0.183   0.305  0.2848  1.7408 -0.3531
 8343SOL     OW26628   5.396   3.591   0.462  0.7268  0.3163 -0.1106
 8343SOL    HW126629   5.407   3.645   0.546 -1.5099 -0.5604  0.8094
 8343SOL    HW226630   5.347   3.507   0.482 -0.0221  0.1510 -2.3336
 8344SOL     OW26631   0.902   4.062   2.006 -0.7260  0.3268  0.4270
 8344SOL    HW126632   0.965   4.126   2.050 -0.2842 -0.5147  1.0744
 8344SOL    HW226633   0.900   3.977   2.059 -1.5976 -0.0469 -0.1892
 8345SOL     OW26634   4.764   0.482   4.184  0.5035  0.8823  0.0681
 8345SOL    HW126635   4.710   0.412   4.230  1.2475  0.0519 -0.2971
 8345SOL    HW226636   4.770   0.460   4.087 -0.5346  2.2836 -0.3511
 8346SOL     OW26637   4.857   3.233   3.263 -0.6136  0.5364 -0.4699
 8346SOL    HW126638   4.841   3.181   3.179 -0.6479 -0.3128  0.0451
 8346SOL    HW226639   4.770   3.244   3.312 -0.3159 -0.6928  0.4071
 8347SOL     OW26640   4.660   2.894   6.989  0.1101 -0.4587  0.1537
 8347SOL    HW126641   4.679   2.876   7.086 -1.6039 -2.8313  0.1390
 8347SOL    HW226642   4.593   2.969   6.983  1.5352  0.9091  0.6653
 8348SOL     OW26643   0.863   5.114   6.825  0.2455 -0.4543  0.4057
 8348SOL    HW126644   0.826   5.200   6.792  0.1484 -0.3352  0.8200
 8348SOL    HW226645   0.910   5.129   6.912  0.7657 -0.7081  0.1771
 8349SOL     OW26646   2.794   2.972   0.722 -0.2348 -0.2038 -0.1373
 8349SOL    HW126647   2.796   2.944   0.818 -0.8164  0.9107  0.2182
 8349SOL    HW226648   2.770   2.894   0.665  1.3051 -1.1754  0.4889
 8350SOL     OW26649   1.727   6.929   2.939  0.2909 -0.4063 -0.0501
 8350SOL    HW126650   1.759   7.022   2.962 -0.3576  0.0207 -0.8354
 8350SOL    HW226651   1.806   6.874   2.911  0.7091 -0.1529  0.5879
 8351SOL     OW26652   3.625   1.117   2.711  0.0077  0.0563 -0.1322
 8351SOL    HW126653   3.682   1.035   2.702 -0.1357  0.1632 -2.7483
 8351SOL    HW226654   3.676   1.188   2.759  2.1431  0.1409 -2.3591
 8352SOL     OW26655   1.148   6.331   1.275  0.4394 -0.2397  0.3381
 8352SOL    HW126656   1.082   6.294   1.340 -0.0123  0.0166  0.0338
 8352SOL    HW226657   1.129   6.295   1.184 -0.6856  1.5211 -0.1751
 8353SOL     OW26658   2.457   2.088   5.210  0.0877  0.7403 -0.0435
 8353SOL    HW126659   2.501   2.170   5.249  0.7182  0.8191 -0.8928
 8353SOL    HW226660   2.490   2.074   5.117 -0.6677 -0.0030 -0.2061
 8354SOL     OW26661   3.396   6.070   3.680  0.2936 -0.4562  0.2527
 8354SOL    HW126662   3.374   6.087   3.584 -1.5704 -2.0619  0.3085
 8354SOL    HW226663   3.417   6.156   3.726 -0.1857  0.5098 -1.2634
 8355SOL     OW26664   6.087   5.304   1.898  0.4970  0.2975 -0.2370
 8355SOL    HW126665   6.153   5.348   1.959  0.0229  0.9386 -0.1787
 8355SOL    HW226666   5.995   5.317   1.934  0.4218 -1.9803  0.5594
 8356SOL     OW26667   5.254   2.342   2.911 -0.0524 -0.5061  0.0234
 8356SOL    HW126668   5.337   2.349   2.967 -0.5887  0.3090  0.7385
 8356SOL    HW226669   5.243   2.248   2.880  0.3401 -0.9459  1.1637
 8357SOL     OW26670   1.607   5.669   2.004 -0.4073  0.3472 -0.4873
 8357SOL    HW126671   1.682   5.692   2.067 -1.7486  2.9397  0.2595
 8357SOL    HW226672   1.555   5.592   2.042  0.3194  0.2216  0.2866
 8358SOL     OW26673   6.487   2.236   1.900  0.1944 -0.5896  0.1217
 8358SOL    HW126674   6.470   2.218   1.997 -0.5651 -0.1747  0.0727
 8358SOL    HW226675   6.452   2.326   1.876 -1.0739 -1.3104 -0.8928
 8359SOL     OW26676   3.264   4.888   3.054  0.0254  0.5357 -0.0108
 8359SOL    HW126677   3.166   4.904   3.066  0.0326  0.5202  0.0687
 8359SOL    HW226678   3.312   4.909   3.139 -0.1950 -1.7857  0.7595
 8360SOL     OW26679   2.028   0.040   2.538  0.1462 -0.3046  0.3809
 8360SOL    HW126680   2.034  -0.059   2.545 -0.1340 -0.3456  0.0734
 8360SOL    HW226681   2.019   0.067   2.442  1.3628  0.0883  0.3691
 8361SOL     OW26682   0.236   1.218   2.531  0.1170 -0.1604  0.1021
 8361SOL    HW126683   0.296   1.241   2.608 -0.7344 -0.0727  0.7557
 8361SOL    HW226684   0.259   1.276   2.453  0.7697 -0.0122  0.3897
 8362SOL     OW26685   3.532   5.930   4.684  0.5797  0.1809 -0.0789
 8362SOL    HW126686   3.453   5.989   4.666  1.8891  2.1988  0.3910
 8362SOL    HW226687   3.561   5.942   4.779  0.3926 -1.9334  0.2911
 8363SOL     OW26688   6.542   3.482   6.489  0.4765 -0.1650  0.2116
 8363SOL    HW126689   6.580   3.465   6.580 -0.2395  1.2755  0.8165
 8363SOL    HW226690   6.444   3.500   6.496  0.7320  1.8693 -0.5429
 8364SOL     OW26691   0.066   5.719   2.624 -0.1972  0.3035 -0.3239
 8364SOL    HW126692   0.160   5.738   2.594  0.5368  0.1220  1.6651
 8364SOL    HW226693   0.005   5.717   2.545  1.8713 -2.1483 -1.9963
 8365SOL     OW26694   4.853   0.160   0.595  0.1309 -0.4819 -0.9933
 8365SOL    HW126695   4.946   0.169   0.559  0.8444 -0.8170  0.6712
 8365SOL    HW226696   4.826   0.064   0.593  0.8380 -0.7608  0.8247
 8366SOL     OW26697   5.757   1.855   5.781 -0.4772 -0.2568 -0.7495
 8366SOL    HW126698   5.758   1.853   5.881 -1.0707 -0.6638 -0.7424
 8366SOL    HW226699   5.820   1.925   5.748  0.2011 -0.5518 -0.1108
 8367SOL     OW26700   5.038   5.427   6.143 -0.6831  0.0994 -0.2940
 8367SOL    HW126701   5.001   5.469   6.060 -1.5072 -1.4814 -0.7723
 8367SOL    HW226702   4.983   5.454   6.222  0.6847  2.3919 -0.0570
 8368SOL     OW26703   5.308   1.174   2.859 -0.1487 -0.3418  0.0803
 8368SOL    HW126704   5.293   1.090   2.912 -1.6477 -0.3079 -0.2403
 8368SOL    HW226705   5.311   1.152   2.762 -1.4900  0.0430 -0.0755
 8369SOL     OW26706   2.931   2.878   6.343 -0.0272 -0.0463 -0.0232
 8369SOL    HW126707   2.919   2.976   6.330 -2.2961 -0.2366  0.3144
 8369SOL    HW226708   2.937   2.833   6.254  0.3369  0.3189 -0.1863
 8370SOL     OW26709   6.685   2.706   6.431  0.4261 -0.2252 -0.2349
 8370SOL    HW126710   6.774   2.745   6.456  0.3043  2.1313 -3.0304
 8370SOL    HW226711   6.695   2.649   6.350 -0.4948 -0.6697 -0.0466
 8371SOL     OW26712   3.215   5.372   6.749 -0.2255 -0.1785  0.3863
 8371SOL    HW126713   3.119   5.393   6.732 -0.6536 -0.8971  1.7336
 8371SOL    HW226714   3.235   5.279   6.718 -0.0799 -0.1701  0.4553
 8372SOL     OW26715   5.004   0.902   2.102 -0.3546  0.0252 -0.1133
 8372SOL    HW126716   5.039   0.868   2.189  0.7548  0.5257 -0.3442
 8372SOL    HW226717   4.904   0.910   2.107 -0.4595 -1.4095  0.5754
 8373SOL     OW26718   4.253   2.655   0.118  0.8183 -0.0319 -0.4861
 8373SOL    HW126719   4.312   2.718   0.170 -0.7491  1.1548 -0.0799
 8373SOL    HW226720   4.257   2.564   0.160 -1.6047  1.2011  2.8993
 8374SOL     OW26721   3.333   5.736   1.668  0.1515 -0.8738  0.1066
 8374SOL    HW126722   3.263   5.664   1.671 -2.7197  1.7000 -0.2987
 8374SOL    HW226723   3.379   5.734   1.580 -0.8850 -1.3607 -0.4454
 8375SOL     OW26724   1.664   1.574   3.583 -0.6307 -0.3087 -0.5591
 8375SOL    HW126725   1.600   1.527   3.643 -1.2762  1.2954  0.0718
 8375SOL    HW226726   1.624   1.660   3.552 -0.0952 -0.8186 -2.8817
 8376SOL     OW26727   6.862   0.107   5.507 -0.3903  0.2145 -0.2838
 8376SOL    HW126728   6.888   0.024   5.459  0.8975 -0.0031  0.7511
 8376SOL    HW226729   6.793   0.156   5.453  2.4291  1.0720 -3.4258
 8377SOL     OW26730   4.944   1.823   5.381  0.2874 -0.0024  0.4274
 8377SOL    HW126731   4.935   1.822   5.281  0.3197 -0.2014  0.4258
 8377SOL    HW226732   4.908   1.737   5.418 -1.0773  0.6637  0.7012
 8378SOL     OW26733   0.577   3.985   3.931  0.1762  0.0325  0.9248
 8378SOL    HW126734   0.597   3.894   3.894  1.2385 -0.0178  1.5634
 8378SOL    HW226735   0.544   4.044   3.858 -3.3467 -1.6005  1.0074
 8379SOL     OW26736   6.527   5.878   4.829 -0.0146 -0.1755 -0.5285
 8379SOL    HW126737   6.603   5.940   4.847 -0.0005 -0.1716 -0.6000
 8379SOL    HW226738   6.560   5.784   4.831 -0.0974 -0.1993 -0.1024
 8380SOL     OW26739   2.475   1.132   6.839  0.1716  0.3194  0.4218
 8380SOL    HW126740   2.400   1.066   6.832  0.4332  0.1302 -0.9618
 8380SOL    HW226741   2.494   1.151   6.935 -1.2525 -0.0749  0.8070
 8381SOL     OW26742   6.181   6.792   1.363 -0.3696 -0.0973 -0.3177
 8381SOL    HW126743   6.263   6.740   1.337 -0.2319 -0.3785  0.6271
 8381SOL    HW226744   6.198   6.890   1.352 -0.4966 -0.2236 -1.7490
 8382SOL     OW26745   4.407   2.868   3.661 -0.0660 -0.0259  0.5242
 8382SOL    HW126746   4.489   2.910   3.701 -0.4284  2.1146 -0.8364
 8382SOL    HW226747   4.424   2.846   3.565 -0.6132 -1.0161  0.6403
 8383SOL     OW26748   3.726   4.289   6.309 -0.8022  0.1553  0.0210
 8383SOL    HW126749   3.769   4.217   6.363 -1.5292 -0.4668 -0.2050
 8383SOL    HW226750   3.629   4.294   6.333 -0.6321  1.4768  0.4677
 8384SOL     OW26751   1.301   0.381   0.419  0.1205 -0.2331  0.3456
 8384SOL    HW126752   1.284   0.338   0.330  1.9576 -1.1260  0.3950
 8384SOL    HW226753   1.356   0.320   0.476 -1.1937  0.2253  2.2220
 8385SOL     OW26754   3.924   3.753   0.181 -0.0183  0.2345 -0.2884
 8385SOL    HW126755   3.841   3.759   0.125  0.4923  0.9591 -1.0089
 8385SOL    HW226756   3.998   3.714   0.126 -0.1126 -1.3346  0.6493
 8386SOL     OW26757   0.040   0.636   0.484 -0.4950  0.9934  0.4871
 8386SOL    HW126758   0.047   0.580   0.566 -0.0229  0.1211 -0.1299
 8386SOL    HW226759   0.031   0.732   0.509  1.6234  0.9628  1.5306
 8387SOL     OW26760   2.972   5.833   3.439 -0.0702  0.4208  0.6473
 8387SOL    HW126761   2.964   5.820   3.538 -0.6434 -0.8843  0.4462
 8387SOL    HW226762   3.012   5.923   3.421  0.3027  0.5680  2.0624
 8388SOL     OW26763   6.462   1.027   6.233 -1.0738  0.5213  0.3562
 8388SOL    HW126764   6.530   1.070   6.292  0.1516 -1.9554  0.8609
 8388SOL    HW226765   6.497   1.023   6.139 -0.9237  0.1381  0.4245
 8389SOL     OW26766   1.340   5.683   3.780 -0.3809 -0.7302 -0.7701
 8389SOL    HW126767   1.399   5.647   3.708  0.9578 -0.2347  0.0495
 8389SOL    HW226768   1.250   5.640   3.774  0.4739 -2.5439 -1.1990
 8390SOL     OW26769   4.533   5.004   4.017  0.1661 -0.5168  0.6606
 8390SOL    HW126770   4.566   5.072   4.083  1.8176  0.2766 -0.8797
 8390SOL    HW226771   4.513   4.918   4.064  2.1188 -0.2450  2.1064
 8391SOL     OW26772   3.806   2.094   2.136 -0.0689  0.4393  0.6600
 8391SOL    HW126773   3.746   2.037   2.080  0.1227  1.0138 -0.1335
 8391SOL    HW226774   3.805   2.059   2.230 -0.9997 -0.0579  0.4827
 8392SOL     OW26775   6.857   5.375   2.563  0.0121 -0.3491 -0.3372
 8392SOL    HW126776   6.893   5.282   2.555  0.9836  0.0969 -1.4028
 8392SOL    HW226777   6.829   5.408   2.473  1.5444  1.1111 -0.3201
 8393SOL     OW26778   0.313   2.568   3.810 -0.3423  0.1522  0.0732
 8393SOL    HW126779   0.404   2.602   3.832  0.7324 -2.1475 -0.5075
 8393SOL    HW226780   0.265   2.546   3.895  0.2936 -0.1736  0.3572
 8394SOL     OW26781   0.704   0.648   5.271  0.2966 -0.7688  0.0378
 8394SOL    HW126782   0.797   0.613   5.284  0.9324 -0.4762 -2.9896
 8394SOL    HW226783   0.667   0.613   5.185 -0.7825  2.3650 -0.9043
 8395SOL     OW26784   3.156   6.393   0.839 -0.2153 -0.0729 -0.5821
 8395SOL    HW126785   3.249   6.360   0.853 -0.0353 -0.8514 -3.1074
 8395SOL    HW226786   3.144   6.482   0.884  1.2752 -0.5797  0.9302
 8396SOL     OW26787   3.715   5.059   1.618  0.1092 -0.2456 -0.8225
 8396SOL    HW126788   3.725   5.096   1.526  1.0999 -1.3820 -1.2100
 8396SOL    HW226789   3.749   4.965   1.619  2.2361  0.4546  1.2031
 8397SOL     OW26790   3.555   0.404   6.035  0.0064 -0.4095 -0.0442
 8397SOL    HW126791   3.509   0.397   5.946  0.4566  0.9363 -0.3955
 8397SOL    HW226792   3.529   0.325   6.092 -1.5292 -0.4727 -0.7835
 8398SOL     OW26793   2.867   1.436   0.426  0.0387 -0.7548  0.4360
 8398SOL    HW126794   2.914   1.369   0.369 -2.3426 -1.4069 -0.8907
 8398SOL    HW226795   2.935   1.487   0.479  2.2596 -1.2796 -1.6835
 8399SOL     OW26796   6.697   6.755   5.583 -0.3247  0.0407 -0.0798
 8399SOL    HW126797   6.784   6.707   5.586 -0.1819  0.3255  0.4553
 8399SOL    HW226798   6.704   6.841   5.634 -1.3819 -0.7150  1.4386
 8400SOL     OW26799   2.124   2.619   2.241  0.3344  0.1849  0.2278
 8400SOL    HW126800   2.220   2.644   2.250 -0.3845  2.4572  2.6506
 8400SOL    HW226801   2.087   2.592   2.330 -1.8271  1.7205 -0.1264
 8401SOL     OW26802   3.435   1.469   2.734 -0.1989  0.3097  0.1912
 8401SOL    HW126803   3.476   1.411   2.665  0.8455 -0.3891  1.3518
 8401SOL    HW226804   3.344   1.435   2.757  0.5982 -1.2228  1.2198
 8402SOL     OW26805   1.040   4.426   2.407 -0.4591 -0.4093 -0.0656
 8402SOL    HW126806   1.019   4.349   2.468 -1.0918 -0.6103 -0.5299
 8402SOL    HW226807   1.088   4.497   2.459 -0.0211 -1.0417  0.4051
 8403SOL     OW26808   3.906   3.298   0.090 -0.1927  0.5202 -0.1107
 8403SOL    HW126809   3.897   3.212   0.040 -2.3009  0.7905 -0.3080
 8403SOL    HW226810   3.876   3.286   0.185  0.1387  0.8828  0.0452
 8404SOL     OW26811   2.010   4.530   5.760 -0.2362 -0.5236  0.0272
 8404SOL    HW126812   2.070   4.566   5.831  0.2707  1.1908 -1.2070
 8404SOL    HW226813   1.939   4.597   5.738 -0.1431 -0.8388 -1.3527
 8405SOL     OW26814   1.220   4.499   1.754 -0.0223  0.4194 -0.0658
 8405SOL    HW126815   1.121   4.504   1.770 -0.1872  1.4080 -1.2434
 8405SOL    HW226816   1.255   4.591   1.736  0.7826 -0.1387 -1.4630
 8406SOL     OW26817   6.043   5.520   3.794  0.5332  0.3018 -0.0953
 8406SOL    HW126818   6.091   5.438   3.824 -0.0147  0.3555  0.9695
 8406SOL    HW226819   6.108   5.584   3.753  1.0544 -0.4107 -0.3943
 8407SOL     OW26820   3.613   2.589   6.357 -0.4278  0.2382 -0.0334
 8407SOL    HW126821   3.660   2.505   6.384  2.1842  0.7500 -2.5077
 8407SOL    HW226822   3.652   2.666   6.408 -0.4868  0.3448 -0.1495
 8408SOL     OW26823   4.730   3.915   0.215  0.5951  0.0300 -0.3690
 8408SOL    HW126824   4.703   3.820   0.200 -0.2277  0.4006 -1.3134
 8408SOL    HW226825   4.724   3.936   0.313  0.0208 -0.6611 -0.2485
 8409SOL     OW26826   6.321   6.157   5.786 -0.0020 -0.8053  0.2675
 8409SOL    HW126827   6.301   6.102   5.705 -0.2426 -0.4792  0.1059
 8409SOL    HW226828   6.268   6.242   5.784 -0.2127 -0.9116  0.8975
 8410SOL     OW26829   2.927   0.297   6.971 -0.8749 -0.3858 -0.1812
 8410SOL    HW126830   3.005   0.338   6.925  0.0036 -0.8001  0.8900
 8410SOL    HW226831   2.895   0.359   7.043 -1.1560 -0.4726 -0.2312
 8411SOL     OW26832   3.866   1.707   4.208  0.1951  0.7733  0.3367
 8411SOL    HW126833   3.905   1.774   4.146  0.0392 -0.0975 -0.7466
 8411SOL    HW226834   3.792   1.658   4.161  0.7908 -0.6561  0.8347
 8412SOL     OW26835   3.290   1.499   1.678 -0.0373 -0.1348  0.4463
 8412SOL    HW126836   3.251   1.410   1.657 -1.1553  0.3472  0.4127
 8412SOL    HW226837   3.344   1.494   1.762  0.6671 -1.0363 -0.0411
 8413SOL     OW26838   0.044   1.291   5.828  0.2724 -0.2065  0.0133
 8413SOL    HW126839   0.040   1.355   5.905  2.0923 -0.0945  0.0585
 8413SOL    HW226840  -0.048   1.258   5.808 -0.5694  1.5640  0.7062
 8414SOL     OW26841   3.133   1.404   2.735  0.2618  0.7788 -0.9548
 8414SOL    HW126842   3.097   1.421   2.643 -0.0499 -1.5909 -1.3278
 8414SOL    HW226843   3.154   1.307   2.745 -2.1274  0.4195  2.2745
 8415SOL     OW26844   6.741   3.672   5.283  0.2161 -0.7020 -0.7337
 8415SOL    HW126845   6.754   3.747   5.218 -0.4895  1.5240  1.5378
 8415SOL    HW226846   6.644   3.665   5.307  0.5002 -1.2209  0.3385
 8416SOL     OW26847   2.578   3.979   1.748 -0.4219  0.3120  0.1034
 8416SOL    HW126848   2.659   4.038   1.750  0.3964 -0.7481 -0.1610
 8416SOL    HW226849   2.496   4.034   1.754  0.3443  1.3667  1.3248
 8417SOL     OW26850   5.775   4.077   6.863 -0.3928  0.0648 -0.0998
 8417SOL    HW126851   5.832   4.021   6.923 -0.0100 -1.5419 -1.8665
 8417SOL    HW226852   5.679   4.062   6.885 -0.2501  0.1113  0.5973
 8418SOL     OW26853   6.956   4.021   5.562 -0.2864  0.1486  0.3069
 8418SOL    HW126854   6.993   4.034   5.470 -0.3381 -1.5064  0.0294
 8418SOL    HW226855   6.856   4.013   5.556 -0.3588  0.7408  0.6085
 8419SOL     OW26856   5.681   1.744   4.260 -0.8163 -0.1870 -0.0413
 8419SOL    HW126857   5.739   1.719   4.337 -0.1500 -1.3706 -0.8943
 8419SOL    HW226858   5.594   1.694   4.266 -0.2338 -1.3399 -0.7341
 8420SOL     OW26859   6.100   6.191   0.731  0.1134  0.0001 -0.0355
 8420SOL    HW126860   6.171   6.130   0.765 -1.9503 -1.3930  2.1129
 8420SOL    HW226861   6.056   6.237   0.808 -1.0812  1.0734 -1.3161
 8421SOL     OW26862   3.578   6.989   3.924  0.2319  0.3654 -0.3353
 8421SOL    HW126863   3.588   7.085   3.899 -0.2679 -0.2784 -3.4155
 8421SOL    HW226864   3.639   6.933   3.868  0.0902 -1.1823  0.9702
 8422SOL     OW26865   2.681   6.056   2.831 -0.1832  0.1207 -0.1486
 8422SOL    HW126866   2.746   5.995   2.875  2.0448  1.5290 -1.2797
 8422SOL    HW226867   2.663   6.025   2.738 -1.1169 -0.2153  0.1300
 8423SOL     OW26868   4.502   5.101   6.236  0.0917 -0.0921  0.3355
 8423SOL    HW126869   4.554   5.071   6.156 -0.4019  1.5395 -0.6324
 8423SOL    HW226870   4.526   5.195   6.258 -0.9967  0.0279  1.0869
 8424SOL     OW26871   5.160   6.522   0.395  0.3480 -0.1552 -0.2720
 8424SOL    HW126872   5.171   6.432   0.437  1.0701 -0.0278 -0.1872
 8424SOL    HW226873   5.235   6.582   0.422 -0.5129  0.7180  0.2805
 8425SOL     OW26874   6.935   2.263   1.903  0.0843 -0.2838 -0.1321
 8425SOL    HW126875   6.975   2.228   1.818  0.1031  2.5423 -1.3792
 8425SOL    HW226876   7.007   2.269   1.973  0.3076 -1.5917 -0.2228
 8426SOL     OW26877   6.425   4.684   2.369 -0.1495  0.4413  0.2976
 8426SOL    HW126878   6.497   4.646   2.310 -0.4144  2.1282 -1.2032
 8426SOL    HW226879   6.341   4.633   2.356  0.4122 -0.7349  1.0920
 8427SOL     OW26880   6.133   5.117   3.313 -0.6409  0.3828  0.7939
 8427SOL    HW126881   6.146   5.214   3.295  2.3339  0.2655  1.8512
 8427SOL    HW226882   6.190   5.063   3.251 -0.6246 -0.5744  1.6168
 8428SOL     OW26883   6.263   0.368   4.724  0.2235 -0.5110  0.0103
 8428SOL    HW126884   6.205   0.393   4.646  0.1445 -0.0775  0.2081
 8428SOL    HW226885   6.354   0.345   4.691  1.0948  2.5538  0.0291
 8429SOL     OW26886   2.129   4.525   4.849  0.1152  0.1975  0.3206
 8429SOL    HW126887   2.053   4.563   4.796  0.1494 -0.0288  0.1029
 8429SOL    HW226888   2.108   4.527   4.946  1.0950  3.0282  0.5602
 8430SOL     OW26889   0.416   6.904   4.803 -0.0369  0.1205 -0.6081
 8430SOL    HW126890   0.476   6.920   4.725  1.1704  0.4308  0.3573
 8430SOL    HW226891   0.469   6.868   4.880 -0.8569  1.4743  0.6522
 8431SOL     OW26892   2.785   6.550   6.776  0.0510  0.2097 -0.1213
 8431SOL    HW126893   2.873   6.533   6.820  0.1571 -0.8029 -0.7121
 8431SOL    HW226894   2.721   6.476   6.799 -0.4576  0.6157 -0.1994
 8432SOL     OW26895   1.986   3.652   0.893  0.7686 -0.2479 -0.3752
 8432SOL    HW126896   2.019   3.742   0.862  1.2582 -0.0046  0.8067
 8432SOL    HW226897   1.907   3.625   0.838  1.1102  0.5310 -1.2831
 8433SOL     OW26898   0.758   2.017   5.905  0.7466  0.4099 -0.3613
 8433SOL    HW126899   0.804   2.034   5.818 -1.8514  0.8901 -1.7104
 8433SOL    HW226900   0.791   1.930   5.943  0.5577 -0.8177 -2.7980
 8434SOL     OW26901   2.856   6.753   0.324  0.2179  0.4452  0.6278
 8434SOL    HW126902   2.838   6.666   0.370 -0.4720 -0.1422 -0.6886
 8434SOL    HW226903   2.806   6.826   0.370 -1.3230 -0.2963  0.2200
 8435SOL     OW26904   5.888   6.695   1.101 -0.0703  0.0179  0.4384
 8435SOL    HW126905   5.886   6.666   1.197 -1.7973 -1.4085  0.0407
 8435SOL    HW226906   5.799   6.731   1.076  0.6553  1.2647 -0.4045
 8436SOL     OW26907   3.507   1.653   0.709  0.4290  0.2219 -0.2678
 8436SOL    HW126908   3.549   1.563   0.695 -1.2238 -0.5535 -0.4971
 8436SOL    HW226909   3.516   1.707   0.625  1.9553  0.5209  0.0675
 8437SOL     OW26910   6.423   1.042   6.879  0.7127 -0.7920 -0.1571
 8437SOL    HW126911   6.343   1.100   6.869  1.4395  0.2079 -0.3301
 8437SOL    HW226912   6.468   1.031   6.790  1.7894  0.1900  0.2324
 8438SOL     OW26913   5.065   1.911   6.035  0.3347  0.6838 -0.3747
 8438SOL    HW126914   5.057   1.854   6.117 -0.9378  1.3188 -0.0381
 8438SOL    HW226915   5.144   1.972   6.044  1.1803 -0.3774 -0.3546
 8439SOL     OW26916   0.472   2.678   4.676 -0.4200  0.4218  0.1547
 8439SOL    HW126917   0.386   2.653   4.631 -0.0033 -0.0498 -0.3901
 8439SOL    HW226918   0.535   2.715   4.608 -0.2766  1.0074  0.6003
 8440SOL     OW26919   1.272   5.541   5.344 -0.3266  0.0817 -0.0380
 8440SOL    HW126920   1.200   5.538   5.274 -2.2191  0.7379  1.7769
 8440SOL    HW226921   1.305   5.635   5.352 -1.3949  0.3792  1.1325
 8441SOL     OW26922   5.622   0.377   2.768  0.1719  0.3685 -0.1683
 8441SOL    HW126923   5.610   0.285   2.729  0.5385  1.2192 -2.4427
 8441SOL    HW226924   5.701   0.420   2.726 -0.2705  1.9267  0.5386
 8442SOL     OW26925   2.828   0.482   6.574 -0.0903  0.4043  0.4689
 8442SOL    HW126926   2.759   0.534   6.523  0.1412  0.4719  0.2159
 8442SOL    HW226927   2.919   0.512   6.545  0.0596 -0.7581 -0.3361
 8443SOL     OW26928   1.277   3.249   0.835  0.3760  0.4640  0.0590
 8443SOL    HW126929   1.210   3.316   0.867 -0.0676 -0.5332  1.2611
 8443SOL    HW226930   1.307   3.192   0.911 -0.1506 -1.4826 -1.1361
 8444SOL     OW26931   2.719   1.143   4.864 -0.4279 -0.1379 -0.1830
 8444SOL    HW126932   2.784   1.067   4.860 -0.9029 -0.5197 -2.3187
 8444SOL    HW226933   2.701   1.168   4.959  2.8366  0.0081  0.5010
 8445SOL     OW26934   1.458   0.138   6.038 -0.0461  0.3762 -0.3585
 8445SOL    HW126935   1.426   0.063   5.980 -0.6970  1.1432 -1.0184
 8445SOL    HW226936   1.518   0.102   6.109  1.7225 -0.4547 -2.1850
 8446SOL     OW26937   4.461   6.966   2.275 -0.0968 -0.4418 -0.2062
 8446SOL    HW126938   4.552   6.926   2.263  0.2683  0.2705  0.1038
 8446SOL    HW226939   4.456   7.053   2.227 -0.5841 -0.4312 -0.1415
 8447SOL     OW26940   2.674   1.093   6.024  0.1437  0.2481  0.1134
 8447SOL    HW126941   2.662   1.028   6.099  2.2274 -0.4667 -0.1107
 8447SOL    HW226942   2.592   1.150   6.015 -0.3369  0.0304  2.5949
 8448SOL     OW26943   4.803   2.571   6.085  0.2436 -0.5202 -0.5062
 8448SOL    HW126944   4.745   2.636   6.036 -0.4643  0.3196  1.3273
 8448SOL    HW226945   4.757   2.483   6.091 -0.0012 -0.4073 -0.7006
 8449SOL     OW26946   5.695   0.265   5.446 -0.7949 -0.0556 -0.0865
 8449SOL    HW126947   5.730   0.299   5.533 -0.3271 -0.2228 -0.2050
 8449SOL    HW226948   5.725   0.170   5.432  1.7238  0.8764 -1.7778
 8450SOL     OW26949   5.896   2.665   0.906 -0.3334 -0.3534 -0.3257
 8450SOL    HW126950   5.853   2.635   0.821  0.5304 -0.0711 -0.8769
 8450SOL    HW226951   5.917   2.585   0.962 -0.0586 -0.6169 -0.7980
 8451SOL     OW26952   3.273   5.902   5.594  0.2331 -0.1010 -0.8608
 8451SOL    HW126953   3.349   5.863   5.542  0.4091 -0.7600 -0.1168
 8451SOL    HW226954   3.306   5.936   5.682 -0.3868 -0.7032 -0.3861
 8452SOL     OW26955   2.211   2.887   5.875  0.0733  0.1431  0.7117
 8452SOL    HW126956   2.171   2.975   5.848  0.5890  0.0471 -0.4351
 8452SOL    HW226957   2.309   2.888   5.855 -0.0651 -0.9969 -0.1231
 8453SOL     OW26958   4.177   2.060   0.641 -0.7515 -0.6748  0.3105
 8453SOL    HW126959   4.228   2.039   0.558  0.9644 -1.1715  1.4212
 8453SOL    HW226960   4.169   2.159   0.652  1.5255 -0.5047  0.9409
 8454SOL     OW26961   5.266   0.540   0.910  0.1499 -0.1187 -0.4065
 8454SOL    HW126962   5.178   0.494   0.927  0.6135 -0.6407  0.7368
 8454SOL    HW226963   5.304   0.508   0.824 -1.0408  0.5339 -1.1994
 8455SOL     OW26964   6.330   3.053   5.525 -0.6129 -0.1460  0.5381
 8455SOL    HW126965   6.330   3.116   5.602 -0.1700 -0.1783  0.5659
 8455SOL    HW226966   6.402   2.985   5.537  0.8285  1.0384 -0.8422
 8456SOL     OW26967   4.365   3.809   6.436 -0.0805 -0.2410  0.0953
 8456SOL    HW126968   4.380   3.829   6.339 -0.5462  1.8010  0.3976
 8456SOL    HW226969   4.276   3.844   6.464  1.2151  1.9644  1.9035
 8457SOL     OW26970   4.733   1.046   0.866 -0.5068  0.6382  0.8313
 8457SOL    HW126971   4.782   0.964   0.897  0.6360  1.0428  0.1904
 8457SOL    HW226972   4.733   1.115   0.938 -0.7680  0.3663  1.0907
 8458SOL     OW26973   5.710   6.877   1.022 -0.4541  0.3868  0.8323
 8458SOL    HW126974   5.735   6.934   0.944  0.6291 -1.0047  0.1309
 8458SOL    HW226975   5.611   6.860   1.020 -0.6053  1.2275  0.3993
 8459SOL     OW26976   6.180   0.476   2.952  0.3924 -0.0145  0.3706
 8459SOL    HW126977   6.151   0.381   2.936 -1.3606  0.1326  2.2395
 8459SOL    HW226978   6.109   0.524   3.004  2.1129  1.7499  1.2189
 8460SOL     OW26979   5.897   6.092   0.560  0.0334  0.4053  0.0919
 8460SOL    HW126980   5.899   6.029   0.638  1.6290  1.3148  0.8402
 8460SOL    HW226981   5.950   6.174   0.582 -0.6179  1.2867 -1.4719
 8461SOL     OW26982   4.015   3.099   0.350  0.0383  0.5143 -0.0479
 8461SOL    HW126983   3.931   3.153   0.358  1.3874  3.4934 -3.3461
 8461SOL    HW226984   4.094   3.156   0.374  1.3365 -1.6093  1.0481
 8462SOL     OW26985   6.486   6.291   4.681  0.5136 -0.3541 -0.0663
 8462SOL    HW126986   6.563   6.266   4.622  0.7598  0.0125  0.0938
 8462SOL    HW226987   6.423   6.214   4.688  1.3941 -1.0439  0.6517
 8463SOL     OW26988   1.800   3.454   3.590  0.5026  0.2263 -0.4183
 8463SOL    HW126989   1.830   3.415   3.677  1.4364  4.1797  1.2472
 8463SOL    HW226990   1.710   3.497   3.601 -0.2102 -0.7798 -1.9711
 8464SOL     OW26991   3.455   6.528   6.823  0.6361  0.4136  0.1545
 8464SOL    HW126992   3.544   6.490   6.801  0.1198 -0.6074 -0.2391
 8464SOL    HW226993   3.444   6.617   6.778  1.4764  0.5871  0.2818
 8465SOL     OW26994   4.287   4.943   1.668 -0.4977 -0.3741  0.3796
 8465SOL    HW126995   4.282   4.913   1.572  0.6729  3.2411 -0.9791
 8465SOL    HW226996   4.199   4.979   1.697 -0.4563 -0.0322  0.0908
 8466SOL     OW26997   0.453   2.062   2.395 -0.5230  0.2673 -0.5657
 8466SOL    HW126998   0.457   1.968   2.429  0.2206  0.2900 -0.5814
 8466SOL    HW226999   0.458   2.062   2.295  2.4815  0.4252 -0.5225
 8467SOL     OW27000   5.464   1.476   3.181 -0.2194  0.2518 -0.1112
 8467SOL    HW127001   5.498   1.393   3.225  1.2709  0.3730 -0.9799
 8467SOL    HW227002   5.502   1.557   3.226  0.5687  0.3919 -0.9860
 8468SOL     OW27003   0.606   3.019   5.137  0.4798  0.3050 -0.3036
 8468SOL    HW127004   0.678   2.956   5.108 -0.0697 -0.2992 -0.3797
 8468SOL    HW227005   0.538   3.028   5.064  0.6998  1.2300 -0.4154
 8469SOL     OW27006   3.806   5.454   2.877 -0.0562  0.2793 -0.1035
 8469SOL    HW127007   3.835   5.393   2.950 -2.2239 -1.3454 -0.5074
 8469SOL    HW227008   3.832   5.415   2.789  0.4459  1.0490 -0.3075
 8470SOL     OW27009   4.165   0.690   0.748  0.2322  0.3159 -0.4458
 8470SOL    HW127010   4.227   0.614   0.767 -0.6736 -0.0860  1.1840
 8470SOL    HW227011   4.098   0.696   0.822 -1.1871  1.2188 -1.7582
 8471SOL     OW27012   2.905   6.067   4.326  0.1844  0.2024 -0.2612
 8471SOL    HW127013   2.846   6.140   4.293  0.4576  0.9597  0.8596
 8471SOL    HW227014   2.864   6.024   4.407  1.8565  1.8962  1.6257
 8472SOL     OW27015   2.610   3.570   4.871  0.4067  0.0314  0.0896
 8472SOL    HW127016   2.594   3.532   4.962  2.8169  0.4554  0.7553
 8472SOL    HW227017   2.540   3.639   4.852 -0.8543 -0.9037  1.0787
 8473SOL     OW27018   6.147   5.371   0.780 -0.2641  0.0286  0.5963
 8473SOL    HW127019   6.108   5.435   0.846  0.1360 -1.2969  2.2029
 8473SOL    HW227020   6.247   5.368   0.791 -0.3538 -1.5464  1.2523
 8474SOL     OW27021   1.593   6.232   4.751  0.1166  0.6013 -0.1126
 8474SOL    HW127022   1.571   6.206   4.657 -0.0882  1.7286 -0.3966
 8474SOL    HW227023   1.539   6.312   4.776  0.1421  0.2871  0.9862
 8475SOL     OW27024   2.169   4.969   5.509  0.0256  0.3033  0.4459
 8475SOL    HW127025   2.144   4.981   5.605 -0.1020 -0.0463  0.4587
 8475SOL    HW227026   2.172   5.058   5.464 -0.0708  0.4553  0.7359
 8476SOL     OW27027   5.506   5.254   0.302 -0.0982  0.3758 -0.2069
 8476SOL    HW127028   5.407   5.236   0.310 -0.1672 -0.0651 -1.7324
 8476SOL    HW227029   5.532   5.254   0.206  1.4949  0.0160  0.1945
 8477SOL     OW27030   3.210   2.288   2.780 -0.2281 -0.0205 -0.1476
 8477SOL    HW127031   3.158   2.336   2.709 -0.2323 -1.6990 -1.3456
 8477SOL    HW227032   3.152   2.275   2.860 -0.6625  0.7626 -0.3218
 8478SOL     OW27033   1.708   6.740   5.158 -0.1472  0.3400 -0.1876
 8478SOL    HW127034   1.768   6.720   5.080  0.1086  3.6300 -0.9768
 8478SOL    HW227035   1.613   6.722   5.132  0.1110 -0.9289 -0.3501
 8479SOL     OW27036   0.177   6.855   2.608  0.0683  0.0991  0.6472
 8479SOL    HW127037   0.084   6.820   2.619 -1.3053  2.5505 -1.7950
 8479SOL    HW227038   0.186   6.941   2.657  0.5149  0.6694 -0.4121
 8480SOL     OW27039   0.762   2.826   0.356  0.2989  0.0093 -0.1335
 8480SOL    HW127040   0.699   2.784   0.422 -2.0487  0.4143 -1.9884
 8480SOL    HW227041   0.833   2.875   0.405  0.5793 -2.3962  2.0841
 8481SOL     OW27042   0.756   6.496   2.308 -0.3744  0.0971 -0.4219
 8481SOL    HW127043   0.827   6.529   2.371  0.7173 -2.9951  0.1537
 8481SOL    HW227044   0.672   6.477   2.359 -0.1255 -0.5151 -0.2250
 8482SOL     OW27045   1.667   3.015   6.204  0.6738  0.3699  0.0135
 8482SOL    HW127046   1.579   3.058   6.186  0.7770  0.5201 -0.1412
 8482SOL    HW227047   1.679   2.937   6.142 -0.2575 -0.9573  1.4492
 8483SOL     OW27048   2.800   1.910   4.900 -0.3104  0.5401  0.1233
 8483SOL    HW127049   2.783   1.865   4.812 -0.3800  1.3234 -0.2736
 8483SOL    HW227050   2.846   1.846   4.962  2.2128  0.7321 -1.3830
 8484SOL     OW27051   3.968   2.127   6.196 -0.5339  0.2423 -0.3890
 8484SOL    HW127052   3.984   2.037   6.238  0.4413  0.4362 -0.3443
 8484SOL    HW227053   3.948   2.194   6.267  2.6962  0.9297 -0.0017
 8485SOL     OW27054   2.929   2.727   6.107  0.5541  0.1236  0.0100
 8485SOL    HW127055   3.028   2.724   6.096  0.4659  2.4431 -2.3922
 8485SOL    HW227056   2.895   2.638   6.136  3.2817 -0.7916  0.6050
 8486SOL     OW27057   2.957   6.517   3.371 -0.0494 -0.7055 -0.5401
 8486SOL    HW127058   2.934   6.464   3.453 -1.6651 -0.6156 -0.9109
 8486SOL    HW227059   3.050   6.552   3.380  0.5035 -2.2964  0.3984
 8487SOL     OW27060   5.322   3.221   2.350 -0.3655 -0.4952 -0.1529
 8487SOL    HW127061   5.319   3.319   2.328  0.8752  0.8115  4.5307
 8487SOL    HW227062   5.390   3.176   2.292  1.3289  2.0907 -0.3217
 8488SOL     OW27063   4.016   2.153   4.653  0.0627  0.2972  0.3578
 8488SOL    HW127064   3.946   2.154   4.581  0.6548  2.5066 -0.2664
 8488SOL    HW227065   3.982   2.101   4.731 -1.7078  0.1216 -0.4752
 8489SOL     OW27066   5.264   1.162   3.381 -0.4663  0.1328  0.1426
 8489SOL    HW127067   5.181   1.186   3.329 -1.3639 -4.0380 -0.7590
 8489SOL    HW227068   5.237   1.120   3.468  0.8229  0.5642  0.7694
 8490SOL     OW27069   2.001   5.182   1.368 -0.1310  0.7837  0.2589
 8490SOL    HW127070   2.036   5.090   1.352  0.3665  0.6258  2.0950
 8490SOL    HW227071   2.076   5.242   1.394 -0.7176  1.2831  0.8206
 8491SOL     OW27072   6.177   0.548   0.009  0.2494  0.6081  0.0902
 8491SOL    HW127073   6.262   0.578   0.053  1.0387  2.0035 -2.2217
 8491SOL    HW227074   6.170   0.449   0.014  0.0340  0.6611  3.6538
 8492SOL     OW27075   5.419   3.896   1.391  0.1894 -0.3691  0.2525
 8492SOL    HW127076   5.351   3.922   1.323  0.7475  1.0671  0.2038
 8492SOL    HW227077   5.508   3.883   1.346  0.6615  1.0274  0.7433
 8493SOL     OW27078   0.496   6.473   2.441 -0.3472  0.4368 -0.1266
 8493SOL    HW127079   0.543   6.488   2.529 -0.3677  1.1520 -0.2340
 8493SOL    HW227080   0.402   6.507   2.448 -0.4093  0.3092 -0.3619
 8494SOL     OW27081   2.574   2.009   0.899 -0.8708 -0.0261  0.3169
 8494SOL    HW127082   2.606   2.102   0.917  1.8672 -0.2281 -2.5179
 8494SOL    HW227083   2.623   1.945   0.959  0.0132  0.1277 -0.2120
 8495SOL     OW27084   5.867   1.604   6.516  0.3582  0.0513 -0.2650
 8495SOL    HW127085   5.942   1.665   6.538  0.5513  0.1843 -1.2322
 8495SOL    HW227086   5.902   1.520   6.475  0.0267 -0.2008 -0.0406
 8496SOL     OW27087   2.870   0.554   5.814 -0.3571  0.4940 -0.0658
 8496SOL    HW127088   2.931   0.623   5.853 -0.5122  0.2870  0.5610
 8496SOL    HW227089   2.776   0.587   5.815 -0.3634  0.4810 -0.2475
 8497SOL     OW27090   3.710   3.455   6.703 -1.0472 -0.4550 -0.2585
 8497SOL    HW127091   3.771   3.425   6.777  1.1561 -1.2907 -2.2575
 8497SOL    HW227092   3.703   3.555   6.703 -0.5883 -0.4140  0.6962
 8498SOL     OW27093   2.103   3.889   0.824 -0.4775 -0.5463  0.1997
 8498SOL    HW127094   2.106   3.984   0.795  1.7170  0.5416  3.4982
 8498SOL    HW227095   2.166   3.835   0.769  0.2725  0.4780  0.0255
 8499SOL     OW27096   1.645   6.063   2.114 -0.0843 -0.6148 -0.1494
 8499SOL    HW127097   1.661   6.052   2.212  1.8384 -0.5243 -0.4168
 8499SOL    HW227098   1.651   6.160   2.090 -0.8824 -0.5990 -0.3305
 8500SOL     OW27099   5.155   3.566   0.673 -0.0606 -0.3517 -0.6629
 8500SOL    HW127100   5.193   3.474   0.661 -0.0003 -0.6708  1.5088
 8500SOL    HW227101   5.056   3.560   0.684  0.1830 -0.6378  2.5483
 8501SOL     OW27102   3.598   4.984   5.305 -0.4203 -0.2620  0.5670
 8501SOL    HW127103   3.534   5.029   5.243 -1.2075  0.4929  1.8884
 8501SOL    HW227104   3.583   4.886   5.304 -0.4574 -0.2609 -0.3688
 8502SOL     OW27105   6.743   1.964   5.988  0.4234  0.2717 -0.2458
 8502SOL    HW127106   6.727   2.062   6.000 -0.6621 -0.0272  1.0403
 8502SOL    HW227107   6.659   1.921   5.953  1.1581 -0.0809 -1.6138
 8503SOL     OW27108   0.306   3.766   4.199  0.0133 -0.5916 -0.2971
 8503SOL    HW127109   0.294   3.862   4.177  0.7777 -0.4878 -0.2911
 8503SOL    HW227110   0.395   3.735   4.166 -0.5101 -1.4849 -0.9224
 8504SOL     OW27111   2.601   6.728   6.589 -0.6001  0.5495  0.0674
 8504SOL    HW127112   2.616   6.707   6.493  0.0326  1.1793  0.0225
 8504SOL    HW227113   2.688   6.723   6.639 -1.1630 -1.4620  0.9715
 8505SOL     OW27114   0.810   2.793   5.054  0.2714  0.2331  0.1637
 8505SOL    HW127115   0.893   2.830   5.014 -0.4596  0.9740 -0.7205
 8505SOL    HW227116   0.817   2.795   5.154  1.5341 -0.2789  0.1059
 8506SOL     OW27117   3.147   5.481   0.595 -0.4766  0.3857  0.0076
 8506SOL    HW127118   3.089   5.413   0.550 -0.1760  0.7083 -0.8929
 8506SOL    HW227119   3.243   5.457   0.580 -0.3682  1.0933 -0.4579
 8507SOL     OW27120   2.671   5.555   2.358  0.1871 -0.0475 -0.0724
 8507SOL    HW127121   2.688   5.560   2.259 -0.1856  0.8140 -0.1000
 8507SOL    HW227122   2.752   5.519   2.404  0.7576  0.5730 -0.5804
 8508SOL     OW27123   5.837   0.420   3.946 -0.1293  0.0343  0.0399
 8508SOL    HW127124   5.877   0.352   4.008  0.3173  1.4393  1.3719
 8508SOL    HW227125   5.909   0.461   3.890 -0.1626  0.3937  0.2528
 8509SOL     OW27126   3.498   0.196   6.181 -0.0809 -0.0175  0.2188
 8509SOL    HW127127   3.412   0.151   6.204  1.3379 -2.3766  1.3192
 8509SOL    HW227128   3.544   0.146   6.108 -0.2524  2.0711 -1.4152
 8510SOL     OW27129   0.063   1.326   5.547 -0.0210  0.3798  0.2307
 8510SOL    HW127130   0.146   1.382   5.545 -0.2380  0.7338  0.9416
 8510SOL    HW227131   0.067   1.263   5.625  0.0289 -0.3118 -0.3173
 8511SOL     OW27132   2.344   6.270   4.530  0.2522 -0.0127 -0.0606
 8511SOL    HW127133   2.375   6.302   4.440  1.8644 -0.0492  0.4648
 8511SOL    HW227134   2.367   6.338   4.599 -0.8052 -0.0793  0.3706
 8512SOL     OW27135   4.519   3.597   6.954  0.2179  0.1945 -0.6809
 8512SOL    HW127136   4.466   3.513   6.939  0.9973 -0.7405  1.4587
 8512SOL    HW227137   4.544   3.637   6.866 -1.9021 -0.6811 -1.7433
 8513SOL     OW27138   0.258   0.904   0.164  0.8204  0.4867 -0.1539
 8513SOL    HW127139   0.291   0.817   0.200  1.2919  0.3757 -0.8312
 8513SOL    HW227140   0.286   0.913   0.068  0.9986  1.4922 -0.0194
 8514SOL     OW27141   4.241   3.285   0.379 -0.8699  0.0651  0.0374
 8514SOL    HW127142   4.194   3.329   0.302 -1.0816  1.4468  0.9109
 8514SOL    HW227143   4.333   3.323   0.388 -0.6230 -0.5381  0.0916
 8515SOL     OW27144   1.030   5.011   3.562  0.5961  0.0197  0.0338
 8515SOL    HW127145   1.057   4.922   3.598  0.7709 -0.0001 -0.1435
 8515SOL    HW227146   0.936   5.031   3.588 -0.2664 -1.2595 -1.8960
 8516SOL     OW27147   0.442   6.406   1.917 -0.7440 -0.1241 -0.3896
 8516SOL    HW127148   0.478   6.439   1.830 -2.7425  1.3774 -0.7139
 8516SOL    HW227149   0.481   6.461   1.991 -1.8031  1.0815 -0.6851
 8517SOL     OW27150   2.684   5.461   5.426 -0.0976 -0.0737  0.4046
 8517SOL    HW127151   2.708   5.379   5.374 -3.5525 -0.6577 -0.5412
 8517SOL    HW227152   2.680   5.540   5.364 -2.4010 -0.4133  0.0183
 8518SOL     OW27153   5.038   0.410   5.583  0.0646 -0.3147 -0.5788
 8518SOL    HW127154   5.092   0.345   5.637 -1.0545 -0.1875  0.7661
 8518SOL    HW227155   5.017   0.371   5.494  1.9624 -0.5445 -0.9654
 8519SOL     OW27156   1.467   5.354   3.447  0.1597 -0.0854  0.0214
 8519SOL    HW127157   1.535   5.349   3.373 -0.3692 -0.4033 -0.4487
 8519SOL    HW227158   1.492   5.287   3.518 -0.7541 -1.6756 -1.0956
 8520SOL     OW27159   1.949   3.335   1.111  0.2315  0.0341 -0.2534
 8520SOL    HW127160   2.020   3.405   1.121  0.0530  0.3644 -1.1952
 8520SOL    HW227161   1.957   3.268   1.185  2.0164 -0.3798 -0.7983
 8521SOL     OW27162   0.850   3.643   0.006  0.3906 -0.3277 -0.0225
 8521SOL    HW127163   0.945   3.643   0.036  0.9094  1.8282 -1.3817
 8521SOL    HW227164   0.845   3.615  -0.090 -0.0561  1.2000 -0.4904
 8522SOL     OW27165   0.657   5.715   3.987  0.3366  0.0804 -0.0548
 8522SOL    HW127166   0.608   5.645   3.934 -0.6243  1.1805 -0.6601
 8522SOL    HW227167   0.747   5.680   4.013 -0.6889 -1.9574  0.9954
 8523SOL     OW27168   1.001   1.617   0.011 -0.2291 -0.3201 -0.0161
 8523SOL    HW127169   1.095   1.636   0.037 -0.0662 -1.2106  0.0972
 8523SOL    HW227170   0.979   1.522   0.034 -1.8625  0.4884  2.0669
 8524SOL     OW27171   2.596   1.269   0.996  0.1044  0.3558  0.1250
 8524SOL    HW127172   2.515   1.212   1.007  0.9648 -0.7803  0.8294
 8524SOL    HW227173   2.671   1.232   1.051  0.9763  1.6397 -0.1459
 8525SOL     OW27174   6.569   4.286   4.396 -0.1582  0.2660 -0.0062
 8525SOL    HW127175   6.619   4.215   4.347  0.5090  0.0424  0.9590
 8525SOL    HW227176   6.615   4.374   4.384  0.5896  0.0356  0.9971
 8526SOL     OW27177   2.442   1.275   3.498 -0.0352  0.4675 -0.2582
 8526SOL    HW127178   2.447   1.202   3.566 -0.7252  1.5773  1.0198
 8526SOL    HW227179   2.535   1.302   3.472  0.2690  1.0056  1.3264
 8527SOL     OW27180   5.745   5.646   2.865 -0.3933  0.4363 -0.0995
 8527SOL    HW127181   5.819   5.579   2.861  0.7112  1.6603 -2.1713
 8527SOL    HW227182   5.663   5.603   2.902  0.4823 -1.8351 -0.6321
 8528SOL     OW27183   1.254   2.577   4.885 -0.0127  0.4441  0.7296
 8528SOL    HW127184   1.190   2.646   4.852  0.1138  0.0532 -0.3632
 8528SOL    HW227185   1.339   2.622   4.913  0.2413  0.7075 -0.4109
 8529SOL     OW27186   0.021   3.519   3.605  0.0233 -0.1893 -0.1620
 8529SOL    HW127187  -0.002   3.614   3.625 -0.6063 -0.3877  0.0491
 8529SOL    HW227188  -0.057   3.473   3.563  1.0601  0.0113 -2.4576
 8530SOL     OW27189   6.415   1.801   2.232  0.4055 -0.1588 -0.4273
 8530SOL    HW127190   6.503   1.837   2.263 -0.3978 -0.7709  2.9450
 8530SOL    HW227191   6.369   1.870   2.176  1.6571  1.4580  0.4562
 8531SOL     OW27192   4.547   0.006   1.765  0.5851 -0.6451 -0.1705
 8531SOL    HW127193   4.623   0.059   1.802 -0.2095  0.9301 -0.6768
 8531SOL    HW227194   4.546   0.013   1.666 -0.1384 -0.7454 -0.1768
 8532SOL     OW27195   5.719   4.179   6.450  0.1675  0.2017  0.3210
 8532SOL    HW127196   5.661   4.097   6.449 -0.9193  0.9053  1.6173
 8532SOL    HW227197   5.678   4.249   6.391  0.4860  0.2099  0.1073
 8533SOL     OW27198   6.776   2.881   6.962 -0.0802 -0.0338 -0.4780
 8533SOL    HW127199   6.865   2.924   6.947 -0.1915  1.5181  2.5928
 8533SOL    HW227200   6.703   2.942   6.930 -0.1627  1.3976  2.1817
 8534SOL     OW27201   0.248   5.754   1.903 -0.4184  0.1989  0.1945
 8534SOL    HW127202   0.335   5.750   1.854 -1.3911  0.2676 -1.6581
 8534SOL    HW227203   0.230   5.848   1.932  1.0492 -0.1647  2.4581
 8535SOL     OW27204   3.271   5.691   4.415 -0.0269 -0.7773  0.3739
 8535SOL    HW127205   3.345   5.689   4.482 -1.8769 -0.9771  2.5646
 8535SOL    HW227206   3.224   5.779   4.420 -1.3510 -1.4722  0.7314
 8536SOL     OW27207   5.505   4.807   4.884 -0.0344 -0.6667  0.4134
 8536SOL    HW127208   5.557   4.723   4.902 -0.9724 -1.4219 -0.2880
 8536SOL    HW227209   5.413   4.799   4.922 -1.1890 -1.2644 -2.2876
 8537SOL     OW27210   1.856   2.047   2.062  0.1645 -0.1050  0.2295
 8537SOL    HW127211   1.769   2.075   2.102 -0.5047  0.6561 -1.6424
 8537SOL    HW227212   1.842   1.969   2.002  0.7441  0.0910 -0.1745
 8538SOL     OW27213   2.019   0.491   0.369 -0.2423 -0.5726 -0.1728
 8538SOL    HW127214   1.947   0.481   0.300 -1.0202 -0.4797  0.6019
 8538SOL    HW227215   2.014   0.415   0.434  0.5549 -0.7224 -0.2821
 8539SOL     OW27216   4.687   2.971   1.088  0.5302  0.5127  0.3936
 8539SOL    HW127217   4.714   3.065   1.107 -2.0710  1.4129  0.0610
 8539SOL    HW227218   4.647   2.965   0.996  0.4053 -0.8630  0.5087
 8540SOL     OW27219   1.946   5.501   1.402 -0.0721  0.0976  0.1477
 8540SOL    HW127220   1.879   5.513   1.475 -2.1840  1.1430 -1.8061
 8540SOL    HW227221   1.906   5.448   1.328  1.8588 -0.6306 -0.4420
 8541SOL     OW27222   6.500   0.877   3.367  0.1736  0.2248 -0.2008
 8541SOL    HW127223   6.556   0.848   3.290 -0.3289 -2.1305  0.2377
 8541SOL    HW227224   6.457   0.797   3.409 -2.2038  1.7616  0.5058
 8542SOL     OW27225   6.702   5.620   3.689 -0.4855  0.1233  0.3562
 8542SOL    HW127226   6.763   5.578   3.756 -0.9786 -1.0004  0.1287
 8542SOL    HW227227   6.635   5.552   3.658 -0.6182  0.7790 -0.8522
 8543SOL     OW27228   5.426   5.583   4.472  0.5581  0.5200  0.1311
 8543SOL    HW127229   5.354   5.647   4.501 -0.4395  0.1581 -1.4715
 8543SOL    HW227230   5.497   5.633   4.423  0.3362  0.5733 -0.1390
 8544SOL     OW27231   6.358   3.709   6.721  0.3370  0.2100  0.3010
 8544SOL    HW127232   6.380   3.638   6.787  0.4699 -0.4288 -0.4203
 8544SOL    HW227233   6.319   3.788   6.769  0.5044 -0.2078  1.1428
 8545SOL     OW27234   0.554   3.423   5.448  0.2853  0.4898 -0.7591
 8545SOL    HW127235   0.631   3.417   5.512 -1.4214 -2.8361  1.2353
 8545SOL    HW227236   0.571   3.365   5.369  0.1527  0.3822 -0.7087
 8546SOL     OW27237   3.804   2.020   3.422 -0.2455  0.0864  0.0037
 8546SOL    HW127238   3.832   2.005   3.517  0.1313 -3.0631 -0.4957
 8546SOL    HW227239   3.882   2.053   3.369  0.9663 -2.5699 -0.0629
 8547SOL     OW27240   4.663   5.065   3.154 -0.0084  0.0039 -0.9704
 8547SOL    HW127241   4.734   5.070   3.225 -3.0050 -1.2747  2.4244
 8547SOL    HW227242   4.612   5.151   3.153 -0.6559 -0.3741 -0.7647
 8548SOL     OW27243   5.661   0.486   4.890 -0.2743 -0.0157  0.1668
 8548SOL    HW127244   5.662   0.487   4.990  0.2479 -0.0949  0.1629
 8548SOL    HW227245   5.666   0.391   4.858  0.3638  0.0564  0.0567
 8549SOL     OW27246   6.826   4.786   2.366 -0.6181  0.1149  0.1715
 8549SOL    HW127247   6.916   4.777   2.325 -0.3346  1.1901  0.5339
 8549SOL    HW227248   6.760   4.731   2.314 -0.0311  0.4458 -0.9501
 8550SOL     OW27249   3.406   0.964   2.709  0.0399  0.5112 -0.0848
 8550SOL    HW127250   3.493   1.013   2.710  0.4892 -0.1587 -1.8912
 8550SOL    HW227251   3.388   0.925   2.799  1.3434  1.1122  0.4580
 8551SOL     OW27252   5.517   2.939   6.470  0.1520  0.4300  0.4126
 8551SOL    HW127253   5.598   2.928   6.411 -0.5384 -0.0402 -0.4652
 8551SOL    HW227254   5.453   3.002   6.426  0.0329  0.8065  1.1104
 8552SOL     OW27255   5.810   6.557   2.740  0.1503 -0.0515 -0.3277
 8552SOL    HW127256   5.772   6.475   2.783 -1.4887  1.9483  2.3464
 8552SOL    HW227257   5.754   6.582   2.661  0.3579 -1.1715 -0.8499
 8553SOL     OW27258   3.902   0.072   0.775 -0.1183  0.2690 -0.3794
 8553SOL    HW127259   3.999   0.048   0.779  0.0227  0.7317 -0.8169
 8553SOL    HW227260   3.863   0.039   0.689 -0.0072  1.2705 -0.8263
 8554SOL     OW27261   2.397   4.469   4.599 -0.1306 -0.1545 -0.1231
 8554SOL    HW127262   2.337   4.389   4.605  0.6376 -0.7035  0.6043
 8554SOL    HW227263   2.358   4.544   4.651 -0.7120 -0.1490 -0.5561
 8555SOL     OW27264   0.291   1.156   1.278  0.4904 -0.1509 -0.3177
 8555SOL    HW127265   0.334   1.067   1.263  0.4446 -0.2910  0.3367
 8555SOL    HW227266   0.208   1.164   1.224  0.0038 -0.8700  0.3122
 8556SOL     OW27267   6.132   3.455   3.814  0.4906 -0.2786  0.3484
 8556SOL    HW127268   6.142   3.484   3.909  1.5021  0.1727  0.1113
 8556SOL    HW227269   6.194   3.379   3.795 -1.2242 -1.8252  0.6100
 8557SOL     OW27270   5.361   1.896   2.060 -0.5452 -0.3724  1.0086
 8557SOL    HW127271   5.437   1.832   2.071  2.2522  1.4930 -4.0791
 8557SOL    HW227272   5.395   1.990   2.070 -2.2244  0.5256 -0.9321
 8558SOL     OW27273   3.941   0.202   6.997  0.0635  0.5299  0.0676
 8558SOL    HW127274   3.999   0.279   6.970 -2.2126  2.5305  0.5730
 8558SOL    HW227275   3.972   0.165   7.084  1.4103  0.5708 -0.3651
 8559SOL     OW27276   6.883   4.217   1.034 -0.2989 -0.5952 -0.4906
 8559SOL    HW127277   6.934   4.140   0.996 -1.2284 -1.7386  0.4949
 8559SOL    HW227278   6.901   4.224   1.132 -1.5371 -0.6460 -0.2365
 8560SOL     OW27279   6.384   4.382   3.370 -0.5574 -0.6565 -0.8583
 8560SOL    HW127280   6.445   4.347   3.441  1.5164  0.4583 -1.9968
 8560SOL    HW227281   6.338   4.465   3.404  0.7896  0.1533 -0.9258
 8561SOL     OW27282   4.587   3.577   0.676 -0.3095  0.1333 -0.5032
 8561SOL    HW127283   4.502   3.627   0.663  0.2487  0.6284 -2.7175
 8561SOL    HW227284   4.632   3.565   0.587  0.4005 -2.8518  0.1592
 8562SOL     OW27285   5.352   6.248   5.087  0.0670 -0.5935  0.1280
 8562SOL    HW127286   5.361   6.177   5.156  0.3037  0.1840  0.9238
 8562SOL    HW227287   5.443   6.278   5.057  0.0291  0.5742  1.0931
 8563SOL     OW27288   3.916   6.921   1.965  0.1775 -0.0971  0.3178
 8563SOL    HW127289   3.858   6.977   2.024  0.6986  0.1303  0.6143
 8563SOL    HW227290   3.982   6.979   1.918 -0.7009 -0.1708 -1.0608
 8564SOL     OW27291   4.560   6.161   3.334 -0.1326  0.0488 -0.2735
 8564SOL    HW127292   4.540   6.082   3.276  2.4689 -0.0151 -1.2201
 8564SOL    HW227293   4.578   6.241   3.276  0.8066  0.4130  0.4946
 8565SOL     OW27294   2.361   1.429   5.811 -0.1347 -0.0785  0.0816
 8565SOL    HW127295   2.376   1.505   5.749 -1.3305  1.3424  1.4544
 8565SOL    HW227296   2.403   1.448   5.900 -1.8939 -0.2044  0.9868
 8566SOL     OW27297   1.378   3.190   1.275  0.3371 -0.1766  0.5479
 8566SOL    HW127298   1.335   3.276   1.247 -0.3863 -0.4661  0.7479
 8566SOL    HW227299   1.470   3.209   1.309  0.1906  0.5205  0.5825
 8567SOL     OW27300   5.849   5.507   1.682  0.6098  0.8329 -0.3817
 8567SOL    HW127301   5.812   5.548   1.598  1.8324  0.5593 -1.0725
 8567SOL    HW227302   5.938   5.466   1.662  0.1582 -0.7152  0.6746
 8568SOL     OW27303   1.672   5.752   5.631  0.4452 -0.1363  0.5510
 8568SOL    HW127304   1.589   5.726   5.681 -0.5849  1.0264 -0.4705
 8568SOL    HW227305   1.704   5.674   5.577  1.1869 -1.1939  2.4297
 8569SOL     OW27306   4.932   2.043   5.085  1.1211 -0.1284  0.0690
 8569SOL    HW127307   4.930   1.944   5.097  0.8316 -0.2136 -0.6320
 8569SOL    HW227308   5.027   2.074   5.081  1.2197 -0.5155 -0.7514
 8570SOL     OW27309   5.133   3.872   4.901  0.1909  0.4688  0.2163
 8570SOL    HW127310   5.199   3.868   4.826 -1.1601  0.2473 -1.0079
 8570SOL    HW227311   5.117   3.967   4.926 -1.3125  0.7903 -1.6604
 8571SOL     OW27312   0.308   5.760   6.711 -0.0656  0.3018 -0.5317
 8571SOL    HW127313   0.406   5.740   6.704 -0.2644 -0.4754 -1.3318
 8571SOL    HW227314   0.279   5.754   6.806  0.5955  0.1880 -0.3334
 8572SOL     OW27315   2.063   3.680   0.140  0.2360  0.1333  0.0762
 8572SOL    HW127316   2.101   3.731   0.064 -0.9938 -0.3129 -0.8855
 8572SOL    HW227317   2.012   3.742   0.200 -0.6587  0.1695 -0.6985
 8573SOL     OW27318   6.415   6.441   1.160  0.4023 -0.0514  0.1560
 8573SOL    HW127319   6.363   6.525   1.171 -0.5566 -0.6027 -0.0112
 8573SOL    HW227320   6.357   6.371   1.117  1.2008 -0.7668  0.2042
 8574SOL     OW27321   0.141   2.273   0.523  0.1832 -0.3203  0.4412
 8574SOL    HW127322   0.155   2.175   0.524  3.4123  0.0560  0.5822
 8574SOL    HW227323   0.118   2.303   0.431  1.4882 -0.9693 -0.1167
 8575SOL     OW27324   0.548   6.352   0.628  0.1294  0.1332  0.2480
 8575SOL    HW127325   0.523   6.316   0.538  0.7561  0.9482 -0.2675
 8575SOL    HW227326   0.476   6.331   0.693 -0.5850 -0.0145 -0.5634
 8576SOL     OW27327   0.276   1.425   3.860 -0.0430  0.1633 -0.5726
 8576SOL    HW127328   0.196   1.367   3.850  0.0124 -0.2207  0.9636
 8576SOL    HW227329   0.251   1.511   3.905  0.3537  0.1264 -0.2661
 8577SOL     OW27330   0.204   1.277   2.946 -0.3549  0.3720 -0.1993
 8577SOL    HW127331   0.253   1.193   2.972  0.7180  0.8124 -0.7174
 8577SOL    HW227332   0.107   1.258   2.938 -0.1673 -0.7514 -0.0051
 8578SOL     OW27333   5.070   6.312   0.899  0.6347  0.2321  0.5251
 8578SOL    HW127334   5.162   6.305   0.860  1.0370  0.1283  1.4501
 8578SOL    HW227335   5.078   6.335   0.997 -0.3480  1.1188  0.4067
 8579SOL     OW27336   6.720   4.571   1.281 -0.4244  0.5885  0.1985
 8579SOL    HW127337   6.763   4.632   1.348  1.1271 -0.4450  0.1951
 8579SOL    HW227338   6.621   4.569   1.297 -0.0552 -0.0286  2.8101
 8580SOL     OW27339   4.601   5.046   6.820 -0.7887  0.1719  0.4205
 8580SOL    HW127340   4.625   5.067   6.915  2.6206  1.3064 -0.5304
 8580SOL    HW227341   4.553   5.124   6.780 -2.4169 -0.3910  1.2223
 8581SOL     OW27342   5.066   6.086   2.333 -0.1925  0.3239 -0.3667
 8581SOL    HW127343   5.022   5.998   2.349  0.1931  0.4183  1.3299
 8581SOL    HW227344   5.139   6.100   2.399 -0.5998  2.1650 -0.2494
 8582SOL     OW27345   4.373   1.291   3.116 -0.5193 -0.0967 -0.1240
 8582SOL    HW127346   4.424   1.206   3.097 -1.2505 -1.0227  1.7401
 8582SOL    HW227347   4.396   1.322   3.208  0.2204  2.1408 -1.0111
 8583SOL     OW27348   2.022   1.884   6.011  0.0444  0.7573  0.2263
 8583SOL    HW127349   2.051   1.959   5.951 -2.5078  2.6311  1.1518
 8583SOL    HW227350   2.017   1.916   6.105  2.5919 -1.7423  1.3587
 8584SOL     OW27351   6.313   0.935   6.435 -0.4479 -0.6044 -0.4169
 8584SOL    HW127352   6.361   0.958   6.351 -0.5666 -2.2654 -0.9869
 8584SOL    HW227353   6.373   0.954   6.514  0.9012 -1.8732 -1.0706
 8585SOL     OW27354   1.714   2.667   0.137 -0.0344 -0.3310  0.2940
 8585SOL    HW127355   1.710   2.642   0.234 -0.3348 -2.4327 -0.2055
 8585SOL    HW227356   1.793   2.623   0.095  0.4409  1.0497 -0.3203
 8586SOL     OW27357   5.027   4.271   2.151  0.4579 -0.0814  0.8163
 8586SOL    HW127358   5.007   4.297   2.056 -0.3385 -0.0035  1.0006
 8586SOL    HW227359   5.011   4.173   2.162  1.4093 -0.2585  0.6513
 8587SOL     OW27360   1.535   1.150   3.106  0.5050 -0.1959 -0.3880
 8587SOL    HW127361   1.491   1.223   3.157 -3.0735 -2.1799 -0.3135
 8587SOL    HW227362   1.494   1.143   3.015  1.5779 -1.3623 -0.8154
 8588SOL     OW27363   5.057   0.764   1.822 -0.0170 -0.6626 -0.1721
 8588SOL    HW127364   5.086   0.859   1.808 -0.3821 -0.4901  0.2379
 8588SOL    HW227365   4.965   0.752   1.786 -0.0993 -0.7783  0.0779
 8589SOL     OW27366   1.765   1.147   1.836  0.0060 -1.1860 -0.4008
 8589SOL    HW127367   1.689   1.086   1.815 -0.6339 -1.3422  2.0391
 8589SOL    HW227368   1.798   1.130   1.929 -0.7289  2.6091  0.7560
 8590SOL     OW27369   4.553   0.364   3.131  0.0336  0.1261 -0.3114
 8590SOL    HW127370   4.527   0.273   3.164 -0.3319  0.1137 -0.6303
 8590SOL    HW227371   4.641   0.389   3.170 -0.8249  0.5205  1.4604
 8591SOL     OW27372   0.632   3.000   2.548  0.0235  0.4786 -0.7359
 8591SOL    HW127373   0.590   3.002   2.639 -1.6846 -3.7949 -1.1871
 8591SOL    HW227374   0.597   3.075   2.493 -0.4598  1.9625  1.4810
 8592SOL     OW27375   5.641   6.402   6.148 -0.0743  0.4710  0.1375
 8592SOL    HW127376   5.597   6.400   6.237  0.9416 -0.7676  0.6454
 8592SOL    HW227377   5.575   6.430   6.078 -1.8884 -1.9459  0.7440
 8593SOL     OW27378   3.740   0.334   4.304  0.1013  0.2609 -0.2902
 8593SOL    HW127379   3.676   0.286   4.364 -0.4573  0.2041 -0.9278
 8593SOL    HW227380   3.736   0.432   4.323  1.0402  0.1151  0.8183
 8594SOL     OW27381   5.886   3.580   3.725  0.1228 -0.1618  0.1075
 8594SOL    HW127382   5.881   3.602   3.627 -1.8975 -1.6285 -0.1763
 8594SOL    HW227383   5.978   3.550   3.747  0.4966 -0.2776 -1.4536
 8595SOL     OW27384   4.653   4.435   0.544 -0.0407 -0.2910 -0.3258
 8595SOL    HW127385   4.585   4.472   0.608  0.2125 -0.7038  0.1974
 8595SOL    HW227386   4.632   4.339   0.526 -1.1888  0.3021 -2.3384
 8596SOL     OW27387   6.672   1.371   5.723  0.0017 -0.4909  0.1937
 8596SOL    HW127388   6.722   1.392   5.639  0.7727 -1.9348  0.2483
 8596SOL    HW227389   6.703   1.282   5.758  0.6121  0.6172  2.6926
 8597SOL     OW27390   2.049   5.927   2.538  0.2896 -0.1281 -0.2382
 8597SOL    HW127391   1.993   5.885   2.609  0.6263 -0.4352 -0.1540
 8597SOL    HW227392   2.053   6.026   2.553  1.3154 -0.3246  0.8539
 8598SOL     OW27393   2.093   6.981   3.499 -0.2214 -0.2939 -0.1618
 8598SOL    HW127394   2.125   6.971   3.405 -1.6547 -0.2341 -0.6776
 8598SOL    HW227395   2.003   6.938   3.509 -0.3962  0.2986  1.0084
 8599SOL     OW27396   0.060   1.578   0.862 -0.0727 -0.1150  0.1541
 8599SOL    HW127397   0.084   1.607   0.954  1.4597 -3.3627  0.9004
 8599SOL    HW227398   0.137   1.595   0.800 -0.6418  0.9209 -0.3002
 8600SOL     OW27399   2.654   5.691   0.004  0.2204  0.3199 -0.3180
 8600SOL    HW127400   2.745   5.681  -0.035  0.4845  1.5736 -0.0697
 8600SOL    HW227401   2.611   5.601   0.013  1.1160 -0.2057 -1.1706
 8601SOL     OW27402   2.098   0.508   4.143  0.7602 -0.3475 -0.2563
 8601SOL    HW127403   2.096   0.425   4.198  0.0200  0.5900  1.1907
 8601SOL    HW227404   2.037   0.497   4.064  0.6869 -1.1846 -0.0953
 8602SOL     OW27405   2.641   1.086   5.132 -0.4789  0.0697  0.5678
 8602SOL    HW127406   2.579   1.093   5.054  2.5101  1.9287 -1.8925
 8602SOL    HW227407   2.699   1.005   5.122  0.9440  1.1143 -0.1007
 8603SOL     OW27408   0.682   0.359   4.448  0.5085  0.5357  0.1688
 8603SOL    HW127409   0.629   0.444   4.437 -0.0695  0.0865 -0.6371
 8603SOL    HW227410   0.780   0.380   4.449  0.3391  1.3592  1.4626
 8604SOL     OW27411   6.438   1.404   5.871  0.1992 -0.6330  0.5191
 8604SOL    HW127412   6.466   1.473   5.938 -1.4967  2.2665 -1.5312
 8604SOL    HW227413   6.506   1.399   5.798 -0.5115  0.1927 -0.2143
 8605SOL     OW27414   2.306   6.671   2.692 -0.2715 -0.7038 -0.4641
 8605SOL    HW127415   2.270   6.594   2.745  0.8620 -0.4791  0.6966
 8605SOL    HW227416   2.387   6.642   2.641  1.0650  0.0178  1.1536
 8606SOL     OW27417   5.533   3.957   6.340  0.4297 -0.6499 -0.0124
 8606SOL    HW127418   5.481   4.027   6.390  0.1372 -0.8688 -0.0080
 8606SOL    HW227419   5.510   3.867   6.377  0.7302 -0.7565 -0.0864
 8607SOL     OW27420   1.275   2.127   4.114  0.1742 -0.1162 -0.2701
 8607SOL    HW127421   1.302   2.116   4.210  0.4952  1.0629 -0.2130
 8607SOL    HW227422   1.175   2.128   4.107  0.1197  1.9257  0.3406
 8608SOL     OW27423   0.587   1.732   5.316  0.3309 -0.0059  0.5385
 8608SOL    HW127424   0.491   1.759   5.311 -0.1363 -1.7019 -1.4067
 8608SOL    HW227425   0.599   1.661   5.385 -0.3564 -1.5006 -0.8107
 8609SOL     OW27426   1.422   4.143   6.791 -0.3217  0.3937  0.0171
 8609SOL    HW127427   1.478   4.094   6.858  0.0011  2.1418  1.1196
 8609SOL    HW227428   1.478   4.163   6.710 -0.5645 -1.2980 -0.5976
 8610SOL     OW27429   3.101   0.810   2.542  0.2005  0.4611 -0.9216
 8610SOL    HW127430   3.151   0.756   2.475  3.8050 -2.0163  3.2255
 8610SOL    HW227431   3.141   0.902   2.548  1.6428 -0.1738 -0.4595
 8611SOL     OW27432   6.974   4.365   3.331  0.0261 -0.3849 -0.1111
 8611SOL    HW127433   6.941   4.272   3.347  1.6272 -1.0741 -0.5947
 8611SOL    HW227434   6.944   4.395   3.240 -0.9279 -0.2130  0.2502
 8612SOL     OW27435   3.945   0.935   4.407  0.6244  0.0270  0.6086
 8612SOL    HW127436   4.003   0.948   4.487  0.2911 -1.4397  1.1326
 8612SOL    HW227437   3.988   0.868   4.346  0.4349  0.4478  0.0026
 8613SOL     OW27438   2.968   0.805   2.976  0.0587 -0.7700 -0.1781
 8613SOL    HW127439   2.999   0.746   3.051 -0.0348 -2.6613 -1.5568
 8613SOL    HW227440   2.878   0.775   2.946 -0.1860  0.3876 -0.6327
 8614SOL     OW27441   4.902   1.457   3.386  0.4015  0.3572  0.5438
 8614SOL    HW127442   4.965   1.423   3.317 -1.6643 -3.2914  0.2028
 8614SOL    HW227443   4.948   1.461   3.474  2.2026  2.0154 -0.4062
 8615SOL     OW27444   2.341   0.974   0.752 -0.3565 -0.7526 -0.3458
 8615SOL    HW127445   2.422   0.990   0.809  0.4071 -0.5361 -1.4552
 8615SOL    HW227446   2.266   0.941   0.809  0.1619  0.1299  0.8819
 8616SOL     OW27447   6.394   3.426   2.555 -0.1891 -0.7592 -1.1482
 8616SOL    HW127448   6.314   3.366   2.552  0.3697 -1.5034 -1.7482
 8616SOL    HW227449   6.477   3.372   2.540  0.7607 -0.5392  2.3941
 8617SOL     OW27450   6.021   2.660   6.735 -0.3522  0.3247  0.3951
 8617SOL    HW127451   6.089   2.731   6.718 -0.0968 -0.1947 -0.8192
 8617SOL    HW227452   6.035   2.622   6.827  0.1127  1.1759  0.6826
 8618SOL     OW27453   6.929   1.787   0.556 -0.2680 -0.0767 -1.4565
 8618SOL    HW127454   6.905   1.875   0.514 -1.1157  0.5104  0.1539
 8618SOL    HW227455   6.851   1.725   0.550 -0.3846 -0.0010 -0.8262
 8619SOL     OW27456   6.071   6.963   0.646  0.0696  0.2715 -0.2494
 8619SOL    HW127457   6.130   6.907   0.589  1.5803  2.3033 -0.8340
 8619SOL    HW227458   6.120   7.048   0.670 -2.2064  1.5313  0.2053
 8620SOL     OW27459   3.916   6.107   2.171  0.2605 -0.2425  0.5627
 8620SOL    HW127460   3.926   6.204   2.151  0.5814 -0.7967 -2.3710
 8620SOL    HW227461   3.998   6.075   2.219  0.7788  0.6321  0.2838
 8621SOL     OW27462   5.780   2.741   1.684  0.5357  0.0238 -0.2268
 8621SOL    HW127463   5.689   2.712   1.715  0.2757  2.2281  1.3322
 8621SOL    HW227464   5.849   2.679   1.722 -0.1317 -0.0062  1.0070
 8622SOL     OW27465   5.184   6.781   5.882 -0.1493 -0.1969 -0.3907
 8622SOL    HW127466   5.153   6.868   5.918 -0.3170  0.1263 -1.3083
 8622SOL    HW227467   5.252   6.741   5.945 -0.5688  0.2647  0.3606
 8623SOL     OW27468   6.995   3.062   5.669 -0.0317 -0.7893 -0.3303
 8623SOL    HW127469   7.036   2.986   5.619 -0.9431 -2.4489  1.3601
 8623SOL    HW227470   7.066   3.113   5.717  0.3268 -2.4716  1.0161
 8624SOL     OW27471   0.607   4.095   0.457  0.0271 -0.1609  0.1018
 8624SOL    HW127472   0.534   4.041   0.499 -0.6965  2.2554  2.2515
 8624SOL    HW227473   0.694   4.073   0.501  0.0472 -0.7913 -0.2480
 8625SOL     OW27474   5.160   4.700   6.442 -0.0895 -0.3960 -0.3076
 8625SOL    HW127475   5.143   4.688   6.344 -1.4325  1.4462 -0.3552
 8625SOL    HW227476   5.250   4.663   6.466  1.2288  1.0715 -2.6657
 8626SOL     OW27477   0.842   6.895   3.950 -0.4031  0.0232 -0.3873
 8626SOL    HW127478   0.790   6.974   3.983 -0.9769  0.6863 -2.6892
 8626SOL    HW227479   0.795   6.811   3.976 -1.0154  0.5139  0.1300
 8627SOL     OW27480   1.312   1.235   3.672 -0.4106 -0.1582 -0.4930
 8627SOL    HW127481   1.369   1.316   3.687 -0.1916 -0.3682 -0.1926
 8627SOL    HW227482   1.322   1.204   3.577 -2.6753  1.8524 -1.5047
 8628SOL     OW27483   5.083   4.695   6.168 -0.7895  0.6862 -0.0584
 8628SOL    HW127484   5.109   4.776   6.115  0.3802 -0.3107 -1.0790
 8628SOL    HW227485   5.050   4.624   6.105  0.3911 -0.4401  0.5702
 8629SOL     OW27486   6.759   4.210   4.174 -0.3429 -0.4608  0.2937
 8629SOL    HW127487   6.686   4.174   4.116 -0.5771  0.5889 -0.0871
 8629SOL    HW227488   6.806   4.284   4.126  1.3079 -1.4316  0.3281
 8630SOL     OW27489   1.596   1.236   2.594 -0.3230 -0.7363  0.2448
 8630SOL    HW127490   1.515   1.276   2.552 -1.4531 -0.7405  2.2899
 8630SOL    HW227491   1.674   1.297   2.581 -0.5441 -0.8347 -1.9364
 8631SOL     OW27492   2.029   2.298   5.385 -0.1494  0.2351 -0.7867
 8631SOL    HW127493   2.114   2.329   5.428 -0.4191  0.2300 -0.2318
 8631SOL    HW227494   1.951   2.330   5.440 -0.5285  0.7671 -1.6258
 8632SOL     OW27495   5.791   1.977   1.157  0.0796  0.2598  0.8186
 8632SOL    HW127496   5.836   2.028   1.084  0.2824  1.5062  1.7741
 8632SOL    HW227497   5.692   1.982   1.144  0.0928  0.9522  0.9054
 8633SOL     OW27498   5.872   6.506   0.565  0.0517 -0.4144 -0.5103
 8633SOL    HW127499   5.880   6.537   0.470  1.2092  2.0991  0.2984
 8633SOL    HW227500   5.886   6.584   0.626 -2.0711 -1.6664  1.7452
 8634SOL     OW27501   2.946   5.899   2.114 -0.1225 -0.0098 -0.2152
 8634SOL    HW127502   2.986   5.961   2.046 -0.5841  0.1971 -0.3028
 8634SOL    HW227503   3.016   5.873   2.181  0.2618  0.0149 -0.6026
 8635SOL     OW27504   2.117   1.130   3.593  0.4167 -0.4784  0.2655
 8635SOL    HW127505   2.151   1.094   3.680 -0.2267 -0.8871  0.3530
 8635SOL    HW227506   2.150   1.074   3.518  1.5799  0.2994  0.1656
 8636SOL     OW27507   5.428   5.067   4.715 -0.2098  0.6008  0.2635
 8636SOL    HW127508   5.370   5.128   4.661 -1.5289 -0.8146 -0.0095
 8636SOL    HW227509   5.373   5.023   4.786  0.1781 -1.6516 -0.7331
 8637SOL     OW27510   6.966   0.414   6.364 -0.1231 -0.7195  0.4472
 8637SOL    HW127511   6.940   0.319   6.348 -0.0515 -0.7074  0.2530
 8637SOL    HW227512   7.042   0.438   6.303 -0.1507 -0.5344  0.4863
 8638SOL     OW27513   1.294   6.475   2.069  0.0430  0.0905  0.6602
 8638SOL    HW127514   1.366   6.537   2.101  0.7461 -0.7452  0.7412
 8638SOL    HW227515   1.307   6.457   1.971  2.0891 -2.7634  1.3328
 8639SOL     OW27516   2.361   0.568   4.390  0.3790  0.2773  0.1792
 8639SOL    HW127517   2.304   0.606   4.463 -0.3372  0.3945 -0.4381
 8639SOL    HW227518   2.307   0.555   4.307  1.5898  1.9444 -0.9507
 8640SOL     OW27519   2.175   0.220   4.086  0.7975 -0.4780  0.2421
 8640SOL    HW127520   2.251   0.157   4.104  1.5109  0.2105 -0.3042
 8640SOL    HW227521   2.198   0.278   4.008  0.3335  0.7793  1.0266
 8641SOL     OW27522   1.312   4.593   6.022 -0.0016 -0.1065 -0.4122
 8641SOL    HW127523   1.255   4.674   6.011  0.5137  0.8662  2.8434
 8641SOL    HW227524   1.408   4.620   6.030  0.1289 -0.8917  1.2329
 8642SOL     OW27525   3.659   0.067   0.555 -0.3767 -0.5635  0.3981
 8642SOL    HW127526   3.587   0.135   0.569 -1.2339 -1.4313  0.3370
 8642SOL    HW227527   3.708   0.088   0.470 -0.3690  0.1958  0.5840
 8643SOL     OW27528   4.908   6.318   2.201  0.4326  0.4581 -0.4400
 8643SOL    HW127529   4.873   6.270   2.120 -3.5909  0.7283  0.9133
 8643SOL    HW227530   4.970   6.258   2.251  0.6665 -0.8212 -2.1508
 8644SOL     OW27531   5.937   0.144   2.692 -0.2800 -0.0049 -0.4641
 8644SOL    HW127532   6.001   0.089   2.745 -0.3814 -0.8169 -1.1597
 8644SOL    HW227533   5.899   0.217   2.750 -1.0763 -1.4070  0.8648
 8645SOL     OW27534   4.043   6.887   3.122  0.2963  0.3580  0.2564
 8645SOL    HW127535   4.104   6.895   3.201 -0.4146 -0.8000  0.9511
 8645SOL    HW227536   4.092   6.843   3.046  0.3991 -0.4270  0.7596
 8646SOL     OW27537   3.504   5.771   2.885  0.6111 -0.4123  0.2720
 8646SOL    HW127538   3.489   5.791   2.982  0.3662 -0.5894  0.2713
 8646SOL    HW227539   3.448   5.832   2.829 -0.6186 -1.4758  0.2804
 8647SOL     OW27540   5.429   5.430   6.224 -0.3111  0.1875  0.6905
 8647SOL    HW127541   5.378   5.354   6.263 -1.0327 -1.6264 -3.2609
 8647SOL    HW227542   5.364   5.497   6.187  0.1315 -0.2360 -0.9586
 8648SOL     OW27543   0.168   0.390   1.614 -0.0985 -0.1209  0.0838
 8648SOL    HW127544   0.102   0.325   1.575  0.6128  0.0485 -1.4531
 8648SOL    HW227545   0.261   0.361   1.593  0.2803  0.5539  0.7663
 8649SOL     OW27546   1.659   6.816   2.533  0.2332  0.2639  0.4239
 8649SOL    HW127547   1.599   6.793   2.457  1.4791  0.0562 -0.5183
 8649SOL    HW227548   1.666   6.915   2.542  0.5179  0.2884 -0.0775
 8650SOL     OW27549   6.266   3.245   2.799  0.3646  0.2607  0.5446
 8650SOL    HW127550   6.341   3.303   2.830  1.2504 -0.7653  0.3347
 8650SOL    HW227551   6.251   3.171   2.864 -0.8853  0.7973  0.9002
 8651SOL     OW27552   5.371   1.675   3.738  0.1023  0.5485 -0.2138
 8651SOL    HW127553   5.360   1.580   3.766  1.4775  0.3343 -0.3227
 8651SOL    HW227554   5.391   1.732   3.818 -3.0247  1.2050  0.2209
 8652SOL     OW27555   4.879   5.748   4.436 -0.3279 -0.4122  0.6246
 8652SOL    HW127556   4.846   5.666   4.482 -0.5789 -1.3790 -1.1952
 8652SOL    HW227557   4.959   5.726   4.380 -0.0386  0.7108  0.5623
 8653SOL     OW27558   0.938   2.325   5.962  0.0654 -0.3815  0.0187
 8653SOL    HW127559   0.840   2.318   5.979  0.2001 -0.8190  0.6274
 8653SOL    HW227560   0.956   2.313   5.865 -0.3893 -1.2523  0.0391
 8654SOL     OW27561   1.588   1.430   5.440  0.1509  0.0363  0.6785
 8654SOL    HW127562   1.648   1.354   5.413 -1.9222 -1.3413 -0.3977
 8654SOL    HW227563   1.502   1.393   5.475 -0.5493  1.9250  1.0776
 8655SOL     OW27564   1.323   2.501   5.847 -0.3180 -0.7272  0.0297
 8655SOL    HW127565   1.323   2.446   5.930 -0.5961 -1.2623 -0.3215
 8655SOL    HW227566   1.231   2.537   5.831  0.1712  1.2287  1.1481
 8656SOL     OW27567   2.899   0.880   6.968 -0.3015 -0.0623 -0.3513
 8656SOL    HW127568   2.882   0.784   6.944 -1.5500 -0.3146  1.3551
 8656SOL    HW227569   2.864   0.939   6.896 -1.3692 -0.8398 -0.4958
 8657SOL     OW27570   2.711   6.511   2.174 -0.6328  0.5297  0.0058
 8657SOL    HW127571   2.615   6.491   2.191 -0.4695  0.3006  0.7035
 8657SOL    HW227572   2.767   6.432   2.199  0.0128  1.7029  2.7389
 8658SOL     OW27573   2.037   4.081   1.503 -0.1597 -0.6664 -0.4886
 8658SOL    HW127574   1.981   4.092   1.585 -0.5297 -0.4895 -0.7566
 8658SOL    HW227575   2.035   4.166   1.450 -0.6317 -1.0524 -1.1092
 8659SOL     OW27576   5.879   0.698   6.101  0.1102  0.0276  0.3986
 8659SOL    HW127577   5.885   0.603   6.131 -1.9310 -0.8968 -1.8429
 8659SOL    HW227578   5.807   0.745   6.152  0.2761  0.0219  0.6401
 8660SOL     OW27579   2.450   5.925   2.922 -0.0811 -0.1060  0.3855
 8660SOL    HW127580   2.384   5.969   2.862  1.3352  0.2195 -1.0089
 8660SOL    HW227581   2.539   5.971   2.914  0.6513 -1.3027  1.2292
 8661SOL     OW27582   5.571   0.064   0.418 -0.2484 -0.1334 -0.5160
 8661SOL    HW127583   5.601   0.157   0.393 -2.6452  0.8138 -0.1431
 8661SOL    HW227584   5.646   0.016   0.463  1.0179  1.6674 -0.5747
 8662SOL     OW27585   5.490   0.756   3.763 -0.4679 -0.4846 -0.4902
 8662SOL    HW127586   5.404   0.804   3.747 -1.6109 -1.7136  1.4395
 8662SOL    HW227587   5.486   0.666   3.719  0.8226  0.3042 -2.3424
 8663SOL     OW27588   0.899   6.812   0.001  0.3568 -0.1190 -0.2939
 8663SOL    HW127589   0.865   6.718   0.011  0.4947 -0.1808 -0.4014
 8663SOL    HW227590   0.857   6.870   0.070  2.2224 -0.7809  1.5212
 8664SOL     OW27591   2.736   3.113   2.124  0.1981  0.4123  0.4017
 8664SOL    HW127592   2.830   3.104   2.159 -0.0559  1.3503  1.3630
 8664SOL    HW227593   2.708   3.209   2.128 -0.5534  0.2548 -0.5775
 8665SOL     OW27594   3.897   0.627   3.825  0.1225 -0.4573 -0.1585
 8665SOL    HW127595   3.835   0.647   3.901 -0.6793  0.0735 -0.9348
 8665SOL    HW227596   3.858   0.663   3.740  2.5243  2.0044 -0.3632
 8666SOL     OW27597   1.181   4.505   0.426 -0.2470 -0.0516  0.1103
 8666SOL    HW127598   1.154   4.415   0.390 -0.2043  0.0676 -0.2156
 8666SOL    HW227599   1.166   4.575   0.357 -1.8751  0.4559  0.9164
 8667SOL     OW27600   6.002   6.858   0.260 -0.2618  0.4118 -0.0906
 8667SOL    HW127601   6.092   6.868   0.217 -0.3917  0.6960 -0.3024
 8667SOL    HW227602   5.963   6.949   0.276 -1.0353  0.2744 -1.1070
 8668SOL     OW27603   2.820   5.055   0.804 -0.0803  0.3079  0.1981
 8668SOL    HW127604   2.827   4.994   0.725  0.0975 -2.5021  2.2288
 8668SOL    HW227605   2.899   5.117   0.806  1.3835 -1.4613 -0.3551
 8669SOL     OW27606   2.864   6.331   5.830  0.0991  0.0106  0.1206
 8669SOL    HW127607   2.782   6.384   5.850  1.6314  2.0955  1.3620
 8669SOL    HW227608   2.863   6.301   5.735 -2.2216 -0.3243  0.2083
 8670SOL     OW27609   4.347   5.699   3.102  0.3445  0.1016  0.5752
 8670SOL    HW127610   4.300   5.732   3.020  0.6176 -1.3119 -0.1715
 8670SOL    HW227611   4.354   5.600   3.100  3.2206  0.2072  0.7097
 8671SOL     OW27612   4.081   4.047   3.676  0.4684 -0.1928  0.9473
 8671SOL    HW127613   4.065   3.985   3.599 -0.5684 -0.7134  1.5569
 8671SOL    HW227614   4.176   4.077   3.676  0.0092  1.5111 -1.7650
 8672SOL     OW27615   5.790   6.553   0.015 -0.1377  0.6799 -0.1610
 8672SOL    HW127616   5.701   6.511   0.030 -0.0761  0.8229  0.6021
 8672SOL    HW227617   5.778   6.651   0.000 -0.0240  0.8591  0.9019
 8673SOL     OW27618   0.044   1.288   0.567  0.2754 -0.5211 -0.3281
 8673SOL    HW127619   0.118   1.324   0.624 -1.1598  3.0786 -0.4801
 8673SOL    HW227620  -0.033   1.261   0.625  0.8423 -2.1831 -0.3064
 8674SOL     OW27621   5.490   0.534   2.958 -0.7429  0.6101 -0.1492
 8674SOL    HW127622   5.544   0.482   2.892  0.4113 -0.5399  1.6367
 8674SOL    HW227623   5.392   0.521   2.939 -0.4591  0.7990 -1.9548
 8675SOL     OW27624   0.015   1.848   2.790  0.2025  0.6188  0.6340
 8675SOL    HW127625   0.011   1.753   2.822 -0.3311  0.1455 -0.7524
 8675SOL    HW227626   0.096   1.860   2.732 -0.7648  0.4455 -0.8059
 8676SOL     OW27627   3.042   4.849   4.042 -0.2436 -0.0830 -0.0561
 8676SOL    HW127628   3.136   4.820   4.054  0.0034  1.0418  0.9680
 8676SOL    HW227629   3.040   4.939   3.999 -0.8298  0.0819  0.3024
 8677SOL     OW27630   5.265   0.526   1.414 -0.8022  0.0185  0.0638
 8677SOL    HW127631   5.357   0.552   1.443 -1.4938  0.8091  1.6428
 8677SOL    HW227632   5.243   0.574   1.329  0.8157 -1.4327 -1.2516
 8678SOL     OW27633   3.515   6.041   1.469  0.4328  0.7057 -0.7861
 8678SOL    HW127634   3.491   6.085   1.383 -1.0687 -0.6079 -1.0786
 8678SOL    HW227635   3.502   5.943   1.461 -0.4913  0.6241  1.1523
 8679SOL     OW27636   6.448   5.400   6.044  0.1845  0.0650 -0.0552
 8679SOL    HW127637   6.446   5.337   5.966  0.8510  1.9394 -1.6668
 8679SOL    HW227638   6.537   5.393   6.090  0.8440  0.8347 -1.1551
 8680SOL     OW27639   0.818   6.626   5.908 -0.2163 -0.1488  0.5335
 8680SOL    HW127640   0.757   6.688   5.956  0.4013  0.3600  0.6792
 8680SOL    HW227641   0.899   6.608   5.964 -0.3960 -1.1091  0.5025
 8681SOL     OW27642   3.154   0.230   6.464 -0.0604 -0.3173 -0.5129
 8681SOL    HW127643   3.225   0.256   6.530 -0.8406  1.3867 -0.3036
 8681SOL    HW227644   3.082   0.178   6.510  0.5812 -1.2870 -0.5556
 8682SOL     OW27645   5.849   5.112   2.480 -0.9253  0.4940  0.0336
 8682SOL    HW127646   5.792   5.040   2.442 -2.2839  1.1528  0.7669
 8682SOL    HW227647   5.810   5.144   2.566 -0.1017  1.7866 -0.0406
 8683SOL     OW27648   1.813   5.414   0.225 -0.3014  0.1708 -0.2770
 8683SOL    HW127649   1.771   5.364   0.150 -0.5194 -0.1780  0.0761
 8683SOL    HW227650   1.838   5.351   0.298 -0.5730  0.5688  0.1683
 8684SOL     OW27651   5.484   3.701   4.127 -0.0676  0.1167 -0.0857
 8684SOL    HW127652   5.404   3.719   4.184 -1.8208  0.2866 -2.4702
 8684SOL    HW227653   5.503   3.602   4.127 -1.1267 -0.0982 -0.5467
 8685SOL     OW27654   5.374   2.028   5.537  0.3594  0.6209  0.3131
 8685SOL    HW127655   5.276   2.020   5.521  0.4765  1.2178 -0.7885
 8685SOL    HW227656   5.395   1.996   5.630 -1.1375  2.1615  1.2565
 8686SOL     OW27657   4.971   2.811   6.580  0.0040  0.0962  0.0077
 8686SOL    HW127658   4.922   2.806   6.668  1.7203  1.2647  1.0802
 8686SOL    HW227659   4.905   2.804   6.505 -1.6152  0.0395  1.3729
 8687SOL     OW27660   2.334   0.746   5.255 -0.8060  0.4926  0.1940
 8687SOL    HW127661   2.403   0.803   5.299  0.3971 -2.2535  2.2021
 8687SOL    HW227662   2.342   0.754   5.156  1.6244  1.1934  0.3836
 8688SOL     OW27663   5.879   1.444   3.973  0.1437  0.0617  0.3535
 8688SOL    HW127664   5.964   1.444   4.026  1.7749 -0.2844 -2.0743
 8688SOL    HW227665   5.888   1.380   3.897 -1.1736  2.0928 -1.6251
 8689SOL     OW27666   1.711   5.000   0.738 -0.3303  0.4098  1.0280
 8689SOL    HW127667   1.623   4.979   0.781 -1.3444  0.8923 -0.7076
 8689SOL    HW227668   1.710   4.967   0.644  0.1882  3.0301  0.0217
 8690SOL     OW27669   6.027   2.420   3.194 -0.2095 -0.3203 -0.0596
 8690SOL    HW127670   5.939   2.373   3.182 -1.2262  1.1985  1.0145
 8690SOL    HW227671   6.011   2.512   3.229  1.8753 -0.6430  2.0450
 8691SOL     OW27672   0.613   3.674   3.855  0.3482  0.2529 -0.1900
 8691SOL    HW127673   0.514   3.686   3.859  0.5491  1.9808  0.1340
 8691SOL    HW227674   0.636   3.609   3.782 -1.0294 -0.5616  0.0670
 8692SOL     OW27675   5.174   2.610   0.701  0.2845  0.5319  0.4502
 8692SOL    HW127676   5.130   2.544   0.761  0.1346  0.5491  0.3595
 8692SOL    HW227677   5.254   2.648   0.747  0.1635  0.5538  0.6449
 8693SOL     OW27678   6.310   1.155   5.879 -0.3076 -0.1107  0.0100
 8693SOL    HW127679   6.355   1.245   5.885 -1.7047  0.9782 -3.3025
 8693SOL    HW227680   6.380   1.084   5.870  0.8064  0.6859  1.8341
 8694SOL     OW27681   6.179   0.697   6.402  0.1320  0.2199 -0.0763
 8694SOL    HW127682   6.089   0.714   6.363  0.1984  0.3186 -0.1930
 8694SOL    HW227683   6.226   0.785   6.416 -0.3020  0.2597  1.2451
 8695SOL     OW27684   6.171   1.282   4.743  0.5975 -0.4356 -0.5100
 8695SOL    HW127685   6.190   1.260   4.839 -1.8206 -0.1984  0.0702
 8695SOL    HW227686   6.252   1.325   4.703  1.3501  0.3559  1.6980
 8696SOL     OW27687   0.579   2.389   0.276 -0.6348 -0.0352  0.4019
 8696SOL    HW127688   0.597   2.456   0.348 -0.0692 -0.2936  0.5084
 8696SOL    HW227689   0.653   2.392   0.209 -0.7227 -0.3958  0.2868
 8697SOL     OW27690   2.690   2.689   1.403 -0.0893  0.2129 -0.1207
 8697SOL    HW127691   2.628   2.711   1.328  0.6289 -1.3399 -1.2026
 8697SOL    HW227692   2.743   2.770   1.427 -1.5992  1.2219 -0.0237
 8698SOL     OW27693   2.929   2.406   4.437 -0.2020  0.5450  0.2884
 8698SOL    HW127694   2.955   2.312   4.462 -1.9620 -0.4046 -1.1929
 8698SOL    HW227695   3.010   2.456   4.407  0.6443 -0.7829  0.2688
 8699SOL     OW27696   2.350   0.531   1.072  0.1878 -0.0396 -0.4213
 8699SOL    HW127697   2.354   0.474   1.153 -1.2765 -0.6786 -0.7706
 8699SOL    HW227698   2.366   0.627   1.097  0.4810 -0.3182  0.4823
 8700SOL     OW27699   6.557   1.876   1.943 -0.1770  0.1058 -0.0838
 8700SOL    HW127700   6.514   1.965   1.925 -0.2341 -0.0661 -0.8165
 8700SOL    HW227701   6.656   1.887   1.946 -0.2584  0.6670  2.4905
 8701SOL     OW27702   2.118   1.644   5.497 -0.0475 -0.3926 -0.7411
 8701SOL    HW127703   2.018   1.646   5.501 -0.0244 -0.3853  2.8472
 8701SOL    HW227704   2.152   1.562   5.544  1.6652  0.1348 -0.9787
 8702SOL     OW27705   6.726   3.518   1.176  0.2988  0.3403  0.1319
 8702SOL    HW127706   6.626   3.512   1.168  0.0798 -1.3952  2.7728
 8702SOL    HW227707   6.757   3.452   1.245  3.3922  0.2235 -1.2272
 8703SOL     OW27708   4.169   0.350   3.870  0.3151  0.4282  0.1249
 8703SOL    HW127709   4.206   0.287   3.802 -0.1079 -1.3452  1.4557
 8703SOL    HW227710   4.070   0.337   3.877  0.4274  0.1426  1.4549
 8704SOL     OW27711   4.393   2.981   1.410  0.2518 -0.5049  0.0679
 8704SOL    HW127712   4.364   3.044   1.337 -0.6096 -0.9988 -0.0391
 8704SOL    HW227713   4.339   2.897   1.404  0.9190 -0.9847  0.6252
 8705SOL     OW27714   2.988   1.922   1.040  0.3038 -0.6117  0.3593
 8705SOL    HW127715   3.014   1.832   1.005  0.5650 -1.2233  2.0255
 8705SOL    HW227716   2.888   1.929   1.045  0.2611 -0.5128 -0.4481
 8706SOL     OW27717   2.427   3.912   3.713 -0.6236  0.4977  0.7599
 8706SOL    HW127718   2.452   3.822   3.749 -0.9263  0.5174  1.0196
 8706SOL    HW227719   2.352   3.950   3.767 -0.4998  0.9035  0.6478
 8707SOL     OW27720   2.300   1.806   2.478  0.0811 -0.4352  0.2524
 8707SOL    HW127721   2.363   1.781   2.405 -0.0296 -1.3518  0.4580
 8707SOL    HW227722   2.209   1.822   2.441  0.8940  3.5470 -0.4744
 8708SOL     OW27723   5.967   2.457   0.240 -0.0569 -0.3252 -0.1623
 8708SOL    HW127724   5.906   2.380   0.227 -0.1965 -0.3396  0.5231
 8708SOL    HW227725   5.915   2.538   0.268  0.3018 -0.5663  1.3080
 8709SOL     OW27726   6.069   6.727   3.893  1.0157  0.1574 -0.2461
 8709SOL    HW127727   6.055   6.630   3.913  0.5290  0.2436 -0.1428
 8709SOL    HW227728   6.098   6.774   3.977  3.1542 -0.2341 -0.7275
 8710SOL     OW27729   5.704   5.339   6.831 -0.1833 -0.0373  0.2921
 8710SOL    HW127730   5.739   5.365   6.742  1.3304 -0.0596  0.8497
 8710SOL    HW227731   5.770   5.280   6.877 -0.4856  0.7644  1.8179
 8711SOL     OW27732   4.243   5.597   0.523  1.1432  0.0590 -0.4643
 8711SOL    HW127733   4.217   5.537   0.447  0.5044  1.2734 -1.2403
 8711SOL    HW227734   4.231   5.548   0.609 -0.7866 -0.4517 -0.9816
 8712SOL     OW27735   0.050   2.881   1.307  0.0422  0.1513  0.2908
 8712SOL    HW127736   0.121   2.945   1.336  0.0331  0.5963 -0.6438
 8712SOL    HW227737  -0.020   2.929   1.255 -1.0027 -0.2687  1.2642
 8713SOL     OW27738   5.731   5.483   1.075  0.9770  0.3094  0.2574
 8713SOL    HW127739   5.808   5.450   1.130 -0.1028 -0.0014  1.6496
 8713SOL    HW227740   5.728   5.435   0.988  1.2861 -1.0227  0.9541
 8714SOL     OW27741   2.248   2.439   4.577  0.0009  0.6474  0.2971
 8714SOL    HW127742   2.236   2.341   4.564  0.3605  0.4802  1.1653
 8714SOL    HW227743   2.346   2.461   4.579 -0.0629  0.9009  0.9230
 8715SOL     OW27744   2.605   4.281   4.855  0.2011  0.8618  0.1438
 8715SOL    HW127745   2.677   4.214   4.871 -1.3129 -1.2957 -1.4729
 8715SOL    HW227746   2.633   4.343   4.782  0.3367 -0.1176 -0.6513
 8716SOL     OW27747   3.216   6.661   4.280  0.0107  0.5635  0.5835
 8716SOL    HW127748   3.215   6.761   4.271 -0.6267  0.5976  0.9858
 8716SOL    HW227749   3.271   6.622   4.207  0.0870  1.2009  0.2928
 8717SOL     OW27750   6.667   0.372   0.977  0.3132 -0.4595 -0.2824
 8717SOL    HW127751   6.726   0.447   1.006  0.4163 -0.3537 -0.7624
 8717SOL    HW227752   6.599   0.407   0.913  0.7947 -0.9093 -1.0468
 8718SOL     OW27753   2.041   5.570   1.905  0.3732  0.2755 -0.0413
 8718SOL    HW127754   2.117   5.527   1.952  0.8912  1.6126  0.3892
 8718SOL    HW227755   2.046   5.669   1.917 -0.6385  0.4904 -1.2010
 8719SOL     OW27756   1.136   6.992   0.632 -0.3280  0.0185 -0.0090
 8719SOL    HW127757   1.078   6.955   0.705 -1.4971 -1.0866 -1.4617
 8719SOL    HW227758   1.139   6.928   0.556  2.3162  0.3335 -0.2633
 8720SOL     OW27759   5.583   1.741   0.555 -0.2617  0.3182 -0.7962
 8720SOL    HW127760   5.672   1.727   0.599  0.4572  0.2310 -2.2311
 8720SOL    HW227761   5.580   1.689   0.470 -2.2503 -0.8305 -0.0721
 8721SOL     OW27762   5.175   5.669   2.595  0.6655  0.1040  0.7384
 8721SOL    HW127763   5.185   5.732   2.519 -1.1649 -2.8416 -2.2130
 8721SOL    HW227764   5.260   5.617   2.608  0.8130  0.2336  0.2935
 8722SOL     OW27765   6.179   2.542   0.887 -0.3098 -0.2947 -0.0160
 8722SOL    HW127766   6.160   2.557   0.790  0.9390  0.4111 -0.1824
 8722SOL    HW227767   6.211   2.449   0.901  0.8755  0.0153 -0.5385
 8723SOL     OW27768   2.552   6.652   6.920 -0.1704  0.0518 -0.9271
 8723SOL    HW127769   2.475   6.632   6.859  1.8362 -2.3686 -2.8422
 8723SOL    HW227770   2.638   6.627   6.876  1.4866 -1.1021  2.5917
 8724SOL     OW27771   4.771   0.383   1.864  0.4120 -0.3713 -0.3401
 8724SOL    HW127772   4.823   0.436   1.930  0.1640  0.5310 -0.8404
 8724SOL    HW227773   4.813   0.393   1.773 -1.6116  1.9694 -1.1526
 8725SOL     OW27774   2.495   1.914   5.421 -0.4505 -0.2037 -0.2897
 8725SOL    HW127775   2.487   1.964   5.335 -3.2313 -0.1926 -0.1082
 8725SOL    HW227776   2.495   1.978   5.498 -0.2301 -0.3080 -0.2015
 8726SOL     OW27777   6.969   3.660   1.211 -0.0222  0.3013 -0.2847
 8726SOL    HW127778   7.043   3.611   1.166  0.3641  2.2228 -1.8906
 8726SOL    HW227779   6.883   3.611   1.197  0.6429 -0.9985  0.0395
 8727SOL     OW27780   1.955   1.270   5.938  0.0930  0.1960  0.1173
 8727SOL    HW127781   2.006   1.259   6.023  0.2290  0.1654  0.0318
 8727SOL    HW227782   1.893   1.192   5.926  0.1191  0.1693  0.1571
 8728SOL     OW27783   3.587   1.886   2.585  0.1015  0.5783  0.3732
 8728SOL    HW127784   3.542   1.808   2.541 -1.6757  0.4150  2.3364
 8728SOL    HW227785   3.522   1.960   2.597  0.7226  0.9088  1.9824
 8729SOL     OW27786   2.507   4.075   0.300 -0.6394 -0.1040  0.0204
 8729SOL    HW127787   2.427   4.096   0.356  0.9311  0.5401  2.1233
 8729SOL    HW227788   2.577   4.030   0.356  1.6677  2.0559 -0.9398
 8730SOL     OW27789   6.195   2.460   5.075 -0.5929  0.0594  0.0672
 8730SOL    HW127790   6.118   2.406   5.109  0.7403 -2.1758 -0.2452
 8730SOL    HW227791   6.235   2.415   4.996  1.1355  1.0524  0.3246
 8731SOL     OW27792   2.791   1.636   2.714 -0.5200  0.3512 -0.7307
 8731SOL    HW127793   2.807   1.578   2.794 -0.7672 -0.0885 -0.9945
 8731SOL    HW227794   2.733   1.713   2.739  0.5947  1.0373 -0.1494
 8732SOL     OW27795   2.396   5.854   0.981  0.5334  0.5106 -0.3926
 8732SOL    HW127796   2.430   5.763   1.002  2.2942  1.3282  0.5619
 8732SOL    HW227797   2.384   5.906   1.066  0.2558  1.3978 -0.9599
 8733SOL     OW27798   3.395   6.774   3.908 -0.1902 -0.2779 -0.5269
 8733SOL    HW127799   3.422   6.695   3.853  1.0482 -1.9249  2.2313
 8733SOL    HW227800   3.466   6.845   3.903  0.4922 -0.9205 -0.1671
 8734SOL     OW27801   4.004   2.271   0.090  0.1138  0.3653  0.5560
 8734SOL    HW127802   4.053   2.257   0.003  0.8384 -0.3948  1.0648
 8734SOL    HW227803   3.947   2.352   0.084 -1.2015 -0.6253 -1.2453
 8735SOL     OW27804   0.451   1.172   3.698  0.0571  0.8117 -0.3782
 8735SOL    HW127805   0.373   1.130   3.653  0.1347 -1.2172  1.2429
 8735SOL    HW227806   0.464   1.265   3.663 -2.3127  0.7690 -1.5278
 8736SOL     OW27807   5.793   1.283   5.799  0.0760  0.2798 -0.0760
 8736SOL    HW127808   5.887   1.252   5.788 -0.3803 -0.7334 -1.4010
 8736SOL    HW227809   5.789   1.382   5.787  1.0103  0.3712  0.2832
 8737SOL     OW27810   4.710   1.922   0.004  0.1335 -0.5499 -0.6356
 8737SOL    HW127811   4.710   1.932  -0.096 -0.4464  2.6083 -0.4015
 8737SOL    HW227812   4.797   1.955   0.041 -0.8200  1.2742  0.0777
 8738SOL     OW27813   3.202   0.814   6.945 -0.2815  0.4704 -0.2207
 8738SOL    HW127814   3.106   0.842   6.952 -0.6792 -0.9696  0.4753
 8738SOL    HW227815   3.239   0.801   7.037  0.3001  0.1104 -0.5056
 8739SOL     OW27816   2.533   0.403   0.940 -0.1204  0.3231  0.0631
 8739SOL    HW127817   2.449   0.446   0.972 -0.1443  0.4205 -0.1348
 8739SOL    HW227818   2.514   0.346   0.860 -0.0124  0.2805  0.0664
 8740SOL     OW27819   0.545   1.142   3.957  0.1048 -0.6756 -0.3489
 8740SOL    HW127820   0.511   1.137   3.863  2.1864  1.4634 -1.3185
 8740SOL    HW227821   0.644   1.161   3.956 -0.1743  1.5929  2.2187
 8741SOL     OW27822   1.824   1.419   0.100 -0.4298  0.1615  0.2140
 8741SOL    HW127823   1.918   1.387   0.092 -1.1729 -3.1112  2.3092
 8741SOL    HW227824   1.762   1.346   0.070 -2.3104  1.2556  1.2643
 8742SOL     OW27825   5.805   4.545   6.408  0.2099 -0.3144 -0.4272
 8742SOL    HW127826   5.731   4.499   6.359 -2.2915  2.7632  0.1958
 8742SOL    HW227827   5.770   4.584   6.493  2.2879  2.1237 -0.5926
 8743SOL     OW27828   1.118   1.810   6.612  0.1205  0.8432 -0.7759
 8743SOL    HW127829   1.112   1.720   6.569 -0.5089 -0.8523  2.5212
 8743SOL    HW227830   1.032   1.859   6.599 -1.4789 -1.1450  1.3555
 8744SOL     OW27831   6.090   0.345   1.275  0.4643 -0.4667  0.0623
 8744SOL    HW127832   6.013   0.288   1.303 -0.8129  0.3753 -1.5741
 8744SOL    HW227833   6.067   0.441   1.289  1.8582 -0.2296  0.9944
 8745SOL     OW27834   3.403   1.339   3.043  0.5580  0.1680 -0.2000
 8745SOL    HW127835   3.499   1.367   3.035  0.1290  1.1971 -3.1596
 8745SOL    HW227836   3.395   1.266   3.111  3.3808  0.2115  0.3031
 8746SOL     OW27837   2.498   1.212   5.719  0.5121 -0.0400 -0.2390
 8746SOL    HW127838   2.454   1.299   5.742  1.5592  0.9635 -1.8162
 8746SOL    HW227839   2.549   1.222   5.633  2.7852 -1.4855  0.8559
 8747SOL     OW27840   1.566   6.624   4.086  0.4294 -0.2003 -0.1392
 8747SOL    HW127841   1.472   6.646   4.058 -0.2827 -2.4466  0.2147
 8747SOL    HW227842   1.629   6.692   4.049 -1.1493  0.4412 -1.8350
 8748SOL     OW27843   2.792   0.817   1.404  0.3219  0.3132  0.2423
 8748SOL    HW127844   2.828   0.753   1.335  1.1739  1.0146  0.0156
 8748SOL    HW227845   2.826   0.791   1.494  1.3838  0.9165  0.0423
 8749SOL     OW27846   1.815   5.258   5.577  0.6462 -0.4297 -0.2769
 8749SOL    HW127847   1.724   5.238   5.540  0.6919 -0.7421 -0.2239
 8749SOL    HW227848   1.883   5.202   5.529  0.7337 -0.6670  0.1169
 8750SOL     OW27849   1.698   1.775   2.613 -0.7595  0.2606  0.3458
 8750SOL    HW127850   1.676   1.848   2.547 -0.5153  1.3416  1.4164
 8750SOL    HW227851   1.794   1.782   2.639 -1.0042  0.2396  1.2703
 8751SOL     OW27852   6.907   1.726   4.336  0.3866 -0.3942  0.3994
 8751SOL    HW127853   6.849   1.767   4.407  0.1686 -1.4137  0.8261
 8751SOL    HW227854   6.895   1.627   4.336 -0.1028 -0.3709 -1.4998
 8752SOL     OW27855   4.523   2.396   4.982 -0.5729 -0.4912  0.0873
 8752SOL    HW127856   4.503   2.481   5.031  0.3873 -0.1331 -0.1127
 8752SOL    HW227857   4.620   2.374   4.991 -0.6372 -1.1093 -0.5879
 8753SOL     OW27858   5.774   3.296   0.080  0.3264  0.1329  0.1287
 8753SOL    HW127859   5.762   3.225   0.150 -1.3046 -0.1292 -0.3748
 8753SOL    HW227860   5.711   3.280   0.005  0.2786  1.8441 -0.2436
 8754SOL     OW27861   3.383   5.616   0.790 -0.6018  0.0164 -0.1703
 8754SOL    HW127862   3.392   5.562   0.706 -0.1283 -1.0071  0.5110
 8754SOL    HW227863   3.463   5.675   0.800  0.1696 -1.0782  0.3701
 8755SOL     OW27864   4.379   4.817   2.444 -0.4337  0.4570 -0.7621
 8755SOL    HW127865   4.320   4.791   2.368 -1.0781  1.2074 -0.5355
 8755SOL    HW227866   4.475   4.812   2.414 -0.6682  0.5829 -1.5743
 8756SOL     OW27867   6.803   5.682   0.614  0.2873  0.0264  0.5318
 8756SOL    HW127868   6.802   5.668   0.515  1.9590 -2.1400  0.7482
 8756SOL    HW227869   6.709   5.697   0.646 -0.3299  0.4174 -1.3214
 8757SOL     OW27870   6.037   1.561   0.241  0.1842  0.1986  0.0609
 8757SOL    HW127871   5.968   1.520   0.182  1.3912 -1.4121 -0.3094
 8757SOL    HW227872   6.095   1.489   0.279  1.0759  1.4276  1.1062
 8758SOL     OW27873   2.161   6.644   0.870 -0.2912 -0.0054  0.5718
 8758SOL    HW127874   2.113   6.557   0.861  0.5552 -0.2591 -4.4262
 8758SOL    HW227875   2.258   6.627   0.891  0.1064 -0.4670 -1.4388
 8759SOL     OW27876   6.742   3.134   5.702 -0.2346  0.0370  0.9758
 8759SOL    HW127877   6.717   3.217   5.652 -0.5053 -1.0289 -0.7136
 8759SOL    HW227878   6.835   3.107   5.679 -1.0537 -1.6135 -0.6569
 8760SOL     OW27879   1.778   1.798   2.958 -0.3324 -0.0543  0.0721
 8760SOL    HW127880   1.840   1.771   2.884 -0.3473 -1.7191  0.6343
 8760SOL    HW227881   1.827   1.857   3.022 -0.8391  3.0413 -2.1790
 8761SOL     OW27882   2.577   3.301   5.470 -0.3592  0.7694  0.2856
 8761SOL    HW127883   2.525   3.340   5.546  0.0169  0.2503  0.8207
 8761SOL    HW227884   2.675   3.312   5.488 -0.2241  3.2201 -1.4757
 8762SOL     OW27885   1.821   5.985   1.423 -0.0915 -0.4037  0.9415
 8762SOL    HW127886   1.724   5.975   1.401  0.1080 -0.8176  0.2089
 8762SOL    HW227887   1.846   5.919   1.494 -0.5297  0.2865  1.7499
 8763SOL     OW27888   1.396   3.406   3.444 -0.0117  0.1533 -0.1624
 8763SOL    HW127889   1.322   3.414   3.511  1.4852  2.9779  1.2916
 8763SOL    HW227890   1.446   3.321   3.461  0.1892  0.6751  2.1910
 8764SOL     OW27891   0.231   2.176   4.536 -0.5529  0.1111  0.1562
 8764SOL    HW127892   0.290   2.222   4.603  0.4047  1.0838 -1.3117
 8764SOL    HW227893   0.263   2.082   4.522 -2.5106 -1.1778  3.1586
 8765SOL     OW27894   6.979   2.465   0.686 -0.3858  0.2873  0.1993
 8765SOL    HW127895   7.046   2.392   0.672 -0.2775  0.2455  0.8954
 8765SOL    HW227896   7.018   2.552   0.656 -0.4955  0.0776 -0.5826
 8766SOL     OW27897   2.190   0.671   4.625  0.4017  0.3042  0.2306
 8766SOL    HW127898   2.261   0.740   4.637  0.7873  0.0494 -0.5573
 8766SOL    HW227899   2.172   0.626   4.713 -1.3249  2.7852  1.2760
 8767SOL     OW27900   6.509   0.938   0.631 -0.0972  0.0751  0.0569
 8767SOL    HW127901   6.483   1.007   0.699  1.6959  1.3651 -0.4964
 8767SOL    HW227902   6.480   0.968   0.540 -0.3912 -0.5021 -0.0433
 8768SOL     OW27903   0.562   3.572   0.984  0.1359 -0.8570  0.5216
 8768SOL    HW127904   0.501   3.628   1.040 -1.2219 -1.0111 -0.7413
 8768SOL    HW227905   0.526   3.479   0.978  0.4329 -0.9281 -0.3268
 8769SOL     OW27906   3.025   5.843   6.657  0.3073  0.2024  0.4603
 8769SOL    HW127907   2.957   5.891   6.712 -0.3837 -1.7150  1.3722
 8769SOL    HW227908   3.102   5.904   6.638 -0.1288  1.3936  2.2864
 8770SOL     OW27909   4.854   4.606   5.366 -0.4406  0.0875 -0.0404
 8770SOL    HW127910   4.816   4.515   5.386 -1.4364  0.2901 -0.9439
 8770SOL    HW227911   4.816   4.640   5.280  0.1876  1.2260  0.1160
 8771SOL     OW27912   6.124   3.556   6.934  0.3980 -0.0443  0.2410
 8771SOL    HW127913   6.155   3.487   7.000 -0.4966 -0.2524  0.4623
 8771SOL    HW227914   6.094   3.510   6.850 -2.5686 -0.2110  1.2907
 8772SOL     OW27915   3.904   3.362   1.217  0.2587  0.1259  0.0471
 8772SOL    HW127916   3.865   3.421   1.287  2.1238 -1.7971  2.9042
 8772SOL    HW227917   3.844   3.284   1.201  0.5179 -0.1894  0.6067
 8773SOL     OW27918   3.737   3.102   1.167  0.0645 -0.2230 -0.2356
 8773SOL    HW127919   3.826   3.059   1.150  0.1262 -0.0478 -0.3597
 8773SOL    HW227920   3.666   3.054   1.115 -0.1004 -1.0937  0.7693
 8774SOL     OW27921   3.937   5.875   4.153  0.2864  0.0326  0.6231
 8774SOL    HW127922   3.890   5.797   4.194 -0.3048  0.5792  0.9970
 8774SOL    HW227923   3.870   5.937   4.112  0.9075 -1.4082 -2.9097
 8775SOL     OW27924   4.092   3.658   4.107  0.0729 -0.0640  0.2183
 8775SOL    HW127925   4.044   3.743   4.086 -1.4241 -0.4556  1.8231
 8775SOL    HW227926   4.190   3.676   4.116 -0.1489  1.3582 -0.0219
 8776SOL     OW27927   6.623   0.300   2.812 -0.2539 -0.5369  0.5598
 8776SOL    HW127928   6.559   0.370   2.780 -2.1309 -1.6985  1.5908
 8776SOL    HW227929   6.614   0.218   2.757  0.9900 -0.4648  0.2037
 8777SOL     OW27930   6.950   4.288   4.439 -0.2462  0.2035  0.6144
 8777SOL    HW127931   7.008   4.367   4.419  0.8831 -0.8509 -0.4008
 8777SOL    HW227932   6.891   4.269   4.361 -0.8752  0.3370  1.0521
 8778SOL     OW27933   4.229   1.872   2.642  0.1256 -0.0394 -0.2454
 8778SOL    HW127934   4.234   1.787   2.694  0.9229 -0.1437 -0.4755
 8778SOL    HW227935   4.273   1.860   2.553  1.2268  0.9037  0.1431
 8779SOL     OW27936   6.921   6.405   2.881  0.4540  0.0849 -0.5242
 8779SOL    HW127937   6.980   6.340   2.835  0.6287  0.1561 -0.4033
 8779SOL    HW227938   6.839   6.358   2.916  1.6766 -0.5844  1.6600
 8780SOL     OW27939   0.263   1.980   3.771 -0.4102 -0.1694  0.1356
 8780SOL    HW127940   0.329   1.905   3.774  0.9176  0.9885  0.9649
 8780SOL    HW227941   0.196   1.968   3.844  0.7506  0.2762  1.3032
 8781SOL     OW27942   0.895   4.049   3.910 -0.3907 -0.6341  0.5505
 8781SOL    HW127943   0.929   3.992   3.835 -0.7634 -1.2805  0.8653
 8781SOL    HW227944   0.802   4.022   3.933 -0.8208  0.5410  0.2772
 8782SOL     OW27945   1.722   4.371   4.768 -0.1366 -0.3071 -0.3027
 8782SOL    HW127946   1.743   4.452   4.822 -0.3755  0.6068 -1.5295
 8782SOL    HW227947   1.775   4.294   4.802  0.9624  0.6253  0.1799
 8783SOL     OW27948   5.489   6.283   2.921 -0.1208 -0.4939 -0.4293
 8783SOL    HW127949   5.510   6.305   3.016  0.7912 -0.8477 -0.5372
 8783SOL    HW227950   5.461   6.365   2.873 -0.8661 -0.3604  0.2104
 8784SOL     OW27951   4.081   2.860   0.519  0.2786 -0.2509  0.1102
 8784SOL    HW127952   4.178   2.881   0.528 -0.1403  1.8303  0.2247
 8784SOL    HW227953   4.030   2.944   0.506 -1.7684 -1.0560  2.2230
 8785SOL     OW27954   2.831   0.192   3.788 -0.2928  0.6652  0.1711
 8785SOL    HW127955   2.795   0.283   3.768  0.2982  1.0511  0.7925
 8785SOL    HW227956   2.879   0.157   3.708  0.2682  1.3069  0.2105
 8786SOL     OW27957   1.172   3.583   3.681 -0.7678  0.0287  0.1398
 8786SOL    HW127958   1.136   3.666   3.639 -1.7529  0.2098  1.2822
 8786SOL    HW227959   1.121   3.504   3.648 -0.1499 -0.0742 -0.5812
 8787SOL     OW27960   6.393   3.224   4.937  0.0423  0.0327 -0.2245
 8787SOL    HW127961   6.466   3.157   4.953  0.8386  0.9459  0.0815
 8787SOL    HW227962   6.419   3.311   4.978 -1.7585  0.0748  0.9090
 8788SOL     OW27963   3.802   5.049   2.818 -0.2216 -0.4361  0.3574
 8788SOL    HW127964   3.840   5.017   2.731 -1.0485  1.0765 -0.6088
 8788SOL    HW227965   3.729   4.987   2.847 -0.0037 -0.9058 -0.0698
 8789SOL     OW27966   3.262   6.242   4.627  0.0435  0.4479 -0.0014
 8789SOL    HW127967   3.349   6.284   4.601  0.0031 -0.1863 -1.2285
 8789SOL    HW227968   3.196   6.313   4.650 -0.0359  1.1002 -2.0751
 8790SOL     OW27969   2.110   6.939   3.223  0.3730  0.3383  0.4758
 8790SOL    HW127970   2.175   6.984   3.162  1.0982 -0.3863  0.7025
 8790SOL    HW227971   2.017   6.972   3.204  0.2530 -1.3319 -2.4566
 8791SOL     OW27972   4.206   0.705   5.042 -0.3417 -0.1200  0.0368
 8791SOL    HW127973   4.278   0.752   5.093 -0.7722  0.2016  0.3702
 8791SOL    HW227974   4.244   0.628   4.992  0.3969  0.5894 -0.5339
 8792SOL     OW27975   2.916   1.297   2.504  0.0907 -0.4548  0.0572
 8792SOL    HW127976   2.956   1.268   2.417  1.0150  1.2729 -0.1363
 8792SOL    HW227977   2.855   1.375   2.488 -0.9429 -1.0798  0.7828
 8793SOL     OW27978   0.198   3.822   2.241  0.7033  0.2829  0.2733
 8793SOL    HW127979   0.132   3.881   2.288  0.6801 -0.3027  0.9941
 8793SOL    HW227980   0.186   3.831   2.142 -0.3917  0.2712  0.3909
 8794SOL     OW27981   0.782   6.968   3.219  0.2048  0.0550 -0.2849
 8794SOL    HW127982   0.842   6.888   3.222 -2.1587 -1.8607 -0.4910
 8794SOL    HW227983   0.708   6.956   3.286 -0.3926  1.9364 -0.5533
 8795SOL     OW27984   6.940   5.771   4.054  0.4013 -0.1804 -0.5026
 8795SOL    HW127985   6.981   5.747   4.142 -2.7367 -1.4767  0.7355
 8795SOL    HW227986   6.978   5.711   3.983 -0.2756 -2.2881  0.8235
 8796SOL     OW27987   2.065   6.278   2.067  0.4633  0.3003  0.0978
 8796SOL    HW127988   2.132   6.263   2.140 -0.6933 -1.8333  0.8311
 8796SOL    HW227989   2.005   6.198   2.061  0.1074  0.6797 -2.8057
 8797SOL     OW27990   3.898   1.415   6.902 -0.3614 -0.0804 -0.4294
 8797SOL    HW127991   3.879   1.390   6.807 -0.0417 -1.6820 -0.0989
 8797SOL    HW227992   3.913   1.513   6.908  3.2036 -0.3306 -2.6631
 8798SOL     OW27993   6.826   5.000   0.632  0.1946  0.1030  0.4890
 8798SOL    HW127994   6.882   4.971   0.555 -0.8917 -1.1364  0.1178
 8798SOL    HW227995   6.858   4.956   0.716 -0.1653 -0.5545  0.2882
 8799SOL     OW27996   0.964   0.524   1.750 -0.6806  0.1469 -0.1982
 8799SOL    HW127997   0.965   0.610   1.800 -1.4478  0.7622 -1.2255
 8799SOL    HW227998   1.056   0.484   1.752 -0.5377  0.5018  1.0886
 8800SOL     OW27999   2.779   4.810   1.113  0.3990 -0.0076  0.1563
 8800SOL    HW128000   2.863   4.763   1.087  0.6015  0.7147 -0.5524
 8800SOL    HW228001   2.794   4.909   1.111 -0.3345  0.1184  0.4985
 8801SOL     OW28002   1.244   2.454   2.017 -0.8554 -0.0357 -0.5550
 8801SOL    HW128003   1.285   2.535   2.060 -1.3363  0.0046 -0.1610
 8801SOL    HW228004   1.157   2.433   2.062 -1.7538  0.4586 -2.0017
 8802SOL     OW28005   0.310   0.921   6.894  0.4636 -0.1113 -0.3412
 8802SOL    HW128006   0.323   0.934   6.795  3.6170  0.6854  0.0681
 8802SOL    HW228007   0.304   0.823   6.914  0.7989 -0.3218 -1.2186
 8803SOL     OW28008   3.955   5.329   3.068  0.0910 -0.1691 -0.4783
 8803SOL    HW128009   3.985   5.236   3.047 -1.0810 -0.3771 -1.3167
 8803SOL    HW228010   4.014   5.368   3.139  0.1408 -1.7994  0.4141
 8804SOL     OW28011   6.249   6.453   4.036 -0.3411 -0.0077 -0.1224
 8804SOL    HW128012   6.336   6.478   4.078 -0.8502 -0.3909  1.2160
 8804SOL    HW228013   6.266   6.414   3.945  0.8434  0.3176 -0.0570
 8805SOL     OW28014   1.794   3.784   3.105 -0.7055  0.3356 -0.7734
 8805SOL    HW128015   1.749   3.695   3.106  2.9418 -1.6923 -0.6568
 8805SOL    HW228016   1.830   3.803   3.014  2.0746 -0.3848  0.0790
 8806SOL     OW28017   4.457   6.670   0.662 -0.1914 -0.3129  0.1850
 8806SOL    HW128018   4.549   6.637   0.684  0.6363 -0.1334 -2.6326
 8806SOL    HW228019   4.400   6.593   0.634 -0.1573 -0.1380 -0.3782
 8807SOL     OW28020   3.742   6.781   3.780 -0.0755  0.1790 -0.0449
 8807SOL    HW128021   3.741   6.840   3.699  0.0586 -2.1356 -1.8474
 8807SOL    HW228022   3.828   6.730   3.782 -0.6182 -0.7132  0.8632
 8808SOL     OW28023   1.181   2.444   1.725  0.7365  0.1874 -0.5165
 8808SOL    HW128024   1.182   2.487   1.815  1.4802  1.0401 -0.9169
 8808SOL    HW228025   1.097   2.471   1.676  0.7478  0.4286 -0.4054
 8809SOL     OW28026   3.904   5.320   2.321  0.4074 -0.2993 -0.4259
 8809SOL    HW128027   3.959   5.384   2.267  0.1714  0.6924  0.4753
 8809SOL    HW228028   3.964   5.258   2.372  0.7313  0.9088  0.7074
 8810SOL     OW28029   5.230   0.307   3.265  0.6894 -0.1805 -0.3317
 8810SOL    HW128030   5.145   0.287   3.215  0.1457 -0.9707  0.8654
 8810SOL    HW228031   5.308   0.269   3.215  0.4011  0.8356 -1.6126
 8811SOL     OW28032   3.601   0.714   4.959  0.3744  0.1201  0.5559
 8811SOL    HW128033   3.652   0.796   4.932  0.4380 -0.0013  0.3055
 8811SOL    HW228034   3.523   0.701   4.897  1.2900 -0.9098 -0.4134
 8812SOL     OW28035   4.275   6.468   4.132 -0.3787 -0.4187 -0.0685
 8812SOL    HW128036   4.218   6.387   4.121 -1.5659  0.4616 -0.4846
 8812SOL    HW228037   4.229   6.548   4.093  1.1594  0.3074 -0.4786
 8813SOL     OW28038   5.316   5.597   2.299 -0.2534  0.1524  0.4082
 8813SOL    HW128039   5.234   5.607   2.243 -1.0305 -1.7322  1.1403
 8813SOL    HW228040   5.309   5.514   2.354  1.9626  0.1932  0.8361
 8814SOL     OW28041   2.663   0.927   3.081 -0.1990  0.4262  0.2009
 8814SOL    HW128042   2.650   1.023   3.103 -0.7955  0.4686 -0.3414
 8814SOL    HW228043   2.730   0.888   3.145  0.3530  1.2902  0.1707
 8815SOL     OW28044   1.346   0.014   6.432  0.6306 -0.1448  0.1062
 8815SOL    HW128045   1.382   0.001   6.524 -1.7892  0.9219  1.2716
 8815SOL    HW228046   1.321  -0.075   6.393 -1.1440 -0.4166  1.7351
 8816SOL     OW28047   0.090   6.214   0.447  0.4055 -0.4670 -0.1385
 8816SOL    HW128048   0.080   6.223   0.348  1.3977 -2.0875 -0.4116
 8816SOL    HW228049   0.184   6.233   0.474  0.9732 -3.1694  0.0392
 8817SOL     OW28050   5.437   3.623   4.489 -0.3630  0.0832  0.1648
 8817SOL    HW128051   5.427   3.566   4.408 -0.6482 -0.3922  0.5314
 8817SOL    HW228052   5.511   3.587   4.546 -0.1379  0.4379  0.1031
 8818SOL     OW28053   4.813   5.328   2.563  0.4699 -0.1421  0.1868
 8818SOL    HW128054   4.850   5.417   2.587 -2.1309  0.5740  1.9427
 8818SOL    HW228055   4.744   5.339   2.491  0.3321 -0.7845  0.2124
 8819SOL     OW28056   1.322   4.546   5.215  0.0474  0.0190  0.1073
 8819SOL    HW128057   1.236   4.496   5.208  0.0685 -0.0898  0.5940
 8819SOL    HW228058   1.360   4.559   5.124  0.7408 -2.0760  0.0464
 8820SOL     OW28059   0.362   4.835   5.111 -0.5521 -0.0782  0.2104
 8820SOL    HW128060   0.284   4.886   5.076  0.7345  1.1868 -0.9247
 8820SOL    HW228061   0.337   4.790   5.197 -2.2521  1.0056  0.3171
 8821SOL     OW28062   1.810   0.129   4.577  0.0524 -0.1076  0.1020
 8821SOL    HW128063   1.894   0.183   4.582  0.9033 -1.5141  1.8255
 8821SOL    HW228064   1.831   0.037   4.543 -0.6034 -0.7758  1.4456
 8822SOL     OW28065   3.303   5.361   0.260  0.4045 -0.6937 -0.3929
 8822SOL    HW128066   3.350   5.291   0.206 -0.4857 -1.6018 -0.0065
 8822SOL    HW228067   3.231   5.403   0.205 -0.3388 -1.4470 -0.0228
 8823SOL     OW28068   5.227   6.207   5.480 -0.0532  0.2757  0.0804
 8823SOL    HW128069   5.183   6.285   5.436 -2.9992 -0.5998  1.1775
 8823SOL    HW228070   5.311   6.236   5.525 -0.4311  2.5468 -0.5716
 8824SOL     OW28071   6.133   0.734   5.423 -0.7113 -0.0451  0.5850
 8824SOL    HW128072   6.063   0.801   5.400 -1.5378  0.1036  3.1379
 8824SOL    HW228073   6.188   0.713   5.343 -2.6647  1.0300 -1.1244
 8825SOL     OW28074   1.169   2.214   6.158 -0.0653  0.0275  0.5962
 8825SOL    HW128075   1.092   2.252   6.106 -0.3339 -0.6021  0.5298
 8825SOL    HW228076   1.247   2.276   6.150 -0.4877  0.5601  0.4735
 8826SOL     OW28077   5.092   1.932   5.585  0.2320  0.3427  0.0473
 8826SOL    HW128078   5.063   1.898   5.496 -0.0856  0.9182 -0.0685
 8826SOL    HW228079   5.046   1.880   5.657 -0.7499  0.9370 -0.1314
 8827SOL     OW28080   2.358   1.561   2.605  0.1170  0.3543 -0.1673
 8827SOL    HW128081   2.385   1.585   2.698 -0.3134  1.3655 -0.2944
 8827SOL    HW228082   2.352   1.644   2.549  0.4815 -0.2496 -1.1304
 8828SOL     OW28083   2.119   0.802   5.409 -0.3607  0.1950 -0.1365
 8828SOL    HW128084   2.196   0.793   5.347 -0.2174 -2.4605  0.3120
 8828SOL    HW228085   2.110   0.719   5.464 -1.8429  1.5506  1.8357
 8829SOL     OW28086   1.933   1.970   3.172  0.9103 -0.8140 -0.5431
 8829SOL    HW128087   1.850   1.929   3.211  2.1481 -1.8510  1.1262
 8829SOL    HW228088   2.013   1.933   3.218  2.2029  3.0176  0.6603
 8830SOL     OW28089   4.796   6.783   0.259 -0.4004 -0.5186  0.3463
 8830SOL    HW128090   4.838   6.776   0.169  0.2704 -1.0979  0.6847
 8830SOL    HW228091   4.754   6.873   0.271  1.7217  0.5237  0.3916
 8831SOL     OW28092   6.034   6.841   1.738 -0.5675 -0.0594 -0.7006
 8831SOL    HW128093   5.959   6.818   1.801  0.8650 -0.6765  0.8702
 8831SOL    HW228094   6.097   6.904   1.784 -1.1141  2.0687 -2.7056
 8832SOL     OW28095   2.688   3.450   0.667  0.5685  0.0254  0.1785
 8832SOL    HW128096   2.750   3.378   0.636 -1.3237 -2.3245  1.5123
 8832SOL    HW228097   2.645   3.423   0.753 -3.8468  0.4128 -1.6145
 8833SOL     OW28098   1.986   0.735   1.653  0.6712 -0.1241 -0.2692
 8833SOL    HW128099   2.011   0.716   1.558 -0.0921 -2.5756 -0.0662
 8833SOL    HW228100   2.069   0.737   1.709  1.1181  1.2259 -0.9432
 8834SOL     OW28101   0.077   5.628   3.614 -0.0919 -0.0069  0.2913
 8834SOL    HW128102   0.063   5.577   3.529  1.2574 -0.1389  0.1197
 8834SOL    HW228103   0.082   5.725   3.594 -0.2828  0.0054  0.2972
 8835SOL     OW28104   6.162   0.749   0.212 -0.2377  0.6735 -0.2118
 8835SOL    HW128105   6.245   0.762   0.158  0.3665 -0.1908  0.4731
 8835SOL    HW228106   6.105   0.679   0.169 -0.1666  0.5979 -0.1831
 8836SOL     OW28107   3.861   3.391   5.454  0.5025  0.3980  0.0484
 8836SOL    HW128108   3.948   3.367   5.498 -0.0184 -0.2910  0.7261
 8836SOL    HW228109   3.799   3.313   5.460 -1.1333  1.7491  1.9859
 8837SOL     OW28110   0.998   2.450   4.178 -0.0774  0.5808 -0.0076
 8837SOL    HW128111   1.077   2.432   4.237 -0.2751 -1.5376 -0.3035
 8837SOL    HW228112   1.027   2.446   4.083 -0.4451  0.2587 -0.1080
 8838SOL     OW28113   1.226   3.997   2.187 -0.3867 -0.3334  0.0828
 8838SOL    HW128114   1.192   4.084   2.152  0.1870 -0.7408 -1.5552
 8838SOL    HW228115   1.149   3.940   2.214 -0.7771  0.5840  0.9971
 8839SOL     OW28116   0.077   1.979   4.270  0.0287 -0.1084  0.2818
 8839SOL    HW128117   0.036   1.896   4.307  0.4496 -1.8562 -2.8364
 8839SOL    HW228118   0.175   1.978   4.289  0.0770 -0.4502  0.0160
 8840SOL     OW28119   5.682   6.325   0.495  0.4014 -0.0400 -0.4076
 8840SOL    HW128120   5.757   6.388   0.517  0.6201 -0.4556  0.0540
 8840SOL    HW228121   5.664   6.266   0.574 -1.8553  1.4617  0.3084
 8841SOL     OW28122   5.531   1.468   6.490  0.0001  0.3097  0.0758
 8841SOL    HW128123   5.611   1.489   6.547  0.1930 -2.4025  0.9825
 8841SOL    HW228124   5.447   1.485   6.542 -0.0010  2.0138 -0.4471
 8842SOL     OW28125   1.713   6.442   4.499 -0.6325 -0.5585  0.0832
 8842SOL    HW128126   1.738   6.424   4.594 -2.9063 -1.3164  0.6104
 8842SOL    HW228127   1.781   6.401   4.438  0.2142 -1.1358  1.3677
 8843SOL     OW28128   2.122   4.152   5.068 -0.6128 -0.0698  1.0570
 8843SOL    HW128129   2.204   4.169   5.014 -2.1491  0.6831 -1.1750
 8843SOL    HW228130   2.147   4.106   5.154  1.8227 -2.7500 -0.8985
 8844SOL     OW28131   4.071   5.857   5.299  0.9860  0.6510  0.1872
 8844SOL    HW128132   4.126   5.896   5.373 -0.5216  1.7123  0.7915
 8844SOL    HW228133   4.104   5.765   5.278  2.2420  0.8182  1.3136
 8845SOL     OW28134   3.228   3.711   2.146 -0.9077 -0.1781 -0.2028
 8845SOL    HW128135   3.247   3.766   2.228  0.5959  0.6255 -1.0435
 8845SOL    HW228136   3.297   3.640   2.137 -1.9763 -1.2716  0.0511
 8846SOL     OW28137   1.700   4.343   6.426  0.7088  0.8260  0.1177
 8846SOL    HW128138   1.688   4.369   6.522  0.4432 -0.5011  0.4659
 8846SOL    HW228139   1.662   4.252   6.411 -0.0075  1.3455 -1.4509
 8847SOL     OW28140   6.911   5.005   3.176  0.2850  0.9263 -0.1988
 8847SOL    HW128141   6.895   5.093   3.222  1.4448 -0.6919  3.6378
 8847SOL    HW228142   7.008   4.996   3.155  0.0535  0.8168 -1.2625
 8848SOL     OW28143   5.763   2.356   3.218  0.6246 -0.5690  0.1322
 8848SOL    HW128144   5.749   2.258   3.233 -2.7396  0.0257  1.9449
 8848SOL    HW228145   5.770   2.403   3.306 -0.2537  1.0581 -0.6236
 8849SOL     OW28146   2.267   6.570   3.877  0.6656  0.5867  0.5304
 8849SOL    HW128147   2.306   6.522   3.798 -0.7849 -0.0089  0.1558
 8849SOL    HW228148   2.173   6.596   3.858  0.1296  0.0343  2.2266
 8850SOL     OW28149   6.554   0.697   6.663 -0.0420  0.0151 -0.1174
 8850SOL    HW128150   6.626   0.637   6.699  0.5719  1.1996  0.7086
 8850SOL    HW228151   6.470   0.644   6.651  0.5508 -1.0697  0.3273
 8851SOL     OW28152   6.107   1.674   4.908 -0.1351  0.2602  0.2811
 8851SOL    HW128153   6.205   1.659   4.893 -0.2605  0.0688 -0.3555
 8851SOL    HW228154   6.081   1.635   4.997  0.2286 -0.2791  0.1562
 8852SOL     OW28155   4.115   6.828   6.305 -0.2107  0.5160 -0.0615
 8852SOL    HW128156   4.090   6.897   6.236 -0.6383  1.2443  0.7964
 8852SOL    HW228157   4.198   6.781   6.276  0.8846  2.3402 -0.0461
 8853SOL     OW28158   2.569   1.869   6.525 -0.0291 -0.5252  0.0960
 8853SOL    HW128159   2.539   1.961   6.548  0.5623  0.9632 -4.1874
 8853SOL    HW228160   2.492   1.817   6.488  0.4127 -0.3280 -1.1505
 8854SOL     OW28161   5.338   1.879   0.556  0.1859  0.0596 -0.1851
 8854SOL    HW128162   5.348   1.972   0.591  0.8654 -1.1495  3.1844
 8854SOL    HW228163   5.428   1.835   0.552 -0.2906 -0.9329 -0.2279
 8855SOL     OW28164   5.414   1.110   0.675  0.0621 -0.3409 -0.3588
 8855SOL    HW128165   5.446   1.035   0.733  0.3705 -1.0690 -1.4503
 8855SOL    HW228166   5.325   1.086   0.636 -1.1163  0.9718  1.3184
 8856SOL     OW28167   1.139   1.692   4.991  0.5592 -0.3643 -0.0838
 8856SOL    HW128168   1.162   1.745   4.910  3.4026  1.2971  1.6594
 8856SOL    HW228169   1.041   1.699   5.009  0.4157  2.0218 -1.4618
 8857SOL     OW28170   1.450   5.722   2.869  0.1915  0.6153 -0.3014
 8857SOL    HW128171   1.396   5.650   2.912  1.0706  0.1646  0.0735
 8857SOL    HW228172   1.424   5.730   2.773  0.1320 -0.2552 -0.3660
 8858SOL     OW28173   1.711   6.873   4.049 -0.1204  0.1856 -0.3920
 8858SOL    HW128174   1.645   6.938   4.084  0.2591  1.8323 -2.5134
 8858SOL    HW228175   1.800   6.917   4.040  0.7935 -1.3937  0.4902
 8859SOL     OW28176   5.269   0.348   4.788 -0.1748 -0.3548 -0.1605
 8859SOL    HW128177   5.226   0.350   4.878  0.9662  1.6416  0.3943
 8859SOL    HW228178   5.247   0.261   4.742  0.5757 -2.1732  2.6982
 8860SOL     OW28179   3.060   1.456   3.203  0.4941  0.2028 -0.2284
 8860SOL    HW128180   3.048   1.541   3.152  2.0400 -0.4978 -1.8566
 8860SOL    HW228181   3.055   1.378   3.140 -1.7912 -1.0543  1.3429
 8861SOL     OW28182   5.300   2.356   2.585 -0.2078  0.5400 -0.4780
 8861SOL    HW128183   5.328   2.426   2.651 -0.1194  1.9004 -1.8879
 8861SOL    HW228184   5.332   2.266   2.616  1.1119  1.3368  0.5927
 8862SOL     OW28185   2.605   4.475   0.365  0.1537  0.0680 -0.1796
 8862SOL    HW128186   2.597   4.431   0.454  1.4232 -1.9685 -1.0063
 8862SOL    HW228187   2.693   4.452   0.324 -0.5461  0.6460 -2.1344
 8863SOL     OW28188   6.067   5.295   1.625  0.1562  0.4901  0.3848
 8863SOL    HW128189   6.073   5.297   1.724  0.5448 -1.1956  0.4237
 8863SOL    HW228190   6.154   5.322   1.585  0.4088 -0.0822  0.5378
 8864SOL     OW28191   1.336   2.490   0.188 -0.0315  0.2466 -0.2119
 8864SOL    HW128192   1.391   2.426   0.243 -0.0111 -1.0365 -1.6613
 8864SOL    HW228193   1.304   2.444   0.106 -3.7951  0.7365  0.7890
 8865SOL     OW28194   4.094   1.058   0.234  0.0936 -0.0505 -0.3146
 8865SOL    HW128195   4.170   1.111   0.271  0.2640  0.4770 -1.3657
 8865SOL    HW228196   4.025   1.043   0.305  0.8741  0.0409  0.4678
 8866SOL     OW28197   0.196   5.292   0.000  0.1888  0.2636 -0.1396
 8866SOL    HW128198   0.216   5.353   0.077  0.7559  0.9555 -0.8179
 8866SOL    HW228199   0.106   5.315  -0.038 -0.4818 -0.6575  0.8465
 8867SOL     OW28200   0.589   4.013   1.612 -0.0989 -0.0756  0.6270
 8867SOL    HW128201   0.555   4.091   1.665  0.5875  0.1434  0.7600
 8867SOL    HW228202   0.657   3.964   1.666 -1.3994 -1.5181  1.0392
 8868SOL     OW28203   2.206   2.011   2.133  0.1370 -0.1795  0.1815
 8868SOL    HW128204   2.214   2.065   2.217 -0.1544 -3.1413  2.2618
 8868SOL    HW228205   2.180   2.071   2.057 -1.8788  2.3284  2.6466
 8869SOL     OW28206   0.160   6.740   0.219  0.2747  0.1776  0.6526
 8869SOL    HW128207   0.231   6.691   0.270  0.6243  0.9784  0.9508
 8869SOL    HW228208   0.118   6.677   0.153  1.8446 -0.1080 -0.1471
 8870SOL     OW28209   5.282   3.012   0.128 -0.3552  0.0058 -0.4089
 8870SOL    HW128210   5.328   3.098   0.152  0.2107  0.0714 -1.6833
 8870SOL    HW228211   5.319   2.977   0.042 -0.0484 -1.9138  0.4564
 8871SOL     OW28212   1.548   3.283   0.316 -0.2436  0.0503 -0.6051
 8871SOL    HW128213   1.488   3.288   0.236 -1.2789 -1.1471  0.0710
 8871SOL    HW228214   1.498   3.313   0.397  0.0961 -0.8791 -0.0409
 8872SOL     OW28215   6.074   0.169   5.549 -0.6605 -0.4960 -0.2151
 8872SOL    HW128216   6.052   0.265   5.537  1.3088  0.0001 -0.3189
 8872SOL    HW228217   6.006   0.125   5.607 -2.8671  0.3633 -2.0188
 8873SOL     OW28218   3.977   2.944   3.718 -0.0378  0.1416 -0.5750
 8873SOL    HW128219   3.996   3.042   3.727 -1.4719  0.3855 -0.0184
 8873SOL    HW228220   3.881   2.930   3.697  0.2597 -1.1411 -1.1816
 8874SOL     OW28221   1.363   5.032   4.591 -0.7077 -0.0570  0.2171
 8874SOL    HW128222   1.280   5.046   4.644 -1.5962 -0.7050 -0.9470
 8874SOL    HW228223   1.382   4.934   4.582 -0.7999  0.0124 -0.9484
 8875SOL     OW28224   1.377   5.660   6.988 -0.3829 -0.6929  0.6710
 8875SOL    HW128225   1.393   5.624   6.896 -0.8252  1.6319 -0.3879
 8875SOL    HW228226   1.461   5.700   7.023 -0.7456  0.4531  0.2866
 8876SOL     OW28227   4.162   3.708   3.737  0.2061  0.1609 -0.4995
 8876SOL    HW128228   4.193   3.771   3.666 -0.7182  3.1387  1.4999
 8876SOL    HW228229   4.139   3.760   3.819 -1.0307 -2.8377  1.2287
 8877SOL     OW28230   5.099   3.048   5.693  0.4725  0.2511 -0.3073
 8877SOL    HW128231   5.106   2.986   5.615 -1.4408  1.0329 -1.1555
 8877SOL    HW228232   5.170   3.118   5.686  0.8106 -0.1400 -0.9158
 8878SOL     OW28233   4.738   1.362   2.062 -0.6503  0.4766  0.0137
 8878SOL    HW128234   4.673   1.369   1.987 -0.8979 -1.0950  0.0396
 8878SOL    HW228235   4.709   1.421   2.138 -1.7393  0.2201 -0.1894
 8879SOL     OW28236   6.642   4.627   2.211  0.1876 -0.1906 -0.2239
 8879SOL    HW128237   6.699   4.544   2.208 -0.3425 -0.6032  0.7010
 8879SOL    HW228238   6.584   4.631   2.129 -0.8110 -1.4949  0.3835
 8880SOL     OW28239   6.763   6.246   4.590  0.8657 -0.3946  0.0984
 8880SOL    HW128240   6.817   6.272   4.670  0.3422  0.3015  0.2408
 8880SOL    HW228241   6.758   6.324   4.527 -2.4962  0.7015  1.5006
 8881SOL     OW28242   6.781   0.774   1.061  0.0827  0.3452 -0.0054
 8881SOL    HW128243   6.791   0.873   1.049 -0.8378  0.6098  1.2240
 8881SOL    HW228244   6.736   0.756   1.148  0.0496 -1.1609 -0.3179
 8882SOL     OW28245   1.148   4.476   5.502  0.9332 -0.3467  0.0681
 8882SOL    HW128246   1.243   4.459   5.474  1.5684 -0.7286  2.2256
 8882SOL    HW228247   1.109   4.391   5.539 -0.4143 -0.2938 -1.1452
 8883SOL     OW28248   5.708   4.472   5.922  0.3034 -1.0140 -0.2824
 8883SOL    HW128249   5.625   4.518   5.890  1.0814  0.6408 -0.0350
 8883SOL    HW228250   5.687   4.377   5.945 -1.5473 -0.5993 -0.1063
 8884SOL     OW28251   1.710   3.486   2.975 -0.2891  0.0101  0.3090
 8884SOL    HW128252   1.691   3.506   3.071  1.0728  0.8545  0.4252
 8884SOL    HW228253   1.656   3.547   2.917  0.6500  1.1639  0.6003
 8885SOL     OW28254   4.242   0.307   2.560 -0.3019  0.5175 -0.3216
 8885SOL    HW128255   4.239   0.210   2.538  0.9167  0.7627 -1.6764
 8885SOL    HW228256   4.167   0.355   2.515 -1.6037  0.0815  1.2651
 8886SOL     OW28257   2.025   0.736   0.558  0.3792 -0.1781  0.6023
 8886SOL    HW128258   1.988   0.823   0.528 -1.0011  0.4635  3.7665
 8886SOL    HW228259   1.980   0.661   0.509 -1.0878  0.7837  0.4431
 8887SOL     OW28260   3.535   5.413   1.441 -0.2331 -0.1767 -0.2228
 8887SOL    HW128261   3.581   5.485   1.493 -0.6805  0.0648 -0.1654
 8887SOL    HW228262   3.488   5.351   1.504  0.2508 -0.5917 -0.2640
 8888SOL     OW28263   6.168   6.770   6.694 -0.3182  0.3124 -0.4357
 8888SOL    HW128264   6.108   6.749   6.616  0.3150  0.0170 -0.8447
 8888SOL    HW228265   6.166   6.869   6.711  0.3127  0.5141 -1.4631
 8889SOL     OW28266   2.439   1.348   2.898 -0.0937 -0.5726  0.3787
 8889SOL    HW128267   2.422   1.443   2.874 -0.7553 -0.9214 -0.5767
 8889SOL    HW228268   2.483   1.344   2.988 -2.5837  0.5213  1.7587
 8890SOL     OW28269   6.386   5.174   4.727  0.0212 -0.2562  0.0023
 8890SOL    HW128270   6.310   5.186   4.789 -0.1834 -1.1413 -0.0568
 8890SOL    HW228271   6.431   5.086   4.745  0.1821 -0.3654 -0.8495
 8891SOL     OW28272   1.674   5.477   5.233  0.3952  0.1058 -0.1030
 8891SOL    HW128273   1.594   5.423   5.207 -0.9163  0.6524  2.4036
 8891SOL    HW228274   1.661   5.571   5.203 -0.4924  0.4398  1.2029
 8892SOL     OW28275   3.248   3.775   6.840 -0.3988  0.7136 -0.3935
 8892SOL    HW128276   3.266   3.676   6.835 -1.4458  0.4840  0.0682
 8892SOL    HW228277   3.335   3.825   6.834  0.4511 -0.3228  1.8531
 8893SOL     OW28278   5.382   2.457   0.476  0.9823  0.1347 -0.2163
 8893SOL    HW128279   5.371   2.377   0.417 -0.4255  0.3865 -0.3219
 8893SOL    HW228280   5.302   2.516   0.467  2.4599  2.1053 -0.9464
 8894SOL     OW28281   6.271   1.075   2.140  0.5181 -0.2326 -0.4839
 8894SOL    HW128282   6.201   1.112   2.080 -1.3947 -0.9900  1.1614
 8894SOL    HW228283   6.285   0.978   2.119  0.7143 -0.2046 -0.4846
 8895SOL     OW28284   3.158   1.244   3.350 -0.7085  0.0401 -0.1446
 8895SOL    HW128285   3.122   1.320   3.295 -1.0656  0.0703  0.1261
 8895SOL    HW228286   3.088   1.172   3.356 -0.9862  0.3854  0.9492
 8896SOL     OW28287   3.184   4.016   6.622 -0.3585 -0.3546 -0.2631
 8896SOL    HW128288   3.210   3.930   6.666  0.9636 -0.6299 -1.4924
 8896SOL    HW228289   3.158   3.997   6.527  0.2779  0.6167 -0.6464
 8897SOL     OW28290   0.503   5.559   4.906  0.2578 -0.1258 -0.5500
 8897SOL    HW128291   0.451   5.639   4.875 -0.4102 -0.2825  0.1399
 8897SOL    HW228292   0.498   5.552   5.005 -0.1058 -1.2870 -0.6286
 8898SOL     OW28293   5.146   4.704   4.189 -0.5750 -0.8313  0.9772
 8898SOL    HW128294   5.089   4.621   4.192  0.7801 -1.8140  0.4963
 8898SOL    HW228295   5.123   4.757   4.108 -1.8858 -0.3882  1.6096
 8899SOL     OW28296   2.470   6.575   5.440  0.2631 -0.8290  0.6254
 8899SOL    HW128297   2.474   6.512   5.363  0.0096  1.3556 -1.2858
 8899SOL    HW228298   2.385   6.628   5.436  0.9772  0.4376  1.4763
 8900SOL     OW28299   6.206   4.576   3.658 -0.0414 -0.2345  0.0956
 8900SOL    HW128300   6.192   4.611   3.566 -2.2070 -0.3731  0.3117
 8900SOL    HW228301   6.195   4.651   3.724 -3.2608 -0.8847  0.4697
 8901SOL     OW28302   0.884   4.423   3.057  0.1312  0.9930  0.1002
 8901SOL    HW128303   0.799   4.422   3.006  0.6450 -0.3593 -0.7753
 8901SOL    HW228304   0.865   4.420   3.155 -0.8856  4.1583  0.1293
 8902SOL     OW28305   1.081   1.411   3.635 -0.2016 -0.2091 -0.0191
 8902SOL    HW128306   0.993   1.366   3.654  1.0174 -2.7672  0.0353
 8902SOL    HW228307   1.154   1.361   3.681  1.4723  0.8846 -1.3781
 8903SOL     OW28308   6.589   1.218   2.870  0.6272 -0.0312  0.8187
 8903SOL    HW128309   6.492   1.202   2.850  0.9427  0.3271 -1.2394
 8903SOL    HW228310   6.608   1.316   2.865  1.3860 -0.2190 -0.4036
 8904SOL     OW28311   4.764   1.078   1.365 -0.2352 -0.3784  0.5555
 8904SOL    HW128312   4.763   1.003   1.431 -1.3513 -0.6542  0.2546
 8904SOL    HW228313   4.670   1.106   1.346  0.1884  1.3784  0.9619
 8905SOL     OW28314   5.501   3.521   4.995  0.5894 -0.5161 -0.0452
 8905SOL    HW128315   5.403   3.528   5.013  0.4266 -2.3410 -0.0389
 8905SOL    HW228316   5.549   3.499   5.080  0.6796 -2.1004 -0.4825
 8906SOL     OW28317   6.114   6.272   5.484  0.5618 -0.0489  0.7673
 8906SOL    HW128318   6.043   6.202   5.483  0.4282  0.0913  0.4416
 8906SOL    HW228319   6.147   6.288   5.390 -1.3180  2.2731  0.4175
 8907SOL     OW28320   0.207   1.714   1.081  0.3533 -0.0125 -0.4721
 8907SOL    HW128321   0.278   1.644   1.079 -0.1011 -0.4748 -0.6947
 8907SOL    HW228322   0.243   1.800   1.045  0.6854 -0.3570 -0.9705
 8908SOL     OW28323   6.024   0.393   5.921  0.2388  0.3061  0.2405
 8908SOL    HW128324   6.033   0.407   6.020  0.0456  1.0603  0.1562
 8908SOL    HW228325   6.081   0.460   5.873  1.6149 -1.0908 -0.1464
 8909SOL     OW28326   4.153   1.923   3.076  0.0456 -0.6156 -0.0019
 8909SOL    HW128327   4.180   1.999   3.017 -0.9560 -0.7625 -0.6793
 8909SOL    HW228328   4.209   1.843   3.055  1.9879  0.2287  1.5875
 8910SOL     OW28329   5.442   3.980   3.150  0.1063 -0.1474 -0.3709
 8910SOL    HW128330   5.510   4.038   3.106 -0.0605  0.9219  0.7357
 8910SOL    HW228331   5.460   3.976   3.248 -1.6958  0.5506  0.0157
 8911SOL     OW28332   1.569   3.790   5.975 -0.0821 -0.6406  0.3812
 8911SOL    HW128333   1.471   3.767   5.968 -0.7254  1.4071  1.7548
 8911SOL    HW228334   1.591   3.865   5.913  0.1767  0.0876  1.3246
 8912SOL     OW28335   1.940   3.289   2.151  0.2905 -0.0458 -0.3704
 8912SOL    HW128336   2.034   3.296   2.119  0.2156  1.7721 -0.3019
 8912SOL    HW228337   1.932   3.213   2.216  1.5252 -0.6896 -0.9460
 8913SOL     OW28338   0.208   4.568   4.091 -0.2103 -0.2914 -0.1978
 8913SOL    HW128339   0.283   4.530   4.039 -1.6196 -3.4658 -0.1269
 8913SOL    HW228340   0.241   4.601   4.180  0.9375 -3.5024  0.7041
 8914SOL     OW28341   0.052   6.178   2.792  0.2092 -0.3771 -0.4941
 8914SOL    HW128342   0.125   6.160   2.727 -0.5896  0.9722 -1.8289
 8914SOL    HW228343  -0.035   6.146   2.755 -0.1970 -0.0081  0.1156
 8915SOL     OW28344   3.601   5.126   4.010  0.6114 -0.3200 -0.2154
 8915SOL    HW128345   3.581   5.224   4.002 -0.4551 -0.6621 -2.3712
 8915SOL    HW228346   3.685   5.106   3.959  2.2152 -0.1999  2.2186
 8916SOL     OW28347   0.051   6.600   5.124 -0.5699 -0.2622  0.1746
 8916SOL    HW128348  -0.016   6.623   5.054 -3.0413 -1.4768  1.9892
 8916SOL    HW228349   0.011   6.614   5.214  1.5244 -1.3541  1.3536
 8917SOL     OW28350   1.992   1.364   5.276 -0.0694 -0.1655 -0.0225
 8917SOL    HW128351   2.004   1.462   5.295 -3.1683  0.3249  0.0413
 8917SOL    HW228352   2.017   1.311   5.357  0.2571  0.7117  0.4670
 8918SOL     OW28353   5.869   3.036   1.611 -0.4275  0.6595 -0.3849
 8918SOL    HW128354   5.845   2.972   1.538 -0.9678 -0.0864  0.4238
 8918SOL    HW228355   5.954   3.007   1.655 -3.0951 -2.5648  3.2827
 8919SOL     OW28356   5.914   0.683   1.219  0.0060 -0.1440 -0.0862
 8919SOL    HW128357   5.873   0.632   1.143  0.4159 -1.1432  0.3355
 8919SOL    HW228358   5.950   0.770   1.186  2.5418 -1.6653 -1.6453
 8920SOL     OW28359   6.494   2.242   4.064  0.0334  0.4470  0.0710
 8920SOL    HW128360   6.529   2.261   3.973  1.2588 -0.9282  0.2261
 8920SOL    HW228361   6.567   2.254   4.131 -0.6578  0.6921  0.7911
 8921SOL     OW28362   6.243   3.439   0.542  0.2558  0.0515 -0.3867
 8921SOL    HW128363   6.273   3.350   0.577  2.7054 -0.6722 -3.8025
 8921SOL    HW228364   6.150   3.430   0.505  0.5226 -1.1712 -0.8286
 8922SOL     OW28365   1.097   1.236   0.919 -0.3658 -0.5963 -0.4170
 8922SOL    HW128366   1.078   1.151   0.968 -0.8894 -0.5423 -0.5197
 8922SOL    HW228367   1.196   1.251   0.914 -0.1830 -1.9729 -1.6932
 8923SOL     OW28368   0.884   1.990   5.108  0.2571  0.0243  0.0613
 8923SOL    HW128369   0.889   2.008   5.010 -1.2757  2.4238  0.3539
 8923SOL    HW228370   0.976   1.971   5.143  0.6390 -2.7496 -2.0722
 8924SOL     OW28371   1.089   4.727   3.602  0.1413 -0.3650  0.6856
 8924SOL    HW128372   1.023   4.680   3.661 -0.1316  0.2540  0.8850
 8924SOL    HW228373   1.069   4.706   3.506 -0.7689  0.3294  0.7027
 8925SOL     OW28374   3.510   3.229   6.689 -0.2135  0.5330  0.1238
 8925SOL    HW128375   3.560   3.199   6.770  1.0845 -1.0490 -1.1706
 8925SOL    HW228376   3.540   3.320   6.663  1.6725 -0.1637 -0.3009
 8926SOL     OW28377   2.541   1.642   3.742  0.3419 -0.4193  0.3438
 8926SOL    HW128378   2.567   1.566   3.800  0.8483  0.4940  1.3598
 8926SOL    HW228379   2.469   1.613   3.678  0.3047 -1.6394  0.9213
 8927SOL     OW28380   2.722   4.496   2.496 -0.0907  0.0004 -0.1308
 8927SOL    HW128381   2.709   4.415   2.439 -1.7178 -0.4717  0.8592
 8927SOL    HW228382   2.680   4.575   2.452  0.4615  0.0794 -0.5331
 8928SOL     OW28383   1.278   0.038   0.343 -0.8738 -0.2983 -0.0312
 8928SOL    HW128384   1.283   0.119   0.284 -1.1000 -1.1258 -1.2450
 8928SOL    HW228385   1.190  -0.008   0.327 -2.0847  0.8013  2.8468
 8929SOL     OW28386   5.915   4.225   5.966 -0.2740 -0.3992 -0.2321
 8929SOL    HW128387   5.871   4.150   6.016 -0.5384  0.0697  0.2530
 8929SOL    HW228388   5.913   4.205   5.868  0.3896 -1.4015 -0.0583
 8930SOL     OW28389   1.624   0.354   4.023 -0.2486  0.3146  0.0553
 8930SOL    HW128390   1.687   0.319   3.953 -0.0291  1.3953 -0.3024
 8930SOL    HW228391   1.641   0.451   4.037 -1.5066  0.5086  0.3177
 8931SOL     OW28392   2.030   3.154   3.412  0.2442  0.2185  0.8529
 8931SOL    HW128393   2.126   3.150   3.442  0.7069 -1.8159 -0.6797
 8931SOL    HW228394   2.024   3.213   3.331  0.0216  1.0747  1.4840
 8932SOL     OW28395   5.923   3.425   3.197 -0.4441 -0.1369  0.5895
 8932SOL    HW128396   5.937   3.511   3.148  0.1001 -0.2166  0.6047
 8932SOL    HW228397   5.861   3.367   3.144 -0.4006  0.0539  0.3272
 8933SOL     OW28398   3.071   1.667   1.638  0.1085  0.4938 -0.0620
 8933SOL    HW128399   3.113   1.757   1.635  0.5455  0.6025  3.7636
 8933SOL    HW228400   3.143   1.597   1.631 -0.0154  0.4565 -1.1110
 8934SOL     OW28401   5.390   0.970   1.749  0.6455 -0.8139 -0.6419
 8934SOL    HW128402   5.465   0.975   1.683  1.7979 -1.0430  0.6171
 8934SOL    HW228403   5.417   1.011   1.835 -0.7259 -0.8038 -0.1829
 8935SOL     OW28404   4.301   1.230   5.860  0.3912  0.2904  0.0150
 8935SOL    HW128405   4.304   1.135   5.830 -1.6962  0.6477 -1.5963
 8935SOL    HW228406   4.363   1.285   5.804  0.1444  0.1801 -0.3673
 8936SOL     OW28407   3.350   3.936   0.269  0.0281 -0.5691  0.1557
 8936SOL    HW128408   3.265   3.945   0.217 -0.8773  0.3203  1.7375
 8936SOL    HW228409   3.396   3.851   0.242 -0.7398 -0.4839 -1.5753
 8937SOL     OW28410   3.809   0.381   5.940  0.4806  0.3996 -0.0926
 8937SOL    HW128411   3.853   0.439   6.008  0.4883  0.7433 -0.3884
 8937SOL    HW228412   3.712   0.373   5.961  0.5600  0.1699  0.1913
 8938SOL     OW28413   2.698   0.631   1.089  0.2060 -0.4172 -0.0669
 8938SOL    HW128414   2.666   0.546   1.047 -1.6463  1.1890 -2.2382
 8938SOL    HW228415   2.621   0.676   1.135  0.6419  0.9745 -0.6419
 8939SOL     OW28416   3.547   3.344   4.911 -0.2100 -0.3110 -0.2806
 8939SOL    HW128417   3.616   3.303   4.851 -0.4485  0.4920 -1.1312
 8939SOL    HW228418   3.465   3.287   4.910 -0.4460  0.0333 -1.2451
 8940SOL     OW28419   0.890   2.639   2.539 -0.2199  0.3079 -0.0557
 8940SOL    HW128420   0.849   2.654   2.629  0.9216  0.4194  0.4637
 8940SOL    HW228421   0.908   2.542   2.526 -2.3935  0.0007 -1.0863
 8941SOL     OW28422   5.247   3.709   4.289  0.3768 -0.1689  0.0236
 8941SOL    HW128423   5.197   3.633   4.248  1.4656 -0.2451 -1.1972
 8941SOL    HW228424   5.285   3.680   4.377 -1.1953 -0.2804  0.7147
 8942SOL     OW28425   3.281   4.031   1.324 -0.2732  0.5425  0.0352
 8942SOL    HW128426   3.327   4.107   1.371  1.4722 -0.4218 -0.0054
 8942SOL    HW228427   3.337   4.001   1.247 -0.8134 -0.8981  0.1682
 8943SOL     OW28428   4.897   6.537   5.942  0.0508  1.1076  0.0679
 8943SOL    HW128429   4.887   6.450   5.990 -0.0149  1.2160  0.2511
 8943SOL    HW228430   4.938   6.521   5.852  2.5808  1.1688  1.1316
 8944SOL     OW28431   4.021   3.504   5.792 -0.4192  0.3328 -0.0927
 8944SOL    HW128432   4.071   3.469   5.713 -1.9546 -2.9303  0.2054
 8944SOL    HW228433   3.969   3.586   5.766  2.1175  1.6703 -1.3084
 8945SOL     OW28434   5.323   6.018   6.065  0.2612 -0.8725 -0.0206
 8945SOL    HW128435   5.250   6.086   6.077  1.5894  0.2490  2.2039
 8945SOL    HW228436   5.411   6.065   6.059  1.2069 -2.3845  1.4593
 8946SOL     OW28437   3.771   1.843   1.122 -0.1760  0.4706  0.2825
 8946SOL    HW128438   3.847   1.909   1.121  0.3673 -0.0910 -1.8730
 8946SOL    HW228439   3.776   1.787   1.039 -1.0601 -1.7903  1.6772
 8947SOL     OW28440   5.539   5.426   2.776 -0.1478  0.3297  0.2218
 8947SOL    HW128441   5.549   5.464   2.868  0.5343 -1.3524  0.8882
 8947SOL    HW228442   5.526   5.327   2.782 -2.3044  0.4257 -1.4020
 8948SOL     OW28443   1.262   5.486   1.420  0.0962 -0.3075 -0.0810
 8948SOL    HW128444   1.202   5.436   1.358  0.5183  1.8913 -2.4430
 8948SOL    HW228445   1.356   5.482   1.386  0.4879  0.2836  0.8815
 8949SOL     OW28446   5.549   0.345   6.795  0.7906 -0.1736  0.2072
 8949SOL    HW128447   5.635   0.357   6.746  0.4576  1.4078 -0.0742
 8949SOL    HW228448   5.483   0.298   6.736  0.4932  1.4315 -0.8368
 8950SOL     OW28449   0.682   0.856   1.585 -0.0629  0.3561 -0.8400
 8950SOL    HW128450   0.610   0.826   1.647 -0.1281 -0.0156 -1.0909
 8950SOL    HW228451   0.716   0.777   1.534  0.9084  0.4291 -0.3265
 8951SOL     OW28452   3.080   3.064   6.850 -0.0275 -0.0832 -0.4081
 8951SOL    HW128453   3.059   3.069   6.948 -1.2080 -0.0263 -0.6531
 8951SOL    HW228454   3.100   2.970   6.825 -1.1355 -0.3358 -0.3810
 8952SOL     OW28455   2.728   0.280   5.431 -0.1696  0.1397  0.5884
 8952SOL    HW128456   2.702   0.251   5.523  4.0363 -2.4680  1.2419
 8952SOL    HW228457   2.713   0.205   5.367  0.5985  0.4846 -0.0138
 8953SOL     OW28458   2.791   3.790   5.979 -0.0703 -0.2750 -0.2560
 8953SOL    HW128459   2.850   3.751   6.051 -1.0037 -1.8261 -0.2815
 8953SOL    HW228460   2.832   3.875   5.945  2.0692 -1.1818 -0.1375
 8954SOL     OW28461   0.122   2.642   1.821  0.4410  0.3521  0.1899
 8954SOL    HW128462   0.134   2.711   1.749  1.2133  0.1866  0.1507
 8954SOL    HW228463   0.057   2.676   1.889  0.5644  0.9792  0.0037
 8955SOL     OW28464   3.590   1.502   3.373 -0.5831 -0.2727  0.5978
 8955SOL    HW128465   3.621   1.462   3.288  0.3033 -1.0529  1.2665
 8955SOL    HW228466   3.655   1.572   3.402 -0.7902 -0.1302  0.7245
 8956SOL     OW28467   0.581   5.587   4.274 -0.0055 -0.1243 -0.1574
 8956SOL    HW128468   0.514   5.656   4.248  2.0348  2.4563  0.9543
 8956SOL    HW228469   0.664   5.632   4.308  0.7941 -3.1309  2.3953
 8957SOL     OW28470   6.140   3.532   6.270  0.6794 -0.0880 -0.9662
 8957SOL    HW128471   6.123   3.615   6.217  0.3702  1.4331  1.3620
 8957SOL    HW228472   6.206   3.552   6.342 -1.4320 -1.0739  1.3724
 8958SOL     OW28473   4.235   2.878   5.896 -0.2038 -0.8711  0.1525
 8958SOL    HW128474   4.276   2.840   5.813 -0.1342 -0.0617 -0.1864
 8958SOL    HW228475   4.299   2.866   5.973  0.9865  0.9463 -0.4913
 8959SOL     OW28476   3.654   0.624   5.757  0.2025  0.7038 -0.1784
 8959SOL    HW128477   3.632   0.721   5.752 -1.3981  0.3009 -2.1838
 8959SOL    HW228478   3.753   0.612   5.753  0.6167  2.3141  2.6345
 8960SOL     OW28479   1.406   5.264   3.792  0.5111 -0.2329  0.8714
 8960SOL    HW128480   1.482   5.207   3.759  0.0372 -0.1264 -0.4791
 8960SOL    HW228481   1.322   5.239   3.744 -0.3005 -0.2438  2.2469
 8961SOL     OW28482   5.301   4.570   0.724  0.1045 -0.1900 -0.8347
 8961SOL    HW128483   5.306   4.663   0.760  0.8708 -0.6845  0.3985
 8961SOL    HW228484   5.388   4.547   0.681  0.3240 -0.7096 -0.1338
 8962SOL     OW28485   2.228   5.078   1.068 -0.5291  0.2380  0.0844
 8962SOL    HW128486   2.243   5.101   1.164  2.5451  3.2533 -0.9258
 8962SOL    HW228487   2.298   5.012   1.039  1.5653  2.7453 -0.9985
 8963SOL     OW28488   1.716   5.779   2.505  1.1913  0.5663 -0.4552
 8963SOL    HW128489   1.785   5.792   2.576  0.5753 -1.7533  0.6532
 8963SOL    HW228490   1.729   5.690   2.461  1.2556  1.7278 -2.9952
 8964SOL     OW28491   1.861   0.327   2.650 -0.1028  0.0841 -0.0464
 8964SOL    HW128492   1.919   0.407   2.666 -1.3836  0.8540  0.8625
 8964SOL    HW228493   1.766   0.356   2.642 -0.4537 -1.2273 -0.9455
 8965SOL     OW28494   6.362   4.974   2.339 -0.1613 -0.3488  0.2543
 8965SOL    HW128495   6.316   4.982   2.250 -4.2422 -1.8109  1.9916
 8965SOL    HW228496   6.416   4.890   2.340  0.7866  0.2112 -1.1352
 8966SOL     OW28497   6.793   3.473   3.455 -0.2395  0.3147 -0.0036
 8966SOL    HW128498   6.693   3.469   3.463 -0.2177 -1.1853 -0.2682
 8966SOL    HW228499   6.817   3.537   3.382 -0.9413  1.6499  0.8824
 8967SOL     OW28500   6.657   5.486   4.221  0.1190 -0.0579 -0.0641
 8967SOL    HW128501   6.720   5.461   4.294  0.7918  0.2626 -0.5320
 8967SOL    HW228502   6.654   5.585   4.212 -1.8325  0.0502  1.1596
 8968SOL     OW28503   1.736   3.807   2.325 -0.0611 -0.0301 -0.2435
 8968SOL    HW128504   1.699   3.899   2.312  0.3204  0.3162  1.0294
 8968SOL    HW228505   1.665   3.739   2.305 -1.1507  0.6037  1.2940
 8969SOL     OW28506   6.314   2.379   4.818  0.5520  0.0140 -0.0514
 8969SOL    HW128507   6.339   2.291   4.778 -0.4769 -0.5717  0.5228
 8969SOL    HW228508   6.268   2.435   4.750 -1.2186 -0.9859  0.2462
 8970SOL     OW28509   6.346   5.620   0.678 -0.0618  0.1905  0.2193
 8970SOL    HW128510   6.386   5.549   0.620 -0.1962 -0.6320  1.1097
 8970SOL    HW228511   6.285   5.678   0.623  1.6267  0.9151 -0.9545
 8971SOL     OW28512   6.310   3.431   2.156  0.0527  0.3300 -0.3949
 8971SOL    HW128513   6.242   3.388   2.215 -0.7956  2.0489 -0.0733
 8971SOL    HW228514   6.347   3.362   2.093  0.2001 -1.3083  1.3680
 8972SOL     OW28515   1.634   0.977   2.638 -0.0931 -0.7132  0.0293
 8972SOL    HW128516   1.728   0.951   2.614  0.4907  1.2313 -0.0404
 8972SOL    HW228517   1.624   1.076   2.626 -2.0219 -0.8195  0.5276
 8973SOL     OW28518   4.901   5.045   0.420 -0.0090  0.0874  0.0704
 8973SOL    HW128519   4.962   5.017   0.346  1.0923  0.4389  0.8181
 8973SOL    HW228520   4.822   5.093   0.381  1.0316  1.1492 -0.8467
 8974SOL     OW28521   4.252   2.250   4.314 -0.5170 -0.4021  0.1762
 8974SOL    HW128522   4.332   2.199   4.283 -0.2539 -0.2520  0.5936
 8974SOL    HW228523   4.274   2.296   4.400 -0.6424  0.6734 -0.3530
 8975SOL     OW28524   6.420   1.844   1.519 -0.3028 -0.0065  0.1046
 8975SOL    HW128525   6.513   1.820   1.546 -0.5869 -1.6739 -0.3024
 8975SOL    HW228526   6.354   1.790   1.572 -1.0167  0.5411 -0.2008
 8976SOL     OW28527   6.352   0.105   4.898 -0.5983 -0.4131 -0.5709
 8976SOL    HW128528   6.264   0.083   4.858 -1.0532  0.0802  0.1417
 8976SOL    HW228529   6.345   0.189   4.952 -0.1842 -1.3935  1.0742
 8977SOL     OW28530   6.262   2.969   1.451  0.4333 -0.3417  0.0368
 8977SOL    HW128531   6.333   2.899   1.459  0.9555  0.2349  0.5456
 8977SOL    HW228532   6.277   3.022   1.367 -0.6127 -1.5224 -0.9508
 8978SOL     OW28533   6.344   2.752   0.628  0.4088 -0.0817 -0.1670
 8978SOL    HW128534   6.393   2.716   0.708  0.0297  0.4783  0.3313
 8978SOL    HW228535   6.378   2.843   0.606  0.4522 -0.2018 -0.5934
 8979SOL     OW28536   6.481   1.004   0.305  0.0279 -0.2311  0.0888
 8979SOL    HW128537   6.499   0.907   0.323  0.6034 -0.3014 -0.8321
 8979SOL    HW228538   6.393   1.013   0.259 -1.5344 -0.0399  2.8616
 8980SOL     OW28539   1.474   5.177   6.064  0.3901  0.2364  0.6256
 8980SOL    HW128540   1.414   5.220   5.996 -0.5955  0.6612  1.7154
 8980SOL    HW228541   1.457   5.219   6.154  0.7557 -1.1535  1.3726
 8981SOL     OW28542   1.721   2.313   0.043  0.3173 -0.1289 -0.2787
 8981SOL    HW128543   1.705   2.297   0.141  0.4656  0.7939 -0.0943
 8981SOL    HW228544   1.634   2.329  -0.003  0.1994 -1.0883 -0.4016
 8982SOL     OW28545   2.361   4.901   6.988  0.0061  0.1905 -0.1510
 8982SOL    HW128546   2.265   4.879   7.004 -0.3671 -0.3298 -2.7219
 8982SOL    HW228547   2.417   4.819   7.003 -0.1397  0.0951 -0.1318
 8983SOL     OW28548   4.679   2.341   5.427 -0.1741 -0.0178  0.0082
 8983SOL    HW128549   4.760   2.313   5.375  0.4286 -0.1396  0.9838
 8983SOL    HW228550   4.597   2.327   5.371  0.4352 -0.2970 -0.8395
 8984SOL     OW28551   5.253   6.783   6.847 -0.0025 -0.3855 -0.0612
 8984SOL    HW128552   5.313   6.726   6.902  0.2632 -0.7106 -0.6762
 8984SOL    HW228553   5.269   6.880   6.868  0.4051 -0.4920  0.1054
 8985SOL     OW28554   5.057   3.075   3.417 -0.2103 -0.8828 -0.2706
 8985SOL    HW128555   5.157   3.085   3.410 -0.2953  0.9574  0.5980
 8985SOL    HW228556   5.013   3.148   3.365 -1.1078 -1.3847 -0.2230
 8986SOL     OW28557   4.823   3.976   5.270  0.5199  0.1133  0.9092
 8986SOL    HW128558   4.802   4.049   5.334 -0.4036 -0.7889  1.6582
 8986SOL    HW228559   4.917   3.988   5.236  0.3964  1.6191  1.0080
 8987SOL     OW28560   3.443   2.584   0.027  0.0832 -0.0772  0.5448
 8987SOL    HW128561   3.488   2.495   0.031  1.7019  0.6289 -0.7983
 8987SOL    HW228562   3.346   2.574   0.049  0.3467 -2.0651  0.9226
 8988SOL     OW28563   3.746   0.985   4.017  0.2323 -0.4052  0.0135
 8988SOL    HW128564   3.815   1.050   4.049 -1.8896  1.3488  1.3640
 8988SOL    HW228565   3.655   1.025   4.028 -1.1671 -3.3574  0.1899
 8989SOL     OW28566   4.456   5.230   5.030  0.4868  0.0522 -0.7059
 8989SOL    HW128567   4.531   5.165   5.024  0.5062  0.0558 -0.5182
 8989SOL    HW228568   4.392   5.215   4.955  0.4827 -0.1939 -0.6532
 8990SOL     OW28569   2.066   6.776   2.615 -0.2940 -0.1431  0.2481
 8990SOL    HW128570   2.151   6.752   2.660  0.3276  1.3211 -0.0894
 8990SOL    HW228571   2.034   6.699   2.560  0.5894 -0.8493  0.7108
 8991SOL     OW28572   6.873   0.984   4.530  0.2672 -0.2877  0.3976
 8991SOL    HW128573   6.807   1.036   4.583 -0.1555 -1.8140  1.4337
 8991SOL    HW228574   6.964   0.994   4.572  0.3343  0.2187  0.1391
 8992SOL     OW28575   6.161   5.972   2.729 -0.4982  0.1112  0.1092
 8992SOL    HW128576   6.216   5.968   2.813  0.5916 -2.0794 -0.6265
 8992SOL    HW228577   6.104   5.890   2.724 -0.6799  0.3058 -1.2051
 8993SOL     OW28578   4.136   3.168   2.966  0.5078  0.3980  0.3105
 8993SOL    HW128579   4.118   3.222   3.049  0.1945  0.5202  0.1678
 8993SOL    HW228580   4.183   3.225   2.898 -1.0661  0.9391 -0.3748
 8994SOL     OW28581   5.233   5.337   6.941 -0.2092  0.1066 -0.2681
 8994SOL    HW128582   5.263   5.399   7.013 -1.0443  0.5631 -0.3072
 8994SOL    HW228583   5.139   5.310   6.957 -0.2579 -0.1440 -0.9469
 8995SOL     OW28584   3.394   2.451   1.813 -0.3206  0.3351  0.1205
 8995SOL    HW128585   3.390   2.352   1.826 -0.5227  0.0899 -1.6424
 8995SOL    HW228586   3.356   2.497   1.894  0.2774 -0.9833  1.1958
 8996SOL     OW28587   6.607   6.221   0.018  0.1165  0.0214 -0.6838
 8996SOL    HW128588   6.557   6.215  -0.068 -0.5086  2.6913 -0.5882
 8996SOL    HW228589   6.656   6.136   0.034 -0.5907 -0.9267 -3.1404
 8997SOL     OW28590   0.204   2.853   2.497  0.5657 -0.1796  0.1638
 8997SOL    HW128591   0.128   2.911   2.469 -1.2992 -2.7644 -0.5657
 8997SOL    HW228592   0.230   2.874   2.591 -3.1704 -1.1268  1.5904
 8998SOL     OW28593   1.959   1.233   1.200 -0.5812  0.1513 -0.5382
 8998SOL    HW128594   1.958   1.203   1.105 -0.4390 -1.2716 -0.1202
 8998SOL    HW228595   2.019   1.312   1.210  3.4384 -2.5531 -0.8781
 8999SOL     OW28596   5.433   2.540   6.144  0.2902 -0.5939  0.2582
 8999SOL    HW128597   5.530   2.560   6.156  0.0793  1.4222 -0.8921
 8999SOL    HW228598   5.379   2.607   6.196 -0.4789 -0.6336 -0.4672
 9000SOL     OW28599   2.925   6.215   1.915  0.2238  0.1629  0.2032
 9000SOL    HW128600   2.898   6.311   1.923  0.6265  0.5170 -1.9009
 9000SOL    HW228601   3.016   6.202   1.954  0.2145  0.6752  0.3967
 9001SOL     OW28602   3.646   0.235   0.937 -0.2390 -0.2989  0.3209
 9001SOL    HW128603   3.595   0.169   0.883 -0.6845 -0.5579  1.0429
 9001SOL    HW228604   3.739   0.243   0.901 -0.5776 -0.3294 -0.5800
 9002SOL     OW28605   1.137   3.821   0.066  0.0557  0.5062  0.3486
 9002SOL    HW128606   1.125   3.744   0.128  0.3258  0.1386 -0.0510
 9002SOL    HW228607   1.233   3.848   0.065 -0.1871  1.4481  1.1898
 9003SOL     OW28608   4.731   6.811   3.867 -0.0833  0.3599  0.7925
 9003SOL    HW128609   4.785   6.772   3.792  1.5521  1.3134  1.4264
 9003SOL    HW228610   4.760   6.770   3.953  0.5457  1.7984  1.2858
 9004SOL     OW28611   1.808   6.130   6.930  0.2005 -0.2053 -0.1173
 9004SOL    HW128612   1.828   6.137   7.027  2.4197  0.7104 -0.6044
 9004SOL    HW228613   1.838   6.040   6.896  0.7051 -0.0001 -0.2234
 9005SOL     OW28614   0.481   0.626   2.987  0.2178  0.3799  0.5559
 9005SOL    HW128615   0.402   0.648   3.044 -1.5339 -1.6558 -0.9214
 9005SOL    HW228616   0.493   0.698   2.918 -0.0732  0.9009  1.0385
 9006SOL     OW28617   4.245   0.884   6.370 -0.4195  0.8173 -0.3275
 9006SOL    HW128618   4.152   0.848   6.355 -0.9613  1.1628  1.7472
 9006SOL    HW228619   4.310   0.809   6.367 -1.1600  0.0801  0.9988
 9007SOL     OW28620   3.804   1.186   1.982  0.0644  0.4343  0.5377
 9007SOL    HW128621   3.732   1.218   2.044  0.2575  0.1295  0.9257
 9007SOL    HW228622   3.892   1.191   2.029  0.5669  2.4865 -0.5206
 9008SOL     OW28623   0.336   1.280   0.987 -0.1638 -0.2340  0.2535
 9008SOL    HW128624   0.336   1.290   0.888  1.3133 -0.1266  0.2459
 9008SOL    HW228625   0.414   1.224   1.015  0.3879  1.0766  1.4781
 9009SOL     OW28626   0.836   2.308   2.678 -0.2486  0.5134 -0.3689
 9009SOL    HW128627   0.798   2.302   2.586 -0.3835  0.0692 -0.2909
 9009SOL    HW228628   0.923   2.258   2.682 -1.3404 -1.4521  0.2828
 9010SOL     OW28629   3.727   5.718   2.754 -0.4992  0.0022  0.2763
 9010SOL    HW128630   3.659   5.728   2.827  2.4234 -1.0045  3.4077
 9010SOL    HW228631   3.758   5.623   2.751  1.3552  0.5991 -0.4790
 9011SOL     OW28632   4.290   6.940   4.177 -0.4405 -0.9000 -0.3494
 9011SOL    HW128633   4.245   6.911   4.262 -1.4884 -2.2607 -1.3309
 9011SOL    HW228634   4.385   6.964   4.197 -0.6039 -1.3949  1.1775
 9012SOL     OW28635   4.393   5.352   2.613 -0.1218 -0.1130 -0.1985
 9012SOL    HW128636   4.323   5.310   2.670  1.1492 -2.0526  0.0149
 9012SOL    HW228637   4.366   5.345   2.517 -0.6648  0.0551 -0.0613
 9013SOL     OW28638   6.501   0.974   3.988  0.6210 -0.3930  0.5708
 9013SOL    HW128639   6.463   0.943   4.075 -0.1873  0.0442  0.3853
 9013SOL    HW228640   6.448   0.934   3.913  1.1770 -0.5935  0.2795
 9014SOL     OW28641   4.823   4.793   2.870 -0.1283  0.3547 -0.5865
 9014SOL    HW128642   4.889   4.721   2.847  2.0779  2.0829 -0.0287
 9014SOL    HW228643   4.797   4.840   2.786  1.5011  1.3665 -0.5730
 9015SOL     OW28644   1.570   1.329   1.775 -0.0277  0.1935 -0.5653
 9015SOL    HW128645   1.660   1.286   1.782 -0.7743 -1.5018 -0.9493
 9015SOL    HW228646   1.573   1.420   1.817  1.6887 -0.0789 -0.0239
 9016SOL     OW28647   4.896   5.760   3.187 -0.0476 -0.1339  0.4791
 9016SOL    HW128648   4.854   5.791   3.273  1.5726 -0.2908  1.3614
 9016SOL    HW228649   4.860   5.815   3.112 -0.1529  1.2707  1.5005
 9017SOL     OW28650   3.310   4.813   0.391 -0.0518 -0.2834 -0.5568
 9017SOL    HW128651   3.269   4.771   0.310 -0.9013 -1.3408  0.3869
 9017SOL    HW228652   3.239   4.856   0.446  0.7876  2.4894 -1.4666
 9018SOL     OW28653   1.034   6.175   2.835  0.7090 -0.2650  0.0986
 9018SOL    HW128654   1.090   6.237   2.890  1.9116 -1.1544 -0.0851
 9018SOL    HW228655   1.089   6.096   2.807 -0.2781 -0.5146 -1.2181
 9019SOL     OW28656   1.717   3.693   2.727 -0.3689  0.2731 -0.5938
 9019SOL    HW128657   1.803   3.738   2.750  0.8115 -2.2266  0.2900
 9019SOL    HW228658   1.731   3.635   2.646 -0.5843 -1.6617  0.6798
 9020SOL     OW28659   0.640   1.755   4.722 -0.3293  0.0496 -0.1684
 9020SOL    HW128660   0.551   1.790   4.751 -0.0858  1.3836 -0.9508
 9020SOL    HW228661   0.689   1.718   4.801 -0.4400  1.8531  0.7909
 9021SOL     OW28662   2.302   3.507   3.621 -0.1451 -0.4725 -0.0130
 9021SOL    HW128663   2.252   3.483   3.538 -2.3534 -1.8829  1.5854
 9021SOL    HW228664   2.248   3.572   3.675  0.2168 -1.2252  1.3009
 9022SOL     OW28665   4.553   0.422   3.804  0.0088  0.3747 -0.4186
 9022SOL    HW128666   4.513   0.484   3.871 -1.4651 -0.6975 -0.2805
 9022SOL    HW228667   4.565   0.331   3.844 -1.3442 -0.4154 -1.6909
 9023SOL     OW28668   2.041   0.500   1.873  0.4288  0.4191 -0.5147
 9023SOL    HW128669   2.056   0.569   1.803 -0.4645  2.6263  1.3479
 9023SOL    HW228670   2.112   0.507   1.943 -0.1201 -0.0239  0.1024
 9024SOL     OW28671   6.800   5.971   3.402  0.2831 -0.1345 -0.0461
 9024SOL    HW128672   6.834   5.900   3.340  0.0501 -0.1394 -0.1705
 9024SOL    HW228673   6.837   6.059   3.373  0.3940 -0.1741 -0.0269
 9025SOL     OW28674   6.876   0.820   4.966  0.0284 -0.2188 -0.5938
 9025SOL    HW128675   6.837   0.761   5.037 -2.8936  2.5594  0.3544
 9025SOL    HW228676   6.886   0.768   4.882 -0.5521 -2.5310  0.6736
 9026SOL     OW28677   5.738   1.015   1.982 -0.7452 -0.2473 -0.3100
 9026SOL    HW128678   5.834   1.033   2.006 -1.1213 -0.0666  1.1745
 9026SOL    HW228679   5.679   1.074   2.037 -1.7729 -1.6250  0.1237
 9027SOL     OW28680   1.433   2.282   1.207 -0.1744 -0.3509 -0.3561
 9027SOL    HW128681   1.521   2.259   1.251  1.3139 -0.0703 -2.9823
 9027SOL    HW228682   1.416   2.219   1.132 -1.8047  0.1641 -0.4494
 9028SOL     OW28683   2.840   4.193   0.908 -0.0364 -0.2302 -0.7299
 9028SOL    HW128684   2.792   4.281   0.912 -1.2230 -0.8711  0.0350
 9028SOL    HW228685   2.776   4.122   0.877  0.9660 -0.7930 -1.5651
 9029SOL     OW28686   2.952   6.182   3.009 -0.0899  0.0365  0.2621
 9029SOL    HW128687   2.932   6.086   3.031 -0.9164  0.1633  0.1065
 9029SOL    HW228688   2.906   6.206   2.924  0.2925  0.5126  0.1921
 9030SOL     OW28689   4.808   0.739   1.243 -0.0462 -0.0502  0.1250
 9030SOL    HW128690   4.843   0.657   1.288 -1.5575  0.1548  1.7834
 9030SOL    HW228691   4.808   0.815   1.307 -1.3509  0.5011 -0.4948
 9031SOL     OW28692   4.646   5.530   5.983 -0.4962  0.1998  0.2887
 9031SOL    HW128693   4.656   5.433   5.965  0.3542  0.5025 -0.9996
 9031SOL    HW228694   4.596   5.543   6.069 -2.0172 -1.3595 -0.2988
 9032SOL     OW28695   3.005   0.164   4.077  0.1579  0.3248  0.8049
 9032SOL    HW128696   3.009   0.125   4.169  0.1883 -0.7223  0.3687
 9032SOL    HW228697   2.927   0.226   4.071 -0.5327 -0.4969  1.1957
 9033SOL     OW28698   4.913   0.950   6.377  0.4844 -0.1398  0.1584
 9033SOL    HW128699   4.903   0.851   6.370 -0.8188  0.0698 -2.1236
 9033SOL    HW228700   4.914   0.990   6.285 -1.5899  2.1659  1.0033
 9034SOL     OW28701   1.866   6.968   0.530 -0.3371 -0.4034 -0.4778
 9034SOL    HW128702   1.841   6.900   0.599 -0.4202  0.7899  0.6949
 9034SOL    HW228703   1.880   7.057   0.574  0.7436  0.1337 -1.8449
 9035SOL     OW28704   6.860   2.332   5.603  0.0633 -0.0315  0.1342
 9035SOL    HW128705   6.780   2.305   5.550  0.9570  0.7434 -1.7002
 9035SOL    HW228706   6.878   2.263   5.674 -3.1089  0.5421  1.7013
 9036SOL     OW28707   4.481   2.283   5.253 -0.0781 -0.3297 -0.2970
 9036SOL    HW128708   4.456   2.294   5.157 -2.1411  0.5955  0.2857
 9036SOL    HW228709   4.465   2.189   5.281 -1.0195 -0.2266 -0.4698
 9037SOL     OW28710   4.516   6.324   2.635  0.4579 -0.0478  0.2772
 9037SOL    HW128711   4.612   6.297   2.639  0.1684 -0.8812  2.7419
 9037SOL    HW228712   4.465   6.258   2.580  1.2580  0.4691 -1.1596
 9038SOL     OW28713   4.571   5.850   1.566 -0.6160  0.1003 -0.3626
 9038SOL    HW128714   4.621   5.786   1.508 -0.5193  0.3830 -0.5946
 9038SOL    HW228715   4.633   5.889   1.634 -1.3366 -2.4966  1.9553
 9039SOL     OW28716   3.750   3.765   6.969 -0.9131  0.0789 -0.1562
 9039SOL    HW128717   3.793   3.691   6.919 -1.8571 -0.6629  0.1015
 9039SOL    HW228718   3.740   3.845   6.909 -1.9541 -0.7614 -1.1608
 9040SOL     OW28719   6.666   0.384   3.846  0.3417  0.2462  0.4360
 9040SOL    HW128720   6.623   0.474   3.848  1.0118  0.5939 -0.3878
 9040SOL    HW228721   6.758   0.390   3.885  0.7493  0.1303 -0.4855
 9041SOL     OW28722   5.358   2.962   5.529  0.2425  0.1977  0.2546
 9041SOL    HW128723   5.349   3.037   5.594 -0.8052  0.3059  0.0047
 9041SOL    HW228724   5.268   2.925   5.507  0.4579  0.7265 -1.7783
 9042SOL     OW28725   5.692   0.280   5.147  0.8254 -0.4513 -0.0466
 9042SOL    HW128726   5.787   0.274   5.176  1.6806 -0.1266 -2.5333
 9042SOL    HW228727   5.648   0.359   5.189  1.3720 -1.0391  1.7271
 9043SOL     OW28728   3.912   3.291   4.014  0.4030 -0.2968  0.5772
 9043SOL    HW128729   3.831   3.279   3.957  2.2555 -0.7959 -2.1257
 9043SOL    HW228730   3.953   3.202   4.033 -0.4895 -0.2106  3.3406
 9044SOL     OW28731   0.472   2.454   1.703 -0.0112  0.3478  0.7510
 9044SOL    HW128732   0.458   2.552   1.690 -1.0337  0.0613 -0.5000
 9044SOL    HW228733   0.428   2.425   1.788 -0.6352  0.7769  0.5786
 9045SOL     OW28734   6.578   2.126   4.478  0.0786  0.7242 -0.2693
 9045SOL    HW128735   6.496   2.083   4.441 -0.1030  1.3861 -0.6505
 9045SOL    HW228736   6.561   2.223   4.493  0.8147  0.8882 -0.4416
 9046SOL     OW28737   1.327   0.795   6.335 -0.2111 -0.2702 -0.1772
 9046SOL    HW128738   1.267   0.857   6.384 -1.1761 -0.0270 -1.5917
 9046SOL    HW228739   1.421   0.829   6.339 -0.7498  1.4331 -1.1040
 9047SOL     OW28740   1.820   5.806   4.320  1.2655 -0.3973 -0.4447
 9047SOL    HW128741   1.775   5.826   4.232  2.1369 -0.4388 -0.9109
 9047SOL    HW228742   1.832   5.708   4.329 -1.1035 -0.6400  0.8921
 9048SOL     OW28743   0.604   5.764   1.194  0.3268 -0.0905 -0.0303
 9048SOL    HW128744   0.682   5.764   1.257  0.9071 -0.3164 -0.7365
 9048SOL    HW228745   0.607   5.847   1.137  0.7417 -0.6711 -0.8802
 9049SOL     OW28746   4.872   1.072   5.427  0.9732  0.3967 -0.4322
 9049SOL    HW128747   4.814   1.048   5.505  0.7411  1.7275 -0.1761
 9049SOL    HW228748   4.911   0.988   5.388  0.3398 -0.3672  0.5161
 9050SOL     OW28749   6.092   6.228   4.422  0.1881 -0.2875  0.0077
 9050SOL    HW128750   5.999   6.193   4.431  0.0096 -1.0214 -3.3531
 9050SOL    HW228751   6.104   6.307   4.481 -1.7490 -1.6099  2.3248
 9051SOL     OW28752   5.529   5.279   3.308  0.4108  0.5331 -0.5240
 9051SOL    HW128753   5.436   5.309   3.287 -0.0880 -0.9449 -0.5334
 9051SOL    HW228754   5.592   5.356   3.297 -0.6774  1.3288 -1.4000
 9052SOL     OW28755   4.515   0.756   2.029  0.2349  0.9162 -0.3746
 9052SOL    HW128756   4.487   0.713   2.115 -1.7414  0.4966 -1.1603
 9052SOL    HW228757   4.449   0.827   2.005  0.1045  0.2724 -2.0766
 9053SOL     OW28758   4.708   4.992   6.084  0.0085  0.2976 -0.2070
 9053SOL    HW128759   4.805   5.015   6.090  0.1186 -0.1508 -0.2439
 9053SOL    HW228760   4.695   4.894   6.100 -0.5388  0.5072  0.6977
 9054SOL     OW28761   0.969   4.472   1.063  0.1097 -0.1231  0.2237
 9054SOL    HW128762   0.908   4.448   0.987  1.3790 -0.1110 -0.8303
 9054SOL    HW228763   1.051   4.415   1.060  1.5572  1.8867 -0.2257
 9055SOL     OW28764   1.500   1.063   6.840  0.2414 -0.4438 -0.5008
 9055SOL    HW128765   1.506   1.100   6.933  1.6864 -2.8038  0.4475
 9055SOL    HW228766   1.560   1.115   6.779  0.7480 -0.0399  0.3238
 9056SOL     OW28767   4.519   5.862   4.185  0.3332  0.1916  0.3933
 9056SOL    HW128768   4.459   5.805   4.129  0.0871  1.3753 -0.5604
 9056SOL    HW228769   4.495   5.958   4.174  1.1929  0.5537  1.4600
 9057SOL     OW28770   3.456   2.627   2.302 -0.3089 -1.1097 -0.1327
 9057SOL    HW128771   3.393   2.665   2.234  1.3715  1.4897 -0.3420
 9057SOL    HW228772   3.543   2.605   2.258 -0.0427 -1.8158  0.7212
 9058SOL     OW28773   3.827   1.015   0.321  0.1460  0.1186 -0.2554
 9058SOL    HW128774   3.791   0.929   0.357 -2.8662  1.4484  0.1905
 9058SOL    HW228775   3.801   1.024   0.225 -2.4292  1.8551  0.5128
 9059SOL     OW28776   2.148   3.703   4.906  0.2780 -0.1981 -0.6205
 9059SOL    HW128777   2.218   3.647   4.950 -0.2915 -0.4900 -0.0533
 9059SOL    HW228778   2.086   3.644   4.855  0.2687  0.0244 -0.8672
 9060SOL     OW28779   0.560   4.719   5.741 -0.2630  0.2000  0.3489
 9060SOL    HW128780   0.659   4.702   5.737 -0.0861  0.5887  2.4230
 9060SOL    HW228781   0.540   4.810   5.705  0.2553  0.5368  0.9088
 9061SOL     OW28782   1.346   1.826   6.782  0.1412 -0.3405  0.0936
 9061SOL    HW128783   1.407   1.774   6.722  1.2453  1.3819 -0.3496
 9061SOL    HW228784   1.258   1.841   6.735  1.5796  2.4998 -1.9843
 9062SOL     OW28785   1.382   4.114   1.757 -0.8598  0.4636 -0.3339
 9062SOL    HW128786   1.397   4.156   1.667  1.8208 -1.6096 -1.0101
 9062SOL    HW228787   1.358   4.185   1.823 -0.6792  2.3920 -2.2034
 9063SOL     OW28788   1.269   3.647   1.143  0.4578 -0.5001  0.2082
 9063SOL    HW128789   1.254   3.635   1.241  1.6450 -0.0882  0.4474
 9063SOL    HW228790   1.216   3.726   1.111 -0.9391 -1.3859  0.2395
 9064SOL     OW28791   5.894   6.375   3.302  0.1798 -0.3651  0.9762
 9064SOL    HW128792   5.992   6.357   3.304  0.4219  0.8733  2.1823
 9064SOL    HW228793   5.845   6.298   3.343  0.5782 -1.2787 -0.2303
 9065SOL     OW28794   2.536   4.060   3.526 -0.3301 -0.0923  0.8771
 9065SOL    HW128795   2.615   4.107   3.565 -0.9590  1.5311  0.2815
 9065SOL    HW228796   2.498   3.997   3.594  0.6251  0.1437  1.6538
 9066SOL     OW28797   1.129   3.936   1.450 -0.2410 -0.1514 -0.0900
 9066SOL    HW128798   1.165   3.966   1.361  0.7972  0.6338  0.5611
 9066SOL    HW228799   1.030   3.931   1.446 -0.4307  2.5096 -0.5461
 9067SOL     OW28800   6.014   4.780   2.016  0.7636  0.0389 -0.2776
 9067SOL    HW128801   6.022   4.864   2.070  1.2047  0.4010 -0.8768
 9067SOL    HW228802   5.980   4.706   2.073  2.4236  0.0739  0.8420
 9068SOL     OW28803   1.452   3.126   4.482 -0.0583 -0.0925 -0.0540
 9068SOL    HW128804   1.404   3.087   4.561 -0.1071 -0.1844 -0.1301
 9068SOL    HW228805   1.495   3.053   4.429  1.7828  0.1060  1.0525
 9069SOL     OW28806   5.311   0.486   2.690 -0.3951  0.5341 -0.1397
 9069SOL    HW128807   5.325   0.391   2.662 -3.1240  0.8094 -3.1544
 9069SOL    HW228808   5.285   0.489   2.787 -1.0362 -1.8968 -0.1696
 9070SOL     OW28809   1.173   2.368   1.343 -0.5007 -0.4573 -0.2941
 9070SOL    HW128810   1.103   2.313   1.388 -0.1987  0.1506  0.9430
 9070SOL    HW228811   1.249   2.309   1.315 -0.2655 -0.7119  0.8510
 9071SOL     OW28812   4.642   0.066   1.508  0.2535 -0.0583  0.1141
 9071SOL    HW128813   4.617   0.005   1.432  1.2954 -1.1142  0.5959
 9071SOL    HW228814   4.735   0.099   1.495 -0.1817  1.1686  0.0433
 9072SOL     OW28815   1.444   4.021   0.846  0.2724  0.4958 -0.0704
 9072SOL    HW128816   1.537   3.989   0.861 -0.2370 -0.6720  0.6979
 9072SOL    HW228817   1.413   4.074   0.925 -0.5457 -1.1923  0.8004
 9073SOL     OW28818   2.571   5.329   5.663  0.3358 -0.2336  0.0812
 9073SOL    HW128819   2.513   5.254   5.632  2.4267 -1.9275  0.1152
 9073SOL    HW228820   2.598   5.385   5.585 -1.3395  0.6420  0.0754
 9074SOL     OW28821   2.821   4.726   2.675 -0.0555  0.1683 -0.0254
 9074SOL    HW128822   2.825   4.635   2.635 -0.9654 -0.1284  0.5494
 9074SOL    HW228823   2.734   4.739   2.722  0.6483  0.8052  1.1601
 9075SOL     OW28824   6.251   2.505   5.375 -0.3675 -0.6314 -0.0250
 9075SOL    HW128825   6.217   2.548   5.291 -3.7813 -1.0527  1.0030
 9075SOL    HW228826   6.245   2.406   5.366 -2.3969 -0.6834  1.2084
 9076SOL     OW28827   6.417   4.208   2.151  0.5165 -0.0130  0.5966
 9076SOL    HW128828   6.395   4.112   2.170  2.2271 -0.5562  0.0533
 9076SOL    HW228829   6.503   4.212   2.100  2.1031  1.9243  3.1652
 9077SOL     OW28830   5.973   0.404   5.490 -0.1886 -0.0606  0.6297
 9077SOL    HW128831   5.944   0.417   5.584  0.2705 -0.2267  0.7971
 9077SOL    HW228832   5.908   0.448   5.428 -0.1113  0.6546  1.0553
 9078SOL     OW28833   1.815   0.037   0.244 -0.3135 -0.0349  0.3300
 9078SOL    HW128834   1.830   0.004   0.337  0.2797  1.4275  0.7898
 9078SOL    HW228835   1.722   0.018   0.216  0.0960 -2.3685  0.4191
 9079SOL     OW28836   6.403   1.533   0.239  0.1371  0.5549  0.0447
 9079SOL    HW128837   6.459   1.531   0.322 -0.4952  1.9353  0.5298
 9079SOL    HW228838   6.454   1.578   0.166  0.7930 -0.8877 -0.4206
 9080SOL     OW28839   5.746   3.649   0.572  0.3229 -0.2942  0.0470
 9080SOL    HW128840   5.834   3.632   0.528  0.2625  0.0924 -0.2245
 9080SOL    HW228841   5.679   3.677   0.503 -0.8828 -3.5718 -0.3289
 9081SOL     OW28842   5.155   6.583   5.056 -0.0918  0.1794 -0.5915
 9081SOL    HW128843   5.254   6.585   5.070 -0.3428  1.6110  1.5033
 9081SOL    HW228844   5.117   6.498   5.093 -0.0477  1.4258  2.5929
 9082SOL     OW28845   6.513   3.358   2.861  0.2650 -0.9866  0.0758
 9082SOL    HW128846   6.529   3.424   2.934  1.5134  0.2363 -1.2421
 9082SOL    HW228847   6.600   3.336   2.817 -0.3472 -2.3687 -0.4904
 9083SOL     OW28848   0.005   4.205   5.752 -0.2997 -0.0299 -0.0960
 9083SOL    HW128849   0.016   4.139   5.677  1.2372 -1.5501  1.3795
 9083SOL    HW228850  -0.081   4.187   5.799 -0.2603 -0.4855 -0.1907
 9084SOL     OW28851   6.262   6.386   0.264  0.2240  0.1615 -0.3884
 9084SOL    HW128852   6.272   6.293   0.230 -0.3335  0.1109 -0.4300
 9084SOL    HW228853   6.189   6.388   0.333 -0.5092  0.7607 -1.1701
 9085SOL     OW28854   3.106   0.470   4.075  0.5145  0.0295  0.1006
 9085SOL    HW128855   3.196   0.489   4.035  0.1496 -0.8349 -1.2236
 9085SOL    HW228856   3.112   0.392   4.137  1.0434  1.2292  1.6007
 9086SOL     OW28857   5.554   2.785   0.256 -0.1735  0.1163 -0.0805
 9086SOL    HW128858   5.537   2.739   0.169 -0.5968 -1.2109  0.6701
 9086SOL    HW228859   5.611   2.866   0.241  0.5232 -0.6008 -1.4626
 9087SOL     OW28860   4.731   5.725   5.130  0.1888  0.1835 -0.1707
 9087SOL    HW128861   4.659   5.691   5.191  0.2292  0.5337  0.0717
 9087SOL    HW228862   4.708   5.701   5.036 -0.5795  0.8562 -0.1680
 9088SOL     OW28863   3.610   4.833   5.037 -0.1353 -0.0821 -0.2359
 9088SOL    HW128864   3.526   4.873   5.001 -0.9699 -0.0941  1.5498
 9088SOL    HW228865   3.587   4.752   5.092  0.9489  0.3598  0.9098
 9089SOL     OW28866   0.222   1.846   4.812  0.4639  0.0125 -0.0806
 9089SOL    HW128867   0.178   1.815   4.728  0.6863 -0.3158 -0.0779
 9089SOL    HW228868   0.170   1.921   4.851 -1.3635 -1.8182  1.1378
 9090SOL     OW28869   4.823   0.540   5.003  0.9926 -0.0259 -0.0134
 9090SOL    HW128870   4.817   0.466   5.071  1.5955 -1.4446 -1.4333
 9090SOL    HW228871   4.919   0.560   4.985  0.8499  1.9576  1.1758
 9091SOL     OW28872   5.669   0.877   4.129 -1.1584 -0.2575 -0.0430
 9091SOL    HW128873   5.690   0.973   4.112  0.0408 -0.3942  0.5619
 9091SOL    HW228874   5.574   0.859   4.105 -1.1269  0.8469 -1.0904
 9092SOL     OW28875   2.040   2.474   0.642 -0.2579  0.1739 -0.1504
 9092SOL    HW128876   1.976   2.549   0.657 -3.7397 -2.4081 -0.6408
 9092SOL    HW228877   2.061   2.466   0.545 -0.6157  0.0183 -0.2180
 9093SOL     OW28878   5.172   5.815   0.402  0.5209  0.3425  0.3097
 9093SOL    HW128879   5.225   5.882   0.351 -0.1470 -0.3411 -1.3473
 9093SOL    HW228880   5.075   5.838   0.397  0.4563  0.4997  1.6869
 9094SOL     OW28881   5.908   3.242   6.636 -0.2674  0.4155 -0.3261
 9094SOL    HW128882   5.910   3.333   6.678  2.1523  1.1597 -1.8078
 9094SOL    HW228883   5.904   3.172   6.707  0.7000  1.6545  1.0124
 9095SOL     OW28884   6.855   4.732   3.722  0.4440 -0.4760  0.5946
 9095SOL    HW128885   6.898   4.814   3.685  0.0954  0.2759  1.8167
 9095SOL    HW228886   6.870   4.656   3.659  0.5328  0.5740 -0.6958
 9096SOL     OW28887   5.545   1.560   2.780  0.0588 -0.4074 -0.6611
 9096SOL    HW128888   5.585   1.623   2.847 -0.0577 -1.0088 -0.0147
 9096SOL    HW228889   5.456   1.529   2.812 -0.5124  0.1836 -1.6472
 9097SOL     OW28890   0.387   3.917   0.002 -0.2326 -0.4389 -0.3172
 9097SOL    HW128891   0.372   3.987  -0.068 -1.5931  2.3832  2.4901
 9097SOL    HW228892   0.483   3.890   0.003  0.1481  0.6792 -2.1570
 9098SOL     OW28893   4.194   1.348   4.339  0.0821 -0.1453 -0.4899
 9098SOL    HW128894   4.190   1.399   4.253 -0.7655  1.2068  0.3051
 9098SOL    HW228895   4.107   1.299   4.353  0.0003  0.0836 -0.1637
 9099SOL     OW28896   4.104   3.874   6.505  0.5438 -0.3389  0.5594
 9099SOL    HW128897   4.083   3.846   6.411  0.3694 -0.3995  0.6162
 9099SOL    HW228898   4.024   3.921   6.544  0.4430 -0.7364  0.8416
 9100SOL     OW28899   2.603   1.938   4.495 -0.3055 -0.3119  0.2965
 9100SOL    HW128900   2.637   1.873   4.563  2.3622  0.6952  0.0427
 9100SOL    HW228901   2.541   2.003   4.539  2.3480  1.1167  2.2483
 9101SOL     OW28902   6.008   6.007   4.612  0.2587  0.4485 -0.0686
 9101SOL    HW128903   6.039   6.061   4.690 -0.4063  0.7308  0.0096
 9101SOL    HW228904   6.003   5.910   4.638  1.7253  0.2898 -0.2938
 9102SOL     OW28905   0.507   3.771   3.255  0.3637  0.2210 -0.1641
 9102SOL    HW128906   0.418   3.798   3.217  0.7020  0.4002 -0.8355
 9102SOL    HW228907   0.580   3.800   3.193  0.8350 -0.7479 -0.0785
 9103SOL     OW28908   3.672   3.183   5.501  0.4944 -0.6503 -0.3716
 9103SOL    HW128909   3.722   3.159   5.584  0.8217 -1.0994 -0.6956
 9103SOL    HW228910   3.619   3.104   5.470 -2.3324  0.4537  1.2660
 9104SOL     OW28911   3.099   0.102   6.762  0.3606 -0.0835 -0.0820
 9104SOL    HW128912   3.137   0.034   6.824 -0.1030  0.1838  0.4995
 9104SOL    HW228913   2.999   0.098   6.765  0.3323 -0.0203 -0.7581
 9105SOL     OW28914   5.653   6.196   5.194  0.0996  0.3585  0.4745
 9105SOL    HW128915   5.663   6.187   5.293 -0.5939  0.8429  0.5956
 9105SOL    HW228916   5.696   6.281   5.163  1.2939 -0.3350  0.1958
 9106SOL     OW28917   5.689   1.934   0.300 -0.5927  0.3802  0.0745
 9106SOL    HW128918   5.751   1.879   0.356  0.1344 -0.1433 -1.1946
 9106SOL    HW228919   5.595   1.914   0.326 -0.2682  0.4709  1.3856
 9107SOL     OW28920   6.042   3.810   1.975  0.0739 -0.6084 -0.0011
 9107SOL    HW128921   6.107   3.756   1.921  0.1200 -0.5844  0.0302
 9107SOL    HW228922   5.998   3.751   2.043 -0.6561 -0.8471 -0.6601
 9108SOL     OW28923   4.774   1.502   5.553  0.4511 -0.5828 -0.4230
 9108SOL    HW128924   4.730   1.429   5.500  1.6369 -1.6040 -0.0372
 9108SOL    HW228925   4.866   1.473   5.580  0.8552  0.9672 -0.0470
 9109SOL     OW28926   0.966   0.310   1.475  0.2246  0.8021 -0.3562
 9109SOL    HW128927   1.033   0.372   1.434  0.1609  0.4992 -0.9393
 9109SOL    HW228928   0.874   0.347   1.459  0.2283  1.0254  0.1134
 9110SOL     OW28929   2.215   1.034   0.391 -0.2238 -0.2353  0.4466
 9110SOL    HW128930   2.204   1.062   0.487  0.8155  1.9075  0.0209
 9110SOL    HW228931   2.177   1.105   0.331  1.2304 -0.3991 -0.7352
 9111SOL     OW28932   6.647   3.303   5.292  0.2936 -0.7752 -0.3173
 9111SOL    HW128933   6.651   3.379   5.227  1.1285  0.0158  0.6072
 9111SOL    HW228934   6.586   3.232   5.258  1.0044 -0.5614 -2.1361
 9112SOL     OW28935   0.803   1.118   1.167  0.3703  0.0208  0.1367
 9112SOL    HW128936   0.754   1.096   1.251 -2.2803  0.9671 -1.0535
 9112SOL    HW228937   0.854   1.038   1.136 -2.9256 -2.1837 -0.1028
 9113SOL     OW28938   2.745   4.189   6.294  0.2613  0.0759  0.1345
 9113SOL    HW128939   2.834   4.144   6.280 -0.5524 -1.4650 -0.2291
 9113SOL    HW228940   2.672   4.132   6.256 -0.9208  1.2179  0.6243
 9114SOL     OW28941   6.566   1.484   5.446  0.2688 -0.1385  0.9141
 9114SOL    HW128942   6.660   1.496   5.478  0.3517  0.8229  0.3523
 9114SOL    HW228943   6.515   1.570   5.459 -0.3787 -0.4867  0.7278
 9115SOL     OW28944   5.885   3.115   5.641  0.0073  0.0988  0.3880
 9115SOL    HW128945   5.936   3.112   5.555 -0.8694 -1.2253 -0.1167
 9115SOL    HW228946   5.941   3.159   5.712  1.2120  0.1122 -0.5476
 9116SOL     OW28947   2.901   0.458   2.600 -0.2675  0.0695  0.1240
 9116SOL    HW128948   2.859   0.391   2.539  1.2144 -0.2724 -0.5638
 9116SOL    HW228949   2.847   0.543   2.599 -0.4904 -0.0665 -1.3558
 9117SOL     OW28950   3.189   0.969   4.386 -0.1550 -0.0819  0.2111
 9117SOL    HW128951   3.137   0.978   4.471 -0.0863  0.6788  0.1845
 9117SOL    HW228952   3.129   0.989   4.309 -0.0160  0.0270  0.1313
 9118SOL     OW28953   3.043   2.005   3.254 -0.1060 -0.3903 -0.2462
 9118SOL    HW128954   3.069   2.035   3.346 -0.8666  1.9335 -0.7227
 9118SOL    HW228955   3.123   1.969   3.206  0.0359 -3.1146  1.7563
 9119SOL     OW28956   6.169   3.021   4.894  0.0832  0.1511 -0.3371
 9119SOL    HW128957   6.117   3.027   4.980  1.7166 -2.5272  0.9679
 9119SOL    HW228958   6.246   3.085   4.897  0.6336 -0.5439  0.5905
 9120SOL     OW28959   2.050   6.729   3.847  0.5981 -0.8208 -0.0877
 9120SOL    HW128960   1.955   6.761   3.839  0.4517 -0.2711  2.7022
 9120SOL    HW228961   2.111   6.808   3.848  0.6699 -0.8559  2.1171
 9121SOL     OW28962   2.905   6.939   0.742 -0.0571  0.5206 -0.8620
 9121SOL    HW128963   2.850   6.895   0.814  0.0970  1.1503 -0.3441
 9121SOL    HW228964   2.890   7.038   0.745 -0.3921  0.5203 -1.9999
 9122SOL     OW28965   3.391   6.563   5.241 -0.3177  0.5716  0.6937
 9122SOL    HW128966   3.427   6.479   5.201  0.9904  1.3529  0.1921
 9122SOL    HW228967   3.441   6.585   5.325 -0.4916  0.9834  0.6923
 9123SOL     OW28968   5.451   4.835   5.917  0.3042  0.6564  0.0806
 9123SOL    HW128969   5.467   4.875   5.827 -2.0096 -0.8540 -1.1052
 9123SOL    HW228970   5.360   4.861   5.950  0.3231 -0.4355  1.0734
 9124SOL     OW28971   1.828   1.832   1.874  0.2069 -0.7108 -0.4458
 9124SOL    HW128972   1.792   1.779   1.951 -0.6933 -0.4127 -0.6565
 9124SOL    HW228973   1.926   1.813   1.864  0.2354 -1.1112  0.4763
 9125SOL     OW28974   6.067   5.708   5.941 -0.3678 -0.2538  0.2350
 9125SOL    HW128975   6.090   5.805   5.932  1.0027 -0.5841 -0.0042
 9125SOL    HW228976   6.148   5.657   5.967 -1.0168 -1.3921  0.0866
 9126SOL     OW28977   0.214   3.040   0.672  0.1338 -0.0849 -0.0602
 9126SOL    HW128978   0.119   3.039   0.640 -0.5470  0.1973  1.8457
 9126SOL    HW228979   0.274   3.015   0.596 -1.3960  0.2838 -1.4638
 9127SOL     OW28980   6.306   1.410   5.405  0.7033  0.0764 -0.3422
 9127SOL    HW128981   6.390   1.449   5.444  1.0662  0.8175 -1.7843
 9127SOL    HW228982   6.322   1.314   5.381  0.8891 -0.0034  0.0888
 9128SOL     OW28983   0.560   1.558   0.879  0.1782 -0.0441  0.3493
 9128SOL    HW128984   0.580   1.651   0.908 -1.4098  0.3762  0.1768
 9128SOL    HW228985   0.634   1.524   0.822  2.1099  0.0840  2.6394
 9129SOL     OW28986   6.342   2.802   5.320 -0.2313  0.3870  0.1634
 9129SOL    HW128987   6.256   2.851   5.318 -0.0623  0.6640 -0.6564
 9129SOL    HW228988   6.354   2.752   5.234  0.4753  0.4427  0.2220
 9130SOL     OW28989   2.331   5.675   2.110  0.2021  0.1345  0.1417
 9130SOL    HW128990   2.364   5.664   2.204 -3.2111 -1.2853  1.3378
 9130SOL    HW228991   2.279   5.760   2.103  1.4184  0.8270 -0.8537
 9131SOL     OW28992   1.221   5.342   2.209  0.0675  0.6106  0.6077
 9131SOL    HW128993   1.202   5.335   2.307  0.8502  0.7454  0.7758
 9131SOL    HW228994   1.175   5.268   2.160 -0.3511  0.5594  1.0677
 9132SOL     OW28995   0.414   4.746   6.958 -0.2256  0.4278  0.0866
 9132SOL    HW128996   0.471   4.828   6.959 -1.0739  1.0662 -0.8117
 9132SOL    HW228997   0.423   4.700   6.869 -0.5710  0.1451  0.1921
 9133SOL     OW28998   2.464   1.868   0.695  0.5480 -0.0812 -0.5255
 9133SOL    HW128999   2.491   1.919   0.777  2.6092 -1.0164 -0.5599
 9133SOL    HW229000   2.503   1.776   0.698 -2.2789 -1.4011 -0.9310
 9134SOL     OW29001   0.487   2.081   2.123  0.1231 -0.4469 -0.1233
 9134SOL    HW129002   0.528   2.143   2.058  0.1568  0.5437  0.8141
 9134SOL    HW229003   0.461   1.996   2.077  0.1576  0.2163 -1.4022
 9135SOL     OW29004   6.847   3.716   0.036  0.0894 -0.4443  0.2473
 9135SOL    HW129005   6.889   3.683  -0.048 -0.7893 -0.2114 -0.2960
 9135SOL    HW229006   6.801   3.803   0.019 -1.6427 -1.2490  0.4913
 9136SOL     OW29007   4.525   5.189   5.496 -0.2950 -0.0438 -0.0234
 9136SOL    HW129008   4.602   5.243   5.530 -0.6316 -0.1877  1.0103
 9136SOL    HW229009   4.534   5.094   5.525 -0.0673 -0.4205 -1.2460
 9137SOL     OW29010   2.368   5.607   1.392  0.2529  0.4998 -0.1902
 9137SOL    HW129011   2.372   5.656   1.479  0.2036 -1.3705  0.9171
 9137SOL    HW229012   2.282   5.555   1.387 -0.2838  1.4683 -1.8909
 9138SOL     OW29013   4.278   6.760   2.083  0.3093 -0.0410  0.1346
 9138SOL    HW129014   4.341   6.745   2.006  2.0598 -0.0078  1.4913
 9138SOL    HW229015   4.230   6.847   2.070  1.0533  0.2747 -0.6184
 9139SOL     OW29016   2.466   4.806   0.787 -0.3054 -0.0932  0.1109
 9139SOL    HW129017   2.563   4.784   0.790 -0.1195  0.7709  0.7206
 9139SOL    HW229018   2.449   4.875   0.717 -0.9751 -2.4714 -2.2149
 9140SOL     OW29019   1.960   1.518   2.409  0.2759  0.4485  0.5601
 9140SOL    HW129020   1.953   1.615   2.431  0.1665 -0.0852  3.1539
 9140SOL    HW229021   1.960   1.464   2.493  1.3966 -1.7668 -0.7593
 9141SOL     OW29022   0.456   2.338   5.430 -0.1084  0.3105 -0.4181
 9141SOL    HW129023   0.484   2.351   5.525  0.8294  0.8669 -0.7520
 9141SOL    HW229024   0.495   2.252   5.396 -2.1495 -0.9675  0.2872
 9142SOL     OW29025   0.760   3.649   1.501 -0.5468  0.4286  0.5226
 9142SOL    HW129026   0.814   3.591   1.440  1.9355  2.9528  0.1027
 9142SOL    HW229027   0.685   3.690   1.449  0.3363  0.9811 -0.3555
 9143SOL     OW29028   1.359   6.555   3.548  0.2837 -0.3944  0.2166
 9143SOL    HW129029   1.403   6.610   3.476 -0.8584 -0.3822 -0.5097
 9143SOL    HW229030   1.376   6.458   3.530 -2.0575 -0.5680 -1.5946
 9144SOL     OW29031   4.600   3.856   0.544 -0.0649  0.0759 -0.1209
 9144SOL    HW129032   4.510   3.895   0.563 -0.1194  0.7203 -1.5208
 9144SOL    HW229033   4.592   3.787   0.472  0.6457  0.7523 -0.8809
 9145SOL     OW29034   5.899   6.253   1.595 -0.1283  0.3879  0.0892
 9145SOL    HW129035   5.976   6.299   1.550 -0.5188  1.6858  0.6995
 9145SOL    HW229036   5.813   6.294   1.565 -0.8394 -2.4736 -2.2964
 9146SOL     OW29037   1.951   3.339   0.830 -0.1748 -0.3034  0.6390
 9146SOL    HW129038   2.001   3.255   0.848  0.2086 -0.3102 -0.4011
 9146SOL    HW229039   1.922   3.380   0.917  0.9072 -0.7358  1.2180
 9147SOL     OW29040   5.159   3.448   5.919  0.2943  0.5201  0.3211
 9147SOL    HW129041   5.140   3.507   5.997 -2.2456 -0.3345  0.4366
 9147SOL    HW229042   5.116   3.359   5.933  0.3763  0.1047 -1.7304
 9148SOL     OW29043   1.095   1.417   3.043  0.2480  0.1914 -0.0605
 9148SOL    HW129044   1.084   1.386   3.138  0.4828 -1.7052 -0.5965
 9148SOL    HW229045   1.189   1.397   3.013 -0.3600 -1.0386 -1.2611
 9149SOL     OW29046   4.765   4.598   2.361 -0.3471 -0.1479  0.0102
 9149SOL    HW129047   4.709   4.538   2.419  0.3146  0.9133  1.8296
 9149SOL    HW229048   4.859   4.562   2.357  0.0137  0.6598  0.9841
 9150SOL     OW29049   5.859   2.192   3.715 -0.4190  0.2060  1.0671
 9150SOL    HW129050   5.806   2.119   3.757  0.2249 -0.7664  0.2198
 9150SOL    HW229051   5.855   2.185   3.616 -3.5030  3.6028  0.7464
 9151SOL     OW29052   4.739   1.462   4.187  0.4648  0.1685  0.1305
 9151SOL    HW129053   4.813   1.432   4.127 -0.2532  1.1233 -1.2954
 9151SOL    HW229054   4.755   1.557   4.215 -0.1215  0.3350 -0.0704
 9152SOL     OW29055   2.392   6.476   1.081 -0.1142  0.5385  0.0002
 9152SOL    HW129056   2.432   6.385   1.086  0.9383  0.9549 -0.4066
 9152SOL    HW229057   2.446   6.533   1.019 -1.8575  0.8963 -1.2731
 9153SOL     OW29058   2.178   6.186   0.597 -0.3578 -0.0670 -0.0833
 9153SOL    HW129059   2.109   6.211   0.665  0.7453 -0.9347  1.4249
 9153SOL    HW229060   2.206   6.267   0.546 -0.3150  0.8733  1.3723
 9154SOL     OW29061   1.137   3.200   0.321  0.6256  0.4911  0.3543
 9154SOL    HW129062   1.161   3.214   0.417  1.2967 -1.2607  0.4687
 9154SOL    HW229063   1.204   3.140   0.278 -0.8493 -0.4967 -0.6534
 9155SOL     OW29064   0.734   4.889   3.226  0.0973  0.1171  0.2375
 9155SOL    HW129065   0.665   4.833   3.271  0.4533  0.2130  0.9226
 9155SOL    HW229066   0.809   4.831   3.195  0.7471  0.2474  1.4700
 9156SOL     OW29067   3.990   3.423   6.549 -0.1351 -0.3209 -0.4634
 9156SOL    HW129068   3.907   3.474   6.526 -0.1276 -0.2002 -0.2236
 9156SOL    HW229069   3.965   3.329   6.573 -0.2076 -0.2739 -0.3517
 9157SOL     OW29070   3.226   2.869   6.168  0.1231 -0.1539  0.2309
 9157SOL    HW129071   3.200   2.869   6.265 -1.3130  0.8367 -0.1051
 9157SOL    HW229072   3.226   2.963   6.134  1.3301 -0.4239 -0.5702
 9158SOL     OW29073   2.805   1.892   1.293 -0.0624  0.5109  0.0596
 9158SOL    HW129074   2.774   1.978   1.334 -1.5777  1.3824 -2.6159
 9158SOL    HW229075   2.828   1.826   1.365 -0.8747  2.4409  2.1983
 9159SOL     OW29076   2.477   6.275   0.299  0.0220 -0.4061 -0.1373
 9159SOL    HW129077   2.533   6.193   0.308  0.0302 -0.5679 -1.5113
 9159SOL    HW229078   2.409   6.277   0.372 -0.1176 -1.7437 -0.2067
 9160SOL     OW29079   3.505   2.798   2.038 -0.2492  0.1673 -0.2744
 9160SOL    HW129080   3.572   2.800   2.112  0.7000  0.0343 -1.1048
 9160SOL    HW229081   3.545   2.841   1.957 -1.4748  0.8229 -0.5420
 9161SOL     OW29082   5.923   5.126   0.403  0.3757  0.4403  0.4943
 9161SOL    HW129083   5.915   5.219   0.366  1.5860  0.1176 -0.6675
 9161SOL    HW229084   5.965   5.067   0.334  0.4935 -0.7611  1.5679
 9162SOL     OW29085   5.441   6.286   5.615  0.3950 -1.0783 -0.0808
 9162SOL    HW129086   5.451   6.384   5.596 -0.0817 -0.8748  0.6369
 9162SOL    HW229087   5.504   6.260   5.688  0.1480 -1.1798  0.0988
 9163SOL     OW29088   3.763   0.512   1.159 -0.1621  0.6088  0.1001
 9163SOL    HW129089   3.774   0.414   1.174 -2.2093  0.4044  0.4911
 9163SOL    HW229090   3.831   0.562   1.214  1.8442 -0.5639 -1.1803
 9164SOL     OW29091   5.852   4.991   5.888  0.8869 -0.4834 -0.6774
 9164SOL    HW129092   5.900   5.039   5.962  0.2631  1.1273 -1.2741
 9164SOL    HW229093   5.845   4.894   5.911 -3.0249  0.4224  3.5712
 9165SOL     OW29094   0.091   1.829   6.742 -0.1864 -0.7099  0.1134
 9165SOL    HW129095   0.112   1.854   6.648  2.7995  3.2059  1.5473
 9165SOL    HW229096   0.157   1.762   6.775  0.6250  0.1231  0.2127
 9166SOL     OW29097   3.633   5.091   0.478  0.0653 -0.4407 -0.7434
 9166SOL    HW129098   3.539   5.097   0.443  0.6088  2.9745 -2.0140
 9166SOL    HW229099   3.694   5.064   0.403  0.2306 -2.3101 -0.0003
 9167SOL     OW29100   3.729   2.528   6.789  0.4048  0.2355 -0.2225
 9167SOL    HW129101   3.660   2.599   6.776 -0.1459 -0.0002  1.2688
 9167SOL    HW229102   3.795   2.558   6.858 -0.6958 -1.2839  1.5473
 9168SOL     OW29103   2.619   3.182   2.988  0.8067  0.2650  0.1266
 9168SOL    HW129104   2.624   3.274   3.029  1.6520 -0.7850  2.5651
 9168SOL    HW229105   2.700   3.130   3.016  0.2794 -1.2830 -1.1345
 9169SOL     OW29106   2.241   3.010   5.238  0.7017 -0.0082  0.3063
 9169SOL    HW129107   2.313   3.030   5.304  1.4703 -1.4279 -0.0634
 9169SOL    HW229108   2.230   3.087   5.175  1.0880  0.6872  1.0855
 9170SOL     OW29109   3.938   3.952   0.710  0.1773 -0.2607  0.3065
 9170SOL    HW129110   4.024   3.932   0.756  1.1230  0.5862 -1.0009
 9170SOL    HW229111   3.874   3.995   0.774  1.2710  0.4698  0.9367
 9171SOL     OW29112   3.349   0.358   2.133  0.2765 -0.0908  0.1151
 9171SOL    HW129113   3.441   0.319   2.130  0.6102  0.7198 -2.1868
 9171SOL    HW229114   3.291   0.302   2.193  1.8783 -1.4289  0.4946
 9172SOL     OW29115   5.845   4.306   0.383 -0.0838 -0.0056 -0.3498
 9172SOL    HW129116   5.918   4.308   0.314  1.1491  0.5489  0.9192
 9172SOL    HW229117   5.883   4.273   0.470 -1.6271 -0.7779  0.0592
 9173SOL     OW29118   1.849   1.136   0.626 -0.4195  0.2083  0.4824
 9173SOL    HW129119   1.819   1.047   0.593 -0.8477  0.4185  0.3024
 9173SOL    HW229120   1.798   1.160   0.709 -0.1909  0.2155  0.6230
 9174SOL     OW29121   5.626   1.875   2.692 -0.6513 -0.2686 -0.5836
 9174SOL    HW129122   5.706   1.817   2.678  0.5658  1.1036  0.4353
 9174SOL    HW229123   5.547   1.834   2.645 -0.2918 -3.6000  1.3712
 9175SOL     OW29124   0.561   4.183   1.344  0.1118  0.2332 -0.0398
 9175SOL    HW129125   0.597   4.127   1.419 -0.6440  0.5311  0.5534
 9175SOL    HW229126   0.469   4.153   1.321  0.5813 -0.2910 -1.3140
 9176SOL     OW29127   4.703   1.088   6.933 -0.4634  0.0904 -0.0332
 9176SOL    HW129128   4.665   1.175   6.963 -0.4527  0.0683  0.0448
 9176SOL    HW229129   4.642   1.046   6.866 -0.0486  0.5709 -0.7301
 9177SOL     OW29130   5.173   1.139   2.300 -0.2162 -0.4614 -0.3916
 9177SOL    HW129131   5.091   1.178   2.258  1.5820  2.2404 -1.6175
 9177SOL    HW229132   5.248   1.204   2.293  2.5060 -3.4204 -0.7416
 9178SOL     OW29133   0.920   0.926   6.626 -0.3446 -0.2110 -0.0378
 9178SOL    HW129134   0.922   0.845   6.686 -1.6849 -0.2327  0.0136
 9178SOL    HW229135   0.976   0.998   6.666  0.7240 -1.0382  0.0148
 9179SOL     OW29136   1.841   6.868   3.528 -0.0742 -0.5103  0.1952
 9179SOL    HW129137   1.762   6.812   3.503 -0.7327 -0.1423  1.4027
 9179SOL    HW229138   1.832   6.899   3.623  2.5102 -2.1739  1.0926
 9180SOL     OW29139   6.905   3.207   4.505 -0.0034 -0.0639 -0.7524
 9180SOL    HW129140   6.968   3.282   4.482  0.9171 -1.0702 -1.5912
 9180SOL    HW229141   6.812   3.233   4.478  0.0004  1.4473  0.5186
 9181SOL     OW29142   0.807   4.097   5.285 -0.3232  0.0232  0.0040
 9181SOL    HW129143   0.803   4.108   5.385  0.5802 -0.6180  0.1238
 9181SOL    HW229144   0.730   4.145   5.243  0.8226  2.7627  0.7999
 9182SOL     OW29145   4.193   6.563   1.698 -0.1077 -0.4949  0.0561
 9182SOL    HW129146   4.170   6.470   1.669 -1.1984 -0.6539  1.3304
 9182SOL    HW229147   4.231   6.560   1.791  0.4139  0.2739 -0.1283
 9183SOL     OW29148   6.377   4.687   4.310 -0.2047  0.7236  0.5888
 9183SOL    HW129149   6.349   4.746   4.386  0.5397  1.5806  0.2197
 9183SOL    HW229150   6.455   4.728   4.263 -0.2989 -0.0770 -0.2992
 9184SOL     OW29151   4.643   2.549   1.217  0.4101 -0.0502  0.2849
 9184SOL    HW129152   4.612   2.482   1.285 -0.5370 -0.0356 -0.1226
 9184SOL    HW229153   4.626   2.641   1.252  0.6997 -0.0355  0.3850
 9185SOL     OW29154   6.040   1.303   1.148  0.0481 -0.7350 -0.4266
 9185SOL    HW129155   6.094   1.287   1.230 -0.7103  1.5414  0.5965
 9185SOL    HW229156   6.081   1.377   1.095 -0.8321 -0.4900 -0.7858
 9186SOL     OW29157   0.815   5.194   4.632 -0.2122 -0.1043  0.5826
 9186SOL    HW129158   0.753   5.237   4.698  1.0334  0.0713  1.6731
 9186SOL    HW229159   0.833   5.100   4.661  2.8240  0.9037  2.3491
 9187SOL     OW29160   3.056   4.187   2.267  0.0323  0.1072  0.0714
 9187SOL    HW129161   3.127   4.117   2.273  0.5203  0.6557  0.7982
 9187SOL    HW229162   3.072   4.258   2.335 -1.0157  0.4277  0.0093
 9188SOL     OW29163   2.338   4.459   5.884  0.2515  0.4178 -0.1798
 9188SOL    HW129164   2.358   4.489   5.791 -1.4113 -1.4056 -1.1893
 9188SOL    HW229165   2.310   4.537   5.940 -0.4695  1.2790 -1.7077
 9189SOL     OW29166   4.485   2.055   2.060  0.0446  0.6814 -0.0947
 9189SOL    HW129167   4.521   2.084   1.971  0.3921  0.5000 -0.0144
 9189SOL    HW229168   4.435   2.130   2.102  0.1806  0.8816 -0.2891
 9190SOL     OW29169   2.378   4.582   2.176  0.3399 -0.0774  0.3404
 9190SOL    HW129170   2.406   4.529   2.096  1.0409 -1.2921  1.3551
 9190SOL    HW229171   2.336   4.521   2.244 -1.6482  1.1684  0.3053
 9191SOL     OW29172   0.792   5.959   2.769  0.2479 -0.0760  0.2865
 9191SOL    HW129173   0.863   5.974   2.838  1.0968 -0.3445 -0.5035
 9191SOL    HW229174   0.761   6.046   2.733 -0.6177  0.0958  1.4059
 9192SOL     OW29175   6.336   0.245   2.667  0.6323  0.6780 -0.1791
 9192SOL    HW129176   6.278   0.227   2.746  1.6486  0.6815  0.5947
 9192SOL    HW229177   6.285   0.297   2.598 -1.3054 -2.0581 -0.9782
 9193SOL     OW29178   2.544   3.819   3.387  0.0737 -0.7876  0.1340
 9193SOL    HW129179   2.452   3.784   3.402 -0.0683  0.2188  1.8941
 9193SOL    HW229180   2.551   3.911   3.424  1.1766  0.0750 -2.0270
 9194SOL     OW29181   4.298   3.979   1.128  0.1771  0.4105  0.5592
 9194SOL    HW129182   4.390   3.963   1.163  0.3581 -1.9821 -0.7830
 9194SOL    HW229183   4.231   3.963   1.201  0.7538  1.7687  1.4290
 9195SOL     OW29184   1.256   2.498   4.612  0.3540  1.0962  0.0847
 9195SOL    HW129185   1.268   2.523   4.708  0.3100 -0.5371  0.5595
 9195SOL    HW229186   1.158   2.492   4.591  0.3632  1.3884 -0.0383
 9196SOL     OW29187   5.678   5.064   5.342  0.1882 -0.3202  0.0173
 9196SOL    HW129188   5.603   5.017   5.295  1.6953 -1.4930 -1.3363
 9196SOL    HW229189   5.694   5.020   5.430  0.2007 -0.9987 -0.3158
 9197SOL     OW29190   0.343   3.283   0.727 -0.3155  0.2423 -0.0482
 9197SOL    HW129191   0.324   3.193   0.688  0.6721 -0.1389  0.3171
 9197SOL    HW229192   0.340   3.276   0.827 -0.0961  0.5813 -0.0190
 9198SOL     OW29193   0.861   1.816   5.450  0.1180 -0.0129 -0.1778
 9198SOL    HW129194   0.893   1.724   5.430 -2.3728 -0.9935  0.0730
 9198SOL    HW229195   0.799   1.847   5.378 -0.2016  0.8762  0.4580
 9199SOL     OW29196   1.268   2.681   0.368  1.1738 -0.0832 -0.0123
 9199SOL    HW129197   1.173   2.679   0.399  1.5917  1.7100  1.5432
 9199SOL    HW229198   1.289   2.596   0.319 -0.9536 -0.8995  0.4049
 9200SOL     OW29199   4.771   2.694   1.989 -0.0021  0.8700  0.5492
 9200SOL    HW129200   4.678   2.657   1.997  0.3265  0.0209  0.6162
 9200SOL    HW229201   4.775   2.758   1.912  0.1369 -1.7206 -1.7619
 9201SOL     OW29202   6.601   3.236   2.604  0.1892  0.0344 -0.2305
 9201SOL    HW129203   6.570   3.141   2.607  1.2556 -0.3128  0.5746
 9201SOL    HW229204   6.687   3.245   2.654  0.2153  1.3947 -0.4614
 9202SOL     OW29205   4.136   3.047   6.454 -0.4879  0.2769 -0.5969
 9202SOL    HW129206   4.206   2.976   6.461  0.5590  1.4391  2.0557
 9202SOL    HW229207   4.147   3.097   6.368  0.6295 -0.8708 -1.1461
 9203SOL     OW29208   3.068   1.930   0.043 -0.3044 -0.2070 -0.4928
 9203SOL    HW129209   3.002   1.976   0.103 -0.7206 -1.5009  0.0823
 9203SOL    HW229210   3.046   1.949  -0.052  0.9802  2.7549 -0.3211
 9204SOL     OW29211   3.442   0.960   4.649 -0.0110  0.1169 -0.2796
 9204SOL    HW129212   3.444   0.895   4.573  0.0364 -1.2095  0.8029
 9204SOL    HW229213   3.422   0.911   4.734  0.8908  1.3924  0.7231
 9205SOL     OW29214   1.401   1.809   5.271  0.0010 -0.5667  0.3106
 9205SOL    HW129215   1.458   1.863   5.209  0.6029 -1.4122  0.1074
 9205SOL    HW229216   1.438   1.813   5.364 -0.8830  0.6743  0.6283
 9206SOL     OW29217   5.155   0.911   1.104  0.2533  0.1608  0.1278
 9206SOL    HW129218   5.197   0.843   1.164  1.6899  2.1451  1.4913
 9206SOL    HW229219   5.125   0.990   1.158  0.4585  1.4957 -1.6052
 9207SOL     OW29220   0.586   6.604   2.110 -0.0394 -0.0513  0.2594
 9207SOL    HW129221   0.508   6.607   2.172 -0.7407 -2.0154 -0.4485
 9207SOL    HW229222   0.667   6.575   2.159 -0.1999  0.1097  0.6188
 9208SOL     OW29223   6.924   3.641   3.248  0.0566  0.2222 -0.1672
 9208SOL    HW129224   6.927   3.687   3.159 -0.2325  2.8790  1.1074
 9208SOL    HW229225   7.015   3.606   3.270  0.5219  0.9792 -0.8046
 9209SOL     OW29226   3.467   6.143   2.941 -0.6541  0.0372 -0.3576
 9209SOL    HW129227   3.380   6.099   2.963 -0.2853 -0.2164  0.6284
 9209SOL    HW229228   3.517   6.163   3.025  0.4128 -0.1723 -0.9239
 9210SOL     OW29229   2.773   0.780   4.950 -0.5033 -0.7868  0.0369
 9210SOL    HW129230   2.740   0.755   5.041 -0.6569  0.7536  0.4183
 9210SOL    HW229231   2.706   0.752   4.881  0.0451 -2.8488  0.2647
 9211SOL     OW29232   0.478   6.296   4.520 -0.5961  0.9936 -0.4329
 9211SOL    HW129233   0.515   6.242   4.444 -2.7628  0.1678 -0.9618
 9211SOL    HW229234   0.477   6.392   4.495  0.6547  0.9903 -0.5887
 9212SOL     OW29235   6.149   6.052   6.990 -0.3068  0.1610 -0.2411
 9212SOL    HW129236   6.076   6.053   7.059 -1.0072 -0.3759 -0.9634
 9212SOL    HW229237   6.167   5.958   6.962  0.7953  0.2684  0.0490
 9213SOL     OW29238   2.844   2.702   5.344 -0.0404 -0.4244 -0.8163
 9213SOL    HW129239   2.854   2.619   5.399  1.1376 -0.2795 -0.8035
 9213SOL    HW229240   2.778   2.763   5.388  0.3945 -0.5898  0.0859
 9214SOL     OW29241   0.989   5.754   6.810 -0.2983  0.1651  0.5396
 9214SOL    HW129242   1.018   5.833   6.864 -3.5789  1.0802  1.1923
 9214SOL    HW229243   1.029   5.759   6.719  0.3851  1.9981  0.9023
 9215SOL     OW29244   0.244   4.023   4.081 -0.0754  0.0957 -0.0569
 9215SOL    HW129245   0.277   4.114   4.104  2.0992 -0.6083 -0.1510
 9215SOL    HW229246   0.156   4.006   4.126 -0.2383  2.0052  0.4027
 9216SOL     OW29247   5.197   2.156   5.130  0.3964  0.0989 -0.8570
 9216SOL    HW129248   5.167   2.240   5.085 -1.7735 -0.1929 -0.0827
 9216SOL    HW229249   5.183   2.164   5.228  0.6236 -0.9933 -0.7209
 9217SOL     OW29250   5.907   6.872   5.197  0.3844  0.3114  0.5021
 9217SOL    HW129251   5.994   6.823   5.202  0.0055 -0.5356 -0.5641
 9217SOL    HW229252   5.833   6.806   5.181 -0.1068  1.2132 -1.2742
 9218SOL     OW29253   5.620   6.160   5.801 -0.2391 -0.4044  1.1224
 9218SOL    HW129254   5.612   6.165   5.900 -0.3626 -2.0298  1.2265
 9218SOL    HW229255   5.568   6.082   5.767  1.8793 -1.4661  0.0748
 9219SOL     OW29256   3.674   6.326   1.681  0.2949  0.1294  0.0066
 9219SOL    HW129257   3.580   6.293   1.677  0.5486 -1.0163  2.1593
 9219SOL    HW229258   3.682   6.411   1.628 -1.1940 -1.3109 -2.7889
 9220SOL     OW29259   5.847   4.786   4.636  0.0909  0.0695 -0.0636
 9220SOL    HW129260   5.923   4.797   4.701 -0.3809 -0.6134  0.6147
 9220SOL    HW229261   5.788   4.867   4.641  3.4270  3.2497 -4.3026
 9221SOL     OW29262   5.345   3.207   5.688  0.3752 -0.0032 -0.1399
 9221SOL    HW129263   5.443   3.192   5.680  0.5054  1.0945 -0.8831
 9221SOL    HW229264   5.328   3.292   5.739 -0.2156 -0.4746  0.4829
 9222SOL     OW29265   3.614   5.208   5.502  0.0683  0.3478  0.7322
 9222SOL    HW129266   3.712   5.190   5.488  0.2155 -0.3839  2.4574
 9222SOL    HW229267   3.562   5.158   5.433  0.7999 -1.8461  1.6673
 9223SOL     OW29268   4.633   2.767   6.604  0.0015 -0.9804  0.1358
 9223SOL    HW129269   4.705   2.710   6.565 -0.6770 -0.7901 -1.4873
 9223SOL    HW229270   4.661   2.863   6.602 -0.2854 -0.9009 -0.5428
 9224SOL     OW29271   0.950   4.027   6.699 -0.1793  0.4905  0.1543
 9224SOL    HW129272   1.023   4.095   6.687  0.0556  0.4533  1.2569
 9224SOL    HW229273   0.880   4.041   6.630  1.2178  0.0696 -1.4087
 9225SOL     OW29274   4.314   5.829   5.760  0.1624  0.2089  0.0484
 9225SOL    HW129275   4.307   5.832   5.660 -0.8569 -0.0700  0.1022
 9225SOL    HW229276   4.409   5.812   5.786 -0.0925 -3.6584 -0.9717
 9226SOL     OW29277   6.837   0.844   0.066  0.0488  0.0009  0.8075
 9226SOL    HW129278   6.817   0.816   0.160  0.5298  0.6830  1.1186
 9226SOL    HW229279   6.753   0.876   0.023  0.2172  1.8844  1.7756
 9227SOL     OW29280   4.127   6.339   5.617  0.0922 -0.2107 -0.0560
 9227SOL    HW129281   4.097   6.426   5.578 -0.4828  0.4717  1.7898
 9227SOL    HW229282   4.204   6.356   5.679 -1.0273 -0.7255  1.5531
 9228SOL     OW29283   0.653   3.314   1.952  0.6737  0.2849  0.6111
 9228SOL    HW129284   0.568   3.260   1.957  1.1038 -0.5578 -0.6835
 9228SOL    HW229285   0.662   3.353   1.861  0.2598  2.8296  1.5893
 9229SOL     OW29286   6.857   3.363   0.249  0.5705  0.2418 -0.3854
 9229SOL    HW129287   6.761   3.369   0.275  0.7979 -0.9869  0.8403
 9229SOL    HW229288   6.911   3.332   0.328  1.3726 -3.1739 -2.0897
 9230SOL     OW29289   2.800   5.960   6.787 -0.1539 -0.0384 -0.1208
 9230SOL    HW129290   2.760   5.976   6.877  0.0724  0.5655 -0.1204
 9230SOL    HW229291   2.804   6.047   6.737 -1.8231 -0.6212 -1.3676
 9231SOL     OW29292   5.796   1.941   1.914 -0.4607 -0.1980  0.3849
 9231SOL    HW129293   5.848   1.866   1.874  0.0926 -0.0268  0.7817
 9231SOL    HW229294   5.831   1.963   2.005 -1.6413 -0.5025  0.9310
 9232SOL     OW29295   1.307   6.271   4.634  0.3903 -0.3744 -0.0627
 9232SOL    HW129296   1.269   6.203   4.696  1.3175 -1.2027 -0.3623
 9232SOL    HW229297   1.363   6.225   4.565  0.0916  0.6001 -0.9878
 9233SOL     OW29298   2.608   5.698   5.595 -0.0254  0.4879  0.0737
 9233SOL    HW129299   2.697   5.736   5.620  0.4429 -1.4144  1.4816
 9233SOL    HW229300   2.621   5.625   5.528 -0.5266  0.2219  0.2620
 9234SOL     OW29301   0.057   4.963   5.486  0.6348  0.3307  0.4252
 9234SOL    HW129302   0.114   4.903   5.431  0.7111  1.1833 -0.4615
 9234SOL    HW229303  -0.038   4.933   5.481  0.4997  0.8942 -0.9242
 9235SOL     OW29304   1.701   6.296   1.050 -0.5224 -0.2661 -0.3953
 9235SOL    HW129305   1.679   6.377   1.104 -3.1005 -0.8561 -0.4165
 9235SOL    HW229306   1.622   6.234   1.050  0.6826 -1.8977 -1.9672
 9236SOL     OW29307   3.668   0.140   4.666  0.8722  0.7018 -0.4606
 9236SOL    HW129308   3.633   0.220   4.716 -1.7293 -1.0419  0.7705
 9236SOL    HW229309   3.722   0.083   4.728 -0.7271 -0.4850 -0.0943
 9237SOL     OW29310   1.462   1.639   2.183  0.8429 -0.2526  0.5379
 9237SOL    HW129311   1.483   1.707   2.254  0.7703 -1.8926  2.2199
 9237SOL    HW229312   1.363   1.632   2.172  0.8687  0.5017 -0.2675
 9238SOL     OW29313   1.751   4.134   1.413 -0.2671  0.2438 -0.1011
 9238SOL    HW129314   1.805   4.151   1.331 -1.8129 -0.3543 -1.2902
 9238SOL    HW229315   1.732   4.036   1.420  1.3851 -0.0067  2.0223
 9239SOL     OW29316   0.629   4.566   3.193  0.4688 -0.5732 -0.0481
 9239SOL    HW129317   0.574   4.538   3.271 -0.7257 -0.0553 -0.6813
 9239SOL    HW229318   0.577   4.631   3.137  1.9133  0.3249 -0.4018
 9240SOL     OW29319   4.881   6.631   3.365 -0.4667 -0.2941 -0.2786
 9240SOL    HW129320   4.888   6.542   3.409 -1.5761  0.1209  0.8291
 9240SOL    HW229321   4.829   6.623   3.280  0.2264 -0.8320 -0.6611
 9241SOL     OW29322   5.455   5.925   3.556  0.2504  0.0359 -0.0694
 9241SOL    HW129323   5.486   5.858   3.623 -0.7446  0.8489  1.2592
 9241SOL    HW229324   5.379   5.888   3.503 -0.0264 -0.0323  0.3767
 9242SOL     OW29325   3.636   6.048   5.595 -0.1271  0.4179  0.0028
 9242SOL    HW129326   3.689   5.982   5.542  2.0053  0.8022  1.5235
 9242SOL    HW229327   3.608   6.123   5.535 -0.6951 -0.7521 -1.2612
 9243SOL     OW29328   2.065   2.089   5.824  0.0552 -0.1255 -0.3093
 9243SOL    HW129329   1.998   2.160   5.800 -1.0856 -1.0390  0.0657
 9243SOL    HW229330   2.119   2.065   5.744  1.7666  2.4600 -0.0447
 9244SOL     OW29331   4.128   6.357   6.969  0.6409 -0.0472 -0.5242
 9244SOL    HW129332   4.051   6.413   6.938  0.0543 -0.7481 -0.3695
 9244SOL    HW229333   4.176   6.405   7.042 -0.4578 -0.1402  0.3044
 9245SOL     OW29334   1.820   6.569   2.990 -0.1138 -0.2502 -0.0145
 9245SOL    HW129335   1.854   6.484   2.949  0.7977  0.1610 -0.1376
 9245SOL    HW229336   1.879   6.645   2.963  0.0600  0.1648  1.4417
 9246SOL     OW29337   4.584   1.752   5.392  0.3187  0.4025  0.1165
 9246SOL    HW129338   4.675   1.715   5.411  1.0225  1.3419 -1.2561
 9246SOL    HW229339   4.517   1.678   5.389  0.8642 -0.2260  1.9589
 9247SOL     OW29340   0.482   4.713   0.224  0.6846  0.0019 -0.1396
 9247SOL    HW129341   0.500   4.703   0.126  1.1119  1.8850 -0.2827
 9247SOL    HW229342   0.455   4.624   0.261  2.0930 -1.1171 -1.6202
 9248SOL     OW29343   4.310   5.480   5.843  0.3249  0.2721  0.0337
 9248SOL    HW129344   4.278   5.401   5.791  2.2230  0.8500 -2.2410
 9248SOL    HW229345   4.238   5.512   5.904 -0.8941 -2.4612  0.1534
 9249SOL     OW29346   3.027   2.986   4.802 -0.2756  0.2179  0.2483
 9249SOL    HW129347   3.028   3.086   4.801 -1.0551  0.3043  2.1425
 9249SOL    HW229348   3.079   2.954   4.881  1.0007 -0.9511 -1.0139
 9250SOL     OW29349   0.929   6.721   1.292  0.4017 -0.1992  0.0020
 9250SOL    HW129350   1.017   6.675   1.300 -0.1364 -1.3507 -0.4277
 9250SOL    HW229351   0.855   6.654   1.305 -0.4109  0.5772 -0.4993
 9251SOL     OW29352   4.779   6.007   1.455 -0.1739  0.0795  0.2305
 9251SOL    HW129353   4.754   5.913   1.432 -0.3497  0.0845  0.3957
 9251SOL    HW229354   4.825   6.050   1.377  0.4644 -0.3415  0.3724
 9252SOL     OW29355   3.776   3.484   0.461  0.0611 -0.0449 -0.7456
 9252SOL    HW129356   3.701   3.531   0.415  1.1799  2.2656 -0.3127
 9252SOL    HW229357   3.852   3.547   0.475  1.1497 -1.6532  1.0599
 9253SOL     OW29358   3.476   5.317   0.750 -0.2342 -0.4651  0.3309
 9253SOL    HW129359   3.454   5.342   0.655 -0.9021  0.0401  0.6142
 9253SOL    HW229360   3.396   5.278   0.793 -0.6786  1.5341  1.4275
 9254SOL     OW29361   1.360   1.000   3.884  0.3427  0.0765  0.6365
 9254SOL    HW129362   1.261   1.012   3.877  0.3544  0.5383  1.1620
 9254SOL    HW229363   1.393   0.944   3.808 -0.4487 -0.8448  0.9554
 9255SOL     OW29364   0.577   0.563   5.031  0.0135  0.1523 -0.3442
 9255SOL    HW129365   0.504   0.554   4.964 -0.2783  1.1078 -0.1759
 9255SOL    HW229366   0.656   0.608   4.989  0.4885 -0.8086 -0.5052
 9256SOL     OW29367   5.380   3.599   2.538  0.3965  0.1580 -0.1354
 9256SOL    HW129368   5.398   3.514   2.588 -0.9144  0.2608  0.5666
 9256SOL    HW229369   5.345   3.668   2.602 -0.1116  0.6998 -0.9815
 9257SOL     OW29370   6.564   0.416   1.848 -0.2556  0.6477  0.6552
 9257SOL    HW129371   6.480   0.469   1.841  0.4559  2.1180  2.5097
 9257SOL    HW229372   6.548   0.337   1.907 -0.7398 -0.0576 -0.3755
 9258SOL     OW29373   0.509   2.367   1.221 -0.1992  0.7419  0.4347
 9258SOL    HW129374   0.455   2.309   1.160 -1.2953  3.1434 -1.0596
 9258SOL    HW229375   0.469   2.367   1.312 -1.8350  1.2599 -0.2568
 9259SOL     OW29376   6.191   6.341   4.888  0.0156  0.4156  0.4882
 9259SOL    HW129377   6.235   6.268   4.835  1.1216  2.9159 -2.2928
 9259SOL    HW229378   6.260   6.398   4.931 -0.6624  1.7708 -0.1760
 9260SOL     OW29379   4.807   4.789   5.795  0.4562 -0.2653 -0.1935
 9260SOL    HW129380   4.722   4.836   5.771  0.4854  0.0858  0.3696
 9260SOL    HW229381   4.861   4.773   5.712  0.1775  0.1712 -0.4617
 9261SOL     OW29382   4.995   6.891   3.978  0.1827  0.0576 -0.1955
 9261SOL    HW129383   5.001   6.893   3.878  3.1434 -1.3675 -0.1356
 9261SOL    HW229384   5.050   6.965   4.016  1.9513 -1.4755  0.3513
 9262SOL     OW29385   4.059   5.005   1.811 -0.1007 -0.3071 -0.5348
 9262SOL    HW129386   4.050   5.098   1.846  1.1011 -0.6838  0.9214
 9262SOL    HW229387   4.018   4.941   1.877  1.3211 -0.9678 -0.2385
 9263SOL     OW29388   2.369   3.050   0.663 -0.3722  0.4462 -0.4335
 9263SOL    HW129389   2.425   3.113   0.716  0.1702  0.2284 -0.7426
 9263SOL    HW229390   2.393   2.956   0.686  0.4988  0.3301 -1.6762
 9264SOL     OW29391   1.970   0.349   4.808  0.0471 -0.2535  0.4574
 9264SOL    HW129392   1.888   0.403   4.793 -0.4265 -0.8133  0.9305
 9264SOL    HW229393   1.946   0.266   4.859  1.0944  0.1803  1.7166
 9265SOL     OW29394   3.376   1.331   5.356 -0.1480  0.2102  0.5220
 9265SOL    HW129395   3.470   1.300   5.373 -0.7801 -1.7856  0.6730
 9265SOL    HW229396   3.314   1.285   5.420 -1.4018  0.3956 -0.5138
 9266SOL     OW29397   0.320   2.818   2.127 -0.8760 -0.7888 -0.0674
 9266SOL    HW129398   0.311   2.908   2.169  2.2666 -0.1418 -0.5582
 9266SOL    HW229399   0.339   2.749   2.197  0.2259 -0.4250  0.0071
 9267SOL     OW29400   5.233   4.725   1.408  0.1119  0.5283  0.2351
 9267SOL    HW129401   5.198   4.752   1.318  0.5417 -0.5085 -0.2670
 9267SOL    HW229402   5.323   4.768   1.423  1.3028 -1.3602 -1.0305
 9268SOL     OW29403   4.205   3.593   6.185  0.1581  0.5302 -0.2605
 9268SOL    HW129404   4.240   3.687   6.185  0.1838  0.5344  1.2376
 9268SOL    HW229405   4.141   3.582   6.109 -0.4641  1.9912  0.0221
 9269SOL     OW29406   0.934   2.024   1.799 -0.0087  0.7802 -0.4433
 9269SOL    HW129407   1.015   2.017   1.857  0.9358  2.4336 -1.4900
 9269SOL    HW229408   0.949   1.972   1.715 -0.6908 -0.1964  0.0181
 9270SOL     OW29409   2.901   3.948   3.195 -0.1113 -0.1175  0.3313
 9270SOL    HW129410   2.843   4.012   3.246  1.0780 -0.9956  2.9574
 9270SOL    HW229411   2.859   3.858   3.195 -1.2440  0.3177 -2.4145
 9271SOL     OW29412   2.982   1.181   6.663  0.2565  0.3533  0.7350
 9271SOL    HW129413   2.906   1.147   6.719  0.7745 -2.5156 -0.1435
 9271SOL    HW229414   2.951   1.192   6.569  0.4680  1.0216  0.7432
 9272SOL     OW29415   1.126   4.000   3.283  0.0021 -0.6955 -0.1457
 9272SOL    HW129416   1.196   3.930   3.292  0.5056  0.0065  1.8201
 9272SOL    HW229417   1.036   3.957   3.273  0.4303 -1.5892 -0.2349
 9273SOL     OW29418   1.132   5.062   0.353 -0.1778 -0.1540 -0.4362
 9273SOL    HW129419   1.208   5.074   0.289  0.3620 -0.0498  0.2119
 9273SOL    HW229420   1.069   5.139   0.346 -0.8967 -0.8401 -1.8632
 9274SOL     OW29421   3.975   2.753   1.681  0.6139 -0.0806 -0.0245
 9274SOL    HW129422   4.052   2.813   1.704  0.2407 -0.0115  1.1398
 9274SOL    HW229423   4.009   2.667   1.644  1.1527  0.9626 -2.0890
 9275SOL     OW29424   6.178   6.711   5.214  0.2746 -0.5727 -0.6666
 9275SOL    HW129425   6.164   6.796   5.265  1.2621 -0.4002 -0.6629
 9275SOL    HW229426   6.257   6.721   5.153  0.1275 -1.3400 -1.0016
 9276SOL     OW29427   6.648   6.401   1.891  0.9267 -0.1278 -0.5505
 9276SOL    HW129428   6.672   6.306   1.873  4.7232  0.9463 -2.2158
 9276SOL    HW229429   6.625   6.447   1.805  2.1547  1.1151 -0.2559
 9277SOL     OW29430   5.608   1.516   6.854  0.0365  0.4612 -0.3495
 9277SOL    HW129431   5.579   1.423   6.877  0.2545  0.1809 -1.1626
 9277SOL    HW229432   5.542   1.582   6.889 -0.5741 -0.0604 -0.5107
 9278SOL     OW29433   1.780   2.075   4.484 -0.4655 -0.5173 -0.1620
 9278SOL    HW129434   1.705   2.066   4.549 -0.6514  0.6332 -0.2011
 9278SOL    HW229435   1.817   2.168   4.488 -0.4205 -0.4499 -1.6328
 9279SOL     OW29436   4.677   6.732   6.138 -0.1347 -0.0268 -0.1099
 9279SOL    HW129437   4.775   6.727   6.157 -0.5415 -1.4001  1.8609
 9279SOL    HW229438   4.632   6.648   6.168 -1.9986  0.7314 -0.5965
 9280SOL     OW29439   2.945   2.477   0.824 -0.4805 -0.3502 -0.0314
 9280SOL    HW129440   2.949   2.390   0.774  0.9153 -0.6932  0.6312
 9280SOL    HW229441   3.018   2.480   0.891 -0.9088  1.0875  0.4019
 9281SOL     OW29442   3.583   1.684   4.023 -0.2914  0.3932 -0.3761
 9281SOL    HW129443   3.561   1.781   4.032 -0.5511  0.3432 -0.4788
 9281SOL    HW229444   3.505   1.628   4.051  0.4564  0.1875  1.4024
 9282SOL     OW29445   1.929   6.618   5.901  0.5444 -0.4130 -0.5839
 9282SOL    HW129446   1.933   6.715   5.875 -1.2082  0.1465  1.0460
 9282SOL    HW229447   1.954   6.608   5.997  0.0868 -1.5217 -0.5639
 9283SOL     OW29448   2.462   3.669   0.119 -0.0535  0.0331 -0.4642
 9283SOL    HW129449   2.541   3.633   0.070  0.2966 -0.1915  0.2500
 9283SOL    HW229450   2.447   3.764   0.091  0.0367 -0.1389 -1.1199
 9284SOL     OW29451   2.051   5.988   4.350 -0.9812  0.3480 -0.1123
 9284SOL    HW129452   1.963   5.942   4.356 -1.6889  1.4440 -1.4623
 9284SOL    HW229453   2.108   5.962   4.428 -2.0232 -1.3287  0.1361
 9285SOL     OW29454   1.358   4.229   1.308 -0.5023 -0.5040  0.2220
 9285SOL    HW129455   1.426   4.300   1.290 -1.8185  0.9662  0.7914
 9285SOL    HW229456   1.343   4.221   1.407  0.4368 -2.4190  0.2600
 9286SOL     OW29457   5.636   5.222   4.231 -0.4039 -0.0825  0.3070
 9286SOL    HW129458   5.674   5.147   4.285 -1.7132 -0.8058  0.2452
 9286SOL    HW229459   5.536   5.219   4.234 -0.4981  0.5762 -1.1894
 9287SOL     OW29460   0.580   5.980   0.028 -0.5367 -0.5509 -0.4131
 9287SOL    HW129461   0.485   5.959   0.006 -0.0653 -2.2858 -0.9257
 9287SOL    HW229462   0.605   5.936   0.115  0.0130 -0.7732 -0.6758
 9288SOL     OW29463   4.115   0.961   5.323 -0.5333 -0.5358  0.0938
 9288SOL    HW129464   4.097   1.002   5.234 -1.4661  0.3410  0.6711
 9288SOL    HW229465   4.130   1.033   5.391  0.3821 -1.1957  0.6130
 9289SOL     OW29466   6.652   5.949   1.512 -0.7387  0.0099  0.2319
 9289SOL    HW129467   6.742   5.981   1.540  0.9753 -3.2521 -1.0632
 9289SOL    HW229468   6.610   5.898   1.588 -0.0262 -1.2206 -0.1791
 9290SOL     OW29469   5.924   2.629   5.324  0.2066  0.0735 -0.0730
 9290SOL    HW129470   5.934   2.553   5.388  1.6961  0.0930 -0.2456
 9290SOL    HW229471   5.887   2.595   5.237  0.7897 -0.4477 -0.1232
 9291SOL     OW29472   2.933   0.939   0.225  0.5101  0.5061 -0.8768
 9291SOL    HW129473   2.857   0.910   0.284 -0.6955  0.1227 -2.5719
 9291SOL    HW229474   2.912   0.917   0.130  2.7445  0.4510 -1.4017
 9292SOL     OW29475   5.338   2.945   0.955 -0.0402 -0.4649  0.2083
 9292SOL    HW129476   5.380   3.036   0.947 -1.2190 -0.0689 -3.7384
 9292SOL    HW229477   5.377   2.885   0.886 -1.1996 -2.1622  0.9705
 9293SOL     OW29478   4.873   6.794   3.620  0.0817 -0.1201 -0.1448
 9293SOL    HW129479   4.959   6.845   3.617 -0.2438  0.4969  0.5604
 9293SOL    HW229480   4.855   6.754   3.530  0.6269  0.5482 -0.5689
 9294SOL     OW29481   5.213   6.021   2.743  0.7924  0.0706  0.1950
 9294SOL    HW129482   5.263   6.035   2.658  0.8197  0.3813  0.2606
 9294SOL    HW229483   5.138   6.087   2.749  1.3008  0.6157  0.8012
 9295SOL     OW29484   2.409   3.032   3.079  0.1490 -0.0940  0.5597
 9295SOL    HW129485   2.437   2.977   3.158  0.1049 -1.9393 -0.6389
 9295SOL    HW229486   2.490   3.075   3.038  0.6973 -1.8249 -0.2853
 9296SOL     OW29487   5.224   4.218   1.324 -0.1302  0.2130  0.1098
 9296SOL    HW129488   5.146   4.279   1.308 -1.3343 -1.3016  0.0219
 9296SOL    HW229489   5.285   4.221   1.245  0.1039  1.6664  0.3198
 9297SOL     OW29490   4.350   1.016   2.897 -0.3746 -0.1503  0.1101
 9297SOL    HW129491   4.369   0.951   2.823  1.8070  1.7831 -1.1540
 9297SOL    HW229492   4.393   1.104   2.877  0.5119  0.4400  3.8022
 9298SOL     OW29493   4.126   3.264   2.122 -0.7104 -0.2676  0.2934
 9298SOL    HW129494   4.215   3.307   2.110 -0.5781 -0.4831  0.4869
 9298SOL    HW229495   4.134   3.166   2.107 -1.4517  0.0048 -2.4141
 9299SOL     OW29496   1.061   3.000   1.644  0.8408  0.3176  0.4330
 9299SOL    HW129497   1.014   2.919   1.608  2.7056 -0.2365 -0.9595
 9299SOL    HW229498   1.108   2.976   1.729 -0.6340  0.6552  1.3809
 9300SOL     OW29499   1.441   0.876   6.652  0.4009 -0.6081  0.5083
 9300SOL    HW129500   1.477   0.937   6.722 -0.2832  0.6950 -0.2296
 9300SOL    HW229501   1.342   0.864   6.667  0.0894  0.3433 -0.6793
 9301SOL     OW29502   1.572   5.632   1.737  0.4820  0.2455  0.2982
 9301SOL    HW129503   1.480   5.594   1.740 -1.0191  3.5805  0.3049
 9301SOL    HW229504   1.602   5.656   1.830 -0.5861  3.2071 -0.0237
 9302SOL     OW29505   6.238   5.877   2.252  0.1810  0.5009  0.3203
 9302SOL    HW129506   6.184   5.951   2.292 -1.1687 -0.1478 -0.2337
 9302SOL    HW229507   6.179   5.797   2.239  1.5260 -0.5641  0.5945
 9303SOL     OW29508   2.105   1.840   1.657 -0.2939 -0.4942 -0.0121
 9303SOL    HW129509   2.094   1.754   1.608 -1.7300 -0.6161  0.4801
 9303SOL    HW229510   2.137   1.911   1.594  1.2024 -1.4321 -0.3511
 9304SOL     OW29511   2.996   1.815   6.696  0.4250 -0.3841  0.2698
 9304SOL    HW129512   2.968   1.897   6.747  0.7430 -0.7999  1.1388
 9304SOL    HW229513   2.916   1.770   6.658  0.4178  2.0989 -3.0992
 9305SOL     OW29514   5.509   4.202   3.713  0.5871  0.2076  0.3290
 9305SOL    HW129515   5.519   4.105   3.733  0.2244  0.1093  0.0347
 9305SOL    HW229516   5.594   4.236   3.671  0.5841 -0.0627  0.1029
 9306SOL     OW29517   1.332   4.308   1.922 -0.6806 -0.6328 -0.0690
 9306SOL    HW129518   1.296   4.378   1.860  0.4080 -1.5942 -1.8528
 9306SOL    HW229519   1.416   4.342   1.966 -0.8504 -0.3642  0.0526
 9307SOL     OW29520   3.437   1.359   4.984 -0.7879 -0.2454 -0.5227
 9307SOL    HW129521   3.469   1.284   4.925 -2.8153 -0.0261 -2.0107
 9307SOL    HW229522   3.398   1.320   5.068 -0.6448 -0.7717 -0.6940
 9308SOL     OW29523   4.005   3.048   1.115  0.4680  0.1478  0.2387
 9308SOL    HW129524   4.044   3.103   1.042  1.8780 -0.5910  0.4131
 9308SOL    HW229525   4.047   3.074   1.202  0.2127 -0.3281  0.5055
 9309SOL     OW29526   1.090   0.665   6.237 -0.8221  0.9504 -0.8117
 9309SOL    HW129527   1.168   0.710   6.281  0.7600 -1.4903 -0.8498
 9309SOL    HW229528   1.094   0.680   6.138  1.0510 -0.9422 -1.1186
 9310SOL     OW29529   5.475   0.854   2.975  0.5413  0.2074 -0.0034
 9310SOL    HW129530   5.423   0.789   3.031 -1.3685  2.5688  1.1437
 9310SOL    HW229531   5.458   0.947   3.007  2.0437  1.4365 -2.4570
 9311SOL     OW29532   6.138   1.794   3.208 -0.3884 -0.2776  0.3262
 9311SOL    HW129533   6.196   1.740   3.268 -0.5402  0.3132  1.0248
 9311SOL    HW229534   6.184   1.879   3.183 -0.5570 -0.2560  0.0744
 9312SOL     OW29535   6.777   4.205   0.111  0.1420 -0.3137  0.0435
 9312SOL    HW129536   6.872   4.194   0.082  0.2099  0.7957 -0.2045
 9312SOL    HW229537   6.756   4.303   0.119 -0.7190 -0.5599  0.9514
 9313SOL     OW29538   0.831   4.357   0.834  0.0954 -0.5933 -0.1351
 9313SOL    HW129539   0.860   4.391   0.745 -0.8183 -2.5303 -1.2280
 9313SOL    HW229540   0.750   4.300   0.824 -0.9521  0.3546  2.1575
 9314SOL     OW29541   1.354   1.416   6.587 -0.2039 -0.2059 -0.0236
 9314SOL    HW129542   1.335   1.405   6.684  0.2799  0.2171  0.1246
 9314SOL    HW229543   1.396   1.333   6.551  0.0361 -0.1981  0.2377
 9315SOL     OW29544   1.246   3.982   5.234  0.2102 -0.3939 -0.4981
 9315SOL    HW129545   1.161   3.987   5.182  0.0978  0.0807 -0.2684
 9315SOL    HW229546   1.251   4.058   5.299 -0.1320 -1.5238  0.9132
 9316SOL     OW29547   1.438   4.737   5.709 -0.5219 -0.2931  0.0105
 9316SOL    HW129548   1.402   4.830   5.702 -0.4287 -0.1503  1.2346
 9316SOL    HW229549   1.362   4.672   5.716 -0.6112 -0.4108 -1.6749
 9317SOL     OW29550   5.301   2.853   2.142 -0.0374 -0.5168 -0.4308
 9317SOL    HW129551   5.246   2.859   2.225 -0.0430 -0.0370 -0.4695
 9317SOL    HW229552   5.266   2.779   2.084  0.2114 -1.1183  0.1673
 9318SOL     OW29553   3.291   3.575   4.153 -0.3042 -0.0465  0.2801
 9318SOL    HW129554   3.376   3.523   4.156  0.0774  0.5818  1.0618
 9318SOL    HW229555   3.219   3.526   4.202  0.3228  0.5915  1.8986
 9319SOL     OW29556   5.917   3.994   1.786  0.2640  0.0016  0.2007
 9319SOL    HW129557   5.976   3.942   1.847 -0.1941  0.5209  1.1103
 9319SOL    HW229558   5.890   3.937   1.708 -1.2861 -1.6220  1.8064
 9320SOL     OW29559   2.823   4.871   6.572 -0.6027 -0.2631 -0.1551
 9320SOL    HW129560   2.796   4.855   6.477  0.5179 -1.5559 -0.2791
 9320SOL    HW229561   2.923   4.880   6.577 -0.8109  3.3276  0.4253
 9321SOL     OW29562   4.767   6.347   6.826  0.3934 -0.3227  0.1992
 9321SOL    HW129563   4.751   6.413   6.753 -0.1510 -1.9371 -1.2117
 9321SOL    HW229564   4.681   6.324   6.871  0.6228  0.1229  0.8904
 9322SOL     OW29565   0.996   5.502   2.431  0.2494  0.1022 -0.9965
 9322SOL    HW129566   1.044   5.513   2.344  0.4065  0.3921 -0.8763
 9322SOL    HW229567   1.011   5.410   2.466  1.3521  0.4171 -0.5902
 9323SOL     OW29568   1.028   2.915   5.552  0.2958 -0.6286  0.2530
 9323SOL    HW129569   1.094   2.980   5.589 -1.0460  0.2467  1.1412
 9323SOL    HW229570   0.936   2.951   5.562 -0.2356 -0.7864 -3.0536
 9324SOL     OW29571   3.689   2.104   0.676  0.0985 -0.5188 -0.4953
 9324SOL    HW129572   3.724   2.196   0.695 -1.6479  0.7291 -2.8065
 9324SOL    HW229573   3.748   2.036   0.720  3.1491  1.5623 -1.0667
 9325SOL     OW29574   1.963   3.836   5.088  0.4734  0.0887  0.3561
 9325SOL    HW129575   2.031   3.910   5.094  0.0284  0.6385 -0.9837
 9325SOL    HW229576   1.992   3.770   5.018 -0.4571  0.4389 -0.3798
 9326SOL     OW29577   6.897   4.529   4.609 -0.5551  0.0019  0.1252
 9326SOL    HW129578   6.924   4.462   4.677 -1.0150 -0.6259 -0.2995
 9326SOL    HW229579   6.960   4.525   4.531 -1.7154 -1.3290 -0.7795
 9327SOL     OW29580   1.687   5.379   6.313 -0.0715  0.0672 -0.1810
 9327SOL    HW129581   1.617   5.437   6.270 -2.3734 -1.9100  0.6622
 9327SOL    HW229582   1.709   5.416   6.403 -1.3116 -0.1822  0.2420
 9328SOL     OW29583   2.606   5.122   0.480 -0.4294  0.3676 -0.3122
 9328SOL    HW129584   2.586   5.112   0.383 -1.9723  1.2017 -0.1042
 9328SOL    HW229585   2.521   5.126   0.532  0.3421 -2.3338  1.3642
 9329SOL     OW29586   2.117   1.695   1.876 -0.3614  0.1855  0.2082
 9329SOL    HW129587   2.131   1.601   1.845  0.2185  0.3407 -0.0068
 9329SOL    HW229588   2.123   1.757   1.798  1.5117  0.6214  0.6535
 9330SOL     OW29589   2.503   2.086   5.638 -0.4309 -0.0522  0.1030
 9330SOL    HW129590   2.470   2.025   5.709 -0.3744  0.7540  0.8455
 9330SOL    HW229591   2.426   2.119   5.584 -0.5404 -0.2115  0.1609
 9331SOL     OW29592   6.312   0.820   2.024 -0.8660 -0.6834 -0.1080
 9331SOL    HW129593   6.302   0.746   2.091 -1.3759 -0.7140 -0.2152
 9331SOL    HW229594   6.224   0.836   1.979 -0.3381 -1.2807 -1.4170
 9332SOL     OW29595   1.742   3.952   4.724 -0.2905 -0.0447 -0.1187
 9332SOL    HW129596   1.817   3.896   4.690 -0.2337 -0.5258  0.7702
 9332SOL    HW229597   1.655   3.915   4.691 -0.4747 -2.3252  2.5597
 9333SOL     OW29598   1.914   0.986   2.580  0.0820 -0.4420  0.1179
 9333SOL    HW129599   1.985   1.053   2.559  1.2937 -0.5932  3.1601
 9333SOL    HW229600   1.955   0.895   2.586 -0.2713 -0.5176  1.9804
 9334SOL     OW29601   0.189   6.509   6.377  0.2301 -0.7195  0.1013
 9334SOL    HW129602   0.178   6.460   6.291  0.6513  0.2239 -0.5109
 9334SOL    HW229603   0.126   6.587   6.379 -0.9406 -1.6533  1.3657
 9335SOL     OW29604   2.172   2.147   0.837  0.4361  0.1765 -0.0027
 9335SOL    HW129605   2.124   2.133   0.751 -0.3265 -0.0894  0.4527
 9335SOL    HW229606   2.262   2.187   0.820  0.3247  0.0384 -0.9198
 9336SOL     OW29607   1.744   5.934   0.269 -0.1780  0.1043 -0.4424
 9336SOL    HW129608   1.802   5.954   0.348 -1.9790  1.0534  0.7048
 9336SOL    HW229609   1.741   6.014   0.209  1.9067 -0.9124 -2.0413
 9337SOL     OW29610   5.316   3.057   2.827 -0.4112 -0.4638  0.3892
 9337SOL    HW129611   5.325   2.967   2.871  1.2344 -1.0607 -1.0404
 9337SOL    HW229612   5.347   3.050   2.732  1.5780  2.0021  0.7491
 9338SOL     OW29613   3.645   0.515   5.422  0.1453  0.3215  0.3369
 9338SOL    HW129614   3.709   0.587   5.450 -0.3542  1.3362 -1.0563
 9338SOL    HW229615   3.560   0.524   5.473 -0.1386  1.1124 -0.2629
 9339SOL     OW29616   2.252   6.471   3.043 -0.0737  0.2477 -0.1248
 9339SOL    HW129617   2.303   6.538   3.097  0.5689 -0.6436  0.4088
 9339SOL    HW229618   2.237   6.389   3.098 -3.5785  1.0535  0.3624
 9340SOL     OW29619   0.361   1.107   2.214  0.5309 -0.2297 -0.3373
 9340SOL    HW129620   0.374   1.194   2.262  0.7194  0.4329 -1.5645
 9340SOL    HW229621   0.408   1.110   2.126  0.5566 -1.5940 -0.3903
 9341SOL     OW29622   4.821   1.463   2.540  0.2278  0.3151 -0.3172
 9341SOL    HW129623   4.911   1.507   2.534  0.4880 -0.1922 -0.1203
 9341SOL    HW229624   4.751   1.534   2.549  0.3990  0.8456 -2.4504
 9342SOL     OW29625   4.494   2.744   5.261  0.2010 -0.0382  0.5495
 9342SOL    HW129626   4.457   2.770   5.172  0.7369  0.6321  0.5202
 9342SOL    HW229627   4.566   2.676   5.249  0.7947  0.6093  0.4109
 9343SOL     OW29628   6.566   0.992   5.953  0.4293 -0.2174  0.5892
 9343SOL    HW129629   6.653   0.982   6.001  1.1407 -0.9229 -0.8052
 9343SOL    HW229630   6.582   1.027   5.861 -0.6143 -1.6456 -0.1778
 9344SOL     OW29631   3.220   6.105   6.042  0.3651 -0.4200 -0.1310
 9344SOL    HW129632   3.249   6.192   6.080 -0.3596 -0.0638 -0.3663
 9344SOL    HW229633   3.120   6.104   6.036  0.2582 -1.8142  1.2083
 9345SOL     OW29634   0.714   0.544   1.100 -0.6063 -0.0339  0.6798
 9345SOL    HW129635   0.746   0.576   1.011  1.7066  0.7584  1.7285
 9345SOL    HW229636   0.639   0.604   1.132 -0.5980  0.4419 -0.1623
 9346SOL     OW29637   1.456   4.782   4.516 -0.1172 -0.2251  0.2995
 9346SOL    HW129638   1.543   4.756   4.559 -0.1202 -2.5863 -0.9340
 9346SOL    HW229639   1.426   4.708   4.456 -3.0271  0.5127  0.7133
 9347SOL     OW29640   0.832   1.647   4.909 -0.9206  0.1153  0.0484
 9347SOL    HW129641   0.832   1.552   4.876 -2.8804 -0.1191  0.6246
 9347SOL    HW229642   0.812   1.649   5.007  2.3774  0.9768  0.8491
 9348SOL     OW29643   3.439   3.581   6.411 -0.1024  0.1052  0.2198
 9348SOL    HW129644   3.372   3.520   6.370 -0.2845  1.0597 -0.9504
 9348SOL    HW229645   3.444   3.564   6.509 -0.2309 -1.6923 -0.0499
 9349SOL     OW29646   6.479   3.012   6.121  0.1065  0.0643  0.2841
 9349SOL    HW129647   6.473   3.016   6.022  0.6883  0.1096  0.2437
 9349SOL    HW229648   6.390   3.031   6.162 -0.7787 -2.4833 -0.2819
 9350SOL     OW29649   1.446   6.302   3.480  0.2534  0.4864  0.3282
 9350SOL    HW129650   1.460   6.207   3.453 -0.7321  0.2797  0.4946
 9350SOL    HW229651   1.491   6.363   3.414 -0.4081 -0.0625 -0.6553
 9351SOL     OW29652   3.370   6.817   5.730 -0.2771  0.4666 -0.5952
 9351SOL    HW129653   3.442   6.805   5.797  0.5872 -0.3301 -1.6350
 9351SOL    HW229654   3.300   6.879   5.766  1.2649  1.8134  0.1649
 9352SOL     OW29655   1.873   5.189   0.389 -0.1828 -0.8082 -0.3863
 9352SOL    HW129656   1.959   5.168   0.343 -2.1275 -1.8558 -3.9250
 9352SOL    HW229657   1.877   5.156   0.484  3.9109  1.0336  0.2946
 9353SOL     OW29658   2.731   3.576   5.415  0.2842  0.5498  0.4785
 9353SOL    HW129659   2.631   3.575   5.415  0.2628 -1.2098  1.5651
 9353SOL    HW229660   2.763   3.668   5.392 -1.5569  0.9521 -0.6778
 9354SOL     OW29661   6.838   6.455   4.425  0.5211 -0.3061 -0.4783
 9354SOL    HW129662   6.894   6.455   4.342  3.4899  2.1349  1.3017
 9354SOL    HW229663   6.759   6.515   4.413  1.7275  1.2059 -1.1142
 9355SOL     OW29664   6.150   5.167   1.053  0.0107  0.2341 -0.2239
 9355SOL    HW129665   6.117   5.107   1.126  2.6621  0.3873  1.2446
 9355SOL    HW229666   6.214   5.117   0.995 -1.7189  0.2539 -2.2860
 9356SOL     OW29667   1.888   5.920   3.226 -0.3013 -0.6627 -0.4436
 9356SOL    HW129668   1.910   5.897   3.321 -2.1580 -0.8022 -0.0160
 9356SOL    HW229669   1.802   5.970   3.222  0.7931  1.2608 -1.8980
 9357SOL     OW29670   3.539   1.503   1.061  0.1796  0.1877 -0.3194
 9357SOL    HW129671   3.550   1.582   1.000  1.5906 -0.3172 -0.7725
 9357SOL    HW229672   3.489   1.530   1.142 -0.7900  1.1508 -1.2058
 9358SOL     OW29673   4.443   5.727   6.989 -0.2123 -0.6975  0.3194
 9358SOL    HW129674   4.492   5.794   6.934  0.3864 -0.4226  1.1696
 9358SOL    HW229675   4.387   5.774   7.057 -0.4728 -1.0402  0.3435
 9359SOL     OW29676   5.877   3.671   1.344 -0.6732 -0.2556 -0.1457
 9359SOL    HW129677   5.872   3.654   1.245 -3.1341 -0.2895 -0.0766
 9359SOL    HW229678   5.874   3.584   1.393 -1.3184 -0.1738 -0.0278
 9360SOL     OW29679   6.902   5.218   5.588  0.1446 -0.4049 -0.4464
 9360SOL    HW129680   6.817   5.235   5.636  0.6676 -0.4766  0.5370
 9360SOL    HW229681   6.905   5.123   5.558 -1.1725  0.1857 -2.6855
 9361SOL     OW29682   0.452   4.420   1.045 -0.6652  0.3647 -0.0741
 9361SOL    HW129683   0.367   4.463   1.074 -0.5416  0.6741 -0.1693
 9361SOL    HW229684   0.518   4.421   1.120 -0.0153  2.0133 -0.6311
 9362SOL     OW29685   6.584   6.217   4.351  0.0978  0.2672  0.1203
 9362SOL    HW129686   6.662   6.233   4.290  0.7968 -1.9203  0.3654
 9362SOL    HW229687   6.613   6.158   4.427 -2.1499 -1.9205 -0.6150
 9363SOL     OW29688   3.034   6.282   0.621 -0.2357 -0.4620  0.0181
 9363SOL    HW129689   3.081   6.324   0.699 -1.0938 -1.4196  1.0704
 9363SOL    HW229690   3.083   6.305   0.537  1.5687 -0.6177  0.9795
 9364SOL     OW29691   5.517   6.564   5.631  0.0843 -0.4600  0.6556
 9364SOL    HW129692   5.582   6.614   5.689 -0.0923  0.5583  0.0028
 9364SOL    HW229693   5.426   6.602   5.642  0.2914  0.7331 -1.3412
 9365SOL     OW29694   5.430   0.766   5.841 -0.0318 -0.4940  0.2203
 9365SOL    HW129695   5.509   0.821   5.868 -0.6858  0.2088  0.7517
 9365SOL    HW229696   5.460   0.690   5.783  1.5091 -2.3186  3.1790
 9366SOL     OW29697   4.813   4.205   3.451 -0.4441 -0.0818  0.1513
 9366SOL    HW129698   4.845   4.181   3.359  0.2144  1.1795  0.0185
 9366SOL    HW229699   4.891   4.234   3.506  0.0353 -5.2452  2.7293
 9367SOL     OW29700   5.632   2.611   0.433  0.4624 -0.0164 -0.3959
 9367SOL    HW129701   5.540   2.573   0.444  0.8773 -0.9300  0.0273
 9367SOL    HW229702   5.629   2.687   0.369 -0.6850  0.3304  0.0415
 9368SOL     OW29703   0.365   5.799   5.620 -0.0949 -0.0878  0.0838
 9368SOL    HW129704   0.328   5.840   5.537 -2.9466  0.9333  1.7318
 9368SOL    HW229705   0.291   5.770   5.680  1.7705  0.6017  2.9587
 9369SOL     OW29706   6.970   6.956   2.063 -0.2894 -0.3110  0.1305
 9369SOL    HW129707   7.002   6.862   2.056 -0.4561 -0.4755  1.2933
 9369SOL    HW229708   6.968   6.998   1.972 -0.4673 -1.5017 -0.4337
 9370SOL     OW29709   1.654   3.777   3.390 -0.3856 -0.3034 -0.4326
 9370SOL    HW129710   1.728   3.833   3.352  1.4677 -2.6204 -0.4168
 9370SOL    HW229711   1.636   3.806   3.484  2.4789 -1.3849  0.5704
 9371SOL     OW29712   6.240   1.234   3.283  0.1871  0.3271  0.5210
 9371SOL    HW129713   6.178   1.298   3.328 -1.1968  0.5079 -1.5195
 9371SOL    HW229714   6.334   1.254   3.310 -0.5058  0.6706  2.9326
 9372SOL     OW29715   3.734   2.551   2.224 -0.0788  0.5605  0.2930
 9372SOL    HW129716   3.713   2.455   2.240 -2.1074  0.9068 -0.0527
 9372SOL    HW229717   3.782   2.588   2.304 -0.0358 -0.5091  0.7799
 9373SOL     OW29718   2.491   0.849   2.659 -0.0376  0.0693 -0.0327
 9373SOL    HW129719   2.550   0.829   2.737 -1.3797  0.1937  1.0504
 9373SOL    HW229720   2.396   0.832   2.684 -0.4528 -0.3970 -1.8286
 9374SOL     OW29721   0.086   4.742   3.012  0.0582  0.8820  0.2142
 9374SOL    HW129722   0.004   4.777   2.967  0.3626 -0.7249 -1.6962
 9374SOL    HW229723   0.168   4.774   2.963  0.4873  0.6645  0.7737
 9375SOL     OW29724   1.330   3.896   5.552 -0.1279 -0.1882 -0.1610
 9375SOL    HW129725   1.297   3.859   5.465  0.4233  0.7912 -0.8005
 9375SOL    HW229726   1.420   3.939   5.539  1.1173 -2.1061  1.3748
 9376SOL     OW29727   1.616   2.567   4.715 -0.6182 -0.1032  0.0864
 9376SOL    HW129728   1.569   2.581   4.802 -0.9810 -3.3106  0.5362
 9376SOL    HW229729   1.554   2.590   4.640 -0.9945  0.7760  0.6399
 9377SOL     OW29730   3.570   5.313   3.717  0.0505 -0.2082 -0.3225
 9377SOL    HW129731   3.556   5.407   3.689 -0.2463  0.0822  0.7484
 9377SOL    HW229732   3.578   5.309   3.817 -1.0523 -1.4403 -0.2518
 9378SOL     OW29733   0.038   1.075   2.408 -0.6885  0.1857  0.4165
 9378SOL    HW129734   0.130   1.107   2.431 -0.7742  1.1124 -0.4456
 9378SOL    HW229735   0.007   1.009   2.477  0.8284 -0.5630  0.4152
 9379SOL     OW29736   1.388   1.674   1.190  0.2738  0.0484  0.7513
 9379SOL    HW129737   1.449   1.631   1.257  1.7249  1.0412  0.1369
 9379SOL    HW229738   1.372   1.769   1.216 -1.1950 -0.2489  0.9888
 9380SOL     OW29739   5.898   1.589   2.493  0.2310  0.5020 -0.0195
 9380SOL    HW129740   5.803   1.559   2.481 -0.0323  1.2988 -0.0002
 9380SOL    HW229741   5.902   1.655   2.567  1.4367 -2.4436  2.7660
 9381SOL     OW29742   4.457   2.664   1.558 -0.1563 -0.1970 -0.7783
 9381SOL    HW129743   4.452   2.757   1.597  1.0444 -0.4396 -0.0083
 9381SOL    HW229744   4.401   2.660   1.476 -0.9129  0.9814 -0.3550
 9382SOL     OW29745   5.913   1.796   2.683 -0.2829 -0.4191  0.4978
 9382SOL    HW129746   5.933   1.770   2.778  1.3903  0.5249  0.4361
 9382SOL    HW229747   5.987   1.853   2.648 -0.2334 -1.8332 -1.8290
 9383SOL     OW29748   1.422   6.014   6.204  0.1037 -0.2573 -0.0517
 9383SOL    HW129749   1.441   6.094   6.148  3.3155 -0.5138  0.5071
 9383SOL    HW229750   1.328   6.019   6.238 -0.1410  2.7000 -0.8999
 9384SOL     OW29751   1.665   6.811   6.747 -0.6399  0.3004  0.0212
 9384SOL    HW129752   1.673   6.712   6.759  3.5294  0.1302 -2.1479
 9384SOL    HW229753   1.718   6.858   6.818 -1.4965  0.9362  0.2556
 9385SOL     OW29754   5.434   1.925   0.129  0.1933 -0.6779  0.5595
 9385SOL    HW129755   5.342   1.958   0.108  0.2141 -0.7420  0.3615
 9385SOL    HW229756   5.494   2.002   0.150 -0.1761 -0.7022  1.8038
 9386SOL     OW29757   2.776   4.461   2.059 -0.5190  0.3946  0.0355
 9386SOL    HW129758   2.845   4.408   2.009 -1.0081  0.5207 -0.8036
 9386SOL    HW229759   2.798   4.558   2.053 -0.3241  0.3793  0.4747
 9387SOL     OW29760   1.746   5.952   0.652 -0.1564 -0.1505  0.1729
 9387SOL    HW129761   1.745   5.861   0.612  0.3218 -0.5533  1.0485
 9387SOL    HW229762   1.840   5.976   0.677 -0.4037  0.2179  0.7580
 9388SOL     OW29763   0.114   0.694   2.411 -0.1776  0.0093 -0.3396
 9388SOL    HW129764   0.186   0.673   2.478  0.0481 -1.1643 -0.9166
 9388SOL    HW229765   0.099   0.614   2.353 -1.3243  0.5516 -0.8158
 9389SOL     OW29766   2.216   4.605   4.316  0.1160  0.0259 -0.2479
 9389SOL    HW129767   2.220   4.558   4.228 -2.9427 -0.6285 -0.1509
 9389SOL    HW229768   2.203   4.703   4.301  0.9469  0.1071 -0.4874
 9390SOL     OW29769   2.283   0.962   6.817  0.2070 -0.0045 -0.8348
 9390SOL    HW129770   2.187   0.959   6.788 -0.8578 -0.9007  2.4349
 9390SOL    HW229771   2.321   0.870   6.817 -0.0291 -0.1275  1.1056
 9391SOL     OW29772   4.615   4.451   5.198 -0.0709  0.4592 -0.3924
 9391SOL    HW129773   4.579   4.527   5.144  0.4438  0.3378 -0.9257
 9391SOL    HW229774   4.563   4.442   5.283  0.8603  2.4354  0.4558
 9392SOL     OW29775   5.446   0.468   0.188 -0.4025 -0.1580  0.1908
 9392SOL    HW129776   5.465   0.526   0.109  1.3695 -0.4717  0.3449
 9392SOL    HW229777   5.393   0.519   0.255 -0.6976  0.5707 -0.5727
 9393SOL     OW29778   5.859   6.607   0.331 -0.4307 -0.2660 -0.7194
 9393SOL    HW129779   5.888   6.552   0.252  2.0814 -0.5573  0.3033
 9393SOL    HW229780   5.910   6.693   0.332  1.1622 -1.1168  1.5878
 9394SOL     OW29781   4.403   3.259   4.099 -0.0764 -0.5051 -0.4625
 9394SOL    HW129782   4.398   3.162   4.075  0.1010 -0.8565  0.8471
 9394SOL    HW229783   4.312   3.299   4.094 -0.2332 -0.8627 -0.4906
 9395SOL     OW29784   3.706   0.603   4.338 -0.2685  0.7447  1.0572
 9395SOL    HW129785   3.791   0.636   4.297 -1.1818  1.9600  0.0485
 9395SOL    HW229786   3.629   0.628   4.279 -1.2373 -1.4340  1.3081
 9396SOL     OW29787   0.844   1.365   2.878 -0.1830  0.0087 -0.2208
 9396SOL    HW129788   0.926   1.387   2.931 -0.2614 -1.8653  0.7227
 9396SOL    HW229789   0.769   1.423   2.908  0.0671 -0.2374  0.9101
 9397SOL     OW29790   0.211   0.415   4.431 -0.4617  0.0866  0.2014
 9397SOL    HW129791   0.255   0.426   4.342 -1.9533  2.1768 -0.3384
 9397SOL    HW229792   0.251   0.336   4.477  0.9427 -0.5591 -1.9390
 9398SOL     OW29793   2.859   6.616   6.309  0.1020  0.0386  0.1108
 9398SOL    HW129794   2.760   6.627   6.297  0.3545  2.3572 -0.1245
 9398SOL    HW229795   2.875   6.556   6.388 -1.4480 -1.4327 -0.6044
 9399SOL     OW29796   4.444   6.133   6.854  0.2622 -0.5961  0.1065
 9399SOL    HW129797   4.446   6.230   6.830 -0.1243 -1.1837 -2.6620
 9399SOL    HW229798   4.454   6.123   6.953 -1.0101  2.2980  0.6353
 9400SOL     OW29799   3.242   4.412   0.262 -0.2754 -0.3837  0.2427
 9400SOL    HW129800   3.250   4.320   0.303 -2.3820 -0.5687  0.3384
 9400SOL    HW229801   3.252   4.405   0.163  1.5616 -0.3982  0.3946
 9401SOL     OW29802   3.155   6.323   0.375 -0.1863  0.8866 -0.0016
 9401SOL    HW129803   3.153   6.226   0.350  0.8522  0.6427  0.8051
 9401SOL    HW229804   3.196   6.376   0.302  1.4556  0.3782  0.5136
 9402SOL     OW29805   0.991   2.518   0.097  0.1507  0.1561 -0.4528
 9402SOL    HW129806   1.079   2.557   0.069  0.7258 -1.8576 -1.6070
 9402SOL    HW229807   1.002   2.420   0.114 -1.9556 -0.2055 -0.9939
 9403SOL     OW29808   2.633   5.911   5.768  0.1256  0.5442  0.1511
 9403SOL    HW129809   2.588   5.865   5.691 -0.1316 -0.3379  0.8186
 9403SOL    HW229810   2.581   5.993   5.792 -0.6069  0.0428  0.3058
 9404SOL     OW29811   3.171   3.626   4.900 -0.7198 -0.0546  0.2947
 9404SOL    HW129812   3.106   3.554   4.922 -0.8896  0.3287  1.0845
 9404SOL    HW229813   3.122   3.709   4.873 -0.5231 -0.3493 -1.0676
 9405SOL     OW29814   5.407   3.245   0.183 -0.2928  0.4353 -0.2042
 9405SOL    HW129815   5.323   3.293   0.206 -0.1700 -0.3172  2.0189
 9405SOL    HW229816   5.484   3.286   0.234  0.2532 -0.4592 -0.2890
 9406SOL     OW29817   3.656   0.788   6.268 -0.4599 -0.0376 -0.1478
 9406SOL    HW129818   3.728   0.767   6.201  0.0154 -0.0039  0.3428
 9406SOL    HW229819   3.574   0.819   6.220 -0.0507  0.2016 -0.7064
 9407SOL     OW29820   2.517   4.080   3.124 -0.6934 -0.0572  0.0097
 9407SOL    HW129821   2.588   4.125   3.179 -0.1189 -1.8175  0.7962
 9407SOL    HW229822   2.427   4.107   3.157 -0.3820 -1.6447  2.4382
 9408SOL     OW29823   3.974   0.941   6.008 -0.2314 -0.2400  1.3161
 9408SOL    HW129824   4.004   1.034   6.031 -0.8832  0.4187 -0.3126
 9408SOL    HW229825   3.938   0.940   5.915 -0.7979 -2.0186  1.5160
 9409SOL     OW29826   4.389   2.911   6.362 -0.1525  0.3252  0.3911
 9409SOL    HW129827   4.425   3.004   6.365 -0.3951  0.4031  0.9564
 9409SOL    HW229828   4.445   2.851   6.419 -1.4325  0.6382  2.0450
 9410SOL     OW29829   5.110   2.854   2.324  0.0691 -0.2170  0.5379
 9410SOL    HW129830   5.100   2.945   2.364 -0.6516  0.4555 -1.0926
 9410SOL    HW229831   5.128   2.788   2.397 -0.3811  1.0616  1.8702
 9411SOL     OW29832   0.902   2.473   2.142 -0.2980 -0.1436  0.2236
 9411SOL    HW129833   0.926   2.508   2.051  0.6489 -0.5921  0.2965
 9411SOL    HW229834   0.853   2.386   2.132 -0.1047 -0.2436  0.1461
 9412SOL     OW29835   5.181   6.296   3.187 -0.7028 -0.0329  0.4014
 9412SOL    HW129836   5.128   6.378   3.209 -1.6037 -0.5434  0.1763
 9412SOL    HW229837   5.277   6.311   3.212 -1.1150  0.5556  1.7189
 9413SOL     OW29838   6.332   4.498   6.942  0.4062 -0.1244 -0.1698
 9413SOL    HW129839   6.410   4.502   6.878 -0.7152 -0.5359 -1.6151
 9413SOL    HW229840   6.270   4.426   6.914 -0.3495 -0.0238  1.1736
 9414SOL     OW29841   2.859   4.008   0.155  0.7763 -0.2193  0.3291
 9414SOL    HW129842   2.914   4.085   0.123  0.0445  0.0552 -0.3006
 9414SOL    HW229843   2.781   3.995   0.094 -0.2222 -0.1838  1.5324
 9415SOL     OW29844   0.551   2.986   4.206 -0.5825  0.8484  0.5565
 9415SOL    HW129845   0.474   2.988   4.142  0.3845  0.2085 -0.6698
 9415SOL    HW229846   0.613   2.912   4.182  0.7756  1.7568  1.0916
 9416SOL     OW29847   3.950   1.647   6.727  0.3447  0.2020 -0.4236
 9416SOL    HW129848   3.872   1.706   6.749  0.2467 -0.2421  0.4583
 9416SOL    HW229849   4.026   1.703   6.693  0.5359  0.9478  1.1335
 9417SOL     OW29850   2.241   2.647   1.824 -0.2851 -0.2766  0.1152
 9417SOL    HW129851   2.160   2.602   1.862 -0.6605  1.1239  1.0670
 9417SOL    HW229852   2.218   2.688   1.735 -0.2168 -1.0829 -0.2794
 9418SOL     OW29853   0.830   4.870   4.409 -0.7287 -0.1887  0.2174
 9418SOL    HW129854   0.773   4.790   4.393  0.8231 -1.6490  1.6713
 9418SOL    HW229855   0.919   4.842   4.445 -0.0165  2.1812  0.5019
 9419SOL     OW29856   5.815   1.907   2.304 -0.1010 -0.2924 -0.1760
 9419SOL    HW129857   5.821   1.973   2.379 -0.0162  0.3222 -0.7153
 9419SOL    HW229858   5.907   1.888   2.270 -0.0714 -1.1338  0.3523
 9420SOL     OW29859   1.710   4.642   2.007  0.3149 -0.1292  0.3177
 9420SOL    HW129860   1.668   4.703   2.073 -0.0072 -0.5955  0.5493
 9420SOL    HW229861   1.736   4.694   1.925 -1.0213  0.1045  0.0266
 9421SOL     OW29862   5.657   4.366   5.262 -0.4282  0.0765  0.2641
 9421SOL    HW129863   5.568   4.322   5.252 -0.8333  0.9605 -0.1563
 9421SOL    HW229864   5.690   4.395   5.171  0.6504 -0.9319  0.3142
 9422SOL     OW29865   0.464   1.800   0.386 -0.1848  0.8228 -0.1573
 9422SOL    HW129866   0.546   1.779   0.333 -1.0798  2.7079 -2.4870
 9422SOL    HW229867   0.449   1.899   0.387 -1.2376  0.7192  2.1818
 9423SOL     OW29868   6.381   3.190   0.372 -0.3137 -0.3101  0.1457
 9423SOL    HW129869   6.431   3.277   0.367 -0.0747 -0.3050  1.8487
 9423SOL    HW229870   6.331   3.186   0.459 -1.0127 -1.5332 -0.2833
 9424SOL     OW29871   2.061   4.408   5.511  0.0099 -0.4720  0.2508
 9424SOL    HW129872   2.076   4.490   5.567  0.2021  0.8346 -1.5925
 9424SOL    HW229873   2.093   4.328   5.560  1.1218  0.7290  1.5856
 9425SOL     OW29874   5.674   1.780   6.725  0.3646  0.4126  0.4151
 9425SOL    HW129875   5.702   1.709   6.789  1.0808 -0.0121 -0.3517
 9425SOL    HW229876   5.731   1.775   6.643 -0.0696  1.3987  0.0408
 9426SOL     OW29877   0.712   4.582   2.350  0.5903 -0.3981 -0.5431
 9426SOL    HW129878   0.641   4.558   2.417  0.0952  1.5167 -0.3273
 9426SOL    HW229879   0.708   4.518   2.273 -0.9098 -0.7508 -0.2061
 9427SOL     OW29880   5.162   0.097   3.981  0.0281 -0.4227 -0.3055
 9427SOL    HW129881   5.175   0.169   4.050 -0.2833  0.7657 -1.4416
 9427SOL    HW229882   5.081   0.118   3.926 -0.3042 -1.8783 -0.3999
 9428SOL     OW29883   1.891   4.040   1.058  0.7367  0.0669  0.5337
 9428SOL    HW129884   1.955   3.972   1.022  1.4479  0.3475  1.2288
 9428SOL    HW229885   1.810   4.044   1.000  1.0684 -0.7551 -0.0011
 9429SOL     OW29886   3.859   3.421   3.047  0.1247 -0.4016  0.4082
 9429SOL    HW129887   3.817   3.331   3.042 -2.5661  0.8137 -2.9360
 9429SOL    HW229888   3.791   3.491   3.022  2.8825  2.2883 -0.2044
 9430SOL     OW29889   1.143   0.193   6.365 -0.3175 -0.1170  0.1121
 9430SOL    HW129890   1.218   0.135   6.396  0.8664 -0.2653 -2.7402
 9430SOL    HW229891   1.168   0.289   6.376 -0.0742 -0.1683  0.0088
 9431SOL     OW29892   3.265   3.849   0.566 -0.0554 -0.5956 -0.1555
 9431SOL    HW129893   3.310   3.899   0.492 -0.7344  0.8815  0.3875
 9431SOL    HW229894   3.265   3.905   0.649  0.5948 -2.1695  0.9693
 9432SOL     OW29895   1.111   1.252   4.210 -0.8878 -0.0028 -0.1959
 9432SOL    HW129896   1.198   1.280   4.251 -0.7833 -1.2010  0.4254
 9432SOL    HW229897   1.100   1.153   4.218 -0.7543 -0.3612 -3.3071
 9433SOL     OW29898   5.765   2.985   6.949 -0.7536  0.0223 -0.0917
 9433SOL    HW129899   5.714   2.993   6.863 -2.4655 -2.1782  0.6159
 9433SOL    HW229900   5.797   2.891   6.959  3.0593  1.1491 -0.1786
 9434SOL     OW29901   3.044   6.461   3.810  0.1737 -0.5151  0.4444
 9434SOL    HW129902   2.959   6.446   3.860 -0.0386  0.7185  0.4711
 9434SOL    HW229903   3.038   6.545   3.757  1.4863 -0.2412  0.6860
 9435SOL     OW29904   6.450   1.393   0.682  0.0401  0.0433 -0.1119
 9435SOL    HW129905   6.457   1.310   0.738 -0.5993 -0.5314 -0.8780
 9435SOL    HW229906   6.445   1.472   0.742 -1.1155 -0.5970  0.6712
 9436SOL     OW29907   3.042   4.992   4.946 -0.4221 -0.5116  0.1819
 9436SOL    HW129908   2.964   4.951   4.992 -1.5796  0.7033 -0.6234
 9436SOL    HW229909   3.063   4.941   4.863  1.7604 -2.7952  1.9733
 9437SOL     OW29910   1.362   3.269   3.802 -0.1054 -0.4274 -0.0176
 9437SOL    HW129911   1.321   3.205   3.738 -2.2108  1.2801 -0.4716
 9437SOL    HW229912   1.300   3.284   3.879 -0.0869  1.7195 -0.3696
 9438SOL     OW29913   1.909   1.132   2.811  0.7458  0.1843  0.2546
 9438SOL    HW129914   1.901   1.108   2.715  0.7834 -0.2918  0.3677
 9438SOL    HW229915   1.882   1.054   2.867  1.0743  0.3375  0.6318
 9439SOL     OW29916   0.283   6.240   2.434  0.3172  0.7951  0.0710
 9439SOL    HW129917   0.354   6.296   2.391  1.3486  0.3497  1.1261
 9439SOL    HW229918   0.326   6.170   2.492 -0.8990 -1.3477 -1.4727
 9440SOL     OW29919   5.762   3.192   4.514 -0.0888  0.9234  0.2113
 9440SOL    HW129920   5.828   3.161   4.583  1.0940  1.0362 -0.8238
 9440SOL    HW229921   5.747   3.290   4.524 -1.5139  0.6153  1.5726
 9441SOL     OW29922   2.910   0.518   2.189  0.4097 -0.2932 -0.2325
 9441SOL    HW129923   2.821   0.499   2.231  1.3599 -2.5671  0.9302
 9441SOL    HW229924   2.929   0.448   2.120  0.8436  0.8290 -1.2853
 9442SOL     OW29925   0.878   1.352   4.919 -0.1629  0.4729 -0.7905
 9442SOL    HW129926   0.976   1.336   4.909  0.0588  1.5478 -0.4629
 9442SOL    HW229927   0.856   1.371   5.014 -0.8485 -0.6308 -0.7005
 9443SOL     OW29928   6.883   2.454   3.404  0.0155 -0.4570 -0.1102
 9443SOL    HW129929   6.975   2.494   3.403 -0.9748  2.0395  0.8390
 9443SOL    HW229930   6.832   2.491   3.481 -1.7974 -1.8538 -0.5860
 9444SOL     OW29931   2.359   2.488   6.689  0.1390  0.0420 -0.5284
 9444SOL    HW129932   2.372   2.580   6.651  0.8956  0.1974  0.0794
 9444SOL    HW229933   2.427   2.426   6.650  2.4681  0.6848  2.0860
 9445SOL     OW29934   2.585   3.247   0.282 -0.3138 -0.3442  0.0061
 9445SOL    HW129935   2.509   3.188   0.308  0.1362 -0.4959  1.0244
 9445SOL    HW229936   2.616   3.300   0.362  0.3330  0.0741 -0.5042
 9446SOL     OW29937   6.020   5.163   3.036 -0.2944  0.7919  0.0278
 9446SOL    HW129938   5.927   5.200   3.031 -1.1082 -0.7948  1.9337
 9446SOL    HW229939   6.078   5.227   3.086 -0.2708  1.9071 -1.3837
 9447SOL     OW29940   6.391   2.698   6.144 -0.3194  0.3938 -0.4320
 9447SOL    HW129941   6.423   2.791   6.125  0.5244  0.0114 -0.9357
 9447SOL    HW229942   6.353   2.659   6.060 -0.7371  0.3131 -0.2030
 9448SOL     OW29943   4.257   3.481   3.158 -0.1535 -0.0768  0.7271
 9448SOL    HW129944   4.214   3.398   3.193  0.7946 -0.9481 -0.1249
 9448SOL    HW229945   4.189   3.536   3.109 -1.0660  0.2761  2.3078
 9449SOL     OW29946   2.964   0.577   3.831 -0.2857  0.2844 -0.1975
 9449SOL    HW129947   3.020   0.614   3.757 -0.2054 -0.2836 -0.4230
 9449SOL    HW229948   3.022   0.528   3.896 -0.5849 -0.9361 -0.8132
 9450SOL     OW29949   3.072   5.989   4.118  0.4140  0.4352  0.0805
 9450SOL    HW129950   3.095   5.896   4.146  1.5055  0.1134 -1.6895
 9450SOL    HW229951   3.012   6.031   4.186  0.2911 -1.3776  1.1539
 9451SOL     OW29952   0.676   2.131   4.805 -0.5807  0.1692  0.1993
 9451SOL    HW129953   0.747   2.061   4.814  0.9828  1.6582  0.0359
 9451SOL    HW229954   0.660   2.174   4.894 -0.3831  0.6714 -0.0063
 9452SOL     OW29955   0.614   5.413   5.442  0.2137  0.4464  0.4554
 9452SOL    HW129956   0.659   5.490   5.396 -1.1055  1.0291  0.0840
 9452SOL    HW229957   0.526   5.442   5.477 -1.2841 -1.3627 -1.5019
 9453SOL     OW29958   2.151   3.034   3.873  0.1470 -0.2378 -0.1323
 9453SOL    HW129959   2.061   3.000   3.900 -0.0121 -0.3335 -0.7624
 9453SOL    HW229960   2.141   3.111   3.810  0.5121  0.3812  0.5534
 9454SOL     OW29961   0.736   2.805   4.343 -0.1161  0.6954  0.0415
 9454SOL    HW129962   0.816   2.783   4.289 -0.2886 -1.4874  0.5749
 9454SOL    HW229963   0.764   2.831   4.436  0.0167  1.2526 -0.1499
 9455SOL     OW29964   2.974   3.980   5.489  0.6106 -0.0043 -0.4659
 9455SOL    HW129965   2.999   4.067   5.446  0.9583  0.6549  0.9944
 9455SOL    HW229966   3.024   3.905   5.445  0.0648  0.4788 -1.9529
 9456SOL     OW29967   2.198   4.445   6.587  0.2962  0.3545 -0.5565
 9456SOL    HW129968   2.275   4.479   6.641  0.7078 -2.7762  1.0427
 9456SOL    HW229969   2.226   4.431   6.492  1.6639 -0.4630 -0.0608
 9457SOL     OW29970   2.749   5.053   1.915 -0.1261 -0.5871  0.1146
 9457SOL    HW129971   2.738   5.148   1.945 -1.9010 -0.3937 -0.9864
 9457SOL    HW229972   2.691   5.037   1.835  1.9569 -1.9502 -1.2189
 9458SOL     OW29973   1.832   6.871   4.508 -0.0819 -0.1283 -0.4359
 9458SOL    HW129974   1.918   6.829   4.479 -0.7647 -2.3560  0.5191
 9458SOL    HW229975   1.757   6.809   4.487 -1.4255  1.4994 -0.6658
 9459SOL     OW29976   0.444   5.184   2.727  0.3528  0.2590  0.4487
 9459SOL    HW129977   0.370   5.190   2.659 -1.3449 -0.2274  2.1640
 9459SOL    HW229978   0.495   5.270   2.727 -1.0484  1.1312  0.0997
 9460SOL     OW29979   3.105   0.435   6.832 -0.2544  0.0110 -0.2765
 9460SOL    HW129980   3.197   0.461   6.859 -0.5478  0.9424 -0.1401
 9460SOL    HW229981   3.091   0.456   6.735  0.1598 -1.5461 -0.7123
 9461SOL     OW29982   5.256   6.795   4.576  1.0373  0.1013 -0.5268
 9461SOL    HW129983   5.334   6.800   4.638  1.7680  1.2071 -1.4678
 9461SOL    HW229984   5.193   6.723   4.605  1.2020  0.7731  1.6258
 9462SOL     OW29985   5.898   2.049   5.673 -0.4678  0.4479  0.5163
 9462SOL    HW129986   5.950   2.131   5.694 -1.0977  0.7382  0.9794
 9462SOL    HW229987   5.837   2.067   5.596 -0.0995  0.1970  0.1620
 9463SOL     OW29988   1.893   1.958   0.347  0.0614 -0.4460  0.1978
 9463SOL    HW129989   1.844   1.872   0.328  0.4231 -0.2227 -2.0116
 9463SOL    HW229990   1.885   1.980   0.444 -0.9111 -2.4377  0.6208
 9464SOL     OW29991   6.664   4.809   4.288  0.1093 -0.1481  0.6584
 9464SOL    HW129992   6.759   4.790   4.265 -0.3187 -0.8109 -0.7063
 9464SOL    HW229993   6.656   4.901   4.325  1.4387 -0.5152  1.9566
 9465SOL     OW29994   2.303   4.835   6.469 -0.0537 -0.3667  0.5588
 9465SOL    HW129995   2.317   4.890   6.550  0.3131  2.7646 -1.4592
 9465SOL    HW229996   2.381   4.774   6.455  0.6640  0.2878  1.6378
 9466SOL     OW29997   1.204   6.819   6.985  0.1303 -1.2132 -0.3236
 9466SOL    HW129998   1.123   6.875   6.999  0.8084 -0.0153 -1.0255
 9466SOL    HW229999   1.177   6.723   6.973 -1.1441 -0.8774 -0.2348
 9467SOL     OW30000   0.419   1.056   4.187  0.1662 -0.0192 -0.1431
 9467SOL    HW130001   0.462   1.091   4.103  1.9125  0.8963  1.0676
 9467SOL    HW230002   0.344   1.117   4.214 -0.1163 -0.0751 -0.7884
 9468SOL     OW30003   3.452   4.424   5.865  0.1703 -0.2187  0.2965
 9468SOL    HW130004   3.487   4.461   5.779 -1.6324  0.3470 -0.2402
 9468SOL    HW230005   3.398   4.342   5.846 -2.6801  1.4835  0.4251
 9469SOL     OW30006   2.434   0.254   4.826  0.4051  0.1798 -0.1600
 9469SOL    HW130007   2.493   0.201   4.765  0.6802 -1.6407  1.5985
 9469SOL    HW230008   2.482   0.338   4.853  1.9995 -0.9740  0.7632
 9470SOL     OW30009   0.615   6.172   6.160 -0.2761  0.1772 -0.2153
 9470SOL    HW130010   0.594   6.269   6.152  1.4137  0.6152  0.1654
 9470SOL    HW230011   0.566   6.121   6.089  0.2642  1.5442 -1.6281
 9471SOL     OW30012   5.463   1.789   3.973  0.5838 -0.4588 -0.3059
 9471SOL    HW130013   5.481   1.848   4.052 -0.2934 -0.8075  0.1738
 9471SOL    HW230014   5.487   1.695   3.996 -0.1459 -0.6426 -0.2617
 9472SOL     OW30015   2.427   1.746   0.317 -0.5173  0.1144  0.8737
 9472SOL    HW130016   2.462   1.708   0.232 -1.7335  1.2274 -0.1693
 9472SOL    HW230017   2.503   1.781   0.372  0.1110  3.1630 -1.6459
 9473SOL     OW30018   2.000   5.320   4.518 -0.2854 -0.2659  0.2187
 9473SOL    HW130019   1.923   5.284   4.466 -0.6297 -0.0600  0.5871
 9473SOL    HW230020   1.972   5.402   4.568 -1.5566 -3.1325  4.8857
 9474SOL     OW30021   5.439   6.062   4.856 -0.3679 -0.5835 -0.0652
 9474SOL    HW130022   5.352   6.088   4.814 -0.6190 -2.3381 -0.6963
 9474SOL    HW230023   5.468   6.134   4.920 -2.6169 -0.2563  0.6692
 9475SOL     OW30024   1.348   3.788   3.543  0.5397 -0.3636  0.0323
 9475SOL    HW130025   1.375   3.705   3.593  2.4559  0.6304  0.7465
 9475SOL    HW230026   1.333   3.766   3.447  3.2431 -1.2153 -0.2788
 9476SOL     OW30027   4.788   4.754   0.925  0.2584  0.0429  0.4641
 9476SOL    HW130028   4.776   4.662   0.962  0.4254 -0.4574 -0.6886
 9476SOL    HW230029   4.829   4.749   0.834 -0.9133  1.1842 -0.1747
 9477SOL     OW30030   4.332   2.490   2.109 -0.6815 -0.4337  0.3181
 9477SOL    HW130031   4.247   2.483   2.057 -0.2715  1.4806 -0.7434
 9477SOL    HW230032   4.404   2.529   2.050  0.7557 -1.3825  1.3686
 9478SOL     OW30033   2.565   6.242   3.127  0.4110  0.5195  0.4965
 9478SOL    HW130034   2.469   6.269   3.129 -0.0801 -1.1743  1.7916
 9478SOL    HW230035   2.593   6.228   3.031  0.4648  4.4301 -0.1964
 9479SOL     OW30036   1.644   1.072   6.104 -0.3698 -0.3667  0.0036
 9479SOL    HW130037   1.692   1.093   6.019  0.7747 -2.0233  0.1955
 9479SOL    HW230038   1.653   0.975   6.124  0.3055  0.1587  2.5648
 9480SOL     OW30039   4.259   5.016   4.336  0.2431 -0.0528  0.5567
 9480SOL    HW130040   4.161   5.005   4.351  0.3811 -1.7683  0.4297
 9480SOL    HW230041   4.283   4.982   4.245  1.0751 -0.4439  0.9159
 9481SOL     OW30042   0.852   0.716   6.871 -0.1587  0.3257  0.5268
 9481SOL    HW130043   0.759   0.729   6.905 -0.3125  1.3325 -0.2280
 9481SOL    HW230044   0.850   0.706   6.771  0.6240  1.3851  0.3909
 9482SOL     OW30045   1.731   0.487   3.289  0.1618  0.2602  0.4756
 9482SOL    HW130046   1.728   0.521   3.195 -0.0590 -1.7291 -0.2954
 9482SOL    HW230047   1.645   0.441   3.311 -0.2324  1.6757  2.0830
 9483SOL     OW30048   2.456   6.107   5.875  0.0270  0.7706  0.3958
 9483SOL    HW130049   2.471   6.195   5.920 -0.2376  0.1869  1.6865
 9483SOL    HW230050   2.358   6.088   5.871  0.0969  0.3848  0.4494
 9484SOL     OW30051   6.768   1.427   3.904  0.6968  0.0302 -0.2485
 9484SOL    HW130052   6.686   1.370   3.891  0.6072  0.2382 -0.6019
 9484SOL    HW230053   6.745   1.523   3.887  0.5872  0.3225  1.4054
 9485SOL     OW30054   0.797   1.315   3.634  0.2127 -0.3605  0.3186
 9485SOL    HW130055   0.778   1.339   3.730  0.2550 -0.6795  0.4070
 9485SOL    HW230056   0.711   1.299   3.586  0.0412  1.9524 -0.2760
 9486SOL     OW30057   3.016   1.000   4.591  0.8622  0.2801  0.3369
 9486SOL    HW130058   2.922   1.029   4.608  0.8675 -0.2709  1.3630
 9486SOL    HW230059   3.072   1.021   4.671  1.5298  0.2074 -0.0993
 9487SOL     OW30060   1.820   0.818   1.883  0.0433 -0.3335 -0.5336
 9487SOL    HW130061   1.882   0.850   1.812  1.8476  0.9164  1.4514
 9487SOL    HW230062   1.830   0.876   1.964 -2.7331 -0.9904  0.3853
 9488SOL     OW30063   0.667   4.949   1.780 -0.1164  0.0718 -0.1153
 9488SOL    HW130064   0.764   4.972   1.771 -0.7314  2.0816 -2.7098
 9488SOL    HW230065   0.611   5.031   1.765 -2.2703 -0.7933  2.3468
 9489SOL     OW30066   4.346   3.876   6.168  0.5091 -0.3731 -0.1767
 9489SOL    HW130067   4.275   3.907   6.105  0.8685  0.8644 -0.0036
 9489SOL    HW230068   4.434   3.877   6.122  0.6627 -0.2103  0.1183
 9490SOL     OW30069   3.544   1.261   2.014  0.5172 -0.1435 -0.5249
 9490SOL    HW130070   3.554   1.165   1.989 -0.1800 -0.2338 -0.4562
 9490SOL    HW230071   3.451   1.291   1.997  0.8622  0.6726 -1.0348
 9491SOL     OW30072   4.164   0.975   1.669  0.4850  0.0194 -0.4242
 9491SOL    HW130073   4.189   1.057   1.721  0.2313  0.0770 -0.3955
 9491SOL    HW230074   4.081   0.993   1.616  0.5525 -0.1487 -0.5876
 9492SOL     OW30075   2.407   5.621   1.112 -0.6192 -0.3243  0.0396
 9492SOL    HW130076   2.342   5.571   1.055  0.7429 -0.7835 -1.1722
 9492SOL    HW230077   2.382   5.610   1.208 -1.7450 -1.3090 -0.3346
 9493SOL     OW30078   0.986   6.939   2.361  0.1182 -0.4074  0.3369
 9493SOL    HW130079   1.007   6.984   2.275  0.7807 -1.7069 -0.2043
 9493SOL    HW230080   0.935   7.002   2.420  0.1783  0.6977 -0.7549
 9494SOL     OW30081   0.710   3.995   0.211 -0.5041  0.4636  0.4577
 9494SOL    HW130082   0.675   4.038   0.294  0.0970 -2.5117  2.4550
 9494SOL    HW230083   0.801   4.031   0.191 -0.2522  0.5771  1.7047
 9495SOL     OW30084   5.805   6.111   6.921  0.4382 -0.3592  0.5898
 9495SOL    HW130085   5.722   6.140   6.968  0.7234  0.2618  0.7224
 9495SOL    HW230086   5.875   6.182   6.930  0.3834 -0.0545 -1.0571
 9496SOL     OW30087   5.323   4.147   0.762 -0.0740 -0.0887 -0.2740
 9496SOL    HW130088   5.412   4.138   0.718 -1.1908  0.7126 -2.9304
 9496SOL    HW230089   5.269   4.065   0.746 -0.0981 -0.2773  0.6983
 9497SOL     OW30090   0.180   0.104   2.732  0.4258  0.0712 -0.2394
 9497SOL    HW130091   0.120   0.078   2.807  0.2854 -1.1038 -0.7477
 9497SOL    HW230092   0.140   0.182   2.684 -1.9522 -2.0884 -2.0088
 9498SOL     OW30093   5.206   4.419   5.768 -0.4252  0.3383  0.2153
 9498SOL    HW130094   5.297   4.399   5.731 -0.0880 -0.6744  1.5367
 9498SOL    HW230095   5.142   4.433   5.692  0.1755 -1.9656 -0.8142
 9499SOL     OW30096   4.646   0.959   6.202 -0.3372 -0.7508  0.1328
 9499SOL    HW130097   4.614   1.043   6.159  0.6193 -0.6421 -0.3844
 9499SOL    HW230098   4.727   0.925   6.155  0.2918 -1.0438  1.3742
 9500SOL     OW30099   5.173   5.901   3.360  0.6699  0.3395 -0.1431
 9500SOL    HW130100   5.267   5.899   3.327  0.0574 -1.9779 -1.9380
 9500SOL    HW230101   5.110   5.886   3.284 -1.3869  4.1126  0.5629
 9501SOL     OW30102   5.996   0.896   3.754 -0.2062  0.4122  0.4348
 9501SOL    HW130103   6.042   0.857   3.674  1.4455 -1.3499  2.1562
 9501SOL    HW230104   5.914   0.841   3.775  0.1162  0.0355  0.7291
 9502SOL     OW30105   6.845   3.184   4.138  0.3709 -0.1385 -0.1209
 9502SOL    HW130106   6.794   3.270   4.135  0.7173  0.0754  0.0702
 9502SOL    HW230107   6.933   3.195   4.092  0.0038 -0.6778 -0.9781
 9503SOL     OW30108   2.566   2.981   3.915  0.2192  0.2354 -0.1627
 9503SOL    HW130109   2.648   2.937   3.881  1.5306  2.9959 -0.8420
 9503SOL    HW230110   2.485   2.940   3.872  1.4035 -0.7384 -1.5451
 9504SOL     OW30111   0.913   4.721   6.778 -0.9283  0.3470 -0.1204
 9504SOL    HW130112   0.896   4.744   6.683  1.7774 -0.1079 -0.7975
 9504SOL    HW230113   0.983   4.782   6.816 -1.6108  0.2166  1.4540
 9505SOL     OW30114   5.556   1.804   3.531 -0.0610  0.9884 -0.5446
 9505SOL    HW130115   5.549   1.730   3.463 -1.1105  0.2311  0.3429
 9505SOL    HW230116   5.495   1.783   3.608 -2.3060  3.9753 -1.3454
 9506SOL     OW30117   3.485   3.871   0.879 -0.4609 -0.1424  0.0555
 9506SOL    HW130118   3.395   3.831   0.860  0.0052 -1.5588  0.6985
 9506SOL    HW230119   3.546   3.855   0.801 -0.8033  1.0140 -0.4745
 9507SOL     OW30120   5.501   2.476   0.718  0.7278 -0.8628  0.1162
 9507SOL    HW130121   5.475   2.467   0.621 -0.4532  1.1114  0.2107
 9507SOL    HW230122   5.434   2.429   0.775 -0.6520  1.0093  0.1320
 9508SOL     OW30123   0.020   2.718   5.292  0.1643  0.2122  0.1975
 9508SOL    HW130124   0.048   2.631   5.331  0.3373  0.3382  0.3580
 9508SOL    HW230125   0.084   2.746   5.221  0.6829  0.6926  0.8374
 9509SOL     OW30126   1.194   3.863   6.762 -0.0567  0.2930  0.5146
 9509SOL    HW130127   1.231   3.851   6.854 -0.7175  1.4510  0.9448
 9509SOL    HW230128   1.107   3.913   6.767 -0.6451 -0.5623 -0.6495
 9510SOL     OW30129   2.383   4.969   6.703  0.1368 -0.1288 -0.1635
 9510SOL    HW130130   2.438   5.052   6.693 -1.3185  0.9739  0.6987
 9510SOL    HW230131   2.393   4.933   6.796 -0.3518 -0.1073 -0.1012
 9511SOL     OW30132   5.663   0.334   1.860  0.3947 -0.0434 -0.3266
 9511SOL    HW130133   5.693   0.361   1.769  0.7663  1.3708  0.1825
 9511SOL    HW230134   5.565   0.351   1.870  0.2983 -0.4752 -0.5632
 9512SOL     OW30135   4.392   6.903   3.795  0.2155 -0.1165  0.3169
 9512SOL    HW130136   4.375   6.903   3.696  0.8347 -0.4507  0.2062
 9512SOL    HW230137   4.485   6.935   3.813 -0.3133  1.2282  0.8830
 9513SOL     OW30138   3.998   0.674   3.448 -0.2081 -0.1324 -0.2315
 9513SOL    HW130139   4.045   0.710   3.529 -1.7068 -1.1968  1.1566
 9513SOL    HW230140   3.999   0.744   3.376 -0.2830  1.4770  1.2749
 9514SOL     OW30141   3.566   3.155   6.971  0.1673  0.1703 -0.4098
 9514SOL    HW130142   3.476   3.128   7.005  0.3144  0.4676  0.2322
 9514SOL    HW230143   3.595   3.240   7.015  0.1639  0.8286 -1.6485
 9515SOL     OW30144   3.137   1.705   5.194 -0.0111 -0.4473 -0.1308
 9515SOL    HW130145   3.144   1.779   5.261 -0.0078  0.0247 -0.6424
 9515SOL    HW230146   3.097   1.625   5.237 -0.7518  0.1023  0.2369
 9516SOL     OW30147   1.665   1.210   4.163  0.2428 -0.4096  0.4790
 9516SOL    HW130148   1.712   1.293   4.190 -1.4592  0.4319  1.0088
 9516SOL    HW230149   1.722   1.131   4.185  1.3386  0.5466  1.1797
 9517SOL     OW30150   3.462   2.535   5.961 -0.0283  0.5426  0.7269
 9517SOL    HW130151   3.530   2.491   6.020  0.0349  0.4800  0.6078
 9517SOL    HW230152   3.469   2.635   5.971  0.6338  0.5624  0.1011
 9518SOL     OW30153   0.491   2.276   5.724 -0.4483  0.2883 -0.0816
 9518SOL    HW130154   0.561   2.342   5.699  0.5143 -0.2659  1.0291
 9518SOL    HW230155   0.429   2.317   5.792  0.0334  0.1247  0.4642
 9519SOL     OW30156   3.379   3.579   5.165 -0.0546 -0.4585 -0.4317
 9519SOL    HW130157   3.282   3.571   5.184 -0.5895  3.4663 -0.7288
 9519SOL    HW230158   3.392   3.611   5.071  1.3600  1.0004  0.2062
 9520SOL     OW30159   1.669   4.991   5.992 -0.8526  0.2424  0.3006
 9520SOL    HW130160   1.595   5.020   6.052  0.1528  2.2476  0.6801
 9520SOL    HW230161   1.700   5.069   5.937  1.2430 -0.3844  0.4791
 9521SOL     OW30162   0.709   3.501   3.665 -0.5372 -0.0153 -0.4113
 9521SOL    HW130163   0.656   3.510   3.581 -0.2907 -0.2273 -0.5915
 9521SOL    HW230164   0.796   3.457   3.645 -0.9666 -1.1589  0.1469
 9522SOL     OW30165   6.707   5.588   6.796  0.1200  0.2929 -0.2613
 9522SOL    HW130166   6.743   5.563   6.706 -1.1419  0.7828 -0.9291
 9522SOL    HW230167   6.620   5.635   6.785 -0.7585 -0.8946  1.3049
 9523SOL     OW30168   2.794   5.391   1.070  0.0887 -0.4080  0.0604
 9523SOL    HW130169   2.888   5.404   1.040  0.3707 -0.3827  0.9291
 9523SOL    HW230170   2.739   5.356   0.994  0.4839  0.8646 -0.8528
 9524SOL     OW30171   3.696   2.168   4.093  0.3975 -0.2962 -0.4318
 9524SOL    HW130172   3.607   2.193   4.131  0.4197  0.2992 -0.7549
 9524SOL    HW230173   3.768   2.216   4.144  0.5467 -0.8595 -0.1017
 9525SOL     OW30174   6.778   6.094   6.414  0.2964  0.8107 -0.3856
 9525SOL    HW130175   6.753   6.164   6.480 -0.0933 -1.6782  2.3123
 9525SOL    HW230176   6.868   6.057   6.437  0.7919  0.8167 -2.1554
 9526SOL     OW30177   3.654   1.242   3.731 -0.0472 -0.0988  0.2170
 9526SOL    HW130178   3.618   1.219   3.822  0.7795  0.5745  0.7263
 9526SOL    HW230179   3.578   1.263   3.669 -0.5280  2.1288  1.4822
 9527SOL     OW30180   5.086   1.547   2.443 -0.6504  0.3437  0.5286
 9527SOL    HW130181   5.133   1.466   2.479  0.2659 -0.1558 -1.5805
 9527SOL    HW230182   5.055   1.528   2.350 -0.3476  2.4314 -0.0476
 9528SOL     OW30183   0.177   4.934   4.316 -0.2223 -0.2582 -0.2720
 9528SOL    HW130184   0.215   5.006   4.374  0.6238 -0.3832 -0.6517
 9528SOL    HW230185   0.239   4.917   4.240 -0.7628 -0.8970 -0.5771
 9529SOL     OW30186   0.649   0.990   3.704 -0.0448  0.2324  0.0978
 9529SOL    HW130187   0.577   1.059   3.695 -0.9203 -0.6551  0.1891
 9529SOL    HW230188   0.636   0.918   3.635 -0.0500 -0.6278  0.9755
 9530SOL     OW30189   2.089   2.041   6.920  0.5797  0.4873  0.3018
 9530SOL    HW130190   2.053   1.971   6.858 -1.2600  0.7876  0.9714
 9530SOL    HW230191   2.163   2.001   6.975 -0.0074 -0.7581  0.2292
 9531SOL     OW30192   3.681   5.667   5.359 -0.7365 -0.0240 -0.0660
 9531SOL    HW130193   3.586   5.656   5.388 -0.9040 -0.1857 -0.6631
 9531SOL    HW230194   3.698   5.762   5.335 -0.4352  0.2343  1.0943
 9532SOL     OW30195   5.883   1.733   1.527 -0.5625  0.0849  0.6061
 9532SOL    HW130196   5.932   1.736   1.614 -0.5525  0.3289  0.5942
 9532SOL    HW230197   5.807   1.667   1.534  0.3989 -1.0813  0.2742
 9533SOL     OW30198   5.828   5.302   2.017  0.0871 -0.2473  0.2257
 9533SOL    HW130199   5.751   5.294   1.954 -0.0496  1.5297  0.1155
 9533SOL    HW230200   5.794   5.322   2.109  0.3900  1.0117  0.0876
 9534SOL     OW30201   0.517   4.822   3.543 -0.7664 -0.3079 -0.3639
 9534SOL    HW130202   0.501   4.815   3.445  2.6915  0.3411 -1.1013
 9534SOL    HW230203   0.597   4.766   3.568  0.4734  2.0560  1.4225
 9535SOL     OW30204   0.684   3.298   4.074 -0.4626 -0.8621  0.5086
 9535SOL    HW130205   0.745   3.311   4.152 -0.3038 -0.6477  0.3489
 9535SOL    HW230206   0.600   3.350   4.088 -0.1806 -0.3312  0.2595
 9536SOL     OW30207   4.885   6.137   5.049 -0.1199  0.1153 -0.1464
 9536SOL    HW130208   4.845   6.085   4.974 -0.9877 -1.6609  1.4757
 9536SOL    HW230209   4.838   6.115   5.135  1.2401  1.6010  1.0552
 9537SOL     OW30210   1.692   3.983   2.820  0.1249 -0.0431  0.1690
 9537SOL    HW130211   1.683   4.028   2.908 -0.3276  1.5298 -0.6381
 9537SOL    HW230212   1.603   3.947   2.791  0.0053  0.5238 -0.1835
 9538SOL     OW30213   0.843   4.507   3.344 -0.5461  0.3581  0.0751
 9538SOL    HW130214   0.770   4.536   3.282 -1.2770  1.9672  1.5990
 9538SOL    HW230215   0.926   4.558   3.324 -0.7084  0.6958  0.2627
 9539SOL     OW30216   5.294   4.356   4.254  0.2876  0.5595  0.0456
 9539SOL    HW130217   5.348   4.364   4.170  1.0745  2.2100  0.6533
 9539SOL    HW230218   5.349   4.312   4.325  1.3495  3.1511  0.9749
 9540SOL     OW30219   2.178   3.427   3.414  0.3217 -0.0469 -0.5118
 9540SOL    HW130220   2.220   3.358   3.355  1.1850 -0.2192  0.2877
 9540SOL    HW230221   2.112   3.480   3.361  1.4590  0.1525 -1.8016
 9541SOL     OW30222   1.382   4.247   2.635 -0.1788 -1.1613 -0.0412
 9541SOL    HW130223   1.477   4.253   2.604  0.4870  0.5373  2.0488
 9541SOL    HW230224   1.355   4.334   2.676 -3.0102 -1.2683 -1.4607
 9542SOL     OW30225   5.404   4.099   1.793  0.3376 -0.0629  0.2542
 9542SOL    HW130226   5.308   4.115   1.769  0.0964 -0.8037  0.7099
 9542SOL    HW230227   5.461   4.115   1.713 -0.1728  0.3133 -0.0413
 9543SOL     OW30228   1.192   5.167   1.901 -0.1755  0.1092  0.2619
 9543SOL    HW130229   1.171   5.265   1.895 -2.4177 -0.3041  0.3610
 9543SOL    HW230230   1.119   5.121   1.951  1.9797 -1.3206  2.2468
 9544SOL     OW30231   1.844   2.316   0.723  0.0714 -0.7020 -0.5046
 9544SOL    HW130232   1.932   2.339   0.683  0.1556 -1.0030 -0.4937
 9544SOL    HW230233   1.816   2.389   0.785 -1.1316  0.8887 -2.7820
 9545SOL     OW30234   3.799   3.017   3.956  0.0008 -0.5553  0.0732
 9545SOL    HW130235   3.791   2.972   3.867 -0.1476  1.8537 -1.2220
 9545SOL    HW230236   3.711   3.058   3.980  0.4667  0.1814  0.5639
 9546SOL     OW30237   2.369   3.801   3.998 -0.3560 -0.5770  0.1045
 9546SOL    HW130238   2.413   3.747   3.927 -0.2328  0.3901 -0.5667
 9546SOL    HW230239   2.315   3.740   4.057  3.2759 -2.1688  2.1574
 9547SOL     OW30240   0.853   1.958   2.931  0.4281 -0.6125 -0.3907
 9547SOL    HW130241   0.879   1.970   2.835 -1.3130 -0.4440 -0.8671
 9547SOL    HW230242   0.854   1.861   2.954  1.9090 -0.5840 -0.2442
 9548SOL     OW30243   6.930   3.685   6.780  0.3377  0.3687  0.2423
 9548SOL    HW130244   7.023   3.711   6.754  0.2710  0.2307 -0.1403
 9548SOL    HW230245   6.866   3.716   6.709  0.1611 -0.0872  0.2010
 9549SOL     OW30246   0.947   2.750   4.163 -0.2703  0.2777 -0.6835
 9549SOL    HW130247   1.023   2.789   4.110  0.7382  0.9239  1.1441
 9549SOL    HW230248   0.972   2.658   4.194  0.1058  0.7737  0.5380
 9550SOL     OW30249   0.496   6.761   4.296 -0.1708  0.5212 -0.6676
 9550SOL    HW130250   0.593   6.787   4.293 -0.1453  0.5698  0.2104
 9550SOL    HW230251   0.478   6.711   4.381 -1.1682  1.5772 -0.2259
 9551SOL     OW30252   1.593   0.688   5.048  0.2458  0.9333 -0.3226
 9551SOL    HW130253   1.612   0.727   5.138  1.2408  0.1586 -0.1757
 9551SOL    HW230254   1.574   0.590   5.057  1.6393  0.5657 -1.0619
 9552SOL     OW30255   5.944   2.300   5.933  0.1831 -0.1352 -0.5568
 9552SOL    HW130256   5.979   2.334   6.020  0.0566 -1.7000  0.1369
 9552SOL    HW230257   6.017   2.252   5.884 -0.6223 -2.3550  0.3388
 9553SOL     OW30258   2.317   2.592   1.166 -0.1188 -0.0591 -0.2303
 9553SOL    HW130259   2.220   2.583   1.142 -0.3825  0.8834  0.4080
 9553SOL    HW230260   2.331   2.562   1.260  0.5408 -1.7937 -0.8330
 9554SOL     OW30261   0.543   2.433   2.752 -0.3187 -0.7266  0.1366
 9554SOL    HW130262   0.538   2.337   2.724 -0.2397 -0.1299 -2.0458
 9554SOL    HW230263   0.639   2.457   2.769 -0.0606 -0.4964 -1.4715
 9555SOL     OW30264   5.867   5.363   5.607 -0.1008 -0.0584  0.3262
 9555SOL    HW130265   5.917   5.339   5.690  0.8842  1.0171  0.0708
 9555SOL    HW230266   5.926   5.349   5.527 -0.1675  1.3182  0.0226
 9556SOL     OW30267   4.245   6.496   1.273  0.0771  0.1916  0.0668
 9556SOL    HW130268   4.318   6.556   1.305  1.2760 -0.9647 -0.4398
 9556SOL    HW230269   4.193   6.543   1.202 -0.0532  1.2355  0.8152
 9557SOL     OW30270   0.782   4.058   6.502  0.2135  0.1455 -0.3825
 9557SOL    HW130271   0.810   4.136   6.447 -1.0962  0.6053 -0.4469
 9557SOL    HW230272   0.791   3.974   6.448  2.0886  0.1588 -0.1521
 9558SOL     OW30273   2.887   6.498   0.433  0.6272 -0.3332  0.0821
 9558SOL    HW130274   2.953   6.431   0.398  0.9403 -0.6723  1.2723
 9558SOL    HW230275   2.933   6.559   0.498 -0.4224 -1.2452  1.7647
 9559SOL     OW30276   1.217   4.559   5.769  0.4326 -0.5224 -0.5695
 9559SOL    HW130277   1.167   4.630   5.818  3.3657  1.1520  0.2412
 9559SOL    HW230278   1.177   4.547   5.678 -0.1621  2.1964 -0.7482
 9560SOL     OW30279   4.923   1.253   0.474 -0.6512 -0.4189  0.2318
 9560SOL    HW130280   4.921   1.176   0.409  0.5046  0.3752 -0.8097
 9560SOL    HW230281   5.004   1.309   0.456 -1.3520  0.9352  1.1034
 9561SOL     OW30282   1.518   6.207   0.329  0.0936 -0.2606  0.1122
 9561SOL    HW130283   1.559   6.276   0.388 -0.0814  1.2485 -1.4634
 9561SOL    HW230284   1.473   6.251   0.252 -0.2549 -2.1324 -0.8150
 9562SOL     OW30285   3.639   0.282   6.702 -0.7849  0.5264 -0.2317
 9562SOL    HW130286   3.679   0.372   6.684 -1.9638  0.7467 -2.0315
 9562SOL    HW230287   3.551   0.274   6.654 -2.1432 -0.5422  2.2081
 9563SOL     OW30288   5.788   6.321   0.811  0.2741  0.1947  0.2304
 9563SOL    HW130289   5.777   6.325   0.711  0.1907 -0.3896  0.2144
 9563SOL    HW230290   5.868   6.375   0.837  0.4937  0.0789 -0.1862
 9564SOL     OW30291   1.371   6.089   1.852 -0.4188 -0.2080  0.8855
 9564SOL    HW130292   1.348   6.032   1.932 -2.0040  0.9747  1.3047
 9564SOL    HW230293   1.298   6.155   1.836  0.3888  0.2880 -0.9189
 9565SOL     OW30294   0.135   2.720   3.680  0.2945 -0.2819  0.8175
 9565SOL    HW130295   0.187   2.669   3.749  0.3330 -1.1604  0.1619
 9565SOL    HW230296   0.194   2.740   3.602  0.4152  1.2386  1.2790
 9566SOL     OW30297   4.175   0.044   2.739 -0.4835  0.2248 -0.2815
 9566SOL    HW130298   4.085   0.084   2.722 -0.1840  0.1988 -2.1504
 9566SOL    HW230299   4.182  -0.044   2.692  1.2865  1.2983 -2.2093
 9567SOL     OW30300   3.524   0.786   2.489  0.4728 -0.5572  0.1301
 9567SOL    HW130301   3.451   0.822   2.431  1.1244 -0.8981 -0.9320
 9567SOL    HW230302   3.517   0.826   2.581  0.1994  1.0219 -0.5420
 9568SOL     OW30303   1.501   2.010   0.310 -0.1575 -0.1331  0.4142
 9568SOL    HW130304   1.407   1.982   0.290 -0.1589  0.0100  0.2165
 9568SOL    HW230305   1.557   1.930   0.328  0.3126 -0.4498 -2.1469
 9569SOL     OW30306   0.328   0.650   6.237  0.3450 -0.1305  0.4356
 9569SOL    HW130307   0.381   0.613   6.161 -0.5735 -2.1036  0.6986
 9569SOL    HW230308   0.238   0.678   6.206  0.3422  0.0586  0.6079
 9570SOL     OW30309   5.931   2.562   4.851  0.9011 -0.7952 -0.2686
 9570SOL    HW130310   5.984   2.503   4.912  0.0225 -2.7674 -1.3281
 9570SOL    HW230311   5.894   2.508   4.776  1.4716  1.4539 -2.2909
 9571SOL     OW30312   0.741   5.781   6.514 -0.2238 -0.2749  0.3081
 9571SOL    HW130313   0.816   5.716   6.499  0.5588  0.3971  1.2107
 9571SOL    HW230314   0.753   5.860   6.455 -0.0315 -0.0248  0.6737
 9572SOL     OW30315   6.872   5.337   2.032 -0.7624 -0.5165 -0.0026
 9572SOL    HW130316   6.926   5.298   1.958 -1.9154 -1.8667 -0.1781
 9572SOL    HW230317   6.874   5.276   2.111 -1.5312 -0.2937  0.1975
 9573SOL     OW30318   0.182   6.512   2.757 -0.6176 -0.1572 -0.0321
 9573SOL    HW130319   0.209   6.552   2.669  0.1629  0.2850  0.3949
 9573SOL    HW230320   0.109   6.567   2.796  1.2081  1.6372  1.0845
 9574SOL     OW30321   2.227   6.222   3.191  0.2955  0.1079  0.1097
 9574SOL    HW130322   2.235   6.125   3.213 -0.7317 -0.4526 -1.7182
 9574SOL    HW230323   2.136   6.255   3.218  0.0421  0.1204 -0.7350
 9575SOL     OW30324   6.909   2.175   2.621  0.3045 -0.3422  0.6312
 9575SOL    HW130325   6.955   2.252   2.578 -2.2569  1.5116  0.9329
 9575SOL    HW230326   6.892   2.104   2.554 -1.2653  1.3621 -0.9015
 9576SOL     OW30327   2.629   0.496   2.289  0.4187  0.1076 -0.4821
 9576SOL    HW130328   2.576   0.450   2.217  2.5957  0.7048 -2.6152
 9576SOL    HW230329   2.588   0.477   2.378 -2.5905 -0.4476 -1.8587
 9577SOL     OW30330   6.722   1.978   3.899 -0.1508 -0.0393 -0.1128
 9577SOL    HW130331   6.750   2.019   3.812  1.3922  0.9425  0.7902
 9577SOL    HW230332   6.779   2.015   3.973 -1.5882 -0.6481  1.3625
 9578SOL     OW30333   1.124   1.710   5.838  0.4640  0.3145  0.3198
 9578SOL    HW130334   1.034   1.728   5.799 -0.7768  0.2449  2.9774
 9578SOL    HW230335   1.135   1.759   5.924  1.9303 -1.6763  1.3749
 9579SOL     OW30336   0.138   3.762   1.414 -0.0894 -0.1679 -0.2321
 9579SOL    HW130337   0.232   3.759   1.380 -0.5868 -0.1481 -1.6777
 9579SOL    HW230338   0.077   3.719   1.347 -1.0725 -0.4955  0.8440
 9580SOL     OW30339   5.747   4.571   2.380  0.0334  0.2858 -0.0664
 9580SOL    HW130340   5.707   4.486   2.416 -0.4319  0.2244 -0.7158
 9580SOL    HW230341   5.711   4.649   2.430  0.6173  0.0965  0.6725
 9581SOL     OW30342   3.546   6.522   2.176  0.0088  0.1201  0.2451
 9581SOL    HW130343   3.560   6.621   2.172 -1.0481  0.2763  0.0079
 9581SOL    HW230344   3.619   6.476   2.126 -0.2881  0.8723 -0.9435
 9582SOL     OW30345   1.402   3.923   2.385  0.4061  0.3201 -0.0019
 9582SOL    HW130346   1.349   3.966   2.312  1.1258  0.7629 -0.2753
 9582SOL    HW230347   1.375   3.827   2.395  1.9755 -0.4930 -2.5555
 9583SOL     OW30348   6.265   1.671   5.332 -0.4811  0.2503  0.0240
 9583SOL    HW130349   6.244   1.576   5.357  0.3867 -0.6650 -2.4423
 9583SOL    HW230350   6.199   1.732   5.377 -1.9372 -1.6160  0.5840
 9584SOL     OW30351   4.501   6.579   3.571 -0.1243 -0.1449  0.2078
 9584SOL    HW130352   4.555   6.564   3.653  1.6454  2.4788 -0.3622
 9584SOL    HW230353   4.489   6.678   3.556  1.8605 -0.3053 -3.9635
 9585SOL     OW30354   6.122   1.537   1.875 -0.0709  0.0148  0.2931
 9585SOL    HW130355   6.206   1.590   1.885  1.2554 -1.4776 -2.0224
 9585SOL    HW230356   6.127   1.455   1.932  0.5359 -0.5776 -0.5830
 9586SOL     OW30357   4.545   2.413   1.654 -0.1048 -0.5107  0.3280
 9586SOL    HW130358   4.487   2.494   1.643  0.5252 -0.0633  0.2351
 9586SOL    HW230359   4.621   2.418   1.589  0.9528 -0.2651  1.5486
 9587SOL     OW30360   3.404   2.176   1.912  0.3945  0.4804  0.1423
 9587SOL    HW130361   3.487   2.121   1.921  0.2534  0.3227  0.5054
 9587SOL    HW230362   3.324   2.120   1.934  0.0239  0.1200 -1.9037
 9588SOL     OW30363   5.405   5.820   3.226 -0.3139  0.0300 -0.2416
 9588SOL    HW130364   5.489   5.790   3.272 -0.9631 -0.3735  0.7217
 9588SOL    HW230365   5.428   5.878   3.148  0.8475  0.1239  0.1558
 9589SOL     OW30366   4.352   1.256   3.550 -0.1749  0.2429  0.0804
 9589SOL    HW130367   4.306   1.278   3.636  0.4120  0.8441  0.2485
 9589SOL    HW230368   4.320   1.167   3.517  0.0296 -0.2781  1.2245
 9590SOL     OW30369   4.809   0.429   3.194  0.1305 -0.5123 -0.1126
 9590SOL    HW130370   4.824   0.451   3.290  1.9038  0.9864 -0.6848
 9590SOL    HW230371   4.885   0.375   3.159 -0.4248 -0.9178 -0.7332
 9591SOL     OW30372   3.443   0.082   3.146  0.2888  0.0045 -0.3156
 9591SOL    HW130373   3.438   0.130   3.058 -0.2206  0.1618 -0.2074
 9591SOL    HW230374   3.537   0.054   3.163  0.2581 -0.7620 -1.3033
 9592SOL     OW30375   1.639   6.342   5.028 -0.9716  0.5993  0.0902
 9592SOL    HW130376   1.610   6.385   5.114  1.3455  1.1546  0.6633
 9592SOL    HW230377   1.700   6.266   5.048 -1.1820  0.1195 -1.0575
 9593SOL     OW30378   0.845   1.022   4.959  0.8425 -0.5606  0.0175
 9593SOL    HW130379   0.790   1.018   4.875  1.0328  0.5839 -0.1764
 9593SOL    HW230380   0.835   1.112   5.001  1.1061 -0.9721  0.9920
 9594SOL     OW30381   0.321   5.772   1.564 -0.1781  0.5510 -0.1963
 9594SOL    HW130382   0.414   5.808   1.562 -0.1078  0.4528  0.6701
 9594SOL    HW230383   0.323   5.672   1.561 -0.3739  0.5736 -2.6251
 9595SOL     OW30384   5.498   0.504   1.045  0.5811  0.0581 -0.0181
 9595SOL    HW130385   5.524   0.560   1.124 -0.8616  0.1625  0.4058
 9595SOL    HW230386   5.405   0.528   1.016  0.9105 -0.3182 -1.4584
 9596SOL     OW30387   1.288   4.958   6.136  0.1297  0.1852  0.0118
 9596SOL    HW130388   1.306   4.922   6.227  0.2760 -0.7735 -0.3890
 9596SOL    HW230389   1.360   5.023   6.111  0.2125  0.2761  0.4866
 9597SOL     OW30390   4.315   6.872   3.260 -0.0856  0.2267  0.2352
 9597SOL    HW130391   4.339   6.777   3.276 -1.5772 -0.1054  0.7359
 9597SOL    HW230392   4.355   6.903   3.174 -0.9455 -1.3914 -0.8002
 9598SOL     OW30393   5.639   0.967   1.018 -0.6406  0.3907  0.1744
 9598SOL    HW130394   5.717   0.979   1.080 -1.4292  0.9248  1.0933
 9598SOL    HW230395   5.661   1.007   0.929  0.5094 -0.3862  0.0913
 9599SOL     OW30396   6.457   3.557   6.914  0.4656 -0.0711  0.2120
 9599SOL    HW130397   6.513   3.599   6.985  1.8340 -0.5891 -0.5173
 9599SOL    HW230398   6.390   3.496   6.956 -0.4776  1.5745  1.1800
 9600SOL     OW30399   3.609   3.929   1.551 -0.2795 -0.1266  0.2180
 9600SOL    HW130400   3.525   3.920   1.605 -0.8508  1.3357 -0.3816
 9600SOL    HW230401   3.675   3.985   1.601  0.0229 -0.5468  0.3013
 9601SOL     OW30402   4.097   2.173   5.319  0.3180 -0.0348 -0.1774
 9601SOL    HW130403   4.133   2.114   5.391 -2.0468  2.0248  2.9570
 9601SOL    HW230404   4.151   2.257   5.315 -1.7084  1.4668  1.9612
 9602SOL     OW30405   1.777   1.728   6.528  0.1140 -0.3230 -0.0629
 9602SOL    HW130406   1.805   1.704   6.622 -0.3493  0.8052  0.3834
 9602SOL    HW230407   1.678   1.721   6.520  0.1702 -0.6020 -0.5349
 9603SOL     OW30408   3.217   0.061   2.851  0.1119 -0.4456  0.9734
 9603SOL    HW130409   3.199   0.155   2.822 -0.7351 -0.5338  1.1681
 9603SOL    HW230410   3.311   0.054   2.885  0.3760  0.1852  0.3979
 9604SOL     OW30411   4.929   1.086   2.679 -0.0058 -0.4753 -0.1780
 9604SOL    HW130412   4.985   1.004   2.690  0.4160 -0.0763  0.7522
 9604SOL    HW230413   4.833   1.065   2.700  0.2211 -0.5624  0.7969
 9605SOL     OW30414   1.371   4.938   2.300  0.5505  1.0009 -0.0122
 9605SOL    HW130415   1.288   4.961   2.351 -0.6782  0.0234 -1.4693
 9605SOL    HW230416   1.424   5.021   2.283 -0.9387  1.9062 -0.3837
 9606SOL     OW30417   6.738   6.719   0.068 -0.1103  0.4451  0.1042
 9606SOL    HW130418   6.805   6.711  -0.006  1.7413  1.0609  1.6278
 9606SOL    HW230419   6.699   6.629   0.087  3.0061 -0.7460  1.5199
 9607SOL     OW30420   5.007   1.191   3.230 -0.2637  0.0526  1.1640
 9607SOL    HW130421   4.973   1.107   3.188 -0.7195 -0.1657  1.9302
 9607SOL    HW230422   4.973   1.271   3.180  0.0754 -0.2105  0.5023
 9608SOL     OW30423   3.304   0.541   4.367 -0.2820 -0.0335  0.0256
 9608SOL    HW130424   3.274   0.460   4.317 -2.0391 -0.4029  1.5873
 9608SOL    HW230425   3.247   0.619   4.341 -4.2437 -1.1010  4.2631
 9609SOL     OW30426   2.982   6.786   6.710 -0.0635 -0.3825 -0.6533
 9609SOL    HW130427   2.925   6.762   6.789  0.2507 -2.3854 -0.9683
 9609SOL    HW230428   2.937   6.858   6.657 -1.4164 -0.6432  0.0939
 9610SOL     OW30429   6.133   5.372   3.213 -0.1169 -0.0392 -0.3180
 9610SOL    HW130430   6.089   5.424   3.286 -1.4301 -2.3644  0.6703
 9610SOL    HW230431   6.152   5.432   3.135 -3.3121  1.5166 -0.0567
 9611SOL     OW30432   1.858   3.493   5.398 -0.6921  0.2786 -0.0738
 9611SOL    HW130433   1.840   3.492   5.299 -1.2555  1.0687  0.0101
 9611SOL    HW230434   1.790   3.551   5.443  2.7949  4.7777  0.0980
 9612SOL     OW30435   2.233   3.624   4.155  0.1126 -0.1191  0.0941
 9612SOL    HW130436   2.170   3.645   4.230  1.0008  0.8140  0.5989
 9612SOL    HW230437   2.289   3.545   4.179  1.4148  1.0654  1.0678
 9613SOL     OW30438   0.400   1.950   6.732 -0.9228 -0.3897 -0.0071
 9613SOL    HW130439   0.318   2.003   6.752 -0.3660  0.2810  0.5693
 9613SOL    HW230440   0.378   1.878   6.667 -1.5103  1.1556 -1.5940
 9614SOL     OW30441   0.384   4.262   3.871  0.1606  0.1584 -0.1056
 9614SOL    HW130442   0.388   4.225   3.778  0.3888  0.6479 -0.2943
 9614SOL    HW230443   0.432   4.350   3.874  1.2882 -0.4724  0.7870
 9615SOL     OW30444   0.889   3.625   3.014 -0.4028  0.4912 -0.4872
 9615SOL    HW130445   0.814   3.689   2.995 -2.3152 -0.8910  1.7882
 9615SOL    HW230446   0.852   3.542   3.056  2.5644  0.5862  2.7807
 9616SOL     OW30447   4.928   1.967   2.967 -0.0821 -0.3484 -0.2235
 9616SOL    HW130448   4.884   1.958   2.878 -0.1465 -0.7436 -0.1510
 9616SOL    HW230449   4.912   2.059   3.003 -0.3512 -0.3022 -0.4615
 9617SOL     OW30450   2.086   3.264   2.873 -0.6402 -0.9498 -0.0090
 9617SOL    HW130451   2.103   3.184   2.931 -0.6755 -1.0486 -0.1357
 9617SOL    HW230452   2.170   3.289   2.825 -0.5791 -0.7943  0.1744
 9618SOL     OW30453   5.337   6.136   1.055 -0.2534 -0.4865 -0.1521
 9618SOL    HW130454   5.267   6.195   1.096  1.7532  1.4957  0.5897
 9618SOL    HW230455   5.368   6.175   0.969  1.6633  0.0704  0.7291
 9619SOL     OW30456   2.825   6.376   6.156  0.1131 -0.5799 -0.3591
 9619SOL    HW130457   2.866   6.461   6.189 -1.7922 -0.7361  2.7194
 9619SOL    HW230458   2.778   6.394   6.069  0.0802  1.4363  0.0279
 9620SOL     OW30459   6.841   1.496   3.174 -0.1711  0.2447 -0.4407
 9620SOL    HW130460   6.858   1.401   3.149 -0.3892  0.0572  0.1052
 9620SOL    HW230461   6.870   1.512   3.269  0.3513  0.8601 -0.6938
 9621SOL     OW30462   5.799   0.871   0.203 -0.2401  0.1865 -0.0641
 9621SOL    HW130463   5.731   0.818   0.152 -1.0220  0.0475  1.0715
 9621SOL    HW230464   5.870   0.810   0.237  0.2841  0.2792 -0.9591
 9622SOL     OW30465   0.335   6.288   2.884 -0.4494  0.0111 -0.2465
 9622SOL    HW130466   0.426   6.320   2.911 -0.7065  0.6727 -0.1547
 9622SOL    HW230467   0.293   6.355   2.823 -0.1444 -1.1349 -1.7941
 9623SOL     OW30468   4.591   0.886   1.579  0.6677 -0.6187 -0.1197
 9623SOL    HW130469   4.511   0.881   1.521 -0.0501 -0.2021  0.8142
 9623SOL    HW230470   4.589   0.811   1.645  0.8909 -0.4356  0.0996
 9624SOL     OW30471   6.701   0.736   6.137  0.0266 -1.2229  0.0106
 9624SOL    HW130472   6.678   0.818   6.188  0.8347 -0.3907 -0.9034
 9624SOL    HW230473   6.637   0.663   6.160 -1.0955 -0.1615  0.3871
 9625SOL     OW30474   3.091   4.103   3.631  0.0194  0.7169  0.3444
 9625SOL    HW130475   3.166   4.158   3.596  1.4799  0.2463  2.5357
 9625SOL    HW230476   3.123   4.047   3.707 -1.6971 -2.2440 -0.9493
 9626SOL     OW30477   5.037   5.498   2.749 -0.5069  0.3529  0.3221
 9626SOL    HW130478   5.087   5.412   2.751  0.1157  0.7163  1.2577
 9626SOL    HW230479   5.078   5.559   2.680  0.4595  0.6985  1.1744
 9627SOL     OW30480   0.567   2.720   4.943 -0.3330  0.3192 -0.0670
 9627SOL    HW130481   0.559   2.727   4.844 -2.1584  0.8424  0.0756
 9627SOL    HW230482   0.655   2.756   4.973  0.2847  0.0296 -1.4970
 9628SOL     OW30483   5.977   0.974   1.113 -0.4476 -0.5721 -0.0190
 9628SOL    HW130484   5.959   1.016   1.024 -3.1728 -0.6816  0.3812
 9628SOL    HW230485   6.071   0.992   1.140  0.0096  0.7478 -2.2325
 9629SOL     OW30486   2.296   0.808   4.938  0.1878  0.5424  0.2551
 9629SOL    HW130487   2.246   0.724   4.914  1.2752 -1.1791  3.4996
 9629SOL    HW230488   2.232   0.876   4.974 -0.4092  0.2811 -0.2850
 9630SOL     OW30489   4.298   5.917   6.536  0.0127  0.0089 -0.5713
 9630SOL    HW130490   4.369   5.905   6.605 -0.2782  0.1856 -0.2405
 9630SOL    HW230491   4.208   5.917   6.579 -0.1169  1.3290 -0.7861
 9631SOL     OW30492   5.855   0.192   2.208  0.2444  0.4556 -0.0236
 9631SOL    HW130493   5.927   0.124   2.222 -0.0029 -0.2351 -1.7890
 9631SOL    HW230494   5.784   0.179   2.277  0.5165 -0.6713  0.0713
 9632SOL     OW30495   6.108   5.231   4.582 -0.3987  0.1408  0.2946
 9632SOL    HW130496   6.079   5.278   4.498 -1.3521 -0.3475  0.3277
 9632SOL    HW230497   6.196   5.187   4.567  0.2562  1.4870  0.0992
 9633SOL     OW30498   6.320   3.640   3.449 -0.0933 -0.0820 -0.1778
 9633SOL    HW130499   6.278   3.560   3.492  1.1952 -0.8870 -0.3651
 9633SOL    HW230500   6.252   3.712   3.440 -0.4088  0.2143  3.3616
 9634SOL     OW30501   4.176   0.147   3.659 -0.4539  0.2220  0.3486
 9634SOL    HW130502   4.103   0.191   3.607  1.1580  0.4049 -1.9457
 9634SOL    HW230503   4.184   0.051   3.631 -3.4476 -1.6453  4.7692
 9635SOL     OW30504   3.496   4.541   6.353  0.0580  0.2042 -0.2201
 9635SOL    HW130505   3.458   4.568   6.265 -0.7860 -2.5840 -0.8146
 9635SOL    HW230506   3.459   4.452   6.379  1.5701  0.1930  2.1688
 9636SOL     OW30507   2.644   2.009   6.984 -0.0692 -0.8371 -0.3622
 9636SOL    HW130508   2.563   2.068   6.993 -1.0053 -1.5929 -3.0671
 9636SOL    HW230509   2.615   1.916   6.959  1.5832 -1.5681  0.2932
 9637SOL     OW30510   5.926   0.775   0.728 -0.0115 -0.4031  0.7285
 9637SOL    HW130511   5.975   0.741   0.808  1.7007  0.8803  0.2945
 9637SOL    HW230512   5.838   0.728   0.719  0.1783 -1.2338  2.8028
 9638SOL     OW30513   3.609   6.167   2.692 -0.1280  0.0281  0.0571
 9638SOL    HW130514   3.563   6.161   2.780 -1.0440  1.7819 -0.2455
 9638SOL    HW230515   3.556   6.116   2.623  0.5387 -1.2620  0.4660
 9639SOL     OW30516   2.085   2.390   0.330  0.4919 -0.3531  0.2895
 9639SOL    HW130517   2.048   2.368   0.240  0.1674  0.1936  0.2801
 9639SOL    HW230518   2.111   2.307   0.378  1.3929 -0.5989 -0.6201
 9640SOL     OW30519   5.317   4.432   4.965 -0.2975 -0.0560 -0.0096
 9640SOL    HW130520   5.344   4.432   4.869 -1.6664 -1.4467 -0.4369
 9640SOL    HW230521   5.225   4.471   4.974 -0.1224  0.1917  0.7535
 9641SOL     OW30522   6.172   3.596   1.881 -0.1033  0.0016  0.0984
 9641SOL    HW130523   6.272   3.593   1.882 -0.0757  0.6720 -0.1356
 9641SOL    HW230524   6.138   3.552   1.798  0.0313  0.5107 -0.2299
 9642SOL     OW30525   3.744   5.187   1.326 -0.2650  0.3160 -0.2877
 9642SOL    HW130526   3.681   5.265   1.316  0.7070  0.9989 -1.3136
 9642SOL    HW230527   3.796   5.175   1.241  1.2385 -0.0072  0.6412
 9643SOL     OW30528   6.137   6.955   2.442 -0.0981 -0.2398  0.5807
 9643SOL    HW130529   6.146   7.051   2.467  0.4619  0.0270 -0.5826
 9643SOL    HW230530   6.220   6.905   2.468  2.2238  0.7987 -3.8529
 9644SOL     OW30531   1.119   6.560   6.965  0.2481 -0.4172  0.2637
 9644SOL    HW130532   1.044   6.576   6.901  0.3347  0.5798  0.3946
 9644SOL    HW230533   1.101   6.476   7.017 -0.3883 -0.6069 -0.2427
 9645SOL     OW30534   0.190   2.859   5.561  0.1615 -0.3026 -0.1947
 9645SOL    HW130535   0.201   2.760   5.563  0.8148 -0.2351  1.7310
 9645SOL    HW230536   0.193   2.891   5.466 -0.1083 -2.1119 -0.8482
 9646SOL     OW30537   6.228   0.892   0.837 -0.1511 -0.4928  0.4219
 9646SOL    HW130538   6.231   0.972   0.898  0.1794 -0.2661  0.1104
 9646SOL    HW230539   6.175   0.916   0.755 -0.5296 -0.7733  0.5799
 9647SOL     OW30540   0.393   0.911   1.266  0.1007 -0.6124 -0.2583
 9647SOL    HW130541   0.450   0.975   1.214  0.0777  0.7618  1.3381
 9647SOL    HW230542   0.400   0.932   1.364 -4.1221  0.5184 -0.0275
 9648SOL     OW30543   0.653   4.224   3.037 -0.1376  0.4987 -0.1600
 9648SOL    HW130544   0.559   4.198   3.059 -0.4036  0.5667 -1.1836
 9648SOL    HW230545   0.672   4.205   2.941  1.1240 -0.1635  0.1972
 9649SOL     OW30546   4.346   3.387   6.961  0.3138 -0.1025  0.3432
 9649SOL    HW130547   4.285   3.410   7.037  0.2011  0.7474  0.0055
 9649SOL    HW230548   4.298   3.399   6.874  0.7928  0.0535  0.0965
 9650SOL     OW30549   3.681   3.239   3.341 -0.1472 -0.2596  0.0106
 9650SOL    HW130550   3.689   3.326   3.389  1.7435  0.6261 -1.7553
 9650SOL    HW230551   3.764   3.185   3.356 -0.7755 -1.2402  0.0691
 9651SOL     OW30552   1.963   0.321   6.411  0.0917 -0.0425  0.2178
 9651SOL    HW130553   1.977   0.367   6.499  1.2413  1.8770 -0.9001
 9651SOL    HW230554   1.867   0.297   6.400 -0.4083  1.3779  1.2219
 9652SOL     OW30555   0.007   6.348   2.549 -0.8663 -0.2301 -0.5411
 9652SOL    HW130556   0.034   6.440   2.577 -0.0432 -0.7464  0.4161
 9652SOL    HW230557   0.088   6.293   2.531 -1.2413 -1.4864  1.2813
 9653SOL     OW30558   5.271   2.867   3.998 -0.3420  0.5748 -0.2719
 9653SOL    HW130559   5.226   2.884   3.911 -2.0661  0.6397  0.5963
 9653SOL    HW230560   5.246   2.938   4.063 -0.6273 -0.4990  0.8327
 9654SOL     OW30561   2.138   3.701   3.714  0.1012  0.1217  0.1786
 9654SOL    HW130562   2.185   3.768   3.771 -0.2328  0.9864 -0.5233
 9654SOL    HW230563   2.042   3.729   3.702 -0.0261 -0.4526 -0.1665
 9655SOL     OW30564   4.225   1.218   4.071  0.0228 -0.0993  0.1189
 9655SOL    HW130565   4.257   1.178   3.985  3.2883  2.3721 -0.0309
 9655SOL    HW230566   4.304   1.249   4.125 -2.0294  2.4031  1.9820
 9656SOL     OW30567   5.059   6.789   4.266 -0.1443 -0.2511 -0.3440
 9656SOL    HW130568   5.023   6.752   4.352  2.6270  0.8354  1.4395
 9656SOL    HW230569   5.067   6.888   4.274  2.6770 -0.3580 -0.7067
 9657SOL     OW30570   4.345   1.343   4.743 -0.1839 -0.8248 -0.8470
 9657SOL    HW130571   4.276   1.410   4.714 -0.2677  0.0245  1.1204
 9657SOL    HW230572   4.299   1.259   4.773 -0.3836 -0.3929  0.1148
 9658SOL     OW30573   3.198   0.354   1.388 -0.0905  0.0269 -0.4196
 9658SOL    HW130574   3.289   0.313   1.391  1.1059  2.5683  0.0599
 9658SOL    HW230575   3.157   0.338   1.298  0.6352 -1.4478 -0.5173
 9659SOL     OW30576   5.578   4.631   2.070 -0.1779 -0.5451  0.1863
 9659SOL    HW130577   5.631   4.596   2.147  2.3215 -0.3058 -1.3160
 9659SOL    HW230578   5.600   4.578   1.988 -0.2254  1.2574 -1.0552
 9660SOL     OW30579   1.048   4.858   2.773  0.2015 -0.0093 -0.2970
 9660SOL    HW130580   1.011   4.780   2.723 -0.7255  0.6450 -0.6630
 9660SOL    HW230581   0.973   4.919   2.801  0.9926  1.4505 -1.2138
 9661SOL     OW30582   1.134   2.840   6.443 -0.3110  0.3998 -0.2125
 9661SOL    HW130583   1.061   2.882   6.389 -0.3820  0.4438 -0.0815
 9661SOL    HW230584   1.188   2.780   6.384  0.3721  1.3989 -0.6284
 9662SOL     OW30585   2.806   4.136   3.625  0.1714  0.3900  0.4461
 9662SOL    HW130586   2.895   4.093   3.640  1.1618  2.0637 -0.2601
 9662SOL    HW230587   2.753   4.135   3.710  1.9649  1.6651  1.6558
 9663SOL     OW30588   0.624   6.410   1.651 -0.2471  0.0858 -0.0321
 9663SOL    HW130589   0.654   6.492   1.700 -0.7675  0.6310 -0.5953
 9663SOL    HW230590   0.538   6.430   1.603  0.6072 -0.1790 -1.7670
 9664SOL     OW30591   0.516   5.724   1.800 -0.2610  0.2602 -0.5744
 9664SOL    HW130592   0.557   5.743   1.889 -2.2029  0.8712  0.2624
 9664SOL    HW230593   0.552   5.788   1.733  1.8139 -0.7082 -0.4624
 9665SOL     OW30594   1.022   3.829   3.704 -0.0121 -0.3595  0.1544
 9665SOL    HW130595   0.960   3.846   3.628 -0.0511  2.7467  0.7420
 9665SOL    HW230596   0.984   3.759   3.764 -1.2987 -0.8747 -1.2074
 9666SOL     OW30597   1.958   6.892   5.850 -0.0582 -0.5152 -0.0485
 9666SOL    HW130598   1.869   6.917   5.889  0.2097  0.3614  0.0247
 9666SOL    HW230599   1.963   6.926   5.756  1.0469  1.4797  0.6805
 9667SOL     OW30600   0.184   2.386   6.894 -0.3124 -0.3634  0.0554
 9667SOL    HW130601   0.104   2.413   6.947 -0.7754 -1.3845 -0.0857
 9667SOL    HW230602   0.226   2.466   6.852 -1.1886  0.2020  0.2455
 9668SOL     OW30603   1.606   0.867   4.833 -0.6916  0.5846  0.7896
 9668SOL    HW130604   1.514   0.879   4.795 -0.3383 -0.6070 -0.5599
 9668SOL    HW230605   1.600   0.818   4.920 -1.2542 -1.7788 -0.4786
 9669SOL     OW30606   4.780   2.542   6.458 -0.0964 -0.2488 -0.1357
 9669SOL    HW130607   4.853   2.566   6.394 -1.6743  0.7685 -1.6572
 9669SOL    HW230608   4.767   2.443   6.458  1.2871 -0.4508  0.2086
 9670SOL     OW30609   2.217   0.671   2.372  0.1829 -0.5392  1.1758
 9670SOL    HW130610   2.295   0.732   2.354  0.5001 -1.0267  0.8790
 9670SOL    HW230611   2.248   0.593   2.427 -0.0458 -0.8626  0.8472
 9671SOL     OW30612   3.102   2.203   5.563 -0.2184  0.0337  0.3531
 9671SOL    HW130613   3.197   2.231   5.555  0.3759 -0.9001  3.1057
 9671SOL    HW230614   3.055   2.220   5.476  1.9175  2.3454 -0.4734
 9672SOL     OW30615   1.355   3.777   6.562 -0.1481 -0.4677 -0.4344
 9672SOL    HW130616   1.363   3.681   6.588 -0.2581 -0.3431  0.0732
 9672SOL    HW230617   1.298   3.825   6.628 -1.0496 -0.2922 -1.3042
 9673SOL     OW30618   0.301   1.460   5.253  0.1312  0.5447 -0.4293
 9673SOL    HW130619   0.247   1.544   5.243 -1.9661 -0.5275  1.1627
 9673SOL    HW230620   0.241   1.380   5.243  1.6092 -0.7356  0.4452
 9674SOL     OW30621   4.119   2.624   2.415  0.4423  0.1867  0.5155
 9674SOL    HW130622   4.216   2.647   2.408  0.1127  1.5376  0.0312
 9674SOL    HW230623   4.101   2.581   2.503  1.4689 -0.0523  0.6212
 9675SOL     OW30624   5.791   4.342   5.691 -0.2080 -0.0690 -0.4074
 9675SOL    HW130625   5.779   4.395   5.775  0.3880  1.9580 -1.5405
 9675SOL    HW230626   5.748   4.389   5.615  0.9670 -0.8490 -1.6031
 9676SOL     OW30627   4.780   6.644   2.494 -0.3837 -0.6332 -0.1630
 9676SOL    HW130628   4.736   6.558   2.518 -1.3195 -0.4210 -1.0542
 9676SOL    HW230629   4.789   6.651   2.395  2.4631 -1.0350 -0.0116
 9677SOL     OW30630   1.369   1.756   3.516  0.3765  0.1754 -0.3275
 9677SOL    HW130631   1.339   1.700   3.439  2.2457 -0.9119 -0.3289
 9677SOL    HW230632   1.398   1.845   3.483  0.7394 -0.1246 -0.8318
 9678SOL     OW30633   5.779   3.078   2.346 -0.6026  0.5133 -0.3911
 9678SOL    HW130634   5.826   2.991   2.357  0.9048  1.2999 -0.4379
 9678SOL    HW230635   5.779   3.128   2.433 -0.3157  1.0295 -0.6849
 9679SOL     OW30636   1.087   3.616   6.652  0.3870 -0.4600 -0.3204
 9679SOL    HW130637   1.116   3.711   6.660  1.3653 -0.8798  1.7885
 9679SOL    HW230638   0.987   3.611   6.655  0.3490  0.4371  0.2684
 9680SOL     OW30639   4.510   5.835   2.837 -0.6509 -0.1961 -0.3830
 9680SOL    HW130640   4.519   5.761   2.771 -2.9675  0.2786 -1.3399
 9680SOL    HW230641   4.414   5.847   2.861 -0.0457  0.6362  2.0007
 9681SOL     OW30642   1.095   6.654   4.163 -0.0361 -0.5333  0.4348
 9681SOL    HW130643   1.105   6.555   4.157  0.2821 -0.4800  0.0164
 9681SOL    HW230644   1.169   6.698   4.112 -0.3250 -0.0847  0.3937
 9682SOL     OW30645   5.558   2.128   2.785  0.5290  0.4312  1.0179
 9682SOL    HW130646   5.576   2.031   2.765  0.3747  0.1663  2.0975
 9682SOL    HW230647   5.464   2.150   2.760  0.9053  0.6102 -0.2985
 9683SOL     OW30648   4.268   1.477   0.204  0.4742  0.1945 -0.2419
 9683SOL    HW130649   4.283   1.382   0.233 -1.0283 -0.0848 -0.3229
 9683SOL    HW230650   4.269   1.481   0.104 -2.7074 -0.3804 -0.3925
 9684SOL     OW30651   4.833   6.672   1.124 -0.5776 -0.1656 -0.1706
 9684SOL    HW130652   4.815   6.693   1.220  0.0602  0.2121 -0.1254
 9684SOL    HW230653   4.750   6.638   1.080 -0.6822 -1.0955  0.7103
 9685SOL     OW30654   2.803   4.998   5.461 -0.3182 -0.3537  0.0072
 9685SOL    HW130655   2.856   5.026   5.541  0.8501  1.1838 -1.2390
 9685SOL    HW230656   2.854   4.929   5.410  0.2736  0.7339 -0.9039
 9686SOL     OW30657   0.132   6.471   2.269 -0.2565 -0.3649  0.1279
 9686SOL    HW130658   0.174   6.559   2.248 -0.4998 -0.4940 -0.9587
 9686SOL    HW230659   0.034   6.475   2.248  0.2633 -1.8501 -3.1761
 9687SOL     OW30660   3.652   4.414   1.901  0.0875 -0.0057 -0.0015
 9687SOL    HW130661   3.615   4.485   1.960  0.1024  0.2377 -0.2854
 9687SOL    HW230662   3.679   4.453   1.813  1.2268 -0.1336  0.2746
 9688SOL     OW30663   4.122   0.998   4.597  0.0982 -0.1666  0.4638
 9688SOL    HW130664   4.111   1.088   4.639 -0.5326 -1.2015  2.6910
 9688SOL    HW230665   4.187   0.944   4.650  0.2838 -1.1278 -0.6900
 9689SOL     OW30666   0.300   2.876   6.988  0.3120 -0.4491 -0.5116
 9689SOL    HW130667   0.363   2.810   6.946  5.1506  2.4246  1.3876
 9689SOL    HW230668   0.328   2.892   7.083 -3.2701  1.3354  0.4125
 9690SOL     OW30669   1.990   6.759   2.885 -0.2736  0.1121  0.5215
 9690SOL    HW130670   1.996   6.772   2.786 -0.3937 -4.1746 -0.2387
 9690SOL    HW230671   2.073   6.794   2.929  0.4253  0.8076 -1.2690
 9691SOL     OW30672   1.951   5.554   5.293 -0.0145  0.4444 -0.1025
 9691SOL    HW130673   1.880   5.484   5.300  1.1550 -0.6885  1.1604
 9691SOL    HW230674   1.973   5.588   5.385  2.3268 -0.5984 -0.1964
 9692SOL     OW30675   3.117   1.921   2.947  0.3195 -0.1659 -0.0156
 9692SOL    HW130676   3.215   1.919   2.926  0.2105  0.5880 -0.6798
 9692SOL    HW230677   3.093   2.011   2.984 -0.2340 -0.1261 -0.4610
 9693SOL     OW30678   0.876   5.039   6.164  0.1758  0.5975  0.1045
 9693SOL    HW130679   0.790   5.091   6.166  0.5596  1.2747 -0.4149
 9693SOL    HW230680   0.879   4.983   6.081 -0.2058 -0.2032  0.6299
 9694SOL     OW30681   1.191   4.753   2.224  0.3629 -0.3854  0.6813
 9694SOL    HW130682   1.144   4.784   2.141  1.2983 -3.4324 -1.1487
 9694SOL    HW230683   1.274   4.806   2.238  0.7319 -0.4693 -0.9790
 9695SOL     OW30684   1.394   0.526   4.212  0.5314 -0.4908 -0.3929
 9695SOL    HW130685   1.430   0.433   4.213  0.5185 -0.4976 -0.5433
 9695SOL    HW230686   1.365   0.552   4.304  1.0488 -0.4400 -0.2389
 9696SOL     OW30687   5.466   4.312   1.964  0.1352  0.4395  0.0280
 9696SOL    HW130688   5.442   4.224   1.925 -0.5688  0.2712  0.8289
 9696SOL    HW230689   5.564   4.329   1.951 -0.0474  0.3197 -1.6408
 9697SOL     OW30690   6.473   5.855   3.440  0.3173 -0.1310  0.1074
 9697SOL    HW130691   6.450   5.953   3.445  1.0489  0.1286 -1.1991
 9697SOL    HW230692   6.507   5.825   3.529 -0.9383  0.5202  0.8409
 9698SOL     OW30693   4.135   3.315   6.300  0.2875 -0.3864  0.1631
 9698SOL    HW130694   4.093   3.349   6.216  2.4548  0.5419 -0.6183
 9698SOL    HW230695   4.102   3.368   6.378  0.9954  1.2650 -0.6069
 9699SOL     OW30696   0.088   3.252   1.224  0.3033 -0.1429  0.0664
 9699SOL    HW130697   0.062   3.260   1.127  0.2285 -1.3826 -0.0277
 9699SOL    HW230698   0.178   3.210   1.231  0.2079 -0.2678  0.5510
 9700SOL     OW30699   4.454   6.145   6.067  0.0165  1.2478  0.5065
 9700SOL    HW130700   4.461   6.229   6.013  2.2424  1.9312  1.7384
 9700SOL    HW230701   4.447   6.168   6.164  1.4085  0.0292  0.9275
 9701SOL     OW30702   3.913   4.662   5.472  0.3511  0.2501  0.4946
 9701SOL    HW130703   3.980   4.706   5.413  0.0405  0.4345  0.2779
 9701SOL    HW230704   3.827   4.713   5.469 -0.7548 -1.6080 -1.5043
 9702SOL     OW30705   0.673   0.893   6.494 -0.7811  0.2692 -0.9027
 9702SOL    HW130706   0.670   0.939   6.405  1.2290 -1.4003 -1.9077
 9702SOL    HW230707   0.759   0.916   6.540 -1.6374  0.8118  0.4625
 9703SOL     OW30708   4.645   5.863   5.578  0.0572  0.1804  0.1587
 9703SOL    HW130709   4.566   5.909   5.537 -0.8706 -0.1397  1.5076
 9703SOL    HW230710   4.613   5.799   5.648  1.5403  0.5517  1.2314
 9704SOL     OW30711   5.735   1.113   0.275  0.0593 -0.6544  0.1675
 9704SOL    HW130712   5.767   1.025   0.241 -0.9153  0.0076 -2.7748
 9704SOL    HW230713   5.645   1.102   0.317 -1.0854 -0.8260 -2.1827
 9705SOL     OW30714   6.878   4.813   2.854 -0.6683 -0.4695 -0.1660
 9705SOL    HW130715   6.885   4.888   2.790  0.1141 -1.2691 -1.0489
 9705SOL    HW230716   6.783   4.786   2.864 -1.1775  1.5999  1.3560
 9706SOL     OW30717   0.681   5.382   2.689 -0.5133 -0.6535 -0.2979
 9706SOL    HW130718   0.629   5.415   2.767 -0.5514  1.1200 -1.0234
 9706SOL    HW230719   0.623   5.380   2.608  0.1136 -0.1266 -0.7813
 9707SOL     OW30720   4.449   6.364   5.218  0.3662 -0.0587 -0.3599
 9707SOL    HW130721   4.475   6.367   5.314  0.9961 -1.0304 -0.4934
 9707SOL    HW230722   4.528   6.341   5.162  0.3115  1.7192 -1.2556
 9708SOL     OW30723   2.158   6.958   4.499 -0.3389  0.0321  0.2332
 9708SOL    HW130724   2.118   6.870   4.472 -0.9270  0.5197 -0.5208
 9708SOL    HW230725   2.135   6.977   4.594  0.7569 -1.1589  0.7541
 9709SOL     OW30726   0.556   4.990   2.087 -0.1420  0.3998  0.0079
 9709SOL    HW130727   0.534   4.991   1.989  0.4067  0.1268 -0.1244
 9709SOL    HW230728   0.547   4.897   2.122  0.6904  0.2926 -0.0341
 9710SOL     OW30729   2.075   1.896   5.412  0.0159  0.0342  0.0115
 9710SOL    HW130730   2.121   1.810   5.436 -1.3106 -1.2405 -1.7752
 9710SOL    HW230731   1.981   1.893   5.444 -0.1800  0.5982 -0.4994
 9711SOL     OW30732   3.596   2.718   0.851  0.0368  0.3320 -0.4520
 9711SOL    HW130733   3.579   2.620   0.849 -1.4090  0.5566 -0.9399
 9711SOL    HW230734   3.643   2.743   0.935  1.1925 -0.8763 -0.7148
 9712SOL     OW30735   5.446   1.713   6.926 -0.8258 -0.5334 -0.0837
 9712SOL    HW130736   5.444   1.769   6.843  1.1485 -1.0924 -0.5665
 9712SOL    HW230737   5.471   1.770   7.004  1.2138 -0.6550 -0.5778
 9713SOL     OW30738   5.112   6.917   5.269  0.1282  0.2031  0.2735
 9713SOL    HW130739   5.180   6.949   5.203  0.1321 -1.8109 -0.7750
 9713SOL    HW230740   5.022   6.918   5.226 -0.0285 -0.1280  0.5927
 9714SOL     OW30741   6.039   1.428   1.629 -0.3992 -0.2850 -0.5689
 9714SOL    HW130742   5.940   1.439   1.626 -0.2582  1.4483  0.0324
 9714SOL    HW230743   6.066   1.396   1.720 -0.3095  0.5659 -0.2903
 9715SOL     OW30744   5.908   6.333   6.129  0.0995  0.1655  0.0207
 9715SOL    HW130745   5.821   6.378   6.109  0.0926 -0.3834 -1.2676
 9715SOL    HW230746   5.980   6.371   6.072  0.0445 -1.5585 -1.2958
 9716SOL     OW30747   1.750   3.586   0.415 -0.4472 -0.9288 -0.6023
 9716SOL    HW130748   1.836   3.631   0.440 -0.4140 -0.0812 -2.1392
 9716SOL    HW230749   1.770   3.491   0.389 -0.1877 -1.1472  0.3237
 9717SOL     OW30750   4.780   4.774   0.068 -0.1009  0.0620  0.1507
 9717SOL    HW130751   4.771   4.679   0.038  1.2750  0.4305 -1.6400
 9717SOL    HW230752   4.821   4.778   0.159  0.0619 -1.0467  0.1296
 9718SOL     OW30753   6.983   3.478   4.694 -0.4364 -0.2214  0.3910
 9718SOL    HW130754   6.927   3.407   4.736 -1.0990  0.0713  0.0057
 9718SOL    HW230755   7.057   3.503   4.757 -0.1810 -1.2567  0.5273
 9719SOL     OW30756   1.202   2.632   6.971 -0.6432  0.4134  0.3829
 9719SOL    HW130757   1.198   2.566   6.897 -1.1352  1.0426 -0.1625
 9719SOL    HW230758   1.296   2.638   7.005 -0.3167  0.4421 -0.4970
 9720SOL     OW30759   6.859   3.891   0.688 -0.3067 -0.1869  0.1873
 9720SOL    HW130760   6.879   3.971   0.631 -1.4253  0.2594  0.4073
 9720SOL    HW230761   6.882   3.911   0.783  2.0702 -1.1130 -0.1156
 9721SOL     OW30762   3.637   2.181   5.045  0.1453  0.3902  0.4976
 9721SOL    HW130763   3.662   2.277   5.031  0.0578  0.3574  0.0911
 9721SOL    HW230764   3.558   2.159   4.989  0.9229 -0.2440 -0.3845
 9722SOL     OW30765   4.873   6.812   5.578 -0.0546 -0.0799  0.0008
 9722SOL    HW130766   4.783   6.830   5.539  0.1744  1.6539  0.2003
 9722SOL    HW230767   4.867   6.810   5.677 -0.3244 -2.7661  0.0105
 9723SOL     OW30768   4.397   2.579   6.557 -0.2111  0.5971  0.2114
 9723SOL    HW130769   4.371   2.544   6.646  0.9182  0.5536  0.5317
 9723SOL    HW230770   4.485   2.627   6.563  1.7337 -2.4457 -1.5222
 9724SOL     OW30771   5.171   1.749   2.639 -0.3985  0.3771  0.0217
 9724SOL    HW130772   5.139   1.691   2.564  0.5911  0.8494 -0.8071
 9724SOL    HW230773   5.153   1.705   2.726 -0.9411 -0.5212 -0.5293
 9725SOL     OW30774   5.972   3.426   0.485 -0.4713 -0.0436  0.4963
 9725SOL    HW130775   5.958   3.426   0.584 -1.3481  0.1315  0.3821
 9725SOL    HW230776   5.932   3.343   0.446 -0.6952  0.1906  0.2225
 9726SOL     OW30777   6.053   1.990   5.036  0.1563  0.1095  0.2938
 9726SOL    HW130778   6.061   1.899   4.996 -1.9343  0.4746 -1.1520
 9726SOL    HW230779   6.016   2.053   4.968  1.4638  2.0494  1.2877
 9727SOL     OW30780   1.316   3.406   2.523 -0.5000 -0.0475  0.6658
 9727SOL    HW130781   1.228   3.374   2.559 -0.5533  0.7994  1.3287
 9727SOL    HW230782   1.381   3.330   2.519 -1.2189 -0.6564  0.2781
 9728SOL     OW30783   2.327   2.664   5.475  0.4336  0.6740  0.0546
 9728SOL    HW130784   2.239   2.690   5.514  0.1640 -0.2403  0.0790
 9728SOL    HW230785   2.323   2.676   5.376  0.3535  0.8434  0.0775
 9729SOL     OW30786   0.252   0.706   4.722  0.0581 -0.1038  0.1740
 9729SOL    HW130787   0.200   0.754   4.791 -0.5939  0.6863 -0.8408
 9729SOL    HW230788   0.314   0.770   4.676  1.4307 -0.8748  0.8659
 9730SOL     OW30789   2.984   1.727   6.315  0.4473 -0.7274 -0.0329
 9730SOL    HW130790   2.987   1.811   6.369 -1.1658 -1.4104  1.1936
 9730SOL    HW230791   2.987   1.750   6.217 -0.9476  0.8463  0.2545
 9731SOL     OW30792   2.357   2.565   6.132 -0.2510 -0.0162  0.2539
 9731SOL    HW130793   2.434   2.629   6.138 -1.1794  0.9968  2.1655
 9731SOL    HW230794   2.287   2.602   6.071  0.0705 -0.1658 -0.2084
 9732SOL     OW30795   0.541   5.600   5.769  0.2768 -0.6655 -0.7155
 9732SOL    HW130796   0.453   5.574   5.809  0.8014  1.0864  1.8641
 9732SOL    HW230797   0.527   5.673   5.702 -0.1695  1.2049  1.2943
 9733SOL     OW30798   4.724   3.966   2.209 -0.8065  0.2357 -0.0123
 9733SOL    HW130799   4.819   3.961   2.179 -0.8354  1.0254 -0.2722
 9733SOL    HW230800   4.706   4.057   2.247 -1.5983  0.2751 -0.4581
 9734SOL     OW30801   3.649   1.785   3.345 -0.0543 -0.6517  0.4739
 9734SOL    HW130802   3.733   1.828   3.379 -0.6513 -0.8014  2.2388
 9734SOL    HW230803   3.654   1.777   3.246  1.8751 -0.3498  0.4990
 9735SOL     OW30804   4.615   3.779   1.976 -0.3695 -0.6676  0.1649
 9735SOL    HW130805   4.549   3.721   2.026 -0.1195 -0.6846  0.4754
 9735SOL    HW230806   4.638   3.859   2.031 -0.9614 -0.0935 -0.3971
 9736SOL     OW30807   2.542   2.485   1.529  0.1553  0.4581 -0.5242
 9736SOL    HW130808   2.601   2.554   1.488  1.6719 -0.9935 -0.8883
 9736SOL    HW230809   2.510   2.517   1.618 -0.3552  2.1931 -1.2824
 9737SOL     OW30810   2.235   2.973   5.547 -0.5053 -0.7645  0.0135
 9737SOL    HW130811   2.334   2.973   5.529 -0.7335 -1.4740 -1.3528
 9737SOL    HW230812   2.209   2.887   5.589 -0.4926 -0.4235  0.7294
 9738SOL     OW30813   6.086   0.630   0.938  1.5401  0.4950 -0.1254
 9738SOL    HW130814   6.074   0.562   1.010 -0.3560  1.9992  1.0826
 9738SOL    HW230815   6.139   0.707   0.973  0.2203  1.4428 -0.1440
 9739SOL     OW30816   5.393   0.353   1.890 -0.3778  0.7822 -0.6728
 9739SOL    HW130817   5.382   0.295   1.971 -0.0204  1.2582 -0.2776
 9739SOL    HW230818   5.316   0.338   1.828 -0.2878 -0.1140 -0.5820
 9740SOL     OW30819   4.052   1.910   6.915  0.3213  0.5525  0.4102
 9740SOL    HW130820   3.974   1.916   6.978 -0.8198  2.8016 -1.1215
 9740SOL    HW230821   4.090   1.817   6.920 -3.6792 -1.3546 -0.2154
 9741SOL     OW30822   5.236   6.479   6.264  0.2362 -0.1005  0.5599
 9741SOL    HW130823   5.232   6.565   6.213  0.4963  0.6383  1.7465
 9741SOL    HW230824   5.249   6.403   6.200  0.3360  0.7675 -0.4851
 9742SOL     OW30825   3.701   3.759   6.087  0.1318 -0.0301 -0.0954
 9742SOL    HW130826   3.704   3.707   6.001  3.0946  0.1954 -0.2174
 9742SOL    HW230827   3.714   3.696   6.163  0.7435  0.1472 -0.0484
 9743SOL     OW30828   1.880   5.207   3.551  0.3209 -0.5720  0.0571
 9743SOL    HW130829   1.906   5.140   3.620 -0.2359 -1.4067 -0.5284
 9743SOL    HW230830   1.957   5.224   3.490  0.3483 -0.9577 -0.0157
 9744SOL     OW30831   1.497   2.712   6.976  0.3915  0.5347 -0.3076
 9744SOL    HW130832   1.535   2.711   6.883 -1.7617 -2.3115 -1.3043
 9744SOL    HW230833   1.570   2.694   7.042  1.3843 -1.4402 -1.8306
 9745SOL     OW30834   4.731   2.929   0.265 -0.3531  0.9017 -0.2441
 9745SOL    HW130835   4.683   2.998   0.318  0.8250  1.0098  0.7236
 9745SOL    HW230836   4.759   2.854   0.324 -1.0919 -0.1370 -1.1735
 9746SOL     OW30837   4.084   6.615   3.990  0.0147 -0.1396  0.0420
 9746SOL    HW130838   3.995   6.641   4.027  1.0707  2.0009  1.2513
 9746SOL    HW230839   4.131   6.696   3.957  1.9087 -1.0775  0.3112
 9747SOL     OW30840   6.909   0.927   2.953  0.6211 -0.6442  0.2890
 9747SOL    HW130841   6.811   0.916   2.936  0.4542  1.4595 -0.3912
 9747SOL    HW230842   6.957   0.936   2.866  1.1061  0.5103  0.6612
 9748SOL     OW30843   4.723   1.007   5.658  0.0233  0.3044 -0.3716
 9748SOL    HW130844   4.797   0.951   5.695  0.2820  0.3077 -0.8774
 9748SOL    HW230845   4.652   0.948   5.619  0.1633  0.3204 -0.6521
 9749SOL     OW30846   5.474   6.069   6.331  0.0940 -0.2263  0.0238
 9749SOL    HW130847   5.472   6.169   6.334 -1.3036 -0.2669  1.4461
 9749SOL    HW230848   5.568   6.037   6.343  0.2734  0.8980  1.9778
 9750SOL     OW30849   6.196   2.291   1.007  0.4134  0.4831  0.1589
 9750SOL    HW130850   6.149   2.221   0.952 -0.0506  2.0369 -1.5449
 9750SOL    HW230851   6.132   2.328   1.075  0.9578 -1.3793  1.7750
 9751SOL     OW30852   0.948   3.618   6.352  0.2369  0.0194 -0.2843
 9751SOL    HW130853   1.020   3.687   6.349 -0.1830  0.4369 -1.0138
 9751SOL    HW230854   0.945   3.570   6.265  0.8433 -1.2726  0.3753
 9752SOL     OW30855   6.595   2.676   4.487  0.4739  0.0400  0.0395
 9752SOL    HW130856   6.642   2.726   4.414  0.8302  1.8921  1.4674
 9752SOL    HW230857   6.573   2.739   4.562 -0.8338 -1.5832  1.0921
 9753SOL     OW30858   5.410   4.175   6.455  0.0396 -0.5003  0.6754
 9753SOL    HW130859   5.399   4.184   6.554 -0.3699  1.2926  0.5086
 9753SOL    HW230860   5.373   4.256   6.410  0.6934 -1.0424 -0.9235
 9754SOL     OW30861   4.629   3.202   1.352  0.4496  0.0304 -0.1332
 9754SOL    HW130862   4.668   3.209   1.261  2.2402 -0.3308  0.5522
 9754SOL    HW230863   4.663   3.277   1.409 -0.3958  0.0772  0.3217
 9755SOL     OW30864   1.355   5.668   4.718  0.1906 -0.1253 -0.1203
 9755SOL    HW130865   1.268   5.651   4.673 -0.4026  0.6688  0.6913
 9755SOL    HW230866   1.427   5.680   4.649 -0.4936  0.0035 -0.8203
 9756SOL     OW30867   5.097   0.540   1.663 -0.5753  0.2699 -0.5091
 9756SOL    HW130868   5.093   0.619   1.725 -0.1163  1.5546 -2.0513
 9756SOL    HW230869   5.168   0.555   1.595 -1.2479 -0.9859 -1.5166
 9757SOL     OW30870   0.064   0.953   1.341 -0.1220  0.1434  0.0274
 9757SOL    HW130871   0.117   0.908   1.413  1.9040 -0.7495 -1.9013
 9757SOL    HW230872  -0.030   0.918   1.341  0.7180 -2.3012  0.1972
 9758SOL     OW30873   1.702   3.739   5.077  0.0495  0.4136 -0.4796
 9758SOL    HW130874   1.770   3.809   5.099 -0.0567  0.1912  0.6035
 9758SOL    HW230875   1.611   3.770   5.106  0.4044 -1.4558  3.1204
 9759SOL     OW30876   0.809   6.157   6.599 -0.2348  0.1379  0.5154
 9759SOL    HW130877   0.755   6.239   6.582 -1.3591 -0.7563 -0.4270
 9759SOL    HW230878   0.808   6.136   6.697 -1.0773  0.4990  0.5922
 9760SOL     OW30879   2.837   5.454   0.725 -0.0337  0.1421  0.4748
 9760SOL    HW130880   2.849   5.552   0.710 -0.4732  0.2143  0.5682
 9760SOL    HW230881   2.801   5.412   0.641 -1.9034  0.4406  1.0776
 9761SOL     OW30882   5.962   6.866   3.686 -0.0976 -0.4001 -0.1498
 9761SOL    HW130883   6.020   6.801   3.735  0.0036  0.1157  0.4235
 9761SOL    HW230884   5.916   6.926   3.751 -1.3429 -0.8503 -0.5824
 9762SOL     OW30885   1.822   5.103   1.589  0.1116  0.3315 -0.2520
 9762SOL    HW130886   1.882   5.046   1.645 -0.8154  1.0974  1.6269
 9762SOL    HW230887   1.874   5.140   1.512  2.1517  1.1171  1.3855
 9763SOL     OW30888   6.838   1.071   1.108 -0.1114 -0.5228 -0.3162
 9763SOL    HW130889   6.911   1.136   1.086 -0.8770 -0.1871 -1.9599
 9763SOL    HW230890   6.788   1.104   1.189  1.3068 -0.5885  0.6304
 9764SOL     OW30891   4.999   2.219   2.624  0.2140 -0.1516 -0.1141
 9764SOL    HW130892   5.033   2.154   2.556 -0.2746 -0.4648 -0.0607
 9764SOL    HW230893   4.926   2.177   2.677  1.6395 -0.4595  1.6865
 9765SOL     OW30894   5.407   3.358   2.670  0.6381 -0.3593 -0.5472
 9765SOL    HW130895   5.367   3.370   2.761  0.7896 -0.1952 -0.5020
 9765SOL    HW230896   5.414   3.260   2.650  2.5116 -0.4781  0.4905
 9766SOL     OW30897   6.385   1.936   5.473 -0.3460  0.3673  0.2709
 9766SOL    HW130898   6.419   1.842   5.477 -1.2878 -0.1585 -2.2289
 9766SOL    HW230899   6.303   1.945   5.528  0.2886  0.0035  1.3006
 9767SOL     OW30900   0.070   3.792   4.856  0.2972 -0.1025  0.3916
 9767SOL    HW130901   0.050   3.771   4.760  1.7024 -2.1021  0.4760
 9767SOL    HW230902   0.143   3.732   4.888  0.4310  1.1171  2.4894
 9768SOL     OW30903   3.327   4.894   4.971 -0.2493 -0.3382  0.0688
 9768SOL    HW130904   3.256   4.824   4.971 -0.6196  0.0341 -0.0270
 9768SOL    HW230905   3.336   4.933   4.879  1.7541 -2.0539 -0.5427
 9769SOL     OW30906   1.399   1.624   0.348 -0.2997  0.6859  0.4864
 9769SOL    HW130907   1.308   1.613   0.307  0.1570  1.7838 -0.9375
 9769SOL    HW230908   1.466   1.573   0.294  0.1650  1.2647  0.5029
 9770SOL     OW30909   1.548   0.565   6.125  0.3388  0.2791 -0.0741
 9770SOL    HW130910   1.613   0.523   6.188  1.2771  1.2286 -0.3797
 9770SOL    HW230911   1.466   0.507   6.118  0.8230 -0.5579  0.8908
 9771SOL     OW30912   1.305   3.799   3.268 -0.2182 -0.2794  0.2568
 9771SOL    HW130913   1.303   3.708   3.227 -1.6258  0.5134 -1.6008
 9771SOL    HW230914   1.372   3.856   3.221 -0.7256  0.1938  0.0946
 9772SOL     OW30915   4.428   3.713   0.365 -0.0719  0.7091 -0.3344
 9772SOL    HW130916   4.352   3.738   0.424  0.0049  0.3442 -0.0778
 9772SOL    HW230917   4.416   3.755   0.275 -0.9571  0.0697 -0.5297
 9773SOL     OW30918   6.421   3.745   4.243 -0.3848  0.1176  0.1013
 9773SOL    HW130919   6.360   3.796   4.183 -1.1148  0.1214  0.8229
 9773SOL    HW230920   6.454   3.805   4.316 -0.7275 -0.2745  0.5804
 9774SOL     OW30921   4.620   5.743   6.481  0.4056  0.1062 -0.5439
 9774SOL    HW130922   4.657   5.803   6.552 -0.9651 -0.7174  0.9512
 9774SOL    HW230923   4.589   5.658   6.523  0.4357 -0.8117 -2.3114
 9775SOL     OW30924   2.682   2.607   2.302 -0.1890  0.6693  0.0851
 9775SOL    HW130925   2.612   2.678   2.310  0.3826  1.2128  0.3713
 9775SOL    HW230926   2.690   2.558   2.389 -2.4985 -1.6302 -0.8638
 9776SOL     OW30927   4.364   0.227   1.806  0.3613  0.0720 -0.5270
 9776SOL    HW130928   4.379   0.154   1.872 -2.0158 -0.5525 -0.5981
 9776SOL    HW230929   4.374   0.191   1.713  0.8433  0.2541 -0.5486
 9777SOL     OW30930   0.125   4.205   1.157  0.3626 -0.0360 -0.1678
 9777SOL    HW130931   0.144   4.303   1.147  2.4070 -0.1708  1.6229
 9777SOL    HW230932   0.201   4.153   1.117  0.5574 -0.8132  1.1574
 9778SOL     OW30933   2.823   3.294   5.135  0.0960  0.0959  0.6566
 9778SOL    HW130934   2.848   3.273   5.229  1.3994  2.3156  0.8921
 9778SOL    HW230935   2.830   3.393   5.120 -2.1351  0.0577 -1.2061
 9779SOL     OW30936   5.569   1.139   3.036  0.3526 -0.1488 -0.1656
 9779SOL    HW130937   5.571   1.204   2.960  0.7249  0.4404  0.3300
 9779SOL    HW230938   5.569   1.190   3.123  0.3998 -0.8107  0.2285
 9780SOL     OW30939   6.436   3.240   4.103 -0.3590  0.3879 -0.5124
 9780SOL    HW130940   6.377   3.312   4.141 -0.8193 -1.0689  1.7185
 9780SOL    HW230941   6.396   3.151   4.123  1.4504 -0.5718 -0.9909
 9781SOL     OW30942   0.923   6.749   2.962 -0.1730  0.0706 -0.3031
 9781SOL    HW130943   0.828   6.719   2.955  0.3320 -1.5080 -0.6721
 9781SOL    HW230944   0.951   6.749   3.058  0.3017 -2.3463 -0.3779
 9782SOL     OW30945   4.563   0.283   0.229  0.3299  0.2620 -0.3829
 9782SOL    HW130946   4.478   0.276   0.282  0.9218 -0.4622  0.4859
 9782SOL    HW230947   4.541   0.284   0.132 -0.6233 -1.2063 -0.2177
 9783SOL     OW30948   4.752   0.565   6.670  0.3407  0.4348 -0.0484
 9783SOL    HW130949   4.794   0.554   6.760  0.0500 -0.3703  0.0021
 9783SOL    HW230950   4.772   0.656   6.634  0.7248  0.6481  0.6910
 9784SOL     OW30951   4.238   0.425   1.711  0.3345  0.1424 -0.5708
 9784SOL    HW130952   4.291   0.349   1.748  0.7119  0.6340 -0.0734
 9784SOL    HW230953   4.151   0.392   1.675  0.1915 -0.4233  0.2842
 9785SOL     OW30954   0.342   6.999   3.639  0.6212  0.3024 -0.6887
 9785SOL    HW130955   0.298   6.951   3.562 -1.8378  1.7967 -0.3411
 9785SOL    HW230956   0.389   7.080   3.605  1.4230 -0.2240 -0.8454
 9786SOL     OW30957   1.919   5.140   0.655 -0.4618  0.0911  0.2286
 9786SOL    HW130958   1.995   5.079   0.677 -0.0775  1.3326  2.7045
 9786SOL    HW230959   1.840   5.117   0.712 -0.7328  1.0755  0.2797
 9787SOL     OW30960   0.931   3.504   4.260 -0.3686 -0.4183  0.1527
 9787SOL    HW130961   0.835   3.501   4.288 -0.5195 -0.8374 -0.4106
 9787SOL    HW230962   0.961   3.413   4.233 -0.2750  0.0161 -1.2482
 9788SOL     OW30963   0.605   6.769   2.602 -0.0330 -0.3409 -0.3311
 9788SOL    HW130964   0.643   6.683   2.637  2.8135  0.2755 -1.6153
 9788SOL    HW230965   0.658   6.846   2.637 -2.5188  0.9984  0.7736
 9789SOL     OW30966   0.647   5.200   5.775 -0.1131 -0.3214 -0.4994
 9789SOL    HW130967   0.605   5.271   5.719 -0.7389 -0.9019 -0.7892
 9789SOL    HW230968   0.744   5.219   5.787 -0.5938  1.4738  0.8353
 9790SOL     OW30969   1.395   0.889   5.320 -0.1147  0.1124 -0.3940
 9790SOL    HW130970   1.474   0.839   5.355 -0.5711 -1.0773 -1.0128
 9790SOL    HW230971   1.423   0.982   5.295  1.4354 -0.7336 -2.0181
 9791SOL     OW30972   0.593   2.766   1.523 -0.2934  0.2984  0.1015
 9791SOL    HW130973   0.523   2.733   1.587  0.9044 -2.0244  0.2972
 9791SOL    HW230974   0.584   2.718   1.436 -0.0319  1.2870 -0.4853
 9792SOL     OW30975   1.143   1.101   3.057 -0.4004 -0.3992 -0.4282
 9792SOL    HW130976   1.054   1.138   3.081  0.3042  1.1015 -0.0234
 9792SOL    HW230977   1.191   1.074   3.141  0.7980  1.8816 -0.3026
 9793SOL     OW30978   1.902   4.467   0.398 -0.1614 -0.5647  0.3680
 9793SOL    HW130979   1.821   4.472   0.341  0.5975 -0.1219 -0.6966
 9793SOL    HW230980   1.957   4.387   0.372  1.5293  1.0959 -1.3977
 9794SOL     OW30981   0.281   2.938   6.174  0.4064 -0.2241 -0.4923
 9794SOL    HW130982   0.209   2.987   6.224 -0.4090 -1.7710 -0.0946
 9794SOL    HW230983   0.287   2.844   6.207  4.5248  0.5030  1.5102
 9795SOL     OW30984   5.811   6.863   1.909 -0.2995  0.0865 -0.3497
 9795SOL    HW130985   5.757   6.803   1.968 -2.2225  0.6641 -1.4121
 9795SOL    HW230986   5.784   6.958   1.925  0.4680  0.3972 -0.8613
 9796SOL     OW30987   6.880   3.582   6.470 -0.2590  0.5050  0.4143
 9796SOL    HW130988   6.970   3.615   6.442 -1.2476  1.9328 -1.3622
 9796SOL    HW230989   6.857   3.500   6.417  0.1706 -0.1306  1.2022
 9797SOL     OW30990   5.413   6.722   4.808  0.0597  0.0140 -0.5163
 9797SOL    HW130991   5.399   6.704   4.906 -0.2673 -1.1614 -0.7657
 9797SOL    HW230992   5.509   6.710   4.785 -0.1441 -1.4268 -0.6658
 9798SOL     OW30993   2.170   1.356   0.863 -0.1749  0.4258 -0.0497
 9798SOL    HW130994   2.243   1.342   0.930 -0.2172  0.4483  0.0012
 9798SOL    HW230995   2.172   1.451   0.831  1.5869 -0.2108 -2.1111
 9799SOL     OW30996   4.719   1.310   6.493  0.3828 -0.2765  0.0933
 9799SOL    HW130997   4.676   1.222   6.472  1.3372 -0.9470  0.8933
 9799SOL    HW230998   4.805   1.318   6.443  0.8741 -0.3189  0.9134
 9800SOL     OW30999   1.729   1.515   0.339  0.7953 -0.1428  0.1380
 9800SOL    HW131000   1.793   1.463   0.395  1.9246  1.0317 -0.0223
 9800SOL    HW231001   1.744   1.495   0.243 -0.5616 -1.4978  0.1725
 9801SOL     OW31002   5.536   4.498   0.617 -0.0185  0.3514 -0.0370
 9801SOL    HW131003   5.530   4.444   0.533 -0.1764  0.2018  0.0693
 9801SOL    HW231004   5.602   4.572   0.605  1.2572 -0.7005  0.2605
 9802SOL     OW31005   6.793   0.514   1.951 -0.2731 -0.6797  0.1104
 9802SOL    HW131006   6.703   0.484   1.920 -0.2530 -0.9440  0.3109
 9802SOL    HW231007   6.786   0.608   1.985  0.0736  0.4137 -2.5321
 9803SOL     OW31008   0.168   4.711   5.676  0.1515  0.1842 -0.4566
 9803SOL    HW131009   0.138   4.622   5.709  1.0423 -0.8085 -2.1413
 9803SOL    HW231010   0.126   4.784   5.730  0.9614 -1.2565  2.3116
 9804SOL     OW31011   4.137   3.716   0.024 -0.7136  0.4697  0.2872
 9804SOL    HW131012   4.216   3.773   0.045  0.1627 -0.6680  0.1810
 9804SOL    HW231013   4.107   3.735  -0.070 -0.0829  0.3634  0.0601
 9805SOL     OW31014   0.181   1.428   3.164  0.4576  0.0956 -0.2356
 9805SOL    HW131015   0.195   1.374   3.082  0.5858  0.4973 -0.4819
 9805SOL    HW231016   0.108   1.388   3.219 -0.2608  0.3496 -1.0022
 9806SOL     OW31017   3.724   2.463   5.011 -0.5887  0.0586 -0.3187
 9806SOL    HW131018   3.704   2.502   5.100  1.4889 -0.4588  0.4294
 9806SOL    HW231019   3.818   2.487   4.984 -0.6056 -1.1708 -1.5971
 9807SOL     OW31020   6.412   4.711   2.658  0.1051 -0.2741 -0.3666
 9807SOL    HW131021   6.386   4.807   2.665 -0.3521 -0.4533  0.4781
 9807SOL    HW231022   6.424   4.687   2.561  0.2674  0.6347 -0.5837
 9808SOL     OW31023   4.263   2.492   6.115  0.6674  0.1061  0.6298
 9808SOL    HW131024   4.302   2.487   6.023  2.3630  1.7008  1.2157
 9808SOL    HW231025   4.167   2.463   6.112  0.9256 -0.6741 -1.4689
 9809SOL     OW31026   0.757   2.377   0.782 -0.0655  0.5303  0.5614
 9809SOL    HW131027   0.815   2.458   0.769  0.7906 -0.0506  0.6608
 9809SOL    HW231028   0.798   2.318   0.852 -0.7371  0.0622  0.5661
 9810SOL     OW31029   0.985   5.445   5.341 -0.3089  0.2068 -0.1178
 9810SOL    HW131030   0.979   5.532   5.390 -0.2507  0.1960 -0.0911
 9810SOL    HW231031   0.947   5.456   5.249 -1.0473  0.0513  0.1595
 9811SOL     OW31032   4.400   0.547   5.717 -0.2576 -0.4327 -0.0705
 9811SOL    HW131033   4.445   0.600   5.789  0.2829 -0.1763 -0.5883
 9811SOL    HW231034   4.397   0.451   5.744  0.1659 -0.3788  0.1837
 9812SOL     OW31035   1.594   5.032   4.456 -0.0588  0.2016 -0.0720
 9812SOL    HW131036   1.596   4.941   4.414 -0.0334 -1.0602  2.4434
 9812SOL    HW231037   1.512   5.040   4.513  1.7898  0.1598  2.8184
 9813SOL     OW31038   2.565   2.127   2.355 -0.3697  0.7077 -0.3283
 9813SOL    HW131039   2.541   2.176   2.272 -1.7331  1.0329  0.2464
 9813SOL    HW231040   2.632   2.055   2.333 -1.7509 -0.1328 -1.9592
 9814SOL     OW31041   4.979   3.042   1.489 -0.4766  0.5350  0.0612
 9814SOL    HW131042   4.900   3.008   1.540 -0.7894  1.2862  0.0984
 9814SOL    HW231043   4.984   2.995   1.401 -1.9288  1.5783 -0.6272
 9815SOL     OW31044   2.155   4.534   1.702 -0.3282 -0.2485 -0.2922
 9815SOL    HW131045   2.094   4.574   1.770 -0.8608 -0.7904 -0.4373
 9815SOL    HW231046   2.204   4.457   1.743 -2.1554 -1.8952 -1.0295
 9816SOL     OW31047   0.576   5.294   0.098  0.0197  0.0962 -0.0875
 9816SOL    HW131048   0.492   5.343   0.119  0.1838  0.4037 -0.1426
 9816SOL    HW231049   0.615   5.257   0.182 -0.3838 -0.3979 -0.1144
 9817SOL     OW31050   3.078   2.938   3.340 -0.1732  0.4271  0.5085
 9817SOL    HW131051   2.979   2.946   3.329 -0.1611 -0.2716 -0.2244
 9817SOL    HW231052   3.118   2.899   3.257  0.6999  0.5693  0.8506
 9818SOL     OW31053   0.875   4.369   0.543 -1.0221  0.4889  0.3357
 9818SOL    HW131054   0.940   4.432   0.501 -1.9384  1.2040 -0.0443
 9818SOL    HW231055   0.786   4.380   0.500 -1.2329 -0.9902  0.3546
 9819SOL     OW31056   6.629   1.057   1.599  0.1300  0.8511 -0.2791
 9819SOL    HW131057   6.700   0.993   1.568 -0.1616  0.5649 -0.3597
 9819SOL    HW231058   6.563   1.009   1.656 -0.1381  1.0639 -0.4079
 9820SOL     OW31059   6.293   3.613   4.477 -0.2074 -0.3876  0.4131
 9820SOL    HW131060   6.203   3.577   4.451 -0.0910  0.0987 -0.7234
 9820SOL    HW231061   6.346   3.632   4.395  0.6780 -0.0142  1.0605
 9821SOL     OW31062   0.480   6.367   6.714  0.1630  0.3344  0.0855
 9821SOL    HW131063   0.557   6.385   6.775  0.8052 -0.9786 -0.3179
 9821SOL    HW231064   0.444   6.275   6.730 -0.7427  0.5927 -0.3693
 9822SOL     OW31065   1.541   3.543   4.697 -0.2552 -0.0534 -0.3455
 9822SOL    HW131066   1.529   3.552   4.796  0.1610 -0.5895 -0.2408
 9822SOL    HW231067   1.563   3.448   4.675 -2.1485 -0.3510 -1.1487
 9823SOL     OW31068   6.265   0.655   5.191  0.4990  0.0409 -0.1447
 9823SOL    HW131069   6.319   0.739   5.187  0.5853  0.0262  0.7159
 9823SOL    HW231070   6.234   0.632   5.098 -1.6607  2.4188 -0.1360
 9824SOL     OW31071   4.755   2.592   0.127 -0.3717 -0.3827 -0.4588
 9824SOL    HW131072   4.705   2.550   0.052 -1.2719  0.2761 -0.2502
 9824SOL    HW231073   4.706   2.576   0.213  0.0517 -0.1761 -0.1723
 9825SOL     OW31074   2.646   5.440   6.740  0.3060 -0.4300  0.6440
 9825SOL    HW131075   2.744   5.430   6.723  0.6558 -0.7427  2.6185
 9825SOL    HW231076   2.627   5.423   6.836 -1.3816  1.9092  0.7988
 9826SOL     OW31077   0.510   0.855   0.962  0.5080 -0.1701  0.0819
 9826SOL    HW131078   0.448   0.854   0.883  3.1475  2.3616 -2.2746
 9826SOL    HW231079   0.586   0.792   0.946  1.0613  0.3571  0.5516
 9827SOL     OW31080   4.830   1.634   4.673  0.2988  0.3623 -0.1620
 9827SOL    HW131081   4.826   1.571   4.751  0.0652  2.9547  2.0900
 9827SOL    HW231082   4.747   1.625   4.619  0.1826 -1.0967  0.2013
 9828SOL     OW31083   6.651   0.829   4.461 -0.0274 -0.5754  0.1591
 9828SOL    HW131084   6.598   0.872   4.534 -2.2648  0.8732 -2.1372
 9828SOL    HW231085   6.741   0.873   4.455 -0.7617  1.0559  0.4593
 9829SOL     OW31086   0.381   3.529   2.507 -0.2064 -0.0306 -0.7063
 9829SOL    HW131087   0.411   3.610   2.457 -0.6626  0.0828 -0.8070
 9829SOL    HW231088   0.298   3.493   2.464 -1.3153  0.7764  0.6681
 9830SOL     OW31089   0.481   6.416   6.220  0.6629  0.2780 -0.4188
 9830SOL    HW131090   0.517   6.496   6.172  1.0928  1.6305  2.0372
 9830SOL    HW231091   0.383   6.407   6.201  0.7012  1.1226 -1.0581
 9831SOL     OW31092   1.189   1.310   1.221  0.6863  0.0241 -1.1296
 9831SOL    HW131093   1.190   1.404   1.255  1.0022  0.0336 -1.1572
 9831SOL    HW231094   1.106   1.264   1.252  2.0900 -0.7650  1.9019
 9832SOL     OW31095   3.892   0.672   2.555  0.3192  0.2732  0.4218
 9832SOL    HW131096   3.819   0.621   2.510  0.8057  0.4591 -0.6183
 9832SOL    HW231097   3.913   0.754   2.502  1.7470 -0.1302  0.3277
 9833SOL     OW31098   5.690   3.859   1.281 -0.2726 -0.8153  0.0438
 9833SOL    HW131099   5.761   3.797   1.312  1.0743  0.0485 -1.1776
 9833SOL    HW231100   5.689   3.861   1.181 -0.0982  1.2926  0.0383
 9834SOL     OW31101   2.611   6.406   5.026  0.6457 -0.6127 -0.6614
 9834SOL    HW131102   2.681   6.413   4.955 -1.3430  1.4746 -2.5533
 9834SOL    HW231103   2.636   6.466   5.102  1.6109 -1.0038 -0.6545
 9835SOL     OW31104   3.801   0.874   5.805  0.1868 -0.0604 -0.2776
 9835SOL    HW131105   3.828   0.852   5.711  1.7116  0.9163 -0.0992
 9835SOL    HW231106   3.746   0.957   5.805  2.0573  1.2416 -0.1585
 9836SOL     OW31107   3.867   4.763   4.649 -0.2537  0.1871  0.0092
 9836SOL    HW131108   3.961   4.795   4.657 -0.2053  0.0724 -0.0958
 9836SOL    HW231109   3.815   4.826   4.592 -0.1240  0.0083 -0.3106
 9837SOL     OW31110   0.243   6.318   4.867  0.5537  0.5840 -0.0897
 9837SOL    HW131111   0.269   6.412   4.845  1.2776  0.4551  0.1902
 9837SOL    HW231112   0.245   6.262   4.784 -1.1625  1.0780 -0.5219
 9838SOL     OW31113   5.906   2.957   6.538 -0.4907  0.9632 -0.3153
 9838SOL    HW131114   5.978   2.957   6.607 -0.1947 -0.7869 -0.5525
 9838SOL    HW231115   5.947   2.974   6.448 -0.1805 -0.7851 -0.5549
 9839SOL     OW31116   5.934   3.764   3.095  0.4241 -0.5144  0.5381
 9839SOL    HW131117   6.006   3.703   3.064 -0.8082 -1.5617 -0.3700
 9839SOL    HW231118   5.898   3.815   3.017  0.1444 -0.0190  0.9794
 9840SOL     OW31119   3.885   0.893   2.405 -0.0052  0.3942 -0.5185
 9840SOL    HW131120   3.934   0.913   2.320  1.6245  0.6188  0.4363
 9840SOL    HW231121   3.854   0.978   2.446 -2.2212  0.1984 -1.6495
 9841SOL     OW31122   1.457   2.624   4.503  0.8470  0.1725 -0.6932
 9841SOL    HW131123   1.375   2.575   4.532  0.1948  2.2321  1.2035
 9841SOL    HW231124   1.445   2.656   4.408 -1.6631  2.4744  0.2619
 9842SOL     OW31125   3.397   2.105   2.599  0.5514 -0.4040  0.2039
 9842SOL    HW131126   3.403   2.140   2.692  0.7556  0.1895 -0.0234
 9842SOL    HW231127   3.391   2.182   2.535 -0.2647 -0.8120 -0.2286
 9843SOL     OW31128   1.088   0.232   3.813  0.3755  0.0189  0.0275
 9843SOL    HW131129   1.154   0.274   3.751  0.3037  0.8513  0.5043
 9843SOL    HW231130   1.133   0.209   3.899  0.5153 -1.2880 -0.3734
 9844SOL     OW31131   5.405   5.236   1.297  0.2310  0.6644 -0.5012
 9844SOL    HW131132   5.442   5.324   1.326  2.0986 -0.3649  0.3846
 9844SOL    HW231133   5.435   5.217   1.203 -0.1546  0.9272 -0.6850
 9845SOL     OW31134   5.110   2.169   6.278  0.2301 -0.7418  0.7186
 9845SOL    HW131135   5.135   2.085   6.325  1.6069  0.1124  1.5757
 9845SOL    HW231136   5.188   2.202   6.225 -0.7088 -0.6876 -0.7009
 9846SOL     OW31137   1.275   4.508   6.858  0.3302 -0.0228 -0.1639
 9846SOL    HW131138   1.303   4.553   6.774 -0.4977  0.6608 -0.0880
 9846SOL    HW231139   1.197   4.448   6.840  0.1679  0.1054  0.0979
 9847SOL     OW31140   4.458   6.702   6.889 -0.1624  0.3548 -0.5173
 9847SOL    HW131141   4.475   6.784   6.835  2.1600  0.7078  0.6196
 9847SOL    HW231142   4.448   6.728   6.986 -2.4122 -0.4434 -0.4723
 9848SOL     OW31143   6.970   5.978   6.184 -0.1073 -0.4613  0.1439
 9848SOL    HW131144   6.888   6.031   6.206  0.1996  1.4688 -2.7919
 9848SOL    HW231145   7.049   6.018   6.231 -0.2894  0.0298  0.0413
 9849SOL     OW31146   1.225   2.706   1.477 -0.0685  0.1417  0.2923
 9849SOL    HW131147   1.304   2.647   1.493  1.2239  1.4010 -1.1988
 9849SOL    HW231148   1.166   2.665   1.407  1.4229  1.0534 -1.5969
 9850SOL     OW31149   0.547   0.339   6.796  0.0026  0.9839 -0.0221
 9850SOL    HW131150   0.632   0.288   6.806  1.2082  3.2219  2.1145
 9850SOL    HW231151   0.504   0.351   6.886 -1.5371  1.6170 -0.7995
 9851SOL     OW31152   2.343   4.730   5.464  0.2117 -0.1585  0.1833
 9851SOL    HW131153   2.270   4.792   5.492  0.2897 -0.2454  0.5878
 9851SOL    HW231154   2.429   4.781   5.460  0.5216 -0.4895  1.7663
 9852SOL     OW31155   5.964   2.118   1.006  0.1638  0.5273 -0.3481
 9852SOL    HW131156   6.022   2.073   0.939  0.6477  1.3200 -0.4805
 9852SOL    HW231157   6.004   2.107   1.097 -1.8200 -2.8010  0.2783
 9853SOL     OW31158   4.536   1.743   6.494 -0.2243 -0.5976 -0.0109
 9853SOL    HW131159   4.496   1.674   6.434  0.9102 -1.1608 -0.1474
 9853SOL    HW231160   4.540   1.831   6.446 -1.4868 -0.4625  0.0949
 9854SOL     OW31161   3.753   4.188   4.742 -0.2066  0.4403  0.3103
 9854SOL    HW131162   3.792   4.250   4.674 -0.2505  0.0787 -0.0454
 9854SOL    HW231163   3.769   4.225   4.834  2.3248 -0.4028  0.2913
 9855SOL     OW31164   3.812   3.127   6.113  0.1141 -0.2423 -0.3716
 9855SOL    HW131165   3.850   3.040   6.081 -2.0187 -0.4823 -2.5297
 9855SOL    HW231166   3.873   3.202   6.088  0.8148 -0.8947 -0.6475
 9856SOL     OW31167   5.080   3.127   3.078  0.2220  0.5181 -0.3285
 9856SOL    HW131168   5.159   3.155   3.133 -0.4534 -0.9215  1.5084
 9856SOL    HW231169   5.053   3.201   3.016  2.8870  1.0968 -0.9049
 9857SOL     OW31170   2.825   1.983   0.195  0.2146 -0.3280  0.1956
 9857SOL    HW131171   2.800   1.993   0.292 -1.1155  1.9844 -0.3202
 9857SOL    HW231172   2.743   1.988   0.139  1.0860 -0.4748 -1.1367
 9858SOL     OW31173   6.309   3.506   3.212 -0.5865 -0.1279  0.2082
 9858SOL    HW131174   6.292   3.414   3.248  0.7430 -0.1269  0.8800
 9858SOL    HW231175   6.328   3.569   3.287  1.5418  0.0205 -0.3994
 9859SOL     OW31176   4.443   2.577   0.449 -0.5958 -0.6905  0.1999
 9859SOL    HW131177   4.375   2.504   0.452 -1.2251 -0.1589 -0.5982
 9859SOL    HW231178   4.529   2.543   0.411 -0.7388 -1.1204  0.2652
 9860SOL     OW31179   5.812   4.626   6.945  0.4899  0.2687 -0.2107
 9860SOL    HW131180   5.780   4.537   6.976 -0.0981  0.7393  0.5772
 9860SOL    HW231181   5.877   4.614   6.869  0.7326 -0.8358  0.1522
 9861SOL     OW31182   6.634   4.303   4.680  0.3423  0.1076 -0.0619
 9861SOL    HW131183   6.607   4.293   4.584  2.8765 -0.9049 -0.7610
 9861SOL    HW231184   6.711   4.367   4.686 -0.5728  1.1270  1.4995
 9862SOL     OW31185   1.940   2.989   2.236 -0.2325  0.1080  0.1063
 9862SOL    HW131186   1.847   2.963   2.212 -0.9635  0.6760  2.0752
 9862SOL    HW231187   1.957   2.969   2.333  1.0837  1.5994  0.2489
 9863SOL     OW31188   6.515   3.523   5.009  0.7670  0.0669  0.2910
 9863SOL    HW131189   6.444   3.571   5.062 -0.9272 -0.4602 -1.3870
 9863SOL    HW231190   6.547   3.583   4.936  0.7280 -0.3401 -0.0614
 9864SOL     OW31191   3.084   0.585   6.580 -0.2071 -0.2609 -0.4002
 9864SOL    HW131192   3.169   0.551   6.542 -1.0764 -1.9120 -0.9895
 9864SOL    HW231193   3.056   0.668   6.533  0.9562  0.1795 -0.3297
 9865SOL     OW31194   0.138   5.624   3.893  0.1043 -0.3076  0.3874
 9865SOL    HW131195   0.185   5.540   3.920  2.3052  0.3834 -1.0305
 9865SOL    HW231196   0.126   5.625   3.793  2.4633  2.0876  0.0044
 9866SOL     OW31197   0.474   5.423   2.878  0.0866 -0.3215 -0.0123
 9866SOL    HW131198   0.407   5.497   2.876 -1.6929 -1.8585 -1.4852
 9866SOL    HW231199   0.483   5.390   2.972 -1.6663 -0.4022  0.1703
 9867SOL     OW31200   6.263   6.805   5.615  0.4266 -0.2914 -0.2472
 9867SOL    HW131201   6.312   6.722   5.588  2.1789  0.8205 -0.6587
 9867SOL    HW231202   6.235   6.856   5.534  0.0783 -0.0708  0.0064
 9868SOL     OW31203   1.095   2.102   0.408  0.4219 -0.4857 -1.0917
 9868SOL    HW131204   1.020   2.126   0.469  0.4603  2.5000 -2.0433
 9868SOL    HW231205   1.179   2.147   0.440  1.4912 -2.5089 -0.9094
 9869SOL     OW31206   6.478   3.972   4.725  0.3513 -0.4571 -0.1092
 9869SOL    HW131207   6.503   4.023   4.808  0.3685  1.8683 -1.4684
 9869SOL    HW231208   6.560   3.959   4.669 -0.4477  3.3421 -2.5109
 9870SOL     OW31209   3.042   3.446   0.441 -0.1026  0.3195 -0.0711
 9870SOL    HW131210   3.070   3.535   0.478 -0.9348  1.2068 -1.5055
 9870SOL    HW231211   2.952   3.453   0.398 -2.2918 -2.2352  3.5153
 9871SOL     OW31212   3.869   2.631   0.756  0.3383 -0.7473  0.6226
 9871SOL    HW131213   3.964   2.637   0.725  0.2537  1.8650  0.6173
 9871SOL    HW231214   3.814   2.699   0.707 -1.2041 -1.1108  1.7653
 9872SOL     OW31215   3.211   1.896   1.583 -0.2482  0.3117 -0.2482
 9872SOL    HW131216   3.293   1.941   1.619  0.3129 -0.2923 -0.7684
 9872SOL    HW231217   3.166   1.957   1.517  0.7918 -0.0754 -1.3404
 9873SOL     OW31218   6.915   1.204   3.880 -0.2159  0.0195  0.8008
 9873SOL    HW131219   6.852   1.141   3.926 -1.7992  1.5916  0.8674
 9873SOL    HW231220   6.870   1.292   3.866  0.7923  0.1523 -2.2260
 9874SOL     OW31221   2.527   4.689   6.924  0.0287  0.7714  0.1162
 9874SOL    HW131222   2.446   4.631   6.922  0.4491  0.1880 -0.3786
 9874SOL    HW231223   2.607   4.634   6.950  0.2997  1.3005  0.4226
 9875SOL     OW31224   1.607   0.807   5.466  0.1223 -0.0999  0.4236
 9875SOL    HW131225   1.684   0.749   5.438 -0.0324  0.0828 -0.3910
 9875SOL    HW231226   1.560   0.764   5.544 -0.7657 -1.7433 -0.9379
 9876SOL     OW31227   3.389   5.224   1.947 -0.0151 -0.4352 -0.2584
 9876SOL    HW131228   3.472   5.246   1.897 -1.6807  0.9415 -2.6606
 9876SOL    HW231229   3.346   5.143   1.907 -0.6223 -0.2053 -0.0905
 9877SOL     OW31230   1.517   3.060   3.581 -0.1543  0.5017 -0.4573
 9877SOL    HW131231   1.527   3.039   3.484  0.5503  0.6842 -0.4301
 9877SOL    HW231232   1.602   3.100   3.615 -0.7140  1.3253  0.0064
 9878SOL     OW31233   3.393   1.734   6.082  0.1063  0.3755 -0.0618
 9878SOL    HW131234   3.395   1.681   5.997 -1.2166  0.4703 -0.1712
 9878SOL    HW231235   3.312   1.792   6.083  0.3182  0.6718  1.0970
 9879SOL     OW31236   4.885   0.758   3.217  0.1467 -0.7625 -0.7905
 9879SOL    HW131237   4.954   0.695   3.251 -0.6186 -0.5920  1.1734
 9879SOL    HW231238   4.798   0.710   3.204  0.6012 -1.0480 -3.5430
 9880SOL     OW31239   2.144   6.243   1.198  0.3182  0.1947 -0.1948
 9880SOL    HW131240   2.164   6.145   1.194  0.1454  0.1893 -2.1870
 9880SOL    HW231241   2.211   6.289   1.256  2.3524 -0.6777 -1.7342
 9881SOL     OW31242   5.767   1.805   6.045 -0.3673 -0.1836  0.0789
 9881SOL    HW131243   5.706   1.841   6.115 -0.4144 -0.6262  0.2718
 9881SOL    HW231244   5.747   1.708   6.030 -0.9958  0.1376 -1.2377
 9882SOL     OW31245   4.310   4.013   3.863 -0.3229  0.5492 -0.2888
 9882SOL    HW131246   4.219   4.011   3.906  0.3131  1.3498  1.1900
 9882SOL    HW231247   4.305   3.971   3.773 -2.5705  2.2662 -1.0587
 9883SOL     OW31248   4.841   3.216   4.071  0.1982 -0.0548 -0.5124
 9883SOL    HW131249   4.851   3.136   4.012  0.9016 -0.1076 -0.3326
 9883SOL    HW231250   4.782   3.283   4.027  0.8361 -0.0320 -1.3441
 9884SOL     OW31251   6.906   5.699   6.939 -0.5886 -0.1284  0.1678
 9884SOL    HW131252   6.884   5.659   7.028 -0.3860 -1.0251 -0.1732
 9884SOL    HW231253   6.854   5.652   6.867  0.7806 -0.8238 -0.4093
 9885SOL     OW31254   6.540   5.619   3.288 -0.0471 -0.1578 -0.2207
 9885SOL    HW131255   6.516   5.710   3.324 -1.3887 -0.2601 -0.7791
 9885SOL    HW231256   6.629   5.592   3.323  1.3289  2.2351 -1.6007
 9886SOL     OW31257   5.983   2.290   2.518  0.4385  0.0351 -0.1667
 9886SOL    HW131258   5.926   2.216   2.553 -2.5190  0.4549 -3.5558
 9886SOL    HW231259   6.023   2.263   2.431  1.7719  1.4347 -0.0272
 9887SOL     OW31260   3.474   6.491   0.090 -0.5072  0.3369 -0.4561
 9887SOL    HW131261   3.543   6.420   0.080  0.0714  0.7322  0.5798
 9887SOL    HW231262   3.436   6.514   0.000  0.6905  0.0942 -1.0432
 9888SOL     OW31263   0.352   1.579   2.487  0.7178 -0.0976 -0.3897
 9888SOL    HW131264   0.299   1.594   2.403  1.1188  0.4650 -0.5477
 9888SOL    HW231265   0.291   1.546   2.559  0.4819 -1.2187 -1.0791
 9889SOL     OW31266   6.217   2.227   5.372  0.1631  0.2796  0.2254
 9889SOL    HW131267   6.231   2.152   5.436 -1.8448 -0.3152  0.0401
 9889SOL    HW231268   6.248   2.200   5.281  1.0970  0.3567  0.5137
 9890SOL     OW31269   0.755   1.206   5.670  0.2513  0.5089  0.1420
 9890SOL    HW131270   0.673   1.150   5.658 -0.9961  1.6468  2.5944
 9890SOL    HW231271   0.827   1.151   5.711  0.8352 -0.5199 -2.1033
 9891SOL     OW31272   0.941   2.776   1.830 -0.4455 -0.3227  0.4959
 9891SOL    HW131273   0.899   2.855   1.785 -0.0135 -0.1261  0.4339
 9891SOL    HW231274   1.040   2.788   1.832 -0.4494 -0.3430  1.4687
 9892SOL     OW31275   4.002   4.928   2.388  0.6483 -0.1881  0.3024
 9892SOL    HW131276   4.050   5.014   2.406 -0.4522  0.1096  2.0061
 9892SOL    HW231277   3.965   4.931   2.295  0.0235  1.4958  0.5643
 9893SOL     OW31278   1.562   4.096   6.479  0.3591  0.0438 -0.1281
 9893SOL    HW131279   1.494   4.076   6.408  1.4221 -0.4598 -1.0384
 9893SOL    HW231280   1.626   4.020   6.486  1.1963  0.7708  0.2809
 9894SOL     OW31281   1.618   2.183   1.842  0.2016 -0.0506 -0.2676
 9894SOL    HW131282   1.618   2.115   1.916 -0.7022 -0.3038 -0.4878
 9894SOL    HW231283   1.524   2.212   1.825  0.6525  1.9939  0.4886
 9895SOL     OW31284   5.653   6.660   4.421  0.4114  0.3869  0.2266
 9895SOL    HW131285   5.563   6.694   4.395  0.0133  1.6534  2.9494
 9895SOL    HW231286   5.711   6.736   4.447  1.2630 -0.6235  1.3974
 9896SOL     OW31287   5.549   1.200   5.886 -0.2534 -0.2279 -0.2604
 9896SOL    HW131288   5.585   1.107   5.883  1.7749  0.5078  0.1706
 9896SOL    HW231289   5.621   1.265   5.864 -1.1015  1.3747  1.4303
 9897SOL     OW31290   6.324   3.737   6.078  0.4536 -0.2449  0.2986
 9897SOL    HW131291   6.398   3.672   6.059  1.2151  0.2500  1.4306
 9897SOL    HW231292   6.243   3.712   6.025  1.7395 -0.1990 -1.8015
 9898SOL     OW31293   3.372   3.528   3.424  0.1479  0.6744  0.2750
 9898SOL    HW131294   3.327   3.600   3.372 -0.1163  0.2870 -0.0472
 9898SOL    HW231295   3.331   3.439   3.400  2.7697 -0.0583 -2.0111
 9899SOL     OW31296   5.481   3.739   3.018  0.7688 -0.0374  0.4316
 9899SOL    HW131297   5.511   3.662   3.073  2.1460 -0.5397 -0.9314
 9899SOL    HW231298   5.460   3.817   3.077 -0.8550 -1.4840  1.8480
 9900SOL     OW31299   5.699   5.664   4.815  0.5424 -0.1363  0.1997
 9900SOL    HW131300   5.674   5.587   4.757 -1.2465  0.0276  0.6964
 9900SOL    HW231301   5.637   5.741   4.798  1.2304  0.5995  0.9190
 9901SOL     OW31302   1.005   1.455   2.243 -0.7205 -0.2705  0.8405
 9901SOL    HW131303   0.972   1.370   2.204  0.1919 -0.5839  0.7206
 9901SOL    HW231304   1.090   1.482   2.198 -0.4660  0.1681  1.5558
 9902SOL     OW31305   0.740   3.562   0.551 -0.1833  0.0941 -0.2597
 9902SOL    HW131306   0.710   3.467   0.551  1.9807 -0.6613 -1.0485
 9902SOL    HW231307   0.718   3.603   0.462 -0.9708  0.2946  0.0217
 9903SOL     OW31308   3.086   1.250   0.975  0.0831  0.0639  0.2395
 9903SOL    HW131309   3.119   1.195   0.899  0.1564 -1.1755  1.1435
 9903SOL    HW231310   3.162   1.268   1.038 -0.2850 -0.1234  0.7387
 9904SOL     OW31311   0.573   3.175   2.354  0.6678 -0.0746 -0.9978
 9904SOL    HW131312   0.624   3.114   2.294  2.1956  0.7072 -0.5640
 9904SOL    HW231313   0.561   3.264   2.310  0.1873 -0.0711 -0.8651
 9905SOL     OW31314   1.436   5.421   6.476  0.6520  0.1763  0.5267
 9905SOL    HW131315   1.446   5.445   6.379 -0.3296  0.3641  0.4648
 9905SOL    HW231316   1.526   5.407   6.516  1.0795  0.3298 -0.3576
 9906SOL     OW31317   4.618   3.434   5.141  0.0364 -0.6314 -0.2469
 9906SOL    HW131318   4.689   3.372   5.175  0.4534 -1.1224 -1.8988
 9906SOL    HW231319   4.655   3.488   5.065 -1.4415 -1.1501 -1.3847
 9907SOL     OW31320   5.891   0.253   3.660  0.4243  0.3372  0.2687
 9907SOL    HW131321   5.942   0.226   3.579 -0.4410  0.6069 -0.3842
 9907SOL    HW231322   5.881   0.174   3.722  2.8984  0.6424  1.1452
 9908SOL     OW31323   4.726   3.521   0.441  0.2115 -0.3645 -0.0535
 9908SOL    HW131324   4.786   3.442   0.440  0.1919 -0.3915 -1.4571
 9908SOL    HW231325   4.748   3.581   0.363 -1.0865 -0.0125 -0.1803
 9909SOL     OW31326   5.281   2.276   6.093 -0.3045  0.1205 -0.4877
 9909SOL    HW131327   5.344   2.350   6.118 -1.0810  0.5166  0.3963
 9909SOL    HW231328   5.209   2.313   6.034 -0.7145  0.0879 -0.0142
 9910SOL     OW31329   3.538   3.962   3.592 -0.5544 -0.3029 -0.3067
 9910SOL    HW131330   3.622   3.967   3.646  0.2873 -0.7612 -1.5407
 9910SOL    HW231331   3.478   3.891   3.629 -0.0894 -0.4591  0.1472
 9911SOL     OW31332   3.573   0.069   3.619  0.3170 -0.4825 -0.6167
 9911SOL    HW131333   3.662   0.032   3.594 -0.0968 -2.3938  0.5887
 9911SOL    HW231334   3.584   0.136   3.692  0.7223 -1.0163 -0.1842
 9912SOL     OW31335   4.280   1.222   0.323  0.1387  0.7925 -0.4043
 9912SOL    HW131336   4.379   1.236   0.318 -0.0703  2.0909 -1.6441
 9912SOL    HW231337   4.242   1.277   0.397  0.6120 -1.8303  1.9763
 9913SOL     OW31338   0.766   6.737   6.674  0.2982 -0.7171  0.3167
 9913SOL    HW131339   0.679   6.786   6.673  1.0203  0.6244  0.7931
 9913SOL    HW231340   0.815   6.755   6.589  0.2264 -1.2594  0.1588
 9914SOL     OW31341   6.010   2.272   0.749 -0.3524 -0.3098 -0.1525
 9914SOL    HW131342   6.043   2.329   0.673 -0.3457 -0.3165 -0.1546
 9914SOL    HW231343   5.916   2.300   0.772  0.7055  1.8410  1.9255
 9915SOL     OW31344   1.855   5.314   1.001  0.7828  0.1282  0.5579
 9915SOL    HW131345   1.898   5.358   0.922 -0.8045 -0.3969 -0.6354
 9915SOL    HW231346   1.882   5.218   1.004  0.6178  0.0801  0.4923
 9916SOL     OW31347   1.448   5.750   1.026  0.1420 -0.1321  0.1474
 9916SOL    HW131348   1.470   5.790   0.937 -1.4698 -0.7159 -0.5502
 9916SOL    HW231349   1.436   5.651   1.016  0.5286 -0.2933  1.1484
 9917SOL     OW31350   1.712   2.953   0.215 -0.4097 -0.4920 -0.6244
 9917SOL    HW131351   1.725   2.857   0.188 -0.9497 -1.1740  1.3736
 9917SOL    HW231352   1.622   2.964   0.257  0.7391  0.2170  1.7995
 9918SOL     OW31353   0.515   0.667   1.254  0.0314  0.3151 -0.5511
 9918SOL    HW131354   0.515   0.630   1.347  1.1025 -0.9666 -1.0234
 9918SOL    HW231355   0.456   0.747   1.250  0.3889  0.7231  1.3562
 9919SOL     OW31356   6.739   3.884   3.729  0.0444  0.2792  0.0383
 9919SOL    HW131357   6.722   3.842   3.640 -0.6052  0.0326  0.2721
 9919SOL    HW231358   6.680   3.965   3.739 -0.1780  0.0743  0.4021
 9920SOL     OW31359   3.215   1.262   0.692 -0.0998 -0.3619 -0.1198
 9920SOL    HW131360   3.259   1.319   0.761  1.6709 -1.8173  0.0284
 9920SOL    HW231361   3.117   1.284   0.687  0.3510  2.0177  0.5193
 9921SOL     OW31362   2.043   0.763   2.628 -0.6717  0.0018  0.4905
 9921SOL    HW131363   2.100   0.717   2.559 -1.4112 -0.0580 -0.0813
 9921SOL    HW231364   2.103   0.806   2.696  0.1186  1.5179 -1.0965
 9922SOL     OW31365   1.994   3.325   5.646  0.3288  0.0756  0.6993
 9922SOL    HW131366   1.977   3.357   5.739  1.0527  0.3700  0.7320
 9922SOL    HW231367   1.976   3.399   5.581 -0.0129 -0.0807  0.6077
 9923SOL     OW31368   6.254   0.039   0.940  0.0051 -0.4730  0.8729
 9923SOL    HW131369   6.246   0.109   0.869 -0.6123 -0.9641  0.4514
 9923SOL    HW231370   6.164   0.007   0.967  0.2491 -0.5323  1.6471
 9924SOL     OW31371   6.724   6.038   5.211  0.4972  0.0182 -0.4053
 9924SOL    HW131372   6.771   6.019   5.297  0.8982  1.5648 -0.2492
 9924SOL    HW231373   6.788   6.029   5.135  1.0900  2.0278 -0.2014
 9925SOL     OW31374   5.217   1.819   6.729 -0.0046 -0.4480  0.3388
 9925SOL    HW131375   5.290   1.887   6.731 -0.0465 -0.3773 -0.4646
 9925SOL    HW231376   5.225   1.764   6.646  0.0554 -1.4530  0.9973
 9926SOL     OW31377   5.960   1.778   2.945  0.4512  0.1156 -0.5685
 9926SOL    HW131378   5.938   1.858   3.000  0.9213 -0.4410  0.4627
 9926SOL    HW231379   6.039   1.731   2.985  0.6102 -0.4751 -1.5525
 9927SOL     OW31380   0.645   6.219   2.680  0.5716  0.4254 -0.4432
 9927SOL    HW131381   0.612   6.165   2.603  2.3602 -0.3615 -0.7298
 9927SOL    HW231382   0.645   6.316   2.656  0.7679  0.2181 -1.3209
 9928SOL     OW31383   0.636   2.174   4.094  0.6202  0.1217  0.4295
 9928SOL    HW131384   0.653   2.076   4.093 -0.6271 -0.1116  0.3125
 9928SOL    HW231385   0.572   2.198   4.021  1.1999  1.0839  0.2122
 9929SOL     OW31386   4.593   6.513   1.042  0.0488 -0.5291 -0.4557
 9929SOL    HW131387   4.655   6.448   1.000 -0.0516 -0.6521 -0.4125
 9929SOL    HW231388   4.521   6.538   0.977  1.5248  1.5243 -1.4231
 9930SOL     OW31389   6.292   2.624   3.362  0.6720  0.2670  0.0397
 9930SOL    HW131390   6.369   2.562   3.377  0.5041  0.2955  1.0727
 9930SOL    HW231391   6.298   2.701   3.426 -0.1432  0.3446  0.0336
 9931SOL     OW31392   2.733   1.701   1.822 -0.0937  0.3267  0.0408
 9931SOL    HW131393   2.673   1.703   1.742 -1.5872  2.0336  1.1364
 9931SOL    HW231394   2.768   1.793   1.839  0.6629 -0.1257  1.0294
 9932SOL     OW31395   2.087   6.227   6.822  0.2051 -0.8580 -0.1014
 9932SOL    HW131396   2.003   6.276   6.847  0.1188 -1.8256  1.7105
 9932SOL    HW231397   2.081   6.199   6.726  0.0137  2.0538 -1.0401
 9933SOL     OW31398   1.704   3.524   2.512  0.0885 -0.2436 -0.2624
 9933SOL    HW131399   1.653   3.439   2.525  0.0503 -0.2002 -0.1292
 9933SOL    HW231400   1.674   3.568   2.427 -2.7551  1.6511  1.5615
 9934SOL     OW31401   2.682   0.743   2.871 -0.5507 -0.1914 -0.6590
 9934SOL    HW131402   2.697   0.651   2.907 -0.3470 -0.2246 -0.8299
 9934SOL    HW231403   2.658   0.804   2.947  1.3044  0.0540 -0.2403
 9935SOL     OW31404   3.014   3.032   5.691  0.2005 -0.2858  0.3940
 9935SOL    HW131405   3.022   2.939   5.655 -2.4260 -0.7149  0.7454
 9935SOL    HW231406   3.054   3.036   5.782  1.9876 -0.5485 -0.3241
 9936SOL     OW31407   3.537   4.879   2.904  0.1873 -0.0777 -0.2060
 9936SOL    HW131408   3.537   4.878   2.804 -2.1758  2.2207 -0.3531
 9936SOL    HW231409   3.445   4.856   2.937  0.6068  0.3746  1.3519
 9937SOL     OW31410   1.666   2.807   2.951  0.1311 -0.4159  1.0464
 9937SOL    HW131411   1.583   2.846   2.910  0.0828 -1.5367  0.0183
 9937SOL    HW231412   1.737   2.878   2.957 -0.4016  0.1725  0.5251
 9938SOL     OW31413   1.051   5.624   3.343  0.6380  0.1941  0.2274
 9938SOL    HW131414   1.115   5.554   3.377  1.8538  1.1751  0.0487
 9938SOL    HW231415   1.053   5.702   3.404  0.5273  0.7287 -0.4437
 9939SOL     OW31416   4.215   6.384   4.796  0.3129  0.0613 -0.1342
 9939SOL    HW131417   4.159   6.466   4.801  0.0322 -0.0218 -1.5638
 9939SOL    HW231418   4.311   6.409   4.805  0.1682  0.4194  0.4660
 9940SOL     OW31419   5.770   3.737   5.090 -0.6875  0.5535 -0.1891
 9940SOL    HW131420   5.763   3.827   5.133 -1.4063  0.6886 -0.5629
 9940SOL    HW231421   5.691   3.723   5.030 -0.9417 -0.6099  0.3913
 9941SOL     OW31422   2.908   2.582   1.828 -0.1053 -0.1596 -0.0721
 9941SOL    HW131423   2.844   2.653   1.858 -0.7384 -0.5109 -0.5675
 9941SOL    HW231424   2.858   2.509   1.781  0.8183  0.2189 -1.7082
 9942SOL     OW31425   5.713   1.073   4.862 -0.6856  0.0741  0.5504
 9942SOL    HW131426   5.652   1.023   4.925  0.0623 -0.0273  1.2138
 9942SOL    HW231427   5.750   1.009   4.795 -0.5755 -0.0500  0.7286
 9943SOL     OW31428   0.685   2.373   6.338  0.2530 -0.5021  0.6380
 9943SOL    HW131429   0.721   2.451   6.388  0.0161  1.2258 -1.6843
 9943SOL    HW231430   0.760   2.315   6.306  0.6300  0.2100  0.2121
 9944SOL     OW31431   3.263   4.640   6.709  0.3167 -0.7504 -0.1023
 9944SOL    HW131432   3.257   4.619   6.807  1.2492 -0.0409  0.1213
 9944SOL    HW231433   3.358   4.638   6.680  0.2497  0.8361 -0.5703
 9945SOL     OW31434   6.949   6.384   1.048 -0.2385  0.7610 -0.2912
 9945SOL    HW131435   6.885   6.410   1.120  0.1121  1.0517 -0.0807
 9945SOL    HW231436   6.932   6.438   0.966 -2.8641 -1.8366 -1.6354
 9946SOL     OW31437   4.350   5.503   4.812 -0.0972 -0.2733 -0.3212
 9946SOL    HW131438   4.345   5.468   4.718  0.9616 -0.2762 -0.3874
 9946SOL    HW231439   4.297   5.587   4.819 -1.0054 -0.8012 -0.6628
 9947SOL     OW31440   4.530   6.110   0.469  0.2383 -0.1833 -0.0464
 9947SOL    HW131441   4.435   6.127   0.442  0.1022  0.0417  0.5543
 9947SOL    HW231442   4.583   6.081   0.389  0.0481  1.2546 -0.7386
 9948SOL     OW31443   2.637   5.972   6.109 -0.2206  0.0548  0.0053
 9948SOL    HW131444   2.610   5.972   6.013  0.1632  0.0036 -0.1038
 9948SOL    HW231445   2.673   6.062   6.134  0.9946 -0.3389 -0.2761
 9949SOL     OW31446   0.766   4.454   2.742  0.1986 -0.0897 -0.0125
 9949SOL    HW131447   0.729   4.362   2.753 -1.5441  0.5384 -0.2754
 9949SOL    HW231448   0.692   4.521   2.749  0.8182  1.0999 -3.0907
 9950SOL     OW31449   4.928   1.288   4.058 -0.0552 -0.4295 -0.1307
 9950SOL    HW131450   4.879   1.232   3.992  0.1126 -0.3387 -0.3344
 9950SOL    HW231451   4.958   1.231   4.135 -1.8715 -0.2013  0.8009
 9951SOL     OW31452   5.115   2.108   4.420  0.2363  0.2941 -0.0580
 9951SOL    HW131453   5.202   2.144   4.386  0.4126  1.8573  1.8630
 9951SOL    HW231454   5.132   2.047   4.497 -0.3607  0.7039  0.4073
 9952SOL     OW31455   5.186   3.680   3.987  0.1233  0.2354  0.4852
 9952SOL    HW131456   5.181   3.607   4.054 -0.2069 -0.0104  0.1954
 9952SOL    HW231457   5.159   3.766   4.029  2.2031  0.5475  1.3163
 9953SOL     OW31458   2.476   4.869   4.828 -0.5529  0.3702  0.5553
 9953SOL    HW131459   2.423   4.790   4.858 -2.1467  0.4702 -1.6716
 9953SOL    HW231460   2.438   4.952   4.868  0.0085  0.1841  1.5038
 9954SOL     OW31461   4.968   1.186   0.085 -0.0396  0.0629 -0.4440
 9954SOL    HW131462   4.951   1.137   0.170  0.3712  0.7922  0.0609
 9954SOL    HW231463   4.909   1.149   0.013 -1.3048  0.3033  0.4528
 9955SOL     OW31464   4.121   6.222   6.232 -0.0157 -0.0446 -0.0361
 9955SOL    HW131465   4.111   6.194   6.328  2.1068 -1.2838 -0.1062
 9955SOL    HW231466   4.056   6.171   6.176 -0.1242 -0.5658  0.5494
 9956SOL     OW31467   6.456   1.448   5.053 -0.3447 -0.0508 -0.1201
 9956SOL    HW131468   6.500   1.378   5.109 -1.3998 -0.3191  0.4053
 9956SOL    HW231469   6.491   1.538   5.079  1.5387 -0.3939 -1.2869
 9957SOL     OW31470   1.352   5.284   2.718  0.0799  0.0741 -0.2649
 9957SOL    HW131471   1.345   5.184   2.720  1.2039 -0.0472  2.4645
 9957SOL    HW231472   1.310   5.322   2.800  3.3731  1.4285  1.0045
 9958SOL     OW31473   1.391   6.710   1.417 -0.1323 -0.1346 -1.0869
 9958SOL    HW131474   1.343   6.792   1.448  0.0537 -0.1484 -0.7518
 9958SOL    HW231475   1.326   6.646   1.377 -0.9191 -1.3828  1.8618
 9959SOL     OW31476   1.376   3.416   2.211 -0.1304 -0.1546  0.0991
 9959SOL    HW131477   1.368   3.375   2.302 -0.8821 -0.4331 -0.0919
 9959SOL    HW231478   1.393   3.345   2.143 -0.0243  0.0049 -0.0421
 9960SOL     OW31479   6.406   4.276   6.464  0.5407 -0.2043  0.1592
 9960SOL    HW131480   6.307   4.282   6.451  0.3585  1.8754  1.9225
 9960SOL    HW231481   6.430   4.314   6.553  2.9801 -0.3074 -0.3876
 9961SOL     OW31482   6.977   3.051   2.035  0.7445  0.5528  0.3830
 9961SOL    HW131483   6.951   2.958   2.062  2.2511  0.3825  1.4038
 9961SOL    HW231484   6.954   3.066   1.939  1.1040 -1.1291  0.0029
 9962SOL     OW31485   3.882   2.670   4.639  0.1586 -0.3412  0.7557
 9962SOL    HW131486   3.933   2.753   4.662 -0.1147 -0.2020  0.8600
 9962SOL    HW231487   3.926   2.624   4.561 -1.5241  1.6669 -1.5486
 9963SOL     OW31488   1.942   3.398   1.748  0.4343  0.2274  0.4477
 9963SOL    HW131489   1.896   3.310   1.738 -0.8839  0.8623  0.6953
 9963SOL    HW231490   1.874   3.470   1.764  1.1608  1.8594 -2.9539
 9964SOL     OW31491   1.888   3.404   4.864 -0.1235  0.8022  0.6376
 9964SOL    HW131492   1.977   3.366   4.887 -0.1453 -0.9315 -1.7517
 9964SOL    HW231493   1.822   3.330   4.851 -0.7011  1.6799 -2.2440
 9965SOL     OW31494   0.253   5.276   5.383 -0.4460 -0.9673  0.1751
 9965SOL    HW131495   0.308   5.298   5.303 -1.1997  2.0597  0.3778
 9965SOL    HW231496   0.157   5.293   5.363 -0.8946 -2.2884  1.0786
 9966SOL     OW31497   0.296   5.791   6.016 -0.4596  0.1241  0.7368
 9966SOL    HW131498   0.395   5.782   6.020 -0.3120  1.5150  0.5310
 9966SOL    HW231499   0.254   5.726   6.080  0.5300 -1.0357  0.2480
 9967SOL     OW31500   5.943   5.960   5.616 -0.3464  0.2584 -0.0216
 9967SOL    HW131501   5.941   5.861   5.620 -1.1357  0.2557 -0.3294
 9967SOL    HW231502   5.936   5.990   5.521  0.2661  0.6097  0.0342
 9968SOL     OW31503   6.961   0.921   3.234 -0.2991  0.1866 -0.2273
 9968SOL    HW131504   6.971   0.911   3.135  2.4406  1.2714 -0.1450
 9968SOL    HW231505   6.901   0.849   3.269  0.8953 -1.9731 -2.3353
 9969SOL     OW31506   0.755   3.810   1.724  0.0324 -0.0978 -0.3712
 9969SOL    HW131507   0.819   3.885   1.737 -1.2291  1.0444 -0.5048
 9969SOL    HW231508   0.784   3.754   1.646  0.6626  0.5979 -0.6409
 9970SOL     OW31509   0.562   3.769   2.945 -0.2634  0.2281 -0.2266
 9970SOL    HW131510   0.515   3.690   2.905 -0.0135 -0.2665  0.4403
 9970SOL    HW231511   0.625   3.808   2.878 -0.5601  0.0005 -0.6379
 9971SOL     OW31512   5.433   2.914   6.917  0.4285  0.2380  0.3430
 9971SOL    HW131513   5.433   2.861   6.832  1.8667 -1.4205  1.2984
 9971SOL    HW231514   5.487   2.997   6.905 -0.5615  0.7471 -0.7402
 9972SOL     OW31515   4.045   5.402   0.245 -0.0206 -0.5927  0.0269
 9972SOL    HW131516   4.117   5.468   0.225 -0.8180  0.3032  0.0388
 9972SOL    HW231517   3.969   5.415   0.182 -0.6898 -0.6960  0.7919
 9973SOL     OW31518   5.784   1.563   5.745 -0.1200 -0.3280  0.1118
 9973SOL    HW131519   5.811   1.581   5.651 -2.1855 -1.5386 -0.7865
 9973SOL    HW231520   5.740   1.644   5.783  0.6901  0.1544  0.0391
 9974SOL     OW31521   5.801   3.921   4.393 -0.3144  0.5768 -0.3365
 9974SOL    HW131522   5.741   3.896   4.469 -0.5561  1.2547 -0.2895
 9974SOL    HW231523   5.858   3.999   4.420  0.5223  0.0057 -0.4188
 9975SOL     OW31524   1.277   2.136   5.490 -0.4196 -0.0800  0.2669
 9975SOL    HW131525   1.328   2.119   5.575  3.3013  0.1671 -1.6987
 9975SOL    HW231526   1.212   2.062   5.475  1.5234 -2.2010  1.5155
 9976SOL     OW31527   6.681   4.538   4.403  0.0869 -0.4845 -1.1632
 9976SOL    HW131528   6.661   4.631   4.372  0.8962  0.8919  2.0290
 9976SOL    HW231529   6.734   4.541   4.488 -1.5106 -3.8546  0.1681
 9977SOL     OW31530   6.329   6.806   2.757 -0.2808 -0.4675 -0.7963
 9977SOL    HW131531   6.408   6.848   2.802  0.6962 -0.6851 -2.2365
 9977SOL    HW231532   6.358   6.723   2.709 -1.2113 -0.1067 -2.0321
 9978SOL     OW31533   5.294   6.745   4.077 -0.5038 -0.0524 -0.4433
 9978SOL    HW131534   5.283   6.803   3.996 -0.4656  2.2775  1.1154
 9978SOL    HW231535   5.205   6.734   4.122 -0.0198  1.7870  1.1221
 9979SOL     OW31536   2.084   6.660   4.137  0.1402 -0.2522 -0.2569
 9979SOL    HW131537   2.171   6.685   4.180 -0.7254  1.5216  0.5690
 9979SOL    HW231538   2.083   6.692   4.043  0.3150 -0.1156 -0.2133
 9980SOL     OW31539   5.305   2.357   3.889  0.0145 -0.1226 -0.5996
 9980SOL    HW131540   5.326   2.450   3.919  1.1732 -1.0024  1.5501
 9980SOL    HW231541   5.380   2.322   3.834 -0.1005 -0.0391 -0.8111
 9981SOL     OW31542   6.670   5.772   0.949 -0.0896  0.2465 -0.3705
 9981SOL    HW131543   6.659   5.846   1.015 -0.0132  0.6872 -0.8417
 9981SOL    HW231544   6.757   5.782   0.901 -1.4915  1.8674 -2.8446
 9982SOL     OW31545   4.676   1.660   0.096  0.0328  0.3379  0.6971
 9982SOL    HW131546   4.633   1.630   0.011 -1.5249 -1.1244  1.9360
 9982SOL    HW231547   4.722   1.748   0.081  0.8204 -0.4337 -1.9074
 9983SOL     OW31548   3.189   3.800   4.063 -0.3157  0.2252 -0.0296
 9983SOL    HW131549   3.232   3.723   4.111  0.1138 -0.8505 -1.9986
 9983SOL    HW231550   3.092   3.779   4.046 -0.1212 -0.0785 -0.8549
 9984SOL     OW31551   3.434   0.410   1.651 -0.1784 -0.4533  0.7474
 9984SOL    HW131552   3.438   0.313   1.627 -0.2298 -0.2941  0.0804
 9984SOL    HW231553   3.340   0.434   1.677 -0.1894 -0.5520  0.7994
 9985SOL     OW31554   6.172   2.645   1.136  0.4916 -0.3111 -0.5421
 9985SOL    HW131555   6.175   2.622   1.039  0.9229 -0.0870 -0.5827
 9985SOL    HW231556   6.124   2.573   1.186  1.6845 -1.2187 -0.6849
 9986SOL     OW31557   6.423   3.185   6.419  0.2703  0.6043 -0.0124
 9986SOL    HW131558   6.434   3.198   6.518  2.1701  0.9568 -0.2282
 9986SOL    HW231559   6.497   3.128   6.385 -1.8643 -1.8518 -0.8534
 9987SOL     OW31560   5.551   3.157   2.204  0.0406 -0.8392 -0.0573
 9987SOL    HW131561   5.533   3.139   2.107  0.5400 -0.9299 -0.1361
 9987SOL    HW231562   5.630   3.103   2.234 -0.5410 -1.3415  0.5854
 9988SOL     OW31563   3.957   2.757   6.745 -0.3017 -0.0352  0.3369
 9988SOL    HW131564   3.975   2.705   6.829  0.3901 -0.4715 -0.0688
 9988SOL    HW231565   3.995   2.849   6.754 -0.1172 -0.1222  0.4525
 9989SOL     OW31566   5.885   2.709   0.302 -0.3856 -0.0966  0.4151
 9989SOL    HW131567   5.905   2.726   0.398  0.8878 -0.2870  0.2049
 9989SOL    HW231568   5.846   2.791   0.261  3.3811  1.7244  0.0190
 9990SOL     OW31569   1.390   6.937   4.198  0.3416 -0.0282 -0.4111
 9990SOL    HW131570   1.470   6.997   4.195 -0.7558  1.4633 -0.7206
 9990SOL    HW231571   1.394   6.872   4.122  2.1829 -1.2594  0.6573
 9991SOL     OW31572   4.528   2.496   2.486 -0.2552  0.4456 -0.1749
 9991SOL    HW131573   4.564   2.469   2.397  1.6007  1.3611  0.2470
 9991SOL    HW231574   4.603   2.530   2.544 -1.5500  0.7424  1.4133
 9992SOL     OW31575   0.008   2.126   5.862 -0.0311 -0.1226 -0.2569
 9992SOL    HW131576   0.053   2.196   5.917 -1.4531  0.9949 -0.4440
 9992SOL    HW231577  -0.075   2.094   5.909 -0.4469 -0.2590 -1.0497
 9993SOL     OW31578   0.323   4.813   2.073  0.5858  0.4027  0.4187
 9993SOL    HW131579   0.302   4.858   1.986  3.0399  1.9757  0.5448
 9993SOL    HW231580   0.381   4.734   2.056 -1.3908 -1.1197  0.4449
 9994SOL     OW31581   0.916   5.257   0.333 -0.3301  0.1571 -0.2569
 9994SOL    HW131582   0.941   5.349   0.363  0.8309  0.3710 -1.7897
 9994SOL    HW231583   0.855   5.215   0.401  1.4913  0.9109  1.9382
 9995SOL     OW31584   4.448   4.194   2.218  0.2438 -0.1087 -0.2403
 9995SOL    HW131585   4.377   4.129   2.245  0.4321 -0.8692 -1.5006
 9995SOL    HW231586   4.406   4.277   2.181 -0.2104  2.4707  5.0293
 9996SOL     OW31587   3.142   3.044   3.082 -0.0368 -0.1226  0.5025
 9996SOL    HW131588   3.237   3.014   3.072 -0.2080 -0.4070 -0.3319
 9996SOL    HW231589   3.136   3.143   3.066 -0.2942 -0.5339 -2.5109
 9997SOL     OW31590   6.354   5.697   5.221 -0.0800  0.1970 -0.2988
 9997SOL    HW131591   6.392   5.789   5.207  3.0624 -0.5347  2.2037
 9997SOL    HW231592   6.428   5.630   5.219 -1.5830 -1.7074  2.2653
 9998SOL     OW31593   2.737   5.356   0.494 -0.3267 -0.1352 -0.4207
 9998SOL    HW131594   2.686   5.270   0.491 -1.3676  0.4807 -1.1771
 9998SOL    HW231595   2.714   5.411   0.413 -0.3713  1.2289  0.4764
 9999SOL     OW31596   0.978   0.741   3.103  0.1685 -0.6503 -0.3813
 9999SOL    HW131597   1.034   0.799   3.044  0.5236  0.0489  0.6158
 9999SOL    HW231598   0.908   0.797   3.147  1.1187 -0.7408  1.3481
10000SOL     OW31599   2.195   1.002   2.811  0.0704 -0.0232  0.2291
10000SOL    HW131600   2.275   1.029   2.757  0.9934  2.2016  2.5068
10000SOL    HW231601   2.129   1.076   2.812 -0.6369 -0.6440  0.8922
10001SOL     OW31602   5.393   4.408   2.722  0.7151  0.2494  0.3154
10001SOL    HW131603   5.478   4.460   2.709  0.5904  0.6580  1.0925
10001SOL    HW231604   5.386   4.378   2.817 -0.8640  1.8040  0.7510
10002SOL     OW31605   2.576   0.964   5.662 -0.2701 -0.6655  0.3329
10002SOL    HW131606   2.663   0.957   5.711  1.1783  2.4030 -1.4527
10002SOL    HW231607   2.535   1.053   5.680 -1.9568 -1.2279 -0.5429
10003SOL     OW31608   2.327   4.461   2.453  0.1524 -0.0599 -0.0971
10003SOL    HW131609   2.381   4.507   2.523  0.4985  0.4396 -0.6832
10003SOL    HW231610   2.230   4.462   2.479  0.2220  0.5534  0.1420
10004SOL     OW31611   3.424   3.195   5.290 -0.5560  0.3159 -0.3203
10004SOL    HW131612   3.486   3.272   5.273  0.3134 -0.2279  0.2831
10004SOL    HW231613   3.335   3.213   5.248  0.0569  1.0564 -1.3267
10005SOL     OW31614   0.953   5.957   3.975 -0.5737  0.1326  0.2094
10005SOL    HW131615   1.014   6.003   3.909 -0.4005 -1.4888 -0.8051
10005SOL    HW231616   0.861   5.995   3.965 -0.5546 -0.0762 -0.9895
10006SOL     OW31617   2.885   0.811   1.897 -0.5205  0.1747  0.0590
10006SOL    HW131618   2.931   0.784   1.982 -2.2093  0.8846  1.2567
10006SOL    HW231619   2.925   0.896   1.864  0.3380 -0.2515 -0.0220
10007SOL     OW31620   2.036   3.251   4.145  0.0398  0.0449 -0.5109
10007SOL    HW131621   2.135   3.232   4.141 -0.1462 -1.2312  0.3038
10007SOL    HW231622   1.986   3.166   4.129 -1.0785  1.3340 -5.1988
10008SOL     OW31623   5.693   5.505   4.285  0.6283 -0.0695 -0.5130
10008SOL    HW131624   5.732   5.542   4.200 -1.1303  1.2679 -0.7922
10008SOL    HW231625   5.665   5.410   4.270  0.6787  0.0350 -1.3059
10009SOL     OW31626   1.881   5.614   3.471 -0.4970  0.0215  0.0960
10009SOL    HW131627   1.951   5.571   3.412  0.7456  1.7641  0.2265
10009SOL    HW231628   1.851   5.548   3.540 -0.3817 -1.3654 -1.1250
10010SOL     OW31629   2.576   4.463   5.366  0.3635  0.4987 -0.3312
10010SOL    HW131630   2.547   4.457   5.461 -0.1382  2.5744 -0.3270
10010SOL    HW231631   2.538   4.385   5.315 -0.8204  0.3178  0.7749
10011SOL     OW31632   5.926   5.706   5.590  0.1259  0.1446 -0.1762
10011SOL    HW131633   5.864   5.698   5.512 -1.1329  0.9734  0.6768
10011SOL    HW231634   6.019   5.682   5.563 -0.7819 -2.5880 -1.1761
10012SOL     OW31635   4.005   0.286   3.501  0.1243 -0.5550 -0.4100
10012SOL    HW131636   4.025   0.316   3.407  0.0479 -0.9179 -0.5435
10012SOL    HW231637   3.908   0.300   3.520  0.0806 -0.7524 -0.4859
10013SOL     OW31638   4.894   3.567   3.362 -0.0652 -0.1019 -0.2893
10013SOL    HW131639   4.938   3.653   3.338 -2.1394  1.2183  0.3771
10013SOL    HW231640   4.896   3.505   3.284  1.5619  0.4543 -0.7381
10014SOL     OW31641   3.549   4.092   5.244  0.1988  0.0112  0.4377
10014SOL    HW131642   3.600   4.175   5.268  1.7951 -1.4589  2.4173
10014SOL    HW231643   3.612   4.016   5.233 -1.2007 -0.9174 -1.7552
10015SOL     OW31644   3.839   5.882   3.566  0.1394  0.5159 -0.4524
10015SOL    HW131645   3.855   5.791   3.604 -0.1636  0.1487 -1.1916
10015SOL    HW231646   3.922   5.915   3.520  0.6402  1.1304  0.8271
10016SOL     OW31647   6.074   0.660   2.257 -0.0839 -0.4674 -0.5999
10016SOL    HW131648   6.009   0.658   2.181 -1.2436 -2.1993  0.3566
10016SOL    HW231649   6.033   0.710   2.334  0.8301  0.7375 -0.8645
10017SOL     OW31650   0.760   1.372   4.646  0.1063 -0.1940 -0.0894
10017SOL    HW131651   0.785   1.346   4.739  2.4576  0.2494 -0.5496
10017SOL    HW231652   0.782   1.298   4.583  0.9915  0.4983 -0.6102
10018SOL     OW31653   6.301   2.396   6.623 -0.1972  0.2329 -0.3691
10018SOL    HW131654   6.299   2.337   6.703  0.0919 -1.6546 -1.7058
10018SOL    HW231655   6.385   2.450   6.623 -0.4610  0.6758  0.8602
10019SOL     OW31656   1.135   3.526   3.964  0.1957  0.3028  0.5698
10019SOL    HW131657   1.130   3.426   3.960  1.7007  0.2150  0.3005
10019SOL    HW231658   1.148   3.563   3.872 -0.0405  0.7316  0.7044
10020SOL     OW31659   6.341   4.219   3.142 -0.5822  0.1626  0.4908
10020SOL    HW131660   6.343   4.120   3.156 -0.3071  0.2300  0.9596
10020SOL    HW231661   6.338   4.265   3.231 -1.5005  0.5617  0.2630
10021SOL     OW31662   0.251   4.332   6.632  0.4939 -0.1475 -0.3109
10021SOL    HW131663   0.219   4.243   6.663 -0.6146 -0.5209 -2.3267
10021SOL    HW231664   0.317   4.319   6.557  0.1648  0.7078 -0.7639
10022SOL     OW31665   5.037   2.183   0.664  0.9256 -0.0432 -0.6896
10022SOL    HW131666   5.093   2.168   0.582  0.2665 -2.0828 -0.8283
10022SOL    HW231667   5.083   2.142   0.743  0.3225 -0.4519 -0.5437
10023SOL     OW31668   6.074   4.675   5.735 -0.1007 -0.4086 -0.1206
10023SOL    HW131669   5.995   4.727   5.771  0.4956  0.9765 -0.7464
10023SOL    HW231670   6.158   4.714   5.773  0.2928 -2.6113  1.4738
10024SOL     OW31671   0.902   2.612   0.725 -0.3408  0.2168 -0.0869
10024SOL    HW131672   0.890   2.694   0.669  1.2754  2.9689  3.1915
10024SOL    HW231673   0.988   2.619   0.776 -0.9967 -2.7201  1.6762
10025SOL     OW31674   0.844   0.282   6.821  0.1482  0.5573  0.3576
10025SOL    HW131675   0.879   0.289   6.728 -0.6725  1.7448  0.1194
10025SOL    HW231676   0.796   0.195   6.833  2.0334 -0.5353  0.3177
10026SOL     OW31677   2.057   6.736   0.128  0.5417  0.5273  0.1294
10026SOL    HW131678   2.077   6.681   0.046  1.0403  0.2543  0.4301
10026SOL    HW231679   2.016   6.823   0.100  0.6486  0.4107 -0.4093
10027SOL     OW31680   0.167   5.967   2.931  0.5711 -0.1069  0.2280
10027SOL    HW131681   0.107   6.046   2.924  0.6797  0.1995  2.2375
10027SOL    HW231682   0.227   5.964   2.851 -0.2034  1.1703 -0.4404
10028SOL     OW31683   4.975   0.541   0.485  0.0678 -0.2058  0.3643
10028SOL    HW131684   4.884   0.500   0.489  0.9851 -2.4318 -0.0850
10028SOL    HW231685   5.003   0.548   0.389  0.2795  0.6829  0.4894
10029SOL     OW31686   1.076   4.602   4.033 -0.2981  0.4259 -0.0187
10029SOL    HW131687   1.117   4.515   4.062 -0.8605 -0.0504 -0.6053
10029SOL    HW231688   0.989   4.615   4.082 -0.4129  0.4529 -0.2272
10030SOL     OW31689   4.932   6.724   4.980 -0.1874 -0.0475 -0.4761
10030SOL    HW131690   4.866   6.651   5.000 -0.6169  0.7441  1.1941
10030SOL    HW231691   5.024   6.693   5.003  0.1306 -1.2117 -2.9578
10031SOL     OW31692   3.841   5.363   2.639  0.0116  0.3037  0.4454
10031SOL    HW131693   3.844   5.367   2.540  0.6895  1.2770  0.4893
10031SOL    HW231694   3.860   5.270   2.669 -0.6689 -0.0994 -0.3388
10032SOL     OW31695   2.114   1.252   2.170 -0.2639 -0.1413 -0.2022
10032SOL    HW131696   2.181   1.246   2.096 -0.3710 -0.5124 -0.2712
10032SOL    HW231697   2.029   1.207   2.141  0.4875 -2.5043  1.0328
10033SOL     OW31698   1.727   3.216   0.690  0.1097 -0.2740  0.1125
10033SOL    HW131699   1.656   3.287   0.692 -0.6888 -1.0065 -0.9318
10033SOL    HW231700   1.794   3.234   0.761 -0.8660  0.7131  0.8181
10034SOL     OW31701   0.414   0.893   6.290 -0.1408  0.5393  0.9391
10034SOL    HW131702   0.514   0.890   6.300 -0.1511  0.0137  0.9271
10034SOL    HW231703   0.380   0.801   6.268 -0.5745  0.8109  0.4524
10035SOL     OW31704   0.692   4.375   5.617  0.0186 -0.4228 -0.5938
10035SOL    HW131705   0.615   4.417   5.665 -1.0036 -0.3715 -2.2120
10035SOL    HW231706   0.745   4.320   5.681 -1.7270 -0.9700  0.4477
10036SOL     OW31707   3.817   2.481   1.465 -0.0248 -0.3691 -0.2495
10036SOL    HW131708   3.792   2.577   1.473  0.6478 -0.0978 -1.2069
10036SOL    HW231709   3.817   2.439   1.556 -1.2750  0.2736  0.0800
10037SOL     OW31710   5.443   0.649   4.883 -0.1246 -0.2974 -0.3460
10037SOL    HW131711   5.375   0.613   4.947  1.5336 -1.8806  0.6085
10037SOL    HW231712   5.517   0.583   4.872  1.0325  1.1555 -1.7419
10038SOL     OW31713   2.573   5.000   2.572 -0.1771 -0.1311 -0.6754
10038SOL    HW131714   2.484   4.957   2.553 -0.4354 -0.2318  0.6483
10038SOL    HW231715   2.567   5.051   2.658  0.4802  1.5841 -1.6125
10039SOL     OW31716   1.302   1.276   0.517 -0.2740  0.4063  0.0190
10039SOL    HW131717   1.384   1.242   0.562  0.0816  1.3419  0.0928
10039SOL    HW231718   1.238   1.310   0.586 -0.2822  0.6375 -0.1036
10040SOL     OW31719   5.001   0.276   5.346 -0.2666 -0.0580  0.6599
10040SOL    HW131720   5.073   0.269   5.278 -0.5663  0.8438  0.2337
10040SOL    HW231721   4.966   0.184   5.367  2.1560 -0.7255  2.1873
10041SOL     OW31722   2.469   3.938   0.074  0.2897 -0.4345  0.0774
10041SOL    HW131723   2.415   3.992   0.010  0.8461 -0.5683 -0.5156
10041SOL    HW231724   2.487   3.991   0.157 -0.9903 -0.4966  0.4118
10042SOL     OW31725   0.334   3.693   1.910 -0.3053 -0.2746 -0.0708
10042SOL    HW131726   0.253   3.682   1.853 -1.2166  1.4195  0.8102
10042SOL    HW231727   0.344   3.612   1.969 -0.5948 -1.0650 -1.0763
10043SOL     OW31728   1.566   5.788   5.197  0.0056 -0.3943 -0.4222
10043SOL    HW131729   1.524   5.763   5.110 -1.5952 -1.7550  0.6750
10043SOL    HW231730   1.494   5.812   5.263  1.2234  2.1223  0.1371
10044SOL     OW31731   0.878   4.935   4.719  0.3453 -0.1470  0.4153
10044SOL    HW131732   0.820   4.895   4.648 -1.6443 -0.3317  2.0470
10044SOL    HW231733   0.886   4.871   4.795  1.2903  0.6043  0.9719
10045SOL     OW31734   2.134   0.378   0.600  0.2328  0.1794 -0.4629
10045SOL    HW131735   2.182   0.446   0.656 -0.4877  0.3282 -0.0151
10045SOL    HW231736   2.198   0.306   0.574  0.4577 -0.2212  1.0939
10046SOL     OW31737   0.120   5.476   3.356  0.1073  0.0895 -0.0144
10046SOL    HW131738   0.072   5.482   3.268 -1.6326 -1.7790  0.7248
10046SOL    HW231739   0.218   5.481   3.341 -0.1488 -0.3297 -2.0843
10047SOL     OW31740   6.640   5.547   0.092 -0.0512  0.1020  0.0686
10047SOL    HW131741   6.644   5.456   0.134  2.1887  0.5980  1.1239
10047SOL    HW231742   6.665   5.541  -0.004  1.3683 -0.2824  0.4379
10048SOL     OW31743   4.587   5.469   6.657 -0.9080 -0.3892  0.0768
10048SOL    HW131744   4.598   5.373   6.632 -1.3531 -0.6502  0.8579
10048SOL    HW231745   4.496   5.484   6.694 -0.7709  0.2924  0.1463
10049SOL     OW31746   4.600   6.975   0.324 -0.0115  0.3396  0.3653
10049SOL    HW131747   4.628   7.051   0.264  1.2279 -0.8655 -0.6503
10049SOL    HW231748   4.591   7.008   0.418  0.3809  1.7562 -0.0707
10050SOL     OW31749   0.865   1.409   3.939 -0.0364 -0.2568  0.0578
10050SOL    HW131750   0.862   1.309   3.934  0.2784 -0.2283 -0.9515
10050SOL    HW231751   0.958   1.438   3.963  0.5224 -0.1615 -2.0144
10051SOL     OW31752   3.817   6.213   4.888 -0.5588  0.6840 -0.2490
10051SOL    HW131753   3.915   6.196   4.898 -0.5226  0.3769 -1.1087
10051SOL    HW231754   3.802   6.305   4.852 -0.4516 -0.2507 -2.8496
10052SOL     OW31755   6.442   3.205   6.675  0.2828 -0.9023 -0.6192
10052SOL    HW131756   6.489   3.289   6.704  0.0345 -1.3160  1.0843
10052SOL    HW231757   6.478   3.128   6.728  0.9102 -1.9867 -2.5564
10053SOL     OW31758   3.025   2.204   0.655 -0.8634 -0.3467 -0.1350
10053SOL    HW131759   3.043   2.250   0.568 -0.6067 -1.3485 -0.6198
10053SOL    HW231760   3.025   2.105   0.641 -0.1579 -0.5396  1.1333
10054SOL     OW31761   3.818   5.175   6.467  0.0146  0.1272  0.2413
10054SOL    HW131762   3.801   5.167   6.368  0.2049  1.4245  0.0813
10054SOL    HW231763   3.916   5.178   6.483 -0.0071 -0.5440  0.5250
10055SOL     OW31764   0.613   6.338   6.468 -0.0937  0.0603  0.1128
10055SOL    HW131765   0.536   6.335   6.532 -1.3782 -1.0269 -1.4186
10055SOL    HW231766   0.580   6.323   6.375  1.9645 -0.2305 -0.6234
10056SOL     OW31767   5.513   3.909   3.691  0.1172 -0.0377 -0.3793
10056SOL    HW131768   5.485   3.817   3.720 -1.5154 -0.5762 -3.2479
10056SOL    HW231769   5.601   3.903   3.643  0.8958  0.2310  0.9709
10057SOL     OW31770   1.624   0.109   4.157 -0.1798 -0.3625 -0.0898
10057SOL    HW131771   1.619   0.172   4.080 -0.4781 -2.0371 -1.4937
10057SOL    HW231772   1.719   0.101   4.188  0.0950 -0.3927 -0.9214
10058SOL     OW31773   3.570   3.824   3.006 -0.3892 -0.4071 -0.6501
10058SOL    HW131774   3.601   3.908   2.963 -0.4140 -0.4549 -0.7622
10058SOL    HW231775   3.480   3.838   3.047 -0.3469 -0.3498 -0.5786
10059SOL     OW31776   6.820   1.462   5.523  0.4808 -0.3835 -0.1370
10059SOL    HW131777   6.839   1.525   5.447  0.5086  0.3500  0.4608
10059SOL    HW231778   6.898   1.400   5.536  1.1969  0.5792  0.3303
10060SOL     OW31779   3.070   1.235   3.057 -0.0433 -0.0014  0.5271
10060SOL    HW131780   2.985   1.234   3.004 -0.2201  0.4998  0.7926
10060SOL    HW231781   3.144   1.198   3.002 -0.0795  1.1160 -0.3099
10061SOL     OW31782   1.318   6.357   6.446 -0.3763  0.0298 -0.2549
10061SOL    HW131783   1.343   6.390   6.355 -0.4021  1.7064  0.3185
10061SOL    HW231784   1.224   6.384   6.467 -0.9608 -1.8000 -0.3609
10062SOL     OW31785   4.578   2.947   4.795  0.2381 -0.0776 -0.6039
10062SOL    HW131786   4.646   2.875   4.779 -0.6968 -1.0244 -0.4593
10062SOL    HW231787   4.624   3.029   4.829  1.2533 -0.8561 -0.0220
10063SOL     OW31788   3.921   2.537   4.856  0.1690 -0.1809  0.3024
10063SOL    HW131789   4.011   2.497   4.841  0.2550 -0.1844  0.8252
10063SOL    HW231790   3.899   2.600   4.781  2.0888  2.5403  1.8556
10064SOL     OW31791   3.098   5.609   4.876 -0.3249  0.2520  0.1754
10064SOL    HW131792   3.027   5.610   4.947  0.9449 -1.4230  1.5719
10064SOL    HW231793   3.057   5.580   4.789 -1.3588 -0.7930  0.9678
10065SOL     OW31794   4.611   2.527   2.173 -0.7616  0.2267  0.9136
10065SOL    HW131795   4.620   2.625   2.190 -2.6236  0.9790 -1.7386
10065SOL    HW231796   4.514   2.503   2.171 -0.3205 -1.9953  2.8172
10066SOL     OW31797   6.881   1.870   0.841 -0.6726 -0.4098 -0.1237
10066SOL    HW131798   6.801   1.925   0.819  0.5773  1.1601 -1.0341
10066SOL    HW231799   6.905   1.812   0.764 -0.0868  0.2583 -0.4651
10067SOL     OW31800   3.281   5.807   4.873 -0.1753  0.4769  0.3623
10067SOL    HW131801   3.269   5.850   4.784  2.9549 -2.9076 -2.0142
10067SOL    HW231802   3.221   5.727   4.880  0.6742 -0.1530  0.5939
10068SOL     OW31803   2.144   2.748   6.550 -0.3814 -0.3736  0.5238
10068SOL    HW131804   2.094   2.677   6.598 -0.1093 -1.0358 -0.1481
10068SOL    HW231805   2.112   2.753   6.455  0.2046 -0.1944  0.3288
10069SOL     OW31806   0.932   2.779   6.601 -0.1071 -0.2684 -0.0866
10069SOL    HW131807   1.020   2.774   6.555 -0.4332 -1.6385 -0.6123
10069SOL    HW231808   0.943   2.758   6.698  0.2631  0.4743  0.0405
10070SOL     OW31809   4.184   0.354   1.053 -0.1823  0.8624  0.1903
10070SOL    HW131810   4.128   0.350   0.971  0.3607  1.8864 -0.2596
10070SOL    HW231811   4.195   0.450   1.082  1.5545  0.7344  0.0766
10071SOL     OW31812   3.329   1.824   2.063  0.0829 -0.0569  0.0548
10071SOL    HW131813   3.300   1.918   2.079  0.6169  0.2298 -0.6421
10071SOL    HW231814   3.248   1.765   2.055 -0.2514  0.3202  0.5492
10072SOL     OW31815   6.136   4.259   0.360 -0.8463  0.2184 -0.1591
10072SOL    HW131816   6.134   4.175   0.415 -0.9268  0.1541 -0.2608
10072SOL    HW231817   6.176   4.333   0.415 -0.3357  0.0029 -0.2337
10073SOL     OW31818   3.149   2.820   6.793  0.8344  0.4604  1.1001
10073SOL    HW131819   3.163   2.769   6.708  0.6427 -0.0186  1.3575
10073SOL    HW231820   3.081   2.773   6.849  1.7489  0.1971  2.0062
10074SOL     OW31821   3.112   5.183   3.075 -0.2225  0.3109  0.4728
10074SOL    HW131822   3.211   5.164   3.080 -0.1609  0.6583  0.6096
10074SOL    HW231823   3.082   5.177   2.980 -0.3023 -0.9347  0.5601
10075SOL     OW31824   2.145   3.271   3.732  0.5639  0.2972 -0.3134
10075SOL    HW131825   2.049   3.259   3.754  1.0248 -4.5662  0.2247
10075SOL    HW231826   2.154   3.312   3.641 -2.0673 -0.3598 -0.9591
10076SOL     OW31827   5.648   1.614   3.344 -0.4581 -0.0955  0.5281
10076SOL    HW131828   5.673   1.518   3.349 -0.5752 -0.1154  0.7245
10076SOL    HW231829   5.730   1.669   3.328 -0.3367 -0.1898  0.8367
10077SOL     OW31830   4.974   1.857   2.240 -0.2483  0.1493  0.0058
10077SOL    HW131831   4.992   1.851   2.142  2.1160  1.5451  0.2865
10077SOL    HW231832   4.991   1.767   2.282 -0.4691 -0.2467 -0.7345
10078SOL     OW31833   6.097   3.593   4.832 -0.3649  0.1943  0.0073
10078SOL    HW131834   6.114   3.546   4.745 -2.0219  1.4066 -1.0298
10078SOL    HW231835   6.065   3.528   4.900 -2.1632 -0.3126 -1.2581
10079SOL     OW31836   2.478   3.196   0.892 -0.5707 -0.1727  1.1577
10079SOL    HW131837   2.412   3.228   0.960 -2.0725 -0.6126 -0.0464
10079SOL    HW231838   2.525   3.115   0.927 -1.3903 -0.4477  1.6566
10080SOL     OW31839   6.612   4.904   4.635 -0.6749  0.3566 -0.5136
10080SOL    HW131840   6.574   4.811   4.637  2.0441 -0.8340  0.6311
10080SOL    HW231841   6.705   4.902   4.597  0.6783  2.0335  2.3628
10081SOL     OW31842   6.988   1.312   4.891  0.3232 -0.1946 -0.5239
10081SOL    HW131843   6.918   1.254   4.849 -1.1443  1.2999 -0.2308
10081SOL    HW231844   7.062   1.254   4.926 -1.3127 -1.9585  0.2432
10082SOL     OW31845   3.225   0.467   5.917  0.5786  0.8764  0.2977
10082SOL    HW131846   3.183   0.550   5.880  2.0634  1.2812 -0.5570
10082SOL    HW231847   3.303   0.441   5.861  0.1448 -1.1380  0.5365
10083SOL     OW31848   4.368   4.225   5.640 -0.7088 -0.3042  0.5734
10083SOL    HW131849   4.275   4.218   5.677 -0.4113 -1.5812  1.1165
10083SOL    HW231850   4.428   4.264   5.709 -1.0393  1.6794 -0.1840
10084SOL     OW31851   3.033   3.284   3.982 -0.3420  0.2764 -0.1587
10084SOL    HW131852   2.937   3.255   3.976 -0.5984  0.4681  2.1103
10084SOL    HW231853   3.058   3.332   3.899 -1.3406 -2.2109 -2.0410
10085SOL     OW31854   4.843   2.095   3.609  0.1602  0.7723 -1.0619
10085SOL    HW131855   4.928   2.086   3.660 -0.5586  0.1164  0.0686
10085SOL    HW231856   4.773   2.138   3.667 -0.5358  0.4878 -1.6642
10086SOL     OW31857   1.210   3.927   4.258  0.1777 -0.1985 -0.3465
10086SOL    HW131858   1.172   3.839   4.231  0.5541  0.0601 -1.8242
10086SOL    HW231859   1.212   3.988   4.179 -0.9627  1.4787  0.8512
10087SOL     OW31860   3.615   0.945   3.353  0.3343  0.6527 -0.3720
10087SOL    HW131861   3.559   0.991   3.284 -2.3977 -0.8146  0.7151
10087SOL    HW231862   3.671   0.875   3.309 -0.4165  0.5999 -1.2756
10088SOL     OW31863   0.012   6.581   6.109  0.2744 -0.4490 -0.3165
10088SOL    HW131864   0.071   6.531   6.173 -0.2371  0.8112  1.2077
10088SOL    HW231865  -0.084   6.561   6.129  0.1147 -0.6196 -1.2012
10089SOL     OW31866   6.480   1.391   4.146  0.5563 -0.5552  1.0829
10089SOL    HW131867   6.506   1.344   4.062  0.6611 -0.6671  1.1766
10089SOL    HW231868   6.441   1.481   4.124 -0.6685 -1.1230  0.8329
10090SOL     OW31869   5.099   3.518   4.179  0.2155  0.1591  0.0166
10090SOL    HW131870   4.999   3.515   4.173  0.2194  0.4452 -0.2378
10090SOL    HW231871   5.136   3.426   4.172  0.1096  0.2370 -2.5927
10091SOL     OW31872   6.614   2.849   0.920 -0.9123  0.1966  0.0884
10091SOL    HW131873   6.608   2.842   1.020  2.5706 -0.9919  0.3829
10091SOL    HW231874   6.574   2.768   0.878  0.2908 -0.8062  0.7881
10092SOL     OW31875   1.821   4.859   5.088 -0.1969  0.2444 -0.3265
10092SOL    HW131876   1.884   4.793   5.129 -1.0458 -0.1072  0.4215
10092SOL    HW231877   1.729   4.844   5.123 -0.5120  1.4439 -0.6103
10093SOL     OW31878   5.354   0.906   3.331 -0.3150 -0.3145  0.9016
10093SOL    HW131879   5.322   1.001   3.324 -0.9844 -0.5558  0.5749
10093SOL    HW231880   5.330   0.857   3.247  0.9542 -0.5058  0.6326
10094SOL     OW31881   6.470   0.149   5.766 -0.7404  0.2453 -0.3343
10094SOL    HW131882   6.457   0.211   5.843  2.7070  2.3935 -1.2225
10094SOL    HW231883   6.424   0.186   5.685 -0.4630  0.5420 -0.3609
10095SOL     OW31884   1.528   1.904   2.804  0.3605 -0.6770 -0.6090
10095SOL    HW131885   1.601   1.864   2.748  1.0158  1.5699 -1.4823
10095SOL    HW231886   1.507   1.843   2.880  1.6079 -2.3980 -1.5699
10096SOL     OW31887   2.447   6.972   3.332 -0.0901  0.2198  0.0300
10096SOL    HW131888   2.514   6.904   3.361  0.4032  0.5780 -0.2438
10096SOL    HW231889   2.436   7.041   3.405 -1.0043 -0.4407  0.5396
10097SOL     OW31890   6.345   0.810   0.011 -0.0131 -0.4948 -0.1130
10097SOL    HW131891   6.369   0.904  -0.014 -1.6207  0.2042  0.7683
10097SOL    HW231892   6.428   0.756   0.020  1.1071  1.2977  1.0620
10098SOL     OW31893   2.377   0.566   0.663 -0.0277  0.3802 -0.0298
10098SOL    HW131894   2.475   0.563   0.683  0.2576  0.8055 -1.3180
10098SOL    HW231895   2.360   0.626   0.585 -1.2183 -0.4703 -0.4542
10099SOL     OW31896   1.580   4.913   2.064 -0.2943  0.3541 -0.4399
10099SOL    HW131897   1.488   4.884   2.092 -0.6268  0.7831 -1.0820
10099SOL    HW231898   1.627   4.952   2.143 -1.5643  2.4280 -0.6442
10100SOL     OW31899   5.389   6.777   4.347 -0.1047 -0.2373  0.3266
10100SOL    HW131900   5.341   6.783   4.259 -0.0513 -2.8862  0.0471
10100SOL    HW231901   5.323   6.790   4.422 -0.9354 -1.9256 -0.0779
10101SOL     OW31902   4.113   3.300   1.402 -0.0138 -0.2053 -0.2172
10101SOL    HW131903   4.117   3.373   1.470 -0.4485 -1.2290  0.9571
10101SOL    HW231904   4.034   3.313   1.342 -0.7595 -0.3110  0.7193
10102SOL     OW31905   1.494   5.097   2.938 -0.6534  0.4189 -0.3274
10102SOL    HW131906   1.457   5.139   3.021 -0.9149 -1.8755  0.7947
10102SOL    HW231907   1.419   5.055   2.886 -0.0857 -1.3308  0.2081
10103SOL     OW31908   6.034   0.450   1.789 -0.0411 -0.5033 -0.6724
10103SOL    HW131909   5.986   0.517   1.732  1.8713  0.3298 -1.3956
10103SOL    HW231910   5.978   0.426   1.867 -2.0163 -0.3306 -1.9807
10104SOL     OW31911   5.935   0.713   0.440 -0.1964  0.2182  0.0128
10104SOL    HW131912   5.960   0.703   0.536  1.3001 -0.4092 -0.4035
10104SOL    HW231913   6.018   0.727   0.386 -1.1867  2.9050 -0.9430
10105SOL     OW31914   1.696   2.810   6.039 -0.2911 -0.5960 -0.2826
10105SOL    HW131915   1.638   2.757   5.978  0.8384 -0.7086 -1.2978
10105SOL    HW231916   1.723   2.895   5.995 -1.6222  0.6147  1.1179
10106SOL     OW31917   3.679   3.892   0.627 -0.3233  0.1083 -0.1825
10106SOL    HW131918   3.675   3.794   0.642 -0.6382  0.1068 -0.2611
10106SOL    HW231919   3.773   3.920   0.610 -0.1158 -0.0709  0.5990
10107SOL     OW31920   0.264   5.682   1.204  0.5023 -0.4943  0.2707
10107SOL    HW131921   0.285   5.629   1.287  2.4291 -0.7418 -0.3236
10107SOL    HW231922   0.348   5.721   1.168 -0.2138 -0.8228 -1.8772
10108SOL     OW31923   6.797   1.124   5.809 -0.5196 -0.1067  0.0399
10108SOL    HW131924   6.796   1.088   5.902 -0.1381  0.6481  0.3435
10108SOL    HW231925   6.870   1.081   5.757 -1.1710 -1.0332 -0.1185
10109SOL     OW31926   5.569   4.967   0.365  0.3314  0.4085  0.2973
10109SOL    HW131927   5.635   4.993   0.435 -1.6663 -0.3383  2.5917
10109SOL    HW231928   5.524   5.049   0.329  0.1460  0.7035  1.1884
10110SOL     OW31929   2.547   6.261   6.193  0.4625 -0.0362 -0.2294
10110SOL    HW131930   2.647   6.266   6.186  0.5757  0.9849  1.4578
10110SOL    HW231931   2.521   6.258   6.289 -1.1380 -0.4261 -0.6527
10111SOL     OW31932   1.420   3.799   5.130  0.1267 -0.3596 -0.1839
10111SOL    HW131933   1.383   3.793   5.038  0.0695 -0.8797 -0.1295
10111SOL    HW231934   1.375   3.874   5.179  0.1806 -0.0631 -0.5858
10112SOL     OW31935   5.678   0.822   2.198  0.1268 -0.5738  0.4714
10112SOL    HW131936   5.737   0.756   2.152  0.8060 -0.7667  1.5879
10112SOL    HW231937   5.674   0.906   2.145  1.1948 -0.6592  0.2441
10113SOL     OW31938   5.245   1.913   0.875 -0.3523  0.5789  0.1943
10113SOL    HW131939   5.337   1.914   0.837 -0.3276  1.4557  0.2602
10113SOL    HW231940   5.193   1.837   0.835  0.6547 -0.4525  0.8118
10114SOL     OW31941   2.643   0.638   0.762  0.1890 -0.8022  0.2347
10114SOL    HW131942   2.680   0.731   0.753  0.7660 -1.0482  0.0389
10114SOL    HW231943   2.657   0.605   0.855 -1.2863 -0.1687  0.7221
10115SOL     OW31944   6.156   4.422   5.573  0.3113 -0.6953  0.0361
10115SOL    HW131945   6.140   4.460   5.664  0.0318  1.0537 -0.6966
10115SOL    HW231946   6.076   4.438   5.516  1.4604  0.6544 -1.2768
10116SOL     OW31947   6.265   6.671   3.434  0.5308  0.4706 -0.0579
10116SOL    HW131948   6.182   6.707   3.391 -0.4460 -1.0259  0.5076
10116SOL    HW231949   6.287   6.726   3.515 -0.1213  0.6710 -0.0098
10117SOL     OW31950   1.756   2.773   5.005  0.1988 -0.6450  0.2103
10117SOL    HW131951   1.847   2.730   5.004 -0.4656 -2.1600  0.7292
10117SOL    HW231952   1.742   2.823   4.920  2.1038  0.9807  0.7663
10118SOL     OW31953   4.222   1.950   2.297  0.5305  0.5692  0.2289
10118SOL    HW131954   4.178   1.866   2.265 -2.2487  2.5493 -1.6554
10118SOL    HW231955   4.297   1.974   2.236  0.5355  0.1377  0.0584
10119SOL     OW31956   0.300   2.386   5.218 -0.0817 -0.1379  0.3741
10119SOL    HW131957   0.366   2.359   5.288  0.8994  0.6007 -0.2353
10119SOL    HW231958   0.323   2.477   5.184 -1.1055 -0.0916 -0.2400
10120SOL     OW31959   2.719   5.193   4.943  0.0308  0.0669 -0.5619
10120SOL    HW131960   2.750   5.131   4.871 -0.9710 -0.3066 -0.6797
10120SOL    HW231961   2.791   5.260   4.962  1.3428 -1.4164 -0.0798
10121SOL     OW31962   0.360   0.884   3.853 -0.3760  0.3960 -0.2012
10121SOL    HW131963   0.331   0.947   3.781  1.0912  1.4244  0.0702
10121SOL    HW231964   0.340   0.925   3.942 -0.3184  0.0195 -0.0135
10122SOL     OW31965   0.421   2.188   3.636  0.3029  0.4430 -0.4403
10122SOL    HW131966   0.371   2.101   3.638  1.3941 -0.2210 -0.8606
10122SOL    HW231967   0.433   2.222   3.729  1.3039 -0.7308 -0.1142
10123SOL     OW31968   6.005   5.047   4.250  0.1350 -0.6451 -0.1665
10123SOL    HW131969   5.959   5.027   4.164  1.8521 -1.3488 -0.9696
10123SOL    HW231970   6.080   5.111   4.234  2.2255 -2.8201  0.2066
10124SOL     OW31971   6.925   1.200   1.738  0.1579  0.3626  0.0778
10124SOL    HW131972   7.019   1.170   1.752 -0.2796 -0.1700  2.1415
10124SOL    HW231973   6.863   1.144   1.793 -1.2333  1.6613 -0.1005
10125SOL     OW31974   1.618   4.619   3.372 -0.2888 -0.0847  0.4493
10125SOL    HW131975   1.548   4.655   3.433  0.5407 -1.6327  2.4473
10125SOL    HW231976   1.708   4.652   3.401  0.0111  0.3081 -0.8597
10126SOL     OW31977   2.163   4.965   3.708 -0.0143 -0.0713  0.0555
10126SOL    HW131978   2.183   4.964   3.610  1.3321  0.1491  0.2980
10126SOL    HW231979   2.067   4.986   3.723 -0.1710  0.1876 -1.2115
10127SOL     OW31980   6.524   0.367   1.481 -0.1839 -0.3054  0.4062
10127SOL    HW131981   6.541   0.400   1.388 -3.6113 -2.4210 -1.1947
10127SOL    HW231982   6.583   0.288   1.499 -0.5299 -0.8098 -0.6026
10128SOL     OW31983   6.469   4.237   0.264  1.2014  1.0251 -0.1985
10128SOL    HW131984   6.370   4.228   0.276  1.1794  1.2169 -0.2265
10128SOL    HW231985   6.516   4.168   0.318  1.0747  1.2862  0.2501
10129SOL     OW31986   1.005   5.846   6.361 -0.2248  0.4361  0.6088
10129SOL    HW131987   0.937   5.910   6.324 -0.6572  0.0489  0.7215
10129SOL    HW231988   1.085   5.897   6.393 -0.2327  0.8522 -0.0156
10130SOL     OW31989   4.698   1.658   5.791  0.5735  0.6231  0.3397
10130SOL    HW131990   4.600   1.677   5.784  0.7665  1.4379 -0.3992
10130SOL    HW231991   4.732   1.629   5.702  0.8421 -0.5369  0.8048
10131SOL     OW31992   5.250   2.070   3.886  0.0179 -0.1601 -0.1140
10131SOL    HW131993   5.236   2.168   3.878 -0.3337 -0.2262 -0.3811
10131SOL    HW231994   5.295   2.049   3.972  0.8941  0.3065 -0.4495
10132SOL     OW31995   3.553   1.046   5.814 -0.0088  0.6087 -0.5197
10132SOL    HW131996   3.493   0.966   5.819  0.0218  0.6101 -0.0935
10132SOL    HW231997   3.498   1.127   5.795 -0.0769  0.5286 -0.6619
10133SOL     OW31998   3.169   3.734   1.879  0.6810 -0.5037  0.1080
10133SOL    HW131999   3.138   3.666   1.813 -2.0352  2.0422 -1.4630
10133SOL    HW232000   3.172   3.693   1.971 -0.0744 -2.8758 -0.8518
10134SOL     OW32001   2.197   1.138   3.871 -0.2377 -0.4470  0.2300
10134SOL    HW132002   2.270   1.174   3.929  0.1610  0.1991 -0.6425
10134SOL    HW232003   2.120   1.202   3.870 -2.0595 -2.3361  3.3110
10135SOL     OW32004   5.520   5.231   5.004  0.0103 -0.2355 -0.5515
10135SOL    HW132005   5.474   5.252   4.918 -0.3290 -1.3786 -0.6692
10135SOL    HW232006   5.514   5.310   5.065 -0.7065  0.2053 -1.1687
10136SOL     OW32007   1.872   4.380   6.987 -0.2330  0.9823 -0.3529
10136SOL    HW132008   1.812   4.455   7.015 -0.6602  1.0066 -1.2823
10136SOL    HW232009   1.917   4.404   6.901  1.1126  0.9565  0.3291
10137SOL     OW32010   6.115   2.840   0.838  0.2177 -0.3320  0.0385
10137SOL    HW132011   6.166   2.789   0.768  1.0506  0.9894 -0.3590
10137SOL    HW232012   6.060   2.777   0.891  1.3296 -1.6688 -0.3231
10138SOL     OW32013   6.794   3.550   0.891  0.0055 -0.5880  0.9002
10138SOL    HW132014   6.730   3.588   0.824  0.6177 -0.4341  0.3900
10138SOL    HW232015   6.747   3.536   0.978 -0.4381  0.5561  0.8589
10139SOL     OW32016   6.663   1.902   6.569 -0.3028 -0.0208 -0.5646
10139SOL    HW132017   6.576   1.931   6.609 -0.1189 -1.5502  1.0684
10139SOL    HW232018   6.712   1.845   6.634  2.3032  1.3968 -1.1598
10140SOL     OW32019   6.981   6.315   6.842  0.6138  0.4901 -0.5275
10140SOL    HW132020   6.982   6.318   6.742  0.1370 -1.3894 -0.6161
10140SOL    HW232021   6.910   6.377   6.876  1.9316  2.5003 -1.2194
10141SOL     OW32022   5.706   2.869   0.882  0.0306 -0.6430 -0.3356
10141SOL    HW132023   5.706   2.930   0.803 -1.0668 -0.3137 -0.0961
10141SOL    HW232024   5.794   2.822   0.887  2.3644  3.4188  1.4510
10142SOL     OW32025   0.652   0.096   1.519  0.8028  0.2258 -0.2470
10142SOL    HW132026   0.568   0.062   1.477  0.9269 -2.1438  1.2336
10142SOL    HW232027   0.718   0.021   1.527  1.3923  0.9267  2.6214
10143SOL     OW32028   0.499   3.663   1.671 -0.0168 -0.1773 -0.4254
10143SOL    HW132029   0.434   3.658   1.747 -1.3903  1.0462 -1.4560
10143SOL    HW232030   0.587   3.696   1.704  1.1499 -4.5352  1.5546
10144SOL     OW32031   5.570   0.725   0.097 -0.4186 -0.4327 -0.1838
10144SOL    HW132032   5.538   0.674   0.017  0.9335 -1.7145  0.0520
10144SOL    HW232033   5.492   0.768   0.142 -1.3418 -0.5889 -1.5581
10145SOL     OW32034   3.633   2.976   5.304 -0.1305  0.1829 -0.4808
10145SOL    HW132035   3.698   2.955   5.231  0.6424  2.7335 -0.6086
10145SOL    HW232036   3.561   3.035   5.269 -1.2401 -0.6981  0.2361
10146SOL     OW32037   4.436   2.234   2.640 -0.7904  0.0700 -0.1340
10146SOL    HW132038   4.489   2.164   2.593  0.9847  0.0345  1.7937
10146SOL    HW232039   4.475   2.324   2.621 -2.8279  0.6072 -2.2874
10147SOL     OW32040   0.081   2.331   5.056 -0.1684  0.1516  0.3619
10147SOL    HW132041   0.163   2.354   5.108 -0.1260  1.0105 -0.0640
10147SOL    HW232042   0.074   2.392   4.977 -1.3703  0.2804  0.5569
10148SOL     OW32043   3.694   4.813   5.528 -0.6092  0.2911 -0.5279
10148SOL    HW132044   3.645   4.897   5.505 -0.4996  0.5448  0.1373
10148SOL    HW232045   3.628   4.742   5.555 -0.6782  0.2917 -0.6987
10149SOL     OW32046   0.238   2.653   4.489 -0.3424 -0.2258 -0.6250
10149SOL    HW132047   0.206   2.574   4.436 -0.0478 -0.4447 -0.4770
10149SOL    HW232048   0.160   2.695   4.535 -0.5276 -0.3258 -0.8446
10150SOL     OW32049   0.131   2.429   6.309 -0.1687 -0.2617  0.0651
10150SOL    HW132050   0.040   2.470   6.304  1.4832  4.0013  0.7743
10150SOL    HW232051   0.151   2.403   6.404 -0.7885 -1.8158 -0.1962
10151SOL     OW32052   4.677   4.251   6.860  0.0950  0.1267  0.1752
10151SOL    HW132053   4.715   4.181   6.921  1.2041 -0.1759 -0.8201
10151SOL    HW232054   4.742   4.326   6.851  0.4425 -0.3338 -1.4603
10152SOL     OW32055   1.197   0.704   2.619  0.0320  0.5669 -0.5127
10152SOL    HW132056   1.193   0.633   2.549  0.0445  1.5057 -1.4956
10152SOL    HW232057   1.293   0.725   2.640  0.0293  0.3506 -0.2883
10153SOL     OW32058   1.808   6.199   0.208  0.1136 -0.1856  0.2672
10153SOL    HW132059   1.890   6.252   0.230 -0.8243  3.0801 -3.0345
10153SOL    HW232060   1.729   6.239   0.255  0.1174 -2.8596  2.8378
10154SOL     OW32061   3.877   3.810   1.251  0.4358  0.2956 -0.5810
10154SOL    HW132062   3.778   3.820   1.238  0.4430  0.3094 -0.6234
10154SOL    HW232063   3.921   3.793   1.163  1.0006  4.6850 -1.3718
10155SOL     OW32064   3.017   4.394   1.084  0.1456 -0.7650  0.0552
10155SOL    HW132065   3.026   4.408   1.182 -2.6167  0.9316  0.1680
10155SOL    HW232066   2.957   4.315   1.067 -1.2510  0.3104 -0.1704
10156SOL     OW32067   2.717   6.229   1.220  0.0911  0.5939  0.2435
10156SOL    HW132068   2.618   6.243   1.210  0.0639  0.1407 -0.1563
10156SOL    HW232069   2.766   6.282   1.151  0.0910  0.3200  0.0302
10157SOL     OW32070   0.779   3.677   1.962  0.2264  0.7016  0.5535
10157SOL    HW132071   0.756   3.751   1.899 -0.1170  1.5746  1.6703
10157SOL    HW232072   0.850   3.619   1.922 -2.3405 -0.8665 -2.1534
10158SOL     OW32073   4.285   0.028   2.034  0.0708 -0.1752 -0.3646
10158SOL    HW132074   4.290   0.117   2.078 -0.3719 -0.4131  0.1811
10158SOL    HW232075   4.334  -0.040   2.090 -0.1992 -0.4140 -0.4159
10159SOL     OW32076   3.095   1.113   1.504  0.3861 -0.4615 -0.0964
10159SOL    HW132077   3.123   1.076   1.415 -0.4225 -1.3840  0.0119
10159SOL    HW232078   3.062   1.206   1.493 -0.4292 -0.8337 -0.9004
10160SOL     OW32079   6.225   0.751   3.592 -0.1052  0.7979 -0.1446
10160SOL    HW132080   6.190   0.677   3.650  0.9472 -0.5460 -1.1542
10160SOL    HW232081   6.155   0.775   3.525 -0.0632 -0.1167 -0.5425
10161SOL     OW32082   1.298   3.495   0.268  0.0897  0.1072 -0.8558
10161SOL    HW132083   1.354   3.492   0.351  0.5545  0.1681 -1.1640
10161SOL    HW232084   1.357   3.507   0.188 -0.1635 -1.7978 -1.3886
10162SOL     OW32085   0.392   6.715   3.659 -0.1162  0.7524 -0.1964
10162SOL    HW132086   0.487   6.706   3.689 -0.5960  1.7036  1.7755
10162SOL    HW232087   0.358   6.806   3.684 -2.0552 -0.1647  0.7190
10163SOL     OW32088   0.239   6.009   2.273  0.5415  0.2719  0.7509
10163SOL    HW132089   0.278   6.004   2.180 -0.2041  0.2192  0.4335
10163SOL    HW232090   0.233   6.104   2.301 -0.6106  0.3987  0.1344
10164SOL     OW32091   2.845   5.706   5.026 -0.8595  0.0774  0.4420
10164SOL    HW132092   2.760   5.719   5.076 -0.5163  1.6333  0.6738
10164SOL    HW232093   2.847   5.767   4.947 -1.7790 -2.9151 -2.1279
10165SOL     OW32094   5.320   5.793   2.906  0.4130  0.8350  0.1557
10165SOL    HW132095   5.230   5.836   2.907 -0.6990 -1.3224 -0.9549
10165SOL    HW232096   5.348   5.776   2.811  0.7183 -0.9664  0.5280
10166SOL     OW32097   2.219   0.750   1.775  0.2914  0.1817  0.6995
10166SOL    HW132098   2.244   0.696   1.855 -0.1399 -1.4380 -0.2185
10166SOL    HW232099   2.301   0.791   1.736  0.7567 -0.5262  0.9099
10167SOL     OW32100   6.160   1.911   0.180  1.0138  0.2703 -0.1520
10167SOL    HW132101   6.187   1.965   0.101 -0.0203 -0.1500 -0.8219
10167SOL    HW232102   6.146   1.816   0.152 -0.6874  0.3742  0.2081
10168SOL     OW32103   2.645   2.142   1.637 -0.3218 -0.3988  0.3382
10168SOL    HW132104   2.564   2.181   1.594  1.9483  1.8462 -2.2408
10168SOL    HW232105   2.691   2.212   1.692  2.2973 -0.0736 -2.0521
10169SOL     OW32106   2.403   6.846   1.759 -0.4420  0.0075  0.0979
10169SOL    HW132107   2.480   6.783   1.768 -0.3592  0.1956  0.7699
10169SOL    HW232108   2.389   6.868   1.663 -0.4979 -1.0728 -0.1549
10170SOL     OW32109   0.835   0.933   6.037 -0.1526 -0.6799 -0.0491
10170SOL    HW132110   0.929   0.966   6.028  0.2691 -1.8886 -0.3002
10170SOL    HW232111   0.789   0.939   5.949  0.5213 -2.4439 -0.5609
10171SOL     OW32112   4.669   6.676   2.875 -0.5385  0.1518 -0.2130
10171SOL    HW132113   4.586   6.644   2.830 -0.8754  3.4199 -2.2265
10171SOL    HW232114   4.748   6.655   2.819 -0.0756 -1.5545  0.9664
10172SOL     OW32115   1.602   5.209   1.984 -0.2519 -0.4006 -0.5083
10172SOL    HW132116   1.692   5.253   1.989  0.1044 -1.1099 -0.6051
10172SOL    HW232117   1.609   5.115   2.015 -1.0213 -0.3860 -0.2649
10173SOL     OW32118   5.830   0.754   5.837 -0.3996 -0.4808 -0.0379
10173SOL    HW132119   5.906   0.809   5.802 -0.8917  0.1901 -0.0870
10173SOL    HW232120   5.848   0.728   5.932  0.1685 -0.8594 -0.2432
10174SOL     OW32121   6.501   3.853   5.330  0.4752 -0.4349  0.0673
10174SOL    HW132122   6.451   3.915   5.269 -0.7689 -2.0912 -0.6781
10174SOL    HW232123   6.511   3.896   5.420 -0.6672  0.7013 -0.3155
10175SOL     OW32124   4.487   6.675   1.285  0.0720 -0.2875 -0.5639
10175SOL    HW132125   4.551   6.694   1.359 -0.4028  3.0231 -0.8552
10175SOL    HW232126   4.537   6.645   1.204  1.1278  0.7762 -0.3308
10176SOL     OW32127   6.533   3.926   4.409 -0.6333 -0.6156 -0.0761
10176SOL    HW132128   6.539   4.021   4.442  0.2148 -0.2747 -1.1354
10176SOL    HW232129   6.566   3.864   4.481 -0.3493 -0.0338  0.3042
10177SOL     OW32130   6.421   5.547   2.754 -0.0902 -0.2039 -0.2721
10177SOL    HW132131   6.346   5.604   2.721 -0.4534  0.3172  1.3708
10177SOL    HW232132   6.444   5.479   2.685 -2.1404 -0.4575 -0.7663
10178SOL     OW32133   3.451   5.689   3.148 -0.3934  0.4693  0.5725
10178SOL    HW132134   3.547   5.685   3.120 -0.1007  1.0670  1.4407
10178SOL    HW232135   3.419   5.597   3.169 -0.6518 -0.0237 -1.7037
10179SOL     OW32136   2.548   5.237   4.053 -0.1197 -0.7350 -0.2475
10179SOL    HW132137   2.589   5.328   4.060  1.9827 -1.7411  1.8090
10179SOL    HW232138   2.500   5.215   4.138  1.3352 -2.3730  0.2050
10180SOL     OW32139   5.664   5.622   1.497 -0.1039 -0.3309 -0.1928
10180SOL    HW132140   5.599   5.585   1.563 -0.0459  1.1172  0.7127
10180SOL    HW232141   5.636   5.595   1.404  0.3235 -3.1701  0.3991
10181SOL     OW32142   4.686   5.756   3.693 -0.5926 -0.3518  0.1635
10181SOL    HW132143   4.665   5.765   3.596 -0.1860 -1.4137 -0.0303
10181SOL    HW232144   4.705   5.847   3.731 -2.7947  0.3633 -0.2578
10182SOL     OW32145   2.169   3.851   0.449  0.3315  0.0415  0.1917
10182SOL    HW132146   2.177   3.942   0.490  0.2615  0.0101  0.2754
10182SOL    HW232147   2.196   3.856   0.353  1.0212  0.0076  0.3746
10183SOL     OW32148   0.963   4.371   3.547  0.6456 -0.7021 -0.2014
10183SOL    HW132149   1.049   4.396   3.591  1.3212 -2.0643 -0.6809
10183SOL    HW232150   0.929   4.448   3.493  0.7154  0.3903  1.2555
10184SOL     OW32151   0.913   5.031   1.755 -0.4498 -0.4734  0.8600
10184SOL    HW132152   0.932   5.125   1.725 -2.8825 -0.3540 -0.5120
10184SOL    HW232153   0.976   4.969   1.709 -0.8511  0.2110 -0.6725
10185SOL     OW32154   5.887   6.857   2.934  0.0654 -0.0178 -0.2051
10185SOL    HW132155   5.805   6.907   2.908 -0.5207 -0.1184  1.3679
10185SOL    HW232156   5.863   6.762   2.956  0.7309 -0.2612 -0.4842
10186SOL     OW32157   3.750   2.405   6.025  0.6419 -0.6168 -0.0646
10186SOL    HW132158   3.766   2.310   6.050  0.0801 -0.3871  1.2803
10186SOL    HW232159   3.783   2.421   5.932 -0.0135 -2.3201 -0.6319
10187SOL     OW32160   4.960   3.139   2.011  0.0869 -0.2659  0.1448
10187SOL    HW132161   4.945   3.067   2.079  2.7553 -0.8532  0.2238
10187SOL    HW232162   4.999   3.219   2.056 -0.0292  0.1081 -0.4090
10188SOL     OW32163   5.602   4.448   6.234  0.5116 -0.3898 -0.2326
10188SOL    HW132164   5.523   4.397   6.199 -0.7053  1.4647 -0.3252
10188SOL    HW232165   5.601   4.540   6.196  1.6473  0.2752  1.2705
10189SOL     OW32166   3.742   3.902   5.193 -0.4805  0.1219  0.0624
10189SOL    HW132167   3.735   3.848   5.109  1.6756 -1.6176  0.9098
10189SOL    HW232168   3.811   3.973   5.181  1.6915 -1.6927  1.0246
10190SOL     OW32169   2.773   1.352   5.188 -0.3987  0.6260  0.2873
10190SOL    HW132170   2.716   1.269   5.189  0.4427 -0.0103 -1.2580
10190SOL    HW232171   2.771   1.392   5.096  0.7782  1.1961  0.4927
10191SOL     OW32172   5.595   0.392   6.082 -0.0253 -0.8407  0.1686
10191SOL    HW132173   5.686   0.418   6.115 -0.9909  1.0343  1.6161
10191SOL    HW232174   5.593   0.294   6.061  2.3385 -0.8894 -0.0622
10192SOL     OW32175   5.333   3.787   5.049  0.3433  0.0334  0.2149
10192SOL    HW132176   5.328   3.687   5.047  2.0026 -0.0569 -1.8077
10192SOL    HW232177   5.254   3.825   5.000 -1.0306 -0.1729  2.1328
10193SOL     OW32178   5.502   1.884   0.866 -0.2303  0.3638  0.1032
10193SOL    HW132179   5.552   1.797   0.867 -0.8376  0.0122  1.3987
10193SOL    HW232180   5.529   1.936   0.785 -1.8216 -2.1579 -2.2442
10194SOL     OW32181   3.611   3.294   0.971  0.1034 -0.1008 -0.4724
10194SOL    HW132182   3.547   3.217   0.975  2.0444 -1.7352  0.6932
10194SOL    HW232183   3.695   3.265   0.925  1.1687  1.1019  0.6492
10195SOL     OW32184   0.974   5.918   4.848  0.3264  0.0822 -0.4461
10195SOL    HW132185   1.030   5.836   4.835 -0.7976 -0.6117 -1.1200
10195SOL    HW232186   0.933   5.944   4.761 -2.3914 -0.9505  0.3990
10196SOL     OW32187   2.741   6.683   3.148  0.0251  0.3550  0.1018
10196SOL    HW132188   2.778   6.590   3.154 -2.3601 -0.6092  0.9757
10196SOL    HW232189   2.679   6.689   3.070 -1.2700  0.6313  1.1204
10197SOL     OW32190   5.711   0.653   6.763  0.3515  0.4865 -0.4355
10197SOL    HW132191   5.746   0.711   6.689  1.1057  0.9191  0.2339
10197SOL    HW232192   5.781   0.646   6.834 -0.3728  0.1012  0.2467
10198SOL     OW32193   2.273   0.531   1.546 -0.2921  0.5491  0.2735
10198SOL    HW132194   2.247   0.621   1.511 -1.4383  0.0466 -0.2255
10198SOL    HW232195   2.372   0.518   1.534 -0.2865  1.3150 -0.6431
10199SOL     OW32196   6.640   6.756   0.747  0.2559 -0.1913  0.4071
10199SOL    HW132197   6.657   6.844   0.701  0.1940  0.9077  2.3860
10199SOL    HW232198   6.602   6.691   0.681  1.0677  0.9863 -1.3106
10200SOL     OW32199   1.460   5.180   0.247 -0.8206  0.1267  0.1096
10200SOL    HW132200   1.454   5.107   0.315 -1.5031  0.2769  0.2196
10200SOL    HW232201   1.382   5.173   0.185 -1.3997  1.3042  0.6753
10201SOL     OW32202   5.395   6.770   2.124  0.7129  0.7952  0.1179
10201SOL    HW132203   5.389   6.843   2.056  0.2066  0.0510 -0.6606
10201SOL    HW232204   5.312   6.769   2.180 -0.3394 -0.6130 -1.3920
10202SOL     OW32205   1.774   2.533   0.893  0.1923  0.0583 -0.1830
10202SOL    HW132206   1.845   2.601   0.913  1.9809 -1.5165 -0.9675
10202SOL    HW232207   1.697   2.579   0.848  1.8705  1.4162 -1.8521
10203SOL     OW32208   4.586   1.079   6.430 -0.0341 -0.1959 -0.0524
10203SOL    HW132209   4.508   1.022   6.457  1.1785 -2.6775 -1.4333
10203SOL    HW232210   4.632   1.037   6.352 -0.8939  4.3712 -3.4540
10204SOL     OW32211   4.626   6.457   6.177  0.4329  0.2044 -0.1909
10204SOL    HW132212   4.590   6.467   6.085  0.1970  1.8141  0.0585
10204SOL    HW232213   4.551   6.435   6.240  0.3484  0.6253 -0.1430
10205SOL     OW32214   1.718   4.438   4.310 -0.3189  0.2336 -0.6052
10205SOL    HW132215   1.700   4.496   4.231 -0.7454  0.3604 -0.4228
10205SOL    HW232216   1.643   4.372   4.321  0.5897 -0.9479 -1.3270
10206SOL     OW32217   2.327   5.191   1.303  0.8477  0.2207  0.0907
10206SOL    HW132218   2.400   5.232   1.248 -0.7866  1.2449 -1.4422
10206SOL    HW232219   2.301   5.254   1.376  2.6010 -0.8794  1.7469
10207SOL     OW32220   0.162   4.476   1.191  0.0108  0.4315 -0.5706
10207SOL    HW132221   0.178   4.521   1.279  2.0910  0.1541 -0.7645
10207SOL    HW232222   0.136   4.544   1.123 -0.9380  0.7390  0.0797
10208SOL     OW32223   6.474   2.613   3.693  0.4468  0.5755  0.5646
10208SOL    HW132224   6.528   2.616   3.777 -1.1979  2.6640  1.6435
10208SOL    HW232225   6.467   2.706   3.655 -1.0466  0.0975 -0.4041
10209SOL     OW32226   5.236   3.798   2.868  0.0702 -0.1033 -0.1630
10209SOL    HW132227   5.308   3.756   2.923 -1.9813 -1.5736  1.5538
10209SOL    HW232228   5.277   3.838   2.786  2.6292 -2.4146 -0.1744
10210SOL     OW32229   3.331   2.723   1.443  0.1262 -0.5567 -0.2810
10210SOL    HW132230   3.291   2.657   1.506  1.9685 -1.1127  0.3707
10210SOL    HW232231   3.408   2.770   1.487  0.8036 -0.2075 -1.7472
10211SOL     OW32232   4.007   5.083   2.989 -0.3060 -0.2170  0.1049
10211SOL    HW132233   4.070   5.006   2.999 -0.2070 -0.2247 -0.5890
10211SOL    HW232234   3.926   5.054   2.939  0.7800  0.6883 -2.3317
10212SOL     OW32235   0.569   5.749   6.692 -0.4142 -0.0775 -0.6838
10212SOL    HW132236   0.640   5.772   6.625  0.3183  1.8989  0.6618
10212SOL    HW232237   0.609   5.690   6.763 -0.0384  1.1237  0.1325
10213SOL     OW32238   4.170   3.383   4.096 -0.0643 -0.5320  0.3562
10213SOL    HW132239   4.148   3.480   4.099 -1.7352 -0.8938  1.3186
10213SOL    HW232240   4.096   3.333   4.050  1.2659 -1.2434 -1.0758
10214SOL     OW32241   1.279   1.020   2.551 -0.2637 -0.4547 -0.0508
10214SOL    HW132242   1.203   1.068   2.506  1.0416 -0.6799 -2.6865
10214SOL    HW232243   1.353   1.007   2.486  1.3807 -1.7923  1.9609
10215SOL     OW32244   5.294   5.812   1.033  0.2119 -0.2971  0.5614
10215SOL    HW132245   5.282   5.862   1.119  0.5849 -0.1242  0.5112
10215SOL    HW232246   5.313   5.876   0.959 -2.2130 -0.2173 -0.0874
10216SOL     OW32247   2.934   2.311   6.934  0.4998 -0.4817  0.4025
10216SOL    HW132248   2.999   2.312   7.010  0.0361 -1.1543  0.8271
10216SOL    HW232249   2.984   2.302   6.848  0.9909 -0.5982  0.6929
10217SOL     OW32250   0.569   4.650   2.760  0.5609 -0.1072  0.0179
10217SOL    HW132251   0.503   4.719   2.734  1.9746  0.8520 -1.1875
10217SOL    HW232252   0.599   4.666   2.855  0.6374  0.7515 -0.1437
10218SOL     OW32253   2.294   5.092   3.919 -0.0838 -0.3038 -0.5542
10218SOL    HW132254   2.252   5.069   3.831  2.4012 -1.0824 -1.6243
10218SOL    HW232255   2.390   5.065   3.919 -0.1900 -1.1613  2.7753
10219SOL     OW32256   5.091   2.862   5.877  0.1350 -0.0001 -0.5060
10219SOL    HW132257   5.059   2.902   5.963  0.5736 -0.6280 -0.0320
10219SOL    HW232258   5.133   2.932   5.820 -1.9395  0.8377 -1.1069
10220SOL     OW32259   4.517   2.920   1.638 -0.1302  0.5150  0.4672
10220SOL    HW132260   4.616   2.935   1.637 -0.1253  0.6172  1.4378
10220SOL    HW232261   4.476   2.959   1.555  0.7299 -0.1882 -0.2944
10221SOL     OW32262   5.901   4.582   5.152 -0.2823 -0.7178  0.4112
10221SOL    HW132263   5.874   4.491   5.121 -1.7551 -0.1929  0.0976
10221SOL    HW232264   5.954   4.627   5.080  2.0875 -1.9779  1.2605
10222SOL     OW32265   2.701   3.998   6.938 -0.0179  0.0138  0.4637
10222SOL    HW132266   2.610   3.965   6.962 -0.4358  1.7348  1.3766
10222SOL    HW232267   2.742   3.936   6.871 -1.6200 -1.0997  0.4573
10223SOL     OW32268   1.311   2.691   2.129 -0.4488  0.1087  0.1152
10223SOL    HW132269   1.239   2.674   2.197 -0.4414  0.7181  0.2780
10223SOL    HW232270   1.326   2.789   2.120  1.5610 -0.0325  1.3338
10224SOL     OW32271   5.352   0.227   3.034 -0.3795  0.2741 -0.3325
10224SOL    HW132272   5.295   0.156   2.993  0.4967  0.3793 -1.8071
10224SOL    HW232273   5.448   0.207   3.016  0.1864 -0.3365  2.7764
10225SOL     OW32274   5.422   0.106   3.935 -0.2362  0.9065 -0.6704
10225SOL    HW132275   5.327   0.079   3.916 -0.5031  0.9226  0.5917
10225SOL    HW232276   5.470   0.031   3.979 -0.1610  1.4754  0.2483
10226SOL     OW32277   5.990   1.219   0.216  0.6443  0.3227 -0.1197
10226SOL    HW132278   5.907   1.199   0.268  1.8162 -0.7834  1.4530
10226SOL    HW232279   5.973   1.295   0.153 -1.7044 -0.2822 -0.3092
10227SOL     OW32280   5.113   6.318   3.664 -0.7934  0.0577 -0.5566
10227SOL    HW132281   5.072   6.299   3.753  2.4359 -0.5986  0.9056
10227SOL    HW232282   5.100   6.239   3.604 -2.3805  0.2298 -0.4879
10228SOL     OW32283   4.403   3.611   3.901  0.0932 -0.9361  0.5920
10228SOL    HW132284   4.333   3.608   3.830  1.5588 -0.5362 -0.9093
10228SOL    HW232285   4.487   3.568   3.868  0.8737 -0.5595  2.0099
10229SOL     OW32286   0.408   0.126   0.683 -0.4834 -0.3921  0.4728
10229SOL    HW132287   0.312   0.149   0.702 -0.1916  1.1274  0.2200
10229SOL    HW232288   0.417   0.026   0.677 -2.0189 -0.5742  0.6096
10230SOL     OW32289   3.462   6.400   1.423 -0.4424  0.1518  0.0369
10230SOL    HW132290   3.390   6.337   1.395 -0.4430 -0.3735  1.1534
10230SOL    HW232291   3.457   6.414   1.522  0.8536  0.2690  0.1040
10231SOL     OW32292   3.444   0.556   0.513  0.3053  0.2715  0.2899
10231SOL    HW132293   3.430   0.504   0.428  0.2452 -0.9841  1.0432
10231SOL    HW232294   3.368   0.620   0.526 -0.1559 -0.1802 -0.1311
10232SOL     OW32295   3.276   6.797   5.131  1.1096  0.3882  0.0174
10232SOL    HW132296   3.332   6.874   5.101  0.5470  1.5707  1.8457
10232SOL    HW232297   3.333   6.731   5.179  1.4955 -0.0771 -1.0567
10233SOL     OW32298   5.147   3.347   0.256  0.3106  0.3092 -0.1577
10233SOL    HW132299   5.133   3.446   0.255  1.6486  0.5124  0.0540
10233SOL    HW232300   5.061   3.302   0.280 -0.3579  1.4015 -0.4083
10234SOL     OW32301   6.761   4.549   0.540 -0.1788  0.2315 -0.6832
10234SOL    HW132302   6.727   4.457   0.562  0.7391  0.0286 -0.0932
10234SOL    HW232303   6.769   4.602   0.624  0.7939  0.3325 -0.8331
10235SOL     OW32304   2.223   4.016   5.295 -0.3511 -0.1716 -0.0804
10235SOL    HW132305   2.197   4.067   5.377 -1.2416  0.5469 -0.7834
10235SOL    HW232306   2.223   3.918   5.315 -1.2950 -0.0520  0.5989
10236SOL     OW32307   5.507   5.965   2.553 -0.5829 -0.0677 -0.0912
10236SOL    HW132308   5.522   5.879   2.504  2.5929  0.0946  0.3798
10236SOL    HW232309   5.544   5.958   2.645 -1.3363  1.4567  0.3564
10237SOL     OW32310   4.056   3.131   5.297 -0.4734  0.4283  0.1839
10237SOL    HW132311   4.123   3.125   5.224  0.6791 -0.2466  1.2500
10237SOL    HW232312   3.969   3.166   5.261 -0.6054 -1.8164 -1.9208
10238SOL     OW32313   4.320   1.121   2.345  0.0137  0.0280  0.1697
10238SOL    HW132314   4.291   1.197   2.288 -1.0281 -0.8317 -0.4997
10238SOL    HW232315   4.417   1.102   2.330 -0.6430 -1.4494 -2.9448
10239SOL     OW32316   5.484   0.712   3.433  0.2680 -0.1062 -0.5540
10239SOL    HW132317   5.435   0.793   3.401  0.6409  0.0078 -0.8410
10239SOL    HW232318   5.556   0.689   3.367  1.5389  0.5595  0.5600
10240SOL     OW32319   6.887   2.065   4.098  0.1259 -0.4849  0.1346
10240SOL    HW132320   6.956   2.037   4.164  0.8041 -0.3022 -0.4722
10240SOL    HW232321   6.812   2.112   4.144  0.5231 -0.4841  0.7816
10241SOL     OW32322   5.350   0.222   1.031 -0.1629  0.1060 -0.2177
10241SOL    HW132323   5.378   0.211   1.126  3.8153  0.2906 -1.1833
10241SOL    HW232324   5.389   0.306   0.994  0.3498 -1.0565 -2.5405
10242SOL     OW32325   3.360   3.571   1.189  0.0158  0.3113 -0.3309
10242SOL    HW132326   3.288   3.535   1.130 -1.4790 -0.3553  1.7558
10242SOL    HW232327   3.320   3.598   1.277  2.2071  0.6653  0.6161
10243SOL     OW32328   4.247   5.355   2.326  0.1504  0.0657 -0.0177
10243SOL    HW132329   4.170   5.356   2.262 -1.3563  3.8315  1.5796
10243SOL    HW232330   4.299   5.440   2.318  2.8552 -1.4063  0.5669
10244SOL     OW32331   2.084   5.091   4.108 -0.3702 -0.3864  0.3372
10244SOL    HW132332   2.150   5.071   4.035 -1.5625  2.3907 -1.6806
10244SOL    HW232333   2.113   5.173   4.157 -0.6500 -1.0625  1.6575
10245SOL     OW32334   1.994   0.295   5.209  0.2708  0.0286 -0.0688
10245SOL    HW132335   2.063   0.227   5.185 -0.4263 -0.1201 -1.8005
10245SOL    HW232336   1.994   0.368   5.141 -0.6954  0.4577  0.3728
10246SOL     OW32337   6.075   0.306   6.174  1.0460  0.9050  0.1491
10246SOL    HW132338   6.097   0.339   6.266 -1.1752  0.5923  0.8574
10246SOL    HW232339   6.082   0.206   6.172 -2.2365  0.5508  1.0783
10247SOL     OW32340   0.664   5.366   1.387  0.6321 -0.1047  0.6126
10247SOL    HW132341   0.705   5.302   1.322 -0.2061  1.1069 -1.1949
10247SOL    HW232342   0.733   5.433   1.416  0.9075 -0.4099  0.6699
10248SOL     OW32343   2.314   5.530   4.826 -0.7251  0.4046 -0.0315
10248SOL    HW132344   2.283   5.598   4.892  1.0556  0.7923  0.4820
10248SOL    HW232345   2.411   5.510   4.842 -1.4736 -3.2915  0.6715
10249SOL     OW32346   1.070   3.675   5.320  0.1630 -0.6432  0.0295
10249SOL    HW132347   0.989   3.617   5.315  0.5286 -1.1114 -0.6333
10249SOL    HW232348   1.152   3.618   5.319  0.5216 -0.1335 -0.2239
10250SOL     OW32349   5.736   5.537   6.995  0.5791  0.1901  0.0188
10250SOL    HW132350   5.665   5.607   7.004  1.3782  1.3814 -2.2734
10250SOL    HW232351   5.700   5.460   6.943 -0.3105 -1.2315  2.5675
10251SOL     OW32352   6.553   4.685   6.059  0.3730  0.2633  0.0006
10251SOL    HW132353   6.545   4.586   6.069 -0.0362  0.3171  0.2499
10251SOL    HW232354   6.562   4.709   5.963  0.3108 -0.0052 -0.0718
10252SOL     OW32355   0.953   4.905   3.892  0.2036  0.1081  0.2069
10252SOL    HW132356   0.897   4.824   3.907  1.2449 -0.6127  0.3000
10252SOL    HW232357   0.913   4.961   3.820 -0.2796 -0.7276 -0.1829
10253SOL     OW32358   2.647   6.797   3.366 -0.2018 -0.5027 -0.7204
10253SOL    HW132359   2.687   6.740   3.294 -0.8659 -0.8978 -0.7818
10253SOL    HW232360   2.680   6.767   3.455  1.9672  1.0566 -0.9230
10254SOL     OW32361   2.892   3.203   6.727 -0.5813  0.1221 -0.4182
10254SOL    HW132362   2.835   3.249   6.794 -1.7153 -1.2392 -0.3921
10254SOL    HW232363   2.972   3.164   6.772 -1.3304 -0.7742  0.1616
10255SOL     OW32364   6.023   6.656   1.528 -0.0168  0.6211  0.0065
10255SOL    HW132365   6.019   6.693   1.621 -2.8448  0.1686  0.1420
10255SOL    HW232366   6.076   6.718   1.469  0.4184  1.7433  1.5307
10256SOL     OW32367   4.168   2.081   1.862 -0.5529  0.0918 -0.7105
10256SOL    HW132368   4.268   2.074   1.860 -0.5018  0.6567 -3.1759
10256SOL    HW232369   4.138   2.103   1.955  1.6569  0.8138 -0.1040
10257SOL     OW32370   2.231   4.636   5.200  0.0264  0.6163 -0.1923
10257SOL    HW132371   2.272   4.655   5.290  0.1758  2.9472 -0.7044
10257SOL    HW232372   2.185   4.547   5.203 -0.7593  1.0170  2.4923
10258SOL     OW32373   0.947   5.690   4.048 -0.0729  0.1082 -0.3126
10258SOL    HW132374   0.923   5.682   4.145  0.9052  0.2648 -0.0518
10258SOL    HW232375   0.959   5.786   4.024 -0.0292  0.0511 -0.5244
10259SOL     OW32376   4.385   3.457   6.372  0.1864 -0.7098 -0.7562
10259SOL    HW132377   4.343   3.421   6.455  1.9459 -0.6370  0.2369
10259SOL    HW232378   4.315   3.475   6.303 -1.6588  1.3207  1.4807
10260SOL     OW32379   0.507   6.160   3.292 -0.7979  0.2396 -0.8762
10260SOL    HW132380   0.504   6.260   3.291  1.3443  0.4286  1.5641
10260SOL    HW232381   0.600   6.130   3.309 -1.7910 -2.1209  0.8126
10261SOL     OW32382   3.063   6.212   3.643 -0.5967 -0.2808  0.5003
10261SOL    HW132383   3.074   6.141   3.712 -2.7266 -1.2831 -0.1338
10261SOL    HW232384   3.079   6.302   3.685 -1.4852 -0.8879  2.2115
10262SOL     OW32385   0.207   5.248   2.568 -0.5267  0.0412 -0.0997
10262SOL    HW132386   0.163   5.268   2.481 -2.8649 -1.0230  0.7493
10262SOL    HW232387   0.183   5.319   2.634 -0.0833  0.0121  0.0914
10263SOL     OW32388   4.818   1.661   6.249 -0.3892 -0.2052 -0.0016
10263SOL    HW132389   4.776   1.717   6.321 -1.4782 -2.8857  1.6166
10263SOL    HW232390   4.915   1.681   6.243 -0.2120 -0.0883  2.4613
10264SOL     OW32391   6.852   6.323   5.589 -0.1743 -0.4037  0.4415
10264SOL    HW132392   6.832   6.320   5.687  2.4038  0.8104  1.1124
10264SOL    HW232393   6.930   6.263   5.570  1.0191  1.3123 -0.3250
10265SOL     OW32394   2.777   3.575   0.385  0.0749 -0.1821  0.4373
10265SOL    HW132395   2.795   3.669   0.355 -2.2025  0.3383  0.5732
10265SOL    HW232396   2.740   3.576   0.478 -0.8859 -1.1182  0.0815
10266SOL     OW32397   2.019   3.681   5.471  0.7304 -0.1078  0.2726
10266SOL    HW132398   2.098   3.682   5.410  2.0046 -0.2689  1.8473
10266SOL    HW232399   1.961   3.602   5.449  0.2323  0.7504 -1.7681
10267SOL     OW32400   2.470   6.114   4.927  0.2738 -0.3784  0.0718
10267SOL    HW132401   2.563   6.132   4.959  0.0879 -1.8109  1.5848
10267SOL    HW232402   2.474   6.070   4.837  1.0603 -0.3422  0.0813
10268SOL     OW32403   5.743   6.764   1.424 -0.4769 -0.0551 -0.3382
10268SOL    HW132404   5.725   6.779   1.521 -0.9508  1.0378 -0.5801
10268SOL    HW232405   5.763   6.668   1.408  0.9996 -0.0141  1.0559
10269SOL     OW32406   4.877   3.298   0.746 -0.0097 -0.0270  0.6958
10269SOL    HW132407   4.945   3.236   0.785 -1.2877 -2.0030 -0.0683
10269SOL    HW232408   4.875   3.383   0.799 -0.0094 -1.6259  3.4455
10270SOL     OW32409   2.615   4.645   0.985  0.4765  0.4643  0.0488
10270SOL    HW132410   2.665   4.717   1.035  0.4859  0.0336  0.6690
10270SOL    HW232411   2.544   4.607   1.044  0.4526 -0.0152 -0.2837
10271SOL     OW32412   5.789   5.389   2.631 -0.1480 -0.1431  0.5366
10271SOL    HW132413   5.810   5.333   2.712 -3.3348 -1.3112  0.6901
10271SOL    HW232414   5.691   5.387   2.613 -0.2524  4.1599 -0.4853
10272SOL     OW32415   5.658   0.939   5.940  0.2632  0.2011 -0.1875
10272SOL    HW132416   5.668   0.948   6.039 -2.3428 -3.5557  0.6435
10272SOL    HW232417   5.744   0.904   5.901  1.7552  2.9350  0.3726
10273SOL     OW32418   1.264   6.759   3.960 -0.5982  0.6739 -0.0932
10273SOL    HW132419   1.347   6.723   3.917 -1.3897 -1.6829  0.2363
10273SOL    HW232420   1.190   6.763   3.892 -0.7966  0.6956  0.1222
10274SOL     OW32421   4.559   2.239   1.852 -0.0176 -0.0981 -0.1870
10274SOL    HW132422   4.547   2.321   1.797  0.6715 -0.9125 -1.6168
10274SOL    HW232423   4.620   2.259   1.928  2.6414  0.0769 -2.1955
10275SOL     OW32424   0.205   2.759   4.150 -0.2049  0.4253  0.3132
10275SOL    HW132425   0.203   2.771   4.249 -0.6306 -1.0486  0.4997
10275SOL    HW232426   0.242   2.669   4.128 -1.7582  0.0165 -0.7863
10276SOL     OW32427   2.490   4.631   4.373 -0.3611  0.4254  0.4113
10276SOL    HW132428   2.524   4.562   4.437 -0.0969 -0.1253 -0.3048
10276SOL    HW232429   2.391   4.633   4.376 -0.3964 -0.2973  0.1414
10277SOL     OW32430   3.612   4.123   0.152  0.1032 -0.4741  0.4799
10277SOL    HW132431   3.549   4.078   0.216 -0.8585 -1.9264 -1.4023
10277SOL    HW232432   3.705   4.094   0.170 -0.4185 -2.7613 -0.2329
10278SOL     OW32433   2.374   6.574   6.514 -0.1254 -0.2738 -0.9123
10278SOL    HW132434   2.459   6.606   6.555  1.1468 -2.1618 -1.9490
10278SOL    HW232435   2.307   6.649   6.514  1.6979  1.4435 -0.6239
10279SOL     OW32436   6.184   0.906   4.307 -0.2399 -0.6188 -0.3553
10279SOL    HW132437   6.148   0.898   4.214 -3.6308  0.9877  0.6671
10279SOL    HW232438   6.280   0.932   4.303 -0.9748  2.4012 -3.5313
10280SOL     OW32439   3.651   1.556   1.460 -0.2001  0.0228 -0.1376
10280SOL    HW132440   3.554   1.574   1.446 -0.2647 -0.9228 -1.0465
10280SOL    HW232441   3.663   1.499   1.542 -0.8217 -3.1101 -2.0659
10281SOL     OW32442   6.805   0.134   0.873  0.0560  0.6140 -0.4652
10281SOL    HW132443   6.833   0.072   0.946 -0.6377 -0.3449 -0.9911
10281SOL    HW232444   6.779   0.222   0.913 -0.3442  0.0963  0.4582
10282SOL     OW32445   5.296   0.657   5.156 -0.8494  0.5241 -0.6202
10282SOL    HW132446   5.285   0.638   5.253  1.3926 -0.5293 -0.5094
10282SOL    HW232447   5.215   0.706   5.122 -1.2579  1.7961  1.9580
10283SOL     OW32448   2.981   1.212   0.302 -0.0124 -0.2645  0.1348
10283SOL    HW132449   2.955   1.119   0.277 -0.4147 -0.6643  1.9163
10283SOL    HW232450   3.080   1.215   0.320 -0.1507 -0.5983  1.0148
10284SOL     OW32451   5.931   4.244   1.359  0.1946  0.1495 -0.5268
10284SOL    HW132452   5.843   4.201   1.380  0.2200 -0.6345 -1.8908
10284SOL    HW232453   6.000   4.212   1.424 -0.5223  0.8188  0.5946
10285SOL     OW32454   5.160   3.513   0.982  0.7829  0.1225 -0.1744
10285SOL    HW132455   5.239   3.488   0.926  0.9470 -0.1324  0.1704
10285SOL    HW232456   5.191   3.547   1.071  0.5499  1.1460 -0.4650
10286SOL     OW32457   2.605   2.944   0.993 -0.1618 -0.2010 -0.6736
10286SOL    HW132458   2.675   2.907   1.055  0.6087  1.7057 -0.3560
10286SOL    HW232459   2.514   2.927   1.032  0.3103  1.0236  1.0793
10287SOL     OW32460   0.621   3.430   6.236  0.0988  0.5611 -0.1127
10287SOL    HW132461   0.692   3.420   6.305  0.8191  3.1256 -0.3845
10287SOL    HW232462   0.544   3.370   6.258  1.1009 -0.0840  1.8263
10288SOL     OW32463   3.570   2.015   1.094 -0.1544 -0.1911  0.6009
10288SOL    HW132464   3.502   1.999   1.022  1.0702 -0.4063 -0.5467
10288SOL    HW232465   3.641   1.946   1.088 -0.1861 -0.4084  2.2566
10289SOL     OW32466   2.774   0.441   3.715  0.4731 -0.2929  0.3255
10289SOL    HW132467   2.738   0.488   3.635 -0.8051 -1.2266  0.3268
10289SOL    HW232468   2.850   0.494   3.754  1.7055 -0.2462 -1.9830
10290SOL     OW32469   6.208   6.520   0.694  0.6146  0.3933  0.1855
10290SOL    HW132470   6.271   6.492   0.621  1.4032  4.0298 -0.6864
10290SOL    HW232471   6.240   6.605   0.736 -1.9303  0.5325  2.1192
10291SOL     OW32472   2.546   1.872   4.144 -0.0202 -0.4028  1.0082
10291SOL    HW132473   2.634   1.901   4.106 -0.3584  0.6257  0.9845
10291SOL    HW232474   2.486   1.951   4.154 -0.9022 -1.0709  1.1582
10292SOL     OW32475   2.810   1.868   3.144  0.1005 -0.1559 -0.4611
10292SOL    HW132476   2.843   1.785   3.100  0.0186 -1.1027  1.1660
10292SOL    HW232477   2.885   1.915   3.190 -0.2589 -0.6409  0.6421
10293SOL     OW32478   4.047   3.357   1.714 -0.0715 -0.1293  0.2761
10293SOL    HW132479   4.107   3.278   1.704  1.0731  0.6844  0.5691
10293SOL    HW232480   4.018   3.366   1.809 -1.1080 -0.8191  0.0450
10294SOL     OW32481   4.685   0.092   3.134 -0.4841  0.6571 -0.5588
10294SOL    HW132482   4.732   0.128   3.053 -1.9767  1.0450 -1.2923
10294SOL    HW232483   4.740   0.111   3.215  2.4877 -2.2661 -1.6655
10295SOL     OW32484   2.518   3.743   0.401 -0.6472  0.1434  0.5238
10295SOL    HW132485   2.501   3.706   0.309  0.1369 -1.0550  0.8293
10295SOL    HW232486   2.471   3.687   0.469  1.1109 -0.7783  1.0562
10296SOL     OW32487   6.999   1.627   1.536 -0.2202 -0.0928  0.1531
10296SOL    HW132488   7.062   1.561   1.497  1.6054  0.6556  1.6512
10296SOL    HW232489   6.956   1.680   1.463 -0.0707 -1.4484 -0.9557
10297SOL     OW32490   2.340   4.189   4.880  0.3652 -0.4049 -0.3467
10297SOL    HW132491   2.430   4.230   4.868  0.5131 -0.6644 -0.1188
10297SOL    HW232492   2.277   4.227   4.812  0.3754  0.5813  0.1629
10298SOL     OW32493   2.507   3.544   6.475  0.0263 -0.3615 -0.4361
10298SOL    HW132494   2.562   3.493   6.409 -0.7434 -0.8970 -0.6670
10298SOL    HW232495   2.423   3.575   6.432  0.6884  1.5662 -0.4541
10299SOL     OW32496   6.723   4.026   1.673 -0.0185  0.4274 -0.1431
10299SOL    HW132497   6.706   4.124   1.664  3.4945  1.1886 -0.0286
10299SOL    HW232498   6.711   3.981   1.584 -3.2535  0.5519  0.1313
10300SOL     OW32499   6.953   0.487   4.317  0.3720  0.1424  0.3678
10300SOL    HW132500   7.008   0.497   4.400  1.6934 -0.5042 -0.4047
10300SOL    HW232501   6.959   0.570   4.262 -0.9126  0.7708  1.1188
10301SOL     OW32502   2.895   5.230   3.585 -0.2884  0.1188  0.1056
10301SOL    HW132503   2.872   5.187   3.498 -1.0986 -0.4623  0.5927
10301SOL    HW232504   2.915   5.327   3.571 -0.6681  0.0856 -0.6864
10302SOL     OW32505   5.083   4.786   2.311  1.0989 -0.0824  0.5141
10302SOL    HW132506   5.010   4.835   2.262  0.6413 -1.1852  0.0592
10302SOL    HW232507   5.162   4.775   2.250  1.2206  0.1218  0.6333
10303SOL     OW32508   3.636   1.570   3.778  0.3733 -0.0314 -0.6605
10303SOL    HW132509   3.593   1.483   3.755 -0.2453  0.1468 -0.1961
10303SOL    HW232510   3.589   1.611   3.856  1.3121  0.2287 -0.2156
10304SOL     OW32511   0.796   3.173   0.517  0.1551 -0.6908 -0.1694
10304SOL    HW132512   0.852   3.097   0.483  0.7406  0.2988 -1.5115
10304SOL    HW232513   0.843   3.259   0.498 -0.9953  0.0634  0.3537
10305SOL     OW32514   6.117   6.040   1.892 -0.1037 -0.3385  0.0675
10305SOL    HW132515   6.035   6.055   1.947 -0.5120  0.5240 -0.7495
10305SOL    HW232516   6.093   5.989   1.809 -0.2008  1.5192 -1.1063
10306SOL     OW32517   5.516   5.145   5.610 -0.0905 -0.1182 -0.0670
10306SOL    HW132518   5.549   5.070   5.553 -1.4236  0.0673 -1.1302
10306SOL    HW232519   5.486   5.221   5.551 -1.5860  0.0401  0.8558
10307SOL     OW32520   2.896   2.938   1.440 -0.6684  0.2248  0.2244
10307SOL    HW132521   2.935   2.859   1.489  0.6265  0.3159 -0.5944
10307SOL    HW232522   2.919   3.022   1.490  2.1546  0.4865 -1.2772
10308SOL     OW32523   6.890   1.767   5.753  0.2789  0.9333  0.1561
10308SOL    HW132524   6.875   1.806   5.662  3.3324  0.5989 -0.5996
10308SOL    HW232525   6.986   1.779   5.779 -0.1955 -0.2184  2.7771
10309SOL     OW32526   4.193   3.422   1.095  1.1796 -0.6711  0.1077
10309SOL    HW132527   4.118   3.414   1.161  0.8967  0.2333 -0.0908
10309SOL    HW232528   4.275   3.454   1.142  0.4640  1.8810 -0.2793
10310SOL     OW32529   2.176   5.978   0.178  0.4531 -0.6831  0.1550
10310SOL    HW132530   2.239   5.951   0.250  0.6962  0.2241  0.3013
10310SOL    HW232531   2.227   6.016   0.101  0.0763  1.3925  0.8427
10311SOL     OW32532   3.089   3.536   6.414  0.2128 -0.0877 -0.1411
10311SOL    HW132533   3.148   3.471   6.367 -0.9723 -0.5958 -0.9715
10311SOL    HW232534   3.033   3.489   6.482 -0.2889  0.1349 -0.3906
10312SOL     OW32535   1.617   3.223   0.961  0.3706 -0.3293  0.1876
10312SOL    HW132536   1.570   3.301   0.921  1.4375  0.2452  0.0048
10312SOL    HW232537   1.583   3.206   1.053 -0.0017  0.2353  0.1537
10313SOL     OW32538   1.989   6.607   6.801  0.1500  0.3546 -0.3687
10313SOL    HW132539   1.951   6.636   6.713  0.0302  1.6837  0.0892
10313SOL    HW232540   1.928   6.542   6.845 -0.5757  0.8826 -0.5787
10314SOL     OW32541   4.805   6.593   3.116  0.1428 -0.2167 -0.1709
10314SOL    HW132542   4.756   6.512   3.149  1.1622 -1.8990 -2.5086
10314SOL    HW232543   4.775   6.615   3.024  2.8168 -0.5877 -1.2336
10315SOL     OW32544   0.773   2.437   2.944  0.5851 -0.1771 -0.0664
10315SOL    HW132545   0.811   2.357   2.896 -2.4580 -1.2875 -0.8558
10315SOL    HW232546   0.772   2.419   3.042  1.2562 -0.4458 -0.0969
10316SOL     OW32547   6.197   3.657   0.932  0.4716  0.1712 -0.2400
10316SOL    HW132548   6.133   3.723   0.970  1.1813  1.2538 -0.8868
10316SOL    HW232549   6.242   3.696   0.851  3.0773  0.0545  1.0509
10317SOL     OW32550   4.030   2.078   3.257 -0.5890  0.3567 -0.4373
10317SOL    HW132551   4.077   2.030   3.183  0.3413  2.0639 -0.9955
10317SOL    HW232552   4.091   2.087   3.335 -0.9710  0.1219 -0.1060
10318SOL     OW32553   2.544   1.683   4.325 -0.1475 -0.2944 -0.0592
10318SOL    HW132554   2.631   1.647   4.357 -0.0682 -1.0294 -1.0356
10318SOL    HW232555   2.561   1.749   4.252 -0.3993 -0.3354 -0.1546
10319SOL     OW32556   5.287   3.362   4.730  0.1149 -0.5041  0.3642
10319SOL    HW132557   5.267   3.322   4.641 -1.1969 -2.8904  1.6229
10319SOL    HW232558   5.385   3.354   4.749  0.0411 -2.3443  0.1359
10320SOL     OW32559   5.840   2.533   1.477  0.2952  0.3317  0.5017
10320SOL    HW132560   5.796   2.622   1.471  0.4584  0.3483 -0.7342
10320SOL    HW232561   5.938   2.544   1.487  0.5261  0.3258 -1.4313
10321SOL     OW32562   4.871   2.700   5.653  0.2105  0.3534 -0.2476
10321SOL    HW132563   4.863   2.799   5.659  0.7401  0.3215  1.2273
10321SOL    HW232564   4.914   2.664   5.736  0.1608 -1.0992 -0.8166
10322SOL     OW32565   2.951   5.418   1.890  0.4672 -0.3013  0.0536
10322SOL    HW132566   2.949   5.361   1.807  1.0455 -1.9319  1.0984
10322SOL    HW232567   2.858   5.440   1.918  0.2742  0.6660 -1.2701
10323SOL     OW32568   2.804   0.265   1.294 -0.6403  0.4012 -0.4707
10323SOL    HW132569   2.863   0.191   1.326 -1.6529  0.0819  0.7282
10323SOL    HW232570   2.740   0.229   1.227 -0.1758  0.5197 -0.9840
10324SOL     OW32571   3.397   0.690   4.792  0.3919  0.1150 -0.4219
10324SOL    HW132572   3.316   0.634   4.808  0.2766  0.0411 -1.2269
10324SOL    HW232573   3.424   0.683   4.696  1.8512 -0.5368 -0.0095
10325SOL     OW32574   1.118   0.944   5.091 -0.6180 -0.6152  0.6170
10325SOL    HW132575   1.038   0.890   5.120  0.7754 -2.1357  1.7847
10325SOL    HW232576   1.198   0.915   5.142  0.0335  3.5337  2.3895
10326SOL     OW32577   5.615   0.133   2.348  0.2484  0.6971  0.6424
10326SOL    HW132578   5.528   0.084   2.339 -0.0267  1.3004 -0.0989
10326SOL    HW232579   5.597   0.231   2.359  0.8580  1.0396 -1.1559
10327SOL     OW32580   2.557   2.311   5.300 -0.2755 -0.3676  0.2030
10327SOL    HW132581   2.516   2.362   5.376 -0.6568 -1.3769  0.6892
10327SOL    HW232582   2.595   2.376   5.234  1.1987  0.5259  1.8501
10328SOL     OW32583   6.547   4.828   0.904  0.4626  0.4866  0.1533
10328SOL    HW132584   6.543   4.927   0.919 -0.3420  0.4469  0.2479
10328SOL    HW232585   6.643   4.799   0.899  0.7668  0.9352  2.2960
10329SOL     OW32586   5.988   1.545   5.151 -0.1669 -0.1185  0.2460
10329SOL    HW132587   5.914   1.513   5.093  1.0927  0.6575 -1.8926
10329SOL    HW232588   5.974   1.642   5.171  0.2401  0.0207 -0.1342
10330SOL     OW32589   5.502   1.940   1.122  0.5942 -0.2962 -0.7417
10330SOL    HW132590   5.511   1.919   1.025 -0.2495 -0.8337 -0.7179
10330SOL    HW232591   5.523   1.859   1.177 -2.5573 -1.2199 -0.6489
10331SOL     OW32592   2.498   1.101   0.375 -0.1298  0.2791 -0.1977
10331SOL    HW132593   2.398   1.094   0.375 -0.1758  0.8720  0.2816
10331SOL    HW232594   2.526   1.181   0.429  0.5837  0.4210 -0.7683
10332SOL     OW32595   6.761   1.044   4.045  0.1108  0.8376 -0.1061
10332SOL    HW132596   6.666   1.018   4.027  1.2360 -2.4030 -2.3944
10332SOL    HW232597   6.794   0.995   4.126  0.2591  0.6486 -0.2781
10333SOL     OW32598   6.622   3.493   6.233 -0.1068 -0.1098  0.4487
10333SOL    HW132599   6.577   3.477   6.321  0.7135 -0.4465  0.8152
10333SOL    HW232600   6.686   3.418   6.214 -1.3746 -0.8653 -1.1666
10334SOL     OW32601   5.700   2.931   6.254  0.3015  0.2364 -0.7219
10334SOL    HW132602   5.728   3.022   6.226  0.8765 -0.1800 -1.5578
10334SOL    HW232603   5.718   2.866   6.179 -1.8333 -0.2565 -0.8675
10335SOL     OW32604   2.529   5.320   3.524 -0.2898 -0.3815 -0.0001
10335SOL    HW132605   2.565   5.413   3.529  0.1336 -0.3039 -3.0102
10335SOL    HW232606   2.549   5.272   3.610  1.0769  1.7112  0.9270
10336SOL     OW32607   2.711   5.795   0.441  0.0917 -0.0191 -0.1940
10336SOL    HW132608   2.771   5.803   0.521  2.0626 -0.1805 -1.5744
10336SOL    HW232609   2.639   5.729   0.460  0.7988 -0.4037  1.2854
10337SOL     OW32610   5.744   2.132   5.098  0.0809 -0.2224 -0.3410
10337SOL    HW132611   5.712   2.037   5.108  0.3223 -0.6299 -2.8755
10337SOL    HW232612   5.741   2.158   5.002  1.3663  1.9004  0.1379
10338SOL     OW32613   4.426   3.228   1.579  0.1597  0.0371  0.1669
10338SOL    HW132614   4.375   3.311   1.557  0.9382  0.2382 -0.9795
10338SOL    HW232615   4.492   3.209   1.506 -0.3696 -1.9076  0.1458
10339SOL     OW32616   6.223   5.773   4.596  0.0655 -0.0819  0.0208
10339SOL    HW132617   6.227   5.827   4.512 -2.1977 -0.3751 -0.3521
10339SOL    HW232618   6.199   5.678   4.573  0.4637 -0.4255  0.9419
10340SOL     OW32619   4.432   5.093   0.179  0.3582  0.3345  0.4534
10340SOL    HW132620   4.462   4.999   0.159 -0.2128  0.4456 -1.0343
10340SOL    HW232621   4.363   5.121   0.112 -0.1315  1.5151  1.4152
10341SOL     OW32622   2.494   4.436   6.383  0.3437  0.6016  0.4894
10341SOL    HW132623   2.555   4.446   6.304 -1.6612 -1.4157 -1.4963
10341SOL    HW232624   2.400   4.456   6.354 -0.5204 -0.6113  2.2754
10342SOL     OW32625   1.029   3.100   5.872  0.0546 -0.0638 -0.3084
10342SOL    HW132626   0.984   3.014   5.895 -0.1445 -0.1402 -0.9737
10342SOL    HW232627   1.084   3.089   5.789  0.4757  0.3052 -0.0865
10343SOL     OW32628   6.875   0.432   1.281 -0.1122  0.5627 -0.4823
10343SOL    HW132629   6.911   0.355   1.334  0.9121  1.0653 -0.4079
10343SOL    HW232630   6.939   0.509   1.289 -2.6420  2.6158  2.2162
10344SOL     OW32631   3.532   1.435   6.683 -0.6453  0.6025  0.7892
10344SOL    HW132632   3.631   1.438   6.696 -0.0989  1.7066 -2.5358
10344SOL    HW232633   3.503   1.340   6.667 -0.2201  0.2248  2.2053
10345SOL     OW32634   1.357   1.218   0.897  0.6658 -0.8111 -0.4709
10345SOL    HW132635   1.391   1.296   0.845 -1.4436  0.2293 -0.4160
10345SOL    HW232636   1.401   1.216   0.987 -0.2975  1.2663  0.1128
10346SOL     OW32637   5.351   2.435   5.240  0.1758 -0.0410  0.2679
10346SOL    HW132638   5.269   2.490   5.228 -0.0132 -0.5528 -0.9092
10346SOL    HW232639   5.351   2.395   5.332 -0.4091  0.7209  0.6124
10347SOL     OW32640   0.295   3.874   4.622 -0.1772 -0.3574 -0.3745
10347SOL    HW132641   0.336   3.920   4.542 -1.1198  0.4157 -0.4309
10347SOL    HW232642   0.201   3.847   4.600 -0.4020 -0.2379  0.4396
10348SOL     OW32643   1.632   6.670   4.383  0.4189  0.0520 -0.7987
10348SOL    HW132644   1.666   6.595   4.440 -0.0223  0.0492 -0.5402
10348SOL    HW232645   1.605   6.634   4.294  0.8357  0.0122 -0.9142
10349SOL     OW32646   6.271   3.521   5.167  0.0463 -0.3144 -0.0613
10349SOL    HW132647   6.239   3.432   5.135  1.5693 -0.2852 -1.8704
10349SOL    HW232648   6.195   3.585   5.171 -0.7687 -1.2369 -0.5102
10350SOL     OW32649   0.673   6.168   5.188  0.6831 -0.6813  0.4792
10350SOL    HW132650   0.597   6.177   5.124 -1.1181 -0.6025  2.5183
10350SOL    HW232651   0.733   6.095   5.158 -0.2383 -0.8171 -1.1418
10351SOL     OW32652   0.549   3.531   0.154 -0.4674  0.4573 -0.1984
10351SOL    HW132653   0.564   3.509   0.058 -1.1913 -1.3202  0.0533
10351SOL    HW232654   0.452   3.551   0.169 -0.4603  0.1756  0.2531
10352SOL     OW32655   2.540   6.820   2.433  0.1899 -0.2675  0.4350
10352SOL    HW132656   2.601   6.876   2.378 -1.2385  0.4297 -0.5198
10352SOL    HW232657   2.446   6.854   2.423 -0.2725 -0.8446  2.4249
10353SOL     OW32658   5.728   0.912   3.166 -0.2488  0.2246  0.0012
10353SOL    HW132659   5.814   0.916   3.115 -0.1660  1.1339  0.1978
10353SOL    HW232660   5.655   0.954   3.112 -0.2517  0.8059  0.4458
10354SOL     OW32661   1.690   0.316   6.363  0.1382 -0.2169  0.1574
10354SOL    HW132662   1.668   0.289   6.457  0.0794 -0.6434  0.0219
10354SOL    HW232663   1.647   0.252   6.299 -1.1906  0.9935 -0.2255
10355SOL     OW32664   5.723   2.541   4.579 -0.7468  0.1896  0.3985
10355SOL    HW132665   5.661   2.545   4.501 -0.6781 -1.4491  0.2117
10355SOL    HW232666   5.699   2.611   4.645 -1.1914  1.2123 -0.8130
10356SOL     OW32667   3.012   2.130   4.069  0.2954 -0.3278  0.3692
10356SOL    HW132668   3.047   2.036   4.067  1.1222 -0.0381 -1.8998
10356SOL    HW232669   2.919   2.130   4.107 -0.2712 -2.2819 -0.8596
10357SOL     OW32670   6.430   4.338   5.575  0.7641 -0.0775 -0.2145
10357SOL    HW132671   6.331   4.353   5.574  0.5845 -1.2295 -1.1488
10357SOL    HW232672   6.456   4.294   5.661  0.4249 -0.0462 -0.0934
10358SOL     OW32673   3.619   4.638   0.810 -0.0640 -0.7412  0.4526
10358SOL    HW132674   3.703   4.679   0.847  0.4685 -1.8446  0.5095
10358SOL    HW232675   3.593   4.687   0.727  0.0853  0.2289  0.9651
10359SOL     OW32676   1.031   6.609   4.436 -0.0448 -0.5656 -0.1850
10359SOL    HW132677   0.936   6.579   4.450 -1.3162  2.4200 -1.5703
10359SOL    HW232678   1.048   6.619   4.338  1.3233  0.0975  0.0974
10360SOL     OW32679   2.262   3.861   1.793 -0.4109  0.7681  0.4596
10360SOL    HW132680   2.292   3.916   1.870  0.3305  1.4004 -0.2570
10360SOL    HW232681   2.251   3.919   1.712  2.3377 -0.3295 -0.8697
10361SOL     OW32682   6.826   0.322   4.892  0.0541 -0.1254  0.0463
10361SOL    HW132683   6.910   0.279   4.924 -0.1188  0.0425  0.7386
10361SOL    HW232684   6.829   0.331   4.792  0.7145 -0.4135  0.0363
10362SOL     OW32685   0.380   5.442   2.155  0.0014  0.4565  1.2293
10362SOL    HW132686   0.352   5.358   2.109 -1.0352  1.0392  0.7689
10362SOL    HW232687   0.456   5.485   2.106  0.8339 -0.4187  1.7123
10363SOL     OW32688   0.618   3.966   4.275 -0.0648  0.3429 -0.2108
10363SOL    HW132689   0.629   4.058   4.239  0.3727  0.2501 -0.3204
10363SOL    HW232690   0.707   3.922   4.283 -0.2849 -0.1482 -0.3681
10364SOL     OW32691   2.870   0.626   6.888 -0.6446  0.1178 -0.0782
10364SOL    HW132692   2.967   0.643   6.875 -1.2390  2.5380 -2.3542
10364SOL    HW232693   2.854   0.529   6.904  2.0189 -0.4909 -0.7263
10365SOL     OW32694   5.204   3.915   0.660 -0.1337  0.3680 -0.0258
10365SOL    HW132695   5.254   3.836   0.695  0.4402  0.5398 -0.4359
10365SOL    HW232696   5.127   3.884   0.605 -0.3903  0.0988  0.4823
10366SOL     OW32697   0.518   2.091   0.320 -0.0681  0.4787  0.4043
10366SOL    HW132698   0.556   2.182   0.308  0.7707  0.2136  0.9552
10366SOL    HW232699   0.474   2.062   0.235  0.0015  1.2314  0.1041
10367SOL     OW32700   1.353   1.552   5.878  0.6145  0.7110 -0.2634
10367SOL    HW132701   1.278   1.602   5.834  1.2006 -0.4773 -2.7980
10367SOL    HW232702   1.426   1.616   5.903 -0.0007  1.5035 -0.4572
10368SOL     OW32703   2.179   3.910   5.981 -0.2086 -0.0033  0.4865
10368SOL    HW132704   2.276   3.896   5.960 -0.7073  0.8172 -2.9883
10368SOL    HW232705   2.135   3.822   5.999  0.4575 -0.9056 -1.9161
10369SOL     OW32706   1.753   5.679   3.864 -0.3001 -0.3549  0.4581
10369SOL    HW132707   1.712   5.761   3.825 -1.3977 -0.5315  1.1908
10369SOL    HW232708   1.713   5.598   3.823  1.1307 -0.5583 -0.6160
10370SOL     OW32709   1.888   2.813   1.198 -0.2584  0.1737  0.5841
10370SOL    HW132710   1.833   2.886   1.159  1.8362  1.8018  0.5198
10370SOL    HW232711   1.915   2.749   1.126 -0.0928  0.6817  0.1954
10371SOL     OW32712   0.764   1.816   2.361 -0.3942 -0.0513 -0.8006
10371SOL    HW132713   0.775   1.775   2.270  1.6716 -0.1059 -0.5759
10371SOL    HW232714   0.814   1.902   2.364 -1.2656  0.4338  0.0059
10372SOL     OW32715   0.317   5.947   6.996 -0.1580 -0.1255 -0.0921
10372SOL    HW132716   0.269   5.872   7.040 -1.8740 -0.0780 -1.7397
10372SOL    HW232717   0.252   6.003   6.945  1.4923  0.6171 -1.5038
10373SOL     OW32718   3.803   0.681   6.029 -0.2026 -0.8741 -0.1721
10373SOL    HW132719   3.837   0.745   5.960 -0.8218 -1.3444 -0.9207
10373SOL    HW232720   3.728   0.627   5.991 -0.1457 -1.5701  0.6704
10374SOL     OW32721   6.381   2.853   3.605 -0.2541 -0.3671  0.8009
10374SOL    HW132722   6.438   2.893   3.678  0.1334  1.0202 -0.2181
10374SOL    HW232723   6.370   2.920   3.531  1.4763 -2.5226 -1.5950
10375SOL     OW32724   4.844   5.557   4.621 -1.1465 -0.3927  0.3402
10375SOL    HW132725   4.837   5.641   4.675 -0.4571 -0.2786  0.2630
10375SOL    HW232726   4.936   5.518   4.631 -0.8380 -0.1063 -1.1223
10376SOL     OW32727   6.201   3.308   4.782 -0.7696 -0.1615  0.7028
10376SOL    HW132728   6.261   3.263   4.848 -0.7991 -1.6212 -0.2253
10376SOL    HW232729   6.113   3.330   4.825 -0.6033 -0.6329  1.2829
10377SOL     OW32730   2.500   6.242   6.458 -0.0083 -0.0349  0.0520
10377SOL    HW132731   2.433   6.270   6.527 -1.2928 -0.1513 -1.0997
10377SOL    HW232732   2.520   6.145   6.469 -1.0070 -0.3033 -0.3544
10378SOL     OW32733   5.041   3.455   6.760  0.0428 -0.4154 -0.5486
10378SOL    HW132734   5.031   3.535   6.821  0.8717  0.1639 -1.1559
10378SOL    HW232735   5.135   3.423   6.763  0.3632  0.2847 -2.3327
10379SOL     OW32736   0.287   0.413   4.154  0.1927  0.0357  0.1957
10379SOL    HW132737   0.329   0.494   4.112 -1.0453  1.5010  1.6468
10379SOL    HW232738   0.239   0.360   4.084  2.6065 -0.5692 -1.1304
10380SOL     OW32739   0.008   2.277   2.230 -0.1045 -0.4229  0.5293
10380SOL    HW132740   0.056   2.330   2.300  0.4739  0.3334 -0.4090
10380SOL    HW232741   0.061   2.196   2.206 -0.4067 -0.7998  1.0986
10381SOL     OW32742   4.021   1.902   4.109  0.2826  0.3297 -0.2227
10381SOL    HW132743   4.097   1.933   4.051 -0.7834 -0.3593 -2.0824
10381SOL    HW232744   3.960   1.979   4.128  0.9843  0.7017  0.5572
10382SOL     OW32745   2.500   5.301   1.710 -0.3720 -0.4125 -0.5990
10382SOL    HW132746   2.447   5.352   1.778  1.6652  0.2817  0.5570
10382SOL    HW232747   2.584   5.351   1.689 -0.6341 -0.9283 -3.2047
10383SOL     OW32748   0.070   0.711   3.003  0.2520  0.1647  0.6534
10383SOL    HW132749  -0.026   0.721   3.030  0.4345  0.3767  1.2302
10383SOL    HW232750   0.094   0.786   2.941 -0.9345 -1.7932 -2.4190
10384SOL     OW32751   6.506   2.983   4.426 -0.3242  0.4795  0.6986
10384SOL    HW132752   6.592   3.010   4.381 -1.2803  1.8071 -0.4515
10384SOL    HW232753   6.504   3.019   4.519 -0.0262  1.2789  0.4041
10385SOL     OW32754   2.198   5.647   6.342  0.4187 -0.1914 -0.1009
10385SOL    HW132755   2.169   5.558   6.309 -0.1467 -0.0049 -0.1182
10385SOL    HW232756   2.285   5.672   6.299  1.0767 -1.1506  0.6242
10386SOL     OW32757   5.032   2.891   1.277 -0.0448  0.0314 -0.1752
10386SOL    HW132758   5.119   2.924   1.241  0.2361 -1.5512 -1.0444
10386SOL    HW232759   5.032   2.791   1.278 -1.4663  0.0118  0.8062
10387SOL     OW32760   1.880   1.644   4.389  0.0233 -0.1347  0.5019
10387SOL    HW132761   1.980   1.638   4.389  0.1530  1.0984 -1.5185
10387SOL    HW232762   1.851   1.710   4.458  0.7832  0.9303 -0.1466
10388SOL     OW32763   6.652   5.282   0.174 -0.0430 -0.3735 -0.2713
10388SOL    HW132764   6.724   5.251   0.236 -0.3086 -0.7064 -0.1296
10388SOL    HW232765   6.627   5.208   0.111 -0.9980 -0.6196  0.3668
10389SOL     OW32766   1.595   6.313   1.965 -0.0019  0.2651  0.3418
10389SOL    HW132767   1.640   6.306   1.876  0.7361  1.0321  0.6348
10389SOL    HW232768   1.503   6.348   1.954 -0.1998 -0.3978 -0.1831
10390SOL     OW32769   2.292   1.996   0.524 -0.2975 -0.2102 -0.0204
10390SOL    HW132770   2.340   2.080   0.497  0.2341  0.1193  1.8051
10390SOL    HW232771   2.357   1.933   0.568 -0.6500 -1.6886 -1.4956
10391SOL     OW32772   5.363   5.151   1.814  0.5338  0.1862  0.2657
10391SOL    HW132773   5.339   5.245   1.838  2.8933  0.9189  0.0547
10391SOL    HW232774   5.334   5.132   1.721  0.5878  0.9376  0.0889
10392SOL     OW32775   2.519   3.011   5.511  0.7575  0.3337  0.3548
10392SOL    HW132776   2.584   3.087   5.507  1.8995 -0.5491  1.5002
10392SOL    HW232777   2.568   2.924   5.514 -0.4080 -0.3154  2.4935
10393SOL     OW32778   1.730   0.896   0.523 -0.1244 -0.0068  0.3439
10393SOL    HW132779   1.736   0.812   0.470  0.5053  0.9080 -1.0901
10393SOL    HW232780   1.663   0.957   0.481 -0.0203  0.5149  0.9241
10394SOL     OW32781   3.104   4.748   2.742 -0.0963 -0.0195  0.8118
10394SOL    HW132782   3.006   4.730   2.751 -0.5025  0.0093 -2.3928
10394SOL    HW232783   3.142   4.772   2.832 -2.3685 -2.8837  2.7377
10395SOL     OW32784   2.452   3.533   0.604  0.0989 -0.6455  0.0845
10395SOL    HW132785   2.540   3.490   0.625 -0.8115 -1.9358  1.4016
10395SOL    HW232786   2.380   3.464   0.602 -1.1344  0.5840  0.5439
10396SOL     OW32787   3.475   2.418   4.846  0.4327 -0.5629  0.1341
10396SOL    HW132788   3.527   2.454   4.768 -0.1015 -0.6297 -0.2535
10396SOL    HW232789   3.505   2.465   4.929 -0.9475  1.5818 -0.4798
10397SOL     OW32790   0.565   1.782   5.894  0.0751 -0.3002  0.0287
10397SOL    HW132791   0.526   1.702   5.848 -2.3776  1.5315 -1.3717
10397SOL    HW232792   0.524   1.865   5.856  0.7607  1.5643  3.0098
10398SOL     OW32793   6.087   4.450   6.052 -0.1149 -0.4597  1.0492
10398SOL    HW132794   6.014   4.517   6.060  0.0241 -0.2118  0.3799
10398SOL    HW232795   6.051   4.365   6.012  0.3621  0.4535 -1.5354
10399SOL     OW32796   4.739   0.724   0.563 -0.3867  0.1351  0.2978
10399SOL    HW132797   4.753   0.721   0.662 -1.1361  2.1800  0.5160
10399SOL    HW232798   4.826   0.739   0.517  0.1102 -1.7309  0.5267
10400SOL     OW32799   0.923   1.528   1.507  0.7298 -0.1340 -0.1122
10400SOL    HW132800   0.907   1.433   1.482  0.0068 -0.0199 -0.1158
10400SOL    HW232801   0.913   1.586   1.426  1.4553 -0.0767 -0.1702
10401SOL     OW32802   5.202   5.290   2.783  0.1644 -0.4183 -0.1206
10401SOL    HW132803   5.262   5.287   2.863  0.4728  1.1948 -0.2570
10401SOL    HW232804   5.257   5.293   2.700 -0.1148  0.0042 -0.2942
10402SOL     OW32805   3.823   5.164   1.062 -0.4662 -0.7694  0.3928
10402SOL    HW132806   3.774   5.241   1.020 -0.0188  1.1994  3.1212
10402SOL    HW232807   3.889   5.126   0.997 -1.0006  0.8909 -1.2031
10403SOL     OW32808   1.812   6.020   6.464 -0.6701  0.1893  0.5205
10403SOL    HW132809   1.717   5.987   6.467  0.1775 -2.6262 -0.5864
10403SOL    HW232810   1.861   5.989   6.545 -0.5986  1.4776  0.9948
10404SOL     OW32811   6.286   1.205   4.191  0.2729 -0.3439  0.1868
10404SOL    HW132812   6.292   1.175   4.286  0.0666 -0.1614  0.2603
10404SOL    HW232813   6.360   1.270   4.172 -0.1726  0.2516  0.4633
10405SOL     OW32814   6.376   1.701   1.852 -0.5790 -0.0804 -0.1906
10405SOL    HW132815   6.431   1.649   1.786 -0.4100 -0.9209  0.5897
10405SOL    HW232816   6.436   1.760   1.906 -0.9185  2.0697 -2.0245
10406SOL     OW32817   5.327   3.776   0.229  0.1687  0.1480  0.4362
10406SOL    HW132818   5.265   3.698   0.231  0.2141  0.1102  2.2172
10406SOL    HW232819   5.354   3.799   0.322  2.4590  0.4643 -0.2413
10407SOL     OW32820   1.147   6.513   3.268  0.6523 -0.2262 -0.3483
10407SOL    HW132821   1.198   6.530   3.184 -1.8207  1.0655 -1.6971
10407SOL    HW232822   1.054   6.485   3.246 -0.5165  1.5271  1.9111
10408SOL     OW32823   1.491   2.624   3.758  0.0694 -0.1240 -0.5486
10408SOL    HW132824   1.510   2.702   3.698  0.9001  0.4597  0.4533
10408SOL    HW232825   1.428   2.562   3.712  1.0061  0.0936 -2.2041
10409SOL     OW32826   5.123   1.996   6.924  0.0906 -0.5423  0.2782
10409SOL    HW132827   5.140   1.915   6.868 -1.9214  0.0349 -1.2948
10409SOL    HW232828   5.159   2.077   6.877  0.8968 -0.3517  1.1985
10410SOL     OW32829   0.507   3.765   5.793  0.0839  0.1282 -0.4420
10410SOL    HW132830   0.477   3.850   5.837  1.3818 -0.3120  1.4661
10410SOL    HW232831   0.436   3.731   5.732 -0.9544  1.9284 -0.2994
10411SOL     OW32832   2.855   4.619   1.740  0.6108 -0.3079 -0.2147
10411SOL    HW132833   2.772   4.673   1.742  0.2229 -0.7664 -2.0163
10411SOL    HW232834   2.930   4.670   1.783 -0.5274  0.1679  1.2793
10412SOL     OW32835   2.443   6.306   3.942  0.0760  0.1087  0.3735
10412SOL    HW132836   2.527   6.260   3.970  0.0829  0.3811  0.8115
10412SOL    HW232837   2.463   6.400   3.914 -0.0430  0.0866  0.2088
10413SOL     OW32838   2.388   1.784   1.314 -0.2240 -0.0186  0.3548
10413SOL    HW132839   2.348   1.786   1.222  0.5029  0.5994  0.0358
10413SOL    HW232840   2.388   1.691   1.349  1.5721 -0.6864 -1.2312
10414SOL     OW32841   3.046   4.679   5.666  0.1068  0.2191  0.6122
10414SOL    HW132842   3.082   4.762   5.622  0.3456  0.1266  0.6293
10414SOL    HW232843   2.981   4.704   5.737 -0.5867  0.3596 -0.0614
10415SOL     OW32844   0.799   3.209   2.622  0.9330  0.1969  0.7984
10415SOL    HW132845   0.776   3.124   2.575  0.1672 -0.8436  2.9131
10415SOL    HW232846   0.749   3.285   2.579 -2.3959 -1.1996  1.8830
10416SOL     OW32847   5.592   3.924   1.036 -0.6668 -0.5054 -0.1156
10416SOL    HW132848   5.640   3.991   0.980 -0.8252  0.0174  0.3711
10416SOL    HW232849   5.495   3.921   1.010 -0.9855  0.5420  0.8567
10417SOL     OW32850   3.458   1.812   0.464 -0.3099  0.4154  0.1233
10417SOL    HW132851   3.433   1.893   0.518 -0.0757  0.3580  0.3149
10417SOL    HW232852   3.525   1.838   0.395 -1.3914  0.7175 -0.8430
10418SOL     OW32853   1.793   3.494   6.535  0.3735 -0.6500  0.1326
10418SOL    HW132854   1.801   3.409   6.586 -4.1881 -0.7506  1.0495
10418SOL    HW232855   1.733   3.481   6.456  1.3964  1.2544 -1.0551
10419SOL     OW32856   5.770   2.828   5.477  0.1841  0.3924  0.3173
10419SOL    HW132857   5.837   2.786   5.417  1.7606 -0.0428  2.2668
10419SOL    HW232858   5.766   2.926   5.458 -0.7754 -0.0065 -1.7390
10420SOL     OW32859   4.846   1.790   0.486 -0.3454 -0.5994  0.1529
10420SOL    HW132860   4.797   1.722   0.432 -1.3652 -1.7924  2.4026
10420SOL    HW232861   4.790   1.818   0.564  1.2369  0.5916  0.9399
10421SOL     OW32862   6.849   0.354   3.571 -0.0478 -0.3355 -0.5161
10421SOL    HW132863   6.749   0.347   3.565 -0.0383  0.1968 -1.3549
10421SOL    HW232864   6.887   0.263   3.588 -0.5497 -0.8949 -2.2050
10422SOL     OW32865   1.202   3.903   1.712 -0.0154  1.0615  0.0755
10422SOL    HW132866   1.239   3.989   1.748  1.9859  0.5143 -0.5605
10422SOL    HW232867   1.189   3.911   1.613 -2.5038  1.5022  0.3609
10423SOL     OW32868   3.236   2.538   1.614  0.3186  0.4838  0.2852
10423SOL    HW132869   3.296   2.533   1.695 -0.6943  0.7695  1.0688
10423SOL    HW232870   3.192   2.450   1.601 -0.7379  0.8901  1.0089
10424SOL     OW32871   2.542   4.915   5.424 -0.4172  0.6492 -0.3426
10424SOL    HW132872   2.634   4.947   5.450 -1.1839  2.8806 -0.1180
10424SOL    HW232873   2.549   4.848   5.351  1.6762 -3.2973  3.0225
10425SOL     OW32874   5.273   5.057   4.923 -0.1350  0.0567 -0.0517
10425SOL    HW132875   5.240   5.115   4.998 -0.1078  0.8047 -0.5975
10425SOL    HW232876   5.283   4.963   4.955 -1.4747  0.0745  0.5158
10426SOL     OW32877   6.469   4.498   0.173  0.5490 -0.6378 -0.2019
10426SOL    HW132878   6.409   4.515   0.095  0.2966  1.1416  0.3311
10426SOL    HW232879   6.479   4.400   0.187 -0.2482 -0.9740 -1.8120
10427SOL     OW32880   4.457   2.088   4.234 -0.1661  0.2603 -0.3547
10427SOL    HW132881   4.481   1.991   4.231 -1.7471 -0.1963 -4.3124
10427SOL    HW232882   4.540   2.144   4.231  0.6951 -1.0297 -1.2744
10428SOL     OW32883   5.848   2.294   1.726 -0.1883 -0.2009 -0.5826
10428SOL    HW132884   5.770   2.338   1.682 -0.5031  0.5978  0.7289
10428SOL    HW232885   5.821   2.257   1.815  0.5450 -1.3496 -0.8147
10429SOL     OW32886   4.250   4.949   6.186 -0.9612  0.0009  0.0605
10429SOL    HW132887   4.328   5.002   6.218 -1.2946  0.0712  0.7864
10429SOL    HW232888   4.281   4.878   6.123 -0.4297  0.6167 -0.3806
10430SOL     OW32889   3.384   5.388   5.201 -0.3392 -0.3962 -0.7370
10430SOL    HW132890   3.369   5.394   5.103 -0.0334 -1.2299 -0.8445
10430SOL    HW232891   3.352   5.299   5.234 -1.7433  0.4042  0.1636
10431SOL     OW32892   3.227   2.378   4.457 -0.0692  0.4807 -0.4371
10431SOL    HW132893   3.216   2.438   4.535 -1.2283  1.1367 -1.0795
10431SOL    HW232894   3.192   2.287   4.479 -0.6693  0.7462 -0.2868
10432SOL     OW32895   5.795   3.257   5.112  0.0715 -0.0393  0.2873
10432SOL    HW132896   5.716   3.303   5.153  0.5007  1.2724 -0.3079
10432SOL    HW232897   5.766   3.169   5.072 -0.4563 -1.1085  2.8431
10433SOL     OW32898   4.558   5.217   6.560  0.2657  0.4684 -0.3927
10433SOL    HW132899   4.596   5.130   6.592 -1.9309 -0.5943 -0.4284
10433SOL    HW232900   4.571   5.224   6.461 -0.9273 -0.6326 -0.6597
10434SOL     OW32901   0.591   6.634   0.957 -0.0515 -0.2934 -0.1508
10434SOL    HW132902   0.596   6.718   1.011 -0.2854  1.6295 -2.8849
10434SOL    HW232903   0.503   6.590   0.972 -0.4243  0.6177  0.4229
10435SOL     OW32904   2.046   5.772   2.292 -0.3523 -0.2952  0.1781
10435SOL    HW132905   2.044   5.806   2.386  0.3001 -1.0854  0.4998
10435SOL    HW232906   2.067   5.847   2.229  0.7030 -0.0270  0.8287
10436SOL     OW32907   6.868   4.695   4.969 -0.3219 -0.3443 -0.1730
10436SOL    HW132908   6.943   4.711   4.905  0.1073  1.8683  0.8052
10436SOL    HW232909   6.794   4.760   4.951 -1.0446 -0.9954  0.3407
10437SOL     OW32910   0.622   4.534   0.859  0.7521  0.2407 -0.0055
10437SOL    HW132911   0.672   4.471   0.800 -2.0583 -0.1030 -2.2368
10437SOL    HW232912   0.545   4.487   0.901 -0.0585  1.6271  0.1275
10438SOL     OW32913   1.637   2.256   2.561  0.1493  0.3158 -0.3636
10438SOL    HW132914   1.633   2.223   2.655 -0.7944  0.2944 -0.4056
10438SOL    HW232915   1.684   2.189   2.504 -0.0020 -0.0463 -0.0645
10439SOL     OW32916   0.032   5.787   1.450 -0.0506  0.7304 -0.0983
10439SOL    HW132917  -0.024   5.847   1.393 -0.2122  0.7213  0.0477
10439SOL    HW232918   0.128   5.796   1.424 -0.0225  1.3676  0.2099
10440SOL     OW32919   6.597   2.340   0.675  0.2685 -0.0450 -0.6507
10440SOL    HW132920   6.552   2.345   0.586  0.0501  0.1923 -0.5275
10440SOL    HW232921   6.528   2.326   0.746  0.4702 -0.5699 -0.5487
10441SOL     OW32922   0.868   2.989   0.899  0.0378  0.4841  0.3693
10441SOL    HW132923   0.924   2.965   0.979 -0.3514 -0.4363  0.3811
10441SOL    HW232924   0.886   3.084   0.873  1.0911  0.4201  0.7911
10442SOL     OW32925   5.492   5.345   2.106 -0.0027 -0.2117 -0.5339
10442SOL    HW132926   5.542   5.375   2.187  1.4156  1.0918 -1.8294
10442SOL    HW232927   5.475   5.247   2.112 -2.3895  0.2122  2.5853
10443SOL     OW32928   5.922   3.483   6.736 -0.1611  0.0858  0.4319
10443SOL    HW132929   5.961   3.499   6.646  1.1932 -1.0153  0.7771
10443SOL    HW232930   5.900   3.570   6.779  0.1066  0.6610 -0.5669
10444SOL     OW32931   6.720   0.840   5.631  0.0198 -0.1200  0.2895
10444SOL    HW132932   6.670   0.793   5.558  0.7626  0.1208 -0.3841
10444SOL    HW232933   6.787   0.902   5.591 -0.2611  0.7823  1.1807
10445SOL     OW32934   6.735   0.848   1.928  0.0260 -0.1475  0.2811
10445SOL    HW132935   6.643   0.838   1.888 -0.1434  0.1262  0.5974
10445SOL    HW232936   6.803   0.845   1.855 -0.0672 -2.4786  0.2051
10446SOL     OW32937   4.761   3.471   3.134  0.4878 -0.5794  0.0384
10446SOL    HW132938   4.831   3.400   3.142 -0.5886 -1.6313  0.4208
10446SOL    HW232939   4.672   3.435   3.163 -0.1153  0.9087  0.1792
10447SOL     OW32940   4.884   2.120   6.027 -0.0658 -0.0293  0.5377
10447SOL    HW132941   4.915   2.203   5.982 -0.8729  0.0220  0.0498
10447SOL    HW232942   4.956   2.052   6.026 -0.6957 -0.8262 -2.7883
10448SOL     OW32943   4.403   3.710   5.239 -0.2574 -0.4255 -0.1247
10448SOL    HW132944   4.502   3.711   5.225 -0.5271 -0.3246 -2.2167
10448SOL    HW232945   4.356   3.721   5.152 -2.1331  0.3985  0.9300
10449SOL     OW32946   3.291   5.500   1.020  1.1879  0.6276  0.2511
10449SOL    HW132947   3.371   5.448   1.052  1.2103  0.2280 -0.4219
10449SOL    HW232948   3.321   5.565   0.950  0.5165 -1.8067 -2.4907
10450SOL     OW32949   3.622   0.714   1.929 -0.4750 -0.2296 -0.4142
10450SOL    HW132950   3.667   0.662   1.856 -1.0111 -0.6477 -0.4582
10450SOL    HW232951   3.599   0.805   1.896  1.7876  0.5956  0.1151
10451SOL     OW32952   6.020   2.967   0.307  0.1302  0.1796  0.0989
10451SOL    HW132953   6.046   2.871   0.294 -0.1759 -0.0279  0.9129
10451SOL    HW232954   6.053   3.022   0.231  0.1143 -0.6148 -0.4919
10452SOL     OW32955   1.214   5.967   2.777 -0.1571 -0.6863 -0.2054
10452SOL    HW132956   1.310   5.988   2.793 -0.1183  0.0991 -1.3342
10452SOL    HW232957   1.200   5.950   2.679 -1.2811 -0.1572 -0.1538
10453SOL     OW32958   6.914   4.520   3.121 -0.3245 -0.3971 -0.3702
10453SOL    HW132959   6.843   4.498   3.054  0.1193 -1.5781 -0.4744
10453SOL    HW232960   6.987   4.573   3.076 -1.2942  1.1759 -0.1699
10454SOL     OW32961   4.399   6.948   0.598  0.2186 -0.0475 -0.4538
10454SOL    HW132962   4.481   7.005   0.607  0.1492 -0.0616  0.3304
10454SOL    HW232963   4.419   6.856   0.631 -0.2468  0.0802  0.1915
10455SOL     OW32964   6.347   0.815   1.431 -0.2202  0.3786  0.2399
10455SOL    HW132965   6.309   0.798   1.522 -1.7986  1.0544 -0.2706
10455SOL    HW232966   6.324   0.738   1.370 -1.4220  1.1034 -0.2523
10456SOL     OW32967   2.817   2.222   6.189 -0.1585 -0.7296  0.0900
10456SOL    HW132968   2.758   2.228   6.270  0.3037 -0.0497  0.3894
10456SOL    HW232969   2.772   2.167   6.120 -0.5903 -1.2710  0.7863
10457SOL     OW32970   5.077   6.030   3.579 -0.0537 -0.1202 -0.4507
10457SOL    HW132971   5.111   5.983   3.498  0.6135 -0.3645 -0.0402
10457SOL    HW232972   4.986   6.067   3.561 -0.3326 -1.0343 -0.9822
10458SOL     OW32973   5.123   5.739   4.986 -0.2050  0.0797  0.3350
10458SOL    HW132974   5.148   5.824   5.033  3.7391 -1.0572  0.6869
10458SOL    HW232975   5.068   5.682   5.046  0.9695  0.5201  1.8766
10459SOL     OW32976   3.456   2.086   5.227  0.2334  0.3570  0.2748
10459SOL    HW132977   3.429   1.991   5.209  0.7000  0.0008  1.3561
10459SOL    HW232978   3.514   2.119   5.153  3.3246 -1.5518  1.6642
10460SOL     OW32979   5.367   2.160   4.329  0.2783 -0.2366  0.1001
10460SOL    HW132980   5.429   2.113   4.392  0.0911 -1.7669 -0.8282
10460SOL    HW232981   5.392   2.138   4.235 -0.0560  1.2525 -0.3691
10461SOL     OW32982   0.812   0.698   3.718 -0.4899  0.4577 -0.4078
10461SOL    HW132983   0.832   0.603   3.739  0.0998  0.9609  1.4985
10461SOL    HW232984   0.723   0.723   3.756  0.4476  1.2941  1.3985
10462SOL     OW32985   6.424   1.399   4.607  0.5332 -0.1213  0.1366
10462SOL    HW132986   6.509   1.410   4.555  2.4391 -1.9773  2.6500
10462SOL    HW232987   6.419   1.470   4.677  1.3630 -1.4834  1.6308
10463SOL     OW32988   0.375   2.542   0.597 -0.0693 -0.0708 -0.4467
10463SOL    HW132989   0.374   2.471   0.526 -2.2623  1.5778 -2.2013
10463SOL    HW232990   0.312   2.515   0.671 -0.0880 -0.4264 -0.5878
10464SOL     OW32991   6.912   4.583   5.518 -0.1273  0.0478  0.3801
10464SOL    HW132992   6.949   4.546   5.603  0.2969  0.6518  0.4625
10464SOL    HW232993   6.881   4.677   5.533 -0.3001  0.0669 -0.0683
10465SOL     OW32994   5.829   5.586   5.834  0.4965  0.5232 -0.2806
10465SOL    HW132995   5.893   5.632   5.896  0.3984 -0.2054  0.3860
10465SOL    HW232996   5.860   5.598   5.740  1.9104 -0.2169  0.0529
10466SOL     OW32997   2.630   5.587   3.608 -0.0923  0.0519 -0.4436
10466SOL    HW132998   2.590   5.604   3.698  0.6334 -0.8452  0.0673
10466SOL    HW232999   2.724   5.553   3.619 -0.2645 -0.8276 -1.5042
10467SOL     OW33000   2.859   5.689   3.984  0.1276  0.0040  0.0873
10467SOL    HW133001   2.911   5.702   4.069  2.4206  0.1547 -1.2476
10467SOL    HW233002   2.858   5.592   3.960 -0.6669 -0.0594  0.3698
10468SOL     OW33003   5.750   2.331   4.040  0.6589  0.3835  0.3421
10468SOL    HW133004   5.823   2.302   3.979  0.2436 -0.0020  0.0169
10468SOL    HW233005   5.784   2.339   4.133  0.7479 -1.3342  0.4826
10469SOL     OW33006   5.876   4.278   6.666  0.0742 -0.2066  0.5229
10469SOL    HW133007   5.819   4.254   6.588  1.4031  0.8503 -0.8203
10469SOL    HW233008   5.860   4.213   6.741 -1.0275 -1.3895 -0.7029
10470SOL     OW33009   6.449   4.437   4.193  0.1374  0.1458 -0.2227
10470SOL    HW133010   6.485   4.369   4.256  3.9113  1.2760 -0.8555
10470SOL    HW233011   6.403   4.509   4.244 -2.2054 -1.8088  0.5956
10471SOL     OW33012   6.316   5.704   0.948 -0.5547 -0.3604  0.3116
10471SOL    HW133013   6.389   5.684   1.014 -1.5796 -2.0460  0.9991
10471SOL    HW233014   6.342   5.668   0.859  1.0501  2.3436 -0.4446
10472SOL     OW33015   6.831   0.194   5.180  0.0991 -0.7016 -0.3463
10472SOL    HW133016   6.873   0.104   5.183 -2.5436 -2.0763 -1.4664
10472SOL    HW233017   6.740   0.191   5.223 -0.2898  1.2843 -0.8947
10473SOL     OW33018   0.023   2.703   5.851  0.4720  0.1235  0.0323
10473SOL    HW133019   0.083   2.782   5.856 -0.6054  1.0698 -1.2164
10473SOL    HW233020   0.000   2.685   5.755 -1.2865 -0.1418  0.4669
10474SOL     OW33021   4.037   6.173   6.538 -0.1007 -0.1038  0.1065
10474SOL    HW133022   4.112   6.121   6.579  0.4201 -0.9074 -1.7854
10474SOL    HW233023   3.976   6.112   6.488  0.2877  1.0058 -1.8170
10475SOL     OW33024   0.866   4.453   4.258  0.5329  0.0050 -0.4522
10475SOL    HW133025   0.911   4.477   4.344 -0.5637 -0.8650  0.4111
10475SOL    HW233026   0.897   4.363   4.229 -0.6589 -0.6615  0.2195
10476SOL     OW33027   2.323   6.134   6.969 -0.3034  0.9093  0.2922
10476SOL    HW133028   2.243   6.167   6.920  0.8709  0.4259 -2.1177
10476SOL    HW233029   2.380   6.211   6.997  0.5477  1.1549 -1.9474
10477SOL     OW33030   1.824   3.115   5.564  0.8181 -0.2035  0.2424
10477SOL    HW133031   1.887   3.186   5.596 -1.0348  1.9044 -0.5699
10477SOL    HW233032   1.848   3.089   5.471  1.2446 -0.3690  0.3942
10478SOL     OW33033   6.559   0.078   2.663 -0.6453  0.4038  0.2090
10478SOL    HW133034   6.473   0.128   2.657 -2.3376 -2.4893 -2.1188
10478SOL    HW233035   6.587   0.048   2.572  1.0516 -1.5456  1.2744
10479SOL     OW33036   1.033   5.992   6.977 -0.3021  0.0328  0.5062
10479SOL    HW133037   1.126   6.029   6.967 -0.1658 -0.3173  0.4392
10479SOL    HW233038   1.025   5.948   7.067 -0.2188 -0.4360  0.2901
10480SOL     OW33039   0.094   3.639   6.245 -0.7434 -0.2851  0.0167
10480SOL    HW133040   0.133   3.633   6.153 -1.8514  0.6691 -0.5515
10480SOL    HW233041   0.003   3.598   6.245 -1.7397  1.7994  0.0455
10481SOL     OW33042   1.677   6.030   2.402  0.4669  0.4016  0.6597
10481SOL    HW133043   1.626   6.090   2.464 -3.3124 -1.5981 -0.2102
10481SOL    HW233044   1.681   5.938   2.440 -1.3284 -0.7069 -1.6115
10482SOL     OW33045   5.424   1.840   4.471 -0.3430 -0.1194 -0.2517
10482SOL    HW133046   5.384   1.813   4.559  0.8399 -0.4729  0.2040
10482SOL    HW233047   5.383   1.786   4.397 -0.3792 -0.8005  0.2535
10483SOL     OW33048   2.568   5.232   3.774  0.8726 -0.3816 -0.0092
10483SOL    HW133049   2.661   5.194   3.774  1.2090  0.3922  1.3367
10483SOL    HW233050   2.549   5.275   3.862 -0.7017 -0.3360 -0.3365
10484SOL     OW33051   3.097   1.013   4.839  0.2594 -0.1073 -0.0660
10484SOL    HW133052   3.183   0.989   4.885  1.1692  1.7767 -0.6986
10484SOL    HW233053   3.049   1.082   4.893  1.8540  2.9413 -2.2648
10485SOL     OW33054   5.443   6.416   3.202  0.5226 -0.4345  0.5092
10485SOL    HW133055   5.477   6.492   3.147  1.3565 -1.8025 -0.9505
10485SOL    HW233056   5.494   6.411   3.288  1.1995 -0.0079  0.1385
10486SOL     OW33057   0.415   1.525   5.736 -0.3419 -0.3497  0.1395
10486SOL    HW133058   0.383   1.478   5.654 -0.1967  1.3368 -0.9481
10486SOL    HW233059   0.507   1.493   5.760 -0.3085 -0.7215 -0.4733
10487SOL     OW33060   3.723   2.876   3.686  0.2331  0.3690  0.0023
10487SOL    HW133061   3.730   2.838   3.594  1.1512 -0.7824  0.5106
10487SOL    HW233062   3.629   2.868   3.719  0.3088 -1.1689 -0.0646
10488SOL     OW33063   0.252   2.586   0.841 -0.7203  0.4422  0.3736
10488SOL    HW133064   0.265   2.511   0.906  0.8984  0.0676 -0.3471
10488SOL    HW233065   0.335   2.642   0.839 -0.5830  0.2169 -1.6483
10489SOL     OW33066   4.908   6.333   1.330 -0.0029 -0.2959 -0.4203
10489SOL    HW133067   4.938   6.343   1.425  1.1942  0.8186 -0.9027
10489SOL    HW233068   4.808   6.339   1.327  0.0022  0.6864  0.6551
10490SOL     OW33069   4.088   1.664   6.399  0.8317 -0.0212 -0.2925
10490SOL    HW133070   4.162   1.612   6.356  0.5416 -0.6869 -0.0077
10490SOL    HW233071   4.119   1.700   6.487  0.7677 -0.4453 -0.0939
10491SOL     OW33072   2.650   6.358   4.609  0.1891 -0.6290  0.2853
10491SOL    HW133073   2.705   6.370   4.691  0.7295  1.8685 -0.3678
10491SOL    HW233074   2.566   6.412   4.617  0.7175  0.4746 -1.1641
10492SOL     OW33075   4.526   6.657   5.677 -0.0707 -0.5295  0.1054
10492SOL    HW133076   4.470   6.699   5.748  0.9188 -0.9889  1.2002
10492SOL    HW233077   4.606   6.615   5.719 -1.1166 -3.7785 -0.8444
10493SOL     OW33078   1.067   5.646   6.566 -0.3695  0.2678  0.2025
10493SOL    HW133079   1.059   5.700   6.482  0.5501  1.9720  1.1427
10493SOL    HW233080   1.116   5.561   6.546 -0.8788  0.2571 -1.1240
10494SOL     OW33081   3.099   4.212   0.721 -0.3551  0.0664  0.3912
10494SOL    HW133082   3.083   4.253   0.811 -1.4053 -0.8017  0.6199
10494SOL    HW233083   3.025   4.237   0.659 -1.4791 -2.0711  0.7731
10495SOL     OW33084   0.442   1.404   4.900 -0.2716  0.0081 -0.4516
10495SOL    HW133085   0.396   1.492   4.909  1.3607  1.0416 -1.6339
10495SOL    HW233086   0.505   1.392   4.977  1.1253  0.9429 -1.3996
10496SOL     OW33087   4.622   2.474   0.949  0.0538  0.2084 -0.2112
10496SOL    HW133088   4.625   2.498   1.046  1.8816 -0.6808  0.0078
10496SOL    HW233089   4.704   2.509   0.903 -0.3437 -0.1532 -1.2319
10497SOL     OW33090   4.369   0.553   1.502  0.2099  0.2192  0.0075
10497SOL    HW133091   4.359   0.652   1.487 -1.0660  0.2152  0.6463
10497SOL    HW233092   4.310   0.525   1.578 -0.9603 -1.3364 -1.3766
10498SOL     OW33093   4.986   3.883   0.494 -0.4766  0.1808  0.2102
10498SOL    HW133094   5.007   3.973   0.456 -0.9762 -0.3335 -1.3900
10498SOL    HW233095   4.949   3.894   0.586  0.1688  1.5438  0.3434
10499SOL     OW33096   2.827   6.390   4.861  0.3375 -0.2142  0.0099
10499SOL    HW133097   2.863   6.321   4.924  3.3994 -0.8459 -2.2224
10499SOL    HW233098   2.898   6.415   4.795 -2.8117 -0.0736 -3.6265
10500SOL     OW33099   5.968   6.765   2.468  0.5768 -0.4867 -0.3622
10500SOL    HW133100   6.020   6.681   2.458  0.4846 -0.6009  0.0822
10500SOL    HW233101   6.029   6.844   2.458  0.4436 -0.5690 -2.0768
10501SOL     OW33102   0.811   5.984   1.828  0.2790  0.0707 -0.4061
10501SOL    HW133103   0.755   5.930   1.891 -0.7119  1.0520 -0.4135
10501SOL    HW233104   0.890   5.931   1.800 -0.4645 -1.2257 -0.1104
10502SOL     OW33105   5.144   4.489   1.521  0.0823 -0.1113 -0.4627
10502SOL    HW133106   5.186   4.577   1.503 -0.2698 -0.4264 -3.2220
10502SOL    HW233107   5.064   4.477   1.462 -0.4072 -1.9267  0.4834
10503SOL     OW33108   4.542   1.904   6.282 -0.6028  0.3670 -0.6174
10503SOL    HW133109   4.602   1.984   6.278  0.4089 -0.4300 -2.3572
10503SOL    HW233110   4.479   1.905   6.204 -0.3909 -0.6721 -0.8128
10504SOL     OW33111   4.026   0.926   2.176  0.1008  0.3101 -0.0051
10504SOL    HW133112   3.972   0.874   2.109 -0.0456  0.0856  0.2871
10504SOL    HW233113   4.067   1.005   2.131 -1.8318  1.4474  0.1005
10505SOL     OW33114   5.551   0.036   5.762 -0.5312 -0.2200 -0.2228
10505SOL    HW133115   5.488   0.043   5.685  1.5516 -0.0662 -2.0037
10505SOL    HW233116   5.644   0.022   5.728  0.3811 -0.8643  2.3062
10506SOL     OW33117   5.481   2.106   0.667 -0.5672 -0.9817 -0.3346
10506SOL    HW133118   5.567   2.130   0.623  1.1361 -0.5188  2.9953
10506SOL    HW233119   5.441   2.187   0.710 -2.0297 -1.4564 -0.7232
10507SOL     OW33120   5.394   4.332   6.106  0.4016 -0.0518  0.7834
10507SOL    HW133121   5.406   4.235   6.086  1.0144  0.0100  0.8121
10507SOL    HW233122   5.373   4.382   6.022 -0.7882 -0.3283  0.9036
10508SOL     OW33123   5.821   6.057   2.593  0.6675  0.0145  0.2747
10508SOL    HW133124   5.841   6.154   2.575 -0.7884  0.4034  0.6269
10508SOL    HW233125   5.782   6.048   2.685  1.1567 -0.9707  0.3930
10509SOL     OW33126   5.188   3.991   3.830 -0.1347  0.7588  0.2732
10509SOL    HW133127   5.099   3.984   3.875 -0.5425  0.3445 -0.5806
10509SOL    HW233128   5.197   3.919   3.762  1.3646  0.0067  1.2045
10510SOL     OW33129   4.895   0.848   1.500  0.0826  0.5924 -0.4643
10510SOL    HW133130   4.855   0.812   1.584 -2.9059 -0.7828 -2.2933
10510SOL    HW233131   4.994   0.850   1.509 -0.0916  0.2924  2.9533
10511SOL     OW33132   5.975   1.317   5.329  0.1040  0.4370 -0.0063
10511SOL    HW133133   5.875   1.311   5.328  0.1021  0.4743 -0.0204
10511SOL    HW233134   6.006   1.384   5.262  0.1902 -0.2449 -0.6620
10512SOL     OW33135   0.800   6.229   3.431  0.3344 -0.5373  0.2910
10512SOL    HW133136   0.805   6.187   3.341  0.3795 -0.6537  0.3476
10512SOL    HW233137   0.888   6.269   3.455  0.3098 -0.4669  0.2646
10513SOL     OW33138   6.298   0.945   5.487 -0.4260 -0.0668 -0.6630
10513SOL    HW133139   6.251   0.857   5.477  0.9736 -1.0417  0.8472
10513SOL    HW233140   6.230   1.018   5.493 -1.8367 -1.4118  1.4312
10514SOL     OW33141   0.832   1.132   3.888  0.5051 -0.1785 -0.0888
10514SOL    HW133142   0.788   1.067   3.825  2.0778 -0.3590 -1.0493
10514SOL    HW233143   0.841   1.089   3.978 -1.4941 -0.0295  0.2134
10515SOL     OW33144   5.833   0.337   5.728 -0.2689 -0.1838 -0.3026
10515SOL    HW133145   5.793   0.246   5.739 -0.1675 -0.1717  0.2018
10515SOL    HW233146   5.906   0.349   5.795 -0.2107  0.2303 -0.4390
10516SOL     OW33147   5.748   6.295   3.679 -0.5779  0.1406 -0.4439
10516SOL    HW133148   5.798   6.269   3.597  2.0493 -0.9420  1.3715
10516SOL    HW233149   5.688   6.219   3.707 -0.0213 -0.2585 -0.3204
10517SOL     OW33150   6.056   3.193   5.146 -0.2662 -0.2252  0.6425
10517SOL    HW133151   5.969   3.242   5.134  0.0992  0.4331  0.5990
10517SOL    HW233152   6.063   3.161   5.241 -0.4078  0.0176  0.7368
10518SOL     OW33153   6.722   6.677   1.204  0.4758 -0.0060  0.0322
10518SOL    HW133154   6.635   6.678   1.155  1.2988 -0.0659 -1.4824
10518SOL    HW233155   6.797   6.689   1.140  1.5237  2.3658  1.5591
10519SOL     OW33156   1.109   5.054   4.751 -0.3692 -0.2756  0.1850
10519SOL    HW133157   1.031   5.003   4.714 -1.7204  2.6500 -1.3662
10519SOL    HW233158   1.083   5.095   4.838 -0.0032 -0.6373  0.4608
10520SOL     OW33159   4.771   5.650   0.411 -0.1719 -0.4448 -0.2011
10520SOL    HW133160   4.675   5.676   0.420  0.3264  1.2364  0.7423
10520SOL    HW233161   4.786   5.563   0.458 -1.1708 -0.5624 -0.0773
10521SOL     OW33162   0.523   4.751   3.013 -0.2601  0.0027  0.3512
10521SOL    HW133163   0.515   4.831   2.953 -1.2710  1.1461  1.9635
10521SOL    HW233164   0.448   4.688   2.994 -1.9314  1.4309  1.8940
10522SOL     OW33165   5.103   3.740   5.977  0.3956 -0.0323 -0.2854
10522SOL    HW133166   5.014   3.702   6.002  0.9908 -1.9157 -0.8775
10522SOL    HW233167   5.166   3.730   6.054  0.0746  1.5069  0.2146
10523SOL     OW33168   1.535   4.605   1.524  0.3197  0.8797 -0.1240
10523SOL    HW133169   1.535   4.539   1.449  0.3575  1.7731 -0.9407
10523SOL    HW233170   1.604   4.580   1.591  0.5960  0.3118 -0.6109
10524SOL     OW33171   1.764   2.053   4.212  0.1355  0.2596  0.2662
10524SOL    HW133172   1.856   2.021   4.190  0.7494  2.2877 -0.3174
10524SOL    HW233173   1.748   2.044   4.310  0.2935 -1.6701  0.1463
10525SOL     OW33174   2.918   0.982   6.240 -0.4751 -0.5003 -0.1653
10525SOL    HW133175   2.998   0.993   6.181 -2.7757 -0.5463 -3.5814
10525SOL    HW233176   2.876   1.072   6.257  0.2477 -0.4628  1.6899
10526SOL     OW33177   3.215   0.606   1.684  0.4211  0.0701  0.1278
10526SOL    HW133178   3.195   0.549   1.763 -0.7434 -0.0650 -0.2531
10526SOL    HW233179   3.239   0.698   1.715 -1.7182  0.5140  0.6025
10527SOL     OW33180   5.400   2.996   1.564 -0.3673 -0.0491 -0.5983
10527SOL    HW133181   5.418   2.901   1.536 -0.8070 -0.2046 -0.3741
10527SOL    HW233182   5.482   3.035   1.605 -0.4371 -0.6415  0.1311
10528SOL     OW33183   4.275   3.154   1.225  0.1327 -0.6052 -0.2990
10528SOL    HW133184   4.248   3.236   1.275 -0.9101 -1.0013 -0.1963
10528SOL    HW233185   4.326   3.181   1.143  0.8929  0.0856  0.3702
10529SOL     OW33186   0.714   4.221   3.648 -0.4714  0.4158 -0.3058
10529SOL    HW133187   0.670   4.133   3.631  0.0894 -0.3673  2.0153
10529SOL    HW233188   0.799   4.227   3.595 -0.2501 -0.6672 -0.0862
10530SOL     OW33189   5.489   0.183   3.597  0.3072  0.0646 -0.0052
10530SOL    HW133190   5.556   0.198   3.669 -0.3211  1.3274  0.3389
10530SOL    HW233191   5.399   0.212   3.628 -0.3833 -1.4173 -0.5328
10531SOL     OW33192   4.705   1.626   3.210 -0.0833 -0.2849  0.0818
10531SOL    HW133193   4.660   1.706   3.248  2.6225  1.5208 -0.2665
10531SOL    HW233194   4.761   1.582   3.280  0.4361 -0.3383 -0.3568
10532SOL     OW33195   6.033   6.733   4.579 -0.2507 -0.7121  0.2931
10532SOL    HW133196   6.089   6.809   4.611  1.2626 -0.9741 -1.5541
10532SOL    HW233197   5.964   6.767   4.515  2.0677 -1.0274 -2.6008
10533SOL     OW33198   0.518   1.790   5.016 -0.4365  0.4212  0.1808
10533SOL    HW133199   0.573   1.763   5.095  0.8024 -0.1167 -0.8191
10533SOL    HW233200   0.439   1.730   5.008 -0.6010  0.5103  1.0222
10534SOL     OW33201   1.025   2.308   6.811  0.3553 -0.0128  0.7190
10534SOL    HW133202   1.067   2.376   6.751 -0.2716 -0.5070 -0.2920
10534SOL    HW233203   0.926   2.308   6.798  0.0249  0.8136  2.7380
10535SOL     OW33204   4.925   5.715   3.913  0.3660  0.3880 -0.3081
10535SOL    HW133205   4.873   5.767   3.846 -0.9359 -0.7427 -0.2098
10535SOL    HW233206   4.893   5.737   4.005 -2.5193 -2.7991 -0.3525
10536SOL     OW33207   5.840   1.689   0.384 -0.6499 -0.9045 -0.1560
10536SOL    HW133208   5.913   1.670   0.318 -0.0284  1.8903 -0.4008
10536SOL    HW233209   5.877   1.684   0.477 -0.3512 -0.4415 -0.2424
10537SOL     OW33210   4.091   4.394   5.207 -0.4883 -0.4490  0.0717
10537SOL    HW133211   4.068   4.451   5.128 -0.1576 -1.3229 -0.6766
10537SOL    HW233212   4.185   4.412   5.235 -0.4671 -0.4355 -0.0060
10538SOL     OW33213   0.737   4.506   4.031 -0.3243 -0.2099 -0.2599
10538SOL    HW133214   0.780   4.451   3.958  0.9453  0.8344 -0.3341
10538SOL    HW233215   0.756   4.463   4.119 -0.5667 -0.6619 -0.4227
10539SOL     OW33216   0.301   6.348   1.260  0.2108  0.1654 -0.2574
10539SOL    HW133217   0.296   6.444   1.233 -0.1568  0.6884  1.5499
10539SOL    HW233218   0.393   6.327   1.294  0.4786 -0.3206 -1.2204
10540SOL     OW33219   6.268   6.398   5.278 -0.5985  0.1698 -0.2650
10540SOL    HW133220   6.195   6.465   5.270 -0.3577  0.9956  3.1225
10540SOL    HW233221   6.342   6.421   5.214 -1.2959  2.0527 -0.4431
10541SOL     OW33222   6.962   4.327   6.713 -0.4495  0.2927  0.2492
10541SOL    HW133223   7.042   4.371   6.754 -1.5815  1.2053  1.5320
10541SOL    HW233224   6.948   4.238   6.755  0.3527 -0.2421 -0.5687
10542SOL     OW33225   5.788   4.147   3.973  0.0404  0.4393  0.7398
10542SOL    HW133226   5.752   4.222   3.919  0.1742  1.6114  2.1949
10542SOL    HW233227   5.712   4.096   4.015 -0.0881 -0.8423 -0.9623
10543SOL     OW33228   1.725   3.302   2.000  0.3328 -0.3777  0.2276
10543SOL    HW133229   1.811   3.302   2.052 -0.2625  0.3723  1.2491
10543SOL    HW233230   1.718   3.388   1.950  0.9968 -1.1797 -1.2988
10544SOL     OW33231   5.315   6.857   3.798  0.6917 -0.3177  0.1946
10544SOL    HW133232   5.337   6.760   3.810  0.6340 -0.1349  2.1972
10544SOL    HW233233   5.400   6.910   3.795  0.7134 -0.3857 -0.5730
10545SOL     OW33234   2.671   6.028   0.311  0.5049 -0.0297  0.0050
10545SOL    HW133235   2.677   5.933   0.342 -0.6638  0.2676  1.2437
10545SOL    HW233236   2.741   6.083   0.358  0.6113 -0.1139 -0.0537
10546SOL     OW33237   5.889   5.578   6.708 -0.1391  0.4482 -0.2617
10546SOL    HW133238   5.871   5.596   6.805 -1.6327  0.4785 -0.5245
10546SOL    HW233239   5.974   5.624   6.681  0.1748  0.6365  0.9598
10547SOL     OW33240   2.873   5.919   1.504  0.2204 -0.2826  0.1320
10547SOL    HW133241   2.891   5.823   1.482 -0.9674  0.0704 -2.9870
10547SOL    HW233242   2.809   5.957   1.437  1.3501  2.9432  0.6813
10548SOL     OW33243   5.900   1.733   3.618 -0.4451  0.4026 -0.1154
10548SOL    HW133244   5.810   1.751   3.656  0.9966  0.6224  3.5675
10548SOL    HW233245   5.949   1.819   3.606  1.3802  0.1386  3.9655
10549SOL     OW33246   1.718   4.361   3.405 -0.0118 -0.0198  0.7798
10549SOL    HW133247   1.667   4.446   3.415  1.1363  0.6602  1.0541
10549SOL    HW233248   1.711   4.307   3.489 -0.1829  0.1307  0.8608
10550SOL     OW33249   2.756   0.683   4.615  0.8047 -0.1796  0.0443
10550SOL    HW133250   2.835   0.734   4.648  2.0016 -2.4834  0.9542
10550SOL    HW233251   2.693   0.667   4.692 -0.1976  0.9432 -0.5062
10551SOL     OW33252   1.754   0.534   4.804  0.4883  0.2802  0.4645
10551SOL    HW133253   1.783   0.629   4.821 -0.2560  0.8029 -1.0276
10551SOL    HW233254   1.709   0.498   4.885  2.1660  0.6361  1.6194
10552SOL     OW33255   6.654   4.213   2.027 -0.2619  0.0301 -0.1228
10552SOL    HW133256   6.610   4.284   1.972 -0.9950 -0.1353  0.2265
10552SOL    HW233257   6.674   4.134   1.970 -0.6865  0.0003 -0.2400
10553SOL     OW33258   0.399   2.970   0.496 -0.3108  0.1866  0.0287
10553SOL    HW133259   0.426   3.005   0.406  0.5953  0.4649  0.3949
10553SOL    HW233260   0.481   2.953   0.551 -0.8994  2.2170  1.6493
10554SOL     OW33261   3.390   5.437   3.258  0.3144 -0.0803 -0.6677
10554SOL    HW133262   3.401   5.400   3.166 -0.4781 -2.2136  0.0372
10554SOL    HW233263   3.342   5.371   3.316  1.4029  0.8943  1.4977
10555SOL     OW33264   2.036   1.185   0.236 -0.2969 -0.1658  0.4375
10555SOL    HW133265   2.040   1.229   0.147  3.3130 -3.3277 -1.2254
10555SOL    HW233266   1.941   1.162   0.258 -1.3138  0.9503 -2.3723
10556SOL     OW33267   3.885   3.997   5.837  0.4468 -0.2074 -0.0864
10556SOL    HW133268   3.981   4.022   5.852 -0.1190  2.3942 -0.3099
10556SOL    HW233269   3.835   4.007   5.923 -0.2201  1.7209 -0.6513
10557SOL     OW33270   6.974   1.678   4.048  0.5571  0.3398  0.5430
10557SOL    HW133271   7.065   1.642   4.069  0.5571 -0.8486 -1.2747
10557SOL    HW233272   6.921   1.685   4.132  0.8895 -3.0345  1.1843
10558SOL     OW33273   3.645   6.487   5.818  0.3027 -0.0902 -0.2467
10558SOL    HW133274   3.578   6.414   5.810 -2.2406  2.0959 -0.4989
10558SOL    HW233275   3.720   6.472   5.755  0.4949 -3.0186  0.5601
10559SOL     OW33276   5.548   2.363   5.728  0.3162  0.2526  0.4201
10559SOL    HW133277   5.482   2.426   5.770  0.2263 -0.6931  1.7749
10559SOL    HW233278   5.596   2.313   5.800 -0.3763 -2.0088 -0.6033
10560SOL     OW33279   4.131   3.446   0.175  0.0892  0.0295 -0.0353
10560SOL    HW133280   4.116   3.542   0.152  0.1515  0.0044 -0.1801
10560SOL    HW233281   4.070   3.389   0.120  0.4361 -0.0477 -0.3407
10561SOL     OW33282   5.947   6.503   5.436  0.4092  0.1770  0.1906
10561SOL    HW133283   5.935   6.539   5.529  3.6495  2.6441 -0.1590
10561SOL    HW233284   6.027   6.444   5.434 -0.0505 -0.4268 -0.9381
10562SOL     OW33285   0.564   4.977   0.444 -0.3367 -0.1252 -0.1268
10562SOL    HW133286   0.577   5.066   0.486 -1.3623  0.4991 -1.0818
10562SOL    HW233287   0.583   4.905   0.511 -0.9905  0.8127  1.0982
10563SOL     OW33288   2.895   4.949   6.965 -0.4313  0.3433 -0.5160
10563SOL    HW133289   2.946   4.870   7.001 -0.0244 -0.1958 -2.1915
10563SOL    HW233290   2.818   4.916   6.911 -1.6351  1.1512  0.6415
10564SOL     OW33291   6.759   6.180   3.010  0.4751  0.3883 -0.6476
10564SOL    HW133292   6.709   6.102   3.048 -1.9187  1.9668 -0.2738
10564SOL    HW233293   6.807   6.228   3.084 -1.7319  1.7290  0.0533
10565SOL     OW33294   0.369   3.458   1.472  0.4027 -0.1953  0.3995
10565SOL    HW133295   0.410   3.546   1.495 -0.0618  0.1469 -0.0522
10565SOL    HW233296   0.398   3.389   1.538  2.7893 -0.2788 -0.6140
10566SOL     OW33297   6.279   6.427   2.056  0.2910 -0.4391 -0.3144
10566SOL    HW133298   6.327   6.363   1.996 -0.8426  0.3403 -2.1314
10566SOL    HW233299   6.265   6.384   2.146  1.7220 -1.7756 -0.6839
10567SOL     OW33300   4.090   5.662   1.745  0.6458 -0.1931  0.9922
10567SOL    HW133301   4.051   5.750   1.772 -0.3434 -0.4229  0.3855
10567SOL    HW233302   4.177   5.676   1.698  1.1068  0.3680  1.9775
10568SOL     OW33303   2.937   3.643   6.166  0.3691 -0.1210  0.0967
10568SOL    HW133304   2.952   3.596   6.253  0.1933 -0.8740 -0.2735
10568SOL    HW233305   3.022   3.644   6.114  0.5636  0.6218  0.3990
10569SOL     OW33306   1.249   4.244   0.754 -0.0413  0.0322  0.5685
10569SOL    HW133307   1.236   4.152   0.790  2.3703 -0.5011  0.2756
10569SOL    HW233308   1.336   4.280   0.787  0.3583  1.1027 -1.5209
10570SOL     OW33309   2.668   6.227   4.082  0.1389 -0.3888 -0.4112
10570SOL    HW133310   2.696   6.276   4.164  1.0350  0.2264 -1.0625
10570SOL    HW233311   2.683   6.129   4.095  1.7237 -0.1669 -0.3617
10571SOL     OW33312   3.744   2.833   3.430 -0.0089  0.6178  0.3086
10571SOL    HW133313   3.692   2.864   3.351  1.5100 -0.0946 -1.0248
10571SOL    HW233314   3.792   2.748   3.408 -1.1724 -0.7741  2.6895
10572SOL     OW33315   0.664   3.427   2.490 -0.2100  0.4319  0.3086
10572SOL    HW133316   0.584   3.479   2.516 -0.3463  0.7691 -0.7321
10572SOL    HW233317   0.727   3.486   2.439 -0.2768 -0.3490 -0.7139
10573SOL     OW33318   6.182   3.926   1.577 -0.9006  0.1152  0.8000
10573SOL    HW133319   6.138   4.016   1.582 -2.7859 -0.6711 -0.5963
10573SOL    HW233320   6.114   3.855   1.594 -0.1264 -1.1319 -1.0075
10574SOL     OW33321   0.292   6.922   3.040 -0.1934 -0.4122 -0.4279
10574SOL    HW133322   0.257   6.835   3.077 -2.2061 -0.2215 -1.7147
10574SOL    HW233323   0.327   6.907   2.948  1.1024 -0.1654  0.0162
10575SOL     OW33324   1.908   1.783   1.009 -0.1264 -0.3618 -0.1814
10575SOL    HW133325   1.850   1.806   0.932  1.6483  1.3891 -1.0733
10575SOL    HW233326   1.890   1.845   1.085  1.6201  1.3065 -1.0449
10576SOL     OW33327   5.113   2.844   1.877  0.1594  0.1781  0.5585
10576SOL    HW133328   5.131   2.925   1.933 -0.8883  0.2780  0.7719
10576SOL    HW233329   5.191   2.781   1.883  1.1515  1.3169  0.1022
10577SOL     OW33330   4.461   5.624   3.756 -0.0616  0.0659  0.3021
10577SOL    HW133331   4.539   5.680   3.729  0.1138  0.0896  0.8451
10577SOL    HW233332   4.492   5.547   3.811 -0.3007 -0.6011 -0.4711
10578SOL     OW33333   3.760   1.529   2.450 -0.0337  0.4325  0.5408
10578SOL    HW133334   3.661   1.527   2.466  0.3048  0.2126  2.9784
10578SOL    HW233335   3.804   1.583   2.521  1.6573  0.2475 -0.3141
10579SOL     OW33336   1.655   4.024   1.774 -0.7799 -0.3100  0.1136
10579SOL    HW133337   1.569   4.070   1.752 -0.7201 -0.8463 -1.3491
10579SOL    HW233338   1.723   4.046   1.705  0.4857  0.5814  1.5621
10580SOL     OW33339   3.612   4.381   1.395  0.3071  0.4849  0.0738
10580SOL    HW133340   3.593   4.398   1.298  2.4956  3.1492 -0.0282
10580SOL    HW233341   3.710   4.363   1.407  0.1787  0.7457  1.8259
10581SOL     OW33342   2.582   0.110   3.859  0.7058  0.3058 -0.4529
10581SOL    HW133343   2.519   0.165   3.915  1.2907 -1.1430  1.7596
10581SOL    HW233344   2.669   0.158   3.850  0.8439  0.2491  0.5054
10582SOL     OW33345   4.833   0.167   3.364  0.2724 -0.0541 -0.2288
10582SOL    HW133346   4.838   0.256   3.409  3.3755 -0.2709  0.0095
10582SOL    HW233347   4.781   0.104   3.422 -0.3645  1.0647  0.4671
10583SOL     OW33348   3.405   0.028   4.142  0.0056  0.3277  0.1319
10583SOL    HW133349   3.486   0.007   4.087 -1.1358  0.0808 -1.5387
10583SOL    HW233350   3.323   0.010   4.088 -1.1715  0.9731  1.6340
10584SOL     OW33351   0.700   2.430   4.165 -0.3301  0.6293  0.3840
10584SOL    HW133352   0.666   2.336   4.160 -1.8698  0.9990  2.3716
10584SOL    HW233353   0.793   2.430   4.203 -0.2843 -0.0905  0.2758
10585SOL     OW33354   3.736   6.451   4.734 -0.1977 -0.2315  0.1917
10585SOL    HW133355   3.791   6.487   4.658 -1.0595  1.4592  0.3111
10585SOL    HW233356   3.748   6.508   4.815 -1.2979 -0.4395  0.5309
10586SOL     OW33357   0.066   6.953   0.870 -0.3149 -0.0472  0.5026
10586SOL    HW133358   0.014   7.030   0.907  1.1193  1.2930 -0.1675
10586SOL    HW233359   0.163   6.967   0.887  0.2665 -0.2300 -2.1776
10587SOL     OW33360   3.196   4.594   6.313  0.1031  0.3056  0.7246
10587SOL    HW133361   3.149   4.572   6.399 -0.6714  1.1601  0.5373
10587SOL    HW233362   3.199   4.693   6.301 -0.7255  0.1739 -0.7372
10588SOL     OW33363   0.895   5.515   1.347 -0.5013 -0.4111 -0.6624
10588SOL    HW133364   0.902   5.532   1.249  1.2691 -0.7348 -0.6299
10588SOL    HW233365   0.938   5.427   1.369 -1.6945 -0.7793  0.2929
10589SOL     OW33366   6.519   4.408   1.883 -0.0372 -0.6599  0.6332
10589SOL    HW133367   6.506   4.505   1.901 -1.9615 -0.0357 -3.1326
10589SOL    HW233368   6.430   4.364   1.872  0.8098 -2.8869  1.9830
10590SOL     OW33369   4.555   0.401   4.627  0.1405  0.0804 -0.2722
10590SOL    HW133370   4.632   0.462   4.649  0.9674 -0.8373 -0.5597
10590SOL    HW233371   4.590   0.316   4.588 -0.9889 -0.6409  0.2342
10591SOL     OW33372   5.019   3.722   6.891 -0.1860 -0.6173 -0.0204
10591SOL    HW133373   4.943   3.773   6.851 -1.8182 -2.4098  0.6386
10591SOL    HW233374   5.008   3.718   6.990  0.1339 -1.8765 -0.0177
10592SOL     OW33375   5.752   2.479   3.731  0.1383  0.6515  0.0402
10592SOL    HW133376   5.801   2.392   3.722  0.0174  0.6512 -0.6613
10592SOL    HW233377   5.815   2.551   3.759  0.3060  0.4093  0.2857
10593SOL     OW33378   6.914   6.674   0.359 -0.3491 -0.5294  0.1595
10593SOL    HW133379   6.849   6.664   0.283  0.1444  0.2093 -0.3698
10593SOL    HW233380   7.004   6.696   0.323 -0.0677 -0.3376  0.9634
10594SOL     OW33381   4.839   6.722   1.391 -0.0307  0.0254 -0.2822
10594SOL    HW133382   4.919   6.752   1.443 -0.4641  1.5070 -0.4218
10594SOL    HW233383   4.761   6.711   1.452  0.4901 -2.4183  0.0190
10595SOL     OW33384   4.372   1.692   1.141  0.5554  0.3214 -0.2656
10595SOL    HW133385   4.422   1.771   1.178 -1.2360  0.6091  1.7183
10595SOL    HW233386   4.420   1.608   1.163  0.8535  0.6732  0.4437
10596SOL     OW33387   4.155   5.238   2.740 -0.0526 -0.3547  0.3118
10596SOL    HW133388   4.094   5.315   2.758  1.9430  0.9605  2.1025
10596SOL    HW233389   4.149   5.172   2.816 -0.5477 -1.1412 -0.3970
10597SOL     OW33390   6.520   2.397   5.126 -0.5434 -0.1171  0.1010
10597SOL    HW133391   6.426   2.387   5.094 -0.6298 -0.9523  0.5859
10597SOL    HW233392   6.579   2.334   5.075 -0.8321 -2.1856  2.1125
10598SOL     OW33393   1.124   4.463   6.294 -0.0073  0.0788  0.1661
10598SOL    HW133394   1.174   4.472   6.208 -0.8731 -1.6784 -0.5578
10598SOL    HW233395   1.085   4.372   6.301 -0.4717  0.3815  2.1682
10599SOL     OW33396   1.065   0.970   4.744  0.0903 -0.0128  0.7148
10599SOL    HW133397   1.084   1.053   4.691  4.5116 -0.0009  1.9374
10599SOL    HW233398   1.015   0.995   4.828 -0.6097  1.0018  0.0267
10600SOL     OW33399   1.458   1.180   1.169 -0.4248 -0.2530 -0.7982
10600SOL    HW133400   1.370   1.223   1.190 -1.0443 -0.4969 -2.6754
10600SOL    HW233401   1.462   1.090   1.212 -0.9165 -0.0573 -0.3378
10601SOL     OW33402   3.227   2.953   6.441 -0.3757 -0.3714 -0.7143
10601SOL    HW133403   3.265   2.990   6.526 -1.1166 -0.7924 -0.1832
10601SOL    HW233404   3.189   2.862   6.458  0.3485 -0.8813 -1.7266
10602SOL     OW33405   6.603   3.054   4.955  0.1989  0.3021 -0.6246
10602SOL    HW133406   6.694   3.095   4.955  0.7575 -0.8849 -0.2753
10602SOL    HW233407   6.594   2.993   5.034 -1.5131  1.6769  0.2865
10603SOL     OW33408   2.336   3.966   1.390 -0.1286 -0.1938  0.1669
10603SOL    HW133409   2.315   3.963   1.292 -0.7802  1.4983  0.2139
10603SOL    HW233410   2.394   3.889   1.415 -0.6650 -1.1328 -1.3805
10604SOL     OW33411   3.114   2.909   3.792 -0.3144  0.5157 -0.4272
10604SOL    HW133412   3.160   2.868   3.713 -1.9889 -1.3414 -0.5158
10604SOL    HW233413   3.021   2.873   3.799  0.1153 -0.2660  3.0084
10605SOL     OW33414   3.193   2.126   1.395  0.3539  0.0640 -0.8885
10605SOL    HW133415   3.290   2.126   1.372  0.5487  1.1615 -0.1734
10605SOL    HW233416   3.139   2.112   1.312  1.0933  0.8135 -1.5224
10606SOL     OW33417   2.747   6.712   3.619  0.4906  0.0146  0.3096
10606SOL    HW133418   2.833   6.666   3.598  0.1071 -0.0927 -1.1593
10606SOL    HW233419   2.681   6.644   3.653  0.4060 -0.2495 -0.3726
10607SOL     OW33420   4.524   5.705   0.517  0.6383  0.5018 -0.4240
10607SOL    HW133421   4.429   5.674   0.514  0.4394  1.0201  0.1401
10607SOL    HW233422   4.531   5.783   0.579  2.2527 -2.5812  3.8412
10608SOL     OW33423   0.393   3.267   6.288  0.0571 -0.0692 -0.2869
10608SOL    HW133424   0.320   3.325   6.325 -1.1095 -0.7350 -1.4326
10608SOL    HW233425   0.430   3.209   6.361 -0.4931  0.3454  0.3339
10609SOL     OW33426   1.425   5.948   0.286 -0.1948  0.1472  0.4768
10609SOL    HW133427   1.466   5.909   0.204 -0.5271 -2.4248  1.4224
10609SOL    HW233428   1.476   6.030   0.314  0.7532  0.2713 -1.4922
10610SOL     OW33429   0.597   5.139   0.686 -0.1409  0.2823 -0.2250
10610SOL    HW133430   0.595   5.040   0.690  0.5749  0.2855  0.5005
10610SOL    HW233431   0.504   5.175   0.685 -0.3991 -0.3828 -0.2379
10611SOL     OW33432   0.999   6.899   4.208  0.1912 -0.0249 -0.1030
10611SOL    HW133433   1.064   6.823   4.205  1.3825  1.0040 -1.6727
10611SOL    HW233434   0.974   6.926   4.116 -2.3071 -0.1940  0.4646
10612SOL     OW33435   1.762   1.564   5.243 -0.6083 -0.1038 -0.1779
10612SOL    HW133436   1.695   1.505   5.286 -0.5122 -0.2437 -0.2193
10612SOL    HW233437   1.741   1.574   5.145 -0.5898 -0.1190 -0.1835
10613SOL     OW33438   3.937   3.103   3.396 -0.6447 -0.1959 -0.0450
10613SOL    HW133439   3.969   3.133   3.486 -3.8350 -1.3717  1.6652
10613SOL    HW233440   3.984   3.020   3.369 -0.1002 -0.1862  0.8542
10614SOL     OW33441   0.454   0.875   2.845 -0.0335 -0.4185  0.3711
10614SOL    HW133442   0.553   0.865   2.836  0.4235  2.5166  1.2176
10614SOL    HW233443   0.411   0.863   2.755  0.9838 -2.0296  0.0489
10615SOL     OW33444   2.943   0.881   0.580 -0.2552  0.3147 -0.5321
10615SOL    HW133445   2.940   0.785   0.555 -1.2257  0.4306 -0.9322
10615SOL    HW233446   2.998   0.932   0.514 -1.0028  0.2642 -1.2195
10616SOL     OW33447   3.012   1.501   5.296  0.1280 -0.4799 -0.5658
10616SOL    HW133448   3.026   1.455   5.384 -0.6415 -0.6803 -0.5463
10616SOL    HW233449   2.918   1.488   5.266 -0.1232  1.1298 -0.5420
10617SOL     OW33450   1.993   3.504   2.998  1.5565 -0.2857 -0.0630
10617SOL    HW133451   2.023   3.432   2.936 -0.7552  0.2256 -1.9211
10617SOL    HW233452   1.894   3.517   2.989  1.2986  0.6032  2.9645
10618SOL     OW33453   0.207   6.134   6.266 -0.2252 -0.2535  0.4339
10618SOL    HW133454   0.271   6.094   6.202  0.7214  1.5291  0.1896
10618SOL    HW233455   0.237   6.116   6.360 -0.9795 -1.8655  0.3972
10619SOL     OW33456   1.313   2.371   0.782 -0.0399 -0.1277 -0.0982
10619SOL    HW133457   1.313   2.292   0.720  0.4810  1.0691 -1.7004
10619SOL    HW233458   1.405   2.387   0.815 -0.0949 -0.0414  0.0128
10620SOL     OW33459   2.641   3.423   1.210  0.2893  0.4295 -0.1193
10620SOL    HW133460   2.698   3.441   1.290 -1.1519  3.1849  0.4144
10620SOL    HW233461   2.545   3.440   1.233 -0.5143 -1.5530 -1.6924
10621SOL     OW33462   2.629   2.265   0.982 -0.1148  0.4302 -0.0322
10621SOL    HW133463   2.588   2.354   0.966  2.1926  1.1364 -2.9408
10621SOL    HW233464   2.726   2.277   1.007 -0.1178 -1.2673  0.9737
10622SOL     OW33465   6.931   5.165   4.496  0.0793 -0.1187 -0.3261
10622SOL    HW133466   7.028   5.152   4.475  0.5591  0.7968  1.1680
10622SOL    HW233467   6.905   5.259   4.472  0.1250  0.3011  1.1805
10623SOL     OW33468   6.375   2.307   2.351  0.2747  0.7322  0.5183
10623SOL    HW133469   6.281   2.302   2.317  1.0382  1.8842 -2.0312
10623SOL    HW233470   6.384   2.386   2.412 -0.0005  1.9277 -0.9168
10624SOL     OW33471   6.889   4.646   0.068 -0.3908 -0.1000 -0.0920
10624SOL    HW133472   6.848   4.727   0.028  1.8461  1.6328  0.9100
10624SOL    HW233473   6.832   4.614   0.144 -0.6519  1.3528  0.3510
10625SOL     OW33474   4.468   5.572   6.191  0.2694 -0.0061 -0.2448
10625SOL    HW133475   4.431   5.642   6.253  0.5329  1.1210 -1.3113
10625SOL    HW233476   4.394   5.536   6.135  0.3634  0.4741 -0.6868
10626SOL     OW33477   5.629   2.073   3.175 -0.1300 -0.6789 -0.5077
10626SOL    HW133478   5.566   2.024   3.114  0.0183 -1.6310  0.0717
10626SOL    HW233479   5.646   2.017   3.256  0.9917 -0.1688 -0.3752
10627SOL     OW33480   6.515   6.391   2.476 -0.2986  0.3320 -0.1143
10627SOL    HW133481   6.466   6.305   2.484 -1.9377  0.8913 -2.8856
10627SOL    HW233482   6.604   6.384   2.522 -1.4287 -1.9037  1.9410
10628SOL     OW33483   4.432   6.607   3.248 -0.8126  0.4877 -0.3568
10628SOL    HW133484   4.489   6.532   3.282 -0.2270  0.5042 -1.2695
10628SOL    HW233485   4.349   6.570   3.207  0.0944  0.2090 -2.0330
10629SOL     OW33486   5.692   5.907   6.172  0.1601  0.4322 -0.3011
10629SOL    HW133487   5.788   5.938   6.170  0.6731 -1.1161 -1.4736
10629SOL    HW233488   5.688   5.813   6.204 -1.1471  0.9194  1.0662
10630SOL     OW33489   5.026   3.612   5.667  0.1588  0.2828 -0.2577
10630SOL    HW133490   5.048   3.611   5.765 -2.5495 -1.3269  0.4456
10630SOL    HW233491   5.099   3.567   5.616  1.0569  0.0456  1.1626
10631SOL     OW33492   4.450   1.095   5.368 -0.0297 -0.4002  0.2328
10631SOL    HW133493   4.433   1.100   5.270 -1.6356 -2.1111  0.3668
10631SOL    HW233494   4.388   1.157   5.416 -1.3058 -1.6658  0.2956
10632SOL     OW33495   5.077   4.834   3.966  0.3642 -0.1772  0.3322
10632SOL    HW133496   5.115   4.811   3.876  1.2908  1.0008  0.3865
10632SOL    HW233497   4.977   4.834   3.962  0.2527 -3.5781  0.2262
10633SOL     OW33498   4.971   4.249   0.059  0.3140 -0.1748  0.3032
10633SOL    HW133499   5.035   4.251  -0.017 -1.0583 -1.1279 -0.9351
10633SOL    HW233500   4.894   4.190   0.036 -0.3639 -0.1240  2.2715
10634SOL     OW33501   6.080   0.033   6.703  0.4423 -0.0448 -0.3632
10634SOL    HW133502   6.121   0.072   6.786  0.8547 -0.2606 -0.4626
10634SOL    HW233503   6.118   0.078   6.623  0.0105  0.1937 -0.4359
10635SOL     OW33504   2.145   1.089   1.740  0.6731 -0.4165  0.6347
10635SOL    HW133505   2.151   1.053   1.834 -0.9331 -0.4953  0.7459
10635SOL    HW233506   2.122   1.186   1.744 -0.0568 -0.5725  0.3327
10636SOL     OW33507   1.602   1.903   6.204  0.2083 -0.8331 -0.3286
10636SOL    HW133508   1.649   1.815   6.194  0.0290 -1.2155  1.7009
10636SOL    HW233509   1.648   1.957   6.274 -1.4731 -0.6045  0.6502
10637SOL     OW33510   5.637   5.897   4.039  0.4609  0.0720 -0.1377
10637SOL    HW133511   5.720   5.858   4.080  1.0618  1.7580  0.3290
10637SOL    HW233512   5.622   5.856   3.950  0.2673 -2.2171  0.8691
10638SOL     OW33513   2.980   0.765   5.998  0.2785  0.0654 -0.1150
10638SOL    HW133514   3.062   0.815   6.025 -0.1914  0.2894  0.9557
10638SOL    HW233515   2.938   0.724   6.078  0.1327 -1.2709 -0.8523
10639SOL     OW33516   4.778   4.918   3.547 -0.1139 -0.2052  0.5747
10639SOL    HW133517   4.786   4.818   3.541 -3.0555 -0.5451  0.6546
10639SOL    HW233518   4.808   4.959   3.461 -0.5592 -1.3374 -0.1538
10640SOL     OW33519   6.157   4.300   6.786  0.1457 -0.6724  0.1258
10640SOL    HW133520   6.087   4.368   6.809 -0.1610 -1.6010  2.1178
10640SOL    HW233521   6.117   4.232   6.724 -0.0369  0.0204 -0.5340
10641SOL     OW33522   2.524   5.137   2.808 -0.9204  0.2459 -0.2875
10641SOL    HW133523   2.595   5.184   2.860  0.2781 -0.1171 -1.5371
10641SOL    HW233524   2.476   5.072   2.868  0.4226 -0.1801  0.3573
10642SOL     OW33525   0.945   3.040   4.399 -0.4997  0.0486  0.2909
10642SOL    HW133526   0.977   2.955   4.440 -0.6028 -0.4693 -0.6653
10642SOL    HW233527   0.969   3.117   4.458 -0.5796 -0.6555  1.2644
10643SOL     OW33528   1.116   5.581   2.198 -0.0795  0.4212 -0.1323
10643SOL    HW133529   1.120   5.648   2.124 -0.8649  1.7870  0.9974
10643SOL    HW233530   1.157   5.495   2.168  0.4446  1.2190 -1.8256
10644SOL     OW33531   0.762   5.961   5.834  0.6174 -0.2327  0.2538
10644SOL    HW133532   0.766   5.879   5.890 -3.3803 -0.7676  0.0538
10644SOL    HW233533   0.740   5.936   5.739 -0.2879  1.0012  0.1103
10645SOL     OW33534   5.575   3.563   0.997  0.7038 -0.2768  0.5676
10645SOL    HW133535   5.573   3.541   1.094  1.1850 -0.8357  0.4565
10645SOL    HW233536   5.650   3.513   0.953  1.1761  0.7869  0.1113
10646SOL     OW33537   1.157   3.778   6.251  0.3752 -0.5504 -0.0845
10646SOL    HW133538   1.083   3.841   6.228  2.0304  1.8139  0.7252
10646SOL    HW233539   1.241   3.806   6.206  1.0795 -2.5250 -0.1021
10647SOL     OW33540   6.298   4.604   5.412 -0.3728 -0.1456 -0.0806
10647SOL    HW133541   6.248   4.519   5.429 -1.2312  0.3217 -0.1811
10647SOL    HW233542   6.389   4.599   5.453  0.0379 -1.5632 -1.0899
10648SOL     OW33543   2.981   6.009   0.412 -0.5854 -0.7278  0.2243
10648SOL    HW133544   3.020   5.922   0.441  0.9852  0.1683  0.9275
10648SOL    HW233545   2.936   6.053   0.490 -3.1581 -1.7715 -0.5874
10649SOL     OW33546   6.260   0.065   6.938 -0.1777 -0.0082  0.4308
10649SOL    HW133547   6.349   0.043   6.898 -0.2480 -0.5448  0.5615
10649SOL    HW233548   6.223  -0.016   6.983 -0.9968  0.0464 -0.1195
   7.00000   7.00000   7.00000
