CNT in water
33548
    1C        C    1   2.240   4.533   3.298
    1C        C    2   2.114   4.521   3.223
    1C        C    3   1.992   4.521   3.300
    1C        C    4   2.745   4.533   3.300
    1C        C    5   2.619   4.517   3.229
    1C        C    6   2.493   4.532   3.300
    1C        C    7   2.368   4.462   3.093
    1C        C    8   2.367   4.517   3.228
    1C        C    9   2.243   4.435   3.025
    1C        C   10   2.115   4.476   3.084
    1C        C   11   2.001   4.401   2.874
    1C        C   12   2.001   4.479   2.992
    1C        C   13   3.249   4.534   3.300
    1C        C   14   3.123   4.519   3.229
    1C        C   15   2.997   4.534   3.300
    1C        C   16   2.872   4.462   3.094
    1C        C   17   2.871   4.517   3.229
    1C        C   18   2.746   4.429   3.029
    1C        C   19   2.620   4.461   3.094
    1C        C   20   2.495   4.354   2.904
    1C        C   21   2.494   4.431   3.028
    1C        C   22   2.369   4.312   2.844
    1C        C   23   2.243   4.355   2.902
    1C        C   24   2.115   4.214   2.742
    1C        C   25   2.118   4.329   2.831
    1C        C   26   1.994   4.139   2.717
    1C        C   27   3.752   4.534   3.300
    1C        C   28   3.627   4.519   3.229
    1C        C   29   3.501   4.534   3.300
    1C        C   30   3.375   4.463   3.094
    1C        C   31   3.375   4.518   3.229
    1C        C   32   3.249   4.431   3.028
    1C        C   33   3.123   4.463   3.094
    1C        C   34   2.998   4.355   2.904
    1C        C   35   2.998   4.432   3.028
    1C        C   36   2.872   4.312   2.845
    1C        C   37   2.746   4.352   2.905
    1C        C   38   2.620   4.213   2.737
    1C        C   39   2.620   4.312   2.844
    1C        C   40   2.494   4.160   2.688
    1C        C   41   2.368   4.213   2.738
    1C        C   42   2.240   4.042   2.601
    1C        C   43   2.241   4.161   2.687
    1C        C   44   2.113   3.974   2.571
    1C        C   45   1.994   4.025   2.635
    1C        C   46   4.256   4.532   3.300
    1C        C   47   4.130   4.519   3.228
    1C        C   48   4.004   4.534   3.300
    1C        C   49   3.878   4.463   3.094
    1C        C   50   3.878   4.518   3.229
    1C        C   51   3.752   4.431   3.028
    1C        C   52   3.627   4.463   3.094
    1C        C   53   3.501   4.355   2.904
    1C        C   54   3.501   4.433   3.027
    1C        C   55   3.375   4.312   2.845
    1C        C   56   3.249   4.353   2.905
    1C        C   57   3.124   4.213   2.738
    1C        C   58   3.124   4.313   2.844
    1C        C   59   2.998   4.159   2.689
    1C        C   60   2.872   4.212   2.739
    1C        C   61   2.746   4.040   2.604
    1C        C   62   2.746   4.160   2.687
    1C        C   63   2.620   3.977   2.569
    1C        C   64   2.494   4.040   2.606
    1C        C   65   2.368   3.842   2.515
    1C        C   66   2.367   3.978   2.566
    1C        C   67   2.242   3.773   2.493
    1C        C   68   2.114   3.842   2.508
    1C        C   69   1.999   3.639   2.419
    1C        C   70   2.000   3.778   2.444
    1C        C   71   4.759   4.536   3.299
    1C        C   72   4.633   4.517   3.228
    1C        C   73   4.508   4.530   3.301
    1C        C   74   4.382   4.462   3.094
    1C        C   75   4.382   4.516   3.229
    1C        C   76   4.256   4.431   3.028
    1C        C   77   4.130   4.463   3.094
    1C        C   78   4.004   4.355   2.904
    1C        C   79   4.004   4.433   3.027
    1C        C   80   3.878   4.312   2.845
    1C        C   81   3.753   4.353   2.905
    1C        C   82   3.627   4.213   2.738
    1C        C   83   3.627   4.313   2.844
    1C        C   84   3.501   4.158   2.689
    1C        C   85   3.375   4.212   2.739
    1C        C   86   3.249   4.039   2.606
    1C        C   87   3.249   4.160   2.688
    1C        C   88   3.124   3.976   2.570
    1C        C   89   2.998   4.039   2.607
    1C        C   90   2.872   3.842   2.513
    1C        C   91   2.872   3.977   2.568
    1C        C   92   2.746   3.772   2.492
    1C        C   93   2.620   3.841   2.516
    1C        C   94   2.494   3.629   2.467
    1C        C   95   2.494   3.772   2.492
    1C        C   96   2.368   3.556   2.459
    1C        C   97   2.242   3.628   2.468
    1C        C   98   2.114   3.414   2.465
    1C        C   99   2.117   3.559   2.440
    1C        C  100   1.993   3.345   2.502
    1C        C  101   5.004   4.573   3.299
    1C        C  102   4.888   4.463   3.096
    1C        C  103   4.886   4.532   3.225
    1C        C  104   4.761   4.431   3.029
    1C        C  105   4.634   4.461   3.094
    1C        C  106   4.508   4.354   2.904
    1C        C  107   4.508   4.432   3.027
    1C        C  108   4.382   4.311   2.846
    1C        C  109   4.256   4.353   2.905
    1C        C  110   4.130   4.212   2.739
    1C        C  111   4.130   4.312   2.844
    1C        C  112   4.004   4.158   2.690
    1C        C  113   3.878   4.211   2.740
    1C        C  114   3.753   4.039   2.606
    1C        C  115   3.753   4.159   2.688
    1C        C  116   3.627   3.975   2.570
    1C        C  117   3.501   4.038   2.608
    1C        C  118   3.375   3.841   2.513
    1C        C  119   3.375   3.976   2.568
    1C        C  120   3.249   3.772   2.491
    1C        C  121   3.123   3.841   2.515
    1C        C  122   2.997   3.629   2.464
    1C        C  123   2.997   3.772   2.490
    1C        C  124   2.871   3.556   2.458
    1C        C  125   2.746   3.629   2.468
    1C        C  126   2.619   3.411   2.461
    1C        C  127   2.620   3.556   2.458
    1C        C  128   2.493   3.338   2.468
    1C        C  129   2.367   3.411   2.463
    1C        C  130   2.240   3.195   2.497
    1C        C  131   2.240   3.339   2.467
    1C        C  132   2.112   3.127   2.527
    1C        C  133   1.993   3.208   2.531
    1C        C  134   5.009   4.332   2.922
    1C        C  135   5.008   4.403   3.043
    1C        C  136   4.888   4.303   2.849
    1C        C  137   4.761   4.352   2.904
    1C        C  138   4.634   4.210   2.740
    1C        C  139   4.634   4.311   2.845
    1C        C  140   4.508   4.155   2.692
    1C        C  141   4.382   4.209   2.741
    1C        C  142   4.256   4.037   2.607
    1C        C  143   4.256   4.158   2.690
    1C        C  144   4.130   3.974   2.571
    1C        C  145   4.004   4.037   2.608
    1C        C  146   3.878   3.840   2.514
    1C        C  147   3.878   3.975   2.569
    1C        C  148   3.752   3.771   2.492
    1C        C  149   3.627   3.840   2.516
    1C        C  150   3.501   3.628   2.464
    1C        C  151   3.501   3.772   2.490
    1C        C  152   3.375   3.556   2.457
    1C        C  153   3.249   3.628   2.466
    1C        C  154   3.123   3.410   2.460
    1C        C  155   3.123   3.556   2.455
    1C        C  156   2.997   3.338   2.468
    1C        C  157   2.871   3.411   2.462
    1C        C  158   2.745   3.196   2.500
    1C        C  159   2.745   3.338   2.467
    1C        C  160   2.619   3.127   2.523
    1C        C  161   2.493   3.197   2.502
    1C        C  162   2.367   2.997   2.587
    1C        C  163   2.366   3.126   2.521
    1C        C  164   2.241   2.934   2.624
    1C        C  165   2.113   2.992   2.583
    1C        C  166   1.998   2.790   2.676
    1C        C  167   1.999   2.901   2.588
    1C        C  168   5.005   4.177   2.659
    1C        C  169   4.887   4.215   2.732
    1C        C  170   4.759   4.039   2.604
    1C        C  171   4.759   4.159   2.687
    1C        C  172   4.634   3.974   2.570
    1C        C  173   4.508   4.035   2.610
    1C        C  174   4.382   3.840   2.514
    1C        C  175   4.382   3.974   2.570
    1C        C  176   4.256   3.770   2.492
    1C        C  177   4.130   3.839   2.516
    1C        C  178   4.004   3.628   2.464
    1C        C  179   4.004   3.771   2.490
    1C        C  180   3.878   3.555   2.457
    1C        C  181   3.752   3.627   2.466
    1C        C  182   3.626   3.410   2.460
    1C        C  183   3.626   3.555   2.455
    1C        C  184   3.500   3.337   2.468
    1C        C  185   3.375   3.410   2.462
    1C        C  186   3.249   3.195   2.501
    1C        C  187   3.249   3.337   2.466
    1C        C  188   3.123   3.126   2.524
    1C        C  189   2.997   3.196   2.503
    1C        C  190   2.871   2.995   2.587
    1C        C  191   2.871   3.126   2.522
    1C        C  192   2.745   2.933   2.625
    1C        C  193   2.619   2.997   2.589
    1C        C  194   2.493   2.819   2.714
    1C        C  195   2.493   2.934   2.624
    1C        C  196   2.367   2.765   2.763
    1C        C  197   2.241   2.819   2.715
    1C        C  198   2.113   2.676   2.874
    1C        C  199   2.116   2.753   2.749
    1C        C  200   1.992   2.660   2.952
    1C        C  201   5.004   4.067   2.571
    1C        C  202   4.888   3.842   2.515
    1C        C  203   4.886   3.983   2.553
    1C        C  204   4.761   3.771   2.492
    1C        C  205   4.634   3.839   2.516
    1C        C  206   4.508   3.627   2.465
    1C        C  207   4.508   3.770   2.491
    1C        C  208   4.382   3.555   2.458
    1C        C  209   4.256   3.627   2.466
    1C        C  210   4.130   3.409   2.461
    1C        C  211   4.130   3.555   2.456
    1C        C  212   4.004   3.337   2.470
    1C        C  213   3.878   3.409   2.463
    1C        C  214   3.752   3.195   2.502
    1C        C  215   3.752   3.336   2.467
    1C        C  216   3.626   3.126   2.525
    1C        C  217   3.500   3.196   2.504
    1C        C  218   3.374   2.994   2.587
    1C        C  219   3.374   3.125   2.523
    1C        C  220   3.248   2.932   2.624
    1C        C  221   3.123   2.996   2.589
    1C        C  222   2.996   2.816   2.712
    1C        C  223   2.997   2.931   2.623
    1C        C  224   2.870   2.763   2.762
    1C        C  225   2.745   2.819   2.715
    1C        C  226   2.618   2.669   2.873
    1C        C  227   2.619   2.763   2.762
    1C        C  228   2.492   2.626   2.932
    1C        C  229   2.366   2.671   2.874
    1C        C  230   2.238   2.554   3.059
    1C        C  231   2.239   2.627   2.932
    1C        C  232   2.111   2.532   3.130
    1C        C  233   1.992   2.591   3.074
    1C        C  234   5.009   3.625   2.497
    1C        C  235   5.008   3.762   2.525
    1C        C  236   4.888   3.552   2.467
    1C        C  237   4.761   3.626   2.466
    1C        C  238   4.633   3.409   2.464
    1C        C  239   4.634   3.554   2.457
    1C        C  240   4.507   3.337   2.473
    1C        C  241   4.381   3.409   2.465
    1C        C  242   4.255   3.195   2.504
    1C        C  243   4.256   3.336   2.470
    1C        C  244   4.129   3.125   2.526
    1C        C  245   4.004   3.195   2.505
    1C        C  246   3.878   2.994   2.587
    1C        C  247   3.878   3.125   2.524
    1C        C  248   3.752   2.931   2.624
    1C        C  249   3.626   2.995   2.589
    1C        C  250   3.500   2.815   2.712
    1C        C  251   3.500   2.930   2.623
    1C        C  252   3.374   2.761   2.761
    1C        C  253   3.248   2.817   2.714
    1C        C  254   3.122   2.666   2.871
    1C        C  255   3.122   2.761   2.760
    1C        C  256   2.996   2.624   2.931
    1C        C  257   2.870   2.669   2.873
    1C        C  258   2.744   2.554   3.059
    1C        C  259   2.744   2.624   2.931
    1C        C  260   2.618   2.525   3.126
    1C        C  261   2.492   2.557   3.060
    1C        C  262   2.366   2.486   3.266
    1C        C  263   2.365   2.524   3.125
    1C        C  264   2.240   2.471   3.338
    1C        C  265   2.112   2.482   3.268
    1C        C  266   1.998   2.409   3.478
    1C        C  267   1.999   2.422   3.337
    1C        C  268   5.004   3.326   2.432
    1C        C  269   4.886   3.406   2.454
    1C        C  270   4.759   3.193   2.501
    1C        C  271   4.759   3.336   2.467
    1C        C  272   4.633   3.125   2.527
    1C        C  273   4.507   3.195   2.508
    1C        C  274   4.381   2.993   2.588
    1C        C  275   4.381   3.125   2.526
    1C        C  276   4.255   2.930   2.624
    1C        C  277   4.129   2.994   2.589
    1C        C  278   4.003   2.814   2.712
    1C        C  279   4.003   2.929   2.623
    1C        C  280   3.877   2.761   2.762
    1C        C  281   3.751   2.816   2.714
    1C        C  282   3.625   2.666   2.872
    1C        C  283   3.626   2.760   2.760
    1C        C  284   3.500   2.624   2.931
    1C        C  285   3.374   2.668   2.873
    1C        C  286   3.248   2.554   3.059
    1C        C  287   3.248   2.622   2.930
    1C        C  288   3.122   2.525   3.126
    1C        C  289   2.996   2.556   3.060
    1C        C  290   2.870   2.483   3.265
    1C        C  291   2.870   2.523   3.125
    1C        C  292   2.744   2.470   3.337
    1C        C  293   2.618   2.486   3.266
    1C        C  294   2.493   2.459   3.482
    1C        C  295   2.492   2.469   3.337
    1C        C  296   2.367   2.461   3.555
    1C        C  297   2.241   2.460   3.484
    1C        C  298   2.114   2.459   3.702
    1C        C  299   2.115   2.435   3.557
    1C        C  300   1.996   2.453   3.784
    1C        C  301   5.003   3.187   2.455
    1C        C  302   4.887   2.994   2.586
    1C        C  303   4.885   3.118   2.508
    1C        C  304   4.760   2.930   2.624
    1C        C  305   4.634   2.994   2.590
    1C        C  306   4.507   2.815   2.714
    1C        C  307   4.508   2.929   2.624
    1C        C  308   4.381   2.761   2.763
    1C        C  309   4.255   2.816   2.714
    1C        C  310   4.129   2.666   2.873
    1C        C  311   4.129   2.759   2.761
    1C        C  312   4.003   2.624   2.932
    1C        C  313   3.877   2.668   2.874
    1C        C  314   3.751   2.554   3.060
    1C        C  315   3.751   2.622   2.931
    1C        C  316   3.625   2.525   3.127
    1C        C  317   3.499   2.556   3.060
    1C        C  318   3.374   2.483   3.266
    1C        C  319   3.374   2.524   3.126
    1C        C  320   3.248   2.469   3.337
    1C        C  321   3.122   2.486   3.266
    1C        C  322   2.996   2.458   3.482
    1C        C  323   2.996   2.468   3.337
    1C        C  324   2.870   2.459   3.555
    1C        C  325   2.744   2.460   3.482
    1C        C  326   2.619   2.479   3.699
    1C        C  327   2.619   2.458   3.555
    1C        C  328   2.493   2.496   3.770
    1C        C  329   2.367   2.482   3.699
    1C        C  330   2.241   2.536   3.910
    1C        C  331   2.241   2.487   3.771
    1C        C  332   2.114   2.552   3.981
    1C        C  333   1.997   2.491   3.919
    1C        C  334   5.009   2.835   2.735
    1C        C  335   5.007   2.947   2.651
    1C        C  336   4.887   2.765   2.771
    1C        C  337   4.760   2.815   2.715
    1C        C  338   4.633   2.668   2.875
    1C        C  339   4.634   2.760   2.762
    1C        C  340   4.507   2.626   2.935
    1C        C  341   4.381   2.669   2.876
    1C        C  342   4.255   2.554   3.061
    1C        C  343   4.255   2.624   2.933
    1C        C  344   4.129   2.525   3.127
    1C        C  345   4.003   2.556   3.061
    1C        C  346   3.877   2.483   3.266
    1C        C  347   3.877   2.523   3.126
    1C        C  348   3.751   2.469   3.338
    1C        C  349   3.625   2.485   3.267
    1C        C  350   3.499   2.457   3.483
    1C        C  351   3.499   2.467   3.337
    1C        C  352   3.373   2.458   3.556
    1C        C  353   3.248   2.460   3.483
    1C        C  354   3.122   2.477   3.700
    1C        C  355   3.122   2.457   3.556
    1C        C  356   2.996   2.493   3.771
    1C        C  357   2.870   2.480   3.699
    1C        C  358   2.744   2.541   3.909
    1C        C  359   2.744   2.493   3.771
    1C        C  360   2.618   2.571   3.975
    1C        C  361   2.492   2.544   3.907
    1C        C  362   2.365   2.647   4.098
    1C        C  363   2.367   2.568   3.976
    1C        C  364   2.238   2.689   4.156
    1C        C  365   2.112   2.644   4.095
    1C        C  366   1.990   2.810   4.235
    1C        C  367   1.992   2.715   4.132
    1C        C  368   5.004   2.591   2.917
    1C        C  369   4.886   2.659   2.872
    1C        C  370   4.758   2.550   3.060
    1C        C  371   4.758   2.621   2.932
    1C        C  372   4.632   2.523   3.128
    1C        C  373   4.506   2.557   3.063
    1C        C  374   4.381   2.483   3.267
    1C        C  375   4.381   2.524   3.128
    1C        C  376   4.254   2.468   3.339
    1C        C  377   4.129   2.484   3.267
    1C        C  378   4.002   2.456   3.483
    1C        C  379   4.003   2.466   3.338
    1C        C  380   3.877   2.457   3.556
    1C        C  381   3.751   2.459   3.483
    1C        C  382   3.625   2.476   3.701
    1C        C  383   3.625   2.456   3.556
    1C        C  384   3.499   2.492   3.772
    1C        C  385   3.373   2.479   3.700
    1C        C  386   3.247   2.540   3.910
    1C        C  387   3.247   2.491   3.772
    1C        C  388   3.121   2.570   3.976
    1C        C  389   2.996   2.542   3.908
    1C        C  390   2.870   2.645   4.101
    1C        C  391   2.870   2.569   3.976
    1C        C  392   2.743   2.689   4.159
    1C        C  393   2.618   2.648   4.099
    1C        C  394   2.491   2.791   4.263
    1C        C  395   2.491   2.689   4.159
    1C        C  396   2.364   2.846   4.311
    1C        C  397   2.238   2.792   4.261
    1C        C  398   2.110   2.968   4.393
    1C        C  399   2.110   2.854   4.301
    1C        C  400   1.990   3.030   4.443
    1C        C  401   5.003   2.514   3.036
    1C        C  402   4.887   2.482   3.265
    1C        C  403   4.885   2.506   3.120
    1C        C  404   4.759   2.467   3.338
    1C        C  405   4.633   2.484   3.268
    1C        C  406   4.507   2.456   3.484
    1C        C  407   4.507   2.466   3.339
    1C        C  408   4.380   2.458   3.557
    1C        C  409   4.254   2.458   3.484
    1C        C  410   4.128   2.476   3.701
    1C        C  411   4.128   2.455   3.557
    1C        C  412   4.002   2.492   3.772
    1C        C  413   3.877   2.478   3.701
    1C        C  414   3.751   2.539   3.910
    1C        C  415   3.751   2.490   3.773
    1C        C  416   3.625   2.570   3.976
    1C        C  417   3.499   2.542   3.909
    1C        C  418   3.373   2.645   4.101
    1C        C  419   3.373   2.568   3.977
    1C        C  420   3.247   2.688   4.160
    1C        C  421   3.121   2.647   4.100
    1C        C  422   2.995   2.788   4.266
    1C        C  423   2.995   2.687   4.161
    1C        C  424   2.869   2.843   4.314
    1C        C  425   2.743   2.790   4.264
    1C        C  426   2.617   2.965   4.394
    1C        C  427   2.617   2.844   4.313
    1C        C  428   2.491   3.029   4.429
    1C        C  429   2.365   2.967   4.392
    1C        C  430   2.239   3.163   4.491
    1C        C  431   2.239   3.029   4.430
    1C        C  432   2.113   3.232   4.522
    1C        C  433   1.991   3.157   4.501
    1C        C  434   5.008   2.487   3.483
    1C        C  435   5.006   2.501   3.343
    1C        C  436   4.887   2.466   3.559
    1C        C  437   4.759   2.457   3.485
    1C        C  438   4.632   2.477   3.701
    1C        C  439   4.633   2.456   3.557
    1C        C  440   4.506   2.495   3.772
    1C        C  441   4.380   2.480   3.700
    1C        C  442   4.254   2.540   3.910
    1C        C  443   4.254   2.491   3.773
    1C        C  444   4.128   2.570   3.977
    1C        C  445   4.002   2.541   3.909
    1C        C  446   3.876   2.644   4.101
    1C        C  447   3.876   2.568   3.977
    1C        C  448   3.751   2.688   4.160
    1C        C  449   3.625   2.647   4.100
    1C        C  450   3.499   2.788   4.266
    1C        C  451   3.499   2.687   4.161
    1C        C  452   3.373   2.843   4.314
    1C        C  453   3.247   2.790   4.265
    1C        C  454   3.121   2.963   4.397
    1C        C  455   3.121   2.842   4.316
    1C        C  456   2.995   3.027   4.433
    1C        C  457   2.869   2.964   4.395
    1C        C  458   2.744   3.162   4.487
    1C        C  459   2.743   3.027   4.432
    1C        C  460   2.618   3.232   4.508
    1C        C  461   2.492   3.164   4.484
    1C        C  462   2.366   3.376   4.534
    1C        C  463   2.366   3.232   4.511
    1C        C  464   2.241   3.448   4.544
    1C        C  465   2.113   3.376   4.547
    1C        C  466   1.998   3.592   4.590
    1C        C  467   1.996   3.451   4.584
    1C        C  468   5.003   2.456   3.787
    1C        C  469   4.885   2.469   3.705
    1C        C  470   4.758   2.537   3.912
    1C        C  471   4.758   2.488   3.774
    1C        C  472   4.632   2.569   3.977
    1C        C  473   4.506   2.543   3.909
    1C        C  474   4.380   2.645   4.102
    1C        C  475   4.380   2.569   3.977
    1C        C  476   4.254   2.687   4.161
    1C        C  477   4.128   2.646   4.101
    1C        C  478   4.002   2.788   4.266
    1C        C  479   4.002   2.686   4.161
    1C        C  480   3.876   2.843   4.314
    1C        C  481   3.751   2.789   4.265
    1C        C  482   3.625   2.962   4.398
    1C        C  483   3.625   2.842   4.316
    1C        C  484   3.499   3.026   4.433
    1C        C  485   3.373   2.964   4.396
    1C        C  486   3.247   3.161   4.489
    1C        C  487   3.247   3.026   4.435
    1C        C  488   3.122   3.231   4.511
    1C        C  489   2.996   3.162   4.487
    1C        C  490   2.870   3.374   4.537
    1C        C  491   2.870   3.231   4.511
    1C        C  492   2.744   3.447   4.543
    1C        C  493   2.618   3.375   4.533
    1C        C  494   2.493   3.594   4.541
    1C        C  495   2.493   3.448   4.543
    1C        C  496   2.367   3.667   4.535
    1C        C  497   2.241   3.594   4.542
    1C        C  498   2.113   3.804   4.496
    1C        C  499   2.115   3.669   4.553
    1C        C  500   1.994   3.863   4.442
    1C        C  501   5.002   2.494   3.923
    1C        C  502   4.886   2.643   4.100
    1C        C  503   4.884   2.552   3.985
    1C        C  504   4.759   2.687   4.161
    1C        C  505   4.632   2.646   4.101
    1C        C  506   4.506   2.787   4.267
    1C        C  507   4.506   2.687   4.162
    1C        C  508   4.380   2.842   4.314
    1C        C  509   4.254   2.789   4.265
    1C        C  510   4.128   2.963   4.397
    1C        C  511   4.128   2.841   4.316
    1C        C  512   4.002   3.026   4.433
    1C        C  513   3.877   2.964   4.396
    1C        C  514   3.751   3.160   4.490
    1C        C  515   3.751   3.025   4.435
    1C        C  516   3.625   3.230   4.512
    1C        C  517   3.499   3.161   4.488
    1C        C  518   3.374   3.374   4.538
    1C        C  519   3.373   3.230   4.513
    1C        C  520   3.248   3.446   4.545
    1C        C  521   3.122   3.374   4.536
    1C        C  522   2.997   3.593   4.542
    1C        C  523   2.996   3.447   4.546
    1C        C  524   2.871   3.665   4.533
    1C        C  525   2.745   3.593   4.539
    1C        C  526   2.619   3.808   4.501
    1C        C  527   2.619   3.666   4.535
    1C        C  528   2.493   3.877   4.478
    1C        C  529   2.367   3.808   4.500
    1C        C  530   2.240   4.011   4.417
    1C        C  531   2.240   3.877   4.478
    1C        C  532   2.113   4.070   4.372
    1C        C  533   1.993   3.991   4.385
    1C        C  534   5.007   2.808   4.243
    1C        C  535   5.006   2.714   4.139
    1C        C  536   4.886   2.849   4.310
    1C        C  537   4.759   2.788   4.267
    1C        C  538   4.632   2.962   4.397
    1C        C  539   4.633   2.841   4.316
    1C        C  540   4.506   3.027   4.431
    1C        C  541   4.380   2.964   4.394
    1C        C  542   4.254   3.161   4.489
    1C        C  543   4.254   3.026   4.433
    1C        C  544   4.129   3.230   4.511
    1C        C  545   4.003   3.161   4.488
    1C        C  546   3.877   3.373   4.539
    1C        C  547   3.877   3.230   4.513
    1C        C  548   3.751   3.446   4.545
    1C        C  549   3.625   3.374   4.536
    1C        C  550   3.500   3.592   4.542
    1C        C  551   3.500   3.446   4.547
    1C        C  552   3.374   3.665   4.533
    1C        C  553   3.248   3.592   4.540
    1C        C  554   3.123   3.807   4.501
    1C        C  555   3.123   3.665   4.535
    1C        C  556   2.997   3.876   4.478
    1C        C  557   2.871   3.807   4.499
    1C        C  558   2.745   4.009   4.416
    1C        C  559   2.745   3.878   4.480
    1C        C  560   2.619   4.071   4.379
    1C        C  561   2.493   4.008   4.415
    1C        C  562   2.368   4.185   4.288
    1C        C  563   2.367   4.073   4.380
    1C        C  564   2.242   4.239   4.239
    1C        C  565   2.114   4.190   4.289
    1C        C  566   2.001   4.376   4.171
    1C        C  567   1.999   4.274   4.268
    1C        C  568   5.002   3.011   4.471
    1C        C  569   4.885   2.959   4.406
    1C        C  570   4.757   3.158   4.495
    1C        C  571   4.757   3.023   4.438
    1C        C  572   4.632   3.229   4.513
    1C        C  573   4.506   3.162   4.486
    1C        C  574   4.381   3.373   4.538
    1C        C  575   4.380   3.230   4.512
    1C        C  576   4.255   3.446   4.545
    1C        C  577   4.129   3.374   4.537
    1C        C  578   4.003   3.592   4.543
    1C        C  579   4.003   3.446   4.547
    1C        C  580   3.877   3.664   4.534
    1C        C  581   3.752   3.592   4.540
    1C        C  582   3.626   3.806   4.500
    1C        C  583   3.626   3.665   4.535
    1C        C  584   3.500   3.875   4.476
    1C        C  585   3.374   3.806   4.498
    1C        C  586   3.249   4.008   4.415
    1C        C  587   3.249   3.877   4.478
    1C        C  588   3.123   4.071   4.378
    1C        C  589   2.997   4.007   4.413
    1C        C  590   2.872   4.186   4.289
    1C        C  591   2.871   4.072   4.380
    1C        C  592   2.746   4.238   4.238
    1C        C  593   2.620   4.184   4.287
    1C        C  594   2.494   4.334   4.129
    1C        C  595   2.494   4.239   4.239
    1C        C  596   2.369   4.380   4.071
    1C        C  597   2.243   4.338   4.131
    1C        C  598   2.114   4.452   3.949
    1C        C  599   2.118   4.401   4.087
    1C        C  600   1.993   4.459   3.873
    1C        C  601   5.002   3.136   4.536
    1C        C  602   4.887   3.368   4.542
    1C        C  603   4.884   3.222   4.534
    1C        C  604   4.760   3.444   4.546
    1C        C  605   4.633   3.373   4.536
    1C        C  606   4.508   3.591   4.540
    1C        C  607   4.507   3.446   4.546
    1C        C  608   4.382   3.664   4.532
    1C        C  609   4.255   3.591   4.540
    1C        C  610   4.130   3.806   4.500
    1C        C  611   4.129   3.665   4.535
    1C        C  612   4.004   3.875   4.476
    1C        C  613   3.878   3.806   4.498
    1C        C  614   3.752   4.007   4.414
    1C        C  615   3.752   3.876   4.478
    1C        C  616   3.626   4.070   4.377
    1C        C  617   3.500   4.006   4.412
    1C        C  618   3.375   4.186   4.289
    1C        C  619   3.375   4.071   4.378
    1C        C  620   3.249   4.240   4.239
    1C        C  621   3.123   4.185   4.287
    1C        C  622   2.997   4.334   4.128
    1C        C  623   2.997   4.241   4.240
    1C        C  624   2.872   4.377   4.069
    1C        C  625   2.746   4.332   4.126
    1C        C  626   2.620   4.448   3.942
    1C        C  627   2.620   4.378   4.070
    1C        C  628   2.493   4.478   3.876
    1C        C  629   2.368   4.448   3.943
    1C        C  630   2.240   4.519   3.736
    1C        C  631   2.241   4.481   3.879
    1C        C  632   2.112   4.525   3.664
    1C        C  633   1.991   4.501   3.740
    1C        C  634   5.009   3.583   4.512
    1C        C  635   5.007   3.443   4.515
    1C        C  636   4.888   3.662   4.521
    1C        C  637   4.760   3.591   4.538
    1C        C  638   4.634   3.805   4.497
    1C        C  639   4.634   3.664   4.533
    1C        C  640   4.508   3.874   4.474
    1C        C  641   4.382   3.805   4.496
    1C        C  642   4.255   4.006   4.413
    1C        C  643   4.256   3.875   4.477
    1C        C  644   4.130   4.069   4.376
    1C        C  645   4.004   4.006   4.412
    1C        C  646   3.878   4.185   4.288
    1C        C  647   3.878   4.071   4.378
    1C        C  648   3.752   4.239   4.238
    1C        C  649   3.626   4.184   4.286
    1C        C  650   3.501   4.335   4.129
    1C        C  651   3.501   4.241   4.240
    1C        C  652   3.375   4.377   4.069
    1C        C  653   3.249   4.333   4.127
    1C        C  654   3.123   4.450   3.943
    1C        C  655   3.123   4.379   4.070
    1C        C  656   2.997   4.479   3.876
    1C        C  657   2.871   4.447   3.941
    1C        C  658   2.745   4.520   3.736
    1C        C  659   2.745   4.480   3.876
    1C        C  660   2.619   4.532   3.664
    1C        C  661   2.492   4.517   3.735
    1C        C  662   2.366   4.538   3.519
    1C        C  663   2.366   4.533   3.664
    1C        C  664   2.240   4.534   3.446
    1C        C  665   2.112   4.530   3.518
    1C        C  666   1.991   4.529   3.440
    1C        C  667   5.009   3.884   4.484
    1C        C  668   4.888   3.806   4.496
    1C        C  669   4.759   4.009   4.415
    1C        C  670   4.760   3.876   4.476
    1C        C  671   4.633   4.069   4.375
    1C        C  672   4.507   4.005   4.410
    1C        C  673   4.381   4.184   4.286
    1C        C  674   4.381   4.069   4.376
    1C        C  675   4.255   4.238   4.237
    1C        C  676   4.130   4.183   4.285
    1C        C  677   4.004   4.334   4.128
    1C        C  678   4.004   4.240   4.239
    1C        C  679   3.878   4.377   4.069
    1C        C  680   3.752   4.333   4.127
    1C        C  681   3.626   4.450   3.943
    1C        C  682   3.626   4.379   4.070
    1C        C  683   3.501   4.479   3.876
    1C        C  684   3.375   4.448   3.942
    1C        C  685   3.249   4.522   3.736
    1C        C  686   3.249   4.481   3.876
    1C        C  687   3.123   4.534   3.664
    1C        C  688   2.997   4.519   3.736
    1C        C  689   2.871   4.540   3.519
    1C        C  690   2.871   4.536   3.665
    1C        C  691   2.745   4.535   3.446
    1C        C  692   2.619   4.535   3.519
    1C        C  693   2.492   4.535   3.446
    1C        C  694   5.008   4.013   4.428
    1C        C  695   4.886   4.193   4.295
    1C        C  696   4.886   4.078   4.386
    1C        C  697   4.759   4.239   4.238
    1C        C  698   4.633   4.182   4.283
    1C        C  699   4.507   4.334   4.127
    1C        C  700   4.507   4.238   4.237
    1C        C  701   4.381   4.378   4.069
    1C        C  702   4.255   4.333   4.126
    1C        C  703   4.130   4.451   3.943
    1C        C  704   4.130   4.379   4.070
    1C        C  705   4.004   4.481   3.876
    1C        C  706   3.878   4.448   3.942
    1C        C  707   3.752   4.522   3.736
    1C        C  708   3.752   4.481   3.876
    1C        C  709   3.626   4.534   3.664
    1C        C  710   3.501   4.519   3.736
    1C        C  711   3.375   4.540   3.519
    1C        C  712   3.375   4.536   3.665
    1C        C  713   3.249   4.536   3.446
    1C        C  714   3.123   4.537   3.519
    1C        C  715   2.997   4.537   3.446
    1C        C  716   5.003   4.369   4.162
    1C        C  717   5.004   4.270   4.263
    1C        C  718   4.885   4.395   4.082
    1C        C  719   4.759   4.337   4.130
    1C        C  720   4.634   4.450   3.943
    1C        C  721   4.633   4.381   4.071
    1C        C  722   4.508   4.480   3.876
    1C        C  723   4.382   4.449   3.942
    1C        C  724   4.256   4.522   3.737
    1C        C  725   4.256   4.483   3.877
    1C        C  726   4.130   4.536   3.665
    1C        C  727   4.004   4.521   3.736
    1C        C  728   3.878   4.541   3.519
    1C        C  729   3.878   4.537   3.665
    1C        C  730   3.752   4.536   3.446
    1C        C  731   3.627   4.537   3.519
    1C        C  732   3.501   4.537   3.446
    1C        C  733   5.007   4.439   3.863
    1C        C  734   4.887   4.442   3.943
    1C        C  735   4.761   4.521   3.736
    1C        C  736   4.761   4.479   3.877
    1C        C  737   4.635   4.533   3.664
    1C        C  738   4.508   4.518   3.736
    1C        C  739   4.382   4.534   3.519
    1C        C  740   4.382   4.533   3.664
    1C        C  741   4.256   4.534   3.446
    1C        C  742   4.130   4.538   3.519
    1C        C  743   4.004   4.538   3.446
    1C        C  744   5.008   4.482   3.730
    1C        C  745   4.887   4.544   3.517
    1C        C  746   4.889   4.527   3.662
    1C        C  747   4.760   4.535   3.446
    1C        C  748   4.634   4.536   3.519
    1C        C  749   4.508   4.530   3.446
    1C        C  750   5.004   4.580   3.440
    1C        O  751   5.113   2.451   3.995
    1C        H  752   5.181   2.409   3.934
    1C        O  753   5.113   3.160   4.616
    1C        H  754   5.179   3.087   4.606
    1C        O  755   5.114   2.431   3.052
    1C        H  756   5.182   2.449   2.981
    1C        O  757   5.114   4.452   4.163
    1C        H  758   5.182   4.421   4.229
    1C        O  759   5.113   4.635   3.239
    1C        H  760   5.184   4.655   3.307
    1C        O  761   5.117   3.120   2.413
    1C        H  762   5.184   3.185   2.374
    1C        O  763   5.115   4.060   2.487
    1C        H  764   5.183   4.129   2.512
    1C        O  765   1.881   2.460   3.991
    1C        H  766   1.817   2.409   3.933
    1C        O  767   1.880   2.384   3.274
    1C        H  768   1.821   2.334   3.339
    1C        O  769   1.882   3.650   4.641
    1C        H  770   1.815   3.582   4.670
    1C        O  771   1.881   2.920   2.516
    1C        H  772   1.819   2.841   2.525
    1C        O  773   1.882   3.844   2.411
    1C        H  774   1.820   3.785   2.357
    1C        O  775   1.884   4.550   3.015
    1C        H  776   1.823   4.548   2.935
    1C        O  777   1.885   4.453   4.164
    1C        H  778   1.819   4.426   4.235
    1C        H  779   5.103   2.691   4.098
    1C        H  780   5.103   2.854   4.263
    1C        H  781   5.088   2.948   4.485
    1C        H  782   5.104   3.396   4.506
    1C        H  783   5.108   3.625   4.514
    1C        H  784   5.089   2.404   3.749
    1C        H  785   5.103   2.503   3.531
    1C        H  786   5.104   2.515   3.299
    1C        H  787   5.088   2.579   2.851
    1C        H  788   5.103   2.813   2.781
    1C        H  789   5.103   2.995   2.638
    1C        H  790   5.090   3.369   2.384
    1C        H  791   5.105   3.576   2.507
    1C        H  792   5.105   3.805   2.545
    1C        H  793   5.090   4.243   2.657
    1C        H  794   5.105   4.289   2.894
    1C        H  795   5.105   4.416   3.088
    1C        H  796   5.088   4.626   3.489
    1C        H  797   5.105   4.482   3.682
    1C        H  798   5.104   4.420   3.905
    1C        H  799   5.088   4.270   4.329
    1C        H  800   5.106   4.050   4.399
    1C        H  801   5.102   3.854   4.529
    1C        H  802   1.918   3.403   4.641
    1C        H  803   1.893   3.200   4.518
    1C        H  804   1.900   2.972   4.462
    1C        H  805   1.891   2.831   4.272
    1C        H  806   1.895   2.691   4.091
    1C        H  807   1.903   2.413   3.746
    1C        H  808   1.900   2.406   3.524
    1C        H  809   1.895   2.579   3.119
    1C        H  810   1.896   2.690   2.915
    1C        H  811   1.915   2.722   2.669
    1C        H  812   1.895   3.167   2.549
    1C        H  813   1.896   3.393   2.499
    1C        H  814   1.916   3.599   2.363
    1C        H  815   1.896   3.983   2.617
    1C        H  816   1.918   4.415   2.806
    1C        H  817   1.897   4.174   2.749
    1C        H  818   1.896   4.498   3.256
    1C        H  819   1.895   4.560   3.480
    1C        H  820   1.897   4.544   3.711
    1C        H  821   1.896   4.436   3.915
    1C        H  822   1.925   4.282   4.345
    1C        H  823   1.896   4.030   4.359
    1C        H  824   1.896   3.820   4.456
    2V3OU   H29  825   4.764   4.655   0.063
    2V3OU   C27  826   4.729   4.570   0.127
    2V3OU   H27  827   4.634   4.593   0.182
    2V3OU   H28  828   4.726   4.473   0.072
    2V3OU   O11  829   4.831   4.556   0.228
    2V3OU   C15  830   4.825   4.466   0.333
    2V3OU   C13  831   4.932   4.468   0.428
    2V3OU   C14  832   4.934   4.374   0.534
    2V3OU   C16  833   4.831   4.280   0.545
    2V3OU    H6  834   4.833   4.207   0.628
    2V3OU   C12  835   5.048   4.364   0.631
    2V3OU    O2  836   5.049   4.289   0.732
    2V3OU   C10  837   5.171   4.436   0.595
    2V3OU    C8  838   5.289   4.407   0.660
    2V3OU   O10  839   5.295   4.319   0.763
    2V3OU   H26  840   5.196   4.290   0.773
    2V3OU    C6  841   5.413   4.469   0.619
    2V3OU    C5  842   5.411   4.563   0.515
    2V3OU    C4  843   5.542   4.423   0.679
    2V3OU    H4  844   5.532   4.421   0.792
    2V3OU    H5  845   5.558   4.316   0.647
    2V3OU    C2  846   5.666   4.505   0.645
    2V3OU    O6  847   5.665   4.624   0.722
    2V3OU   H21  848   5.614   4.688   0.659
    2V3OU    C3  849   5.659   4.556   0.502
    2V3OU    H2  850   5.746   4.623   0.482
    2V3OU    H3  851   5.666   4.468   0.433
    2V3OU   C25  852   5.793   4.418   0.670
    2V3OU    O7  853   5.841   4.342   0.584
    2V3OU   C26  854   5.859   4.428   0.808
    2V3OU   H22  855   5.928   4.516   0.805
    2V3OU   H23  856   5.916   4.334   0.830
    2V3OU    O8  857   5.767   4.440   0.916
    2V3OU   H24  858   5.717   4.525   0.905
    2V3OU    C1  859   5.534   4.633   0.468
    2V3OU    H1  860   5.531   4.650   0.356
    2V3OU    O3  861   5.545   4.756   0.541
    2V3OU   C19  862   5.531   4.873   0.461
    2V3OU    H9  863   5.450   4.865   0.382
    2V3OU    O4  864   5.651   4.880   0.387
    2V3OU   C20  865   5.772   4.923   0.451
    2V3OU   H10  866   5.801   4.842   0.523
    2V3OU   C24  867   5.507   4.992   0.553
    2V3OU   H16  868   5.422   4.968   0.621
    2V3OU   H17  869   5.479   5.079   0.488
    2V3OU   C23  870   5.633   5.027   0.630
    2V3OU   H15  871   5.661   4.936   0.693
    2V3OU    N1  872   5.598   5.139   0.713
    2V3OU   H19  873   5.650   5.131   0.799
    2V3OU   H20  874   5.501   5.132   0.733
    2V3OU   C21  875   5.757   5.053   0.533
    2V3OU   H11  876   5.850   5.060   0.598
    2V3OU    O5  877   5.746   5.179   0.455
    2V3OU   H18  878   5.697   5.244   0.510
    2V3OU   C22  879   5.876   4.932   0.341
    2V3OU   H12  880   5.847   5.012   0.268
    2V3OU   H13  881   5.883   4.835   0.287
    2V3OU   H14  882   5.976   4.957   0.385
    2V3OU   C11  883   5.047   4.560   0.412
    2V3OU    O1  884   5.050   4.656   0.332
    2V3OU    C9  885   5.171   4.532   0.487
    2V3OU    C7  886   5.288   4.593   0.451
    2V3OU    O9  887   5.292   4.688   0.352
    2V3OU   H25  888   5.189   4.692   0.327
    2V3OU   C17  889   4.725   4.368   0.349
    2V3OU    H7  890   4.644   4.364   0.276
    2V3OU   C18  891   4.728   4.276   0.453
    2V3OU    H8  892   4.650   4.199   0.461
    3V3OU   H29  893   6.260   5.589   0.424
    3V3OU   C27  894   6.201   5.675   0.382
    3V3OU   H27  895   6.108   5.642   0.329
    3V3OU   H28  896   6.184   5.756   0.457
    3V3OU   O11  897   6.287   5.731   0.281
    3V3OU   C15  898   6.251   5.837   0.199
    3V3OU   C13  899   6.345   5.879   0.100
    3V3OU   C14  900   6.316   5.990   0.017
    3V3OU   C16  901   6.195   6.058   0.032
    3V3OU    H6  902   6.172   6.144   6.967
    3V3OU   C12  903   6.416   6.045   6.918
    3V3OU    O2  904   6.389   6.137   6.836
    3V3OU   C10  905   6.554   5.998   6.931
    3V3OU    C8  906   6.656   6.067   6.868
    3V3OU   O10  907   6.631   6.172   6.786
    3V3OU   H26  908   6.528   6.178   6.788
    3V3OU    C6  909   6.794   6.028   6.887
    3V3OU    C5  910   6.822   5.918   6.969
    3V3OU    C4  911   6.903   6.114   6.832
    3V3OU    H4  912   6.881   6.136   6.723
    3V3OU    H5  913   6.899   6.213   6.886
    3V3OU    C2  914   0.045   6.058   6.841
    3V3OU    O6  915   0.062   5.960   6.740
    3V3OU   H21  916   0.032   5.875   6.791
    3V3OU    C3  917   0.063   5.980   6.971
    3V3OU    H2  918   0.164   5.933   6.971
    3V3OU    H3  919   0.057   6.052   0.056
    3V3OU   C25  920   0.146   6.176   6.829
    3V3OU    O7  921   0.185   6.242   6.927
    3V3OU   C26  922   0.198   6.209   6.689
    3V3OU   H22  923   0.285   6.142   6.669
    3V3OU   H23  924   0.231   6.316   6.685
    3V3OU    O8  925   0.101   6.198   6.585
    3V3OU   H24  926   0.072   6.102   6.581
    3V3OU    C1  927   6.962   5.871   6.993
    3V3OU    H1  928   6.974   5.832   0.099
    3V3OU    O3  929   6.992   5.771   6.895
    3V3OU   C19  930   0.012   5.640   6.949
    3V3OU    H9  931   6.939   5.613   0.032
    3V3OU    O4  932   0.137   5.647   0.013
    3V3OU   C20  933   0.258   5.647   6.935
    3V3OU   H10  934   0.261   5.746   6.880
    3V3OU   C24  935   0.006   5.539   6.835
    3V3OU   H16  936   6.911   5.555   6.778
    3V3OU   H17  937   0.004   5.437   6.881
    3V3OU   C23  938   0.128   5.551   6.746
    3V3OU   H15  939   0.128   5.656   6.702
    3V3OU    N1  940   0.110   5.452   6.642
    3V3OU   H19  941   0.149   5.489   6.558
    3V3OU   H20  942   0.012   5.440   6.630
    3V3OU   C21  943   0.264   5.535   6.828
    3V3OU   H11  944   0.348   5.563   6.759
    3V3OU    O5  945   0.288   5.398   6.879
    3V3OU   H18  946   0.250   5.335   6.813
    3V3OU   C22  947   0.372   5.641   0.035
    3V3OU   H12  948   0.369   5.544   0.091
    3V3OU   H13  949   0.363   5.725   0.108
    3V3OU   H14  950   0.470   5.649   6.981
    3V3OU   C11  951   6.479   5.815   0.090
    3V3OU    O1  952   6.511   5.708   0.146
    3V3OU    C9  953   6.585   5.886   0.016
    3V3OU    C7  954   6.716   5.848   0.032
    3V3OU    O9  955   6.751   5.739   0.107
    3V3OU   H25  956   6.654   5.706   0.137
    3V3OU   C17  957   6.131   5.910   0.210
    3V3OU    H7  958   6.059   5.881   0.286
    3V3OU   C18  959   6.103   6.019   0.128
    3V3OU    H8  960   6.010   6.076   0.141
    4V3OU   H29  961   4.043   5.349   3.242
    4V3OU   C27  962   4.108   5.260   3.225
    4V3OU   H27  963   4.051   5.172   3.185
    4V3OU   H28  964   4.200   5.284   3.166
    4V3OU   O11  965   4.153   5.222   3.356
    4V3OU   C15  966   4.233   5.111   3.383
    4V3OU   C13  967   4.267   5.086   3.518
    4V3OU   C14  968   4.354   4.978   3.550
    4V3OU   C16  969   4.405   4.898   3.448
    4V3OU    H6  970   4.477   4.818   3.473
    4V3OU   C12  971   4.402   4.952   3.691
    4V3OU    O2  972   4.470   4.852   3.724
    4V3OU   C10  973   4.381   5.060   3.788
    4V3OU    C8  974   4.451   5.058   3.908
    4V3OU   O10  975   4.531   4.955   3.943
    4V3OU   H26  976   4.523   4.891   3.862
    4V3OU    C6  977   4.439   5.169   4.001
    4V3OU    C5  978   4.354   5.275   3.969
    4V3OU    C4  979   4.528   5.173   4.121
    4V3OU    H4  980   4.524   5.074   4.174
    4V3OU    H5  981   4.634   5.186   4.084
    4V3OU    C2  982   4.497   5.283   4.223
    4V3OU    O6  983   4.384   5.243   4.300
    4V3OU   H21  984   4.308   5.284   4.244
    4V3OU    C3  985   4.451   5.410   4.154
    4V3OU    H2  986   4.421   5.485   4.231
    4V3OU    H3  987   4.537   5.451   4.096
    4V3OU   C25  988   4.624   5.306   4.311
    4V3OU    O7  989   4.714   5.387   4.279
    4V3OU   C26  990   4.636   5.226   4.441
    4V3OU   H22  991   4.580   5.283   4.520
    4V3OU   H23  992   4.744   5.217   4.470
    4V3OU    O8  993   4.589   5.092   4.432
    4V3OU   H24  994   4.492   5.095   4.411
    4V3OU    C1  995   4.334   5.392   4.061
    4V3OU    H1  996   4.320   5.488   4.001
    4V3OU    O3  997   4.222   5.363   4.145
    4V3OU   C19  998   4.110   5.449   4.126
    4V3OU    H9  999   4.089   5.473   4.016
    4V3OU    O4 1000   4.149   5.573   4.181
    4V3OU   C20 1001   4.152   5.589   4.324
    4V3OU   H10 1002   4.236   5.526   4.363
    4V3OU   C24 1003   3.989   5.386   4.192
    4V3OU   H16 1004   3.978   5.281   4.156
    4V3OU   H17 1005   3.899   5.446   4.160
    4V3OU   C23 1006   4.000   5.392   4.343
    4V3OU   H15 1007   4.094   5.334   4.372
    4V3OU    N1 1008   3.881   5.329   4.394
    4V3OU   H19 1009   3.906   5.282   4.479
    4V3OU   H20 1010   3.853   5.261   4.327
    4V3OU   C21 1011   4.023   5.542   4.395
    4V3OU   H11 1012   4.048   5.535   4.505
    4V3OU    O5 1013   3.904   5.629   4.379
    4V3OU   H18 1014   3.824   5.573   4.393
    4V3OU   C22 1015   4.183   5.736   4.348
    4V3OU   H12 1016   4.101   5.800   4.309
    4V3OU   H13 1017   4.278   5.764   4.296
    4V3OU   H14 1018   4.195   5.754   4.458
    4V3OU   C11 1019   4.225   5.178   3.626
    4V3OU    O1 1020   4.138   5.266   3.615
    4V3OU    C9 1021   4.295   5.171   3.757
    4V3OU    C7 1022   4.282   5.274   3.847
    4V3OU    O9 1023   4.197   5.379   3.824
    4V3OU   H25 1024   4.156   5.349   3.731
    4V3OU   C17 1025   4.288   5.027   3.283
    4V3OU    H7 1026   4.266   5.047   3.179
    4V3OU   C18 1027   4.373   4.922   3.316
    4V3OU    H8 1028   4.415   4.857   3.237
    5V3OU   H29 1029   5.160   4.345   6.787
    5V3OU   C27 1030   5.089   4.292   6.718
    5V3OU   H27 1031   5.090   4.181   6.733
    5V3OU   H28 1032   4.987   4.337   6.718
    5V3OU   O11 1033   5.143   4.315   6.587
    5V3OU   C15 1034   5.090   4.263   6.470
    5V3OU   C13 1035   5.158   4.292   6.348
    5V3OU   C14 1036   5.104   4.245   6.225
    5V3OU   C16 1037   4.986   4.171   6.224
    5V3OU    H6 1038   4.945   4.135   6.129
    5V3OU   C12 1039   5.165   4.281   6.092
    5V3OU    O2 1040   5.126   4.233   5.982
    5V3OU   C10 1041   5.264   4.389   6.092
    5V3OU    C8 1042   5.300   4.449   5.973
    5V3OU   O10 1043   5.253   4.406   5.853
    5V3OU   H26 1044   5.193   4.326   5.881
    5V3OU    C6 1045   5.390   4.563   5.972
    5V3OU    C5 1046   5.442   4.608   6.094
    5V3OU    C4 1047   5.413   4.637   5.844
    5V3OU    H4 1048   5.438   4.564   5.762
    5V3OU    H5 1049   5.315   4.685   5.815
    5V3OU    C2 1050   5.522   4.744   5.847
    5V3OU    O6 1051   5.648   4.680   5.841
    5V3OU   H21 1052   5.669   4.667   5.941
    5V3OU    C3 1053   5.524   4.814   5.982
    5V3OU    H2 1054   5.610   4.886   5.984
    5V3OU    H3 1055   5.430   4.873   5.992
    5V3OU   C25 1056   5.498   4.843   5.729
    5V3OU    O7 1057   5.425   4.943   5.738
    5V3OU   C26 1058   5.570   4.814   5.597
    5V3OU   H22 1059   5.672   4.859   5.604
    5V3OU   H23 1060   5.514   4.859   5.512
    5V3OU    O8 1061   5.579   4.675   5.564
    5V3OU   H24 1062   5.631   4.629   5.636
    5V3OU    C1 1063   5.538   4.723   6.101
    5V3OU    H1 1064   5.520   4.784   6.195
    5V3OU    O3 1065   5.670   4.671   6.094
    5V3OU   C19 1066   5.747   4.690   6.213
    5V3OU    H9 1067   5.688   4.673   6.309
    5V3OU    O4 1068   5.777   4.827   6.215
    5V3OU   C20 1069   5.878   4.880   6.127
    5V3OU   H10 1070   5.837   4.873   6.022
    5V3OU   C24 1071   5.869   4.600   6.207
    5V3OU   H16 1072   5.836   4.495   6.185
    5V3OU   H17 1073   5.918   4.603   6.308
    5V3OU   C23 1074   5.968   4.649   6.103
    5V3OU   H15 1075   5.916   4.647   6.002
    5V3OU    N1 1076   6.078   4.556   6.106
    5V3OU   H19 1077   6.115   4.547   6.013
    5V3OU   H20 1078   6.042   4.468   6.135
    5V3OU   C21 1079   6.011   4.801   6.129
    5V3OU   H11 1080   6.069   4.836   6.039
    5V3OU    O5 1081   6.095   4.820   6.250
    5V3OU   H18 1082   6.152   4.739   6.259
    5V3OU   C22 1083   5.894   5.026   6.165
    5V3OU   H12 1084   5.933   5.035   6.269
    5V3OU   H13 1085   5.795   5.078   6.160
    5V3OU   H14 1086   5.965   5.076   6.094
    5V3OU   C11 1087   5.277   4.379   6.345
    5V3OU    O1 1088   5.342   4.414   6.446
    5V3OU    C9 1089   5.318   4.438   6.216
    5V3OU    C7 1090   5.406   4.544   6.215
    5V3OU    O9 1091   5.465   4.590   6.329
    5V3OU   H25 1092   5.423   4.523   6.399
    5V3OU   C17 1093   4.970   4.189   6.463
    5V3OU    H7 1094   4.916   4.168   6.555
    5V3OU   C18 1095   4.919   4.143   6.342
    5V3OU    H8 1096   4.823   4.088   6.339
    6V3OU   H29 1097   6.775   2.675   1.885
    6V3OU   C27 1098   6.856   2.634   1.949
    6V3OU   H27 1099   6.951   2.694   1.944
    6V3OU   H28 1100   6.822   2.613   2.054
    6V3OU   O11 1101   6.887   2.506   1.891
    6V3OU   C15 1102   6.986   2.420   1.937
    6V3OU   C13 1103   0.006   2.299   1.866
    6V3OU   C14 1104   0.104   2.206   1.911
    6V3OU   C16 1105   0.179   2.235   2.025
    6V3OU    H6 1106   0.255   2.163   2.060
    6V3OU   C12 1107   0.122   2.071   1.848
    6V3OU    O2 1108   0.214   1.991   1.879
    6V3OU   C10 1109   0.016   2.026   1.756
    6V3OU    C8 1110   0.009   1.893   1.719
    6V3OU   O10 1111   0.102   1.803   1.758
    6V3OU   H26 1112   0.167   1.860   1.814
    6V3OU    C6 1113   6.900   1.846   1.637
    6V3OU    C5 1114   6.804   1.938   1.592
    6V3OU    C4 1115   6.884   1.699   1.613
    6V3OU    H4 1116   6.983   1.656   1.579
    6V3OU    H5 1117   6.860   1.651   1.712
    6V3OU    C2 1118   6.778   1.658   1.511
    6V3OU    O6 1119   6.829   1.681   1.380
    6V3OU   H21 1120   6.798   1.778   1.363
    6V3OU    C3 1121   6.658   1.751   1.518
    6V3OU    H2 1122   6.586   1.725   1.437
    6V3OU    H3 1123   6.607   1.735   1.617
    6V3OU   C25 1124   6.739   1.509   1.535
    6V3OU    O7 1125   6.651   1.475   1.616
    6V3OU   C26 1126   6.816   1.403   1.457
    6V3OU   H22 1127   6.766   1.392   1.358
    6V3OU   H23 1128   6.814   1.305   1.512
    6V3OU    O8 1129   6.955   1.431   1.441
    6V3OU   H24 1130   6.963   1.514   1.386
    6V3OU    C1 1131   6.690   1.898   1.504
    6V3OU    H1 1132   6.596   1.958   1.530
    6V3OU    O3 1133   6.731   1.915   1.368
    6V3OU   C19 1134   6.658   2.016   1.298
    6V3OU    H9 1135   6.638   2.109   1.360
    6V3OU    O4 1136   6.530   1.960   1.277
    6V3OU   C20 1137   6.511   1.860   1.176
    6V3OU   H10 1138   6.565   1.767   1.212
    6V3OU   C24 1139   6.733   2.049   1.170
    6V3OU   H16 1140   6.840   2.073   1.196
    6V3OU   H17 1141   6.685   2.140   1.126
    6V3OU   C23 1142   6.724   1.935   1.070
    6V3OU   H15 1143   6.771   1.844   1.119
    6V3OU    N1 1144   6.799   1.978   0.955
    6V3OU   H19 1145   6.843   1.897   0.915
    6V3OU   H20 1146   6.871   2.040   0.987
    6V3OU   C21 1147   6.572   1.897   1.039
    6V3OU   H11 1148   6.574   1.801   0.978
    6V3OU    O5 1149   6.499   2.000   0.961
    6V3OU   H18 1150   6.563   2.041   0.898
    6V3OU   C22 1151   6.362   1.833   1.171
    6V3OU   H12 1152   6.308   1.924   1.137
    6V3OU   H13 1153   6.325   1.805   1.273
    6V3OU   H14 1154   6.341   1.749   1.100
    6V3OU   C11 1155   6.919   2.261   1.753
    6V3OU    O1 1156   6.841   2.339   1.694
    6V3OU    C9 1157   6.917   2.119   1.710
    6V3OU    C7 1158   6.815   2.075   1.629
    6V3OU    O9 1159   6.720   2.159   1.579
    6V3OU   H25 1160   6.755   2.251   1.618
    6V3OU   C17 1161   0.065   2.444   2.052
    6V3OU    H7 1162   0.049   2.535   2.109
    6V3OU   C18 1163   0.160   2.353   2.095
    6V3OU    H8 1164   0.218   2.372   2.187
    7V3OU   H29 1165   3.844   1.168   3.756
    7V3OU   C27 1166   3.949   1.190   3.788
    7V3OU   H27 1167   4.010   1.237   3.707
    7V3OU   H28 1168   3.953   1.246   3.886
    7V3OU   O11 1169   4.007   1.061   3.813
    7V3OU   C15 1170   4.139   1.041   3.851
    7V3OU   C13 1171   4.183   0.907   3.868
    7V3OU   C14 1172   4.316   0.881   3.911
    7V3OU   C16 1173   4.402   0.988   3.937
    7V3OU    H6 1174   4.505   0.968   3.970
    7V3OU   C12 1175   4.365   0.742   3.942
    7V3OU    O2 1176   4.485   0.715   3.970
    7V3OU   C10 1177   4.263   0.637   3.953
    7V3OU    C8 1178   4.296   0.516   4.011
    7V3OU   O10 1179   4.422   0.488   4.052
    7V3OU   H26 1180   4.474   0.573   4.026
    7V3OU    C6 1181   4.194   0.415   4.032
    7V3OU    C5 1182   4.064   0.441   3.988
    7V3OU    C4 1183   4.228   0.293   4.111
    7V3OU    H4 1184   4.323   0.248   4.070
    7V3OU    H5 1185   4.250   0.325   4.216
    7V3OU    C2 1186   4.121   0.183   4.113
    7V3OU    O6 1187   4.125   0.113   3.990
    7V3OU   H21 1188   4.058   0.167   3.934
    7V3OU    C3 1189   3.982   0.244   4.115
    7V3OU    H2 1190   3.907   0.161   4.108
    7V3OU    H3 1191   3.968   0.296   4.213
    7V3OU   C25 1192   4.147   0.090   4.236
    7V3OU    O7 1193   4.099   0.113   4.349
    7V3OU   C26 1194   4.235   6.967   4.214
    7V3OU   H22 1195   4.169   6.886   4.176
    7V3OU   H23 1196   4.282   6.936   4.311
    7V3OU    O8 1197   4.346   6.989   4.127
    7V3OU   H24 1198   4.310   0.010   4.036
    7V3OU    C1 1199   3.954   0.341   4.004
    7V3OU    H1 1200   3.855   0.393   4.026
    7V3OU    O3 1201   3.949   0.262   3.885
    7V3OU   C19 1202   3.829   0.278   3.809
    7V3OU    H9 1203   3.793   0.386   3.802
    7V3OU    O4 1204   3.729   0.213   3.883
    7V3OU   C20 1205   3.724   0.069   3.884
    7V3OU   H10 1206   3.815   0.033   3.940
    7V3OU   C24 1207   3.852   0.220   3.670
    7V3OU   H16 1208   3.945   0.265   3.627
    7V3OU   H17 1209   3.765   0.250   3.607
    7V3OU   C23 1210   3.860   0.069   3.675
    7V3OU   H15 1211   3.948   0.041   3.742
    7V3OU    N1 1212   3.882   0.025   3.540
    7V3OU   H19 1213   3.940   6.944   3.542
    7V3OU   H20 1214   3.932   0.099   3.493
    7V3OU   C21 1215   3.730   0.005   3.743
    7V3OU   H11 1216   3.750   6.895   3.759
    7V3OU    O5 1217   3.607   0.019   3.661
    7V3OU   H18 1218   3.633   0.009   3.566
    7V3OU   C22 1219   3.599   0.032   3.962
    7V3OU   H12 1220   3.508   0.069   3.908
    7V3OU   H13 1221   3.601   0.081   4.063
    7V3OU   H14 1222   3.593   6.921   3.974
    7V3OU   C11 1223   4.090   0.793   3.853
    7V3OU    O1 1224   3.976   0.801   3.801
    7V3OU    C9 1225   4.129   0.662   3.910
    7V3OU    C7 1226   4.033   0.565   3.926
    7V3OU    O9 1227   3.904   0.582   3.883
    7V3OU   H25 1228   3.913   0.678   3.840
    7V3OU   C17 1229   4.230   1.145   3.880
    7V3OU    H7 1230   4.197   1.248   3.870
    7V3OU   C18 1231   4.360   1.119   3.922
    7V3OU    H8 1232   4.429   1.202   3.946
    8V3OU   H29 1233   2.554   6.811   3.138
    8V3OU   C27 1234   2.598   6.863   3.227
    8V3OU   H27 1235   2.654   6.956   3.198
    8V3OU   H28 1236   2.525   6.878   3.310
    8V3OU   O11 1237   2.697   6.771   3.277
    8V3OU   C15 1238   2.781   6.798   3.384
    8V3OU   C13 1239   2.877   6.699   3.419
    8V3OU   C14 1240   2.963   6.720   3.531
    8V3OU   C16 1241   2.951   6.837   3.606
    8V3OU    H6 1242   3.019   6.853   3.691
    8V3OU   C12 1243   3.058   6.614   3.580
    8V3OU    O2 1244   3.140   6.632   3.673
    8V3OU   C10 1245   3.041   6.479   3.525
    8V3OU    C8 1246   3.102   6.372   3.587
    8V3OU   O10 1247   3.184   6.387   3.693
    8V3OU   H26 1248   3.185   6.491   3.706
    8V3OU    C6 1249   3.077   6.237   3.541
    8V3OU    C5 1250   2.993   6.217   3.430
    8V3OU    C4 1251   3.130   6.121   3.620
    8V3OU    H4 1252   3.240   6.138   3.641
    8V3OU    H5 1253   3.077   6.122   3.720
    8V3OU    C2 1254   3.115   5.983   3.556
    8V3OU    O6 1255   3.215   5.968   3.456
    8V3OU   H21 1256   3.166   6.005   3.373
    8V3OU    C3 1257   2.985   5.974   3.478
    8V3OU    H2 1258   2.981   5.875   3.425
    8V3OU    H3 1259   2.901   5.978   3.551
    8V3OU   C25 1260   3.126   5.874   3.668
    8V3OU    O7 1261   3.027   5.834   3.731
    8V3OU   C26 1262   3.264   5.817   3.697
    8V3OU   H22 1263   3.282   5.734   3.624
    8V3OU   H23 1264   3.268   5.778   3.802
    8V3OU    O8 1265   3.370   5.913   3.692
    8V3OU   H24 1266   3.377   5.946   3.598
    8V3OU    C1 1267   2.965   6.081   3.375
    8V3OU    H1 1268   2.858   6.075   3.336
    8V3OU    O3 1269   3.061   6.054   3.273
    8V3OU   C19 1270   3.006   6.042   3.141
    8V3OU    H9 1271   2.925   6.119   3.119
    8V3OU    O4 1272   2.938   5.919   3.142
    8V3OU   C20 1273   3.012   5.797   3.135
    8V3OU   H10 1274   3.068   5.786   3.233
    8V3OU   C24 1275   3.119   6.051   3.040
    8V3OU   H16 1276   3.179   6.143   3.061
    8V3OU   H17 1277   3.072   6.060   2.939
    8V3OU   C23 1278   3.205   5.926   3.044
    8V3OU   H15 1279   3.249   5.919   3.149
    8V3OU    N1 1280   3.308   5.945   2.945
    8V3OU   H19 1281   3.392   5.903   2.979
    8V3OU   H20 1282   3.322   6.044   2.935
    8V3OU   C21 1283   3.118   5.794   3.022
    8V3OU   H11 1284   3.186   5.706   3.045
    8V3OU    O5 1285   3.066   5.778   2.885
    8V3OU   H18 1286   3.129   5.823   2.823
    8V3OU   C22 1287   2.909   5.686   3.124
    8V3OU   H12 1288   2.853   5.696   3.028
    8V3OU   H13 1289   2.836   5.693   3.208
    8V3OU   H14 1290   2.960   5.586   3.126
    8V3OU   C11 1291   2.883   6.570   3.348
    8V3OU    O1 1292   2.824   6.545   3.240
    8V3OU    C9 1293   2.955   6.457   3.412
    8V3OU    C7 1294   2.934   6.329   3.366
    8V3OU    O9 1295   2.856   6.303   3.257
    8V3OU   H25 1296   2.829   6.402   3.230
    8V3OU   C17 1297   2.774   6.915   3.464
    8V3OU    H7 1298   2.700   6.990   3.440
    8V3OU   C18 1299   2.858   6.934   3.573
    8V3OU    H8 1300   2.849   0.024   3.635
    9V3OU   H29 1301   2.564   5.154   5.658
    9V3OU   C27 1302   2.478   5.224   5.640
    9V3OU   H27 1303   2.512   5.327   5.608
    9V3OU   H28 1304   2.400   5.181   5.573
    9V3OU   O11 1305   2.417   5.241   5.769
    9V3OU   C15 1306   2.309   5.325   5.794
    9V3OU   C13 1307   2.263   5.334   5.928
    9V3OU   C14 1308   2.150   5.415   5.958
    9V3OU   C16 1309   2.086   5.485   5.856
    9V3OU    H6 1310   1.998   5.548   5.880
    9V3OU   C12 1311   2.089   5.420   6.096
    9V3OU    O2 1312   1.995   5.498   6.128
    9V3OU   C10 1313   2.132   5.317   6.191
    9V3OU    C8 1314   2.059   5.295   6.306
    9V3OU   O10 1315   1.952   5.371   6.339
    9V3OU   H26 1316   1.948   5.440   6.261
    9V3OU    C6 1317   2.094   5.188   6.396
    9V3OU    C5 1318   2.206   5.109   6.366
    9V3OU    C4 1319   2.004   5.155   6.510
    9V3OU    H4 1320   1.979   5.249   6.567
    9V3OU    H5 1321   1.907   5.117   6.467
    9V3OU    C2 1322   2.056   5.052   6.611
    9V3OU    O6 1323   2.151   5.115   6.695
    9V3OU   H21 1324   2.238   5.099   6.643
    9V3OU    C3 1325   2.138   4.945   6.540
    9V3OU    H2 1326   2.182   4.877   6.617
    9V3OU    H3 1327   2.069   4.885   6.475
    9V3OU   C25 1328   1.935   4.992   6.689
    9V3OU    O7 1329   1.872   4.893   6.649
    9V3OU   C26 1330   1.896   5.060   6.820
    9V3OU   H22 1331   1.961   5.017   6.901
    9V3OU   H23 1332   1.788   5.040   6.843
    9V3OU    O8 1333   1.906   5.202   6.818
    9V3OU   H24 1334   2.002   5.226   6.805
    9V3OU    C1 1335   2.251   4.997   6.455
    9V3OU    H1 1336   2.292   4.911   6.394
    9V3OU    O3 1337   2.346   5.050   6.547
    9V3OU   C19 1338   2.478   4.997   6.531
    9V3OU    H9 1339   2.510   4.985   6.423
    9V3OU    O4 1340   2.470   4.865   6.580
    9V3OU   C20 1341   2.464   4.841   6.721
    9V3OU   H10 1342   2.364   4.879   6.757
    9V3OU   C24 1343   2.575   5.086   6.607
    9V3OU   H16 1344   2.560   5.192   6.575
    9V3OU   H17 1345   2.679   5.053   6.579
    9V3OU   C23 1346   2.558   5.069   6.757
    9V3OU   H15 1347   2.451   5.100   6.783
    9V3OU    N1 1348   2.654   5.158   6.818
    9V3OU   H19 1349   2.614   5.193   6.903
    9V3OU   H20 1350   2.668   5.234   6.755
    9V3OU   C21 1351   2.572   4.917   6.802
    9V3OU   H11 1352   2.541   4.910   6.910
    9V3OU    O5 1353   2.710   4.864   6.791
    9V3OU   H18 1354   2.773   4.937   6.811
    9V3OU   C22 1355   2.470   4.690   6.739
    9V3OU   H12 1356   2.568   4.652   6.702
    9V3OU   H13 1357   2.389   4.642   6.679
    9V3OU   H14 1358   2.458   4.664   6.847
    9V3OU   C11 1359   2.322   5.252   6.036
    9V3OU    O1 1360   2.430   5.189   6.026
    9V3OU    C9 1361   2.246   5.235   6.162
    9V3OU    C7 1362   2.282   5.134   6.249
    9V3OU    O9 1363   2.391   5.055   6.227
    9V3OU   H25 1364   2.428   5.099   6.138
    9V3OU   C17 1365   2.240   5.398   5.694
    9V3OU    H7 1366   2.273   5.391   5.591
    9V3OU   C18 1367   2.130   5.476   5.725
    9V3OU    H8 1368   2.076   5.530   5.645
   10V3OU   H29 1369   3.458   6.510   4.936
   10V3OU   C27 1370   3.549   6.464   4.888
   10V3OU   H27 1371   3.526   6.417   4.789
   10V3OU   H28 1372   3.636   6.534   4.886
   10V3OU   O11 1373   3.586   6.356   4.976
   10V3OU   C15 1374   3.692   6.270   4.952
   10V3OU   C13 1375   3.714   6.166   5.046
   10V3OU   C14 1376   3.823   6.076   5.029
   10V3OU   C16 1377   3.908   6.092   4.919
   10V3OU    H6 1378   3.993   6.023   4.906
   10V3OU   C12 1379   3.859   5.972   5.131
   10V3OU    O2 1380   3.948   5.885   5.114
   10V3OU   C10 1381   3.794   5.983   5.262
   10V3OU    C8 1382   3.844   5.912   5.370
   10V3OU   O10 1383   3.946   5.824   5.356
   10V3OU   H26 1384   3.967   5.829   5.255
   10V3OU    C6 1385   3.788   5.929   5.502
   10V3OU    C5 1386   3.680   6.017   5.518
   10V3OU    C4 1387   3.855   5.865   5.619
   10V3OU    H4 1388   3.874   5.756   5.596
   10V3OU    H5 1389   3.956   5.913   5.631
   10V3OU    C2 1390   3.780   5.873   5.752
   10V3OU    O6 1391   3.675   5.778   5.751
   10V3OU   H21 1392   3.598   5.834   5.713
   10V3OU    C3 1393   3.708   6.006   5.765
   10V3OU    H2 1394   3.647   6.005   5.859
   10V3OU    H3 1395   3.784   6.087   5.773
   10V3OU   C25 1396   3.882   5.850   5.869
   10V3OU    O7 1397   3.947   5.942   5.920
   10V3OU   C26 1398   3.900   5.706   5.919
   10V3OU   H22 1399   3.820   5.688   5.995
   10V3OU   H23 1400   4.001   5.694   5.965
   10V3OU    O8 1401   3.895   5.607   5.816
   10V3OU   H24 1402   3.805   5.610   5.774
   10V3OU    C1 1403   3.615   6.038   5.651
   10V3OU    H1 1404   3.581   6.146   5.662
   10V3OU    O3 1405   3.506   5.946   5.663
   10V3OU   C19 1406   3.377   6.007   5.668
   10V3OU    H9 1407   3.365   6.094   5.596
   10V3OU    O4 1408   3.370   6.066   5.795
   10V3OU   C20 1409   3.349   5.984   5.911
   10V3OU   H10 1410   3.443   5.923   5.926
   10V3OU   C24 1411   3.272   5.899   5.643
   10V3OU   H16 1412   3.298   5.844   5.549
   10V3OU   H17 1413   3.174   5.952   5.629
   10V3OU   C23 1414   3.262   5.805   5.761
   10V3OU   H15 1415   3.364   5.755   5.774
   10V3OU    N1 1416   3.161   5.708   5.726
   10V3OU   H19 1417   3.188   5.621   5.766
   10V3OU   H20 1418   3.163   5.699   5.626
   10V3OU   C21 1419   3.232   5.884   5.897
   10V3OU   H11 1420   3.243   5.810   5.982
   10V3OU    O5 1421   3.096   5.942   5.904
   10V3OU   H18 1422   3.035   5.881   5.856
   10V3OU   C22 1423   3.333   6.080   6.028
   10V3OU   H12 1424   3.241   6.141   6.014
   10V3OU   H13 1425   3.421   6.148   6.033
   10V3OU   H14 1426   3.325   6.022   6.124
   10V3OU   C11 1427   3.633   6.155   5.169
   10V3OU    O1 1428   3.525   6.216   5.189
   10V3OU    C9 1429   3.684   6.073   5.282
   10V3OU    C7 1430   3.628   6.087   5.407
   10V3OU    O9 1431   3.519   6.167   5.429
   10V3OU   H25 1432   3.502   6.201   5.330
   10V3OU   C17 1433   3.782   6.281   4.844
   10V3OU    H7 1434   3.768   6.362   4.772
   10V3OU   C18 1435   3.888   6.194   4.828
   10V3OU    H8 1436   3.958   6.206   4.743
   11V3OU   H29 1437   2.957   5.697   1.045
   11V3OU   C27 1438   3.027   5.779   1.078
   11V3OU   H27 1439   3.086   5.822   0.993
   11V3OU   H28 1440   2.976   5.856   1.142
   11V3OU   O11 1441   3.122   5.712   1.163
   11V3OU   C15 1442   3.229   5.776   1.225
   11V3OU   C13 1443   3.316   5.696   1.304
   11V3OU   C14 1444   3.426   5.756   1.370
   11V3OU   C16 1445   3.449   5.893   1.356
   11V3OU    H6 1446   3.533   5.940   1.410
   11V3OU   C12 1447   3.513   5.681   1.467
   11V3OU    O2 1448   3.618   5.727   1.519
   11V3OU   C10 1449   3.465   5.549   1.510
   11V3OU    C8 1450   3.523   5.486   1.619
   11V3OU   O10 1451   3.629   5.540   1.684
   11V3OU   H26 1452   3.647   5.627   1.629
   11V3OU    C6 1453   3.471   5.360   1.668
   11V3OU    C5 1454   3.363   5.301   1.601
   11V3OU    C4 1455   3.524   5.304   1.796
   11V3OU    H4 1456   3.637   5.303   1.792
   11V3OU    H5 1457   3.496   5.376   1.878
   11V3OU    C2 1458   3.476   5.164   1.833
   11V3OU    O6 1459   3.548   5.069   1.755
   11V3OU   H21 1460   3.487   5.061   1.672
   11V3OU    C3 1461   3.332   5.143   1.790
   11V3OU    H2 1462   3.303   5.037   1.810
   11V3OU    H3 1463   3.267   5.210   1.852
   11V3OU   C25 1464   3.496   5.143   1.986
   11V3OU    O7 1465   3.410   5.176   2.070
   11V3OU   C26 1466   3.628   5.081   2.032
   11V3OU   H22 1467   3.617   4.970   2.024
   11V3OU   H23 1468   3.649   5.110   2.138
   11V3OU    O8 1469   3.742   5.125   1.960
   11V3OU   H24 1470   3.733   5.095   1.865
   11V3OU    C1 1471   3.305   5.171   1.644
   11V3OU    H1 1472   3.192   5.170   1.628
   11V3OU    O3 1473   3.371   5.066   1.573
   11V3OU   C19 1474   3.287   4.994   1.483
   11V3OU    H9 1475   3.214   5.060   1.425
   11V3OU    O4 1476   3.204   4.916   1.565
   11V3OU   C20 1477   3.257   4.798   1.629
   11V3OU   H10 1478   3.331   4.834   1.707
   11V3OU   C24 1479   3.375   4.914   1.388
   11V3OU   H16 1480   3.451   4.982   1.342
   11V3OU   H17 1481   3.308   4.873   1.308
   11V3OU   C23 1482   3.441   4.798   1.461
   11V3OU   H15 1483   3.506   4.843   1.543
   11V3OU    N1 1484   3.522   4.731   1.362
   11V3OU   H19 1485   3.604   4.696   1.407
   11V3OU   H20 1486   3.549   4.799   1.294
   11V3OU   C21 1487   3.334   4.704   1.533
   11V3OU   H11 1488   3.392   4.632   1.599
   11V3OU    O5 1489   3.251   4.625   1.439
   11V3OU   H18 1490   3.307   4.603   1.361
   11V3OU   C22 1491   3.140   4.731   1.698
   11V3OU   H12 1492   3.065   4.697   1.621
   11V3OU   H13 1493   3.090   4.804   1.766
   11V3OU   H14 1494   3.176   4.643   1.756
   11V3OU   C11 1495   3.286   5.554   1.330
   11V3OU    O1 1496   3.205   5.485   1.264
   11V3OU    C9 1497   3.354   5.486   1.443
   11V3OU    C7 1498   3.307   5.365   1.488
   11V3OU    O9 1499   3.206   5.299   1.424
   11V3OU   H25 1500   3.187   5.367   1.344
   11V3OU   C17 1501   3.256   5.914   1.215
   11V3OU    H7 1502   3.188   5.977   1.158
   11V3OU   C18 1503   3.364   5.972   1.280
   11V3OU    H8 1504   3.382   6.081   1.273
   12V3OU   H29 1505   6.811   4.433   4.961
   12V3OU   C27 1506   6.724   4.468   5.022
   12V3OU   H27 1507   6.720   4.579   5.032
   12V3OU   H28 1508   6.627   4.422   4.990
   12V3OU   O11 1509   6.751   4.417   5.154
   12V3OU   C15 1510   6.669   4.440   5.264
   12V3OU   C13 1511   6.711   4.386   5.389
   12V3OU   C14 1512   6.629   4.403   5.504
   12V3OU   C16 1513   6.509   4.473   5.494
   12V3OU    H6 1514   6.446   4.486   5.584
   12V3OU   C12 1515   6.662   4.338   5.636
   12V3OU    O2 1516   6.597   4.359   5.742
   12V3OU   C10 1517   6.765   4.234   5.635
   12V3OU    C8 1518   6.779   4.149   5.744
   12V3OU   O10 1519   6.704   4.164   5.856
   12V3OU   H26 1520   6.646   4.247   5.834
   12V3OU    C6 1521   6.873   4.040   5.740
   12V3OU    C5 1522   6.953   4.024   5.627
   12V3OU    C4 1523   6.873   3.939   5.851
   12V3OU    H4 1524   6.876   3.993   5.950
   12V3OU    H5 1525   6.774   3.885   5.847
   12V3OU    C2 1526   6.987   3.837   5.849
   12V3OU    O6 1527   0.105   3.899   5.897
   12V3OU   H21 1528   0.145   3.936   5.809
   12V3OU    C3 1529   0.022   3.799   5.706
   12V3OU    H2 1530   0.111   3.731   5.708
   12V3OU    H3 1531   6.936   3.743   5.663
   12V3OU   C25 1532   6.945   3.713   5.935
   12V3OU    O7 1533   6.883   3.617   5.887
   12V3OU   C26 1534   6.983   3.714   6.083
   12V3OU   H22 1535   0.087   3.674   6.090
   12V3OU   H23 1536   6.913   3.648   6.141
   12V3OU    O8 1537   6.973   3.841   6.146
   12V3OU   H24 1538   0.039   3.903   6.103
   12V3OU    C1 1539   0.055   3.915   5.616
   12V3OU    H1 1540   0.062   3.876   5.509
   12V3OU    O3 1541   0.180   3.966   5.664
   12V3OU   C19 1542   0.282   3.975   5.564
   12V3OU    H9 1543   0.244   4.013   5.463
   12V3OU    O4 1544   0.320   3.842   5.538
   12V3OU   C20 1545   0.402   3.772   5.633
   12V3OU   H10 1546   0.339   3.756   5.725
   12V3OU   C24 1547   0.393   4.064   5.617
   12V3OU   H16 1548   0.349   4.160   5.653
   12V3OU   H17 1549   0.463   4.084   5.532
   12V3OU   C23 1550   0.471   3.993   5.727
   12V3OU   H15 1551   0.397   3.971   5.812
   12V3OU    N1 1552   0.572   4.086   5.769
   12V3OU   H19 1553   0.587   4.073   5.867
   12V3OU   H20 1554   0.537   4.178   5.754
   12V3OU   C21 1555   0.527   3.852   5.679
   12V3OU   H11 1556   0.567   3.798   5.770
   12V3OU    O5 1557   0.637   3.862   5.579
   12V3OU   H18 1558   0.689   3.943   5.601
   12V3OU   C22 1559   0.435   3.638   5.570
   12V3OU   H12 1560   0.497   3.654   5.478
   12V3OU   H13 1561   0.341   3.586   5.541
   12V3OU   H14 1562   0.492   3.575   5.643
   12V3OU   C11 1563   6.832   4.301   5.400
   12V3OU    O1 1564   6.920   4.291   5.311
   12V3OU    C9 1565   6.848   4.215   5.519
   12V3OU    C7 1566   6.941   4.113   5.518
   12V3OU    O9 1567   0.025   4.095   5.412
   12V3OU   H25 1568   6.995   4.176   5.350
   12V3OU   C17 1569   6.546   4.509   5.260
   12V3OU    H7 1570   6.512   4.549   5.165
   12V3OU   C18 1571   6.467   4.525   5.373
   12V3OU    H8 1572   6.370   4.577   5.366
   13V3OU   H29 1573   2.102   5.654   2.256
   13V3OU   C27 1574   2.090   5.608   2.155
   13V3OU   H27 1575   2.067   5.498   2.160
   13V3OU   H28 1576   2.021   5.665   2.089
   13V3OU   O11 1577   2.221   5.618   2.095
   13V3OU   C15 1578   2.253   5.570   1.969
   13V3OU   C13 1579   2.388   5.585   1.926
   13V3OU   C14 1580   2.425   5.540   1.796
   13V3OU   C16 1581   2.330   5.482   1.713
   13V3OU    H6 1582   2.359   5.447   1.612
   13V3OU   C12 1583   2.562   5.564   1.740
   13V3OU    O2 1584   2.602   5.517   1.629
   13V3OU   C10 1585   2.648   5.659   1.811
   13V3OU    C8 1586   2.761   5.710   1.750
   13V3OU   O10 1587   2.800   5.669   1.627
   13V3OU   H26 1588   2.729   5.597   1.603
   13V3OU    C6 1589   2.840   5.812   1.815
   13V3OU    C5 1590   2.803   5.855   1.943
   13V3OU    C4 1591   2.951   5.877   1.739
   13V3OU    H4 1592   3.016   5.798   1.692
   13V3OU    H5 1593   2.905   5.936   1.655
   13V3OU    C2 1594   3.042   5.970   1.820
   13V3OU    O6 1595   3.132   5.891   1.896
   13V3OU   H21 1596   3.078   5.879   1.984
   13V3OU    C3 1597   2.962   6.045   1.925
   13V3OU    H2 1598   3.032   6.105   1.988
   13V3OU    H3 1599   2.893   6.116   1.872
   13V3OU   C25 1600   3.116   6.066   1.721
   13V3OU    O7 1601   3.067   6.173   1.682
   13V3OU   C26 1602   3.253   6.021   1.669
   13V3OU   H22 1603   3.329   6.053   1.744
   13V3OU   H23 1604   3.274   6.069   1.570
   13V3OU    O8 1605   3.263   5.881   1.644
   13V3OU   H24 1606   3.251   5.834   1.731
   13V3OU    C1 1607   2.882   5.958   2.018
   13V3OU    H1 1608   2.813   6.024   2.079
   13V3OU    O3 1609   2.978   5.890   2.098
   13V3OU   C19 1610   2.957   5.904   2.239
   13V3OU    H9 1611   2.848   5.897   2.270
   13V3OU    O4 1612   2.993   6.037   2.268
   13V3OU   C20 1613   3.132   6.074   2.273
   13V3OU   H10 1614   3.171   6.067   2.167
   13V3OU   C24 1615   3.041   5.799   2.311
   13V3OU   H16 1616   3.019   5.698   2.267
   13V3OU   H17 1617   3.010   5.800   2.419
   13V3OU   C23 1618   3.189   5.833   2.303
   13V3OU   H15 1619   3.217   5.834   2.192
   13V3OU    N1 1620   3.257   5.727   2.373
   13V3OU   H19 1621   3.345   5.711   2.327
   13V3OU   H20 1622   3.201   5.645   2.366
   13V3OU   C21 1623   3.220   5.979   2.359
   13V3OU   H11 1624   3.327   6.003   2.333
   13V3OU    O5 1625   3.203   5.992   2.506
   13V3OU   H18 1626   3.232   5.906   2.546
   13V3OU   C22 1627   3.136   6.218   2.319
   13V3OU   H12 1628   3.096   6.225   2.424
   13V3OU   H13 1629   3.072   6.281   2.252
   13V3OU   H14 1630   3.241   6.256   2.317
   13V3OU   C11 1631   2.487   5.657   2.007
   13V3OU    O1 1632   2.472   5.687   2.128
   13V3OU    C9 1633   2.611   5.706   1.942
   13V3OU    C7 1634   2.688   5.800   2.006
   13V3OU    O9 1635   2.660   5.844   2.131
   13V3OU   H25 1636   2.575   5.785   2.153
   13V3OU   C17 1637   2.160   5.511   1.880
   13V3OU    H7 1638   2.057   5.501   1.911
   13V3OU   C18 1639   2.198   5.467   1.754
   13V3OU    H8 1640   2.124   5.424   1.685
   14SOL     OW 1641   0.230   0.628   0.113
   14SOL    HW1 1642   0.137   0.626   0.150
   14SOL    HW2 1643   0.231   0.589   0.021
   15SOL     OW 1644   0.225   0.275   0.996
   15SOL    HW1 1645   0.260   0.258   1.088
   15SOL    HW2 1646   0.137   0.230   0.984
   16SOL     OW 1647   0.019   0.368   0.647
   16SOL    HW1 1648  -0.063   0.411   0.686
   16SOL    HW2 1649  -0.009   0.295   0.584
   17SOL     OW 1650   0.569   1.275   1.165
   17SOL    HW1 1651   0.476   1.268   1.128
   17SOL    HW2 1652   0.580   1.364   1.209
   18SOL     OW 1653   1.555   1.511   0.703
   18SOL    HW1 1654   1.498   1.495   0.784
   18SOL    HW2 1655   1.496   1.521   0.623
   19SOL     OW 1656   1.135   0.703   0.717
   19SOL    HW1 1657   1.192   0.781   0.692
   19SOL    HW2 1658   1.075   0.729   0.793
   20SOL     OW 1659   1.755   0.607   0.231
   20SOL    HW1 1660   1.743   0.594   0.132
   20SOL    HW2 1661   1.725   0.526   0.280
   21SOL     OW 1662   0.768   1.144   1.023
   21SOL    HW1 1663   0.690   1.161   1.083
   21SOL    HW2 1664   0.802   1.231   0.987
   22SOL     OW 1665   0.850   0.798   1.823
   22SOL    HW1 1666   0.846   0.874   1.888
   22SOL    HW2 1667   0.872   0.834   1.732
   23SOL     OW 1668   0.685   1.012   0.665
   23SOL    HW1 1669   0.754   0.996   0.735
   23SOL    HW2 1670   0.612   1.069   0.703
   24SOL     OW 1671   0.686   1.161   1.803
   24SOL    HW1 1672   0.746   1.240   1.817
   24SOL    HW2 1673   0.600   1.192   1.762
   25SOL     OW 1674   0.335   1.435   1.061
   25SOL    HW1 1675   0.257   1.404   1.008
   25SOL    HW2 1676   0.393   1.493   1.004
   26SOL     OW 1677   1.460   1.505   1.339
   26SOL    HW1 1678   1.484   1.599   1.365
   26SOL    HW2 1679   1.444   1.451   1.421
   27SOL     OW 1680   0.438   0.392   1.499
   27SOL    HW1 1681   0.520   0.336   1.508
   27SOL    HW2 1682   0.357   0.334   1.503
   28SOL     OW 1683   1.603   0.447   0.737
   28SOL    HW1 1684   1.529   0.493   0.687
   28SOL    HW2 1685   1.654   0.515   0.790
   29SOL     OW 1686   0.231   1.713   0.483
   29SOL    HW1 1687   0.265   1.790   0.537
   29SOL    HW2 1688   0.275   1.713   0.393
   30SOL     OW 1689   1.127   1.341   1.690
   30SOL    HW1 1690   1.174   1.341   1.778
   30SOL    HW2 1691   1.079   1.254   1.679
   31SOL     OW 1692   0.230   1.434   0.538
   31SOL    HW1 1693   0.204   1.530   0.538
   31SOL    HW2 1694   0.159   1.380   0.583
   32SOL     OW 1695   0.240   1.091   0.886
   32SOL    HW1 1696   0.254   1.007   0.938
   32SOL    HW2 1697   0.185   1.155   0.941
   33SOL     OW 1698   0.620   1.786   1.439
   33SOL    HW1 1699   0.528   1.769   1.474
   33SOL    HW2 1700   0.648   1.878   1.465
   34SOL     OW 1701   0.606   0.964   0.123
   34SOL    HW1 1702   0.613   1.048   0.069
   34SOL    HW2 1703   0.652   0.977   0.211
   35SOL     OW 1704   1.594   0.114   1.480
   35SOL    HW1 1705   1.576   0.181   1.408
   35SOL    HW2 1706   1.591   0.160   1.569
   36SOL     OW 1707   0.122   0.643   0.563
   36SOL    HW1 1708   0.077   0.555   0.580
   36SOL    HW2 1709   0.121   0.697   0.647
   37SOL     OW 1710   1.842   1.767   0.359
   37SOL    HW1 1711   1.896   1.738   0.439
   37SOL    HW2 1712   1.872   1.857   0.330
   38SOL     OW 1713   0.027   1.596   0.117
   38SOL    HW1 1714   0.008   1.500   0.138
   38SOL    HW2 1715  -0.006   1.654   0.192
   39SOL     OW 1716   1.689   0.922   0.612
   39SOL    HW1 1717   1.784   0.893   0.620
   39SOL    HW2 1718   1.681   0.987   0.537
   40SOL     OW 1719   1.641   1.108   0.432
   40SOL    HW1 1720   1.727   1.110   0.380
   40SOL    HW2 1721   1.655   1.155   0.520
   41SOL     OW 1722   0.113   0.737   1.597
   41SOL    HW1 1723   0.201   0.724   1.642
   41SOL    HW2 1724   0.100   0.834   1.575
   42SOL     OW 1725   0.613   1.365   0.726
   42SOL    HW1 1726   0.564   1.278   0.735
   42SOL    HW2 1727   0.590   1.408   0.639
   43SOL     OW 1728   1.293   1.228   1.423
   43SOL    HW1 1729   1.330   1.155   1.365
   43SOL    HW2 1730   1.345   1.233   1.508
   44SOL     OW 1731   0.809   0.004   0.502
   44SOL    HW1 1732   0.849   0.095   0.493
   44SOL    HW2 1733   0.709   0.012   0.508
   45SOL     OW 1734   0.197   0.976   1.264
   45SOL    HW1 1735   0.286   0.931   1.250
   45SOL    HW2 1736   0.124   0.911   1.245
   46SOL     OW 1737   1.525   0.999   0.190
   46SOL    HW1 1738   1.462   0.923   0.203
   46SOL    HW2 1739   1.573   1.017   0.276
   47SOL     OW 1740   1.187   1.792   1.616
   47SOL    HW1 1741   1.211   1.852   1.540
   47SOL    HW2 1742   1.194   1.697   1.586
   48SOL     OW 1743   0.317   0.251   1.801
   48SOL    HW1 1744   0.388   0.322   1.807
   48SOL    HW2 1745   0.229   0.290   1.829
   49SOL     OW 1746   1.466   1.417   0.953
   49SOL    HW1 1747   1.407   1.423   1.033
   49SOL    HW2 1748   1.451   1.329   0.907
   50SOL     OW 1749   1.667   1.714   0.572
   50SOL    HW1 1750   1.626   1.691   0.484
   50SOL    HW2 1751   1.649   1.640   0.637
   51SOL     OW 1752   0.598   0.729   0.270
   51SOL    HW1 1753   0.622   0.798   0.202
   51SOL    HW2 1754   0.520   0.762   0.324
   52SOL     OW 1755   1.281   0.345   0.944
   52SOL    HW1 1756   1.195   0.295   0.931
   52SOL    HW2 1757   1.343   0.291   1.000
   53SOL     OW 1758   1.576   1.662   0.307
   53SOL    HW1 1759   1.665   1.708   0.310
   53SOL    HW2 1760   1.555   1.638   0.212
   54SOL     OW 1761   0.807   0.605   1.465
   54SOL    HW1 1762   0.760   0.602   1.554
   54SOL    HW2 1763   0.756   0.550   1.399
   55SOL     OW 1764   1.394   0.469   1.674
   55SOL    HW1 1765   1.374   0.512   1.762
   55SOL    HW2 1766   1.472   0.407   1.683
   56SOL     OW 1767   0.973   0.890   1.572
   56SOL    HW1 1768   1.019   0.806   1.543
   56SOL    HW2 1769   0.917   0.924   1.497
   57SOL     OW 1770   0.991   0.410   1.242
   57SOL    HW1 1771   0.914   0.444   1.296
   57SOL    HW2 1772   0.957   0.359   1.163
   58SOL     OW 1773   1.041   0.701   0.429
   58SOL    HW1 1774   1.067   0.697   0.525
   58SOL    HW2 1775   0.956   0.650   0.415
   59SOL     OW 1776   0.076   0.811   0.789
   59SOL    HW1 1777   0.175   0.799   0.798
   59SOL    HW2 1778   0.052   0.906   0.810
   60SOL     OW 1779   0.865   0.348   0.195
   60SOL    HW1 1780   0.924   0.411   0.146
   60SOL    HW2 1781   0.884   0.254   0.166
   61SOL     OW 1782   1.719   0.585   1.831
   61SOL    HW1 1783   1.693   0.674   1.795
   61SOL    HW2 1784   1.717   0.517   1.758
   62SOL     OW 1785   1.362   1.144   0.545
   62SOL    HW1 1786   1.445   1.115   0.497
   62SOL    HW2 1787   1.313   1.211   0.489
   63SOL     OW 1788   0.550   0.196   0.885
   63SOL    HW1 1789   0.545   0.191   0.985
   63SOL    HW2 1790   0.552   0.292   0.856
   64SOL     OW 1791   1.008   1.456   0.477
   64SOL    HW1 1792   0.962   1.528   0.425
   64SOL    HW2 1793   1.004   1.476   0.575
   65SOL     OW 1794   0.351   1.801   0.853
   65SOL    HW1 1795   0.401   1.715   0.859
   65SOL    HW2 1796   0.416   1.878   0.850
   66SOL     OW 1797   1.795   1.066   0.873
   66SOL    HW1 1798   1.733   1.051   0.797
   66SOL    HW2 1799   1.743   1.077   0.958
   67SOL     OW 1800   1.227   1.550   1.506
   67SOL    HW1 1801   1.233   1.473   1.570
   67SOL    HW2 1802   1.175   1.524   1.426
   68SOL     OW 1803   0.321   0.943   0.242
   68SOL    HW1 1804   0.403   0.982   0.200
   68SOL    HW2 1805   0.294   0.861   0.193
   69SOL     OW 1806   1.458   0.735   0.728
   69SOL    HW1 1807   1.453   0.670   0.803
   69SOL    HW2 1808   1.538   0.794   0.741
   70SOL     OW 1809   0.461   1.266   1.727
   70SOL    HW1 1810   0.411   1.267   1.641
   70SOL    HW2 1811   0.398   1.248   1.803
   71SOL     OW 1812   1.111   1.776   0.237
   71SOL    HW1 1813   1.051   1.714   0.287
   71SOL    HW2 1814   1.142   1.732   0.152
   72SOL     OW 1815   0.202   0.285   1.498
   72SOL    HW1 1816   0.122   0.345   1.485
   72SOL    HW2 1817   0.192   0.236   1.584
   73SOL     OW 1818   1.632   1.377   0.081
   73SOL    HW1 1819   1.600   1.471   0.071
   73SOL    HW2 1820   1.556   1.314   0.069
   74SOL     OW 1821   0.464   1.743   0.323
   74SOL    HW1 1822   0.497   1.782   0.409
   74SOL    HW2 1823   0.540   1.736   0.258
   75SOL     OW 1824   1.400   0.107   0.426
   75SOL    HW1 1825   1.376   0.070   0.336
   75SOL    HW2 1826   1.499   0.123   0.430
   76SOL     OW 1827   0.249   1.785   1.241
   76SOL    HW1 1828   0.306   1.720   1.291
   76SOL    HW2 1829   0.233   1.752   1.148
   77SOL     OW 1830   0.940   1.698   0.904
   77SOL    HW1 1831   1.020   1.641   0.925
   77SOL    HW2 1832   0.891   1.658   0.827
   78SOL     OW 1833   0.382   0.700   0.480
   78SOL    HW1 1834   0.427   0.610   0.477
   78SOL    HW2 1835   0.288   0.689   0.513
   79SOL     OW 1836   1.547   0.222   1.729
   79SOL    HW1 1837   1.542   0.259   1.821
   79SOL    HW2 1838   1.475   0.153   1.717
   80SOL     OW 1839   0.614   0.122   0.117
   80SOL    HW1 1840   0.712   0.100   0.124
   80SOL    HW2 1841   0.583   0.105   0.024
   81SOL     OW 1842   0.781   0.264   1.749
   81SOL    HW1 1843   0.848   0.203   1.792
   81SOL    HW2 1844   0.708   0.283   1.814
   82SOL     OW 1845   0.888   1.514   1.195
   82SOL    HW1 1846   0.865   1.489   1.101
   82SOL    HW2 1847   0.949   1.445   1.234
   83SOL     OW 1848   1.351   0.590   1.433
   83SOL    HW1 1849   1.379   0.547   1.518
   83SOL    HW2 1850   1.376   0.686   1.434
   84SOL     OW 1851   0.803   1.402   0.924
   84SOL    HW1 1852   0.893   1.416   0.882
   84SOL    HW2 1853   0.732   1.404   0.853
   85SOL     OW 1854   0.922   0.503   0.899
   85SOL    HW1 1855   0.897   0.494   0.803
   85SOL    HW2 1856   0.970   0.421   0.930
   86SOL     OW 1857   0.539   0.064   0.512
   86SOL    HW1 1858   0.458   0.065   0.570
   86SOL    HW2 1859   0.542   0.147   0.457
   87SOL     OW 1860   1.434   1.188   0.041
   87SOL    HW1 1861   1.466   1.112   0.098
   87SOL    HW2 1862   1.342   1.215   0.071
   88SOL     OW 1863   0.297   0.035   0.171
   88SOL    HW1 1864   0.346   0.119   0.150
   88SOL    HW2 1865   0.359  -0.030   0.216
   89SOL     OW 1866   0.935   0.236   0.480
   89SOL    HW1 1867   0.887   0.277   0.402
   89SOL    HW2 1868   1.034   0.234   0.461
   90SOL     OW 1869   1.076   0.683   1.464
   90SOL    HW1 1870   0.996   0.622   1.467
   90SOL    HW2 1871   1.157   0.630   1.440
   91SOL     OW 1872   1.227   1.570   0.793
   91SOL    HW1 1873   1.248   1.644   0.728
   91SOL    HW2 1874   1.295   1.570   0.866
   92SOL     OW 1875   0.459   1.152   0.741
   92SOL    HW1 1876   0.388   1.125   0.806
   92SOL    HW2 1877   0.433   1.124   0.648
   93SOL     OW 1878   1.271   1.797   0.591
   93SOL    HW1 1879   1.315   1.861   0.527
   93SOL    HW2 1880   1.221   1.849   0.661
   94SOL     OW 1881   1.032   0.549   0.016
   94SOL    HW1 1882   0.991   0.631  -0.023
   94SOL    HW2 1883   1.096   0.575   0.089
   95SOL     OW 1884   0.078   0.556   1.386
   95SOL    HW1 1885   0.170   0.555   1.345
   95SOL    HW2 1886   0.072   0.630   1.453
   96SOL     OW 1887   0.561   0.222   1.147
   96SOL    HW1 1888   0.599   0.138   1.184
   96SOL    HW2 1889   0.473   0.241   1.191
   97SOL     OW 1890   0.866   0.454   0.642
   97SOL    HW1 1891   0.834   0.526   0.580
   97SOL    HW2 1892   0.890   0.373   0.589
   98SOL     OW 1893   1.017   0.039   0.753
   98SOL    HW1 1894   0.945   0.044   0.684
   98SOL    HW2 1895   0.993  -0.030   0.822
   99SOL     OW 1896   1.429   1.173   0.867
   99SOL    HW1 1897   1.374   1.089   0.860
   99SOL    HW2 1898   1.455   1.202   0.775
  100SOL     OW 1899   1.466   0.590   0.992
  100SOL    HW1 1900   1.436   0.495   0.999
  100SOL    HW2 1901   1.539   0.606   1.058
  101SOL     OW 1902   1.857   0.833   0.377
  101SOL    HW1 1903   1.899   0.769   0.441
  101SOL    HW2 1904   1.819   0.782   0.299
  102SOL     OW 1905   0.488   1.385   0.174
  102SOL    HW1 1906   0.401   1.370   0.221
  102SOL    HW2 1907   0.471   1.411   0.079
  103SOL     OW 1908   1.664   1.280   0.657
  103SOL    HW1 1909   1.763   1.288   0.671
  103SOL    HW2 1910   1.619   1.364   0.688
  104SOL     OW 1911   1.390   0.575   0.078
  104SOL    HW1 1912   1.336   0.554   0.159
  104SOL    HW2 1913   1.481   0.534   0.087
  105SOL     OW 1914   0.527   0.256   0.328
  105SOL    HW1 1915   0.554   0.197   0.253
  105SOL    HW2 1916   0.527   0.351   0.297
  106SOL     OW 1917   1.754   1.223   1.588
  106SOL    HW1 1918   1.845   1.184   1.575
  106SOL    HW2 1919   1.762   1.319   1.612
  107SOL     OW 1920   1.064   1.347   1.340
  107SOL    HW1 1921   0.984   1.324   1.395
  107SOL    HW2 1922   1.147   1.321   1.389
  108SOL     OW 1923   1.592   1.629   1.625
  108SOL    HW1 1924   1.619   1.663   1.535
  108SOL    HW2 1925   1.671   1.591   1.671
  109SOL     OW 1926   1.111   1.195   1.100
  109SOL    HW1 1927   1.071   1.239   1.181
  109SOL    HW2 1928   1.070   1.232   1.017
  110SOL     OW 1929   1.638   1.099   1.079
  110SOL    HW1 1930   1.643   1.180   1.138
  110SOL    HW2 1931   1.552   1.101   1.028
  111SOL     OW 1932   0.915   0.089   1.402
  111SOL    HW1 1933   0.940   0.069   1.307
  111SOL    HW2 1934   0.987   0.145   1.444
  112SOL     OW 1935   0.980   1.116   1.719
  112SOL    HW1 1936   0.881   1.122   1.729
  112SOL    HW2 1937   1.003   1.036   1.663
  113SOL     OW 1938   0.705   1.050   0.368
  113SOL    HW1 1939   0.691   1.057   0.467
  113SOL    HW2 1940   0.789   0.999   0.350
  114SOL     OW 1941   0.410   0.813   1.251
  114SOL    HW1 1942   0.496   0.825   1.301
  114SOL    HW2 1943   0.368   0.726   1.278
  115SOL     OW 1944   1.274   0.386   1.262
  115SOL    HW1 1945   1.295   0.460   1.326
  115SOL    HW2 1946   1.185   0.403   1.219
  116SOL     OW 1947   0.367   1.100   0.501
  116SOL    HW1 1948   0.360   1.183   0.445
  116SOL    HW2 1949   0.371   1.020   0.441
  117SOL     OW 1950   0.566   0.537   0.865
  117SOL    HW1 1951   0.578   0.603   0.791
  117SOL    HW2 1952   0.612   0.571   0.948
  118SOL     OW 1953   1.252   1.348   0.388
  118SOL    HW1 1954   1.302   1.425   0.428
  118SOL    HW2 1955   1.157   1.350   0.420
  119SOL     OW 1956   1.272   1.445   1.142
  119SOL    HW1 1957   1.319   1.458   1.229
  119SOL    HW2 1958   1.206   1.371   1.151
  120SOL     OW 1959   1.582   0.639   0.472
  120SOL    HW1 1960   1.551   0.700   0.545
  120SOL    HW2 1961   1.632   0.691   0.403
  121SOL     OW 1962   0.354   1.510   1.329
  121SOL    HW1 1963   0.333   1.466   1.242
  121SOL    HW2 1964   0.451   1.536   1.332
  122SOL     OW 1965   0.402   0.751   1.598
  122SOL    HW1 1966   0.470   0.806   1.551
  122SOL    HW2 1967   0.442   0.663   1.625
  123SOL     OW 1968   1.587   0.779   1.670
  123SOL    HW1 1969   1.495   0.817   1.665
  123SOL    HW2 1970   1.647   0.826   1.605
  124SOL     OW 1971   1.013   0.105   1.770
  124SOL    HW1 1972   1.019   0.190   1.718
  124SOL    HW2 1973   1.045   0.029   1.713
  125SOL     OW 1974   0.504   0.050   1.740
  125SOL    HW1 1975   0.462  -0.007   1.670
  125SOL    HW2 1976   0.438   0.119   1.772
  126SOL     OW 1977   0.573   0.870   1.029
  126SOL    HW1 1978   0.617   0.959   1.020
  126SOL    HW2 1979   0.510   0.870   1.106
  127SOL     OW 1980   1.360   0.862   1.045
  127SOL    HW1 1981   1.285   0.862   0.979
  127SOL    HW2 1982   1.397   0.770   1.054
  128SOL     OW 1983   1.209   0.525   0.275
  128SOL    HW1 1984   1.222   0.441   0.329
  128SOL    HW2 1985   1.180   0.599   0.335
  129SOL     OW 1986   0.307   0.213   1.231
  129SOL    HW1 1987   0.284   0.250   1.321
  129SOL    HW2 1988   0.277   0.118   1.225
  130SOL     OW 1989   0.037   1.310   1.282
  130SOL    HW1 1990   0.090   1.261   1.350
  130SOL    HW2 1991   0.059   1.408   1.287
  131SOL     OW 1992   0.732   0.634   1.064
  131SOL    HW1 1993   0.791   0.608   0.988
  131SOL    HW2 1994   0.704   0.730   1.053
  132SOL     OW 1995   1.728   0.935   1.854
  132SOL    HW1 1996   1.682   0.928   1.765
  132SOL    HW2 1997   1.666   0.979   1.920
  133SOL     OW 1998   0.307   0.063   0.618
  133SOL    HW1 1999   0.296   0.157   0.651
  133SOL    HW2 2000   0.302   0.000   0.695
  134SOL     OW 2001   1.622   0.367   0.374
  134SOL    HW1 2002   1.624   0.291   0.438
  134SOL    HW2 2003   1.574   0.444   0.414
  135SOL     OW 2004   1.023   0.766   0.966
  135SOL    HW1 2005   1.038   0.787   1.062
  135SOL    HW2 2006   0.993   0.671   0.957
  136SOL     OW 2007   0.980   1.573   1.700
  136SOL    HW1 2008   0.960   1.617   1.612
  136SOL    HW2 2009   1.019   1.482   1.684
  137SOL     OW 2010   1.859   1.518   1.605
  137SOL    HW1 2011   1.873   1.545   1.510
  137SOL    HW2 2012   1.942   1.540   1.658
  138SOL     OW 2013   0.350   0.898   1.804
  138SOL    HW1 2014   0.426   0.942   1.852
  138SOL    HW2 2015   0.385   0.851   1.722
  139SOL     OW 2016   1.540   0.274   0.125
  139SOL    HW1 2017   1.479   0.199   0.148
  139SOL    HW2 2018   1.562   0.326   0.208
  140SOL     OW 2019   1.303   0.838   0.042
  140SOL    HW1 2020   1.337   0.745   0.057
  140SOL    HW2 2021   1.321   0.865  -0.053
  141SOL     OW 2022   1.068   1.333   0.849
  141SOL    HW1 2023   1.075   1.249   0.794
  141SOL    HW2 2024   1.130   1.402   0.813
  142SOL     OW 2025   0.319   0.810   0.949
  142SOL    HW1 2026   0.412   0.846   0.954
  142SOL    HW2 2027   0.313   0.725   1.001
  143SOL     OW 2028   0.339   0.509   1.006
  143SOL    HW1 2029   0.287   0.426   0.989
  143SOL    HW2 2030   0.416   0.514   0.942
  144SOL     OW 2031   1.138   0.380   1.678
  144SOL    HW1 2032   1.093   0.443   1.742
  144SOL    HW2 2033   1.231   0.411   1.661
  145SOL     OW 2034   1.160   0.207   1.477
  145SOL    HW1 2035   1.160   0.271   1.554
  145SOL    HW2 2036   1.188   0.255   1.394
  146SOL     OW 2037   0.008   1.326   0.200
  146SOL    HW1 2038  -0.085   1.347   0.169
  146SOL    HW2 2039   0.018   1.227   0.213
  147SOL     OW 2040   0.088   1.801   0.927
  147SOL    HW1 2041   0.046   1.715   0.900
  147SOL    HW2 2042   0.182   1.804   0.893
  148SOL     OW 2043   0.504   1.568   0.910
  148SOL    HW1 2044   0.570   1.642   0.919
  148SOL    HW2 2045   0.548   1.489   0.868
  149SOL     OW 2046   1.002   0.796   1.238
  149SOL    HW1 2047   1.043   0.764   1.324
  149SOL    HW2 2048   0.906   0.769   1.235
  150SOL     OW 2049   0.040   0.544   1.114
  150SOL    HW1 2050   0.125   0.511   1.073
  150SOL    HW2 2051   0.053   0.559   1.212
  151SOL     OW 2052   0.189   0.520   1.722
  151SOL    HW1 2053   0.248   0.480   1.652
  151SOL    HW2 2054   0.131   0.591   1.681
  152SOL     OW 2055   1.369   0.950   1.660
  152SOL    HW1 2056   1.408   1.039   1.680
  152SOL    HW2 2057   1.379   0.930   1.563
  153SOL     OW 2058   0.815   0.572   0.325
  153SOL    HW1 2059   0.822   0.483   0.279
  153SOL    HW2 2060   0.721   0.606   0.317
  154SOL     OW 2061   1.657   0.604   1.206
  154SOL    HW1 2062   1.619   0.535   1.268
  154SOL    HW2 2063   1.739   0.568   1.162
  155SOL     OW 2064   0.252   1.564   1.744
  155SOL    HW1 2065   0.222   1.621   1.820
  155SOL    HW2 2066   0.245   1.467   1.770
  156SOL     OW 2067   0.671   0.464   1.269
  156SOL    HW1 2068   0.637   0.375   1.239
  156SOL    HW2 2069   0.697   0.518   1.189
  157SOL     OW 2070   0.930   1.678   1.465
  157SOL    HW1 2071   0.906   1.660   1.370
  157SOL    HW2 2072   0.960   1.772   1.475
  158SOL     OW 2073   0.473   0.500   0.191
  158SOL    HW1 2074   0.534   0.580   0.195
  158SOL    HW2 2075   0.378   0.531   0.198
  159SOL     OW 2076   0.159   1.137   1.466
  159SOL    HW1 2077   0.181   1.076   1.542
  159SOL    HW2 2078   0.169   1.088   1.380
  160SOL     OW 2079   1.347   1.059   1.234
  160SOL    HW1 2080   1.371   0.996   1.160
  160SOL    HW2 2081   1.257   1.099   1.216
  161SOL     OW 2082   1.302   0.855   0.309
  161SOL    HW1 2083   1.216   0.824   0.351
  161SOL    HW2 2084   1.298   0.841   0.210
  162SOL     OW 2085   1.759   1.747   1.154
  162SOL    HW1 2086   1.820   1.777   1.081
  162SOL    HW2 2087   1.721   1.658   1.132
  163SOL     OW 2088   1.252   1.731   1.128
  163SOL    HW1 2089   1.336   1.736   1.074
  163SOL    HW2 2090   1.229   1.635   1.146
  164SOL     OW 2091   0.083   1.258   1.022
  164SOL    HW1 2092   0.078   1.257   1.122
  164SOL    HW2 2093   0.000   1.217   0.984
  165SOL     OW 2094   0.688   1.662   1.716
  165SOL    HW1 2095   0.632   1.743   1.725
  165SOL    HW2 2096   0.740   1.666   1.630
  166SOL     OW 2097   0.903   0.086   0.133
  166SOL    HW1 2098   0.954   0.087   0.047
  166SOL    HW2 2099   0.959   0.044   0.204
  167SOL     OW 2100   1.726   0.135   0.523
  167SOL    HW1 2101   1.799   0.118   0.456
  167SOL    HW2 2102   1.695   0.048   0.561
  168SOL     OW 2103   1.388   1.573   0.477
  168SOL    HW1 2104   1.455   1.585   0.403
  168SOL    HW2 2105   1.348   1.662   0.500
  169SOL     OW 2106   1.280   0.927   0.672
  169SOL    HW1 2107   1.340   0.846   0.674
  169SOL    HW2 2108   1.320   0.996   0.612
  170SOL     OW 2109   0.830   1.273   1.422
  170SOL    HW1 2110   0.825   1.306   1.517
  170SOL    HW2 2111   0.744   1.292   1.376
  171SOL     OW 2112   0.672   1.616   0.154
  171SOL    HW1 2113   0.681   1.626   0.055
  171SOL    HW2 2114   0.632   1.527   0.175
  172SOL     OW 2115   1.650   1.720   1.394
  172SOL    HW1 2116   1.703   1.730   1.310
  172SOL    HW2 2117   1.623   1.810   1.428
  173SOL     OW 2118   1.841   0.175   0.963
  173SOL    HW1 2119   1.880   0.090   0.927
  173SOL    HW2 2120   1.743   0.177   0.944
  174SOL     OW 2121   0.263   0.326   0.720
  174SOL    HW1 2122   0.184   0.377   0.686
  174SOL    HW2 2123   0.254   0.311   0.818
  175SOL     OW 2124   1.194   1.612   0.031
  175SOL    HW1 2125   1.200   1.519   0.068
  175SOL    HW2 2126   1.135   1.612  -0.049
  176SOL     OW 2127   0.822   1.002   1.372
  176SOL    HW1 2128   0.862   1.001   1.280
  176SOL    HW2 2129   0.832   1.094   1.412
  177SOL     OW 2130   0.916   0.910   0.291
  177SOL    HW1 2131   0.979   0.948   0.223
  177SOL    HW2 2132   0.956   0.827   0.330
  178SOL     OW 2133   1.504   1.607   0.044
  178SOL    HW1 2134   1.412   1.644   0.051
  178SOL    HW2 2135   1.542   1.627  -0.046
  179SOL     OW 2136   0.372   1.288   1.490
  179SOL    HW1 2137   0.359   1.381   1.456
  179SOL    HW2 2138   0.288   1.236   1.477
  180SOL     OW 2139   1.614   1.292   1.289
  180SOL    HW1 2140   1.674   1.295   1.369
  180SOL    HW2 2141   1.539   1.356   1.302
  181SOL     OW 2142   1.039   1.098   0.696
  181SOL    HW1 2143   0.969   1.051   0.750
  181SOL    HW2 2144   1.098   1.030   0.653
  182SOL     OW 2145   1.014   0.236   0.971
  182SOL    HW1 2146   1.006   0.200   0.878
  182SOL    HW2 2147   1.012   0.160   1.036
  183SOL     OW 2148   0.590   1.487   0.491
  183SOL    HW1 2149   0.632   1.429   0.421
  183SOL    HW2 2150   0.546   1.566   0.447
  184SOL     OW 2151   1.709   0.385   1.381
  184SOL    HW1 2152   1.782   0.454   1.385
  184SOL    HW2 2153   1.737   0.310   1.322
  185SOL     OW 2154   0.255   1.348   0.290
  185SOL    HW1 2155   0.159   1.349   0.263
  185SOL    HW2 2156   0.267   1.401   0.374
  186SOL     OW 2157   0.105   1.013   1.726
  186SOL    HW1 2158   0.028   0.980   1.780
  186SOL    HW2 2159   0.190   0.983   1.768
  187SOL     OW 2160   0.672   0.203   1.489
  187SOL    HW1 2161   0.762   0.187   1.449
  187SOL    HW2 2162   0.680   0.208   1.588
  188SOL     OW 2163   0.075   0.345   0.033
  188SOL    HW1 2164  -0.017   0.317   0.004
  188SOL    HW2 2165   0.106   0.422  -0.023
  189SOL     OW 2166   1.440   0.856   1.398
  189SOL    HW1 2167   1.383   0.908   1.335
  189SOL    HW2 2168   1.536   0.868   1.374
  190SOL     OW 2169   0.072   0.166   0.318
  190SOL    HW1 2170   0.055   0.249   0.264
  190SOL    HW2 2171   0.162   0.129   0.296
  191SOL     OW 2172   1.183   1.335   0.119
  191SOL    HW1 2173   1.084   1.324   0.121
  191SOL    HW2 2174   1.217   1.350   0.212
  192SOL     OW 2175   0.613   0.842   1.431
  192SOL    HW1 2176   0.669   0.923   1.414
  192SOL    HW2 2177   0.672   0.762   1.434
  193SOL     OW 2178   1.493   1.767   0.959
  193SOL    HW1 2179   1.526   1.831   0.890
  193SOL    HW2 2180   1.559   1.761   1.034
  194SOL     OW 2181   0.716   0.565   1.708
  194SOL    HW1 2182   0.735   0.630   1.782
  194SOL    HW2 2183   0.776   0.485   1.717
  195SOL     OW 2184   1.450   1.220   1.633
  195SOL    HW1 2185   1.441   1.210   1.732
  195SOL    HW2 2186   1.546   1.213   1.607
  196SOL     OW 2187   0.390   1.741   1.560
  196SOL    HW1 2188   0.299   1.782   1.558
  196SOL    HW2 2189   0.383   1.647   1.592
  197SOL     OW 2190   1.674   0.883   1.254
  197SOL    HW1 2191   1.647   0.794   1.217
  197SOL    HW2 2192   1.675   0.951   1.181
  198SOL     OW 2193   1.225   0.325   0.449
  198SOL    HW1 2194   1.290   0.251   0.438
  198SOL    HW2 2195   1.245   0.375   0.533
  199SOL     OW 2196   0.594   0.745   0.652
  199SOL    HW1 2197   0.644   0.830   0.633
  199SOL    HW2 2198   0.506   0.747   0.604
  200SOL     OW 2199   1.777   0.342   1.642
  200SOL    HW1 2200   1.760   0.373   1.548
  200SOL    HW2 2201   1.693   0.305   1.680
  201SOL     OW 2202   1.730   0.934   1.517
  201SOL    HW1 2203   1.768   1.025   1.532
  201SOL    HW2 2204   1.722   0.917   1.418
  202SOL     OW 2205   0.859   1.374   0.016
  202SOL    HW1 2206   0.813   1.389   0.104
  202SOL    HW2 2207   0.903   1.459  -0.014
  203SOL     OW 2208   0.661   1.790   0.953
  203SOL    HW1 2209   0.615   1.878   0.940
  203SOL    HW2 2210   0.760   1.802   0.946
  204SOL     OW 2211   0.859   0.956   0.861
  204SOL    HW1 2212   0.913   0.887   0.909
  204SOL    HW2 2213   0.827   1.025   0.927
  205SOL     OW 2214   1.083   0.984   0.087
  205SOL    HW1 2215   1.060   1.037   0.005
  205SOL    HW2 2216   1.164   0.928   0.068
  206SOL     OW 2217   1.861   1.569   0.851
  206SOL    HW1 2218   1.790   1.557   0.781
  206SOL    HW2 2219   1.862   1.490   0.911
  207SOL     OW 2220   0.221   1.314   1.844
  207SOL    HW1 2221   0.156   1.241   1.823
  207SOL    HW2 2222   0.225   1.328   1.942
  208SOL     OW 2223   0.079   1.240   0.653
  208SOL    HW1 2224   0.078   1.193   0.741
  208SOL    HW2 2225   0.161   1.212   0.602
  209SOL     OW 2226   0.672   1.391   1.624
  209SOL    HW1 2227   0.594   1.341   1.662
  209SOL    HW2 2228   0.669   1.486   1.655
  210SOL     OW 2229   1.824   0.192   1.227
  210SOL    HW1 2230   1.820   0.102   1.271
  210SOL    HW2 2231   1.827   0.181   1.128
  211SOL     OW 2232   0.428   0.424   0.520
  211SOL    HW1 2233   0.458   0.352   0.458
  211SOL    HW2 2234   0.389   0.384   0.603
  212SOL     OW 2235   1.705   1.487   1.104
  212SOL    HW1 2236   1.612   1.462   1.077
  212SOL    HW2 2237   1.731   1.437   1.186
  213SOL     OW 2238   0.317   0.547   1.280
  213SOL    HW1 2239   0.355   0.488   1.352
  213SOL    HW2 2240   0.357   0.521   1.192
  214SOL     OW 2241   0.812   1.586   0.687
  214SOL    HW1 2242   0.844   1.596   0.593
  214SOL    HW2 2243   0.733   1.524   0.689
  215SOL     OW 2244   1.424   0.214   1.112
  215SOL    HW1 2245   1.476   0.149   1.167
  215SOL    HW2 2246   1.375   0.277   1.173
  216SOL     OW 2247   1.001   0.034   1.154
  216SOL    HW1 2248   0.938  -0.038   1.123
  216SOL    HW2 2249   1.094  -0.002   1.154
  217SOL     OW 2250   0.770   1.330   0.301
  217SOL    HW1 2251   0.724   1.243   0.318
  217SOL    HW2 2252   0.861   1.327   0.342
  218SOL     OW 2253   0.618   1.567   1.284
  218SOL    HW1 2254   0.613   1.649   1.341
  218SOL    HW2 2255   0.707   1.564   1.239
  219SOL     OW 2256   1.352   0.052   0.168
  219SOL    HW1 2257   1.387   0.011   0.084
  219SOL    HW2 2258   1.262   0.014   0.188
  220SOL     OW 2259   1.300   0.453   0.691
  220SOL    HW1 2260   1.241   0.533   0.695
  220SOL    HW2 2261   1.315   0.418   0.784
  221SOL     OW 2262   1.593   0.221   0.882
  221SOL    HW1 2263   1.509   0.220   0.936
  221SOL    HW2 2264   1.595   0.304   0.826
  222SOL     OW 2265   0.039   1.077   0.300
  222SOL    HW1 2266   0.138   1.066   0.291
  222SOL    HW2 2267  -0.001   0.991   0.332
  223SOL     OW 2268   0.875   1.646   0.337
  223SOL    HW1 2269   0.798   1.611   0.283
  223SOL    HW2 2270   0.843   1.717   0.399
  224SOL     OW 2271   0.230   0.628   1.975
  224SOL    HW1 2272   0.137   0.626   2.012
  224SOL    HW2 2273   0.231   0.589   1.883
  225SOL     OW 2274   0.225   0.275   2.858
  225SOL    HW1 2275   0.260   0.258   2.950
  225SOL    HW2 2276   0.137   0.230   2.846
  226SOL     OW 2277   0.019   0.368   2.509
  226SOL    HW1 2278  -0.063   0.411   2.548
  226SOL    HW2 2279  -0.009   0.295   2.446
  227SOL     OW 2280   0.569   1.275   3.027
  227SOL    HW1 2281   0.476   1.268   2.990
  227SOL    HW2 2282   0.580   1.364   3.071
  228SOL     OW 2283   1.555   1.511   2.565
  228SOL    HW1 2284   1.498   1.495   2.646
  228SOL    HW2 2285   1.496   1.521   2.485
  229SOL     OW 2286   1.135   0.703   2.579
  229SOL    HW1 2287   1.192   0.781   2.554
  229SOL    HW2 2288   1.075   0.729   2.655
  230SOL     OW 2289   1.755   0.607   2.093
  230SOL    HW1 2290   1.743   0.594   1.994
  230SOL    HW2 2291   1.725   0.526   2.142
  231SOL     OW 2292   0.768   1.144   2.885
  231SOL    HW1 2293   0.690   1.161   2.945
  231SOL    HW2 2294   0.802   1.231   2.849
  232SOL     OW 2295   0.850   0.798   3.685
  232SOL    HW1 2296   0.846   0.874   3.750
  232SOL    HW2 2297   0.872   0.834   3.594
  233SOL     OW 2298   0.685   1.012   2.527
  233SOL    HW1 2299   0.754   0.996   2.597
  233SOL    HW2 2300   0.612   1.069   2.565
  234SOL     OW 2301   0.686   1.161   3.665
  234SOL    HW1 2302   0.746   1.240   3.679
  234SOL    HW2 2303   0.600   1.192   3.624
  235SOL     OW 2304   0.335   1.435   2.923
  235SOL    HW1 2305   0.257   1.404   2.870
  235SOL    HW2 2306   0.393   1.493   2.866
  236SOL     OW 2307   1.460   1.505   3.201
  236SOL    HW1 2308   1.484   1.599   3.227
  236SOL    HW2 2309   1.444   1.451   3.283
  237SOL     OW 2310   0.438   0.392   3.361
  237SOL    HW1 2311   0.520   0.336   3.370
  237SOL    HW2 2312   0.357   0.334   3.365
  238SOL     OW 2313   1.603   0.447   2.599
  238SOL    HW1 2314   1.529   0.493   2.549
  238SOL    HW2 2315   1.654   0.515   2.652
  239SOL     OW 2316   0.231   1.713   2.345
  239SOL    HW1 2317   0.265   1.790   2.399
  239SOL    HW2 2318   0.275   1.713   2.255
  240SOL     OW 2319   1.127   1.341   3.552
  240SOL    HW1 2320   1.174   1.341   3.640
  240SOL    HW2 2321   1.079   1.254   3.541
  241SOL     OW 2322   0.230   1.434   2.400
  241SOL    HW1 2323   0.204   1.530   2.400
  241SOL    HW2 2324   0.159   1.380   2.445
  242SOL     OW 2325   0.240   1.091   2.748
  242SOL    HW1 2326   0.254   1.007   2.800
  242SOL    HW2 2327   0.185   1.155   2.803
  243SOL     OW 2328   0.620   1.786   3.301
  243SOL    HW1 2329   0.528   1.769   3.336
  243SOL    HW2 2330   0.648   1.878   3.327
  244SOL     OW 2331   0.606   0.964   1.985
  244SOL    HW1 2332   0.613   1.048   1.931
  244SOL    HW2 2333   0.652   0.977   2.073
  245SOL     OW 2334   1.594   0.114   3.342
  245SOL    HW1 2335   1.576   0.181   3.270
  245SOL    HW2 2336   1.591   0.160   3.431
  246SOL     OW 2337   0.122   0.643   2.425
  246SOL    HW1 2338   0.077   0.555   2.442
  246SOL    HW2 2339   0.121   0.697   2.509
  247SOL     OW 2340   1.842   1.767   2.221
  247SOL    HW1 2341   1.896   1.738   2.301
  247SOL    HW2 2342   1.872   1.857   2.192
  248SOL     OW 2343   0.027   1.596   1.979
  248SOL    HW1 2344   0.008   1.500   2.000
  248SOL    HW2 2345  -0.006   1.654   2.054
  249SOL     OW 2346   1.689   0.922   2.474
  249SOL    HW1 2347   1.784   0.893   2.482
  249SOL    HW2 2348   1.681   0.987   2.399
  250SOL     OW 2349   1.641   1.108   2.294
  250SOL    HW1 2350   1.727   1.110   2.242
  250SOL    HW2 2351   1.655   1.155   2.382
  251SOL     OW 2352   0.113   0.737   3.459
  251SOL    HW1 2353   0.201   0.724   3.504
  251SOL    HW2 2354   0.100   0.834   3.437
  252SOL     OW 2355   0.613   1.365   2.588
  252SOL    HW1 2356   0.564   1.278   2.597
  252SOL    HW2 2357   0.590   1.408   2.501
  253SOL     OW 2358   1.293   1.228   3.285
  253SOL    HW1 2359   1.330   1.155   3.227
  253SOL    HW2 2360   1.345   1.233   3.370
  254SOL     OW 2361   0.809   0.004   2.364
  254SOL    HW1 2362   0.849   0.095   2.355
  254SOL    HW2 2363   0.709   0.012   2.370
  255SOL     OW 2364   0.197   0.976   3.126
  255SOL    HW1 2365   0.286   0.931   3.112
  255SOL    HW2 2366   0.124   0.911   3.107
  256SOL     OW 2367   1.525   0.999   2.052
  256SOL    HW1 2368   1.462   0.923   2.065
  256SOL    HW2 2369   1.573   1.017   2.138
  257SOL     OW 2370   1.187   1.792   3.478
  257SOL    HW1 2371   1.211   1.852   3.402
  257SOL    HW2 2372   1.194   1.697   3.448
  258SOL     OW 2373   0.317   0.251   3.663
  258SOL    HW1 2374   0.388   0.322   3.669
  258SOL    HW2 2375   0.229   0.290   3.691
  259SOL     OW 2376   1.466   1.417   2.815
  259SOL    HW1 2377   1.407   1.423   2.895
  259SOL    HW2 2378   1.451   1.329   2.769
  260SOL     OW 2379   1.667   1.714   2.434
  260SOL    HW1 2380   1.626   1.691   2.346
  260SOL    HW2 2381   1.649   1.640   2.499
  261SOL     OW 2382   0.598   0.729   2.132
  261SOL    HW1 2383   0.622   0.798   2.064
  261SOL    HW2 2384   0.520   0.762   2.186
  262SOL     OW 2385   1.281   0.345   2.806
  262SOL    HW1 2386   1.195   0.295   2.793
  262SOL    HW2 2387   1.343   0.291   2.862
  263SOL     OW 2388   1.576   1.662   2.169
  263SOL    HW1 2389   1.665   1.708   2.172
  263SOL    HW2 2390   1.555   1.638   2.074
  264SOL     OW 2391   0.807   0.605   3.327
  264SOL    HW1 2392   0.760   0.602   3.416
  264SOL    HW2 2393   0.756   0.550   3.261
  265SOL     OW 2394   1.394   0.469   3.536
  265SOL    HW1 2395   1.374   0.512   3.624
  265SOL    HW2 2396   1.472   0.407   3.545
  266SOL     OW 2397   0.973   0.890   3.434
  266SOL    HW1 2398   1.019   0.806   3.405
  266SOL    HW2 2399   0.917   0.924   3.359
  267SOL     OW 2400   0.991   0.410   3.104
  267SOL    HW1 2401   0.914   0.444   3.158
  267SOL    HW2 2402   0.957   0.359   3.025
  268SOL     OW 2403   1.041   0.701   2.291
  268SOL    HW1 2404   1.067   0.697   2.387
  268SOL    HW2 2405   0.956   0.650   2.277
  269SOL     OW 2406   0.076   0.811   2.651
  269SOL    HW1 2407   0.175   0.799   2.660
  269SOL    HW2 2408   0.052   0.906   2.672
  270SOL     OW 2409   0.130   1.821   3.433
  270SOL    HW1 2410   0.120   1.806   3.532
  270SOL    HW2 2411   0.044   1.857   3.397
  271SOL     OW 2412   0.865   0.348   2.057
  271SOL    HW1 2413   0.924   0.411   2.008
  271SOL    HW2 2414   0.884   0.254   2.028
  272SOL     OW 2415   1.719   0.585   3.693
  272SOL    HW1 2416   1.693   0.674   3.657
  272SOL    HW2 2417   1.717   0.517   3.620
  273SOL     OW 2418   1.362   1.144   2.407
  273SOL    HW1 2419   1.445   1.115   2.359
  273SOL    HW2 2420   1.313   1.211   2.351
  274SOL     OW 2421   0.550   0.196   2.747
  274SOL    HW1 2422   0.545   0.191   2.847
  274SOL    HW2 2423   0.552   0.292   2.718
  275SOL     OW 2424   1.008   1.456   2.339
  275SOL    HW1 2425   0.962   1.528   2.287
  275SOL    HW2 2426   1.004   1.476   2.437
  276SOL     OW 2427   0.351   1.801   2.715
  276SOL    HW1 2428   0.401   1.715   2.721
  276SOL    HW2 2429   0.416   1.878   2.712
  277SOL     OW 2430   1.795   1.066   2.735
  277SOL    HW1 2431   1.733   1.051   2.659
  277SOL    HW2 2432   1.743   1.077   2.820
  278SOL     OW 2433   1.227   1.550   3.368
  278SOL    HW1 2434   1.233   1.473   3.432
  278SOL    HW2 2435   1.175   1.524   3.288
  279SOL     OW 2436   0.321   0.943   2.104
  279SOL    HW1 2437   0.403   0.982   2.062
  279SOL    HW2 2438   0.294   0.861   2.055
  280SOL     OW 2439   1.458   0.735   2.590
  280SOL    HW1 2440   1.453   0.670   2.665
  280SOL    HW2 2441   1.538   0.794   2.603
  281SOL     OW 2442   0.461   1.266   3.589
  281SOL    HW1 2443   0.411   1.267   3.503
  281SOL    HW2 2444   0.398   1.248   3.665
  282SOL     OW 2445   1.111   1.776   2.099
  282SOL    HW1 2446   1.051   1.714   2.149
  282SOL    HW2 2447   1.142   1.732   2.014
  283SOL     OW 2448   0.202   0.285   3.360
  283SOL    HW1 2449   0.122   0.345   3.347
  283SOL    HW2 2450   0.192   0.236   3.446
  284SOL     OW 2451   1.632   1.377   1.943
  284SOL    HW1 2452   1.600   1.471   1.933
  284SOL    HW2 2453   1.556   1.314   1.931
  285SOL     OW 2454   0.464   1.743   2.185
  285SOL    HW1 2455   0.497   1.782   2.271
  285SOL    HW2 2456   0.540   1.736   2.120
  286SOL     OW 2457   1.400   0.107   2.288
  286SOL    HW1 2458   1.376   0.070   2.198
  286SOL    HW2 2459   1.499   0.123   2.292
  287SOL     OW 2460   0.249   1.785   3.103
  287SOL    HW1 2461   0.306   1.720   3.153
  287SOL    HW2 2462   0.233   1.752   3.010
  288SOL     OW 2463   0.940   1.698   2.766
  288SOL    HW1 2464   1.020   1.641   2.787
  288SOL    HW2 2465   0.891   1.658   2.689
  289SOL     OW 2466   0.382   0.700   2.342
  289SOL    HW1 2467   0.427   0.610   2.339
  289SOL    HW2 2468   0.288   0.689   2.375
  290SOL     OW 2469   1.547   0.222   3.591
  290SOL    HW1 2470   1.542   0.259   3.683
  290SOL    HW2 2471   1.475   0.153   3.579
  291SOL     OW 2472   0.614   0.122   1.979
  291SOL    HW1 2473   0.712   0.100   1.986
  291SOL    HW2 2474   0.583   0.105   1.886
  292SOL     OW 2475   0.781   0.264   3.611
  292SOL    HW1 2476   0.848   0.203   3.654
  292SOL    HW2 2477   0.708   0.283   3.676
  293SOL     OW 2478   0.888   1.514   3.057
  293SOL    HW1 2479   0.865   1.489   2.963
  293SOL    HW2 2480   0.949   1.445   3.096
  294SOL     OW 2481   1.351   0.590   3.295
  294SOL    HW1 2482   1.379   0.547   3.380
  294SOL    HW2 2483   1.376   0.686   3.296
  295SOL     OW 2484   0.803   1.402   2.786
  295SOL    HW1 2485   0.893   1.416   2.744
  295SOL    HW2 2486   0.732   1.404   2.715
  296SOL     OW 2487   0.922   0.503   2.761
  296SOL    HW1 2488   0.897   0.494   2.665
  296SOL    HW2 2489   0.970   0.421   2.792
  297SOL     OW 2490   0.539   0.064   2.374
  297SOL    HW1 2491   0.458   0.065   2.432
  297SOL    HW2 2492   0.542   0.147   2.319
  298SOL     OW 2493   1.434   1.188   1.903
  298SOL    HW1 2494   1.466   1.112   1.960
  298SOL    HW2 2495   1.342   1.215   1.933
  299SOL     OW 2496   0.297   0.035   2.033
  299SOL    HW1 2497   0.346   0.119   2.012
  299SOL    HW2 2498   0.359  -0.030   2.078
  300SOL     OW 2499   0.935   0.236   2.342
  300SOL    HW1 2500   0.887   0.277   2.264
  300SOL    HW2 2501   1.034   0.234   2.323
  301SOL     OW 2502   1.076   0.683   3.326
  301SOL    HW1 2503   0.996   0.622   3.329
  301SOL    HW2 2504   1.157   0.630   3.302
  302SOL     OW 2505   1.227   1.570   2.655
  302SOL    HW1 2506   1.248   1.644   2.590
  302SOL    HW2 2507   1.295   1.570   2.728
  303SOL     OW 2508   0.459   1.152   2.603
  303SOL    HW1 2509   0.388   1.125   2.668
  303SOL    HW2 2510   0.433   1.124   2.510
  304SOL     OW 2511   1.271   1.797   2.453
  304SOL    HW1 2512   1.315   1.861   2.389
  304SOL    HW2 2513   1.221   1.849   2.523
  305SOL     OW 2514   1.032   0.549   1.878
  305SOL    HW1 2515   0.991   0.631   1.839
  305SOL    HW2 2516   1.096   0.575   1.951
  306SOL     OW 2517   0.078   0.556   3.248
  306SOL    HW1 2518   0.170   0.555   3.207
  306SOL    HW2 2519   0.072   0.630   3.315
  307SOL     OW 2520   0.561   0.222   3.009
  307SOL    HW1 2521   0.599   0.138   3.046
  307SOL    HW2 2522   0.473   0.241   3.053
  308SOL     OW 2523   0.866   0.454   2.504
  308SOL    HW1 2524   0.834   0.526   2.442
  308SOL    HW2 2525   0.890   0.373   2.451
  309SOL     OW 2526   1.017   0.039   2.615
  309SOL    HW1 2527   0.945   0.044   2.546
  309SOL    HW2 2528   0.993  -0.030   2.684
  310SOL     OW 2529   1.429   1.173   2.729
  310SOL    HW1 2530   1.374   1.089   2.722
  310SOL    HW2 2531   1.455   1.202   2.637
  311SOL     OW 2532   1.466   0.590   2.854
  311SOL    HW1 2533   1.436   0.495   2.861
  311SOL    HW2 2534   1.539   0.606   2.920
  312SOL     OW 2535   1.857   0.833   2.239
  312SOL    HW1 2536   1.899   0.769   2.303
  312SOL    HW2 2537   1.819   0.782   2.161
  313SOL     OW 2538   0.488   1.385   2.036
  313SOL    HW1 2539   0.401   1.370   2.083
  313SOL    HW2 2540   0.471   1.411   1.941
  314SOL     OW 2541   1.664   1.280   2.519
  314SOL    HW1 2542   1.763   1.288   2.533
  314SOL    HW2 2543   1.619   1.364   2.550
  315SOL     OW 2544   1.390   0.575   1.940
  315SOL    HW1 2545   1.336   0.554   2.021
  315SOL    HW2 2546   1.481   0.534   1.949
  316SOL     OW 2547   0.527   0.256   2.190
  316SOL    HW1 2548   0.554   0.197   2.115
  316SOL    HW2 2549   0.527   0.351   2.159
  317SOL     OW 2550   1.754   1.223   3.450
  317SOL    HW1 2551   1.845   1.184   3.437
  317SOL    HW2 2552   1.762   1.319   3.474
  318SOL     OW 2553   1.064   1.347   3.202
  318SOL    HW1 2554   0.984   1.324   3.257
  318SOL    HW2 2555   1.147   1.321   3.251
  319SOL     OW 2556   1.592   1.629   3.487
  319SOL    HW1 2557   1.619   1.663   3.397
  319SOL    HW2 2558   1.671   1.591   3.533
  320SOL     OW 2559   1.111   1.195   2.962
  320SOL    HW1 2560   1.071   1.239   3.043
  320SOL    HW2 2561   1.070   1.232   2.879
  321SOL     OW 2562   1.638   1.099   2.941
  321SOL    HW1 2563   1.643   1.180   3.000
  321SOL    HW2 2564   1.552   1.101   2.890
  322SOL     OW 2565   0.915   0.089   3.264
  322SOL    HW1 2566   0.940   0.069   3.169
  322SOL    HW2 2567   0.987   0.145   3.306
  323SOL     OW 2568   0.980   1.116   3.581
  323SOL    HW1 2569   0.881   1.122   3.591
  323SOL    HW2 2570   1.003   1.036   3.525
  324SOL     OW 2571   0.705   1.050   2.230
  324SOL    HW1 2572   0.691   1.057   2.329
  324SOL    HW2 2573   0.789   0.999   2.212
  325SOL     OW 2574   0.410   0.813   3.113
  325SOL    HW1 2575   0.496   0.825   3.163
  325SOL    HW2 2576   0.368   0.726   3.140
  326SOL     OW 2577   1.274   0.386   3.124
  326SOL    HW1 2578   1.295   0.460   3.188
  326SOL    HW2 2579   1.185   0.403   3.081
  327SOL     OW 2580   0.064   1.564   3.193
  327SOL    HW1 2581   0.018   1.646   3.159
  327SOL    HW2 2582   0.162   1.583   3.202
  328SOL     OW 2583   0.367   1.100   2.363
  328SOL    HW1 2584   0.360   1.183   2.307
  328SOL    HW2 2585   0.371   1.020   2.303
  329SOL     OW 2586   0.566   0.537   2.727
  329SOL    HW1 2587   0.578   0.603   2.653
  329SOL    HW2 2588   0.612   0.571   2.810
  330SOL     OW 2589   1.252   1.348   2.250
  330SOL    HW1 2590   1.302   1.425   2.290
  330SOL    HW2 2591   1.157   1.350   2.282
  331SOL     OW 2592   1.272   1.445   3.004
  331SOL    HW1 2593   1.319   1.458   3.091
  331SOL    HW2 2594   1.206   1.371   3.013
  332SOL     OW 2595   1.582   0.639   2.334
  332SOL    HW1 2596   1.551   0.700   2.407
  332SOL    HW2 2597   1.632   0.691   2.265
  333SOL     OW 2598   0.354   1.510   3.191
  333SOL    HW1 2599   0.333   1.466   3.104
  333SOL    HW2 2600   0.451   1.536   3.194
  334SOL     OW 2601   0.402   0.751   3.460
  334SOL    HW1 2602   0.470   0.806   3.413
  334SOL    HW2 2603   0.442   0.663   3.487
  335SOL     OW 2604   1.587   0.779   3.532
  335SOL    HW1 2605   1.495   0.817   3.527
  335SOL    HW2 2606   1.647   0.826   3.467
  336SOL     OW 2607   1.013   0.105   3.632
  336SOL    HW1 2608   1.019   0.190   3.580
  336SOL    HW2 2609   1.045   0.029   3.575
  337SOL     OW 2610   0.504   0.050   3.602
  337SOL    HW1 2611   0.462  -0.007   3.532
  337SOL    HW2 2612   0.438   0.119   3.634
  338SOL     OW 2613   0.573   0.870   2.891
  338SOL    HW1 2614   0.617   0.959   2.882
  338SOL    HW2 2615   0.510   0.870   2.968
  339SOL     OW 2616   1.360   0.862   2.907
  339SOL    HW1 2617   1.285   0.862   2.841
  339SOL    HW2 2618   1.397   0.770   2.916
  340SOL     OW 2619   1.209   0.525   2.137
  340SOL    HW1 2620   1.222   0.441   2.191
  340SOL    HW2 2621   1.180   0.599   2.197
  341SOL     OW 2622   0.307   0.213   3.093
  341SOL    HW1 2623   0.284   0.250   3.183
  341SOL    HW2 2624   0.277   0.118   3.087
  342SOL     OW 2625   0.037   1.310   3.144
  342SOL    HW1 2626   0.090   1.261   3.212
  342SOL    HW2 2627   0.059   1.408   3.149
  343SOL     OW 2628   0.732   0.634   2.926
  343SOL    HW1 2629   0.791   0.608   2.850
  343SOL    HW2 2630   0.704   0.730   2.915
  344SOL     OW 2631   1.728   0.935   3.716
  344SOL    HW1 2632   1.682   0.928   3.627
  344SOL    HW2 2633   1.666   0.979   3.782
  345SOL     OW 2634   0.307   0.063   2.480
  345SOL    HW1 2635   0.296   0.157   2.513
  345SOL    HW2 2636   0.302   0.000   2.557
  346SOL     OW 2637   1.622   0.367   2.236
  346SOL    HW1 2638   1.624   0.291   2.300
  346SOL    HW2 2639   1.574   0.444   2.276
  347SOL     OW 2640   1.023   0.766   2.828
  347SOL    HW1 2641   1.038   0.787   2.924
  347SOL    HW2 2642   0.993   0.671   2.819
  348SOL     OW 2643   0.980   1.573   3.562
  348SOL    HW1 2644   0.960   1.617   3.474
  348SOL    HW2 2645   1.019   1.482   3.546
  349SOL     OW 2646   1.859   1.518   3.467
  349SOL    HW1 2647   1.873   1.545   3.372
  349SOL    HW2 2648   1.942   1.540   3.520
  350SOL     OW 2649   0.350   0.898   3.666
  350SOL    HW1 2650   0.426   0.942   3.714
  350SOL    HW2 2651   0.385   0.851   3.584
  351SOL     OW 2652   1.540   0.274   1.987
  351SOL    HW1 2653   1.479   0.199   2.010
  351SOL    HW2 2654   1.562   0.326   2.070
  352SOL     OW 2655   1.303   0.838   1.904
  352SOL    HW1 2656   1.337   0.745   1.919
  352SOL    HW2 2657   1.321   0.865   1.809
  353SOL     OW 2658   1.068   1.333   2.711
  353SOL    HW1 2659   1.075   1.249   2.656
  353SOL    HW2 2660   1.130   1.402   2.675
  354SOL     OW 2661   0.319   0.810   2.811
  354SOL    HW1 2662   0.412   0.846   2.816
  354SOL    HW2 2663   0.313   0.725   2.863
  355SOL     OW 2664   0.339   0.509   2.868
  355SOL    HW1 2665   0.287   0.426   2.851
  355SOL    HW2 2666   0.416   0.514   2.804
  356SOL     OW 2667   1.138   0.380   3.540
  356SOL    HW1 2668   1.093   0.443   3.604
  356SOL    HW2 2669   1.231   0.411   3.523
  357SOL     OW 2670   1.160   0.207   3.339
  357SOL    HW1 2671   1.160   0.271   3.416
  357SOL    HW2 2672   1.188   0.255   3.256
  358SOL     OW 2673   0.008   1.326   2.062
  358SOL    HW1 2674  -0.085   1.347   2.031
  358SOL    HW2 2675   0.018   1.227   2.075
  359SOL     OW 2676   0.088   1.801   2.789
  359SOL    HW1 2677   0.046   1.715   2.762
  359SOL    HW2 2678   0.182   1.804   2.755
  360SOL     OW 2679   0.504   1.568   2.772
  360SOL    HW1 2680   0.570   1.642   2.781
  360SOL    HW2 2681   0.548   1.489   2.730
  361SOL     OW 2682   1.002   0.796   3.100
  361SOL    HW1 2683   1.043   0.764   3.186
  361SOL    HW2 2684   0.906   0.769   3.097
  362SOL     OW 2685   0.040   0.544   2.976
  362SOL    HW1 2686   0.125   0.511   2.935
  362SOL    HW2 2687   0.053   0.559   3.074
  363SOL     OW 2688   0.189   0.520   3.584
  363SOL    HW1 2689   0.248   0.480   3.514
  363SOL    HW2 2690   0.131   0.591   3.543
  364SOL     OW 2691   1.369   0.950   3.522
  364SOL    HW1 2692   1.408   1.039   3.542
  364SOL    HW2 2693   1.379   0.930   3.425
  365SOL     OW 2694   0.815   0.572   2.187
  365SOL    HW1 2695   0.822   0.483   2.141
  365SOL    HW2 2696   0.721   0.606   2.179
  366SOL     OW 2697   1.657   0.604   3.068
  366SOL    HW1 2698   1.619   0.535   3.130
  366SOL    HW2 2699   1.739   0.568   3.024
  367SOL     OW 2700   0.252   1.564   3.606
  367SOL    HW1 2701   0.222   1.621   3.682
  367SOL    HW2 2702   0.245   1.467   3.632
  368SOL     OW 2703   0.671   0.464   3.131
  368SOL    HW1 2704   0.637   0.375   3.101
  368SOL    HW2 2705   0.697   0.518   3.051
  369SOL     OW 2706   0.930   1.678   3.327
  369SOL    HW1 2707   0.906   1.660   3.232
  369SOL    HW2 2708   0.960   1.772   3.337
  370SOL     OW 2709   0.473   0.500   2.053
  370SOL    HW1 2710   0.534   0.580   2.057
  370SOL    HW2 2711   0.378   0.531   2.060
  371SOL     OW 2712   0.159   1.137   3.328
  371SOL    HW1 2713   0.181   1.076   3.404
  371SOL    HW2 2714   0.169   1.088   3.242
  372SOL     OW 2715   1.347   1.059   3.096
  372SOL    HW1 2716   1.371   0.996   3.022
  372SOL    HW2 2717   1.257   1.099   3.078
  373SOL     OW 2718   1.302   0.855   2.171
  373SOL    HW1 2719   1.216   0.824   2.213
  373SOL    HW2 2720   1.298   0.841   2.072
  374SOL     OW 2721   1.759   1.747   3.016
  374SOL    HW1 2722   1.820   1.777   2.943
  374SOL    HW2 2723   1.721   1.658   2.994
  375SOL     OW 2724   1.252   1.731   2.990
  375SOL    HW1 2725   1.336   1.736   2.936
  375SOL    HW2 2726   1.229   1.635   3.008
  376SOL     OW 2727   0.083   1.258   2.884
  376SOL    HW1 2728   0.078   1.257   2.984
  376SOL    HW2 2729   0.000   1.217   2.846
  377SOL     OW 2730   0.688   1.662   3.578
  377SOL    HW1 2731   0.632   1.743   3.587
  377SOL    HW2 2732   0.740   1.666   3.492
  378SOL     OW 2733   1.726   0.135   2.385
  378SOL    HW1 2734   1.799   0.118   2.318
  378SOL    HW2 2735   1.695   0.048   2.423
  379SOL     OW 2736   1.388   1.573   2.339
  379SOL    HW1 2737   1.455   1.585   2.265
  379SOL    HW2 2738   1.348   1.662   2.362
  380SOL     OW 2739   0.130   1.794   3.713
  380SOL    HW1 2740   0.089   1.720   3.766
  380SOL    HW2 2741   0.194   1.845   3.771
  381SOL     OW 2742   1.280   0.927   2.534
  381SOL    HW1 2743   1.340   0.846   2.536
  381SOL    HW2 2744   1.320   0.996   2.474
  382SOL     OW 2745   0.830   1.273   3.284
  382SOL    HW1 2746   0.825   1.306   3.379
  382SOL    HW2 2747   0.744   1.292   3.238
  383SOL     OW 2748   0.672   1.616   2.016
  383SOL    HW1 2749   0.681   1.626   1.917
  383SOL    HW2 2750   0.632   1.527   2.037
  384SOL     OW 2751   1.650   1.720   3.256
  384SOL    HW1 2752   1.703   1.730   3.172
  384SOL    HW2 2753   1.623   1.810   3.290
  385SOL     OW 2754   1.841   0.175   2.825
  385SOL    HW1 2755   1.880   0.090   2.789
  385SOL    HW2 2756   1.743   0.177   2.806
  386SOL     OW 2757   0.263   0.326   2.582
  386SOL    HW1 2758   0.184   0.377   2.548
  386SOL    HW2 2759   0.254   0.311   2.680
  387SOL     OW 2760   1.194   1.612   1.893
  387SOL    HW1 2761   1.200   1.519   1.930
  387SOL    HW2 2762   1.135   1.612   1.813
  388SOL     OW 2763   0.822   1.002   3.234
  388SOL    HW1 2764   0.862   1.001   3.142
  388SOL    HW2 2765   0.832   1.094   3.274
  389SOL     OW 2766   0.916   0.910   2.153
  389SOL    HW1 2767   0.979   0.948   2.085
  389SOL    HW2 2768   0.956   0.827   2.192
  390SOL     OW 2769   1.504   1.607   1.906
  390SOL    HW1 2770   1.412   1.644   1.913
  390SOL    HW2 2771   1.542   1.627   1.816
  391SOL     OW 2772   0.372   1.288   3.352
  391SOL    HW1 2773   0.359   1.381   3.318
  391SOL    HW2 2774   0.288   1.236   3.339
  392SOL     OW 2775   1.614   1.292   3.151
  392SOL    HW1 2776   1.674   1.295   3.231
  392SOL    HW2 2777   1.539   1.356   3.164
  393SOL     OW 2778   1.039   1.098   2.558
  393SOL    HW1 2779   0.969   1.051   2.612
  393SOL    HW2 2780   1.098   1.030   2.515
  394SOL     OW 2781   1.014   0.236   2.833
  394SOL    HW1 2782   1.006   0.200   2.740
  394SOL    HW2 2783   1.012   0.160   2.898
  395SOL     OW 2784   0.590   1.487   2.353
  395SOL    HW1 2785   0.632   1.429   2.283
  395SOL    HW2 2786   0.546   1.566   2.309
  396SOL     OW 2787   1.709   0.385   3.243
  396SOL    HW1 2788   1.782   0.454   3.247
  396SOL    HW2 2789   1.737   0.310   3.184
  397SOL     OW 2790   0.255   1.348   2.152
  397SOL    HW1 2791   0.159   1.349   2.125
  397SOL    HW2 2792   0.267   1.401   2.236
  398SOL     OW 2793   0.105   1.013   3.588
  398SOL    HW1 2794   0.028   0.980   3.642
  398SOL    HW2 2795   0.190   0.983   3.630
  399SOL     OW 2796   0.672   0.203   3.351
  399SOL    HW1 2797   0.762   0.187   3.311
  399SOL    HW2 2798   0.680   0.208   3.450
  400SOL     OW 2799   0.075   0.345   1.895
  400SOL    HW1 2800  -0.017   0.317   1.866
  400SOL    HW2 2801   0.106   0.422   1.839
  401SOL     OW 2802   1.440   0.856   3.260
  401SOL    HW1 2803   1.383   0.908   3.197
  401SOL    HW2 2804   1.536   0.868   3.236
  402SOL     OW 2805   0.072   0.166   2.180
  402SOL    HW1 2806   0.055   0.249   2.126
  402SOL    HW2 2807   0.162   0.129   2.158
  403SOL     OW 2808   1.183   1.335   1.981
  403SOL    HW1 2809   1.084   1.324   1.983
  403SOL    HW2 2810   1.217   1.350   2.074
  404SOL     OW 2811   0.613   0.842   3.293
  404SOL    HW1 2812   0.669   0.923   3.276
  404SOL    HW2 2813   0.672   0.762   3.296
  405SOL     OW 2814   1.493   1.767   2.821
  405SOL    HW1 2815   1.526   1.831   2.752
  405SOL    HW2 2816   1.559   1.761   2.896
  406SOL     OW 2817   0.716   0.565   3.570
  406SOL    HW1 2818   0.735   0.630   3.644
  406SOL    HW2 2819   0.776   0.485   3.579
  407SOL     OW 2820   1.450   1.220   3.495
  407SOL    HW1 2821   1.441   1.210   3.594
  407SOL    HW2 2822   1.546   1.213   3.469
  408SOL     OW 2823   0.390   1.741   3.422
  408SOL    HW1 2824   0.299   1.782   3.420
  408SOL    HW2 2825   0.383   1.647   3.454
  409SOL     OW 2826   1.674   0.883   3.116
  409SOL    HW1 2827   1.647   0.794   3.079
  409SOL    HW2 2828   1.675   0.951   3.043
  410SOL     OW 2829   1.225   0.325   2.311
  410SOL    HW1 2830   1.290   0.251   2.300
  410SOL    HW2 2831   1.245   0.375   2.395
  411SOL     OW 2832   0.594   0.745   2.514
  411SOL    HW1 2833   0.644   0.830   2.495
  411SOL    HW2 2834   0.506   0.747   2.466
  412SOL     OW 2835   1.777   0.342   3.504
  412SOL    HW1 2836   1.760   0.373   3.410
  412SOL    HW2 2837   1.693   0.305   3.542
  413SOL     OW 2838   1.730   0.934   3.379
  413SOL    HW1 2839   1.768   1.025   3.394
  413SOL    HW2 2840   1.722   0.917   3.280
  414SOL     OW 2841   0.859   1.374   1.878
  414SOL    HW1 2842   0.813   1.389   1.966
  414SOL    HW2 2843   0.903   1.459   1.848
  415SOL     OW 2844   0.661   1.790   2.815
  415SOL    HW1 2845   0.615   1.878   2.802
  415SOL    HW2 2846   0.760   1.802   2.808
  416SOL     OW 2847   0.859   0.956   2.723
  416SOL    HW1 2848   0.913   0.887   2.771
  416SOL    HW2 2849   0.827   1.025   2.789
  417SOL     OW 2850   1.083   0.984   1.949
  417SOL    HW1 2851   1.060   1.037   1.867
  417SOL    HW2 2852   1.164   0.928   1.930
  418SOL     OW 2853   1.861   1.569   2.713
  418SOL    HW1 2854   1.790   1.557   2.643
  418SOL    HW2 2855   1.862   1.490   2.773
  419SOL     OW 2856   0.221   1.314   3.706
  419SOL    HW1 2857   0.156   1.241   3.685
  419SOL    HW2 2858   0.225   1.328   3.804
  420SOL     OW 2859   0.079   1.240   2.515
  420SOL    HW1 2860   0.078   1.193   2.603
  420SOL    HW2 2861   0.161   1.212   2.464
  421SOL     OW 2862   0.672   1.391   3.486
  421SOL    HW1 2863   0.594   1.341   3.524
  421SOL    HW2 2864   0.669   1.486   3.517
  422SOL     OW 2865   1.824   0.192   3.089
  422SOL    HW1 2866   1.820   0.102   3.133
  422SOL    HW2 2867   1.827   0.181   2.990
  423SOL     OW 2868   0.428   0.424   2.382
  423SOL    HW1 2869   0.458   0.352   2.320
  423SOL    HW2 2870   0.389   0.384   2.465
  424SOL     OW 2871   1.705   1.487   2.966
  424SOL    HW1 2872   1.612   1.462   2.939
  424SOL    HW2 2873   1.731   1.437   3.048
  425SOL     OW 2874   0.317   0.547   3.142
  425SOL    HW1 2875   0.355   0.488   3.214
  425SOL    HW2 2876   0.357   0.521   3.054
  426SOL     OW 2877   0.812   1.586   2.549
  426SOL    HW1 2878   0.844   1.596   2.455
  426SOL    HW2 2879   0.733   1.524   2.551
  427SOL     OW 2880   1.424   0.214   2.974
  427SOL    HW1 2881   1.476   0.149   3.029
  427SOL    HW2 2882   1.375   0.277   3.035
  428SOL     OW 2883   1.001   0.034   3.016
  428SOL    HW1 2884   0.938  -0.038   2.985
  428SOL    HW2 2885   1.094  -0.002   3.016
  429SOL     OW 2886   0.770   1.330   2.163
  429SOL    HW1 2887   0.724   1.243   2.180
  429SOL    HW2 2888   0.861   1.327   2.204
  430SOL     OW 2889   0.618   1.567   3.146
  430SOL    HW1 2890   0.613   1.649   3.203
  430SOL    HW2 2891   0.707   1.564   3.101
  431SOL     OW 2892   1.352   0.052   2.030
  431SOL    HW1 2893   1.387   0.011   1.946
  431SOL    HW2 2894   1.262   0.014   2.050
  432SOL     OW 2895   1.300   0.453   2.553
  432SOL    HW1 2896   1.241   0.533   2.557
  432SOL    HW2 2897   1.315   0.418   2.646
  433SOL     OW 2898   1.593   0.221   2.744
  433SOL    HW1 2899   1.509   0.220   2.798
  433SOL    HW2 2900   1.595   0.304   2.688
  434SOL     OW 2901   0.039   1.077   2.162
  434SOL    HW1 2902   0.138   1.066   2.153
  434SOL    HW2 2903  -0.001   0.991   2.194
  435SOL     OW 2904   0.875   1.646   2.199
  435SOL    HW1 2905   0.798   1.611   2.145
  435SOL    HW2 2906   0.843   1.717   2.261
  436SOL     OW 2907   0.230   0.628   3.837
  436SOL    HW1 2908   0.137   0.626   3.874
  436SOL    HW2 2909   0.231   0.589   3.745
  437SOL     OW 2910   0.225   0.275   4.720
  437SOL    HW1 2911   0.260   0.258   4.812
  437SOL    HW2 2912   0.137   0.230   4.708
  438SOL     OW 2913   0.019   0.368   4.371
  438SOL    HW1 2914  -0.063   0.411   4.410
  438SOL    HW2 2915  -0.009   0.295   4.308
  439SOL     OW 2916   0.569   1.275   4.889
  439SOL    HW1 2917   0.476   1.268   4.852
  439SOL    HW2 2918   0.580   1.364   4.933
  440SOL     OW 2919   1.555   1.511   4.427
  440SOL    HW1 2920   1.498   1.495   4.508
  440SOL    HW2 2921   1.496   1.521   4.347
  441SOL     OW 2922   1.135   0.703   4.441
  441SOL    HW1 2923   1.192   0.781   4.416
  441SOL    HW2 2924   1.075   0.729   4.517
  442SOL     OW 2925   1.755   0.607   3.955
  442SOL    HW1 2926   1.743   0.594   3.856
  442SOL    HW2 2927   1.725   0.526   4.004
  443SOL     OW 2928   0.768   1.144   4.747
  443SOL    HW1 2929   0.690   1.161   4.807
  443SOL    HW2 2930   0.802   1.231   4.711
  444SOL     OW 2931   0.850   0.798   5.547
  444SOL    HW1 2932   0.846   0.874   5.612
  444SOL    HW2 2933   0.872   0.834   5.456
  445SOL     OW 2934   0.685   1.012   4.389
  445SOL    HW1 2935   0.754   0.996   4.459
  445SOL    HW2 2936   0.612   1.069   4.427
  446SOL     OW 2937   0.686   1.161   5.527
  446SOL    HW1 2938   0.746   1.240   5.541
  446SOL    HW2 2939   0.600   1.192   5.486
  447SOL     OW 2940   0.335   1.435   4.785
  447SOL    HW1 2941   0.257   1.404   4.732
  447SOL    HW2 2942   0.393   1.493   4.728
  448SOL     OW 2943   1.460   1.505   5.063
  448SOL    HW1 2944   1.484   1.599   5.089
  448SOL    HW2 2945   1.444   1.451   5.145
  449SOL     OW 2946   0.438   0.392   5.223
  449SOL    HW1 2947   0.520   0.336   5.232
  449SOL    HW2 2948   0.357   0.334   5.227
  450SOL     OW 2949   1.603   0.447   4.461
  450SOL    HW1 2950   1.529   0.493   4.411
  450SOL    HW2 2951   1.654   0.515   4.514
  451SOL     OW 2952   0.231   1.713   4.207
  451SOL    HW1 2953   0.265   1.790   4.261
  451SOL    HW2 2954   0.275   1.713   4.117
  452SOL     OW 2955   1.127   1.341   5.414
  452SOL    HW1 2956   1.174   1.341   5.502
  452SOL    HW2 2957   1.079   1.254   5.403
  453SOL     OW 2958   0.230   1.434   4.262
  453SOL    HW1 2959   0.204   1.530   4.262
  453SOL    HW2 2960   0.159   1.380   4.307
  454SOL     OW 2961   0.240   1.091   4.610
  454SOL    HW1 2962   0.254   1.007   4.662
  454SOL    HW2 2963   0.185   1.155   4.665
  455SOL     OW 2964   0.620   1.786   5.163
  455SOL    HW1 2965   0.528   1.769   5.198
  455SOL    HW2 2966   0.648   1.878   5.189
  456SOL     OW 2967   0.606   0.964   3.847
  456SOL    HW1 2968   0.613   1.048   3.793
  456SOL    HW2 2969   0.652   0.977   3.935
  457SOL     OW 2970   1.594   0.114   5.204
  457SOL    HW1 2971   1.576   0.181   5.132
  457SOL    HW2 2972   1.591   0.160   5.293
  458SOL     OW 2973   0.122   0.643   4.287
  458SOL    HW1 2974   0.077   0.555   4.304
  458SOL    HW2 2975   0.121   0.697   4.371
  459SOL     OW 2976   1.842   1.767   4.083
  459SOL    HW1 2977   1.896   1.738   4.163
  459SOL    HW2 2978   1.872   1.857   4.054
  460SOL     OW 2979   0.027   1.596   3.841
  460SOL    HW1 2980   0.008   1.500   3.862
  460SOL    HW2 2981  -0.006   1.654   3.916
  461SOL     OW 2982   1.689   0.922   4.336
  461SOL    HW1 2983   1.784   0.893   4.344
  461SOL    HW2 2984   1.681   0.987   4.261
  462SOL     OW 2985   1.641   1.108   4.156
  462SOL    HW1 2986   1.727   1.110   4.104
  462SOL    HW2 2987   1.655   1.155   4.244
  463SOL     OW 2988   0.113   0.737   5.321
  463SOL    HW1 2989   0.201   0.724   5.366
  463SOL    HW2 2990   0.100   0.834   5.299
  464SOL     OW 2991   0.613   1.365   4.450
  464SOL    HW1 2992   0.564   1.278   4.459
  464SOL    HW2 2993   0.590   1.408   4.363
  465SOL     OW 2994   1.293   1.228   5.147
  465SOL    HW1 2995   1.330   1.155   5.089
  465SOL    HW2 2996   1.345   1.233   5.232
  466SOL     OW 2997   0.809   0.004   4.226
  466SOL    HW1 2998   0.849   0.095   4.217
  466SOL    HW2 2999   0.709   0.012   4.232
  467SOL     OW 3000   0.197   0.976   4.988
  467SOL    HW1 3001   0.286   0.931   4.974
  467SOL    HW2 3002   0.124   0.911   4.969
  468SOL     OW 3003   1.525   0.999   3.914
  468SOL    HW1 3004   1.462   0.923   3.927
  468SOL    HW2 3005   1.573   1.017   4.000
  469SOL     OW 3006   1.187   1.792   5.340
  469SOL    HW1 3007   1.211   1.852   5.264
  469SOL    HW2 3008   1.194   1.697   5.310
  470SOL     OW 3009   0.317   0.251   5.525
  470SOL    HW1 3010   0.388   0.322   5.531
  470SOL    HW2 3011   0.229   0.290   5.553
  471SOL     OW 3012   1.466   1.417   4.677
  471SOL    HW1 3013   1.407   1.423   4.757
  471SOL    HW2 3014   1.451   1.329   4.631
  472SOL     OW 3015   1.667   1.714   4.296
  472SOL    HW1 3016   1.626   1.691   4.208
  472SOL    HW2 3017   1.649   1.640   4.361
  473SOL     OW 3018   0.598   0.729   3.994
  473SOL    HW1 3019   0.622   0.798   3.926
  473SOL    HW2 3020   0.520   0.762   4.048
  474SOL     OW 3021   1.281   0.345   4.668
  474SOL    HW1 3022   1.195   0.295   4.655
  474SOL    HW2 3023   1.343   0.291   4.724
  475SOL     OW 3024   1.576   1.662   4.031
  475SOL    HW1 3025   1.665   1.708   4.034
  475SOL    HW2 3026   1.555   1.638   3.936
  476SOL     OW 3027   0.807   0.605   5.189
  476SOL    HW1 3028   0.760   0.602   5.278
  476SOL    HW2 3029   0.756   0.550   5.123
  477SOL     OW 3030   1.394   0.469   5.398
  477SOL    HW1 3031   1.374   0.512   5.486
  477SOL    HW2 3032   1.472   0.407   5.407
  478SOL     OW 3033   0.973   0.890   5.296
  478SOL    HW1 3034   1.019   0.806   5.267
  478SOL    HW2 3035   0.917   0.924   5.221
  479SOL     OW 3036   0.991   0.410   4.966
  479SOL    HW1 3037   0.914   0.444   5.020
  479SOL    HW2 3038   0.957   0.359   4.887
  480SOL     OW 3039   1.041   0.701   4.153
  480SOL    HW1 3040   1.067   0.697   4.249
  480SOL    HW2 3041   0.956   0.650   4.139
  481SOL     OW 3042   0.076   0.811   4.513
  481SOL    HW1 3043   0.175   0.799   4.522
  481SOL    HW2 3044   0.052   0.906   4.534
  482SOL     OW 3045   0.130   1.821   5.295
  482SOL    HW1 3046   0.120   1.806   5.394
  482SOL    HW2 3047   0.044   1.857   5.259
  483SOL     OW 3048   0.865   0.348   3.919
  483SOL    HW1 3049   0.924   0.411   3.870
  483SOL    HW2 3050   0.884   0.254   3.890
  484SOL     OW 3051   1.719   0.585   5.555
  484SOL    HW1 3052   1.693   0.674   5.519
  484SOL    HW2 3053   1.717   0.517   5.482
  485SOL     OW 3054   1.362   1.144   4.269
  485SOL    HW1 3055   1.445   1.115   4.221
  485SOL    HW2 3056   1.313   1.211   4.213
  486SOL     OW 3057   0.550   0.196   4.609
  486SOL    HW1 3058   0.545   0.191   4.709
  486SOL    HW2 3059   0.552   0.292   4.580
  487SOL     OW 3060   1.008   1.456   4.201
  487SOL    HW1 3061   0.962   1.528   4.149
  487SOL    HW2 3062   1.004   1.476   4.299
  488SOL     OW 3063   0.351   1.801   4.577
  488SOL    HW1 3064   0.401   1.715   4.583
  488SOL    HW2 3065   0.416   1.878   4.574
  489SOL     OW 3066   1.795   1.066   4.597
  489SOL    HW1 3067   1.733   1.051   4.521
  489SOL    HW2 3068   1.743   1.077   4.682
  490SOL     OW 3069   1.227   1.550   5.230
  490SOL    HW1 3070   1.233   1.473   5.294
  490SOL    HW2 3071   1.175   1.524   5.150
  491SOL     OW 3072   0.321   0.943   3.966
  491SOL    HW1 3073   0.403   0.982   3.924
  491SOL    HW2 3074   0.294   0.861   3.917
  492SOL     OW 3075   1.458   0.735   4.452
  492SOL    HW1 3076   1.453   0.670   4.527
  492SOL    HW2 3077   1.538   0.794   4.465
  493SOL     OW 3078   0.461   1.266   5.451
  493SOL    HW1 3079   0.411   1.267   5.365
  493SOL    HW2 3080   0.398   1.248   5.527
  494SOL     OW 3081   1.111   1.776   3.961
  494SOL    HW1 3082   1.051   1.714   4.011
  494SOL    HW2 3083   1.142   1.732   3.876
  495SOL     OW 3084   0.202   0.285   5.222
  495SOL    HW1 3085   0.122   0.345   5.209
  495SOL    HW2 3086   0.192   0.236   5.308
  496SOL     OW 3087   1.632   1.377   3.805
  496SOL    HW1 3088   1.600   1.471   3.795
  496SOL    HW2 3089   1.556   1.314   3.793
  497SOL     OW 3090   0.464   1.743   4.047
  497SOL    HW1 3091   0.497   1.782   4.133
  497SOL    HW2 3092   0.540   1.736   3.982
  498SOL     OW 3093   1.400   0.107   4.150
  498SOL    HW1 3094   1.376   0.070   4.060
  498SOL    HW2 3095   1.499   0.123   4.154
  499SOL     OW 3096   0.249   1.785   4.965
  499SOL    HW1 3097   0.306   1.720   5.015
  499SOL    HW2 3098   0.233   1.752   4.872
  500SOL     OW 3099   0.940   1.698   4.628
  500SOL    HW1 3100   1.020   1.641   4.649
  500SOL    HW2 3101   0.891   1.658   4.551
  501SOL     OW 3102   0.382   0.700   4.204
  501SOL    HW1 3103   0.427   0.610   4.201
  501SOL    HW2 3104   0.288   0.689   4.237
  502SOL     OW 3105   1.547   0.222   5.453
  502SOL    HW1 3106   1.542   0.259   5.545
  502SOL    HW2 3107   1.475   0.153   5.441
  503SOL     OW 3108   0.614   0.122   3.841
  503SOL    HW1 3109   0.712   0.100   3.848
  503SOL    HW2 3110   0.583   0.105   3.748
  504SOL     OW 3111   0.781   0.264   5.473
  504SOL    HW1 3112   0.848   0.203   5.516
  504SOL    HW2 3113   0.708   0.283   5.538
  505SOL     OW 3114   0.888   1.514   4.919
  505SOL    HW1 3115   0.865   1.489   4.825
  505SOL    HW2 3116   0.949   1.445   4.958
  506SOL     OW 3117   1.351   0.590   5.157
  506SOL    HW1 3118   1.379   0.547   5.242
  506SOL    HW2 3119   1.376   0.686   5.158
  507SOL     OW 3120   0.803   1.402   4.648
  507SOL    HW1 3121   0.893   1.416   4.606
  507SOL    HW2 3122   0.732   1.404   4.577
  508SOL     OW 3123   0.922   0.503   4.623
  508SOL    HW1 3124   0.897   0.494   4.527
  508SOL    HW2 3125   0.970   0.421   4.654
  509SOL     OW 3126   0.539   0.064   4.236
  509SOL    HW1 3127   0.458   0.065   4.294
  509SOL    HW2 3128   0.542   0.147   4.181
  510SOL     OW 3129   1.434   1.188   3.765
  510SOL    HW1 3130   1.466   1.112   3.822
  510SOL    HW2 3131   1.342   1.215   3.795
  511SOL     OW 3132   0.297   0.035   3.895
  511SOL    HW1 3133   0.346   0.119   3.874
  511SOL    HW2 3134   0.359  -0.030   3.940
  512SOL     OW 3135   0.935   0.236   4.204
  512SOL    HW1 3136   0.887   0.277   4.126
  512SOL    HW2 3137   1.034   0.234   4.185
  513SOL     OW 3138   1.076   0.683   5.188
  513SOL    HW1 3139   0.996   0.622   5.191
  513SOL    HW2 3140   1.157   0.630   5.164
  514SOL     OW 3141   1.227   1.570   4.517
  514SOL    HW1 3142   1.248   1.644   4.452
  514SOL    HW2 3143   1.295   1.570   4.590
  515SOL     OW 3144   0.459   1.152   4.465
  515SOL    HW1 3145   0.388   1.125   4.530
  515SOL    HW2 3146   0.433   1.124   4.372
  516SOL     OW 3147   1.271   1.797   4.315
  516SOL    HW1 3148   1.315   1.861   4.251
  516SOL    HW2 3149   1.221   1.849   4.385
  517SOL     OW 3150   1.032   0.549   3.740
  517SOL    HW1 3151   0.991   0.631   3.701
  517SOL    HW2 3152   1.096   0.575   3.813
  518SOL     OW 3153   0.078   0.556   5.110
  518SOL    HW1 3154   0.170   0.555   5.069
  518SOL    HW2 3155   0.072   0.630   5.177
  519SOL     OW 3156   0.561   0.222   4.871
  519SOL    HW1 3157   0.599   0.138   4.908
  519SOL    HW2 3158   0.473   0.241   4.915
  520SOL     OW 3159   0.866   0.454   4.366
  520SOL    HW1 3160   0.834   0.526   4.304
  520SOL    HW2 3161   0.890   0.373   4.313
  521SOL     OW 3162   1.017   0.039   4.477
  521SOL    HW1 3163   0.945   0.044   4.408
  521SOL    HW2 3164   0.993  -0.030   4.546
  522SOL     OW 3165   1.429   1.173   4.591
  522SOL    HW1 3166   1.374   1.089   4.584
  522SOL    HW2 3167   1.455   1.202   4.499
  523SOL     OW 3168   1.466   0.590   4.716
  523SOL    HW1 3169   1.436   0.495   4.723
  523SOL    HW2 3170   1.539   0.606   4.782
  524SOL     OW 3171   1.857   0.833   4.101
  524SOL    HW1 3172   1.899   0.769   4.165
  524SOL    HW2 3173   1.819   0.782   4.023
  525SOL     OW 3174   0.488   1.385   3.898
  525SOL    HW1 3175   0.401   1.370   3.945
  525SOL    HW2 3176   0.471   1.411   3.803
  526SOL     OW 3177   1.664   1.280   4.381
  526SOL    HW1 3178   1.763   1.288   4.395
  526SOL    HW2 3179   1.619   1.364   4.412
  527SOL     OW 3180   1.390   0.575   3.802
  527SOL    HW1 3181   1.336   0.554   3.883
  527SOL    HW2 3182   1.481   0.534   3.811
  528SOL     OW 3183   0.527   0.256   4.052
  528SOL    HW1 3184   0.554   0.197   3.977
  528SOL    HW2 3185   0.527   0.351   4.021
  529SOL     OW 3186   1.754   1.223   5.312
  529SOL    HW1 3187   1.845   1.184   5.299
  529SOL    HW2 3188   1.762   1.319   5.336
  530SOL     OW 3189   1.064   1.347   5.064
  530SOL    HW1 3190   0.984   1.324   5.119
  530SOL    HW2 3191   1.147   1.321   5.113
  531SOL     OW 3192   1.592   1.629   5.349
  531SOL    HW1 3193   1.619   1.663   5.259
  531SOL    HW2 3194   1.671   1.591   5.395
  532SOL     OW 3195   1.111   1.195   4.824
  532SOL    HW1 3196   1.071   1.239   4.905
  532SOL    HW2 3197   1.070   1.232   4.741
  533SOL     OW 3198   1.638   1.099   4.803
  533SOL    HW1 3199   1.643   1.180   4.862
  533SOL    HW2 3200   1.552   1.101   4.752
  534SOL     OW 3201   0.915   0.089   5.126
  534SOL    HW1 3202   0.940   0.069   5.031
  534SOL    HW2 3203   0.987   0.145   5.168
  535SOL     OW 3204   0.980   1.116   5.443
  535SOL    HW1 3205   0.881   1.122   5.453
  535SOL    HW2 3206   1.003   1.036   5.387
  536SOL     OW 3207   0.705   1.050   4.092
  536SOL    HW1 3208   0.691   1.057   4.191
  536SOL    HW2 3209   0.789   0.999   4.074
  537SOL     OW 3210   0.410   0.813   4.975
  537SOL    HW1 3211   0.496   0.825   5.025
  537SOL    HW2 3212   0.368   0.726   5.002
  538SOL     OW 3213   1.274   0.386   4.986
  538SOL    HW1 3214   1.295   0.460   5.050
  538SOL    HW2 3215   1.185   0.403   4.943
  539SOL     OW 3216   0.064   1.564   5.055
  539SOL    HW1 3217   0.018   1.646   5.021
  539SOL    HW2 3218   0.162   1.583   5.064
  540SOL     OW 3219   0.367   1.100   4.225
  540SOL    HW1 3220   0.360   1.183   4.169
  540SOL    HW2 3221   0.371   1.020   4.165
  541SOL     OW 3222   0.566   0.537   4.589
  541SOL    HW1 3223   0.578   0.603   4.515
  541SOL    HW2 3224   0.612   0.571   4.672
  542SOL     OW 3225   1.252   1.348   4.112
  542SOL    HW1 3226   1.302   1.425   4.152
  542SOL    HW2 3227   1.157   1.350   4.144
  543SOL     OW 3228   1.272   1.445   4.866
  543SOL    HW1 3229   1.319   1.458   4.953
  543SOL    HW2 3230   1.206   1.371   4.875
  544SOL     OW 3231   1.582   0.639   4.196
  544SOL    HW1 3232   1.551   0.700   4.269
  544SOL    HW2 3233   1.632   0.691   4.127
  545SOL     OW 3234   0.354   1.510   5.053
  545SOL    HW1 3235   0.333   1.466   4.966
  545SOL    HW2 3236   0.451   1.536   5.056
  546SOL     OW 3237   0.402   0.751   5.322
  546SOL    HW1 3238   0.470   0.806   5.275
  546SOL    HW2 3239   0.442   0.663   5.349
  547SOL     OW 3240   1.587   0.779   5.394
  547SOL    HW1 3241   1.495   0.817   5.389
  547SOL    HW2 3242   1.647   0.826   5.329
  548SOL     OW 3243   1.013   0.105   5.494
  548SOL    HW1 3244   1.019   0.190   5.442
  548SOL    HW2 3245   1.045   0.029   5.437
  549SOL     OW 3246   0.504   0.050   5.464
  549SOL    HW1 3247   0.462  -0.007   5.394
  549SOL    HW2 3248   0.438   0.119   5.496
  550SOL     OW 3249   0.573   0.870   4.753
  550SOL    HW1 3250   0.617   0.959   4.744
  550SOL    HW2 3251   0.510   0.870   4.830
  551SOL     OW 3252   1.360   0.862   4.769
  551SOL    HW1 3253   1.285   0.862   4.703
  551SOL    HW2 3254   1.397   0.770   4.778
  552SOL     OW 3255   1.209   0.525   3.999
  552SOL    HW1 3256   1.222   0.441   4.053
  552SOL    HW2 3257   1.180   0.599   4.059
  553SOL     OW 3258   0.307   0.213   4.955
  553SOL    HW1 3259   0.284   0.250   5.045
  553SOL    HW2 3260   0.277   0.118   4.949
  554SOL     OW 3261   0.037   1.310   5.006
  554SOL    HW1 3262   0.090   1.261   5.074
  554SOL    HW2 3263   0.059   1.408   5.011
  555SOL     OW 3264   0.732   0.634   4.788
  555SOL    HW1 3265   0.791   0.608   4.712
  555SOL    HW2 3266   0.704   0.730   4.777
  556SOL     OW 3267   1.728   0.935   5.578
  556SOL    HW1 3268   1.682   0.928   5.489
  556SOL    HW2 3269   1.666   0.979   5.644
  557SOL     OW 3270   0.307   0.063   4.342
  557SOL    HW1 3271   0.296   0.157   4.375
  557SOL    HW2 3272   0.302   0.000   4.419
  558SOL     OW 3273   1.622   0.367   4.098
  558SOL    HW1 3274   1.624   0.291   4.162
  558SOL    HW2 3275   1.574   0.444   4.138
  559SOL     OW 3276   1.023   0.766   4.690
  559SOL    HW1 3277   1.038   0.787   4.786
  559SOL    HW2 3278   0.993   0.671   4.681
  560SOL     OW 3279   0.980   1.573   5.424
  560SOL    HW1 3280   0.960   1.617   5.336
  560SOL    HW2 3281   1.019   1.482   5.408
  561SOL     OW 3282   1.859   1.518   5.329
  561SOL    HW1 3283   1.873   1.545   5.234
  561SOL    HW2 3284   1.942   1.540   5.382
  562SOL     OW 3285   0.350   0.898   5.528
  562SOL    HW1 3286   0.426   0.942   5.576
  562SOL    HW2 3287   0.385   0.851   5.446
  563SOL     OW 3288   1.540   0.274   3.849
  563SOL    HW1 3289   1.479   0.199   3.872
  563SOL    HW2 3290   1.562   0.326   3.932
  564SOL     OW 3291   1.303   0.838   3.766
  564SOL    HW1 3292   1.337   0.745   3.781
  564SOL    HW2 3293   1.321   0.865   3.671
  565SOL     OW 3294   1.068   1.333   4.573
  565SOL    HW1 3295   1.075   1.249   4.518
  565SOL    HW2 3296   1.130   1.402   4.537
  566SOL     OW 3297   0.319   0.810   4.673
  566SOL    HW1 3298   0.412   0.846   4.678
  566SOL    HW2 3299   0.313   0.725   4.725
  567SOL     OW 3300   0.339   0.509   4.730
  567SOL    HW1 3301   0.287   0.426   4.713
  567SOL    HW2 3302   0.416   0.514   4.666
  568SOL     OW 3303   1.138   0.380   5.402
  568SOL    HW1 3304   1.093   0.443   5.466
  568SOL    HW2 3305   1.231   0.411   5.385
  569SOL     OW 3306   1.160   0.207   5.201
  569SOL    HW1 3307   1.160   0.271   5.278
  569SOL    HW2 3308   1.188   0.255   5.118
  570SOL     OW 3309   0.008   1.326   3.924
  570SOL    HW1 3310  -0.085   1.347   3.893
  570SOL    HW2 3311   0.018   1.227   3.937
  571SOL     OW 3312   0.088   1.801   4.651
  571SOL    HW1 3313   0.046   1.715   4.624
  571SOL    HW2 3314   0.182   1.804   4.617
  572SOL     OW 3315   0.504   1.568   4.634
  572SOL    HW1 3316   0.570   1.642   4.643
  572SOL    HW2 3317   0.548   1.489   4.592
  573SOL     OW 3318   1.002   0.796   4.962
  573SOL    HW1 3319   1.043   0.764   5.048
  573SOL    HW2 3320   0.906   0.769   4.959
  574SOL     OW 3321   0.040   0.544   4.838
  574SOL    HW1 3322   0.125   0.511   4.797
  574SOL    HW2 3323   0.053   0.559   4.936
  575SOL     OW 3324   0.189   0.520   5.446
  575SOL    HW1 3325   0.248   0.480   5.376
  575SOL    HW2 3326   0.131   0.591   5.405
  576SOL     OW 3327   1.369   0.950   5.384
  576SOL    HW1 3328   1.408   1.039   5.404
  576SOL    HW2 3329   1.379   0.930   5.287
  577SOL     OW 3330   0.815   0.572   4.049
  577SOL    HW1 3331   0.822   0.483   4.003
  577SOL    HW2 3332   0.721   0.606   4.041
  578SOL     OW 3333   1.657   0.604   4.930
  578SOL    HW1 3334   1.619   0.535   4.992
  578SOL    HW2 3335   1.739   0.568   4.886
  579SOL     OW 3336   0.252   1.564   5.468
  579SOL    HW1 3337   0.222   1.621   5.544
  579SOL    HW2 3338   0.245   1.467   5.494
  580SOL     OW 3339   0.671   0.464   4.993
  580SOL    HW1 3340   0.637   0.375   4.963
  580SOL    HW2 3341   0.697   0.518   4.913
  581SOL     OW 3342   0.930   1.678   5.189
  581SOL    HW1 3343   0.906   1.660   5.094
  581SOL    HW2 3344   0.960   1.772   5.199
  582SOL     OW 3345   0.473   0.500   3.915
  582SOL    HW1 3346   0.534   0.580   3.919
  582SOL    HW2 3347   0.378   0.531   3.922
  583SOL     OW 3348   0.159   1.137   5.190
  583SOL    HW1 3349   0.181   1.076   5.266
  583SOL    HW2 3350   0.169   1.088   5.104
  584SOL     OW 3351   1.347   1.059   4.958
  584SOL    HW1 3352   1.371   0.996   4.884
  584SOL    HW2 3353   1.257   1.099   4.940
  585SOL     OW 3354   1.302   0.855   4.033
  585SOL    HW1 3355   1.216   0.824   4.075
  585SOL    HW2 3356   1.298   0.841   3.934
  586SOL     OW 3357   1.759   1.747   4.878
  586SOL    HW1 3358   1.820   1.777   4.805
  586SOL    HW2 3359   1.721   1.658   4.856
  587SOL     OW 3360   1.252   1.731   4.852
  587SOL    HW1 3361   1.336   1.736   4.798
  587SOL    HW2 3362   1.229   1.635   4.870
  588SOL     OW 3363   0.083   1.258   4.746
  588SOL    HW1 3364   0.078   1.257   4.846
  588SOL    HW2 3365   0.000   1.217   4.708
  589SOL     OW 3366   0.688   1.662   5.440
  589SOL    HW1 3367   0.632   1.743   5.449
  589SOL    HW2 3368   0.740   1.666   5.354
  590SOL     OW 3369   1.726   0.135   4.247
  590SOL    HW1 3370   1.799   0.118   4.180
  590SOL    HW2 3371   1.695   0.048   4.285
  591SOL     OW 3372   1.388   1.573   4.201
  591SOL    HW1 3373   1.455   1.585   4.127
  591SOL    HW2 3374   1.348   1.662   4.224
  592SOL     OW 3375   0.130   1.794   5.575
  592SOL    HW1 3376   0.089   1.720   5.628
  592SOL    HW2 3377   0.194   1.845   5.633
  593SOL     OW 3378   1.280   0.927   4.396
  593SOL    HW1 3379   1.340   0.846   4.398
  593SOL    HW2 3380   1.320   0.996   4.336
  594SOL     OW 3381   0.830   1.273   5.146
  594SOL    HW1 3382   0.825   1.306   5.241
  594SOL    HW2 3383   0.744   1.292   5.100
  595SOL     OW 3384   0.672   1.616   3.878
  595SOL    HW1 3385   0.681   1.626   3.779
  595SOL    HW2 3386   0.632   1.527   3.899
  596SOL     OW 3387   1.650   1.720   5.118
  596SOL    HW1 3388   1.703   1.730   5.034
  596SOL    HW2 3389   1.623   1.810   5.152
  597SOL     OW 3390   1.841   0.175   4.687
  597SOL    HW1 3391   1.880   0.090   4.651
  597SOL    HW2 3392   1.743   0.177   4.668
  598SOL     OW 3393   0.263   0.326   4.444
  598SOL    HW1 3394   0.184   0.377   4.410
  598SOL    HW2 3395   0.254   0.311   4.542
  599SOL     OW 3396   1.194   1.612   3.755
  599SOL    HW1 3397   1.200   1.519   3.792
  599SOL    HW2 3398   1.135   1.612   3.675
  600SOL     OW 3399   0.822   1.002   5.096
  600SOL    HW1 3400   0.862   1.001   5.004
  600SOL    HW2 3401   0.832   1.094   5.136
  601SOL     OW 3402   0.916   0.910   4.015
  601SOL    HW1 3403   0.979   0.948   3.947
  601SOL    HW2 3404   0.956   0.827   4.054
  602SOL     OW 3405   1.504   1.607   3.768
  602SOL    HW1 3406   1.412   1.644   3.775
  602SOL    HW2 3407   1.542   1.627   3.678
  603SOL     OW 3408   0.372   1.288   5.214
  603SOL    HW1 3409   0.359   1.381   5.180
  603SOL    HW2 3410   0.288   1.236   5.201
  604SOL     OW 3411   1.614   1.292   5.013
  604SOL    HW1 3412   1.674   1.295   5.093
  604SOL    HW2 3413   1.539   1.356   5.026
  605SOL     OW 3414   1.039   1.098   4.420
  605SOL    HW1 3415   0.969   1.051   4.474
  605SOL    HW2 3416   1.098   1.030   4.377
  606SOL     OW 3417   1.014   0.236   4.695
  606SOL    HW1 3418   1.006   0.200   4.602
  606SOL    HW2 3419   1.012   0.160   4.760
  607SOL     OW 3420   0.590   1.487   4.215
  607SOL    HW1 3421   0.632   1.429   4.145
  607SOL    HW2 3422   0.546   1.566   4.171
  608SOL     OW 3423   1.709   0.385   5.105
  608SOL    HW1 3424   1.782   0.454   5.109
  608SOL    HW2 3425   1.737   0.310   5.046
  609SOL     OW 3426   0.255   1.348   4.014
  609SOL    HW1 3427   0.159   1.349   3.987
  609SOL    HW2 3428   0.267   1.401   4.098
  610SOL     OW 3429   0.105   1.013   5.450
  610SOL    HW1 3430   0.028   0.980   5.504
  610SOL    HW2 3431   0.190   0.983   5.492
  611SOL     OW 3432   0.672   0.203   5.213
  611SOL    HW1 3433   0.762   0.187   5.173
  611SOL    HW2 3434   0.680   0.208   5.312
  612SOL     OW 3435   0.075   0.345   3.757
  612SOL    HW1 3436  -0.017   0.317   3.728
  612SOL    HW2 3437   0.106   0.422   3.701
  613SOL     OW 3438   1.440   0.856   5.122
  613SOL    HW1 3439   1.383   0.908   5.059
  613SOL    HW2 3440   1.536   0.868   5.098
  614SOL     OW 3441   0.072   0.166   4.042
  614SOL    HW1 3442   0.055   0.249   3.988
  614SOL    HW2 3443   0.162   0.129   4.020
  615SOL     OW 3444   1.183   1.335   3.843
  615SOL    HW1 3445   1.084   1.324   3.845
  615SOL    HW2 3446   1.217   1.350   3.936
  616SOL     OW 3447   0.613   0.842   5.155
  616SOL    HW1 3448   0.669   0.923   5.138
  616SOL    HW2 3449   0.672   0.762   5.158
  617SOL     OW 3450   1.493   1.767   4.683
  617SOL    HW1 3451   1.526   1.831   4.614
  617SOL    HW2 3452   1.559   1.761   4.758
  618SOL     OW 3453   0.716   0.565   5.432
  618SOL    HW1 3454   0.735   0.630   5.506
  618SOL    HW2 3455   0.776   0.485   5.441
  619SOL     OW 3456   1.450   1.220   5.357
  619SOL    HW1 3457   1.441   1.210   5.456
  619SOL    HW2 3458   1.546   1.213   5.331
  620SOL     OW 3459   0.390   1.741   5.284
  620SOL    HW1 3460   0.299   1.782   5.282
  620SOL    HW2 3461   0.383   1.647   5.316
  621SOL     OW 3462   1.674   0.883   4.978
  621SOL    HW1 3463   1.647   0.794   4.941
  621SOL    HW2 3464   1.675   0.951   4.905
  622SOL     OW 3465   1.225   0.325   4.173
  622SOL    HW1 3466   1.290   0.251   4.162
  622SOL    HW2 3467   1.245   0.375   4.257
  623SOL     OW 3468   0.594   0.745   4.376
  623SOL    HW1 3469   0.644   0.830   4.357
  623SOL    HW2 3470   0.506   0.747   4.328
  624SOL     OW 3471   1.777   0.342   5.366
  624SOL    HW1 3472   1.760   0.373   5.272
  624SOL    HW2 3473   1.693   0.305   5.404
  625SOL     OW 3474   1.730   0.934   5.241
  625SOL    HW1 3475   1.768   1.025   5.256
  625SOL    HW2 3476   1.722   0.917   5.142
  626SOL     OW 3477   0.859   1.374   3.740
  626SOL    HW1 3478   0.813   1.389   3.828
  626SOL    HW2 3479   0.903   1.459   3.710
  627SOL     OW 3480   0.661   1.790   4.677
  627SOL    HW1 3481   0.615   1.878   4.664
  627SOL    HW2 3482   0.760   1.802   4.670
  628SOL     OW 3483   0.859   0.956   4.585
  628SOL    HW1 3484   0.913   0.887   4.633
  628SOL    HW2 3485   0.827   1.025   4.651
  629SOL     OW 3486   1.083   0.984   3.811
  629SOL    HW1 3487   1.060   1.037   3.729
  629SOL    HW2 3488   1.164   0.928   3.792
  630SOL     OW 3489   1.861   1.569   4.575
  630SOL    HW1 3490   1.790   1.557   4.505
  630SOL    HW2 3491   1.862   1.490   4.635
  631SOL     OW 3492   0.221   1.314   5.568
  631SOL    HW1 3493   0.156   1.241   5.547
  631SOL    HW2 3494   0.225   1.328   5.666
  632SOL     OW 3495   0.079   1.240   4.377
  632SOL    HW1 3496   0.078   1.193   4.465
  632SOL    HW2 3497   0.161   1.212   4.326
  633SOL     OW 3498   0.672   1.391   5.348
  633SOL    HW1 3499   0.594   1.341   5.386
  633SOL    HW2 3500   0.669   1.486   5.379
  634SOL     OW 3501   1.824   0.192   4.951
  634SOL    HW1 3502   1.820   0.102   4.995
  634SOL    HW2 3503   1.827   0.181   4.852
  635SOL     OW 3504   0.428   0.424   4.244
  635SOL    HW1 3505   0.458   0.352   4.182
  635SOL    HW2 3506   0.389   0.384   4.327
  636SOL     OW 3507   1.705   1.487   4.828
  636SOL    HW1 3508   1.612   1.462   4.801
  636SOL    HW2 3509   1.731   1.437   4.910
  637SOL     OW 3510   0.317   0.547   5.004
  637SOL    HW1 3511   0.355   0.488   5.076
  637SOL    HW2 3512   0.357   0.521   4.916
  638SOL     OW 3513   0.812   1.586   4.411
  638SOL    HW1 3514   0.844   1.596   4.317
  638SOL    HW2 3515   0.733   1.524   4.413
  639SOL     OW 3516   1.424   0.214   4.836
  639SOL    HW1 3517   1.476   0.149   4.891
  639SOL    HW2 3518   1.375   0.277   4.897
  640SOL     OW 3519   1.001   0.034   4.878
  640SOL    HW1 3520   0.938  -0.038   4.847
  640SOL    HW2 3521   1.094  -0.002   4.878
  641SOL     OW 3522   0.770   1.330   4.025
  641SOL    HW1 3523   0.724   1.243   4.042
  641SOL    HW2 3524   0.861   1.327   4.066
  642SOL     OW 3525   0.618   1.567   5.008
  642SOL    HW1 3526   0.613   1.649   5.065
  642SOL    HW2 3527   0.707   1.564   4.963
  643SOL     OW 3528   1.352   0.052   3.892
  643SOL    HW1 3529   1.387   0.011   3.808
  643SOL    HW2 3530   1.262   0.014   3.912
  644SOL     OW 3531   1.300   0.453   4.415
  644SOL    HW1 3532   1.241   0.533   4.419
  644SOL    HW2 3533   1.315   0.418   4.508
  645SOL     OW 3534   1.593   0.221   4.606
  645SOL    HW1 3535   1.509   0.220   4.660
  645SOL    HW2 3536   1.595   0.304   4.550
  646SOL     OW 3537   0.039   1.077   4.024
  646SOL    HW1 3538   0.138   1.066   4.015
  646SOL    HW2 3539  -0.001   0.991   4.056
  647SOL     OW 3540   0.875   1.646   4.061
  647SOL    HW1 3541   0.798   1.611   4.007
  647SOL    HW2 3542   0.843   1.717   4.123
  648SOL     OW 3543   0.230   0.628   5.699
  648SOL    HW1 3544   0.137   0.626   5.736
  648SOL    HW2 3545   0.231   0.589   5.607
  649SOL     OW 3546   0.225   0.275   6.582
  649SOL    HW1 3547   0.260   0.258   6.674
  649SOL    HW2 3548   0.137   0.230   6.570
  650SOL     OW 3549   0.019   0.368   6.233
  650SOL    HW1 3550  -0.063   0.411   6.272
  650SOL    HW2 3551  -0.009   0.295   6.170
  651SOL     OW 3552   0.569   1.275   6.751
  651SOL    HW1 3553   0.476   1.268   6.714
  651SOL    HW2 3554   0.580   1.364   6.795
  652SOL     OW 3555   1.555   1.511   6.289
  652SOL    HW1 3556   1.498   1.495   6.370
  652SOL    HW2 3557   1.496   1.521   6.209
  653SOL     OW 3558   1.135   0.703   6.303
  653SOL    HW1 3559   1.192   0.781   6.278
  653SOL    HW2 3560   1.075   0.729   6.379
  654SOL     OW 3561   1.755   0.607   5.817
  654SOL    HW1 3562   1.743   0.594   5.718
  654SOL    HW2 3563   1.725   0.526   5.866
  655SOL     OW 3564   0.768   1.144   6.609
  655SOL    HW1 3565   0.690   1.161   6.669
  655SOL    HW2 3566   0.802   1.231   6.573
  656SOL     OW 3567   0.685   1.012   6.251
  656SOL    HW1 3568   0.754   0.996   6.321
  656SOL    HW2 3569   0.612   1.069   6.289
  657SOL     OW 3570   0.335   1.435   6.647
  657SOL    HW1 3571   0.257   1.404   6.594
  657SOL    HW2 3572   0.393   1.493   6.590
  658SOL     OW 3573   1.603   0.447   6.323
  658SOL    HW1 3574   1.529   0.493   6.273
  658SOL    HW2 3575   1.654   0.515   6.376
  659SOL     OW 3576   0.231   1.713   6.069
  659SOL    HW1 3577   0.265   1.790   6.123
  659SOL    HW2 3578   0.275   1.713   5.979
  660SOL     OW 3579   0.230   1.434   6.124
  660SOL    HW1 3580   0.204   1.530   6.124
  660SOL    HW2 3581   0.159   1.380   6.169
  661SOL     OW 3582   0.240   1.091   6.472
  661SOL    HW1 3583   0.254   1.007   6.524
  661SOL    HW2 3584   0.185   1.155   6.527
  662SOL     OW 3585   0.620   1.786   7.025
  662SOL    HW1 3586   0.528   1.769   7.060
  662SOL    HW2 3587   0.648   1.878   7.051
  663SOL     OW 3588   0.606   0.964   5.709
  663SOL    HW1 3589   0.613   1.048   5.655
  663SOL    HW2 3590   0.652   0.977   5.797
  664SOL     OW 3591   0.122   0.643   6.149
  664SOL    HW1 3592   0.077   0.555   6.166
  664SOL    HW2 3593   0.121   0.697   6.233
  665SOL     OW 3594   1.842   1.767   5.945
  665SOL    HW1 3595   1.896   1.738   6.025
  665SOL    HW2 3596   1.872   1.857   5.916
  666SOL     OW 3597   0.027   1.596   5.703
  666SOL    HW1 3598   0.008   1.500   5.724
  666SOL    HW2 3599  -0.006   1.654   5.778
  667SOL     OW 3600   1.689   0.922   6.198
  667SOL    HW1 3601   1.784   0.893   6.206
  667SOL    HW2 3602   1.681   0.987   6.123
  668SOL     OW 3603   1.641   1.108   6.018
  668SOL    HW1 3604   1.727   1.110   5.966
  668SOL    HW2 3605   1.655   1.155   6.106
  669SOL     OW 3606   0.613   1.365   6.312
  669SOL    HW1 3607   0.564   1.278   6.321
  669SOL    HW2 3608   0.590   1.408   6.225
  670SOL     OW 3609   0.809   0.004   6.088
  670SOL    HW1 3610   0.849   0.095   6.079
  670SOL    HW2 3611   0.709   0.012   6.094
  671SOL     OW 3612   0.197   0.976   6.850
  671SOL    HW1 3613   0.286   0.931   6.836
  671SOL    HW2 3614   0.124   0.911   6.831
  672SOL     OW 3615   1.525   0.999   5.776
  672SOL    HW1 3616   1.462   0.923   5.789
  672SOL    HW2 3617   1.573   1.017   5.862
  673SOL     OW 3618   1.466   1.417   6.539
  673SOL    HW1 3619   1.407   1.423   6.619
  673SOL    HW2 3620   1.451   1.329   6.493
  674SOL     OW 3621   1.667   1.714   6.158
  674SOL    HW1 3622   1.626   1.691   6.070
  674SOL    HW2 3623   1.649   1.640   6.223
  675SOL     OW 3624   0.598   0.729   5.856
  675SOL    HW1 3625   0.622   0.798   5.788
  675SOL    HW2 3626   0.520   0.762   5.910
  676SOL     OW 3627   1.281   0.345   6.530
  676SOL    HW1 3628   1.195   0.295   6.517
  676SOL    HW2 3629   1.343   0.291   6.586
  677SOL     OW 3630   1.576   1.662   5.893
  677SOL    HW1 3631   1.665   1.708   5.896
  677SOL    HW2 3632   1.555   1.638   5.798
  678SOL     OW 3633   0.807   0.605   7.051
  678SOL    HW1 3634   0.760   0.602   7.140
  678SOL    HW2 3635   0.756   0.550   6.985
  679SOL     OW 3636   0.991   0.410   6.828
  679SOL    HW1 3637   0.914   0.444   6.882
  679SOL    HW2 3638   0.957   0.359   6.749
  680SOL     OW 3639   1.041   0.701   6.015
  680SOL    HW1 3640   1.067   0.697   6.111
  680SOL    HW2 3641   0.956   0.650   6.001
  681SOL     OW 3642   0.076   0.811   6.375
  681SOL    HW1 3643   0.175   0.799   6.384
  681SOL    HW2 3644   0.052   0.906   6.396
  682SOL     OW 3645   0.130   1.821   7.157
  682SOL    HW1 3646   0.120   1.806   7.256
  682SOL    HW2 3647   0.044   1.857   7.121
  683SOL     OW 3648   0.865   0.348   5.781
  683SOL    HW1 3649   0.924   0.411   5.732
  683SOL    HW2 3650   0.884   0.254   5.752
  684SOL     OW 3651   1.362   1.144   6.131
  684SOL    HW1 3652   1.445   1.115   6.083
  684SOL    HW2 3653   1.313   1.211   6.075
  685SOL     OW 3654   0.550   0.196   6.471
  685SOL    HW1 3655   0.545   0.191   6.571
  685SOL    HW2 3656   0.552   0.292   6.442
  686SOL     OW 3657   1.008   1.456   6.063
  686SOL    HW1 3658   0.962   1.528   6.011
  686SOL    HW2 3659   1.004   1.476   6.161
  687SOL     OW 3660   0.351   1.801   6.439
  687SOL    HW1 3661   0.401   1.715   6.445
  687SOL    HW2 3662   0.416   1.878   6.436
  688SOL     OW 3663   1.795   1.066   6.459
  688SOL    HW1 3664   1.733   1.051   6.383
  688SOL    HW2 3665   1.743   1.077   6.544
  689SOL     OW 3666   0.321   0.943   5.828
  689SOL    HW1 3667   0.403   0.982   5.786
  689SOL    HW2 3668   0.294   0.861   5.779
  690SOL     OW 3669   1.458   0.735   6.314
  690SOL    HW1 3670   1.453   0.670   6.389
  690SOL    HW2 3671   1.538   0.794   6.327
  691SOL     OW 3672   1.111   1.776   5.823
  691SOL    HW1 3673   1.051   1.714   5.873
  691SOL    HW2 3674   1.142   1.732   5.738
  692SOL     OW 3675   1.632   1.377   5.667
  692SOL    HW1 3676   1.600   1.471   5.657
  692SOL    HW2 3677   1.556   1.314   5.655
  693SOL     OW 3678   0.464   1.743   5.909
  693SOL    HW1 3679   0.497   1.782   5.995
  693SOL    HW2 3680   0.540   1.736   5.844
  694SOL     OW 3681   1.400   0.107   6.012
  694SOL    HW1 3682   1.376   0.070   5.922
  694SOL    HW2 3683   1.499   0.123   6.016
  695SOL     OW 3684   0.249   1.785   6.827
  695SOL    HW1 3685   0.306   1.720   6.877
  695SOL    HW2 3686   0.233   1.752   6.734
  696SOL     OW 3687   0.940   1.698   6.490
  696SOL    HW1 3688   1.020   1.641   6.511
  696SOL    HW2 3689   0.891   1.658   6.413
  697SOL     OW 3690   0.382   0.700   6.066
  697SOL    HW1 3691   0.427   0.610   6.063
  697SOL    HW2 3692   0.288   0.689   6.099
  698SOL     OW 3693   0.614   0.122   5.703
  698SOL    HW1 3694   0.712   0.100   5.710
  698SOL    HW2 3695   0.583   0.105   5.610
  699SOL     OW 3696   0.888   1.514   6.781
  699SOL    HW1 3697   0.865   1.489   6.687
  699SOL    HW2 3698   0.949   1.445   6.820
  700SOL     OW 3699   0.803   1.402   6.510
  700SOL    HW1 3700   0.893   1.416   6.468
  700SOL    HW2 3701   0.732   1.404   6.439
  701SOL     OW 3702   0.922   0.503   6.485
  701SOL    HW1 3703   0.897   0.494   6.389
  701SOL    HW2 3704   0.970   0.421   6.516
  702SOL     OW 3705   0.539   0.064   6.098
  702SOL    HW1 3706   0.458   0.065   6.156
  702SOL    HW2 3707   0.542   0.147   6.043
  703SOL     OW 3708   1.434   1.188   5.627
  703SOL    HW1 3709   1.466   1.112   5.684
  703SOL    HW2 3710   1.342   1.215   5.657
  704SOL     OW 3711   0.297   0.035   5.757
  704SOL    HW1 3712   0.346   0.119   5.736
  704SOL    HW2 3713   0.359  -0.030   5.802
  705SOL     OW 3714   0.935   0.236   6.066
  705SOL    HW1 3715   0.887   0.277   5.988
  705SOL    HW2 3716   1.034   0.234   6.047
  706SOL     OW 3717   1.227   1.570   6.379
  706SOL    HW1 3718   1.248   1.644   6.314
  706SOL    HW2 3719   1.295   1.570   6.452
  707SOL     OW 3720   0.459   1.152   6.327
  707SOL    HW1 3721   0.388   1.125   6.392
  707SOL    HW2 3722   0.433   1.124   6.234
  708SOL     OW 3723   1.271   1.797   6.177
  708SOL    HW1 3724   1.315   1.861   6.113
  708SOL    HW2 3725   1.221   1.849   6.247
  709SOL     OW 3726   1.032   0.549   5.602
  709SOL    HW1 3727   0.991   0.631   5.563
  709SOL    HW2 3728   1.096   0.575   5.675
  710SOL     OW 3729   0.561   0.222   6.733
  710SOL    HW1 3730   0.599   0.138   6.770
  710SOL    HW2 3731   0.473   0.241   6.777
  711SOL     OW 3732   0.866   0.454   6.228
  711SOL    HW1 3733   0.834   0.526   6.166
  711SOL    HW2 3734   0.890   0.373   6.175
  712SOL     OW 3735   1.017   0.039   6.339
  712SOL    HW1 3736   0.945   0.044   6.270
  712SOL    HW2 3737   0.993  -0.030   6.408
  713SOL     OW 3738   1.429   1.173   6.453
  713SOL    HW1 3739   1.374   1.089   6.446
  713SOL    HW2 3740   1.455   1.202   6.361
  714SOL     OW 3741   1.466   0.590   6.578
  714SOL    HW1 3742   1.436   0.495   6.585
  714SOL    HW2 3743   1.539   0.606   6.644
  715SOL     OW 3744   1.857   0.833   5.963
  715SOL    HW1 3745   1.899   0.769   6.027
  715SOL    HW2 3746   1.819   0.782   5.885
  716SOL     OW 3747   0.488   1.385   5.760
  716SOL    HW1 3748   0.401   1.370   5.807
  716SOL    HW2 3749   0.471   1.411   5.665
  717SOL     OW 3750   1.664   1.280   6.243
  717SOL    HW1 3751   1.763   1.288   6.257
  717SOL    HW2 3752   1.619   1.364   6.274
  718SOL     OW 3753   1.390   0.575   5.664
  718SOL    HW1 3754   1.336   0.554   5.745
  718SOL    HW2 3755   1.481   0.534   5.673
  719SOL     OW 3756   0.527   0.256   5.914
  719SOL    HW1 3757   0.554   0.197   5.839
  719SOL    HW2 3758   0.527   0.351   5.883
  720SOL     OW 3759   1.754   1.223   7.174
  720SOL    HW1 3760   1.845   1.184   7.161
  720SOL    HW2 3761   1.762   1.319   7.198
  721SOL     OW 3762   1.111   1.195   6.686
  721SOL    HW1 3763   1.071   1.239   6.767
  721SOL    HW2 3764   1.070   1.232   6.603
  722SOL     OW 3765   1.638   1.099   6.665
  722SOL    HW1 3766   1.643   1.180   6.724
  722SOL    HW2 3767   1.552   1.101   6.614
  723SOL     OW 3768   0.705   1.050   5.954
  723SOL    HW1 3769   0.691   1.057   6.053
  723SOL    HW2 3770   0.789   0.999   5.936
  724SOL     OW 3771   0.410   0.813   6.837
  724SOL    HW1 3772   0.496   0.825   6.887
  724SOL    HW2 3773   0.368   0.726   6.864
  725SOL     OW 3774   1.274   0.386   6.848
  725SOL    HW1 3775   1.295   0.460   6.912
  725SOL    HW2 3776   1.185   0.403   6.805
  726SOL     OW 3777   0.064   1.564   6.917
  726SOL    HW1 3778   0.018   1.646   6.883
  726SOL    HW2 3779   0.162   1.583   6.926
  727SOL     OW 3780   0.367   1.100   6.087
  727SOL    HW1 3781   0.360   1.183   6.031
  727SOL    HW2 3782   0.371   1.020   6.027
  728SOL     OW 3783   0.566   0.537   6.451
  728SOL    HW1 3784   0.578   0.603   6.377
  728SOL    HW2 3785   0.612   0.571   6.534
  729SOL     OW 3786   1.252   1.348   5.974
  729SOL    HW1 3787   1.302   1.425   6.014
  729SOL    HW2 3788   1.157   1.350   6.006
  730SOL     OW 3789   1.272   1.445   6.728
  730SOL    HW1 3790   1.319   1.458   6.815
  730SOL    HW2 3791   1.206   1.371   6.737
  731SOL     OW 3792   1.582   0.639   6.058
  731SOL    HW1 3793   1.551   0.700   6.131
  731SOL    HW2 3794   1.632   0.691   5.989
  732SOL     OW 3795   0.354   1.510   6.915
  732SOL    HW1 3796   0.333   1.466   6.828
  732SOL    HW2 3797   0.451   1.536   6.918
  733SOL     OW 3798   0.573   0.870   6.615
  733SOL    HW1 3799   0.617   0.959   6.606
  733SOL    HW2 3800   0.510   0.870   6.692
  734SOL     OW 3801   1.360   0.862   6.631
  734SOL    HW1 3802   1.285   0.862   6.565
  734SOL    HW2 3803   1.397   0.770   6.640
  735SOL     OW 3804   1.209   0.525   5.861
  735SOL    HW1 3805   1.222   0.441   5.915
  735SOL    HW2 3806   1.180   0.599   5.921
  736SOL     OW 3807   0.307   0.213   6.817
  736SOL    HW1 3808   0.284   0.250   6.907
  736SOL    HW2 3809   0.277   0.118   6.811
  737SOL     OW 3810   0.037   1.310   6.868
  737SOL    HW1 3811   0.090   1.261   6.936
  737SOL    HW2 3812   0.059   1.408   6.873
  738SOL     OW 3813   0.732   0.634   6.650
  738SOL    HW1 3814   0.791   0.608   6.574
  738SOL    HW2 3815   0.704   0.730   6.639
  739SOL     OW 3816   0.307   0.063   6.204
  739SOL    HW1 3817   0.296   0.157   6.237
  739SOL    HW2 3818   0.302   0.000   6.281
  740SOL     OW 3819   1.622   0.367   5.960
  740SOL    HW1 3820   1.624   0.291   6.024
  740SOL    HW2 3821   1.574   0.444   6.000
  741SOL     OW 3822   1.023   0.766   6.552
  741SOL    HW1 3823   1.038   0.787   6.648
  741SOL    HW2 3824   0.993   0.671   6.543
  742SOL     OW 3825   1.859   1.518   7.191
  742SOL    HW1 3826   1.873   1.545   7.096
  742SOL    HW2 3827   1.942   1.540   7.244
  743SOL     OW 3828   1.540   0.274   5.711
  743SOL    HW1 3829   1.479   0.199   5.734
  743SOL    HW2 3830   1.562   0.326   5.794
  744SOL     OW 3831   1.303   0.838   5.628
  744SOL    HW1 3832   1.337   0.745   5.643
  744SOL    HW2 3833   1.321   0.865   5.533
  745SOL     OW 3834   1.068   1.333   6.435
  745SOL    HW1 3835   1.075   1.249   6.380
  745SOL    HW2 3836   1.130   1.402   6.399
  746SOL     OW 3837   0.319   0.810   6.535
  746SOL    HW1 3838   0.412   0.846   6.540
  746SOL    HW2 3839   0.313   0.725   6.587
  747SOL     OW 3840   0.339   0.509   6.592
  747SOL    HW1 3841   0.287   0.426   6.575
  747SOL    HW2 3842   0.416   0.514   6.528
  748SOL     OW 3843   1.160   0.207   7.063
  748SOL    HW1 3844   1.160   0.271   7.140
  748SOL    HW2 3845   1.188   0.255   6.980
  749SOL     OW 3846   0.008   1.326   5.786
  749SOL    HW1 3847  -0.085   1.347   5.755
  749SOL    HW2 3848   0.018   1.227   5.799
  750SOL     OW 3849   0.088   1.801   6.513
  750SOL    HW1 3850   0.046   1.715   6.486
  750SOL    HW2 3851   0.182   1.804   6.479
  751SOL     OW 3852   0.504   1.568   6.496
  751SOL    HW1 3853   0.570   1.642   6.505
  751SOL    HW2 3854   0.548   1.489   6.454
  752SOL     OW 3855   1.002   0.796   6.824
  752SOL    HW1 3856   1.043   0.764   6.910
  752SOL    HW2 3857   0.906   0.769   6.821
  753SOL     OW 3858   0.040   0.544   6.700
  753SOL    HW1 3859   0.125   0.511   6.659
  753SOL    HW2 3860   0.053   0.559   6.798
  754SOL     OW 3861   0.815   0.572   5.911
  754SOL    HW1 3862   0.822   0.483   5.865
  754SOL    HW2 3863   0.721   0.606   5.903
  755SOL     OW 3864   1.657   0.604   6.792
  755SOL    HW1 3865   1.619   0.535   6.854
  755SOL    HW2 3866   1.739   0.568   6.748
  756SOL     OW 3867   0.671   0.464   6.855
  756SOL    HW1 3868   0.637   0.375   6.825
  756SOL    HW2 3869   0.697   0.518   6.775
  757SOL     OW 3870   0.930   1.678   7.051
  757SOL    HW1 3871   0.906   1.660   6.956
  757SOL    HW2 3872   0.960   1.772   7.061
  758SOL     OW 3873   0.473   0.500   5.777
  758SOL    HW1 3874   0.534   0.580   5.781
  758SOL    HW2 3875   0.378   0.531   5.784
  759SOL     OW 3876   0.159   1.137   7.052
  759SOL    HW1 3877   0.181   1.076   7.128
  759SOL    HW2 3878   0.169   1.088   6.966
  760SOL     OW 3879   1.347   1.059   6.820
  760SOL    HW1 3880   1.371   0.996   6.746
  760SOL    HW2 3881   1.257   1.099   6.802
  761SOL     OW 3882   1.302   0.855   5.895
  761SOL    HW1 3883   1.216   0.824   5.937
  761SOL    HW2 3884   1.298   0.841   5.796
  762SOL     OW 3885   1.759   1.747   6.740
  762SOL    HW1 3886   1.820   1.777   6.667
  762SOL    HW2 3887   1.721   1.658   6.718
  763SOL     OW 3888   1.252   1.731   6.714
  763SOL    HW1 3889   1.336   1.736   6.660
  763SOL    HW2 3890   1.229   1.635   6.732
  764SOL     OW 3891   0.083   1.258   6.608
  764SOL    HW1 3892   0.078   1.257   6.708
  764SOL    HW2 3893   0.000   1.217   6.570
  765SOL     OW 3894   1.726   0.135   6.109
  765SOL    HW1 3895   1.799   0.118   6.042
  765SOL    HW2 3896   1.695   0.048   6.147
  766SOL     OW 3897   1.388   1.573   6.063
  766SOL    HW1 3898   1.455   1.585   5.989
  766SOL    HW2 3899   1.348   1.662   6.086
  767SOL     OW 3900   1.280   0.927   6.258
  767SOL    HW1 3901   1.340   0.846   6.260
  767SOL    HW2 3902   1.320   0.996   6.198
  768SOL     OW 3903   0.672   1.616   5.740
  768SOL    HW1 3904   0.681   1.626   5.641
  768SOL    HW2 3905   0.632   1.527   5.761
  769SOL     OW 3906   1.841   0.175   6.549
  769SOL    HW1 3907   1.880   0.090   6.513
  769SOL    HW2 3908   1.743   0.177   6.530
  770SOL     OW 3909   0.263   0.326   6.306
  770SOL    HW1 3910   0.184   0.377   6.272
  770SOL    HW2 3911   0.254   0.311   6.404
  771SOL     OW 3912   1.194   1.612   5.617
  771SOL    HW1 3913   1.200   1.519   5.654
  771SOL    HW2 3914   1.135   1.612   5.537
  772SOL     OW 3915   0.822   1.002   6.958
  772SOL    HW1 3916   0.862   1.001   6.866
  772SOL    HW2 3917   0.832   1.094   6.998
  773SOL     OW 3918   0.916   0.910   5.877
  773SOL    HW1 3919   0.979   0.948   5.809
  773SOL    HW2 3920   0.956   0.827   5.916
  774SOL     OW 3921   1.504   1.607   5.630
  774SOL    HW1 3922   1.412   1.644   5.637
  774SOL    HW2 3923   1.542   1.627   5.540
  775SOL     OW 3924   1.614   1.292   6.875
  775SOL    HW1 3925   1.674   1.295   6.955
  775SOL    HW2 3926   1.539   1.356   6.888
  776SOL     OW 3927   1.039   1.098   6.282
  776SOL    HW1 3928   0.969   1.051   6.336
  776SOL    HW2 3929   1.098   1.030   6.239
  777SOL     OW 3930   1.014   0.236   6.557
  777SOL    HW1 3931   1.006   0.200   6.464
  777SOL    HW2 3932   1.012   0.160   6.622
  778SOL     OW 3933   0.590   1.487   6.077
  778SOL    HW1 3934   0.632   1.429   6.007
  778SOL    HW2 3935   0.546   1.566   6.033
  779SOL     OW 3936   1.709   0.385   6.967
  779SOL    HW1 3937   1.782   0.454   6.971
  779SOL    HW2 3938   1.737   0.310   6.908
  780SOL     OW 3939   0.255   1.348   5.876
  780SOL    HW1 3940   0.159   1.349   5.849
  780SOL    HW2 3941   0.267   1.401   5.960
  781SOL     OW 3942   0.075   0.345   5.619
  781SOL    HW1 3943  -0.017   0.317   5.590
  781SOL    HW2 3944   0.106   0.422   5.563
  782SOL     OW 3945   0.072   0.166   5.904
  782SOL    HW1 3946   0.055   0.249   5.850
  782SOL    HW2 3947   0.162   0.129   5.882
  783SOL     OW 3948   1.183   1.335   5.705
  783SOL    HW1 3949   1.084   1.324   5.707
  783SOL    HW2 3950   1.217   1.350   5.798
  784SOL     OW 3951   1.493   1.767   6.545
  784SOL    HW1 3952   1.526   1.831   6.476
  784SOL    HW2 3953   1.559   1.761   6.620
  785SOL     OW 3954   1.450   1.220   7.219
  785SOL    HW1 3955   1.441   1.210   7.318
  785SOL    HW2 3956   1.546   1.213   7.193
  786SOL     OW 3957   0.390   1.741   7.146
  786SOL    HW1 3958   0.299   1.782   7.144
  786SOL    HW2 3959   0.383   1.647   7.178
  787SOL     OW 3960   1.674   0.883   6.840
  787SOL    HW1 3961   1.647   0.794   6.803
  787SOL    HW2 3962   1.675   0.951   6.767
  788SOL     OW 3963   1.225   0.325   6.035
  788SOL    HW1 3964   1.290   0.251   6.024
  788SOL    HW2 3965   1.245   0.375   6.119
  789SOL     OW 3966   0.594   0.745   6.238
  789SOL    HW1 3967   0.644   0.830   6.219
  789SOL    HW2 3968   0.506   0.747   6.190
  790SOL     OW 3969   1.730   0.934   7.103
  790SOL    HW1 3970   1.768   1.025   7.118
  790SOL    HW2 3971   1.722   0.917   7.004
  791SOL     OW 3972   0.859   1.374   5.602
  791SOL    HW1 3973   0.813   1.389   5.690
  791SOL    HW2 3974   0.903   1.459   5.572
  792SOL     OW 3975   0.661   1.790   6.539
  792SOL    HW1 3976   0.615   1.878   6.526
  792SOL    HW2 3977   0.760   1.802   6.532
  793SOL     OW 3978   0.859   0.956   6.447
  793SOL    HW1 3979   0.913   0.887   6.495
  793SOL    HW2 3980   0.827   1.025   6.513
  794SOL     OW 3981   1.083   0.984   5.673
  794SOL    HW1 3982   1.060   1.037   5.591
  794SOL    HW2 3983   1.164   0.928   5.654
  795SOL     OW 3984   1.861   1.569   6.437
  795SOL    HW1 3985   1.790   1.557   6.367
  795SOL    HW2 3986   1.862   1.490   6.497
  796SOL     OW 3987   0.079   1.240   6.239
  796SOL    HW1 3988   0.078   1.193   6.327
  796SOL    HW2 3989   0.161   1.212   6.188
  797SOL     OW 3990   1.824   0.192   6.813
  797SOL    HW1 3991   1.820   0.102   6.857
  797SOL    HW2 3992   1.827   0.181   6.714
  798SOL     OW 3993   0.428   0.424   6.106
  798SOL    HW1 3994   0.458   0.352   6.044
  798SOL    HW2 3995   0.389   0.384   6.189
  799SOL     OW 3996   1.705   1.487   6.690
  799SOL    HW1 3997   1.612   1.462   6.663
  799SOL    HW2 3998   1.731   1.437   6.772
  800SOL     OW 3999   0.317   0.547   6.866
  800SOL    HW1 4000   0.355   0.488   6.938
  800SOL    HW2 4001   0.357   0.521   6.778
  801SOL     OW 4002   0.812   1.586   6.273
  801SOL    HW1 4003   0.844   1.596   6.179
  801SOL    HW2 4004   0.733   1.524   6.275
  802SOL     OW 4005   1.424   0.214   6.698
  802SOL    HW1 4006   1.476   0.149   6.753
  802SOL    HW2 4007   1.375   0.277   6.759
  803SOL     OW 4008   1.001   0.034   6.740
  803SOL    HW1 4009   0.938  -0.038   6.709
  803SOL    HW2 4010   1.094  -0.002   6.740
  804SOL     OW 4011   0.770   1.330   5.887
  804SOL    HW1 4012   0.724   1.243   5.904
  804SOL    HW2 4013   0.861   1.327   5.928
  805SOL     OW 4014   0.618   1.567   6.870
  805SOL    HW1 4015   0.613   1.649   6.927
  805SOL    HW2 4016   0.707   1.564   6.825
  806SOL     OW 4017   1.352   0.052   5.754
  806SOL    HW1 4018   1.387   0.011   5.670
  806SOL    HW2 4019   1.262   0.014   5.774
  807SOL     OW 4020   1.300   0.453   6.277
  807SOL    HW1 4021   1.241   0.533   6.281
  807SOL    HW2 4022   1.315   0.418   6.370
  808SOL     OW 4023   1.593   0.221   6.468
  808SOL    HW1 4024   1.509   0.220   6.522
  808SOL    HW2 4025   1.595   0.304   6.412
  809SOL     OW 4026   0.039   1.077   5.886
  809SOL    HW1 4027   0.138   1.066   5.877
  809SOL    HW2 4028  -0.001   0.991   5.918
  810SOL     OW 4029   0.875   1.646   5.923
  810SOL    HW1 4030   0.798   1.611   5.869
  810SOL    HW2 4031   0.843   1.717   5.985
  811SOL     OW 4032   0.230   2.490   0.113
  811SOL    HW1 4033   0.137   2.488   0.150
  811SOL    HW2 4034   0.231   2.451   0.021
  812SOL     OW 4035   0.225   2.137   0.996
  812SOL    HW1 4036   0.260   2.120   1.088
  812SOL    HW2 4037   0.137   2.092   0.984
  813SOL     OW 4038   0.019   2.230   0.647
  813SOL    HW1 4039  -0.063   2.273   0.686
  813SOL    HW2 4040  -0.009   2.157   0.584
  814SOL     OW 4041   0.569   3.137   1.165
  814SOL    HW1 4042   0.476   3.130   1.128
  814SOL    HW2 4043   0.580   3.226   1.209
  815SOL     OW 4044   1.555   3.373   0.703
  815SOL    HW1 4045   1.498   3.357   0.784
  815SOL    HW2 4046   1.496   3.383   0.623
  816SOL     OW 4047   1.135   2.565   0.717
  816SOL    HW1 4048   1.192   2.643   0.692
  816SOL    HW2 4049   1.075   2.591   0.793
  817SOL     OW 4050   1.755   2.469   0.231
  817SOL    HW1 4051   1.743   2.456   0.132
  817SOL    HW2 4052   1.725   2.388   0.280
  818SOL     OW 4053   0.768   3.006   1.023
  818SOL    HW1 4054   0.690   3.023   1.083
  818SOL    HW2 4055   0.802   3.093   0.987
  819SOL     OW 4056   0.850   2.660   1.823
  819SOL    HW1 4057   0.846   2.736   1.888
  819SOL    HW2 4058   0.872   2.696   1.732
  820SOL     OW 4059   0.685   2.874   0.665
  820SOL    HW1 4060   0.754   2.858   0.735
  820SOL    HW2 4061   0.612   2.931   0.703
  821SOL     OW 4062   0.686   3.023   1.803
  821SOL    HW1 4063   0.746   3.102   1.817
  821SOL    HW2 4064   0.600   3.054   1.762
  822SOL     OW 4065   0.335   3.297   1.061
  822SOL    HW1 4066   0.257   3.266   1.008
  822SOL    HW2 4067   0.393   3.355   1.004
  823SOL     OW 4068   1.460   3.367   1.339
  823SOL    HW1 4069   1.484   3.461   1.365
  823SOL    HW2 4070   1.444   3.313   1.421
  824SOL     OW 4071   0.438   2.254   1.499
  824SOL    HW1 4072   0.520   2.198   1.508
  824SOL    HW2 4073   0.357   2.196   1.503
  825SOL     OW 4074   1.603   2.309   0.737
  825SOL    HW1 4075   1.529   2.355   0.687
  825SOL    HW2 4076   1.654   2.377   0.790
  826SOL     OW 4077   0.231   3.575   0.483
  826SOL    HW1 4078   0.265   3.652   0.537
  826SOL    HW2 4079   0.275   3.575   0.393
  827SOL     OW 4080   1.127   3.203   1.690
  827SOL    HW1 4081   1.174   3.203   1.778
  827SOL    HW2 4082   1.079   3.116   1.679
  828SOL     OW 4083   0.230   3.296   0.538
  828SOL    HW1 4084   0.204   3.392   0.538
  828SOL    HW2 4085   0.159   3.242   0.583
  829SOL     OW 4086   0.240   2.953   0.886
  829SOL    HW1 4087   0.254   2.869   0.938
  829SOL    HW2 4088   0.185   3.017   0.941
  830SOL     OW 4089   0.620   3.648   1.439
  830SOL    HW1 4090   0.528   3.631   1.474
  830SOL    HW2 4091   0.648   3.740   1.465
  831SOL     OW 4092   0.606   2.826   0.123
  831SOL    HW1 4093   0.613   2.910   0.069
  831SOL    HW2 4094   0.652   2.839   0.211
  832SOL     OW 4095   1.594   1.976   1.480
  832SOL    HW1 4096   1.576   2.043   1.408
  832SOL    HW2 4097   1.591   2.022   1.569
  833SOL     OW 4098   0.122   2.505   0.563
  833SOL    HW1 4099   0.077   2.417   0.580
  833SOL    HW2 4100   0.121   2.559   0.647
  834SOL     OW 4101   1.842   3.629   0.359
  834SOL    HW1 4102   1.896   3.600   0.439
  834SOL    HW2 4103   1.872   3.719   0.330
  835SOL     OW 4104   0.027   3.458   0.117
  835SOL    HW1 4105   0.008   3.362   0.138
  835SOL    HW2 4106  -0.006   3.516   0.192
  836SOL     OW 4107   1.689   2.784   0.612
  836SOL    HW1 4108   1.784   2.755   0.620
  836SOL    HW2 4109   1.681   2.849   0.537
  837SOL     OW 4110   1.641   2.970   0.432
  837SOL    HW1 4111   1.727   2.972   0.380
  837SOL    HW2 4112   1.655   3.017   0.520
  838SOL     OW 4113   0.113   2.599   1.597
  838SOL    HW1 4114   0.201   2.586   1.642
  838SOL    HW2 4115   0.100   2.696   1.575
  839SOL     OW 4116   0.613   3.227   0.726
  839SOL    HW1 4117   0.564   3.140   0.735
  839SOL    HW2 4118   0.590   3.270   0.639
  840SOL     OW 4119   1.293   3.090   1.423
  840SOL    HW1 4120   1.330   3.017   1.365
  840SOL    HW2 4121   1.345   3.095   1.508
  841SOL     OW 4122   0.809   1.866   0.502
  841SOL    HW1 4123   0.849   1.957   0.493
  841SOL    HW2 4124   0.709   1.874   0.508
  842SOL     OW 4125   0.197   2.838   1.264
  842SOL    HW1 4126   0.286   2.793   1.250
  842SOL    HW2 4127   0.124   2.773   1.245
  843SOL     OW 4128   1.525   2.861   0.190
  843SOL    HW1 4129   1.462   2.785   0.203
  843SOL    HW2 4130   1.573   2.879   0.276
  844SOL     OW 4131   1.187   3.654   1.616
  844SOL    HW1 4132   1.211   3.714   1.540
  844SOL    HW2 4133   1.194   3.559   1.586
  845SOL     OW 4134   1.466   3.279   0.953
  845SOL    HW1 4135   1.407   3.285   1.033
  845SOL    HW2 4136   1.451   3.191   0.907
  846SOL     OW 4137   1.667   3.576   0.572
  846SOL    HW1 4138   1.626   3.553   0.484
  846SOL    HW2 4139   1.649   3.502   0.637
  847SOL     OW 4140   0.598   2.591   0.270
  847SOL    HW1 4141   0.622   2.660   0.202
  847SOL    HW2 4142   0.520   2.624   0.324
  848SOL     OW 4143   1.281   2.207   0.944
  848SOL    HW1 4144   1.195   2.157   0.931
  848SOL    HW2 4145   1.343   2.153   1.000
  849SOL     OW 4146   1.576   3.524   0.307
  849SOL    HW1 4147   1.665   3.570   0.310
  849SOL    HW2 4148   1.555   3.500   0.212
  850SOL     OW 4149   0.807   2.467   1.465
  850SOL    HW1 4150   0.760   2.464   1.554
  850SOL    HW2 4151   0.756   2.412   1.399
  851SOL     OW 4152   1.394   2.331   1.674
  851SOL    HW1 4153   1.374   2.374   1.762
  851SOL    HW2 4154   1.472   2.269   1.683
  852SOL     OW 4155   0.973   2.752   1.572
  852SOL    HW1 4156   1.019   2.668   1.543
  852SOL    HW2 4157   0.917   2.786   1.497
  853SOL     OW 4158   0.991   2.272   1.242
  853SOL    HW1 4159   0.914   2.306   1.296
  853SOL    HW2 4160   0.957   2.221   1.163
  854SOL     OW 4161   1.041   2.563   0.429
  854SOL    HW1 4162   1.067   2.559   0.525
  854SOL    HW2 4163   0.956   2.512   0.415
  855SOL     OW 4164   0.076   2.673   0.789
  855SOL    HW1 4165   0.175   2.661   0.798
  855SOL    HW2 4166   0.052   2.768   0.810
  856SOL     OW 4167   0.130   3.683   1.571
  856SOL    HW1 4168   0.120   3.668   1.670
  856SOL    HW2 4169   0.044   3.719   1.535
  857SOL     OW 4170   0.865   2.210   0.195
  857SOL    HW1 4171   0.924   2.273   0.146
  857SOL    HW2 4172   0.884   2.116   0.166
  858SOL     OW 4173   1.719   2.447   1.831
  858SOL    HW1 4174   1.693   2.536   1.795
  858SOL    HW2 4175   1.717   2.379   1.758
  859SOL     OW 4176   1.362   3.006   0.545
  859SOL    HW1 4177   1.445   2.977   0.497
  859SOL    HW2 4178   1.313   3.073   0.489
  860SOL     OW 4179   0.550   2.058   0.885
  860SOL    HW1 4180   0.545   2.053   0.985
  860SOL    HW2 4181   0.552   2.154   0.856
  861SOL     OW 4182   1.008   3.318   0.477
  861SOL    HW1 4183   0.962   3.390   0.425
  861SOL    HW2 4184   1.004   3.338   0.575
  862SOL     OW 4185   0.351   3.663   0.853
  862SOL    HW1 4186   0.401   3.577   0.859
  862SOL    HW2 4187   0.416   3.740   0.850
  863SOL     OW 4188   1.795   2.928   0.873
  863SOL    HW1 4189   1.733   2.913   0.797
  863SOL    HW2 4190   1.743   2.939   0.958
  864SOL     OW 4191   1.227   3.412   1.506
  864SOL    HW1 4192   1.233   3.335   1.570
  864SOL    HW2 4193   1.175   3.386   1.426
  865SOL     OW 4194   0.321   2.805   0.242
  865SOL    HW1 4195   0.403   2.844   0.200
  865SOL    HW2 4196   0.294   2.723   0.193
  866SOL     OW 4197   1.458   2.597   0.728
  866SOL    HW1 4198   1.453   2.532   0.803
  866SOL    HW2 4199   1.538   2.656   0.741
  867SOL     OW 4200   0.461   3.128   1.727
  867SOL    HW1 4201   0.411   3.129   1.641
  867SOL    HW2 4202   0.398   3.110   1.803
  868SOL     OW 4203   1.111   3.638   0.237
  868SOL    HW1 4204   1.051   3.576   0.287
  868SOL    HW2 4205   1.142   3.594   0.152
  869SOL     OW 4206   0.202   2.147   1.498
  869SOL    HW1 4207   0.122   2.207   1.485
  869SOL    HW2 4208   0.192   2.098   1.584
  870SOL     OW 4209   1.632   3.239   0.081
  870SOL    HW1 4210   1.600   3.333   0.071
  870SOL    HW2 4211   1.556   3.176   0.069
  871SOL     OW 4212   0.464   3.605   0.323
  871SOL    HW1 4213   0.497   3.644   0.409
  871SOL    HW2 4214   0.540   3.598   0.258
  872SOL     OW 4215   1.400   1.969   0.426
  872SOL    HW1 4216   1.376   1.932   0.336
  872SOL    HW2 4217   1.499   1.985   0.430
  873SOL     OW 4218   0.249   3.647   1.241
  873SOL    HW1 4219   0.306   3.582   1.291
  873SOL    HW2 4220   0.233   3.614   1.148
  874SOL     OW 4221   0.940   3.560   0.904
  874SOL    HW1 4222   1.020   3.503   0.925
  874SOL    HW2 4223   0.891   3.520   0.827
  875SOL     OW 4224   0.382   2.562   0.480
  875SOL    HW1 4225   0.427   2.472   0.477
  875SOL    HW2 4226   0.288   2.551   0.513
  876SOL     OW 4227   1.547   2.084   1.729
  876SOL    HW1 4228   1.542   2.121   1.821
  876SOL    HW2 4229   1.475   2.015   1.717
  877SOL     OW 4230   0.781   2.126   1.749
  877SOL    HW1 4231   0.848   2.065   1.792
  877SOL    HW2 4232   0.708   2.145   1.814
  878SOL     OW 4233   0.888   3.376   1.195
  878SOL    HW1 4234   0.865   3.351   1.101
  878SOL    HW2 4235   0.949   3.307   1.234
  879SOL     OW 4236   1.351   2.452   1.433
  879SOL    HW1 4237   1.379   2.409   1.518
  879SOL    HW2 4238   1.376   2.548   1.434
  880SOL     OW 4239   0.803   3.264   0.924
  880SOL    HW1 4240   0.893   3.278   0.882
  880SOL    HW2 4241   0.732   3.266   0.853
  881SOL     OW 4242   0.922   2.365   0.899
  881SOL    HW1 4243   0.897   2.356   0.803
  881SOL    HW2 4244   0.970   2.283   0.930
  882SOL     OW 4245   0.539   1.926   0.512
  882SOL    HW1 4246   0.458   1.927   0.570
  882SOL    HW2 4247   0.542   2.009   0.457
  883SOL     OW 4248   1.434   3.050   0.041
  883SOL    HW1 4249   1.466   2.974   0.098
  883SOL    HW2 4250   1.342   3.077   0.071
  884SOL     OW 4251   0.935   2.098   0.480
  884SOL    HW1 4252   0.887   2.139   0.402
  884SOL    HW2 4253   1.034   2.096   0.461
  885SOL     OW 4254   1.076   2.545   1.464
  885SOL    HW1 4255   0.996   2.484   1.467
  885SOL    HW2 4256   1.157   2.492   1.440
  886SOL     OW 4257   1.227   3.432   0.793
  886SOL    HW1 4258   1.248   3.506   0.728
  886SOL    HW2 4259   1.295   3.432   0.866
  887SOL     OW 4260   0.459   3.014   0.741
  887SOL    HW1 4261   0.388   2.987   0.806
  887SOL    HW2 4262   0.433   2.986   0.648
  888SOL     OW 4263   1.271   3.659   0.591
  888SOL    HW1 4264   1.315   3.723   0.527
  888SOL    HW2 4265   1.221   3.711   0.661
  889SOL     OW 4266   1.032   2.411   0.016
  889SOL    HW1 4267   0.991   2.493  -0.023
  889SOL    HW2 4268   1.096   2.437   0.089
  890SOL     OW 4269   0.078   2.418   1.386
  890SOL    HW1 4270   0.170   2.417   1.345
  890SOL    HW2 4271   0.072   2.492   1.453
  891SOL     OW 4272   0.561   2.084   1.147
  891SOL    HW1 4273   0.599   2.000   1.184
  891SOL    HW2 4274   0.473   2.103   1.191
  892SOL     OW 4275   0.866   2.316   0.642
  892SOL    HW1 4276   0.834   2.388   0.580
  892SOL    HW2 4277   0.890   2.235   0.589
  893SOL     OW 4278   1.017   1.901   0.753
  893SOL    HW1 4279   0.945   1.906   0.684
  893SOL    HW2 4280   0.993   1.832   0.822
  894SOL     OW 4281   1.429   3.035   0.867
  894SOL    HW1 4282   1.374   2.951   0.860
  894SOL    HW2 4283   1.455   3.064   0.775
  895SOL     OW 4284   1.466   2.452   0.992
  895SOL    HW1 4285   1.436   2.357   0.999
  895SOL    HW2 4286   1.539   2.468   1.058
  896SOL     OW 4287   1.857   2.695   0.377
  896SOL    HW1 4288   1.899   2.631   0.441
  896SOL    HW2 4289   1.819   2.644   0.299
  897SOL     OW 4290   0.488   3.247   0.174
  897SOL    HW1 4291   0.401   3.232   0.221
  897SOL    HW2 4292   0.471   3.273   0.079
  898SOL     OW 4293   1.664   3.142   0.657
  898SOL    HW1 4294   1.763   3.150   0.671
  898SOL    HW2 4295   1.619   3.226   0.688
  899SOL     OW 4296   1.390   2.437   0.078
  899SOL    HW1 4297   1.336   2.416   0.159
  899SOL    HW2 4298   1.481   2.396   0.087
  900SOL     OW 4299   0.527   2.118   0.328
  900SOL    HW1 4300   0.554   2.059   0.253
  900SOL    HW2 4301   0.527   2.213   0.297
  901SOL     OW 4302   1.754   3.085   1.588
  901SOL    HW1 4303   1.845   3.046   1.575
  901SOL    HW2 4304   1.762   3.181   1.612
  902SOL     OW 4305   1.064   3.209   1.340
  902SOL    HW1 4306   0.984   3.186   1.395
  902SOL    HW2 4307   1.147   3.183   1.389
  903SOL     OW 4308   1.592   3.491   1.625
  903SOL    HW1 4309   1.619   3.525   1.535
  903SOL    HW2 4310   1.671   3.453   1.671
  904SOL     OW 4311   1.111   3.057   1.100
  904SOL    HW1 4312   1.071   3.101   1.181
  904SOL    HW2 4313   1.070   3.094   1.017
  905SOL     OW 4314   1.638   2.961   1.079
  905SOL    HW1 4315   1.643   3.042   1.138
  905SOL    HW2 4316   1.552   2.963   1.028
  906SOL     OW 4317   0.915   1.951   1.402
  906SOL    HW1 4318   0.940   1.931   1.307
  906SOL    HW2 4319   0.987   2.007   1.444
  907SOL     OW 4320   0.980   2.978   1.719
  907SOL    HW1 4321   0.881   2.984   1.729
  907SOL    HW2 4322   1.003   2.898   1.663
  908SOL     OW 4323   0.705   2.912   0.368
  908SOL    HW1 4324   0.691   2.919   0.467
  908SOL    HW2 4325   0.789   2.861   0.350
  909SOL     OW 4326   0.410   2.675   1.251
  909SOL    HW1 4327   0.496   2.687   1.301
  909SOL    HW2 4328   0.368   2.588   1.278
  910SOL     OW 4329   1.274   2.248   1.262
  910SOL    HW1 4330   1.295   2.322   1.326
  910SOL    HW2 4331   1.185   2.265   1.219
  911SOL     OW 4332   0.064   3.426   1.331
  911SOL    HW1 4333   0.018   3.508   1.297
  911SOL    HW2 4334   0.162   3.445   1.340
  912SOL     OW 4335   0.367   2.962   0.501
  912SOL    HW1 4336   0.360   3.045   0.445
  912SOL    HW2 4337   0.371   2.882   0.441
  913SOL     OW 4338   0.566   2.399   0.865
  913SOL    HW1 4339   0.578   2.465   0.791
  913SOL    HW2 4340   0.612   2.433   0.948
  914SOL     OW 4341   1.252   3.210   0.388
  914SOL    HW1 4342   1.302   3.287   0.428
  914SOL    HW2 4343   1.157   3.212   0.420
  915SOL     OW 4344   1.272   3.307   1.142
  915SOL    HW1 4345   1.319   3.320   1.229
  915SOL    HW2 4346   1.206   3.233   1.151
  916SOL     OW 4347   1.582   2.501   0.472
  916SOL    HW1 4348   1.551   2.562   0.545
  916SOL    HW2 4349   1.632   2.553   0.403
  917SOL     OW 4350   0.354   3.372   1.329
  917SOL    HW1 4351   0.333   3.328   1.242
  917SOL    HW2 4352   0.451   3.398   1.332
  918SOL     OW 4353   0.402   2.613   1.598
  918SOL    HW1 4354   0.470   2.668   1.551
  918SOL    HW2 4355   0.442   2.525   1.625
  919SOL     OW 4356   1.587   2.641   1.670
  919SOL    HW1 4357   1.495   2.679   1.665
  919SOL    HW2 4358   1.647   2.688   1.605
  920SOL     OW 4359   1.013   1.967   1.770
  920SOL    HW1 4360   1.019   2.052   1.718
  920SOL    HW2 4361   1.045   1.891   1.713
  921SOL     OW 4362   0.504   1.912   1.740
  921SOL    HW1 4363   0.462   1.855   1.670
  921SOL    HW2 4364   0.438   1.981   1.772
  922SOL     OW 4365   0.573   2.732   1.029
  922SOL    HW1 4366   0.617   2.821   1.020
  922SOL    HW2 4367   0.510   2.732   1.106
  923SOL     OW 4368   1.360   2.724   1.045
  923SOL    HW1 4369   1.285   2.724   0.979
  923SOL    HW2 4370   1.397   2.632   1.054
  924SOL     OW 4371   1.209   2.387   0.275
  924SOL    HW1 4372   1.222   2.303   0.329
  924SOL    HW2 4373   1.180   2.461   0.335
  925SOL     OW 4374   0.307   2.075   1.231
  925SOL    HW1 4375   0.284   2.112   1.321
  925SOL    HW2 4376   0.277   1.980   1.225
  926SOL     OW 4377   0.037   3.172   1.282
  926SOL    HW1 4378   0.090   3.123   1.350
  926SOL    HW2 4379   0.059   3.270   1.287
  927SOL     OW 4380   0.732   2.496   1.064
  927SOL    HW1 4381   0.791   2.470   0.988
  927SOL    HW2 4382   0.704   2.592   1.053
  928SOL     OW 4383   1.728   2.797   1.854
  928SOL    HW1 4384   1.682   2.790   1.765
  928SOL    HW2 4385   1.666   2.841   1.920
  929SOL     OW 4386   0.307   1.925   0.618
  929SOL    HW1 4387   0.296   2.019   0.651
  929SOL    HW2 4388   0.302   1.862   0.695
  930SOL     OW 4389   1.622   2.229   0.374
  930SOL    HW1 4390   1.624   2.153   0.438
  930SOL    HW2 4391   1.574   2.306   0.414
  931SOL     OW 4392   1.023   2.628   0.966
  931SOL    HW1 4393   1.038   2.649   1.062
  931SOL    HW2 4394   0.993   2.533   0.957
  932SOL     OW 4395   0.980   3.435   1.700
  932SOL    HW1 4396   0.960   3.479   1.612
  932SOL    HW2 4397   1.019   3.344   1.684
  933SOL     OW 4398   1.859   3.380   1.605
  933SOL    HW1 4399   1.873   3.407   1.510
  933SOL    HW2 4400   1.942   3.402   1.658
  934SOL     OW 4401   0.350   2.760   1.804
  934SOL    HW1 4402   0.426   2.804   1.852
  934SOL    HW2 4403   0.385   2.713   1.722
  935SOL     OW 4404   1.540   2.136   0.125
  935SOL    HW1 4405   1.479   2.061   0.148
  935SOL    HW2 4406   1.562   2.188   0.208
  936SOL     OW 4407   1.303   2.700   0.042
  936SOL    HW1 4408   1.337   2.607   0.057
  936SOL    HW2 4409   1.321   2.727  -0.053
  937SOL     OW 4410   1.068   3.195   0.849
  937SOL    HW1 4411   1.075   3.111   0.794
  937SOL    HW2 4412   1.130   3.264   0.813
  938SOL     OW 4413   0.319   2.672   0.949
  938SOL    HW1 4414   0.412   2.708   0.954
  938SOL    HW2 4415   0.313   2.587   1.001
  939SOL     OW 4416   0.339   2.371   1.006
  939SOL    HW1 4417   0.287   2.288   0.989
  939SOL    HW2 4418   0.416   2.376   0.942
  940SOL     OW 4419   1.138   2.242   1.678
  940SOL    HW1 4420   1.093   2.305   1.742
  940SOL    HW2 4421   1.231   2.273   1.661
  941SOL     OW 4422   1.160   2.069   1.477
  941SOL    HW1 4423   1.160   2.133   1.554
  941SOL    HW2 4424   1.188   2.117   1.394
  942SOL     OW 4425   0.008   3.188   0.200
  942SOL    HW1 4426  -0.085   3.209   0.169
  942SOL    HW2 4427   0.018   3.089   0.213
  943SOL     OW 4428   0.088   3.663   0.927
  943SOL    HW1 4429   0.046   3.577   0.900
  943SOL    HW2 4430   0.182   3.666   0.893
  944SOL     OW 4431   0.504   3.430   0.910
  944SOL    HW1 4432   0.570   3.504   0.919
  944SOL    HW2 4433   0.548   3.351   0.868
  945SOL     OW 4434   1.002   2.658   1.238
  945SOL    HW1 4435   1.043   2.626   1.324
  945SOL    HW2 4436   0.906   2.631   1.235
  946SOL     OW 4437   0.040   2.406   1.114
  946SOL    HW1 4438   0.125   2.373   1.073
  946SOL    HW2 4439   0.053   2.421   1.212
  947SOL     OW 4440   0.189   2.382   1.722
  947SOL    HW1 4441   0.248   2.342   1.652
  947SOL    HW2 4442   0.131   2.453   1.681
  948SOL     OW 4443   1.369   2.812   1.660
  948SOL    HW1 4444   1.408   2.901   1.680
  948SOL    HW2 4445   1.379   2.792   1.563
  949SOL     OW 4446   0.815   2.434   0.325
  949SOL    HW1 4447   0.822   2.345   0.279
  949SOL    HW2 4448   0.721   2.468   0.317
  950SOL     OW 4449   1.657   2.466   1.206
  950SOL    HW1 4450   1.619   2.397   1.268
  950SOL    HW2 4451   1.739   2.430   1.162
  951SOL     OW 4452   0.252   3.426   1.744
  951SOL    HW1 4453   0.222   3.483   1.820
  951SOL    HW2 4454   0.245   3.329   1.770
  952SOL     OW 4455   0.671   2.326   1.269
  952SOL    HW1 4456   0.637   2.237   1.239
  952SOL    HW2 4457   0.697   2.380   1.189
  953SOL     OW 4458   0.930   3.540   1.465
  953SOL    HW1 4459   0.906   3.522   1.370
  953SOL    HW2 4460   0.960   3.634   1.475
  954SOL     OW 4461   0.473   2.362   0.191
  954SOL    HW1 4462   0.534   2.442   0.195
  954SOL    HW2 4463   0.378   2.393   0.198
  955SOL     OW 4464   0.159   2.999   1.466
  955SOL    HW1 4465   0.181   2.938   1.542
  955SOL    HW2 4466   0.169   2.950   1.380
  956SOL     OW 4467   1.347   2.921   1.234
  956SOL    HW1 4468   1.371   2.858   1.160
  956SOL    HW2 4469   1.257   2.961   1.216
  957SOL     OW 4470   1.302   2.717   0.309
  957SOL    HW1 4471   1.216   2.686   0.351
  957SOL    HW2 4472   1.298   2.703   0.210
  958SOL     OW 4473   1.759   3.609   1.154
  958SOL    HW1 4474   1.820   3.639   1.081
  958SOL    HW2 4475   1.721   3.520   1.132
  959SOL     OW 4476   1.252   3.593   1.128
  959SOL    HW1 4477   1.336   3.598   1.074
  959SOL    HW2 4478   1.229   3.497   1.146
  960SOL     OW 4479   0.083   3.120   1.022
  960SOL    HW1 4480   0.078   3.119   1.122
  960SOL    HW2 4481   0.000   3.079   0.984
  961SOL     OW 4482   0.688   3.524   1.716
  961SOL    HW1 4483   0.632   3.605   1.725
  961SOL    HW2 4484   0.740   3.528   1.630
  962SOL     OW 4485   0.903   1.948   0.133
  962SOL    HW1 4486   0.954   1.949   0.047
  962SOL    HW2 4487   0.959   1.906   0.204
  963SOL     OW 4488   1.726   1.997   0.523
  963SOL    HW1 4489   1.799   1.980   0.456
  963SOL    HW2 4490   1.695   1.910   0.561
  964SOL     OW 4491   1.388   3.435   0.477
  964SOL    HW1 4492   1.455   3.447   0.403
  964SOL    HW2 4493   1.348   3.524   0.500
  965SOL     OW 4494   0.130   3.656   1.851
  965SOL    HW1 4495   0.089   3.582   1.904
  965SOL    HW2 4496   0.194   3.707   1.909
  966SOL     OW 4497   1.280   2.789   0.672
  966SOL    HW1 4498   1.340   2.708   0.674
  966SOL    HW2 4499   1.320   2.858   0.612
  967SOL     OW 4500   0.830   3.135   1.422
  967SOL    HW1 4501   0.825   3.168   1.517
  967SOL    HW2 4502   0.744   3.154   1.376
  968SOL     OW 4503   0.672   3.478   0.154
  968SOL    HW1 4504   0.681   3.488   0.055
  968SOL    HW2 4505   0.632   3.389   0.175
  969SOL     OW 4506   1.650   3.582   1.394
  969SOL    HW1 4507   1.703   3.592   1.310
  969SOL    HW2 4508   1.623   3.672   1.428
  970SOL     OW 4509   1.841   2.037   0.963
  970SOL    HW1 4510   1.880   1.952   0.927
  970SOL    HW2 4511   1.743   2.039   0.944
  971SOL     OW 4512   0.263   2.188   0.720
  971SOL    HW1 4513   0.184   2.239   0.686
  971SOL    HW2 4514   0.254   2.173   0.818
  972SOL     OW 4515   1.194   3.474   0.031
  972SOL    HW1 4516   1.200   3.381   0.068
  972SOL    HW2 4517   1.135   3.474  -0.049
  973SOL     OW 4518   0.822   2.864   1.372
  973SOL    HW1 4519   0.862   2.863   1.280
  973SOL    HW2 4520   0.832   2.956   1.412
  974SOL     OW 4521   0.916   2.772   0.291
  974SOL    HW1 4522   0.979   2.810   0.223
  974SOL    HW2 4523   0.956   2.689   0.330
  975SOL     OW 4524   1.504   3.469   0.044
  975SOL    HW1 4525   1.412   3.506   0.051
  975SOL    HW2 4526   1.542   3.489  -0.046
  976SOL     OW 4527   0.372   3.150   1.490
  976SOL    HW1 4528   0.359   3.243   1.456
  976SOL    HW2 4529   0.288   3.098   1.477
  977SOL     OW 4530   1.614   3.154   1.289
  977SOL    HW1 4531   1.674   3.157   1.369
  977SOL    HW2 4532   1.539   3.218   1.302
  978SOL     OW 4533   1.039   2.960   0.696
  978SOL    HW1 4534   0.969   2.913   0.750
  978SOL    HW2 4535   1.098   2.892   0.653
  979SOL     OW 4536   1.014   2.098   0.971
  979SOL    HW1 4537   1.006   2.062   0.878
  979SOL    HW2 4538   1.012   2.022   1.036
  980SOL     OW 4539   0.590   3.349   0.491
  980SOL    HW1 4540   0.632   3.291   0.421
  980SOL    HW2 4541   0.546   3.428   0.447
  981SOL     OW 4542   1.709   2.247   1.381
  981SOL    HW1 4543   1.782   2.316   1.385
  981SOL    HW2 4544   1.737   2.172   1.322
  982SOL     OW 4545   0.255   3.210   0.290
  982SOL    HW1 4546   0.159   3.211   0.263
  982SOL    HW2 4547   0.267   3.263   0.374
  983SOL     OW 4548   0.105   2.875   1.726
  983SOL    HW1 4549   0.028   2.842   1.780
  983SOL    HW2 4550   0.190   2.845   1.768
  984SOL     OW 4551   0.672   2.065   1.489
  984SOL    HW1 4552   0.762   2.049   1.449
  984SOL    HW2 4553   0.680   2.070   1.588
  985SOL     OW 4554   0.075   2.207   0.033
  985SOL    HW1 4555  -0.017   2.179   0.004
  985SOL    HW2 4556   0.106   2.284  -0.023
  986SOL     OW 4557   1.440   2.718   1.398
  986SOL    HW1 4558   1.383   2.770   1.335
  986SOL    HW2 4559   1.536   2.730   1.374
  987SOL     OW 4560   0.072   2.028   0.318
  987SOL    HW1 4561   0.055   2.111   0.264
  987SOL    HW2 4562   0.162   1.991   0.296
  988SOL     OW 4563   1.183   3.197   0.119
  988SOL    HW1 4564   1.084   3.186   0.121
  988SOL    HW2 4565   1.217   3.212   0.212
  989SOL     OW 4566   0.613   2.704   1.431
  989SOL    HW1 4567   0.669   2.785   1.414
  989SOL    HW2 4568   0.672   2.624   1.434
  990SOL     OW 4569   1.493   3.629   0.959
  990SOL    HW1 4570   1.526   3.693   0.890
  990SOL    HW2 4571   1.559   3.623   1.034
  991SOL     OW 4572   0.716   2.427   1.708
  991SOL    HW1 4573   0.735   2.492   1.782
  991SOL    HW2 4574   0.776   2.347   1.717
  992SOL     OW 4575   1.450   3.082   1.633
  992SOL    HW1 4576   1.441   3.072   1.732
  992SOL    HW2 4577   1.546   3.075   1.607
  993SOL     OW 4578   0.390   3.603   1.560
  993SOL    HW1 4579   0.299   3.644   1.558
  993SOL    HW2 4580   0.383   3.509   1.592
  994SOL     OW 4581   1.674   2.745   1.254
  994SOL    HW1 4582   1.647   2.656   1.217
  994SOL    HW2 4583   1.675   2.813   1.181
  995SOL     OW 4584   1.225   2.187   0.449
  995SOL    HW1 4585   1.290   2.113   0.438
  995SOL    HW2 4586   1.245   2.237   0.533
  996SOL     OW 4587   0.594   2.607   0.652
  996SOL    HW1 4588   0.644   2.692   0.633
  996SOL    HW2 4589   0.506   2.609   0.604
  997SOL     OW 4590   1.777   2.204   1.642
  997SOL    HW1 4591   1.760   2.235   1.548
  997SOL    HW2 4592   1.693   2.167   1.680
  998SOL     OW 4593   1.730   2.796   1.517
  998SOL    HW1 4594   1.768   2.887   1.532
  998SOL    HW2 4595   1.722   2.779   1.418
  999SOL     OW 4596   0.859   3.236   0.016
  999SOL    HW1 4597   0.813   3.251   0.104
  999SOL    HW2 4598   0.903   3.321  -0.014
 1000SOL     OW 4599   0.661   3.652   0.953
 1000SOL    HW1 4600   0.615   3.740   0.940
 1000SOL    HW2 4601   0.760   3.664   0.946
 1001SOL     OW 4602   0.859   2.818   0.861
 1001SOL    HW1 4603   0.913   2.749   0.909
 1001SOL    HW2 4604   0.827   2.887   0.927
 1002SOL     OW 4605   1.083   2.846   0.087
 1002SOL    HW1 4606   1.060   2.899   0.005
 1002SOL    HW2 4607   1.164   2.790   0.068
 1003SOL     OW 4608   1.861   3.431   0.851
 1003SOL    HW1 4609   1.790   3.419   0.781
 1003SOL    HW2 4610   1.862   3.352   0.911
 1004SOL     OW 4611   0.221   3.176   1.844
 1004SOL    HW1 4612   0.156   3.103   1.823
 1004SOL    HW2 4613   0.225   3.190   1.942
 1005SOL     OW 4614   0.079   3.102   0.653
 1005SOL    HW1 4615   0.078   3.055   0.741
 1005SOL    HW2 4616   0.161   3.074   0.602
 1006SOL     OW 4617   0.672   3.253   1.624
 1006SOL    HW1 4618   0.594   3.203   1.662
 1006SOL    HW2 4619   0.669   3.348   1.655
 1007SOL     OW 4620   1.824   2.054   1.227
 1007SOL    HW1 4621   1.820   1.964   1.271
 1007SOL    HW2 4622   1.827   2.043   1.128
 1008SOL     OW 4623   0.428   2.286   0.520
 1008SOL    HW1 4624   0.458   2.214   0.458
 1008SOL    HW2 4625   0.389   2.246   0.603
 1009SOL     OW 4626   1.705   3.349   1.104
 1009SOL    HW1 4627   1.612   3.324   1.077
 1009SOL    HW2 4628   1.731   3.299   1.186
 1010SOL     OW 4629   0.317   2.409   1.280
 1010SOL    HW1 4630   0.355   2.350   1.352
 1010SOL    HW2 4631   0.357   2.383   1.192
 1011SOL     OW 4632   0.812   3.448   0.687
 1011SOL    HW1 4633   0.844   3.458   0.593
 1011SOL    HW2 4634   0.733   3.386   0.689
 1012SOL     OW 4635   1.424   2.076   1.112
 1012SOL    HW1 4636   1.476   2.011   1.167
 1012SOL    HW2 4637   1.375   2.139   1.173
 1013SOL     OW 4638   1.001   1.896   1.154
 1013SOL    HW1 4639   0.938   1.824   1.123
 1013SOL    HW2 4640   1.094   1.860   1.154
 1014SOL     OW 4641   0.770   3.192   0.301
 1014SOL    HW1 4642   0.724   3.105   0.318
 1014SOL    HW2 4643   0.861   3.189   0.342
 1015SOL     OW 4644   0.618   3.429   1.284
 1015SOL    HW1 4645   0.613   3.511   1.341
 1015SOL    HW2 4646   0.707   3.426   1.239
 1016SOL     OW 4647   1.352   1.914   0.168
 1016SOL    HW1 4648   1.387   1.873   0.084
 1016SOL    HW2 4649   1.262   1.876   0.188
 1017SOL     OW 4650   1.300   2.315   0.691
 1017SOL    HW1 4651   1.241   2.395   0.695
 1017SOL    HW2 4652   1.315   2.280   0.784
 1018SOL     OW 4653   1.593   2.083   0.882
 1018SOL    HW1 4654   1.509   2.082   0.936
 1018SOL    HW2 4655   1.595   2.166   0.826
 1019SOL     OW 4656   0.039   2.939   0.300
 1019SOL    HW1 4657   0.138   2.928   0.291
 1019SOL    HW2 4658  -0.001   2.853   0.332
 1020SOL     OW 4659   0.875   3.508   0.337
 1020SOL    HW1 4660   0.798   3.473   0.283
 1020SOL    HW2 4661   0.843   3.579   0.399
 1021SOL     OW 4662   0.225   2.137   2.858
 1021SOL    HW1 4663   0.260   2.120   2.950
 1021SOL    HW2 4664   0.137   2.092   2.846
 1022SOL     OW 4665   0.019   2.230   2.509
 1022SOL    HW1 4666  -0.063   2.273   2.548
 1022SOL    HW2 4667  -0.009   2.157   2.446
 1023SOL     OW 4668   0.569   3.137   3.027
 1023SOL    HW1 4669   0.476   3.130   2.990
 1023SOL    HW2 4670   0.580   3.226   3.071
 1024SOL     OW 4671   1.555   3.373   2.565
 1024SOL    HW1 4672   1.498   3.357   2.646
 1024SOL    HW2 4673   1.496   3.383   2.485
 1025SOL     OW 4674   1.135   2.565   2.579
 1025SOL    HW1 4675   1.192   2.643   2.554
 1025SOL    HW2 4676   1.075   2.591   2.655
 1026SOL     OW 4677   1.755   2.469   2.093
 1026SOL    HW1 4678   1.743   2.456   1.994
 1026SOL    HW2 4679   1.725   2.388   2.142
 1027SOL     OW 4680   0.768   3.006   2.885
 1027SOL    HW1 4681   0.690   3.023   2.945
 1027SOL    HW2 4682   0.802   3.093   2.849
 1028SOL     OW 4683   0.850   2.660   3.685
 1028SOL    HW1 4684   0.846   2.736   3.750
 1028SOL    HW2 4685   0.872   2.696   3.594
 1029SOL     OW 4686   0.685   2.874   2.527
 1029SOL    HW1 4687   0.754   2.858   2.597
 1029SOL    HW2 4688   0.612   2.931   2.565
 1030SOL     OW 4689   0.686   3.023   3.665
 1030SOL    HW1 4690   0.746   3.102   3.679
 1030SOL    HW2 4691   0.600   3.054   3.624
 1031SOL     OW 4692   0.335   3.297   2.923
 1031SOL    HW1 4693   0.257   3.266   2.870
 1031SOL    HW2 4694   0.393   3.355   2.866
 1032SOL     OW 4695   1.460   3.367   3.201
 1032SOL    HW1 4696   1.484   3.461   3.227
 1032SOL    HW2 4697   1.444   3.313   3.283
 1033SOL     OW 4698   0.438   2.254   3.361
 1033SOL    HW1 4699   0.520   2.198   3.370
 1033SOL    HW2 4700   0.357   2.196   3.365
 1034SOL     OW 4701   1.603   2.309   2.599
 1034SOL    HW1 4702   1.529   2.355   2.549
 1034SOL    HW2 4703   1.654   2.377   2.652
 1035SOL     OW 4704   0.231   3.575   2.345
 1035SOL    HW1 4705   0.265   3.652   2.399
 1035SOL    HW2 4706   0.275   3.575   2.255
 1036SOL     OW 4707   1.127   3.203   3.552
 1036SOL    HW1 4708   1.174   3.203   3.640
 1036SOL    HW2 4709   1.079   3.116   3.541
 1037SOL     OW 4710   0.230   3.296   2.400
 1037SOL    HW1 4711   0.204   3.392   2.400
 1037SOL    HW2 4712   0.159   3.242   2.445
 1038SOL     OW 4713   0.240   2.953   2.748
 1038SOL    HW1 4714   0.254   2.869   2.800
 1038SOL    HW2 4715   0.185   3.017   2.803
 1039SOL     OW 4716   0.620   3.648   3.301
 1039SOL    HW1 4717   0.528   3.631   3.336
 1039SOL    HW2 4718   0.648   3.740   3.327
 1040SOL     OW 4719   0.606   2.826   1.985
 1040SOL    HW1 4720   0.613   2.910   1.931
 1040SOL    HW2 4721   0.652   2.839   2.073
 1041SOL     OW 4722   1.594   1.976   3.342
 1041SOL    HW1 4723   1.576   2.043   3.270
 1041SOL    HW2 4724   1.591   2.022   3.431
 1042SOL     OW 4725   0.122   2.505   2.425
 1042SOL    HW1 4726   0.077   2.417   2.442
 1042SOL    HW2 4727   0.121   2.559   2.509
 1043SOL     OW 4728   0.027   3.458   1.979
 1043SOL    HW1 4729   0.008   3.362   2.000
 1043SOL    HW2 4730  -0.006   3.516   2.054
 1044SOL     OW 4731   1.641   2.970   2.294
 1044SOL    HW1 4732   1.727   2.972   2.242
 1044SOL    HW2 4733   1.655   3.017   2.382
 1045SOL     OW 4734   0.113   2.599   3.459
 1045SOL    HW1 4735   0.201   2.586   3.504
 1045SOL    HW2 4736   0.100   2.696   3.437
 1046SOL     OW 4737   0.613   3.227   2.588
 1046SOL    HW1 4738   0.564   3.140   2.597
 1046SOL    HW2 4739   0.590   3.270   2.501
 1047SOL     OW 4740   1.293   3.090   3.285
 1047SOL    HW1 4741   1.330   3.017   3.227
 1047SOL    HW2 4742   1.345   3.095   3.370
 1048SOL     OW 4743   0.809   1.866   2.364
 1048SOL    HW1 4744   0.849   1.957   2.355
 1048SOL    HW2 4745   0.709   1.874   2.370
 1049SOL     OW 4746   0.197   2.838   3.126
 1049SOL    HW1 4747   0.286   2.793   3.112
 1049SOL    HW2 4748   0.124   2.773   3.107
 1050SOL     OW 4749   1.525   2.861   2.052
 1050SOL    HW1 4750   1.462   2.785   2.065
 1050SOL    HW2 4751   1.573   2.879   2.138
 1051SOL     OW 4752   1.187   3.654   3.478
 1051SOL    HW1 4753   1.211   3.714   3.402
 1051SOL    HW2 4754   1.194   3.559   3.448
 1052SOL     OW 4755   0.317   2.113   3.663
 1052SOL    HW1 4756   0.388   2.184   3.669
 1052SOL    HW2 4757   0.229   2.152   3.691
 1053SOL     OW 4758   1.466   3.279   2.815
 1053SOL    HW1 4759   1.407   3.285   2.895
 1053SOL    HW2 4760   1.451   3.191   2.769
 1054SOL     OW 4761   1.667   3.576   2.434
 1054SOL    HW1 4762   1.626   3.553   2.346
 1054SOL    HW2 4763   1.649   3.502   2.499
 1055SOL     OW 4764   0.598   2.591   2.132
 1055SOL    HW1 4765   0.622   2.660   2.064
 1055SOL    HW2 4766   0.520   2.624   2.186
 1056SOL     OW 4767   1.281   2.207   2.806
 1056SOL    HW1 4768   1.195   2.157   2.793
 1056SOL    HW2 4769   1.343   2.153   2.862
 1057SOL     OW 4770   1.576   3.524   2.169
 1057SOL    HW1 4771   1.665   3.570   2.172
 1057SOL    HW2 4772   1.555   3.500   2.074
 1058SOL     OW 4773   0.807   2.467   3.327
 1058SOL    HW1 4774   0.760   2.464   3.416
 1058SOL    HW2 4775   0.756   2.412   3.261
 1059SOL     OW 4776   1.394   2.331   3.536
 1059SOL    HW1 4777   1.374   2.374   3.624
 1059SOL    HW2 4778   1.472   2.269   3.545
 1060SOL     OW 4779   0.973   2.752   3.434
 1060SOL    HW1 4780   1.019   2.668   3.405
 1060SOL    HW2 4781   0.917   2.786   3.359
 1061SOL     OW 4782   0.991   2.272   3.104
 1061SOL    HW1 4783   0.914   2.306   3.158
 1061SOL    HW2 4784   0.957   2.221   3.025
 1062SOL     OW 4785   1.041   2.563   2.291
 1062SOL    HW1 4786   1.067   2.559   2.387
 1062SOL    HW2 4787   0.956   2.512   2.277
 1063SOL     OW 4788   0.076   2.673   2.651
 1063SOL    HW1 4789   0.175   2.661   2.660
 1063SOL    HW2 4790   0.052   2.768   2.672
 1064SOL     OW 4791   0.130   3.683   3.433
 1064SOL    HW1 4792   0.120   3.668   3.532
 1064SOL    HW2 4793   0.044   3.719   3.397
 1065SOL     OW 4794   0.865   2.210   2.057
 1065SOL    HW1 4795   0.924   2.273   2.008
 1065SOL    HW2 4796   0.884   2.116   2.028
 1066SOL     OW 4797   1.719   2.447   3.693
 1066SOL    HW1 4798   1.693   2.536   3.657
 1066SOL    HW2 4799   1.717   2.379   3.620
 1067SOL     OW 4800   1.362   3.006   2.407
 1067SOL    HW1 4801   1.445   2.977   2.359
 1067SOL    HW2 4802   1.313   3.073   2.351
 1068SOL     OW 4803   0.550   2.058   2.747
 1068SOL    HW1 4804   0.545   2.053   2.847
 1068SOL    HW2 4805   0.552   2.154   2.718
 1069SOL     OW 4806   1.008   3.318   2.339
 1069SOL    HW1 4807   0.962   3.390   2.287
 1069SOL    HW2 4808   1.004   3.338   2.437
 1070SOL     OW 4809   0.351   3.663   2.715
 1070SOL    HW1 4810   0.401   3.577   2.721
 1070SOL    HW2 4811   0.416   3.740   2.712
 1071SOL     OW 4812   1.795   2.928   2.735
 1071SOL    HW1 4813   1.733   2.913   2.659
 1071SOL    HW2 4814   1.743   2.939   2.820
 1072SOL     OW 4815   1.227   3.412   3.368
 1072SOL    HW1 4816   1.233   3.335   3.432
 1072SOL    HW2 4817   1.175   3.386   3.288
 1073SOL     OW 4818   0.321   2.805   2.104
 1073SOL    HW1 4819   0.403   2.844   2.062
 1073SOL    HW2 4820   0.294   2.723   2.055
 1074SOL     OW 4821   1.458   2.597   2.590
 1074SOL    HW1 4822   1.453   2.532   2.665
 1074SOL    HW2 4823   1.538   2.656   2.603
 1075SOL     OW 4824   0.461   3.128   3.589
 1075SOL    HW1 4825   0.411   3.129   3.503
 1075SOL    HW2 4826   0.398   3.110   3.665
 1076SOL     OW 4827   1.111   3.638   2.099
 1076SOL    HW1 4828   1.051   3.576   2.149
 1076SOL    HW2 4829   1.142   3.594   2.014
 1077SOL     OW 4830   0.202   2.147   3.360
 1077SOL    HW1 4831   0.122   2.207   3.347
 1077SOL    HW2 4832   0.192   2.098   3.446
 1078SOL     OW 4833   1.632   3.239   1.943
 1078SOL    HW1 4834   1.600   3.333   1.933
 1078SOL    HW2 4835   1.556   3.176   1.931
 1079SOL     OW 4836   0.464   3.605   2.185
 1079SOL    HW1 4837   0.497   3.644   2.271
 1079SOL    HW2 4838   0.540   3.598   2.120
 1080SOL     OW 4839   1.400   1.969   2.288
 1080SOL    HW1 4840   1.376   1.932   2.198
 1080SOL    HW2 4841   1.499   1.985   2.292
 1081SOL     OW 4842   0.249   3.647   3.103
 1081SOL    HW1 4843   0.306   3.582   3.153
 1081SOL    HW2 4844   0.233   3.614   3.010
 1082SOL     OW 4845   0.940   3.560   2.766
 1082SOL    HW1 4846   1.020   3.503   2.787
 1082SOL    HW2 4847   0.891   3.520   2.689
 1083SOL     OW 4848   0.382   2.562   2.342
 1083SOL    HW1 4849   0.427   2.472   2.339
 1083SOL    HW2 4850   0.288   2.551   2.375
 1084SOL     OW 4851   1.547   2.084   3.591
 1084SOL    HW1 4852   1.542   2.121   3.683
 1084SOL    HW2 4853   1.475   2.015   3.579
 1085SOL     OW 4854   0.614   1.984   1.979
 1085SOL    HW1 4855   0.712   1.962   1.986
 1085SOL    HW2 4856   0.583   1.967   1.886
 1086SOL     OW 4857   0.781   2.126   3.611
 1086SOL    HW1 4858   0.848   2.065   3.654
 1086SOL    HW2 4859   0.708   2.145   3.676
 1087SOL     OW 4860   0.888   3.376   3.057
 1087SOL    HW1 4861   0.865   3.351   2.963
 1087SOL    HW2 4862   0.949   3.307   3.096
 1088SOL     OW 4863   1.351   2.452   3.295
 1088SOL    HW1 4864   1.379   2.409   3.380
 1088SOL    HW2 4865   1.376   2.548   3.296
 1089SOL     OW 4866   0.803   3.264   2.786
 1089SOL    HW1 4867   0.893   3.278   2.744
 1089SOL    HW2 4868   0.732   3.266   2.715
 1090SOL     OW 4869   0.922   2.365   2.761
 1090SOL    HW1 4870   0.897   2.356   2.665
 1090SOL    HW2 4871   0.970   2.283   2.792
 1091SOL     OW 4872   0.539   1.926   2.374
 1091SOL    HW1 4873   0.458   1.927   2.432
 1091SOL    HW2 4874   0.542   2.009   2.319
 1092SOL     OW 4875   1.434   3.050   1.903
 1092SOL    HW1 4876   1.466   2.974   1.960
 1092SOL    HW2 4877   1.342   3.077   1.933
 1093SOL     OW 4878   0.297   1.897   2.033
 1093SOL    HW1 4879   0.346   1.981   2.012
 1093SOL    HW2 4880   0.359   1.832   2.078
 1094SOL     OW 4881   0.935   2.098   2.342
 1094SOL    HW1 4882   0.887   2.139   2.264
 1094SOL    HW2 4883   1.034   2.096   2.323
 1095SOL     OW 4884   1.076   2.545   3.326
 1095SOL    HW1 4885   0.996   2.484   3.329
 1095SOL    HW2 4886   1.157   2.492   3.302
 1096SOL     OW 4887   1.227   3.432   2.655
 1096SOL    HW1 4888   1.248   3.506   2.590
 1096SOL    HW2 4889   1.295   3.432   2.728
 1097SOL     OW 4890   0.459   3.014   2.603
 1097SOL    HW1 4891   0.388   2.987   2.668
 1097SOL    HW2 4892   0.433   2.986   2.510
 1098SOL     OW 4893   1.271   3.659   2.453
 1098SOL    HW1 4894   1.315   3.723   2.389
 1098SOL    HW2 4895   1.221   3.711   2.523
 1099SOL     OW 4896   1.032   2.411   1.878
 1099SOL    HW1 4897   0.991   2.493   1.839
 1099SOL    HW2 4898   1.096   2.437   1.951
 1100SOL     OW 4899   0.078   2.418   3.248
 1100SOL    HW1 4900   0.170   2.417   3.207
 1100SOL    HW2 4901   0.072   2.492   3.315
 1101SOL     OW 4902   0.561   2.084   3.009
 1101SOL    HW1 4903   0.599   2.000   3.046
 1101SOL    HW2 4904   0.473   2.103   3.053
 1102SOL     OW 4905   0.866   2.316   2.504
 1102SOL    HW1 4906   0.834   2.388   2.442
 1102SOL    HW2 4907   0.890   2.235   2.451
 1103SOL     OW 4908   1.017   1.901   2.615
 1103SOL    HW1 4909   0.945   1.906   2.546
 1103SOL    HW2 4910   0.993   1.832   2.684
 1104SOL     OW 4911   1.429   3.035   2.729
 1104SOL    HW1 4912   1.374   2.951   2.722
 1104SOL    HW2 4913   1.455   3.064   2.637
 1105SOL     OW 4914   1.466   2.452   2.854
 1105SOL    HW1 4915   1.436   2.357   2.861
 1105SOL    HW2 4916   1.539   2.468   2.920
 1106SOL     OW 4917   1.857   2.695   2.239
 1106SOL    HW1 4918   1.899   2.631   2.303
 1106SOL    HW2 4919   1.819   2.644   2.161
 1107SOL     OW 4920   0.488   3.247   2.036
 1107SOL    HW1 4921   0.401   3.232   2.083
 1107SOL    HW2 4922   0.471   3.273   1.941
 1108SOL     OW 4923   1.390   2.437   1.940
 1108SOL    HW1 4924   1.336   2.416   2.021
 1108SOL    HW2 4925   1.481   2.396   1.949
 1109SOL     OW 4926   0.527   2.118   2.190
 1109SOL    HW1 4927   0.554   2.059   2.115
 1109SOL    HW2 4928   0.527   2.213   2.159
 1110SOL     OW 4929   1.754   3.085   3.450
 1110SOL    HW1 4930   1.845   3.046   3.437
 1110SOL    HW2 4931   1.762   3.181   3.474
 1111SOL     OW 4932   1.064   3.209   3.202
 1111SOL    HW1 4933   0.984   3.186   3.257
 1111SOL    HW2 4934   1.147   3.183   3.251
 1112SOL     OW 4935   1.592   3.491   3.487
 1112SOL    HW1 4936   1.619   3.525   3.397
 1112SOL    HW2 4937   1.671   3.453   3.533
 1113SOL     OW 4938   1.111   3.057   2.962
 1113SOL    HW1 4939   1.071   3.101   3.043
 1113SOL    HW2 4940   1.070   3.094   2.879
 1114SOL     OW 4941   1.638   2.961   2.941
 1114SOL    HW1 4942   1.643   3.042   3.000
 1114SOL    HW2 4943   1.552   2.963   2.890
 1115SOL     OW 4944   0.915   1.951   3.264
 1115SOL    HW1 4945   0.940   1.931   3.169
 1115SOL    HW2 4946   0.987   2.007   3.306
 1116SOL     OW 4947   0.980   2.978   3.581
 1116SOL    HW1 4948   0.881   2.984   3.591
 1116SOL    HW2 4949   1.003   2.898   3.525
 1117SOL     OW 4950   0.705   2.912   2.230
 1117SOL    HW1 4951   0.691   2.919   2.329
 1117SOL    HW2 4952   0.789   2.861   2.212
 1118SOL     OW 4953   0.410   2.675   3.113
 1118SOL    HW1 4954   0.496   2.687   3.163
 1118SOL    HW2 4955   0.368   2.588   3.140
 1119SOL     OW 4956   1.274   2.248   3.124
 1119SOL    HW1 4957   1.295   2.322   3.188
 1119SOL    HW2 4958   1.185   2.265   3.081
 1120SOL     OW 4959   0.064   3.426   3.193
 1120SOL    HW1 4960   0.018   3.508   3.159
 1120SOL    HW2 4961   0.162   3.445   3.202
 1121SOL     OW 4962   0.367   2.962   2.363
 1121SOL    HW1 4963   0.360   3.045   2.307
 1121SOL    HW2 4964   0.371   2.882   2.303
 1122SOL     OW 4965   0.566   2.399   2.727
 1122SOL    HW1 4966   0.578   2.465   2.653
 1122SOL    HW2 4967   0.612   2.433   2.810
 1123SOL     OW 4968   1.252   3.210   2.250
 1123SOL    HW1 4969   1.302   3.287   2.290
 1123SOL    HW2 4970   1.157   3.212   2.282
 1124SOL     OW 4971   1.272   3.307   3.004
 1124SOL    HW1 4972   1.319   3.320   3.091
 1124SOL    HW2 4973   1.206   3.233   3.013
 1125SOL     OW 4974   1.582   2.501   2.334
 1125SOL    HW1 4975   1.551   2.562   2.407
 1125SOL    HW2 4976   1.632   2.553   2.265
 1126SOL     OW 4977   0.354   3.372   3.191
 1126SOL    HW1 4978   0.333   3.328   3.104
 1126SOL    HW2 4979   0.451   3.398   3.194
 1127SOL     OW 4980   0.402   2.613   3.460
 1127SOL    HW1 4981   0.470   2.668   3.413
 1127SOL    HW2 4982   0.442   2.525   3.487
 1128SOL     OW 4983   1.587   2.641   3.532
 1128SOL    HW1 4984   1.495   2.679   3.527
 1128SOL    HW2 4985   1.647   2.688   3.467
 1129SOL     OW 4986   1.013   1.967   3.632
 1129SOL    HW1 4987   1.019   2.052   3.580
 1129SOL    HW2 4988   1.045   1.891   3.575
 1130SOL     OW 4989   0.504   1.912   3.602
 1130SOL    HW1 4990   0.462   1.855   3.532
 1130SOL    HW2 4991   0.438   1.981   3.634
 1131SOL     OW 4992   0.573   2.732   2.891
 1131SOL    HW1 4993   0.617   2.821   2.882
 1131SOL    HW2 4994   0.510   2.732   2.968
 1132SOL     OW 4995   1.360   2.724   2.907
 1132SOL    HW1 4996   1.285   2.724   2.841
 1132SOL    HW2 4997   1.397   2.632   2.916
 1133SOL     OW 4998   1.209   2.387   2.137
 1133SOL    HW1 4999   1.222   2.303   2.191
 1133SOL    HW2 5000   1.180   2.461   2.197
 1134SOL     OW 5001   0.307   2.075   3.093
 1134SOL    HW1 5002   0.284   2.112   3.183
 1134SOL    HW2 5003   0.277   1.980   3.087
 1135SOL     OW 5004   0.037   3.172   3.144
 1135SOL    HW1 5005   0.090   3.123   3.212
 1135SOL    HW2 5006   0.059   3.270   3.149
 1136SOL     OW 5007   0.732   2.496   2.926
 1136SOL    HW1 5008   0.791   2.470   2.850
 1136SOL    HW2 5009   0.704   2.592   2.915
 1137SOL     OW 5010   1.728   2.797   3.716
 1137SOL    HW1 5011   1.682   2.790   3.627
 1137SOL    HW2 5012   1.666   2.841   3.782
 1138SOL     OW 5013   0.307   1.925   2.480
 1138SOL    HW1 5014   0.296   2.019   2.513
 1138SOL    HW2 5015   0.302   1.862   2.557
 1139SOL     OW 5016   1.622   2.229   2.236
 1139SOL    HW1 5017   1.624   2.153   2.300
 1139SOL    HW2 5018   1.574   2.306   2.276
 1140SOL     OW 5019   1.023   2.628   2.828
 1140SOL    HW1 5020   1.038   2.649   2.924
 1140SOL    HW2 5021   0.993   2.533   2.819
 1141SOL     OW 5022   0.980   3.435   3.562
 1141SOL    HW1 5023   0.960   3.479   3.474
 1141SOL    HW2 5024   1.019   3.344   3.546
 1142SOL     OW 5025   1.859   3.380   3.467
 1142SOL    HW1 5026   1.873   3.407   3.372
 1142SOL    HW2 5027   1.942   3.402   3.520
 1143SOL     OW 5028   0.350   2.760   3.666
 1143SOL    HW1 5029   0.426   2.804   3.714
 1143SOL    HW2 5030   0.385   2.713   3.584
 1144SOL     OW 5031   1.540   2.136   1.987
 1144SOL    HW1 5032   1.479   2.061   2.010
 1144SOL    HW2 5033   1.562   2.188   2.070
 1145SOL     OW 5034   1.303   2.700   1.904
 1145SOL    HW1 5035   1.337   2.607   1.919
 1145SOL    HW2 5036   1.321   2.727   1.809
 1146SOL     OW 5037   1.068   3.195   2.711
 1146SOL    HW1 5038   1.075   3.111   2.656
 1146SOL    HW2 5039   1.130   3.264   2.675
 1147SOL     OW 5040   0.319   2.672   2.811
 1147SOL    HW1 5041   0.412   2.708   2.816
 1147SOL    HW2 5042   0.313   2.587   2.863
 1148SOL     OW 5043   0.339   2.371   2.868
 1148SOL    HW1 5044   0.287   2.288   2.851
 1148SOL    HW2 5045   0.416   2.376   2.804
 1149SOL     OW 5046   1.138   2.242   3.540
 1149SOL    HW1 5047   1.093   2.305   3.604
 1149SOL    HW2 5048   1.231   2.273   3.523
 1150SOL     OW 5049   1.160   2.069   3.339
 1150SOL    HW1 5050   1.160   2.133   3.416
 1150SOL    HW2 5051   1.188   2.117   3.256
 1151SOL     OW 5052   0.008   3.188   2.062
 1151SOL    HW1 5053  -0.085   3.209   2.031
 1151SOL    HW2 5054   0.018   3.089   2.075
 1152SOL     OW 5055   0.088   3.663   2.789
 1152SOL    HW1 5056   0.046   3.577   2.762
 1152SOL    HW2 5057   0.182   3.666   2.755
 1153SOL     OW 5058   0.504   3.430   2.772
 1153SOL    HW1 5059   0.570   3.504   2.781
 1153SOL    HW2 5060   0.548   3.351   2.730
 1154SOL     OW 5061   1.002   2.658   3.100
 1154SOL    HW1 5062   1.043   2.626   3.186
 1154SOL    HW2 5063   0.906   2.631   3.097
 1155SOL     OW 5064   0.040   2.406   2.976
 1155SOL    HW1 5065   0.125   2.373   2.935
 1155SOL    HW2 5066   0.053   2.421   3.074
 1156SOL     OW 5067   0.189   2.382   3.584
 1156SOL    HW1 5068   0.248   2.342   3.514
 1156SOL    HW2 5069   0.131   2.453   3.543
 1157SOL     OW 5070   1.369   2.812   3.522
 1157SOL    HW1 5071   1.408   2.901   3.542
 1157SOL    HW2 5072   1.379   2.792   3.425
 1158SOL     OW 5073   0.815   2.434   2.187
 1158SOL    HW1 5074   0.822   2.345   2.141
 1158SOL    HW2 5075   0.721   2.468   2.179
 1159SOL     OW 5076   1.657   2.466   3.068
 1159SOL    HW1 5077   1.619   2.397   3.130
 1159SOL    HW2 5078   1.739   2.430   3.024
 1160SOL     OW 5079   0.252   3.426   3.606
 1160SOL    HW1 5080   0.222   3.483   3.682
 1160SOL    HW2 5081   0.245   3.329   3.632
 1161SOL     OW 5082   0.671   2.326   3.131
 1161SOL    HW1 5083   0.637   2.237   3.101
 1161SOL    HW2 5084   0.697   2.380   3.051
 1162SOL     OW 5085   0.930   3.540   3.327
 1162SOL    HW1 5086   0.906   3.522   3.232
 1162SOL    HW2 5087   0.960   3.634   3.337
 1163SOL     OW 5088   0.473   2.362   2.053
 1163SOL    HW1 5089   0.534   2.442   2.057
 1163SOL    HW2 5090   0.378   2.393   2.060
 1164SOL     OW 5091   0.159   2.999   3.328
 1164SOL    HW1 5092   0.181   2.938   3.404
 1164SOL    HW2 5093   0.169   2.950   3.242
 1165SOL     OW 5094   1.347   2.921   3.096
 1165SOL    HW1 5095   1.371   2.858   3.022
 1165SOL    HW2 5096   1.257   2.961   3.078
 1166SOL     OW 5097   1.302   2.717   2.171
 1166SOL    HW1 5098   1.216   2.686   2.213
 1166SOL    HW2 5099   1.298   2.703   2.072
 1167SOL     OW 5100   1.759   3.609   3.016
 1167SOL    HW1 5101   1.820   3.639   2.943
 1167SOL    HW2 5102   1.721   3.520   2.994
 1168SOL     OW 5103   1.252   3.593   2.990
 1168SOL    HW1 5104   1.336   3.598   2.936
 1168SOL    HW2 5105   1.229   3.497   3.008
 1169SOL     OW 5106   0.083   3.120   2.884
 1169SOL    HW1 5107   0.078   3.119   2.984
 1169SOL    HW2 5108   0.000   3.079   2.846
 1170SOL     OW 5109   0.688   3.524   3.578
 1170SOL    HW1 5110   0.632   3.605   3.587
 1170SOL    HW2 5111   0.740   3.528   3.492
 1171SOL     OW 5112   1.726   1.997   2.385
 1171SOL    HW1 5113   1.799   1.980   2.318
 1171SOL    HW2 5114   1.695   1.910   2.423
 1172SOL     OW 5115   1.388   3.435   2.339
 1172SOL    HW1 5116   1.455   3.447   2.265
 1172SOL    HW2 5117   1.348   3.524   2.362
 1173SOL     OW 5118   0.130   3.656   3.713
 1173SOL    HW1 5119   0.089   3.582   3.766
 1173SOL    HW2 5120   0.194   3.707   3.771
 1174SOL     OW 5121   1.280   2.789   2.534
 1174SOL    HW1 5122   1.340   2.708   2.536
 1174SOL    HW2 5123   1.320   2.858   2.474
 1175SOL     OW 5124   0.830   3.135   3.284
 1175SOL    HW1 5125   0.825   3.168   3.379
 1175SOL    HW2 5126   0.744   3.154   3.238
 1176SOL     OW 5127   0.672   3.478   2.016
 1176SOL    HW1 5128   0.681   3.488   1.917
 1176SOL    HW2 5129   0.632   3.389   2.037
 1177SOL     OW 5130   1.650   3.582   3.256
 1177SOL    HW1 5131   1.703   3.592   3.172
 1177SOL    HW2 5132   1.623   3.672   3.290
 1178SOL     OW 5133   1.841   2.037   2.825
 1178SOL    HW1 5134   1.880   1.952   2.789
 1178SOL    HW2 5135   1.743   2.039   2.806
 1179SOL     OW 5136   0.263   2.188   2.582
 1179SOL    HW1 5137   0.184   2.239   2.548
 1179SOL    HW2 5138   0.254   2.173   2.680
 1180SOL     OW 5139   1.194   3.474   1.893
 1180SOL    HW1 5140   1.200   3.381   1.930
 1180SOL    HW2 5141   1.135   3.474   1.813
 1181SOL     OW 5142   0.822   2.864   3.234
 1181SOL    HW1 5143   0.862   2.863   3.142
 1181SOL    HW2 5144   0.832   2.956   3.274
 1182SOL     OW 5145   0.916   2.772   2.153
 1182SOL    HW1 5146   0.979   2.810   2.085
 1182SOL    HW2 5147   0.956   2.689   2.192
 1183SOL     OW 5148   1.504   3.469   1.906
 1183SOL    HW1 5149   1.412   3.506   1.913
 1183SOL    HW2 5150   1.542   3.489   1.816
 1184SOL     OW 5151   0.372   3.150   3.352
 1184SOL    HW1 5152   0.359   3.243   3.318
 1184SOL    HW2 5153   0.288   3.098   3.339
 1185SOL     OW 5154   1.614   3.154   3.151
 1185SOL    HW1 5155   1.674   3.157   3.231
 1185SOL    HW2 5156   1.539   3.218   3.164
 1186SOL     OW 5157   1.039   2.960   2.558
 1186SOL    HW1 5158   0.969   2.913   2.612
 1186SOL    HW2 5159   1.098   2.892   2.515
 1187SOL     OW 5160   1.014   2.098   2.833
 1187SOL    HW1 5161   1.006   2.062   2.740
 1187SOL    HW2 5162   1.012   2.022   2.898
 1188SOL     OW 5163   0.590   3.349   2.353
 1188SOL    HW1 5164   0.632   3.291   2.283
 1188SOL    HW2 5165   0.546   3.428   2.309
 1189SOL     OW 5166   0.255   3.210   2.152
 1189SOL    HW1 5167   0.159   3.211   2.125
 1189SOL    HW2 5168   0.267   3.263   2.236
 1190SOL     OW 5169   0.105   2.875   3.588
 1190SOL    HW1 5170   0.028   2.842   3.642
 1190SOL    HW2 5171   0.190   2.845   3.630
 1191SOL     OW 5172   0.672   2.065   3.351
 1191SOL    HW1 5173   0.762   2.049   3.311
 1191SOL    HW2 5174   0.680   2.070   3.450
 1192SOL     OW 5175   1.440   2.718   3.260
 1192SOL    HW1 5176   1.383   2.770   3.197
 1192SOL    HW2 5177   1.536   2.730   3.236
 1193SOL     OW 5178   0.072   2.028   2.180
 1193SOL    HW1 5179   0.055   2.111   2.126
 1193SOL    HW2 5180   0.162   1.991   2.158
 1194SOL     OW 5181   1.183   3.197   1.981
 1194SOL    HW1 5182   1.084   3.186   1.983
 1194SOL    HW2 5183   1.217   3.212   2.074
 1195SOL     OW 5184   0.613   2.704   3.293
 1195SOL    HW1 5185   0.669   2.785   3.276
 1195SOL    HW2 5186   0.672   2.624   3.296
 1196SOL     OW 5187   1.493   3.629   2.821
 1196SOL    HW1 5188   1.526   3.693   2.752
 1196SOL    HW2 5189   1.559   3.623   2.896
 1197SOL     OW 5190   0.716   2.427   3.570
 1197SOL    HW1 5191   0.735   2.492   3.644
 1197SOL    HW2 5192   0.776   2.347   3.579
 1198SOL     OW 5193   1.450   3.082   3.495
 1198SOL    HW1 5194   1.441   3.072   3.594
 1198SOL    HW2 5195   1.546   3.075   3.469
 1199SOL     OW 5196   0.390   3.603   3.422
 1199SOL    HW1 5197   0.299   3.644   3.420
 1199SOL    HW2 5198   0.383   3.509   3.454
 1200SOL     OW 5199   1.674   2.745   3.116
 1200SOL    HW1 5200   1.647   2.656   3.079
 1200SOL    HW2 5201   1.675   2.813   3.043
 1201SOL     OW 5202   1.225   2.187   2.311
 1201SOL    HW1 5203   1.290   2.113   2.300
 1201SOL    HW2 5204   1.245   2.237   2.395
 1202SOL     OW 5205   0.594   2.607   2.514
 1202SOL    HW1 5206   0.644   2.692   2.495
 1202SOL    HW2 5207   0.506   2.609   2.466
 1203SOL     OW 5208   1.730   2.796   3.379
 1203SOL    HW1 5209   1.768   2.887   3.394
 1203SOL    HW2 5210   1.722   2.779   3.280
 1204SOL     OW 5211   0.859   3.236   1.878
 1204SOL    HW1 5212   0.813   3.251   1.966
 1204SOL    HW2 5213   0.903   3.321   1.848
 1205SOL     OW 5214   0.661   3.652   2.815
 1205SOL    HW1 5215   0.615   3.740   2.802
 1205SOL    HW2 5216   0.760   3.664   2.808
 1206SOL     OW 5217   0.859   2.818   2.723
 1206SOL    HW1 5218   0.913   2.749   2.771
 1206SOL    HW2 5219   0.827   2.887   2.789
 1207SOL     OW 5220   1.083   2.846   1.949
 1207SOL    HW1 5221   1.060   2.899   1.867
 1207SOL    HW2 5222   1.164   2.790   1.930
 1208SOL     OW 5223   1.861   3.431   2.713
 1208SOL    HW1 5224   1.790   3.419   2.643
 1208SOL    HW2 5225   1.862   3.352   2.773
 1209SOL     OW 5226   0.221   3.176   3.706
 1209SOL    HW1 5227   0.156   3.103   3.685
 1209SOL    HW2 5228   0.225   3.190   3.804
 1210SOL     OW 5229   0.079   3.102   2.515
 1210SOL    HW1 5230   0.078   3.055   2.603
 1210SOL    HW2 5231   0.161   3.074   2.464
 1211SOL     OW 5232   0.672   3.253   3.486
 1211SOL    HW1 5233   0.594   3.203   3.524
 1211SOL    HW2 5234   0.669   3.348   3.517
 1212SOL     OW 5235   1.824   2.054   3.089
 1212SOL    HW1 5236   1.820   1.964   3.133
 1212SOL    HW2 5237   1.827   2.043   2.990
 1213SOL     OW 5238   0.428   2.286   2.382
 1213SOL    HW1 5239   0.458   2.214   2.320
 1213SOL    HW2 5240   0.389   2.246   2.465
 1214SOL     OW 5241   1.705   3.349   2.966
 1214SOL    HW1 5242   1.612   3.324   2.939
 1214SOL    HW2 5243   1.731   3.299   3.048
 1215SOL     OW 5244   0.317   2.409   3.142
 1215SOL    HW1 5245   0.355   2.350   3.214
 1215SOL    HW2 5246   0.357   2.383   3.054
 1216SOL     OW 5247   0.812   3.448   2.549
 1216SOL    HW1 5248   0.844   3.458   2.455
 1216SOL    HW2 5249   0.733   3.386   2.551
 1217SOL     OW 5250   1.424   2.076   2.974
 1217SOL    HW1 5251   1.476   2.011   3.029
 1217SOL    HW2 5252   1.375   2.139   3.035
 1218SOL     OW 5253   1.001   1.896   3.016
 1218SOL    HW1 5254   0.938   1.824   2.985
 1218SOL    HW2 5255   1.094   1.860   3.016
 1219SOL     OW 5256   0.770   3.192   2.163
 1219SOL    HW1 5257   0.724   3.105   2.180
 1219SOL    HW2 5258   0.861   3.189   2.204
 1220SOL     OW 5259   0.618   3.429   3.146
 1220SOL    HW1 5260   0.613   3.511   3.203
 1220SOL    HW2 5261   0.707   3.426   3.101
 1221SOL     OW 5262   1.352   1.914   2.030
 1221SOL    HW1 5263   1.387   1.873   1.946
 1221SOL    HW2 5264   1.262   1.876   2.050
 1222SOL     OW 5265   1.300   2.315   2.553
 1222SOL    HW1 5266   1.241   2.395   2.557
 1222SOL    HW2 5267   1.315   2.280   2.646
 1223SOL     OW 5268   1.593   2.083   2.744
 1223SOL    HW1 5269   1.509   2.082   2.798
 1223SOL    HW2 5270   1.595   2.166   2.688
 1224SOL     OW 5271   0.039   2.939   2.162
 1224SOL    HW1 5272   0.138   2.928   2.153
 1224SOL    HW2 5273  -0.001   2.853   2.194
 1225SOL     OW 5274   0.875   3.508   2.199
 1225SOL    HW1 5275   0.798   3.473   2.145
 1225SOL    HW2 5276   0.843   3.579   2.261
 1226SOL     OW 5277   0.230   2.490   3.837
 1226SOL    HW1 5278   0.137   2.488   3.874
 1226SOL    HW2 5279   0.231   2.451   3.745
 1227SOL     OW 5280   0.225   2.137   4.720
 1227SOL    HW1 5281   0.260   2.120   4.812
 1227SOL    HW2 5282   0.137   2.092   4.708
 1228SOL     OW 5283   0.019   2.230   4.371
 1228SOL    HW1 5284  -0.063   2.273   4.410
 1228SOL    HW2 5285  -0.009   2.157   4.308
 1229SOL     OW 5286   0.569   3.137   4.889
 1229SOL    HW1 5287   0.476   3.130   4.852
 1229SOL    HW2 5288   0.580   3.226   4.933
 1230SOL     OW 5289   1.555   3.373   4.427
 1230SOL    HW1 5290   1.498   3.357   4.508
 1230SOL    HW2 5291   1.496   3.383   4.347
 1231SOL     OW 5292   1.135   2.565   4.441
 1231SOL    HW1 5293   1.192   2.643   4.416
 1231SOL    HW2 5294   1.075   2.591   4.517
 1232SOL     OW 5295   0.768   3.006   4.747
 1232SOL    HW1 5296   0.690   3.023   4.807
 1232SOL    HW2 5297   0.802   3.093   4.711
 1233SOL     OW 5298   0.850   2.660   5.547
 1233SOL    HW1 5299   0.846   2.736   5.612
 1233SOL    HW2 5300   0.872   2.696   5.456
 1234SOL     OW 5301   0.685   2.874   4.389
 1234SOL    HW1 5302   0.754   2.858   4.459
 1234SOL    HW2 5303   0.612   2.931   4.427
 1235SOL     OW 5304   0.686   3.023   5.527
 1235SOL    HW1 5305   0.746   3.102   5.541
 1235SOL    HW2 5306   0.600   3.054   5.486
 1236SOL     OW 5307   0.335   3.297   4.785
 1236SOL    HW1 5308   0.257   3.266   4.732
 1236SOL    HW2 5309   0.393   3.355   4.728
 1237SOL     OW 5310   1.460   3.367   5.063
 1237SOL    HW1 5311   1.484   3.461   5.089
 1237SOL    HW2 5312   1.444   3.313   5.145
 1238SOL     OW 5313   0.438   2.254   5.223
 1238SOL    HW1 5314   0.520   2.198   5.232
 1238SOL    HW2 5315   0.357   2.196   5.227
 1239SOL     OW 5316   1.603   2.309   4.461
 1239SOL    HW1 5317   1.529   2.355   4.411
 1239SOL    HW2 5318   1.654   2.377   4.514
 1240SOL     OW 5319   0.231   3.575   4.207
 1240SOL    HW1 5320   0.265   3.652   4.261
 1240SOL    HW2 5321   0.275   3.575   4.117
 1241SOL     OW 5322   1.127   3.203   5.414
 1241SOL    HW1 5323   1.174   3.203   5.502
 1241SOL    HW2 5324   1.079   3.116   5.403
 1242SOL     OW 5325   0.230   3.296   4.262
 1242SOL    HW1 5326   0.204   3.392   4.262
 1242SOL    HW2 5327   0.159   3.242   4.307
 1243SOL     OW 5328   0.240   2.953   4.610
 1243SOL    HW1 5329   0.254   2.869   4.662
 1243SOL    HW2 5330   0.185   3.017   4.665
 1244SOL     OW 5331   0.620   3.648   5.163
 1244SOL    HW1 5332   0.528   3.631   5.198
 1244SOL    HW2 5333   0.648   3.740   5.189
 1245SOL     OW 5334   0.606   2.826   3.847
 1245SOL    HW1 5335   0.613   2.910   3.793
 1245SOL    HW2 5336   0.652   2.839   3.935
 1246SOL     OW 5337   1.594   1.976   5.204
 1246SOL    HW1 5338   1.576   2.043   5.132
 1246SOL    HW2 5339   1.591   2.022   5.293
 1247SOL     OW 5340   0.122   2.505   4.287
 1247SOL    HW1 5341   0.077   2.417   4.304
 1247SOL    HW2 5342   0.121   2.559   4.371
 1248SOL     OW 5343   1.842   3.629   4.083
 1248SOL    HW1 5344   1.896   3.600   4.163
 1248SOL    HW2 5345   1.872   3.719   4.054
 1249SOL     OW 5346   0.027   3.458   3.841
 1249SOL    HW1 5347   0.008   3.362   3.862
 1249SOL    HW2 5348  -0.006   3.516   3.916
 1250SOL     OW 5349   1.689   2.784   4.336
 1250SOL    HW1 5350   1.784   2.755   4.344
 1250SOL    HW2 5351   1.681   2.849   4.261
 1251SOL     OW 5352   1.641   2.970   4.156
 1251SOL    HW1 5353   1.727   2.972   4.104
 1251SOL    HW2 5354   1.655   3.017   4.244
 1252SOL     OW 5355   0.113   2.599   5.321
 1252SOL    HW1 5356   0.201   2.586   5.366
 1252SOL    HW2 5357   0.100   2.696   5.299
 1253SOL     OW 5358   0.613   3.227   4.450
 1253SOL    HW1 5359   0.564   3.140   4.459
 1253SOL    HW2 5360   0.590   3.270   4.363
 1254SOL     OW 5361   1.293   3.090   5.147
 1254SOL    HW1 5362   1.330   3.017   5.089
 1254SOL    HW2 5363   1.345   3.095   5.232
 1255SOL     OW 5364   0.809   1.866   4.226
 1255SOL    HW1 5365   0.849   1.957   4.217
 1255SOL    HW2 5366   0.709   1.874   4.232
 1256SOL     OW 5367   0.197   2.838   4.988
 1256SOL    HW1 5368   0.286   2.793   4.974
 1256SOL    HW2 5369   0.124   2.773   4.969
 1257SOL     OW 5370   1.525   2.861   3.914
 1257SOL    HW1 5371   1.462   2.785   3.927
 1257SOL    HW2 5372   1.573   2.879   4.000
 1258SOL     OW 5373   1.187   3.654   5.340
 1258SOL    HW1 5374   1.211   3.714   5.264
 1258SOL    HW2 5375   1.194   3.559   5.310
 1259SOL     OW 5376   0.317   2.113   5.525
 1259SOL    HW1 5377   0.388   2.184   5.531
 1259SOL    HW2 5378   0.229   2.152   5.553
 1260SOL     OW 5379   1.466   3.279   4.677
 1260SOL    HW1 5380   1.407   3.285   4.757
 1260SOL    HW2 5381   1.451   3.191   4.631
 1261SOL     OW 5382   1.667   3.576   4.296
 1261SOL    HW1 5383   1.626   3.553   4.208
 1261SOL    HW2 5384   1.649   3.502   4.361
 1262SOL     OW 5385   0.598   2.591   3.994
 1262SOL    HW1 5386   0.622   2.660   3.926
 1262SOL    HW2 5387   0.520   2.624   4.048
 1263SOL     OW 5388   1.281   2.207   4.668
 1263SOL    HW1 5389   1.195   2.157   4.655
 1263SOL    HW2 5390   1.343   2.153   4.724
 1264SOL     OW 5391   1.576   3.524   4.031
 1264SOL    HW1 5392   1.665   3.570   4.034
 1264SOL    HW2 5393   1.555   3.500   3.936
 1265SOL     OW 5394   0.807   2.467   5.189
 1265SOL    HW1 5395   0.760   2.464   5.278
 1265SOL    HW2 5396   0.756   2.412   5.123
 1266SOL     OW 5397   1.394   2.331   5.398
 1266SOL    HW1 5398   1.374   2.374   5.486
 1266SOL    HW2 5399   1.472   2.269   5.407
 1267SOL     OW 5400   0.973   2.752   5.296
 1267SOL    HW1 5401   1.019   2.668   5.267
 1267SOL    HW2 5402   0.917   2.786   5.221
 1268SOL     OW 5403   0.991   2.272   4.966
 1268SOL    HW1 5404   0.914   2.306   5.020
 1268SOL    HW2 5405   0.957   2.221   4.887
 1269SOL     OW 5406   1.041   2.563   4.153
 1269SOL    HW1 5407   1.067   2.559   4.249
 1269SOL    HW2 5408   0.956   2.512   4.139
 1270SOL     OW 5409   0.076   2.673   4.513
 1270SOL    HW1 5410   0.175   2.661   4.522
 1270SOL    HW2 5411   0.052   2.768   4.534
 1271SOL     OW 5412   0.130   3.683   5.295
 1271SOL    HW1 5413   0.120   3.668   5.394
 1271SOL    HW2 5414   0.044   3.719   5.259
 1272SOL     OW 5415   0.865   2.210   3.919
 1272SOL    HW1 5416   0.924   2.273   3.870
 1272SOL    HW2 5417   0.884   2.116   3.890
 1273SOL     OW 5418   1.719   2.447   5.555
 1273SOL    HW1 5419   1.693   2.536   5.519
 1273SOL    HW2 5420   1.717   2.379   5.482
 1274SOL     OW 5421   1.362   3.006   4.269
 1274SOL    HW1 5422   1.445   2.977   4.221
 1274SOL    HW2 5423   1.313   3.073   4.213
 1275SOL     OW 5424   0.550   2.058   4.609
 1275SOL    HW1 5425   0.545   2.053   4.709
 1275SOL    HW2 5426   0.552   2.154   4.580
 1276SOL     OW 5427   1.008   3.318   4.201
 1276SOL    HW1 5428   0.962   3.390   4.149
 1276SOL    HW2 5429   1.004   3.338   4.299
 1277SOL     OW 5430   0.351   3.663   4.577
 1277SOL    HW1 5431   0.401   3.577   4.583
 1277SOL    HW2 5432   0.416   3.740   4.574
 1278SOL     OW 5433   1.795   2.928   4.597
 1278SOL    HW1 5434   1.733   2.913   4.521
 1278SOL    HW2 5435   1.743   2.939   4.682
 1279SOL     OW 5436   1.227   3.412   5.230
 1279SOL    HW1 5437   1.233   3.335   5.294
 1279SOL    HW2 5438   1.175   3.386   5.150
 1280SOL     OW 5439   0.321   2.805   3.966
 1280SOL    HW1 5440   0.403   2.844   3.924
 1280SOL    HW2 5441   0.294   2.723   3.917
 1281SOL     OW 5442   1.458   2.597   4.452
 1281SOL    HW1 5443   1.453   2.532   4.527
 1281SOL    HW2 5444   1.538   2.656   4.465
 1282SOL     OW 5445   0.461   3.128   5.451
 1282SOL    HW1 5446   0.411   3.129   5.365
 1282SOL    HW2 5447   0.398   3.110   5.527
 1283SOL     OW 5448   1.111   3.638   3.961
 1283SOL    HW1 5449   1.051   3.576   4.011
 1283SOL    HW2 5450   1.142   3.594   3.876
 1284SOL     OW 5451   0.202   2.147   5.222
 1284SOL    HW1 5452   0.122   2.207   5.209
 1284SOL    HW2 5453   0.192   2.098   5.308
 1285SOL     OW 5454   1.632   3.239   3.805
 1285SOL    HW1 5455   1.600   3.333   3.795
 1285SOL    HW2 5456   1.556   3.176   3.793
 1286SOL     OW 5457   0.464   3.605   4.047
 1286SOL    HW1 5458   0.497   3.644   4.133
 1286SOL    HW2 5459   0.540   3.598   3.982
 1287SOL     OW 5460   1.400   1.969   4.150
 1287SOL    HW1 5461   1.376   1.932   4.060
 1287SOL    HW2 5462   1.499   1.985   4.154
 1288SOL     OW 5463   0.249   3.647   4.965
 1288SOL    HW1 5464   0.306   3.582   5.015
 1288SOL    HW2 5465   0.233   3.614   4.872
 1289SOL     OW 5466   0.940   3.560   4.628
 1289SOL    HW1 5467   1.020   3.503   4.649
 1289SOL    HW2 5468   0.891   3.520   4.551
 1290SOL     OW 5469   0.382   2.562   4.204
 1290SOL    HW1 5470   0.427   2.472   4.201
 1290SOL    HW2 5471   0.288   2.551   4.237
 1291SOL     OW 5472   1.547   2.084   5.453
 1291SOL    HW1 5473   1.542   2.121   5.545
 1291SOL    HW2 5474   1.475   2.015   5.441
 1292SOL     OW 5475   0.614   1.984   3.841
 1292SOL    HW1 5476   0.712   1.962   3.848
 1292SOL    HW2 5477   0.583   1.967   3.748
 1293SOL     OW 5478   0.781   2.126   5.473
 1293SOL    HW1 5479   0.848   2.065   5.516
 1293SOL    HW2 5480   0.708   2.145   5.538
 1294SOL     OW 5481   0.888   3.376   4.919
 1294SOL    HW1 5482   0.865   3.351   4.825
 1294SOL    HW2 5483   0.949   3.307   4.958
 1295SOL     OW 5484   1.351   2.452   5.157
 1295SOL    HW1 5485   1.379   2.409   5.242
 1295SOL    HW2 5486   1.376   2.548   5.158
 1296SOL     OW 5487   0.803   3.264   4.648
 1296SOL    HW1 5488   0.893   3.278   4.606
 1296SOL    HW2 5489   0.732   3.266   4.577
 1297SOL     OW 5490   0.922   2.365   4.623
 1297SOL    HW1 5491   0.897   2.356   4.527
 1297SOL    HW2 5492   0.970   2.283   4.654
 1298SOL     OW 5493   0.539   1.926   4.236
 1298SOL    HW1 5494   0.458   1.927   4.294
 1298SOL    HW2 5495   0.542   2.009   4.181
 1299SOL     OW 5496   1.434   3.050   3.765
 1299SOL    HW1 5497   1.466   2.974   3.822
 1299SOL    HW2 5498   1.342   3.077   3.795
 1300SOL     OW 5499   0.297   1.897   3.895
 1300SOL    HW1 5500   0.346   1.981   3.874
 1300SOL    HW2 5501   0.359   1.832   3.940
 1301SOL     OW 5502   0.935   2.098   4.204
 1301SOL    HW1 5503   0.887   2.139   4.126
 1301SOL    HW2 5504   1.034   2.096   4.185
 1302SOL     OW 5505   1.076   2.545   5.188
 1302SOL    HW1 5506   0.996   2.484   5.191
 1302SOL    HW2 5507   1.157   2.492   5.164
 1303SOL     OW 5508   1.227   3.432   4.517
 1303SOL    HW1 5509   1.248   3.506   4.452
 1303SOL    HW2 5510   1.295   3.432   4.590
 1304SOL     OW 5511   0.459   3.014   4.465
 1304SOL    HW1 5512   0.388   2.987   4.530
 1304SOL    HW2 5513   0.433   2.986   4.372
 1305SOL     OW 5514   1.271   3.659   4.315
 1305SOL    HW1 5515   1.315   3.723   4.251
 1305SOL    HW2 5516   1.221   3.711   4.385
 1306SOL     OW 5517   1.032   2.411   3.740
 1306SOL    HW1 5518   0.991   2.493   3.701
 1306SOL    HW2 5519   1.096   2.437   3.813
 1307SOL     OW 5520   0.078   2.418   5.110
 1307SOL    HW1 5521   0.170   2.417   5.069
 1307SOL    HW2 5522   0.072   2.492   5.177
 1308SOL     OW 5523   0.561   2.084   4.871
 1308SOL    HW1 5524   0.599   2.000   4.908
 1308SOL    HW2 5525   0.473   2.103   4.915
 1309SOL     OW 5526   0.866   2.316   4.366
 1309SOL    HW1 5527   0.834   2.388   4.304
 1309SOL    HW2 5528   0.890   2.235   4.313
 1310SOL     OW 5529   1.017   1.901   4.477
 1310SOL    HW1 5530   0.945   1.906   4.408
 1310SOL    HW2 5531   0.993   1.832   4.546
 1311SOL     OW 5532   1.429   3.035   4.591
 1311SOL    HW1 5533   1.374   2.951   4.584
 1311SOL    HW2 5534   1.455   3.064   4.499
 1312SOL     OW 5535   1.466   2.452   4.716
 1312SOL    HW1 5536   1.436   2.357   4.723
 1312SOL    HW2 5537   1.539   2.468   4.782
 1313SOL     OW 5538   0.488   3.247   3.898
 1313SOL    HW1 5539   0.401   3.232   3.945
 1313SOL    HW2 5540   0.471   3.273   3.803
 1314SOL     OW 5541   1.664   3.142   4.381
 1314SOL    HW1 5542   1.763   3.150   4.395
 1314SOL    HW2 5543   1.619   3.226   4.412
 1315SOL     OW 5544   1.390   2.437   3.802
 1315SOL    HW1 5545   1.336   2.416   3.883
 1315SOL    HW2 5546   1.481   2.396   3.811
 1316SOL     OW 5547   0.527   2.118   4.052
 1316SOL    HW1 5548   0.554   2.059   3.977
 1316SOL    HW2 5549   0.527   2.213   4.021
 1317SOL     OW 5550   1.754   3.085   5.312
 1317SOL    HW1 5551   1.845   3.046   5.299
 1317SOL    HW2 5552   1.762   3.181   5.336
 1318SOL     OW 5553   1.064   3.209   5.064
 1318SOL    HW1 5554   0.984   3.186   5.119
 1318SOL    HW2 5555   1.147   3.183   5.113
 1319SOL     OW 5556   1.592   3.491   5.349
 1319SOL    HW1 5557   1.619   3.525   5.259
 1319SOL    HW2 5558   1.671   3.453   5.395
 1320SOL     OW 5559   1.111   3.057   4.824
 1320SOL    HW1 5560   1.071   3.101   4.905
 1320SOL    HW2 5561   1.070   3.094   4.741
 1321SOL     OW 5562   1.638   2.961   4.803
 1321SOL    HW1 5563   1.643   3.042   4.862
 1321SOL    HW2 5564   1.552   2.963   4.752
 1322SOL     OW 5565   0.915   1.951   5.126
 1322SOL    HW1 5566   0.940   1.931   5.031
 1322SOL    HW2 5567   0.987   2.007   5.168
 1323SOL     OW 5568   0.980   2.978   5.443
 1323SOL    HW1 5569   0.881   2.984   5.453
 1323SOL    HW2 5570   1.003   2.898   5.387
 1324SOL     OW 5571   0.705   2.912   4.092
 1324SOL    HW1 5572   0.691   2.919   4.191
 1324SOL    HW2 5573   0.789   2.861   4.074
 1325SOL     OW 5574   0.410   2.675   4.975
 1325SOL    HW1 5575   0.496   2.687   5.025
 1325SOL    HW2 5576   0.368   2.588   5.002
 1326SOL     OW 5577   1.274   2.248   4.986
 1326SOL    HW1 5578   1.295   2.322   5.050
 1326SOL    HW2 5579   1.185   2.265   4.943
 1327SOL     OW 5580   0.064   3.426   5.055
 1327SOL    HW1 5581   0.018   3.508   5.021
 1327SOL    HW2 5582   0.162   3.445   5.064
 1328SOL     OW 5583   0.367   2.962   4.225
 1328SOL    HW1 5584   0.360   3.045   4.169
 1328SOL    HW2 5585   0.371   2.882   4.165
 1329SOL     OW 5586   0.566   2.399   4.589
 1329SOL    HW1 5587   0.578   2.465   4.515
 1329SOL    HW2 5588   0.612   2.433   4.672
 1330SOL     OW 5589   1.252   3.210   4.112
 1330SOL    HW1 5590   1.302   3.287   4.152
 1330SOL    HW2 5591   1.157   3.212   4.144
 1331SOL     OW 5592   1.272   3.307   4.866
 1331SOL    HW1 5593   1.319   3.320   4.953
 1331SOL    HW2 5594   1.206   3.233   4.875
 1332SOL     OW 5595   1.582   2.501   4.196
 1332SOL    HW1 5596   1.551   2.562   4.269
 1332SOL    HW2 5597   1.632   2.553   4.127
 1333SOL     OW 5598   0.354   3.372   5.053
 1333SOL    HW1 5599   0.333   3.328   4.966
 1333SOL    HW2 5600   0.451   3.398   5.056
 1334SOL     OW 5601   0.402   2.613   5.322
 1334SOL    HW1 5602   0.470   2.668   5.275
 1334SOL    HW2 5603   0.442   2.525   5.349
 1335SOL     OW 5604   1.587   2.641   5.394
 1335SOL    HW1 5605   1.495   2.679   5.389
 1335SOL    HW2 5606   1.647   2.688   5.329
 1336SOL     OW 5607   1.013   1.967   5.494
 1336SOL    HW1 5608   1.019   2.052   5.442
 1336SOL    HW2 5609   1.045   1.891   5.437
 1337SOL     OW 5610   0.504   1.912   5.464
 1337SOL    HW1 5611   0.462   1.855   5.394
 1337SOL    HW2 5612   0.438   1.981   5.496
 1338SOL     OW 5613   0.573   2.732   4.753
 1338SOL    HW1 5614   0.617   2.821   4.744
 1338SOL    HW2 5615   0.510   2.732   4.830
 1339SOL     OW 5616   1.360   2.724   4.769
 1339SOL    HW1 5617   1.285   2.724   4.703
 1339SOL    HW2 5618   1.397   2.632   4.778
 1340SOL     OW 5619   1.209   2.387   3.999
 1340SOL    HW1 5620   1.222   2.303   4.053
 1340SOL    HW2 5621   1.180   2.461   4.059
 1341SOL     OW 5622   0.307   2.075   4.955
 1341SOL    HW1 5623   0.284   2.112   5.045
 1341SOL    HW2 5624   0.277   1.980   4.949
 1342SOL     OW 5625   0.037   3.172   5.006
 1342SOL    HW1 5626   0.090   3.123   5.074
 1342SOL    HW2 5627   0.059   3.270   5.011
 1343SOL     OW 5628   0.732   2.496   4.788
 1343SOL    HW1 5629   0.791   2.470   4.712
 1343SOL    HW2 5630   0.704   2.592   4.777
 1344SOL     OW 5631   1.728   2.797   5.578
 1344SOL    HW1 5632   1.682   2.790   5.489
 1344SOL    HW2 5633   1.666   2.841   5.644
 1345SOL     OW 5634   0.307   1.925   4.342
 1345SOL    HW1 5635   0.296   2.019   4.375
 1345SOL    HW2 5636   0.302   1.862   4.419
 1346SOL     OW 5637   1.622   2.229   4.098
 1346SOL    HW1 5638   1.624   2.153   4.162
 1346SOL    HW2 5639   1.574   2.306   4.138
 1347SOL     OW 5640   1.023   2.628   4.690
 1347SOL    HW1 5641   1.038   2.649   4.786
 1347SOL    HW2 5642   0.993   2.533   4.681
 1348SOL     OW 5643   0.980   3.435   5.424
 1348SOL    HW1 5644   0.960   3.479   5.336
 1348SOL    HW2 5645   1.019   3.344   5.408
 1349SOL     OW 5646   1.859   3.380   5.329
 1349SOL    HW1 5647   1.873   3.407   5.234
 1349SOL    HW2 5648   1.942   3.402   5.382
 1350SOL     OW 5649   0.350   2.760   5.528
 1350SOL    HW1 5650   0.426   2.804   5.576
 1350SOL    HW2 5651   0.385   2.713   5.446
 1351SOL     OW 5652   1.540   2.136   3.849
 1351SOL    HW1 5653   1.479   2.061   3.872
 1351SOL    HW2 5654   1.562   2.188   3.932
 1352SOL     OW 5655   1.303   2.700   3.766
 1352SOL    HW1 5656   1.337   2.607   3.781
 1352SOL    HW2 5657   1.321   2.727   3.671
 1353SOL     OW 5658   1.068   3.195   4.573
 1353SOL    HW1 5659   1.075   3.111   4.518
 1353SOL    HW2 5660   1.130   3.264   4.537
 1354SOL     OW 5661   0.319   2.672   4.673
 1354SOL    HW1 5662   0.412   2.708   4.678
 1354SOL    HW2 5663   0.313   2.587   4.725
 1355SOL     OW 5664   0.339   2.371   4.730
 1355SOL    HW1 5665   0.287   2.288   4.713
 1355SOL    HW2 5666   0.416   2.376   4.666
 1356SOL     OW 5667   1.138   2.242   5.402
 1356SOL    HW1 5668   1.093   2.305   5.466
 1356SOL    HW2 5669   1.231   2.273   5.385
 1357SOL     OW 5670   1.160   2.069   5.201
 1357SOL    HW1 5671   1.160   2.133   5.278
 1357SOL    HW2 5672   1.188   2.117   5.118
 1358SOL     OW 5673   0.008   3.188   3.924
 1358SOL    HW1 5674  -0.085   3.209   3.893
 1358SOL    HW2 5675   0.018   3.089   3.937
 1359SOL     OW 5676   0.088   3.663   4.651
 1359SOL    HW1 5677   0.046   3.577   4.624
 1359SOL    HW2 5678   0.182   3.666   4.617
 1360SOL     OW 5679   0.504   3.430   4.634
 1360SOL    HW1 5680   0.570   3.504   4.643
 1360SOL    HW2 5681   0.548   3.351   4.592
 1361SOL     OW 5682   1.002   2.658   4.962
 1361SOL    HW1 5683   1.043   2.626   5.048
 1361SOL    HW2 5684   0.906   2.631   4.959
 1362SOL     OW 5685   0.040   2.406   4.838
 1362SOL    HW1 5686   0.125   2.373   4.797
 1362SOL    HW2 5687   0.053   2.421   4.936
 1363SOL     OW 5688   0.189   2.382   5.446
 1363SOL    HW1 5689   0.248   2.342   5.376
 1363SOL    HW2 5690   0.131   2.453   5.405
 1364SOL     OW 5691   1.369   2.812   5.384
 1364SOL    HW1 5692   1.408   2.901   5.404
 1364SOL    HW2 5693   1.379   2.792   5.287
 1365SOL     OW 5694   0.815   2.434   4.049
 1365SOL    HW1 5695   0.822   2.345   4.003
 1365SOL    HW2 5696   0.721   2.468   4.041
 1366SOL     OW 5697   1.657   2.466   4.930
 1366SOL    HW1 5698   1.619   2.397   4.992
 1366SOL    HW2 5699   1.739   2.430   4.886
 1367SOL     OW 5700   0.252   3.426   5.468
 1367SOL    HW1 5701   0.222   3.483   5.544
 1367SOL    HW2 5702   0.245   3.329   5.494
 1368SOL     OW 5703   0.671   2.326   4.993
 1368SOL    HW1 5704   0.637   2.237   4.963
 1368SOL    HW2 5705   0.697   2.380   4.913
 1369SOL     OW 5706   0.930   3.540   5.189
 1369SOL    HW1 5707   0.906   3.522   5.094
 1369SOL    HW2 5708   0.960   3.634   5.199
 1370SOL     OW 5709   0.473   2.362   3.915
 1370SOL    HW1 5710   0.534   2.442   3.919
 1370SOL    HW2 5711   0.378   2.393   3.922
 1371SOL     OW 5712   0.159   2.999   5.190
 1371SOL    HW1 5713   0.181   2.938   5.266
 1371SOL    HW2 5714   0.169   2.950   5.104
 1372SOL     OW 5715   1.347   2.921   4.958
 1372SOL    HW1 5716   1.371   2.858   4.884
 1372SOL    HW2 5717   1.257   2.961   4.940
 1373SOL     OW 5718   1.302   2.717   4.033
 1373SOL    HW1 5719   1.216   2.686   4.075
 1373SOL    HW2 5720   1.298   2.703   3.934
 1374SOL     OW 5721   1.759   3.609   4.878
 1374SOL    HW1 5722   1.820   3.639   4.805
 1374SOL    HW2 5723   1.721   3.520   4.856
 1375SOL     OW 5724   1.252   3.593   4.852
 1375SOL    HW1 5725   1.336   3.598   4.798
 1375SOL    HW2 5726   1.229   3.497   4.870
 1376SOL     OW 5727   0.083   3.120   4.746
 1376SOL    HW1 5728   0.078   3.119   4.846
 1376SOL    HW2 5729   0.000   3.079   4.708
 1377SOL     OW 5730   0.688   3.524   5.440
 1377SOL    HW1 5731   0.632   3.605   5.449
 1377SOL    HW2 5732   0.740   3.528   5.354
 1378SOL     OW 5733   1.726   1.997   4.247
 1378SOL    HW1 5734   1.799   1.980   4.180
 1378SOL    HW2 5735   1.695   1.910   4.285
 1379SOL     OW 5736   1.388   3.435   4.201
 1379SOL    HW1 5737   1.455   3.447   4.127
 1379SOL    HW2 5738   1.348   3.524   4.224
 1380SOL     OW 5739   1.280   2.789   4.396
 1380SOL    HW1 5740   1.340   2.708   4.398
 1380SOL    HW2 5741   1.320   2.858   4.336
 1381SOL     OW 5742   0.830   3.135   5.146
 1381SOL    HW1 5743   0.825   3.168   5.241
 1381SOL    HW2 5744   0.744   3.154   5.100
 1382SOL     OW 5745   0.672   3.478   3.878
 1382SOL    HW1 5746   0.681   3.488   3.779
 1382SOL    HW2 5747   0.632   3.389   3.899
 1383SOL     OW 5748   1.650   3.582   5.118
 1383SOL    HW1 5749   1.703   3.592   5.034
 1383SOL    HW2 5750   1.623   3.672   5.152
 1384SOL     OW 5751   1.841   2.037   4.687
 1384SOL    HW1 5752   1.880   1.952   4.651
 1384SOL    HW2 5753   1.743   2.039   4.668
 1385SOL     OW 5754   0.263   2.188   4.444
 1385SOL    HW1 5755   0.184   2.239   4.410
 1385SOL    HW2 5756   0.254   2.173   4.542
 1386SOL     OW 5757   1.194   3.474   3.755
 1386SOL    HW1 5758   1.200   3.381   3.792
 1386SOL    HW2 5759   1.135   3.474   3.675
 1387SOL     OW 5760   0.822   2.864   5.096
 1387SOL    HW1 5761   0.862   2.863   5.004
 1387SOL    HW2 5762   0.832   2.956   5.136
 1388SOL     OW 5763   0.916   2.772   4.015
 1388SOL    HW1 5764   0.979   2.810   3.947
 1388SOL    HW2 5765   0.956   2.689   4.054
 1389SOL     OW 5766   1.504   3.469   3.768
 1389SOL    HW1 5767   1.412   3.506   3.775
 1389SOL    HW2 5768   1.542   3.489   3.678
 1390SOL     OW 5769   0.372   3.150   5.214
 1390SOL    HW1 5770   0.359   3.243   5.180
 1390SOL    HW2 5771   0.288   3.098   5.201
 1391SOL     OW 5772   1.614   3.154   5.013
 1391SOL    HW1 5773   1.674   3.157   5.093
 1391SOL    HW2 5774   1.539   3.218   5.026
 1392SOL     OW 5775   1.039   2.960   4.420
 1392SOL    HW1 5776   0.969   2.913   4.474
 1392SOL    HW2 5777   1.098   2.892   4.377
 1393SOL     OW 5778   1.014   2.098   4.695
 1393SOL    HW1 5779   1.006   2.062   4.602
 1393SOL    HW2 5780   1.012   2.022   4.760
 1394SOL     OW 5781   0.590   3.349   4.215
 1394SOL    HW1 5782   0.632   3.291   4.145
 1394SOL    HW2 5783   0.546   3.428   4.171
 1395SOL     OW 5784   1.709   2.247   5.105
 1395SOL    HW1 5785   1.782   2.316   5.109
 1395SOL    HW2 5786   1.737   2.172   5.046
 1396SOL     OW 5787   0.255   3.210   4.014
 1396SOL    HW1 5788   0.159   3.211   3.987
 1396SOL    HW2 5789   0.267   3.263   4.098
 1397SOL     OW 5790   0.105   2.875   5.450
 1397SOL    HW1 5791   0.028   2.842   5.504
 1397SOL    HW2 5792   0.190   2.845   5.492
 1398SOL     OW 5793   0.672   2.065   5.213
 1398SOL    HW1 5794   0.762   2.049   5.173
 1398SOL    HW2 5795   0.680   2.070   5.312
 1399SOL     OW 5796   0.075   2.207   3.757
 1399SOL    HW1 5797  -0.017   2.179   3.728
 1399SOL    HW2 5798   0.106   2.284   3.701
 1400SOL     OW 5799   1.440   2.718   5.122
 1400SOL    HW1 5800   1.383   2.770   5.059
 1400SOL    HW2 5801   1.536   2.730   5.098
 1401SOL     OW 5802   0.072   2.028   4.042
 1401SOL    HW1 5803   0.055   2.111   3.988
 1401SOL    HW2 5804   0.162   1.991   4.020
 1402SOL     OW 5805   1.183   3.197   3.843
 1402SOL    HW1 5806   1.084   3.186   3.845
 1402SOL    HW2 5807   1.217   3.212   3.936
 1403SOL     OW 5808   0.613   2.704   5.155
 1403SOL    HW1 5809   0.669   2.785   5.138
 1403SOL    HW2 5810   0.672   2.624   5.158
 1404SOL     OW 5811   1.493   3.629   4.683
 1404SOL    HW1 5812   1.526   3.693   4.614
 1404SOL    HW2 5813   1.559   3.623   4.758
 1405SOL     OW 5814   0.716   2.427   5.432
 1405SOL    HW1 5815   0.735   2.492   5.506
 1405SOL    HW2 5816   0.776   2.347   5.441
 1406SOL     OW 5817   1.450   3.082   5.357
 1406SOL    HW1 5818   1.441   3.072   5.456
 1406SOL    HW2 5819   1.546   3.075   5.331
 1407SOL     OW 5820   0.390   3.603   5.284
 1407SOL    HW1 5821   0.299   3.644   5.282
 1407SOL    HW2 5822   0.383   3.509   5.316
 1408SOL     OW 5823   1.674   2.745   4.978
 1408SOL    HW1 5824   1.647   2.656   4.941
 1408SOL    HW2 5825   1.675   2.813   4.905
 1409SOL     OW 5826   1.225   2.187   4.173
 1409SOL    HW1 5827   1.290   2.113   4.162
 1409SOL    HW2 5828   1.245   2.237   4.257
 1410SOL     OW 5829   0.594   2.607   4.376
 1410SOL    HW1 5830   0.644   2.692   4.357
 1410SOL    HW2 5831   0.506   2.609   4.328
 1411SOL     OW 5832   1.777   2.204   5.366
 1411SOL    HW1 5833   1.760   2.235   5.272
 1411SOL    HW2 5834   1.693   2.167   5.404
 1412SOL     OW 5835   1.730   2.796   5.241
 1412SOL    HW1 5836   1.768   2.887   5.256
 1412SOL    HW2 5837   1.722   2.779   5.142
 1413SOL     OW 5838   0.859   3.236   3.740
 1413SOL    HW1 5839   0.813   3.251   3.828
 1413SOL    HW2 5840   0.903   3.321   3.710
 1414SOL     OW 5841   0.661   3.652   4.677
 1414SOL    HW1 5842   0.615   3.740   4.664
 1414SOL    HW2 5843   0.760   3.664   4.670
 1415SOL     OW 5844   0.859   2.818   4.585
 1415SOL    HW1 5845   0.913   2.749   4.633
 1415SOL    HW2 5846   0.827   2.887   4.651
 1416SOL     OW 5847   1.083   2.846   3.811
 1416SOL    HW1 5848   1.060   2.899   3.729
 1416SOL    HW2 5849   1.164   2.790   3.792
 1417SOL     OW 5850   0.221   3.176   5.568
 1417SOL    HW1 5851   0.156   3.103   5.547
 1417SOL    HW2 5852   0.225   3.190   5.666
 1418SOL     OW 5853   0.079   3.102   4.377
 1418SOL    HW1 5854   0.078   3.055   4.465
 1418SOL    HW2 5855   0.161   3.074   4.326
 1419SOL     OW 5856   0.672   3.253   5.348
 1419SOL    HW1 5857   0.594   3.203   5.386
 1419SOL    HW2 5858   0.669   3.348   5.379
 1420SOL     OW 5859   1.824   2.054   4.951
 1420SOL    HW1 5860   1.820   1.964   4.995
 1420SOL    HW2 5861   1.827   2.043   4.852
 1421SOL     OW 5862   0.428   2.286   4.244
 1421SOL    HW1 5863   0.458   2.214   4.182
 1421SOL    HW2 5864   0.389   2.246   4.327
 1422SOL     OW 5865   1.705   3.349   4.828
 1422SOL    HW1 5866   1.612   3.324   4.801
 1422SOL    HW2 5867   1.731   3.299   4.910
 1423SOL     OW 5868   0.317   2.409   5.004
 1423SOL    HW1 5869   0.355   2.350   5.076
 1423SOL    HW2 5870   0.357   2.383   4.916
 1424SOL     OW 5871   0.812   3.448   4.411
 1424SOL    HW1 5872   0.844   3.458   4.317
 1424SOL    HW2 5873   0.733   3.386   4.413
 1425SOL     OW 5874   1.424   2.076   4.836
 1425SOL    HW1 5875   1.476   2.011   4.891
 1425SOL    HW2 5876   1.375   2.139   4.897
 1426SOL     OW 5877   1.001   1.896   4.878
 1426SOL    HW1 5878   0.938   1.824   4.847
 1426SOL    HW2 5879   1.094   1.860   4.878
 1427SOL     OW 5880   0.770   3.192   4.025
 1427SOL    HW1 5881   0.724   3.105   4.042
 1427SOL    HW2 5882   0.861   3.189   4.066
 1428SOL     OW 5883   0.618   3.429   5.008
 1428SOL    HW1 5884   0.613   3.511   5.065
 1428SOL    HW2 5885   0.707   3.426   4.963
 1429SOL     OW 5886   1.352   1.914   3.892
 1429SOL    HW1 5887   1.387   1.873   3.808
 1429SOL    HW2 5888   1.262   1.876   3.912
 1430SOL     OW 5889   1.300   2.315   4.415
 1430SOL    HW1 5890   1.241   2.395   4.419
 1430SOL    HW2 5891   1.315   2.280   4.508
 1431SOL     OW 5892   1.593   2.083   4.606
 1431SOL    HW1 5893   1.509   2.082   4.660
 1431SOL    HW2 5894   1.595   2.166   4.550
 1432SOL     OW 5895   0.039   2.939   4.024
 1432SOL    HW1 5896   0.138   2.928   4.015
 1432SOL    HW2 5897  -0.001   2.853   4.056
 1433SOL     OW 5898   0.875   3.508   4.061
 1433SOL    HW1 5899   0.798   3.473   4.007
 1433SOL    HW2 5900   0.843   3.579   4.123
 1434SOL     OW 5901   0.230   2.490   5.699
 1434SOL    HW1 5902   0.137   2.488   5.736
 1434SOL    HW2 5903   0.231   2.451   5.607
 1435SOL     OW 5904   0.225   2.137   6.582
 1435SOL    HW1 5905   0.260   2.120   6.674
 1435SOL    HW2 5906   0.137   2.092   6.570
 1436SOL     OW 5907   0.019   2.230   6.233
 1436SOL    HW1 5908  -0.063   2.273   6.272
 1436SOL    HW2 5909  -0.009   2.157   6.170
 1437SOL     OW 5910   0.569   3.137   6.751
 1437SOL    HW1 5911   0.476   3.130   6.714
 1437SOL    HW2 5912   0.580   3.226   6.795
 1438SOL     OW 5913   1.555   3.373   6.289
 1438SOL    HW1 5914   1.498   3.357   6.370
 1438SOL    HW2 5915   1.496   3.383   6.209
 1439SOL     OW 5916   1.135   2.565   6.303
 1439SOL    HW1 5917   1.192   2.643   6.278
 1439SOL    HW2 5918   1.075   2.591   6.379
 1440SOL     OW 5919   1.755   2.469   5.817
 1440SOL    HW1 5920   1.743   2.456   5.718
 1440SOL    HW2 5921   1.725   2.388   5.866
 1441SOL     OW 5922   0.768   3.006   6.609
 1441SOL    HW1 5923   0.690   3.023   6.669
 1441SOL    HW2 5924   0.802   3.093   6.573
 1442SOL     OW 5925   0.685   2.874   6.251
 1442SOL    HW1 5926   0.754   2.858   6.321
 1442SOL    HW2 5927   0.612   2.931   6.289
 1443SOL     OW 5928   0.335   3.297   6.647
 1443SOL    HW1 5929   0.257   3.266   6.594
 1443SOL    HW2 5930   0.393   3.355   6.590
 1444SOL     OW 5931   1.603   2.309   6.323
 1444SOL    HW1 5932   1.529   2.355   6.273
 1444SOL    HW2 5933   1.654   2.377   6.376
 1445SOL     OW 5934   0.231   3.575   6.069
 1445SOL    HW1 5935   0.265   3.652   6.123
 1445SOL    HW2 5936   0.275   3.575   5.979
 1446SOL     OW 5937   0.230   3.296   6.124
 1446SOL    HW1 5938   0.204   3.392   6.124
 1446SOL    HW2 5939   0.159   3.242   6.169
 1447SOL     OW 5940   0.240   2.953   6.472
 1447SOL    HW1 5941   0.254   2.869   6.524
 1447SOL    HW2 5942   0.185   3.017   6.527
 1448SOL     OW 5943   0.620   3.648   7.025
 1448SOL    HW1 5944   0.528   3.631   7.060
 1448SOL    HW2 5945   0.648   3.740   7.051
 1449SOL     OW 5946   0.606   2.826   5.709
 1449SOL    HW1 5947   0.613   2.910   5.655
 1449SOL    HW2 5948   0.652   2.839   5.797
 1450SOL     OW 5949   0.122   2.505   6.149
 1450SOL    HW1 5950   0.077   2.417   6.166
 1450SOL    HW2 5951   0.121   2.559   6.233
 1451SOL     OW 5952   1.842   3.629   5.945
 1451SOL    HW1 5953   1.896   3.600   6.025
 1451SOL    HW2 5954   1.872   3.719   5.916
 1452SOL     OW 5955   0.027   3.458   5.703
 1452SOL    HW1 5956   0.008   3.362   5.724
 1452SOL    HW2 5957  -0.006   3.516   5.778
 1453SOL     OW 5958   1.689   2.784   6.198
 1453SOL    HW1 5959   1.784   2.755   6.206
 1453SOL    HW2 5960   1.681   2.849   6.123
 1454SOL     OW 5961   1.641   2.970   6.018
 1454SOL    HW1 5962   1.727   2.972   5.966
 1454SOL    HW2 5963   1.655   3.017   6.106
 1455SOL     OW 5964   0.613   3.227   6.312
 1455SOL    HW1 5965   0.564   3.140   6.321
 1455SOL    HW2 5966   0.590   3.270   6.225
 1456SOL     OW 5967   0.809   1.866   6.088
 1456SOL    HW1 5968   0.849   1.957   6.079
 1456SOL    HW2 5969   0.709   1.874   6.094
 1457SOL     OW 5970   0.197   2.838   6.850
 1457SOL    HW1 5971   0.286   2.793   6.836
 1457SOL    HW2 5972   0.124   2.773   6.831
 1458SOL     OW 5973   1.525   2.861   5.776
 1458SOL    HW1 5974   1.462   2.785   5.789
 1458SOL    HW2 5975   1.573   2.879   5.862
 1459SOL     OW 5976   1.466   3.279   6.539
 1459SOL    HW1 5977   1.407   3.285   6.619
 1459SOL    HW2 5978   1.451   3.191   6.493
 1460SOL     OW 5979   1.667   3.576   6.158
 1460SOL    HW1 5980   1.626   3.553   6.070
 1460SOL    HW2 5981   1.649   3.502   6.223
 1461SOL     OW 5982   0.598   2.591   5.856
 1461SOL    HW1 5983   0.622   2.660   5.788
 1461SOL    HW2 5984   0.520   2.624   5.910
 1462SOL     OW 5985   1.281   2.207   6.530
 1462SOL    HW1 5986   1.195   2.157   6.517
 1462SOL    HW2 5987   1.343   2.153   6.586
 1463SOL     OW 5988   1.576   3.524   5.893
 1463SOL    HW1 5989   1.665   3.570   5.896
 1463SOL    HW2 5990   1.555   3.500   5.798
 1464SOL     OW 5991   0.807   2.467   7.051
 1464SOL    HW1 5992   0.760   2.464   7.140
 1464SOL    HW2 5993   0.756   2.412   6.985
 1465SOL     OW 5994   0.991   2.272   6.828
 1465SOL    HW1 5995   0.914   2.306   6.882
 1465SOL    HW2 5996   0.957   2.221   6.749
 1466SOL     OW 5997   1.041   2.563   6.015
 1466SOL    HW1 5998   1.067   2.559   6.111
 1466SOL    HW2 5999   0.956   2.512   6.001
 1467SOL     OW 6000   0.076   2.673   6.375
 1467SOL    HW1 6001   0.175   2.661   6.384
 1467SOL    HW2 6002   0.052   2.768   6.396
 1468SOL     OW 6003   0.130   3.683   7.157
 1468SOL    HW1 6004   0.120   3.668   7.256
 1468SOL    HW2 6005   0.044   3.719   7.121
 1469SOL     OW 6006   0.865   2.210   5.781
 1469SOL    HW1 6007   0.924   2.273   5.732
 1469SOL    HW2 6008   0.884   2.116   5.752
 1470SOL     OW 6009   1.362   3.006   6.131
 1470SOL    HW1 6010   1.445   2.977   6.083
 1470SOL    HW2 6011   1.313   3.073   6.075
 1471SOL     OW 6012   0.550   2.058   6.471
 1471SOL    HW1 6013   0.545   2.053   6.571
 1471SOL    HW2 6014   0.552   2.154   6.442
 1472SOL     OW 6015   1.008   3.318   6.063
 1472SOL    HW1 6016   0.962   3.390   6.011
 1472SOL    HW2 6017   1.004   3.338   6.161
 1473SOL     OW 6018   0.351   3.663   6.439
 1473SOL    HW1 6019   0.401   3.577   6.445
 1473SOL    HW2 6020   0.416   3.740   6.436
 1474SOL     OW 6021   1.795   2.928   6.459
 1474SOL    HW1 6022   1.733   2.913   6.383
 1474SOL    HW2 6023   1.743   2.939   6.544
 1475SOL     OW 6024   0.321   2.805   5.828
 1475SOL    HW1 6025   0.403   2.844   5.786
 1475SOL    HW2 6026   0.294   2.723   5.779
 1476SOL     OW 6027   1.458   2.597   6.314
 1476SOL    HW1 6028   1.453   2.532   6.389
 1476SOL    HW2 6029   1.538   2.656   6.327
 1477SOL     OW 6030   1.111   3.638   5.823
 1477SOL    HW1 6031   1.051   3.576   5.873
 1477SOL    HW2 6032   1.142   3.594   5.738
 1478SOL     OW 6033   1.632   3.239   5.667
 1478SOL    HW1 6034   1.600   3.333   5.657
 1478SOL    HW2 6035   1.556   3.176   5.655
 1479SOL     OW 6036   0.464   3.605   5.909
 1479SOL    HW1 6037   0.497   3.644   5.995
 1479SOL    HW2 6038   0.540   3.598   5.844
 1480SOL     OW 6039   1.400   1.969   6.012
 1480SOL    HW1 6040   1.376   1.932   5.922
 1480SOL    HW2 6041   1.499   1.985   6.016
 1481SOL     OW 6042   0.249   3.647   6.827
 1481SOL    HW1 6043   0.306   3.582   6.877
 1481SOL    HW2 6044   0.233   3.614   6.734
 1482SOL     OW 6045   0.940   3.560   6.490
 1482SOL    HW1 6046   1.020   3.503   6.511
 1482SOL    HW2 6047   0.891   3.520   6.413
 1483SOL     OW 6048   0.382   2.562   6.066
 1483SOL    HW1 6049   0.427   2.472   6.063
 1483SOL    HW2 6050   0.288   2.551   6.099
 1484SOL     OW 6051   0.614   1.984   5.703
 1484SOL    HW1 6052   0.712   1.962   5.710
 1484SOL    HW2 6053   0.583   1.967   5.610
 1485SOL     OW 6054   0.888   3.376   6.781
 1485SOL    HW1 6055   0.865   3.351   6.687
 1485SOL    HW2 6056   0.949   3.307   6.820
 1486SOL     OW 6057   0.803   3.264   6.510
 1486SOL    HW1 6058   0.893   3.278   6.468
 1486SOL    HW2 6059   0.732   3.266   6.439
 1487SOL     OW 6060   0.922   2.365   6.485
 1487SOL    HW1 6061   0.897   2.356   6.389
 1487SOL    HW2 6062   0.970   2.283   6.516
 1488SOL     OW 6063   0.539   1.926   6.098
 1488SOL    HW1 6064   0.458   1.927   6.156
 1488SOL    HW2 6065   0.542   2.009   6.043
 1489SOL     OW 6066   1.434   3.050   5.627
 1489SOL    HW1 6067   1.466   2.974   5.684
 1489SOL    HW2 6068   1.342   3.077   5.657
 1490SOL     OW 6069   0.297   1.897   5.757
 1490SOL    HW1 6070   0.346   1.981   5.736
 1490SOL    HW2 6071   0.359   1.832   5.802
 1491SOL     OW 6072   0.935   2.098   6.066
 1491SOL    HW1 6073   0.887   2.139   5.988
 1491SOL    HW2 6074   1.034   2.096   6.047
 1492SOL     OW 6075   1.227   3.432   6.379
 1492SOL    HW1 6076   1.248   3.506   6.314
 1492SOL    HW2 6077   1.295   3.432   6.452
 1493SOL     OW 6078   0.459   3.014   6.327
 1493SOL    HW1 6079   0.388   2.987   6.392
 1493SOL    HW2 6080   0.433   2.986   6.234
 1494SOL     OW 6081   1.271   3.659   6.177
 1494SOL    HW1 6082   1.315   3.723   6.113
 1494SOL    HW2 6083   1.221   3.711   6.247
 1495SOL     OW 6084   1.032   2.411   5.602
 1495SOL    HW1 6085   0.991   2.493   5.563
 1495SOL    HW2 6086   1.096   2.437   5.675
 1496SOL     OW 6087   0.561   2.084   6.733
 1496SOL    HW1 6088   0.599   2.000   6.770
 1496SOL    HW2 6089   0.473   2.103   6.777
 1497SOL     OW 6090   0.866   2.316   6.228
 1497SOL    HW1 6091   0.834   2.388   6.166
 1497SOL    HW2 6092   0.890   2.235   6.175
 1498SOL     OW 6093   1.017   1.901   6.339
 1498SOL    HW1 6094   0.945   1.906   6.270
 1498SOL    HW2 6095   0.993   1.832   6.408
 1499SOL     OW 6096   1.429   3.035   6.453
 1499SOL    HW1 6097   1.374   2.951   6.446
 1499SOL    HW2 6098   1.455   3.064   6.361
 1500SOL     OW 6099   1.466   2.452   6.578
 1500SOL    HW1 6100   1.436   2.357   6.585
 1500SOL    HW2 6101   1.539   2.468   6.644
 1501SOL     OW 6102   1.857   2.695   5.963
 1501SOL    HW1 6103   1.899   2.631   6.027
 1501SOL    HW2 6104   1.819   2.644   5.885
 1502SOL     OW 6105   0.488   3.247   5.760
 1502SOL    HW1 6106   0.401   3.232   5.807
 1502SOL    HW2 6107   0.471   3.273   5.665
 1503SOL     OW 6108   1.664   3.142   6.243
 1503SOL    HW1 6109   1.763   3.150   6.257
 1503SOL    HW2 6110   1.619   3.226   6.274
 1504SOL     OW 6111   1.390   2.437   5.664
 1504SOL    HW1 6112   1.336   2.416   5.745
 1504SOL    HW2 6113   1.481   2.396   5.673
 1505SOL     OW 6114   0.527   2.118   5.914
 1505SOL    HW1 6115   0.554   2.059   5.839
 1505SOL    HW2 6116   0.527   2.213   5.883
 1506SOL     OW 6117   1.754   3.085   7.174
 1506SOL    HW1 6118   1.845   3.046   7.161
 1506SOL    HW2 6119   1.762   3.181   7.198
 1507SOL     OW 6120   1.111   3.057   6.686
 1507SOL    HW1 6121   1.071   3.101   6.767
 1507SOL    HW2 6122   1.070   3.094   6.603
 1508SOL     OW 6123   1.638   2.961   6.665
 1508SOL    HW1 6124   1.643   3.042   6.724
 1508SOL    HW2 6125   1.552   2.963   6.614
 1509SOL     OW 6126   0.705   2.912   5.954
 1509SOL    HW1 6127   0.691   2.919   6.053
 1509SOL    HW2 6128   0.789   2.861   5.936
 1510SOL     OW 6129   0.410   2.675   6.837
 1510SOL    HW1 6130   0.496   2.687   6.887
 1510SOL    HW2 6131   0.368   2.588   6.864
 1511SOL     OW 6132   1.274   2.248   6.848
 1511SOL    HW1 6133   1.295   2.322   6.912
 1511SOL    HW2 6134   1.185   2.265   6.805
 1512SOL     OW 6135   0.064   3.426   6.917
 1512SOL    HW1 6136   0.018   3.508   6.883
 1512SOL    HW2 6137   0.162   3.445   6.926
 1513SOL     OW 6138   0.367   2.962   6.087
 1513SOL    HW1 6139   0.360   3.045   6.031
 1513SOL    HW2 6140   0.371   2.882   6.027
 1514SOL     OW 6141   0.566   2.399   6.451
 1514SOL    HW1 6142   0.578   2.465   6.377
 1514SOL    HW2 6143   0.612   2.433   6.534
 1515SOL     OW 6144   1.252   3.210   5.974
 1515SOL    HW1 6145   1.302   3.287   6.014
 1515SOL    HW2 6146   1.157   3.212   6.006
 1516SOL     OW 6147   1.272   3.307   6.728
 1516SOL    HW1 6148   1.319   3.320   6.815
 1516SOL    HW2 6149   1.206   3.233   6.737
 1517SOL     OW 6150   1.582   2.501   6.058
 1517SOL    HW1 6151   1.551   2.562   6.131
 1517SOL    HW2 6152   1.632   2.553   5.989
 1518SOL     OW 6153   0.354   3.372   6.915
 1518SOL    HW1 6154   0.333   3.328   6.828
 1518SOL    HW2 6155   0.451   3.398   6.918
 1519SOL     OW 6156   0.573   2.732   6.615
 1519SOL    HW1 6157   0.617   2.821   6.606
 1519SOL    HW2 6158   0.510   2.732   6.692
 1520SOL     OW 6159   1.360   2.724   6.631
 1520SOL    HW1 6160   1.285   2.724   6.565
 1520SOL    HW2 6161   1.397   2.632   6.640
 1521SOL     OW 6162   1.209   2.387   5.861
 1521SOL    HW1 6163   1.222   2.303   5.915
 1521SOL    HW2 6164   1.180   2.461   5.921
 1522SOL     OW 6165   0.307   2.075   6.817
 1522SOL    HW1 6166   0.284   2.112   6.907
 1522SOL    HW2 6167   0.277   1.980   6.811
 1523SOL     OW 6168   0.037   3.172   6.868
 1523SOL    HW1 6169   0.090   3.123   6.936
 1523SOL    HW2 6170   0.059   3.270   6.873
 1524SOL     OW 6171   0.732   2.496   6.650
 1524SOL    HW1 6172   0.791   2.470   6.574
 1524SOL    HW2 6173   0.704   2.592   6.639
 1525SOL     OW 6174   0.307   1.925   6.204
 1525SOL    HW1 6175   0.296   2.019   6.237
 1525SOL    HW2 6176   0.302   1.862   6.281
 1526SOL     OW 6177   1.622   2.229   5.960
 1526SOL    HW1 6178   1.624   2.153   6.024
 1526SOL    HW2 6179   1.574   2.306   6.000
 1527SOL     OW 6180   1.023   2.628   6.552
 1527SOL    HW1 6181   1.038   2.649   6.648
 1527SOL    HW2 6182   0.993   2.533   6.543
 1528SOL     OW 6183   1.859   3.380   7.191
 1528SOL    HW1 6184   1.873   3.407   7.096
 1528SOL    HW2 6185   1.942   3.402   7.244
 1529SOL     OW 6186   1.540   2.136   5.711
 1529SOL    HW1 6187   1.479   2.061   5.734
 1529SOL    HW2 6188   1.562   2.188   5.794
 1530SOL     OW 6189   1.303   2.700   5.628
 1530SOL    HW1 6190   1.337   2.607   5.643
 1530SOL    HW2 6191   1.321   2.727   5.533
 1531SOL     OW 6192   1.068   3.195   6.435
 1531SOL    HW1 6193   1.075   3.111   6.380
 1531SOL    HW2 6194   1.130   3.264   6.399
 1532SOL     OW 6195   0.319   2.672   6.535
 1532SOL    HW1 6196   0.412   2.708   6.540
 1532SOL    HW2 6197   0.313   2.587   6.587
 1533SOL     OW 6198   0.339   2.371   6.592
 1533SOL    HW1 6199   0.287   2.288   6.575
 1533SOL    HW2 6200   0.416   2.376   6.528
 1534SOL     OW 6201   1.160   2.069   7.063
 1534SOL    HW1 6202   1.160   2.133   7.140
 1534SOL    HW2 6203   1.188   2.117   6.980
 1535SOL     OW 6204   0.008   3.188   5.786
 1535SOL    HW1 6205  -0.085   3.209   5.755
 1535SOL    HW2 6206   0.018   3.089   5.799
 1536SOL     OW 6207   0.088   3.663   6.513
 1536SOL    HW1 6208   0.046   3.577   6.486
 1536SOL    HW2 6209   0.182   3.666   6.479
 1537SOL     OW 6210   0.504   3.430   6.496
 1537SOL    HW1 6211   0.570   3.504   6.505
 1537SOL    HW2 6212   0.548   3.351   6.454
 1538SOL     OW 6213   1.002   2.658   6.824
 1538SOL    HW1 6214   1.043   2.626   6.910
 1538SOL    HW2 6215   0.906   2.631   6.821
 1539SOL     OW 6216   0.040   2.406   6.700
 1539SOL    HW1 6217   0.125   2.373   6.659
 1539SOL    HW2 6218   0.053   2.421   6.798
 1540SOL     OW 6219   0.815   2.434   5.911
 1540SOL    HW1 6220   0.822   2.345   5.865
 1540SOL    HW2 6221   0.721   2.468   5.903
 1541SOL     OW 6222   1.657   2.466   6.792
 1541SOL    HW1 6223   1.619   2.397   6.854
 1541SOL    HW2 6224   1.739   2.430   6.748
 1542SOL     OW 6225   0.671   2.326   6.855
 1542SOL    HW1 6226   0.637   2.237   6.825
 1542SOL    HW2 6227   0.697   2.380   6.775
 1543SOL     OW 6228   0.930   3.540   7.051
 1543SOL    HW1 6229   0.906   3.522   6.956
 1543SOL    HW2 6230   0.960   3.634   7.061
 1544SOL     OW 6231   0.473   2.362   5.777
 1544SOL    HW1 6232   0.534   2.442   5.781
 1544SOL    HW2 6233   0.378   2.393   5.784
 1545SOL     OW 6234   0.159   2.999   7.052
 1545SOL    HW1 6235   0.181   2.938   7.128
 1545SOL    HW2 6236   0.169   2.950   6.966
 1546SOL     OW 6237   1.347   2.921   6.820
 1546SOL    HW1 6238   1.371   2.858   6.746
 1546SOL    HW2 6239   1.257   2.961   6.802
 1547SOL     OW 6240   1.302   2.717   5.895
 1547SOL    HW1 6241   1.216   2.686   5.937
 1547SOL    HW2 6242   1.298   2.703   5.796
 1548SOL     OW 6243   1.759   3.609   6.740
 1548SOL    HW1 6244   1.820   3.639   6.667
 1548SOL    HW2 6245   1.721   3.520   6.718
 1549SOL     OW 6246   1.252   3.593   6.714
 1549SOL    HW1 6247   1.336   3.598   6.660
 1549SOL    HW2 6248   1.229   3.497   6.732
 1550SOL     OW 6249   0.083   3.120   6.608
 1550SOL    HW1 6250   0.078   3.119   6.708
 1550SOL    HW2 6251   0.000   3.079   6.570
 1551SOL     OW 6252   1.726   1.997   6.109
 1551SOL    HW1 6253   1.799   1.980   6.042
 1551SOL    HW2 6254   1.695   1.910   6.147
 1552SOL     OW 6255   1.388   3.435   6.063
 1552SOL    HW1 6256   1.455   3.447   5.989
 1552SOL    HW2 6257   1.348   3.524   6.086
 1553SOL     OW 6258   1.280   2.789   6.258
 1553SOL    HW1 6259   1.340   2.708   6.260
 1553SOL    HW2 6260   1.320   2.858   6.198
 1554SOL     OW 6261   0.672   3.478   5.740
 1554SOL    HW1 6262   0.681   3.488   5.641
 1554SOL    HW2 6263   0.632   3.389   5.761
 1555SOL     OW 6264   1.841   2.037   6.549
 1555SOL    HW1 6265   1.880   1.952   6.513
 1555SOL    HW2 6266   1.743   2.039   6.530
 1556SOL     OW 6267   0.263   2.188   6.306
 1556SOL    HW1 6268   0.184   2.239   6.272
 1556SOL    HW2 6269   0.254   2.173   6.404
 1557SOL     OW 6270   1.194   3.474   5.617
 1557SOL    HW1 6271   1.200   3.381   5.654
 1557SOL    HW2 6272   1.135   3.474   5.537
 1558SOL     OW 6273   0.822   2.864   6.958
 1558SOL    HW1 6274   0.862   2.863   6.866
 1558SOL    HW2 6275   0.832   2.956   6.998
 1559SOL     OW 6276   0.916   2.772   5.877
 1559SOL    HW1 6277   0.979   2.810   5.809
 1559SOL    HW2 6278   0.956   2.689   5.916
 1560SOL     OW 6279   1.504   3.469   5.630
 1560SOL    HW1 6280   1.412   3.506   5.637
 1560SOL    HW2 6281   1.542   3.489   5.540
 1561SOL     OW 6282   1.614   3.154   6.875
 1561SOL    HW1 6283   1.674   3.157   6.955
 1561SOL    HW2 6284   1.539   3.218   6.888
 1562SOL     OW 6285   1.039   2.960   6.282
 1562SOL    HW1 6286   0.969   2.913   6.336
 1562SOL    HW2 6287   1.098   2.892   6.239
 1563SOL     OW 6288   1.014   2.098   6.557
 1563SOL    HW1 6289   1.006   2.062   6.464
 1563SOL    HW2 6290   1.012   2.022   6.622
 1564SOL     OW 6291   0.590   3.349   6.077
 1564SOL    HW1 6292   0.632   3.291   6.007
 1564SOL    HW2 6293   0.546   3.428   6.033
 1565SOL     OW 6294   1.709   2.247   6.967
 1565SOL    HW1 6295   1.782   2.316   6.971
 1565SOL    HW2 6296   1.737   2.172   6.908
 1566SOL     OW 6297   0.255   3.210   5.876
 1566SOL    HW1 6298   0.159   3.211   5.849
 1566SOL    HW2 6299   0.267   3.263   5.960
 1567SOL     OW 6300   0.672   2.065   7.075
 1567SOL    HW1 6301   0.762   2.049   7.035
 1567SOL    HW2 6302   0.680   2.070   7.174
 1568SOL     OW 6303   0.075   2.207   5.619
 1568SOL    HW1 6304  -0.017   2.179   5.590
 1568SOL    HW2 6305   0.106   2.284   5.563
 1569SOL     OW 6306   0.072   2.028   5.904
 1569SOL    HW1 6307   0.055   2.111   5.850
 1569SOL    HW2 6308   0.162   1.991   5.882
 1570SOL     OW 6309   1.183   3.197   5.705
 1570SOL    HW1 6310   1.084   3.186   5.707
 1570SOL    HW2 6311   1.217   3.212   5.798
 1571SOL     OW 6312   1.493   3.629   6.545
 1571SOL    HW1 6313   1.526   3.693   6.476
 1571SOL    HW2 6314   1.559   3.623   6.620
 1572SOL     OW 6315   1.450   3.082   7.219
 1572SOL    HW1 6316   1.441   3.072   7.318
 1572SOL    HW2 6317   1.546   3.075   7.193
 1573SOL     OW 6318   0.390   3.603   7.146
 1573SOL    HW1 6319   0.299   3.644   7.144
 1573SOL    HW2 6320   0.383   3.509   7.178
 1574SOL     OW 6321   1.674   2.745   6.840
 1574SOL    HW1 6322   1.647   2.656   6.803
 1574SOL    HW2 6323   1.675   2.813   6.767
 1575SOL     OW 6324   1.225   2.187   6.035
 1575SOL    HW1 6325   1.290   2.113   6.024
 1575SOL    HW2 6326   1.245   2.237   6.119
 1576SOL     OW 6327   0.594   2.607   6.238
 1576SOL    HW1 6328   0.644   2.692   6.219
 1576SOL    HW2 6329   0.506   2.609   6.190
 1577SOL     OW 6330   1.730   2.796   7.103
 1577SOL    HW1 6331   1.768   2.887   7.118
 1577SOL    HW2 6332   1.722   2.779   7.004
 1578SOL     OW 6333   0.859   3.236   5.602
 1578SOL    HW1 6334   0.813   3.251   5.690
 1578SOL    HW2 6335   0.903   3.321   5.572
 1579SOL     OW 6336   0.661   3.652   6.539
 1579SOL    HW1 6337   0.615   3.740   6.526
 1579SOL    HW2 6338   0.760   3.664   6.532
 1580SOL     OW 6339   0.859   2.818   6.447
 1580SOL    HW1 6340   0.913   2.749   6.495
 1580SOL    HW2 6341   0.827   2.887   6.513
 1581SOL     OW 6342   1.083   2.846   5.673
 1581SOL    HW1 6343   1.060   2.899   5.591
 1581SOL    HW2 6344   1.164   2.790   5.654
 1582SOL     OW 6345   1.861   3.431   6.437
 1582SOL    HW1 6346   1.790   3.419   6.367
 1582SOL    HW2 6347   1.862   3.352   6.497
 1583SOL     OW 6348   0.079   3.102   6.239
 1583SOL    HW1 6349   0.078   3.055   6.327
 1583SOL    HW2 6350   0.161   3.074   6.188
 1584SOL     OW 6351   1.824   2.054   6.813
 1584SOL    HW1 6352   1.820   1.964   6.857
 1584SOL    HW2 6353   1.827   2.043   6.714
 1585SOL     OW 6354   0.428   2.286   6.106
 1585SOL    HW1 6355   0.458   2.214   6.044
 1585SOL    HW2 6356   0.389   2.246   6.189
 1586SOL     OW 6357   1.705   3.349   6.690
 1586SOL    HW1 6358   1.612   3.324   6.663
 1586SOL    HW2 6359   1.731   3.299   6.772
 1587SOL     OW 6360   0.317   2.409   6.866
 1587SOL    HW1 6361   0.355   2.350   6.938
 1587SOL    HW2 6362   0.357   2.383   6.778
 1588SOL     OW 6363   0.812   3.448   6.273
 1588SOL    HW1 6364   0.844   3.458   6.179
 1588SOL    HW2 6365   0.733   3.386   6.275
 1589SOL     OW 6366   1.424   2.076   6.698
 1589SOL    HW1 6367   1.476   2.011   6.753
 1589SOL    HW2 6368   1.375   2.139   6.759
 1590SOL     OW 6369   1.001   1.896   6.740
 1590SOL    HW1 6370   0.938   1.824   6.709
 1590SOL    HW2 6371   1.094   1.860   6.740
 1591SOL     OW 6372   0.770   3.192   5.887
 1591SOL    HW1 6373   0.724   3.105   5.904
 1591SOL    HW2 6374   0.861   3.189   5.928
 1592SOL     OW 6375   0.618   3.429   6.870
 1592SOL    HW1 6376   0.613   3.511   6.927
 1592SOL    HW2 6377   0.707   3.426   6.825
 1593SOL     OW 6378   1.352   1.914   5.754
 1593SOL    HW1 6379   1.387   1.873   5.670
 1593SOL    HW2 6380   1.262   1.876   5.774
 1594SOL     OW 6381   1.300   2.315   6.277
 1594SOL    HW1 6382   1.241   2.395   6.281
 1594SOL    HW2 6383   1.315   2.280   6.370
 1595SOL     OW 6384   1.593   2.083   6.468
 1595SOL    HW1 6385   1.509   2.082   6.522
 1595SOL    HW2 6386   1.595   2.166   6.412
 1596SOL     OW 6387   0.039   2.939   5.886
 1596SOL    HW1 6388   0.138   2.928   5.877
 1596SOL    HW2 6389  -0.001   2.853   5.918
 1597SOL     OW 6390   0.875   3.508   5.923
 1597SOL    HW1 6391   0.798   3.473   5.869
 1597SOL    HW2 6392   0.843   3.579   5.985
 1598SOL     OW 6393   0.230   4.352   0.113
 1598SOL    HW1 6394   0.137   4.350   0.150
 1598SOL    HW2 6395   0.231   4.313   0.021
 1599SOL     OW 6396   0.225   3.999   0.996
 1599SOL    HW1 6397   0.260   3.982   1.088
 1599SOL    HW2 6398   0.137   3.954   0.984
 1600SOL     OW 6399   0.019   4.092   0.647
 1600SOL    HW1 6400  -0.063   4.135   0.686
 1600SOL    HW2 6401  -0.009   4.019   0.584
 1601SOL     OW 6402   0.569   4.999   1.165
 1601SOL    HW1 6403   0.476   4.992   1.128
 1601SOL    HW2 6404   0.580   5.088   1.209
 1602SOL     OW 6405   1.555   5.235   0.703
 1602SOL    HW1 6406   1.498   5.219   0.784
 1602SOL    HW2 6407   1.496   5.245   0.623
 1603SOL     OW 6408   1.135   4.427   0.717
 1603SOL    HW1 6409   1.192   4.505   0.692
 1603SOL    HW2 6410   1.075   4.453   0.793
 1604SOL     OW 6411   1.755   4.331   0.231
 1604SOL    HW1 6412   1.743   4.318   0.132
 1604SOL    HW2 6413   1.725   4.250   0.280
 1605SOL     OW 6414   0.768   4.868   1.023
 1605SOL    HW1 6415   0.690   4.885   1.083
 1605SOL    HW2 6416   0.802   4.955   0.987
 1606SOL     OW 6417   0.850   4.522   1.823
 1606SOL    HW1 6418   0.846   4.598   1.888
 1606SOL    HW2 6419   0.872   4.558   1.732
 1607SOL     OW 6420   0.685   4.736   0.665
 1607SOL    HW1 6421   0.754   4.720   0.735
 1607SOL    HW2 6422   0.612   4.793   0.703
 1608SOL     OW 6423   0.686   4.885   1.803
 1608SOL    HW1 6424   0.746   4.964   1.817
 1608SOL    HW2 6425   0.600   4.916   1.762
 1609SOL     OW 6426   0.335   5.159   1.061
 1609SOL    HW1 6427   0.257   5.128   1.008
 1609SOL    HW2 6428   0.393   5.217   1.004
 1610SOL     OW 6429   1.460   5.229   1.339
 1610SOL    HW1 6430   1.484   5.323   1.365
 1610SOL    HW2 6431   1.444   5.175   1.421
 1611SOL     OW 6432   0.438   4.116   1.499
 1611SOL    HW1 6433   0.520   4.060   1.508
 1611SOL    HW2 6434   0.357   4.058   1.503
 1612SOL     OW 6435   1.603   4.171   0.737
 1612SOL    HW1 6436   1.529   4.217   0.687
 1612SOL    HW2 6437   1.654   4.239   0.790
 1613SOL     OW 6438   0.231   5.437   0.483
 1613SOL    HW1 6439   0.265   5.514   0.537
 1613SOL    HW2 6440   0.275   5.437   0.393
 1614SOL     OW 6441   1.127   5.065   1.690
 1614SOL    HW1 6442   1.174   5.065   1.778
 1614SOL    HW2 6443   1.079   4.978   1.679
 1615SOL     OW 6444   0.230   5.158   0.538
 1615SOL    HW1 6445   0.204   5.254   0.538
 1615SOL    HW2 6446   0.159   5.104   0.583
 1616SOL     OW 6447   0.240   4.815   0.886
 1616SOL    HW1 6448   0.254   4.731   0.938
 1616SOL    HW2 6449   0.185   4.879   0.941
 1617SOL     OW 6450   0.620   5.510   1.439
 1617SOL    HW1 6451   0.528   5.493   1.474
 1617SOL    HW2 6452   0.648   5.602   1.465
 1618SOL     OW 6453   0.606   4.688   0.123
 1618SOL    HW1 6454   0.613   4.772   0.069
 1618SOL    HW2 6455   0.652   4.701   0.211
 1619SOL     OW 6456   1.594   3.838   1.480
 1619SOL    HW1 6457   1.576   3.905   1.408
 1619SOL    HW2 6458   1.591   3.884   1.569
 1620SOL     OW 6459   0.122   4.367   0.563
 1620SOL    HW1 6460   0.077   4.279   0.580
 1620SOL    HW2 6461   0.121   4.421   0.647
 1621SOL     OW 6462   1.842   5.491   0.359
 1621SOL    HW1 6463   1.896   5.462   0.439
 1621SOL    HW2 6464   1.872   5.581   0.330
 1622SOL     OW 6465   0.027   5.320   0.117
 1622SOL    HW1 6466   0.008   5.224   0.138
 1622SOL    HW2 6467  -0.006   5.378   0.192
 1623SOL     OW 6468   1.689   4.646   0.612
 1623SOL    HW1 6469   1.784   4.617   0.620
 1623SOL    HW2 6470   1.681   4.711   0.537
 1624SOL     OW 6471   1.641   4.832   0.432
 1624SOL    HW1 6472   1.727   4.834   0.380
 1624SOL    HW2 6473   1.655   4.879   0.520
 1625SOL     OW 6474   0.113   4.461   1.597
 1625SOL    HW1 6475   0.201   4.448   1.642
 1625SOL    HW2 6476   0.100   4.558   1.575
 1626SOL     OW 6477   0.613   5.089   0.726
 1626SOL    HW1 6478   0.564   5.002   0.735
 1626SOL    HW2 6479   0.590   5.132   0.639
 1627SOL     OW 6480   1.293   4.952   1.423
 1627SOL    HW1 6481   1.330   4.879   1.365
 1627SOL    HW2 6482   1.345   4.957   1.508
 1628SOL     OW 6483   0.809   3.728   0.502
 1628SOL    HW1 6484   0.849   3.819   0.493
 1628SOL    HW2 6485   0.709   3.736   0.508
 1629SOL     OW 6486   0.197   4.700   1.264
 1629SOL    HW1 6487   0.286   4.655   1.250
 1629SOL    HW2 6488   0.124   4.635   1.245
 1630SOL     OW 6489   1.525   4.723   0.190
 1630SOL    HW1 6490   1.462   4.647   0.203
 1630SOL    HW2 6491   1.573   4.741   0.276
 1631SOL     OW 6492   1.187   5.516   1.616
 1631SOL    HW1 6493   1.211   5.576   1.540
 1631SOL    HW2 6494   1.194   5.421   1.586
 1632SOL     OW 6495   0.317   3.975   1.801
 1632SOL    HW1 6496   0.388   4.046   1.807
 1632SOL    HW2 6497   0.229   4.014   1.829
 1633SOL     OW 6498   1.466   5.141   0.953
 1633SOL    HW1 6499   1.407   5.147   1.033
 1633SOL    HW2 6500   1.451   5.053   0.907
 1634SOL     OW 6501   1.667   5.438   0.572
 1634SOL    HW1 6502   1.626   5.415   0.484
 1634SOL    HW2 6503   1.649   5.364   0.637
 1635SOL     OW 6504   0.598   4.453   0.270
 1635SOL    HW1 6505   0.622   4.522   0.202
 1635SOL    HW2 6506   0.520   4.486   0.324
 1636SOL     OW 6507   1.281   4.069   0.944
 1636SOL    HW1 6508   1.195   4.019   0.931
 1636SOL    HW2 6509   1.343   4.015   1.000
 1637SOL     OW 6510   1.576   5.386   0.307
 1637SOL    HW1 6511   1.665   5.432   0.310
 1637SOL    HW2 6512   1.555   5.362   0.212
 1638SOL     OW 6513   0.807   4.329   1.465
 1638SOL    HW1 6514   0.760   4.326   1.554
 1638SOL    HW2 6515   0.756   4.274   1.399
 1639SOL     OW 6516   1.394   4.193   1.674
 1639SOL    HW1 6517   1.374   4.236   1.762
 1639SOL    HW2 6518   1.472   4.131   1.683
 1640SOL     OW 6519   0.973   4.614   1.572
 1640SOL    HW1 6520   1.019   4.530   1.543
 1640SOL    HW2 6521   0.917   4.648   1.497
 1641SOL     OW 6522   0.991   4.134   1.242
 1641SOL    HW1 6523   0.914   4.168   1.296
 1641SOL    HW2 6524   0.957   4.083   1.163
 1642SOL     OW 6525   1.041   4.425   0.429
 1642SOL    HW1 6526   1.067   4.421   0.525
 1642SOL    HW2 6527   0.956   4.374   0.415
 1643SOL     OW 6528   0.076   4.535   0.789
 1643SOL    HW1 6529   0.175   4.523   0.798
 1643SOL    HW2 6530   0.052   4.630   0.810
 1644SOL     OW 6531   0.130   5.545   1.571
 1644SOL    HW1 6532   0.120   5.530   1.670
 1644SOL    HW2 6533   0.044   5.581   1.535
 1645SOL     OW 6534   0.865   4.072   0.195
 1645SOL    HW1 6535   0.924   4.135   0.146
 1645SOL    HW2 6536   0.884   3.978   0.166
 1646SOL     OW 6537   1.719   4.309   1.831
 1646SOL    HW1 6538   1.693   4.398   1.795
 1646SOL    HW2 6539   1.717   4.241   1.758
 1647SOL     OW 6540   1.362   4.868   0.545
 1647SOL    HW1 6541   1.445   4.839   0.497
 1647SOL    HW2 6542   1.313   4.935   0.489
 1648SOL     OW 6543   0.550   3.920   0.885
 1648SOL    HW1 6544   0.545   3.915   0.985
 1648SOL    HW2 6545   0.552   4.016   0.856
 1649SOL     OW 6546   1.008   5.180   0.477
 1649SOL    HW1 6547   0.962   5.252   0.425
 1649SOL    HW2 6548   1.004   5.200   0.575
 1650SOL     OW 6549   0.351   5.525   0.853
 1650SOL    HW1 6550   0.401   5.439   0.859
 1650SOL    HW2 6551   0.416   5.602   0.850
 1651SOL     OW 6552   1.795   4.790   0.873
 1651SOL    HW1 6553   1.733   4.775   0.797
 1651SOL    HW2 6554   1.743   4.801   0.958
 1652SOL     OW 6555   1.227   5.274   1.506
 1652SOL    HW1 6556   1.233   5.197   1.570
 1652SOL    HW2 6557   1.175   5.248   1.426
 1653SOL     OW 6558   0.321   4.667   0.242
 1653SOL    HW1 6559   0.403   4.706   0.200
 1653SOL    HW2 6560   0.294   4.585   0.193
 1654SOL     OW 6561   1.458   4.459   0.728
 1654SOL    HW1 6562   1.453   4.394   0.803
 1654SOL    HW2 6563   1.538   4.518   0.741
 1655SOL     OW 6564   0.461   4.990   1.727
 1655SOL    HW1 6565   0.411   4.991   1.641
 1655SOL    HW2 6566   0.398   4.972   1.803
 1656SOL     OW 6567   1.111   5.500   0.237
 1656SOL    HW1 6568   1.051   5.438   0.287
 1656SOL    HW2 6569   1.142   5.456   0.152
 1657SOL     OW 6570   0.202   4.009   1.498
 1657SOL    HW1 6571   0.122   4.069   1.485
 1657SOL    HW2 6572   0.192   3.960   1.584
 1658SOL     OW 6573   1.632   5.101   0.081
 1658SOL    HW1 6574   1.600   5.195   0.071
 1658SOL    HW2 6575   1.556   5.038   0.069
 1659SOL     OW 6576   0.464   5.467   0.323
 1659SOL    HW1 6577   0.497   5.506   0.409
 1659SOL    HW2 6578   0.540   5.460   0.258
 1660SOL     OW 6579   1.400   3.831   0.426
 1660SOL    HW1 6580   1.376   3.794   0.336
 1660SOL    HW2 6581   1.499   3.847   0.430
 1661SOL     OW 6582   0.249   5.509   1.241
 1661SOL    HW1 6583   0.306   5.444   1.291
 1661SOL    HW2 6584   0.233   5.476   1.148
 1662SOL     OW 6585   0.940   5.422   0.904
 1662SOL    HW1 6586   1.020   5.365   0.925
 1662SOL    HW2 6587   0.891   5.382   0.827
 1663SOL     OW 6588   0.382   4.424   0.480
 1663SOL    HW1 6589   0.427   4.334   0.477
 1663SOL    HW2 6590   0.288   4.413   0.513
 1664SOL     OW 6591   1.547   3.946   1.729
 1664SOL    HW1 6592   1.542   3.983   1.821
 1664SOL    HW2 6593   1.475   3.877   1.717
 1665SOL     OW 6594   0.781   3.988   1.749
 1665SOL    HW1 6595   0.848   3.927   1.792
 1665SOL    HW2 6596   0.708   4.007   1.814
 1666SOL     OW 6597   0.888   5.238   1.195
 1666SOL    HW1 6598   0.865   5.213   1.101
 1666SOL    HW2 6599   0.949   5.169   1.234
 1667SOL     OW 6600   1.351   4.314   1.433
 1667SOL    HW1 6601   1.379   4.271   1.518
 1667SOL    HW2 6602   1.376   4.410   1.434
 1668SOL     OW 6603   0.803   5.126   0.924
 1668SOL    HW1 6604   0.893   5.140   0.882
 1668SOL    HW2 6605   0.732   5.128   0.853
 1669SOL     OW 6606   0.922   4.227   0.899
 1669SOL    HW1 6607   0.897   4.218   0.803
 1669SOL    HW2 6608   0.970   4.145   0.930
 1670SOL     OW 6609   0.539   3.788   0.512
 1670SOL    HW1 6610   0.458   3.789   0.570
 1670SOL    HW2 6611   0.542   3.871   0.457
 1671SOL     OW 6612   1.434   4.912   0.041
 1671SOL    HW1 6613   1.466   4.836   0.098
 1671SOL    HW2 6614   1.342   4.939   0.071
 1672SOL     OW 6615   0.935   3.960   0.480
 1672SOL    HW1 6616   0.887   4.001   0.402
 1672SOL    HW2 6617   1.034   3.958   0.461
 1673SOL     OW 6618   1.076   4.407   1.464
 1673SOL    HW1 6619   0.996   4.346   1.467
 1673SOL    HW2 6620   1.157   4.354   1.440
 1674SOL     OW 6621   1.227   5.294   0.793
 1674SOL    HW1 6622   1.248   5.368   0.728
 1674SOL    HW2 6623   1.295   5.294   0.866
 1675SOL     OW 6624   0.459   4.876   0.741
 1675SOL    HW1 6625   0.388   4.849   0.806
 1675SOL    HW2 6626   0.433   4.848   0.648
 1676SOL     OW 6627   1.271   5.521   0.591
 1676SOL    HW1 6628   1.315   5.585   0.527
 1676SOL    HW2 6629   1.221   5.573   0.661
 1677SOL     OW 6630   1.032   4.273   0.016
 1677SOL    HW1 6631   0.991   4.355  -0.023
 1677SOL    HW2 6632   1.096   4.299   0.089
 1678SOL     OW 6633   0.078   4.280   1.386
 1678SOL    HW1 6634   0.170   4.279   1.345
 1678SOL    HW2 6635   0.072   4.354   1.453
 1679SOL     OW 6636   0.561   3.946   1.147
 1679SOL    HW1 6637   0.599   3.862   1.184
 1679SOL    HW2 6638   0.473   3.965   1.191
 1680SOL     OW 6639   0.866   4.178   0.642
 1680SOL    HW1 6640   0.834   4.250   0.580
 1680SOL    HW2 6641   0.890   4.097   0.589
 1681SOL     OW 6642   1.017   3.763   0.753
 1681SOL    HW1 6643   0.945   3.768   0.684
 1681SOL    HW2 6644   0.993   3.694   0.822
 1682SOL     OW 6645   1.429   4.897   0.867
 1682SOL    HW1 6646   1.374   4.813   0.860
 1682SOL    HW2 6647   1.455   4.926   0.775
 1683SOL     OW 6648   1.466   4.314   0.992
 1683SOL    HW1 6649   1.436   4.219   0.999
 1683SOL    HW2 6650   1.539   4.330   1.058
 1684SOL     OW 6651   1.857   4.557   0.377
 1684SOL    HW1 6652   1.899   4.493   0.441
 1684SOL    HW2 6653   1.819   4.506   0.299
 1685SOL     OW 6654   0.488   5.109   0.174
 1685SOL    HW1 6655   0.401   5.094   0.221
 1685SOL    HW2 6656   0.471   5.135   0.079
 1686SOL     OW 6657   1.664   5.004   0.657
 1686SOL    HW1 6658   1.763   5.012   0.671
 1686SOL    HW2 6659   1.619   5.088   0.688
 1687SOL     OW 6660   1.390   4.299   0.078
 1687SOL    HW1 6661   1.336   4.278   0.159
 1687SOL    HW2 6662   1.481   4.258   0.087
 1688SOL     OW 6663   0.527   3.980   0.328
 1688SOL    HW1 6664   0.554   3.921   0.253
 1688SOL    HW2 6665   0.527   4.075   0.297
 1689SOL     OW 6666   1.754   4.947   1.588
 1689SOL    HW1 6667   1.845   4.908   1.575
 1689SOL    HW2 6668   1.762   5.043   1.612
 1690SOL     OW 6669   1.064   5.071   1.340
 1690SOL    HW1 6670   0.984   5.048   1.395
 1690SOL    HW2 6671   1.147   5.045   1.389
 1691SOL     OW 6672   1.592   5.353   1.625
 1691SOL    HW1 6673   1.619   5.387   1.535
 1691SOL    HW2 6674   1.671   5.315   1.671
 1692SOL     OW 6675   1.111   4.919   1.100
 1692SOL    HW1 6676   1.071   4.963   1.181
 1692SOL    HW2 6677   1.070   4.956   1.017
 1693SOL     OW 6678   1.638   4.823   1.079
 1693SOL    HW1 6679   1.643   4.904   1.138
 1693SOL    HW2 6680   1.552   4.825   1.028
 1694SOL     OW 6681   0.915   3.813   1.402
 1694SOL    HW1 6682   0.940   3.793   1.307
 1694SOL    HW2 6683   0.987   3.869   1.444
 1695SOL     OW 6684   0.980   4.840   1.719
 1695SOL    HW1 6685   0.881   4.846   1.729
 1695SOL    HW2 6686   1.003   4.760   1.663
 1696SOL     OW 6687   0.705   4.774   0.368
 1696SOL    HW1 6688   0.691   4.781   0.467
 1696SOL    HW2 6689   0.789   4.723   0.350
 1697SOL     OW 6690   0.410   4.537   1.251
 1697SOL    HW1 6691   0.496   4.549   1.301
 1697SOL    HW2 6692   0.368   4.450   1.278
 1698SOL     OW 6693   1.274   4.110   1.262
 1698SOL    HW1 6694   1.295   4.184   1.326
 1698SOL    HW2 6695   1.185   4.127   1.219
 1699SOL     OW 6696   0.064   5.288   1.331
 1699SOL    HW1 6697   0.018   5.370   1.297
 1699SOL    HW2 6698   0.162   5.307   1.340
 1700SOL     OW 6699   0.367   4.824   0.501
 1700SOL    HW1 6700   0.360   4.907   0.445
 1700SOL    HW2 6701   0.371   4.744   0.441
 1701SOL     OW 6702   0.566   4.261   0.865
 1701SOL    HW1 6703   0.578   4.327   0.791
 1701SOL    HW2 6704   0.612   4.295   0.948
 1702SOL     OW 6705   1.252   5.072   0.388
 1702SOL    HW1 6706   1.302   5.149   0.428
 1702SOL    HW2 6707   1.157   5.074   0.420
 1703SOL     OW 6708   1.272   5.169   1.142
 1703SOL    HW1 6709   1.319   5.182   1.229
 1703SOL    HW2 6710   1.206   5.095   1.151
 1704SOL     OW 6711   1.582   4.363   0.472
 1704SOL    HW1 6712   1.551   4.424   0.545
 1704SOL    HW2 6713   1.632   4.415   0.403
 1705SOL     OW 6714   0.354   5.234   1.329
 1705SOL    HW1 6715   0.333   5.190   1.242
 1705SOL    HW2 6716   0.451   5.260   1.332
 1706SOL     OW 6717   0.402   4.475   1.598
 1706SOL    HW1 6718   0.470   4.530   1.551
 1706SOL    HW2 6719   0.442   4.387   1.625
 1707SOL     OW 6720   1.587   4.503   1.670
 1707SOL    HW1 6721   1.495   4.541   1.665
 1707SOL    HW2 6722   1.647   4.550   1.605
 1708SOL     OW 6723   1.013   3.829   1.770
 1708SOL    HW1 6724   1.019   3.914   1.718
 1708SOL    HW2 6725   1.045   3.753   1.713
 1709SOL     OW 6726   0.504   3.774   1.740
 1709SOL    HW1 6727   0.462   3.717   1.670
 1709SOL    HW2 6728   0.438   3.843   1.772
 1710SOL     OW 6729   0.573   4.594   1.029
 1710SOL    HW1 6730   0.617   4.683   1.020
 1710SOL    HW2 6731   0.510   4.594   1.106
 1711SOL     OW 6732   1.360   4.586   1.045
 1711SOL    HW1 6733   1.285   4.586   0.979
 1711SOL    HW2 6734   1.397   4.494   1.054
 1712SOL     OW 6735   1.209   4.249   0.275
 1712SOL    HW1 6736   1.222   4.165   0.329
 1712SOL    HW2 6737   1.180   4.323   0.335
 1713SOL     OW 6738   0.307   3.937   1.231
 1713SOL    HW1 6739   0.284   3.974   1.321
 1713SOL    HW2 6740   0.277   3.842   1.225
 1714SOL     OW 6741   0.037   5.034   1.282
 1714SOL    HW1 6742   0.090   4.985   1.350
 1714SOL    HW2 6743   0.059   5.132   1.287
 1715SOL     OW 6744   0.732   4.358   1.064
 1715SOL    HW1 6745   0.791   4.332   0.988
 1715SOL    HW2 6746   0.704   4.454   1.053
 1716SOL     OW 6747   1.728   4.659   1.854
 1716SOL    HW1 6748   1.682   4.652   1.765
 1716SOL    HW2 6749   1.666   4.703   1.920
 1717SOL     OW 6750   0.307   3.787   0.618
 1717SOL    HW1 6751   0.296   3.881   0.651
 1717SOL    HW2 6752   0.302   3.724   0.695
 1718SOL     OW 6753   1.622   4.091   0.374
 1718SOL    HW1 6754   1.624   4.015   0.438
 1718SOL    HW2 6755   1.574   4.168   0.414
 1719SOL     OW 6756   1.023   4.490   0.966
 1719SOL    HW1 6757   1.038   4.511   1.062
 1719SOL    HW2 6758   0.993   4.395   0.957
 1720SOL     OW 6759   0.980   5.297   1.700
 1720SOL    HW1 6760   0.960   5.341   1.612
 1720SOL    HW2 6761   1.019   5.206   1.684
 1721SOL     OW 6762   1.859   5.242   1.605
 1721SOL    HW1 6763   1.873   5.269   1.510
 1721SOL    HW2 6764   1.942   5.264   1.658
 1722SOL     OW 6765   0.350   4.622   1.804
 1722SOL    HW1 6766   0.426   4.666   1.852
 1722SOL    HW2 6767   0.385   4.575   1.722
 1723SOL     OW 6768   1.540   3.998   0.125
 1723SOL    HW1 6769   1.479   3.923   0.148
 1723SOL    HW2 6770   1.562   4.050   0.208
 1724SOL     OW 6771   1.303   4.562   0.042
 1724SOL    HW1 6772   1.337   4.469   0.057
 1724SOL    HW2 6773   1.321   4.589  -0.053
 1725SOL     OW 6774   1.068   5.057   0.849
 1725SOL    HW1 6775   1.075   4.973   0.794
 1725SOL    HW2 6776   1.130   5.126   0.813
 1726SOL     OW 6777   0.319   4.534   0.949
 1726SOL    HW1 6778   0.412   4.570   0.954
 1726SOL    HW2 6779   0.313   4.449   1.001
 1727SOL     OW 6780   0.339   4.233   1.006
 1727SOL    HW1 6781   0.287   4.150   0.989
 1727SOL    HW2 6782   0.416   4.238   0.942
 1728SOL     OW 6783   1.138   4.104   1.678
 1728SOL    HW1 6784   1.093   4.167   1.742
 1728SOL    HW2 6785   1.231   4.135   1.661
 1729SOL     OW 6786   1.160   3.931   1.477
 1729SOL    HW1 6787   1.160   3.995   1.554
 1729SOL    HW2 6788   1.188   3.979   1.394
 1730SOL     OW 6789   0.008   5.050   0.200
 1730SOL    HW1 6790  -0.085   5.071   0.169
 1730SOL    HW2 6791   0.018   4.951   0.213
 1731SOL     OW 6792   0.088   5.525   0.927
 1731SOL    HW1 6793   0.046   5.439   0.900
 1731SOL    HW2 6794   0.182   5.528   0.893
 1732SOL     OW 6795   0.504   5.292   0.910
 1732SOL    HW1 6796   0.570   5.366   0.919
 1732SOL    HW2 6797   0.548   5.213   0.868
 1733SOL     OW 6798   1.002   4.520   1.238
 1733SOL    HW1 6799   1.043   4.488   1.324
 1733SOL    HW2 6800   0.906   4.493   1.235
 1734SOL     OW 6801   0.040   4.268   1.114
 1734SOL    HW1 6802   0.125   4.235   1.073
 1734SOL    HW2 6803   0.053   4.283   1.212
 1735SOL     OW 6804   0.189   4.244   1.722
 1735SOL    HW1 6805   0.248   4.204   1.652
 1735SOL    HW2 6806   0.131   4.315   1.681
 1736SOL     OW 6807   1.369   4.674   1.660
 1736SOL    HW1 6808   1.408   4.763   1.680
 1736SOL    HW2 6809   1.379   4.654   1.563
 1737SOL     OW 6810   0.815   4.296   0.325
 1737SOL    HW1 6811   0.822   4.207   0.279
 1737SOL    HW2 6812   0.721   4.330   0.317
 1738SOL     OW 6813   1.657   4.328   1.206
 1738SOL    HW1 6814   1.619   4.259   1.268
 1738SOL    HW2 6815   1.739   4.292   1.162
 1739SOL     OW 6816   0.252   5.288   1.744
 1739SOL    HW1 6817   0.222   5.345   1.820
 1739SOL    HW2 6818   0.245   5.191   1.770
 1740SOL     OW 6819   0.671   4.188   1.269
 1740SOL    HW1 6820   0.637   4.099   1.239
 1740SOL    HW2 6821   0.697   4.242   1.189
 1741SOL     OW 6822   0.930   5.402   1.465
 1741SOL    HW1 6823   0.906   5.384   1.370
 1741SOL    HW2 6824   0.960   5.496   1.475
 1742SOL     OW 6825   0.473   4.224   0.191
 1742SOL    HW1 6826   0.534   4.304   0.195
 1742SOL    HW2 6827   0.378   4.255   0.198
 1743SOL     OW 6828   0.159   4.861   1.466
 1743SOL    HW1 6829   0.181   4.800   1.542
 1743SOL    HW2 6830   0.169   4.812   1.380
 1744SOL     OW 6831   1.347   4.783   1.234
 1744SOL    HW1 6832   1.371   4.720   1.160
 1744SOL    HW2 6833   1.257   4.823   1.216
 1745SOL     OW 6834   1.302   4.579   0.309
 1745SOL    HW1 6835   1.216   4.548   0.351
 1745SOL    HW2 6836   1.298   4.565   0.210
 1746SOL     OW 6837   1.759   5.471   1.154
 1746SOL    HW1 6838   1.820   5.501   1.081
 1746SOL    HW2 6839   1.721   5.382   1.132
 1747SOL     OW 6840   1.252   5.455   1.128
 1747SOL    HW1 6841   1.336   5.460   1.074
 1747SOL    HW2 6842   1.229   5.359   1.146
 1748SOL     OW 6843   0.083   4.982   1.022
 1748SOL    HW1 6844   0.078   4.981   1.122
 1748SOL    HW2 6845   0.000   4.941   0.984
 1749SOL     OW 6846   0.688   5.386   1.716
 1749SOL    HW1 6847   0.632   5.467   1.725
 1749SOL    HW2 6848   0.740   5.390   1.630
 1750SOL     OW 6849   0.903   3.810   0.133
 1750SOL    HW1 6850   0.954   3.811   0.047
 1750SOL    HW2 6851   0.959   3.768   0.204
 1751SOL     OW 6852   1.726   3.859   0.523
 1751SOL    HW1 6853   1.799   3.842   0.456
 1751SOL    HW2 6854   1.695   3.772   0.561
 1752SOL     OW 6855   1.388   5.297   0.477
 1752SOL    HW1 6856   1.455   5.309   0.403
 1752SOL    HW2 6857   1.348   5.386   0.500
 1753SOL     OW 6858   0.130   5.518   1.851
 1753SOL    HW1 6859   0.089   5.444   1.904
 1753SOL    HW2 6860   0.194   5.569   1.909
 1754SOL     OW 6861   1.280   4.651   0.672
 1754SOL    HW1 6862   1.340   4.570   0.674
 1754SOL    HW2 6863   1.320   4.720   0.612
 1755SOL     OW 6864   0.830   4.997   1.422
 1755SOL    HW1 6865   0.825   5.030   1.517
 1755SOL    HW2 6866   0.744   5.016   1.376
 1756SOL     OW 6867   0.672   5.340   0.154
 1756SOL    HW1 6868   0.681   5.350   0.055
 1756SOL    HW2 6869   0.632   5.251   0.175
 1757SOL     OW 6870   1.650   5.444   1.394
 1757SOL    HW1 6871   1.703   5.454   1.310
 1757SOL    HW2 6872   1.623   5.534   1.428
 1758SOL     OW 6873   1.841   3.899   0.963
 1758SOL    HW1 6874   1.880   3.814   0.927
 1758SOL    HW2 6875   1.743   3.901   0.944
 1759SOL     OW 6876   0.263   4.050   0.720
 1759SOL    HW1 6877   0.184   4.101   0.686
 1759SOL    HW2 6878   0.254   4.035   0.818
 1760SOL     OW 6879   1.194   5.336   0.031
 1760SOL    HW1 6880   1.200   5.243   0.068
 1760SOL    HW2 6881   1.135   5.336  -0.049
 1761SOL     OW 6882   0.822   4.726   1.372
 1761SOL    HW1 6883   0.862   4.725   1.280
 1761SOL    HW2 6884   0.832   4.818   1.412
 1762SOL     OW 6885   0.916   4.634   0.291
 1762SOL    HW1 6886   0.979   4.672   0.223
 1762SOL    HW2 6887   0.956   4.551   0.330
 1763SOL     OW 6888   1.504   5.331   0.044
 1763SOL    HW1 6889   1.412   5.368   0.051
 1763SOL    HW2 6890   1.542   5.351  -0.046
 1764SOL     OW 6891   0.372   5.012   1.490
 1764SOL    HW1 6892   0.359   5.105   1.456
 1764SOL    HW2 6893   0.288   4.960   1.477
 1765SOL     OW 6894   1.614   5.016   1.289
 1765SOL    HW1 6895   1.674   5.019   1.369
 1765SOL    HW2 6896   1.539   5.080   1.302
 1766SOL     OW 6897   1.039   4.822   0.696
 1766SOL    HW1 6898   0.969   4.775   0.750
 1766SOL    HW2 6899   1.098   4.754   0.653
 1767SOL     OW 6900   1.014   3.960   0.971
 1767SOL    HW1 6901   1.006   3.924   0.878
 1767SOL    HW2 6902   1.012   3.884   1.036
 1768SOL     OW 6903   0.590   5.211   0.491
 1768SOL    HW1 6904   0.632   5.153   0.421
 1768SOL    HW2 6905   0.546   5.290   0.447
 1769SOL     OW 6906   1.709   4.109   1.381
 1769SOL    HW1 6907   1.782   4.178   1.385
 1769SOL    HW2 6908   1.737   4.034   1.322
 1770SOL     OW 6909   0.255   5.072   0.290
 1770SOL    HW1 6910   0.159   5.073   0.263
 1770SOL    HW2 6911   0.267   5.125   0.374
 1771SOL     OW 6912   0.105   4.737   1.726
 1771SOL    HW1 6913   0.028   4.704   1.780
 1771SOL    HW2 6914   0.190   4.707   1.768
 1772SOL     OW 6915   0.672   3.927   1.489
 1772SOL    HW1 6916   0.762   3.911   1.449
 1772SOL    HW2 6917   0.680   3.932   1.588
 1773SOL     OW 6918   0.075   4.069   0.033
 1773SOL    HW1 6919  -0.017   4.041   0.004
 1773SOL    HW2 6920   0.106   4.146  -0.023
 1774SOL     OW 6921   1.440   4.580   1.398
 1774SOL    HW1 6922   1.383   4.632   1.335
 1774SOL    HW2 6923   1.536   4.592   1.374
 1775SOL     OW 6924   0.072   3.890   0.318
 1775SOL    HW1 6925   0.055   3.973   0.264
 1775SOL    HW2 6926   0.162   3.853   0.296
 1776SOL     OW 6927   1.183   5.059   0.119
 1776SOL    HW1 6928   1.084   5.048   0.121
 1776SOL    HW2 6929   1.217   5.074   0.212
 1777SOL     OW 6930   0.613   4.566   1.431
 1777SOL    HW1 6931   0.669   4.647   1.414
 1777SOL    HW2 6932   0.672   4.486   1.434
 1778SOL     OW 6933   1.493   5.491   0.959
 1778SOL    HW1 6934   1.526   5.555   0.890
 1778SOL    HW2 6935   1.559   5.485   1.034
 1779SOL     OW 6936   0.716   4.289   1.708
 1779SOL    HW1 6937   0.735   4.354   1.782
 1779SOL    HW2 6938   0.776   4.209   1.717
 1780SOL     OW 6939   1.450   4.944   1.633
 1780SOL    HW1 6940   1.441   4.934   1.732
 1780SOL    HW2 6941   1.546   4.937   1.607
 1781SOL     OW 6942   0.390   5.465   1.560
 1781SOL    HW1 6943   0.299   5.506   1.558
 1781SOL    HW2 6944   0.383   5.371   1.592
 1782SOL     OW 6945   1.674   4.607   1.254
 1782SOL    HW1 6946   1.647   4.518   1.217
 1782SOL    HW2 6947   1.675   4.675   1.181
 1783SOL     OW 6948   1.225   4.049   0.449
 1783SOL    HW1 6949   1.290   3.975   0.438
 1783SOL    HW2 6950   1.245   4.099   0.533
 1784SOL     OW 6951   0.594   4.469   0.652
 1784SOL    HW1 6952   0.644   4.554   0.633
 1784SOL    HW2 6953   0.506   4.471   0.604
 1785SOL     OW 6954   1.777   4.066   1.642
 1785SOL    HW1 6955   1.760   4.097   1.548
 1785SOL    HW2 6956   1.693   4.029   1.680
 1786SOL     OW 6957   1.730   4.658   1.517
 1786SOL    HW1 6958   1.768   4.749   1.532
 1786SOL    HW2 6959   1.722   4.641   1.418
 1787SOL     OW 6960   0.859   5.098   0.016
 1787SOL    HW1 6961   0.813   5.113   0.104
 1787SOL    HW2 6962   0.903   5.183  -0.014
 1788SOL     OW 6963   0.661   5.514   0.953
 1788SOL    HW1 6964   0.615   5.602   0.940
 1788SOL    HW2 6965   0.760   5.526   0.946
 1789SOL     OW 6966   0.859   4.680   0.861
 1789SOL    HW1 6967   0.913   4.611   0.909
 1789SOL    HW2 6968   0.827   4.749   0.927
 1790SOL     OW 6969   1.083   4.708   0.087
 1790SOL    HW1 6970   1.060   4.761   0.005
 1790SOL    HW2 6971   1.164   4.652   0.068
 1791SOL     OW 6972   1.861   5.293   0.851
 1791SOL    HW1 6973   1.790   5.281   0.781
 1791SOL    HW2 6974   1.862   5.214   0.911
 1792SOL     OW 6975   0.221   5.038   1.844
 1792SOL    HW1 6976   0.156   4.965   1.823
 1792SOL    HW2 6977   0.225   5.052   1.942
 1793SOL     OW 6978   0.079   4.964   0.653
 1793SOL    HW1 6979   0.078   4.917   0.741
 1793SOL    HW2 6980   0.161   4.936   0.602
 1794SOL     OW 6981   0.672   5.115   1.624
 1794SOL    HW1 6982   0.594   5.065   1.662
 1794SOL    HW2 6983   0.669   5.210   1.655
 1795SOL     OW 6984   1.824   3.916   1.227
 1795SOL    HW1 6985   1.820   3.826   1.271
 1795SOL    HW2 6986   1.827   3.905   1.128
 1796SOL     OW 6987   0.428   4.148   0.520
 1796SOL    HW1 6988   0.458   4.076   0.458
 1796SOL    HW2 6989   0.389   4.108   0.603
 1797SOL     OW 6990   1.705   5.211   1.104
 1797SOL    HW1 6991   1.612   5.186   1.077
 1797SOL    HW2 6992   1.731   5.161   1.186
 1798SOL     OW 6993   0.317   4.271   1.280
 1798SOL    HW1 6994   0.355   4.212   1.352
 1798SOL    HW2 6995   0.357   4.245   1.192
 1799SOL     OW 6996   0.812   5.310   0.687
 1799SOL    HW1 6997   0.844   5.320   0.593
 1799SOL    HW2 6998   0.733   5.248   0.689
 1800SOL     OW 6999   1.424   3.938   1.112
 1800SOL    HW1 7000   1.476   3.873   1.167
 1800SOL    HW2 7001   1.375   4.001   1.173
 1801SOL     OW 7002   1.001   3.758   1.154
 1801SOL    HW1 7003   0.938   3.686   1.123
 1801SOL    HW2 7004   1.094   3.722   1.154
 1802SOL     OW 7005   0.770   5.054   0.301
 1802SOL    HW1 7006   0.724   4.967   0.318
 1802SOL    HW2 7007   0.861   5.051   0.342
 1803SOL     OW 7008   0.618   5.291   1.284
 1803SOL    HW1 7009   0.613   5.373   1.341
 1803SOL    HW2 7010   0.707   5.288   1.239
 1804SOL     OW 7011   1.352   3.776   0.168
 1804SOL    HW1 7012   1.387   3.735   0.084
 1804SOL    HW2 7013   1.262   3.738   0.188
 1805SOL     OW 7014   1.300   4.177   0.691
 1805SOL    HW1 7015   1.241   4.257   0.695
 1805SOL    HW2 7016   1.315   4.142   0.784
 1806SOL     OW 7017   1.593   3.945   0.882
 1806SOL    HW1 7018   1.509   3.944   0.936
 1806SOL    HW2 7019   1.595   4.028   0.826
 1807SOL     OW 7020   0.039   4.801   0.300
 1807SOL    HW1 7021   0.138   4.790   0.291
 1807SOL    HW2 7022  -0.001   4.715   0.332
 1808SOL     OW 7023   0.875   5.370   0.337
 1808SOL    HW1 7024   0.798   5.335   0.283
 1808SOL    HW2 7025   0.843   5.441   0.399
 1809SOL     OW 7026   0.230   4.352   1.975
 1809SOL    HW1 7027   0.137   4.350   2.012
 1809SOL    HW2 7028   0.231   4.313   1.883
 1810SOL     OW 7029   0.225   3.999   2.858
 1810SOL    HW1 7030   0.260   3.982   2.950
 1810SOL    HW2 7031   0.137   3.954   2.846
 1811SOL     OW 7032   0.019   4.092   2.509
 1811SOL    HW1 7033  -0.063   4.135   2.548
 1811SOL    HW2 7034  -0.009   4.019   2.446
 1812SOL     OW 7035   0.569   4.999   3.027
 1812SOL    HW1 7036   0.476   4.992   2.990
 1812SOL    HW2 7037   0.580   5.088   3.071
 1813SOL     OW 7038   1.555   5.235   2.565
 1813SOL    HW1 7039   1.498   5.219   2.646
 1813SOL    HW2 7040   1.496   5.245   2.485
 1814SOL     OW 7041   1.135   4.427   2.579
 1814SOL    HW1 7042   1.192   4.505   2.554
 1814SOL    HW2 7043   1.075   4.453   2.655
 1815SOL     OW 7044   1.755   4.331   2.093
 1815SOL    HW1 7045   1.743   4.318   1.994
 1815SOL    HW2 7046   1.725   4.250   2.142
 1816SOL     OW 7047   0.768   4.868   2.885
 1816SOL    HW1 7048   0.690   4.885   2.945
 1816SOL    HW2 7049   0.802   4.955   2.849
 1817SOL     OW 7050   0.850   4.522   3.685
 1817SOL    HW1 7051   0.846   4.598   3.750
 1817SOL    HW2 7052   0.872   4.558   3.594
 1818SOL     OW 7053   0.685   4.736   2.527
 1818SOL    HW1 7054   0.754   4.720   2.597
 1818SOL    HW2 7055   0.612   4.793   2.565
 1819SOL     OW 7056   0.686   4.885   3.665
 1819SOL    HW1 7057   0.746   4.964   3.679
 1819SOL    HW2 7058   0.600   4.916   3.624
 1820SOL     OW 7059   0.335   5.159   2.923
 1820SOL    HW1 7060   0.257   5.128   2.870
 1820SOL    HW2 7061   0.393   5.217   2.866
 1821SOL     OW 7062   1.460   5.229   3.201
 1821SOL    HW1 7063   1.484   5.323   3.227
 1821SOL    HW2 7064   1.444   5.175   3.283
 1822SOL     OW 7065   0.438   4.116   3.361
 1822SOL    HW1 7066   0.520   4.060   3.370
 1822SOL    HW2 7067   0.357   4.058   3.365
 1823SOL     OW 7068   1.603   4.171   2.599
 1823SOL    HW1 7069   1.529   4.217   2.549
 1823SOL    HW2 7070   1.654   4.239   2.652
 1824SOL     OW 7071   0.231   5.437   2.345
 1824SOL    HW1 7072   0.265   5.514   2.399
 1824SOL    HW2 7073   0.275   5.437   2.255
 1825SOL     OW 7074   1.127   5.065   3.552
 1825SOL    HW1 7075   1.174   5.065   3.640
 1825SOL    HW2 7076   1.079   4.978   3.541
 1826SOL     OW 7077   0.230   5.158   2.400
 1826SOL    HW1 7078   0.204   5.254   2.400
 1826SOL    HW2 7079   0.159   5.104   2.445
 1827SOL     OW 7080   0.240   4.815   2.748
 1827SOL    HW1 7081   0.254   4.731   2.800
 1827SOL    HW2 7082   0.185   4.879   2.803
 1828SOL     OW 7083   0.620   5.510   3.301
 1828SOL    HW1 7084   0.528   5.493   3.336
 1828SOL    HW2 7085   0.648   5.602   3.327
 1829SOL     OW 7086   0.606   4.688   1.985
 1829SOL    HW1 7087   0.613   4.772   1.931
 1829SOL    HW2 7088   0.652   4.701   2.073
 1830SOL     OW 7089   1.594   3.838   3.342
 1830SOL    HW1 7090   1.576   3.905   3.270
 1830SOL    HW2 7091   1.591   3.884   3.431
 1831SOL     OW 7092   0.122   4.367   2.425
 1831SOL    HW1 7093   0.077   4.279   2.442
 1831SOL    HW2 7094   0.121   4.421   2.509
 1832SOL     OW 7095   1.842   5.491   2.221
 1832SOL    HW1 7096   1.896   5.462   2.301
 1832SOL    HW2 7097   1.872   5.581   2.192
 1833SOL     OW 7098   0.027   5.320   1.979
 1833SOL    HW1 7099   0.008   5.224   2.000
 1833SOL    HW2 7100  -0.006   5.378   2.054
 1834SOL     OW 7101   1.689   4.646   2.474
 1834SOL    HW1 7102   1.784   4.617   2.482
 1834SOL    HW2 7103   1.681   4.711   2.399
 1835SOL     OW 7104   1.641   4.832   2.294
 1835SOL    HW1 7105   1.727   4.834   2.242
 1835SOL    HW2 7106   1.655   4.879   2.382
 1836SOL     OW 7107   0.113   4.461   3.459
 1836SOL    HW1 7108   0.201   4.448   3.504
 1836SOL    HW2 7109   0.100   4.558   3.437
 1837SOL     OW 7110   0.613   5.089   2.588
 1837SOL    HW1 7111   0.564   5.002   2.597
 1837SOL    HW2 7112   0.590   5.132   2.501
 1838SOL     OW 7113   1.293   4.952   3.285
 1838SOL    HW1 7114   1.330   4.879   3.227
 1838SOL    HW2 7115   1.345   4.957   3.370
 1839SOL     OW 7116   0.809   3.728   2.364
 1839SOL    HW1 7117   0.849   3.819   2.355
 1839SOL    HW2 7118   0.709   3.736   2.370
 1840SOL     OW 7119   0.197   4.700   3.126
 1840SOL    HW1 7120   0.286   4.655   3.112
 1840SOL    HW2 7121   0.124   4.635   3.107
 1841SOL     OW 7122   1.525   4.723   2.052
 1841SOL    HW1 7123   1.462   4.647   2.065
 1841SOL    HW2 7124   1.573   4.741   2.138
 1842SOL     OW 7125   1.187   5.516   3.478
 1842SOL    HW1 7126   1.211   5.576   3.402
 1842SOL    HW2 7127   1.194   5.421   3.448
 1843SOL     OW 7128   0.317   3.975   3.663
 1843SOL    HW1 7129   0.388   4.046   3.669
 1843SOL    HW2 7130   0.229   4.014   3.691
 1844SOL     OW 7131   1.466   5.141   2.815
 1844SOL    HW1 7132   1.407   5.147   2.895
 1844SOL    HW2 7133   1.451   5.053   2.769
 1845SOL     OW 7134   1.667   5.438   2.434
 1845SOL    HW1 7135   1.626   5.415   2.346
 1845SOL    HW2 7136   1.649   5.364   2.499
 1846SOL     OW 7137   0.598   4.453   2.132
 1846SOL    HW1 7138   0.622   4.522   2.064
 1846SOL    HW2 7139   0.520   4.486   2.186
 1847SOL     OW 7140   1.281   4.069   2.806
 1847SOL    HW1 7141   1.195   4.019   2.793
 1847SOL    HW2 7142   1.343   4.015   2.862
 1848SOL     OW 7143   1.576   5.386   2.169
 1848SOL    HW1 7144   1.665   5.432   2.172
 1848SOL    HW2 7145   1.555   5.362   2.074
 1849SOL     OW 7146   0.807   4.329   3.327
 1849SOL    HW1 7147   0.760   4.326   3.416
 1849SOL    HW2 7148   0.756   4.274   3.261
 1850SOL     OW 7149   1.394   4.193   3.536
 1850SOL    HW1 7150   1.374   4.236   3.624
 1850SOL    HW2 7151   1.472   4.131   3.545
 1851SOL     OW 7152   0.973   4.614   3.434
 1851SOL    HW1 7153   1.019   4.530   3.405
 1851SOL    HW2 7154   0.917   4.648   3.359
 1852SOL     OW 7155   0.991   4.134   3.104
 1852SOL    HW1 7156   0.914   4.168   3.158
 1852SOL    HW2 7157   0.957   4.083   3.025
 1853SOL     OW 7158   1.041   4.425   2.291
 1853SOL    HW1 7159   1.067   4.421   2.387
 1853SOL    HW2 7160   0.956   4.374   2.277
 1854SOL     OW 7161   0.076   4.535   2.651
 1854SOL    HW1 7162   0.175   4.523   2.660
 1854SOL    HW2 7163   0.052   4.630   2.672
 1855SOL     OW 7164   0.130   5.545   3.433
 1855SOL    HW1 7165   0.120   5.530   3.532
 1855SOL    HW2 7166   0.044   5.581   3.397
 1856SOL     OW 7167   0.865   4.072   2.057
 1856SOL    HW1 7168   0.924   4.135   2.008
 1856SOL    HW2 7169   0.884   3.978   2.028
 1857SOL     OW 7170   1.719   4.309   3.693
 1857SOL    HW1 7171   1.693   4.398   3.657
 1857SOL    HW2 7172   1.717   4.241   3.620
 1858SOL     OW 7173   1.362   4.868   2.407
 1858SOL    HW1 7174   1.445   4.839   2.359
 1858SOL    HW2 7175   1.313   4.935   2.351
 1859SOL     OW 7176   0.550   3.920   2.747
 1859SOL    HW1 7177   0.545   3.915   2.847
 1859SOL    HW2 7178   0.552   4.016   2.718
 1860SOL     OW 7179   1.008   5.180   2.339
 1860SOL    HW1 7180   0.962   5.252   2.287
 1860SOL    HW2 7181   1.004   5.200   2.437
 1861SOL     OW 7182   0.351   5.525   2.715
 1861SOL    HW1 7183   0.401   5.439   2.721
 1861SOL    HW2 7184   0.416   5.602   2.712
 1862SOL     OW 7185   1.795   4.790   2.735
 1862SOL    HW1 7186   1.733   4.775   2.659
 1862SOL    HW2 7187   1.743   4.801   2.820
 1863SOL     OW 7188   1.227   5.274   3.368
 1863SOL    HW1 7189   1.233   5.197   3.432
 1863SOL    HW2 7190   1.175   5.248   3.288
 1864SOL     OW 7191   0.321   4.667   2.104
 1864SOL    HW1 7192   0.403   4.706   2.062
 1864SOL    HW2 7193   0.294   4.585   2.055
 1865SOL     OW 7194   1.458   4.459   2.590
 1865SOL    HW1 7195   1.453   4.394   2.665
 1865SOL    HW2 7196   1.538   4.518   2.603
 1866SOL     OW 7197   0.461   4.990   3.589
 1866SOL    HW1 7198   0.411   4.991   3.503
 1866SOL    HW2 7199   0.398   4.972   3.665
 1867SOL     OW 7200   1.111   5.500   2.099
 1867SOL    HW1 7201   1.051   5.438   2.149
 1867SOL    HW2 7202   1.142   5.456   2.014
 1868SOL     OW 7203   0.202   4.009   3.360
 1868SOL    HW1 7204   0.122   4.069   3.347
 1868SOL    HW2 7205   0.192   3.960   3.446
 1869SOL     OW 7206   1.632   5.101   1.943
 1869SOL    HW1 7207   1.600   5.195   1.933
 1869SOL    HW2 7208   1.556   5.038   1.931
 1870SOL     OW 7209   0.464   5.467   2.185
 1870SOL    HW1 7210   0.497   5.506   2.271
 1870SOL    HW2 7211   0.540   5.460   2.120
 1871SOL     OW 7212   1.400   3.831   2.288
 1871SOL    HW1 7213   1.376   3.794   2.198
 1871SOL    HW2 7214   1.499   3.847   2.292
 1872SOL     OW 7215   0.249   5.509   3.103
 1872SOL    HW1 7216   0.306   5.444   3.153
 1872SOL    HW2 7217   0.233   5.476   3.010
 1873SOL     OW 7218   0.940   5.422   2.766
 1873SOL    HW1 7219   1.020   5.365   2.787
 1873SOL    HW2 7220   0.891   5.382   2.689
 1874SOL     OW 7221   0.382   4.424   2.342
 1874SOL    HW1 7222   0.427   4.334   2.339
 1874SOL    HW2 7223   0.288   4.413   2.375
 1875SOL     OW 7224   1.547   3.946   3.591
 1875SOL    HW1 7225   1.542   3.983   3.683
 1875SOL    HW2 7226   1.475   3.877   3.579
 1876SOL     OW 7227   0.614   3.846   1.979
 1876SOL    HW1 7228   0.712   3.824   1.986
 1876SOL    HW2 7229   0.583   3.829   1.886
 1877SOL     OW 7230   0.781   3.988   3.611
 1877SOL    HW1 7231   0.848   3.927   3.654
 1877SOL    HW2 7232   0.708   4.007   3.676
 1878SOL     OW 7233   0.888   5.238   3.057
 1878SOL    HW1 7234   0.865   5.213   2.963
 1878SOL    HW2 7235   0.949   5.169   3.096
 1879SOL     OW 7236   1.351   4.314   3.295
 1879SOL    HW1 7237   1.379   4.271   3.380
 1879SOL    HW2 7238   1.376   4.410   3.296
 1880SOL     OW 7239   0.803   5.126   2.786
 1880SOL    HW1 7240   0.893   5.140   2.744
 1880SOL    HW2 7241   0.732   5.128   2.715
 1881SOL     OW 7242   0.922   4.227   2.761
 1881SOL    HW1 7243   0.897   4.218   2.665
 1881SOL    HW2 7244   0.970   4.145   2.792
 1882SOL     OW 7245   0.539   3.788   2.374
 1882SOL    HW1 7246   0.458   3.789   2.432
 1882SOL    HW2 7247   0.542   3.871   2.319
 1883SOL     OW 7248   1.434   4.912   1.903
 1883SOL    HW1 7249   1.466   4.836   1.960
 1883SOL    HW2 7250   1.342   4.939   1.933
 1884SOL     OW 7251   0.297   3.759   2.033
 1884SOL    HW1 7252   0.346   3.843   2.012
 1884SOL    HW2 7253   0.359   3.694   2.078
 1885SOL     OW 7254   0.935   3.960   2.342
 1885SOL    HW1 7255   0.887   4.001   2.264
 1885SOL    HW2 7256   1.034   3.958   2.323
 1886SOL     OW 7257   1.076   4.407   3.326
 1886SOL    HW1 7258   0.996   4.346   3.329
 1886SOL    HW2 7259   1.157   4.354   3.302
 1887SOL     OW 7260   1.227   5.294   2.655
 1887SOL    HW1 7261   1.248   5.368   2.590
 1887SOL    HW2 7262   1.295   5.294   2.728
 1888SOL     OW 7263   0.459   4.876   2.603
 1888SOL    HW1 7264   0.388   4.849   2.668
 1888SOL    HW2 7265   0.433   4.848   2.510
 1889SOL     OW 7266   1.271   5.521   2.453
 1889SOL    HW1 7267   1.315   5.585   2.389
 1889SOL    HW2 7268   1.221   5.573   2.523
 1890SOL     OW 7269   1.032   4.273   1.878
 1890SOL    HW1 7270   0.991   4.355   1.839
 1890SOL    HW2 7271   1.096   4.299   1.951
 1891SOL     OW 7272   0.078   4.280   3.248
 1891SOL    HW1 7273   0.170   4.279   3.207
 1891SOL    HW2 7274   0.072   4.354   3.315
 1892SOL     OW 7275   0.561   3.946   3.009
 1892SOL    HW1 7276   0.599   3.862   3.046
 1892SOL    HW2 7277   0.473   3.965   3.053
 1893SOL     OW 7278   0.866   4.178   2.504
 1893SOL    HW1 7279   0.834   4.250   2.442
 1893SOL    HW2 7280   0.890   4.097   2.451
 1894SOL     OW 7281   1.017   3.763   2.615
 1894SOL    HW1 7282   0.945   3.768   2.546
 1894SOL    HW2 7283   0.993   3.694   2.684
 1895SOL     OW 7284   1.429   4.897   2.729
 1895SOL    HW1 7285   1.374   4.813   2.722
 1895SOL    HW2 7286   1.455   4.926   2.637
 1896SOL     OW 7287   1.466   4.314   2.854
 1896SOL    HW1 7288   1.436   4.219   2.861
 1896SOL    HW2 7289   1.539   4.330   2.920
 1897SOL     OW 7290   1.857   4.557   2.239
 1897SOL    HW1 7291   1.899   4.493   2.303
 1897SOL    HW2 7292   1.819   4.506   2.161
 1898SOL     OW 7293   0.488   5.109   2.036
 1898SOL    HW1 7294   0.401   5.094   2.083
 1898SOL    HW2 7295   0.471   5.135   1.941
 1899SOL     OW 7296   1.664   5.004   2.519
 1899SOL    HW1 7297   1.763   5.012   2.533
 1899SOL    HW2 7298   1.619   5.088   2.550
 1900SOL     OW 7299   1.390   4.299   1.940
 1900SOL    HW1 7300   1.336   4.278   2.021
 1900SOL    HW2 7301   1.481   4.258   1.949
 1901SOL     OW 7302   0.527   3.980   2.190
 1901SOL    HW1 7303   0.554   3.921   2.115
 1901SOL    HW2 7304   0.527   4.075   2.159
 1902SOL     OW 7305   1.754   4.947   3.450
 1902SOL    HW1 7306   1.845   4.908   3.437
 1902SOL    HW2 7307   1.762   5.043   3.474
 1903SOL     OW 7308   1.064   5.071   3.202
 1903SOL    HW1 7309   0.984   5.048   3.257
 1903SOL    HW2 7310   1.147   5.045   3.251
 1904SOL     OW 7311   1.592   5.353   3.487
 1904SOL    HW1 7312   1.619   5.387   3.397
 1904SOL    HW2 7313   1.671   5.315   3.533
 1905SOL     OW 7314   1.111   4.919   2.962
 1905SOL    HW1 7315   1.071   4.963   3.043
 1905SOL    HW2 7316   1.070   4.956   2.879
 1906SOL     OW 7317   1.638   4.823   2.941
 1906SOL    HW1 7318   1.643   4.904   3.000
 1906SOL    HW2 7319   1.552   4.825   2.890
 1907SOL     OW 7320   0.915   3.813   3.264
 1907SOL    HW1 7321   0.940   3.793   3.169
 1907SOL    HW2 7322   0.987   3.869   3.306
 1908SOL     OW 7323   0.980   4.840   3.581
 1908SOL    HW1 7324   0.881   4.846   3.591
 1908SOL    HW2 7325   1.003   4.760   3.525
 1909SOL     OW 7326   0.705   4.774   2.230
 1909SOL    HW1 7327   0.691   4.781   2.329
 1909SOL    HW2 7328   0.789   4.723   2.212
 1910SOL     OW 7329   0.410   4.537   3.113
 1910SOL    HW1 7330   0.496   4.549   3.163
 1910SOL    HW2 7331   0.368   4.450   3.140
 1911SOL     OW 7332   1.274   4.110   3.124
 1911SOL    HW1 7333   1.295   4.184   3.188
 1911SOL    HW2 7334   1.185   4.127   3.081
 1912SOL     OW 7335   0.064   5.288   3.193
 1912SOL    HW1 7336   0.018   5.370   3.159
 1912SOL    HW2 7337   0.162   5.307   3.202
 1913SOL     OW 7338   0.367   4.824   2.363
 1913SOL    HW1 7339   0.360   4.907   2.307
 1913SOL    HW2 7340   0.371   4.744   2.303
 1914SOL     OW 7341   0.566   4.261   2.727
 1914SOL    HW1 7342   0.578   4.327   2.653
 1914SOL    HW2 7343   0.612   4.295   2.810
 1915SOL     OW 7344   1.252   5.072   2.250
 1915SOL    HW1 7345   1.302   5.149   2.290
 1915SOL    HW2 7346   1.157   5.074   2.282
 1916SOL     OW 7347   1.272   5.169   3.004
 1916SOL    HW1 7348   1.319   5.182   3.091
 1916SOL    HW2 7349   1.206   5.095   3.013
 1917SOL     OW 7350   1.582   4.363   2.334
 1917SOL    HW1 7351   1.551   4.424   2.407
 1917SOL    HW2 7352   1.632   4.415   2.265
 1918SOL     OW 7353   0.354   5.234   3.191
 1918SOL    HW1 7354   0.333   5.190   3.104
 1918SOL    HW2 7355   0.451   5.260   3.194
 1919SOL     OW 7356   0.402   4.475   3.460
 1919SOL    HW1 7357   0.470   4.530   3.413
 1919SOL    HW2 7358   0.442   4.387   3.487
 1920SOL     OW 7359   1.587   4.503   3.532
 1920SOL    HW1 7360   1.495   4.541   3.527
 1920SOL    HW2 7361   1.647   4.550   3.467
 1921SOL     OW 7362   1.013   3.829   3.632
 1921SOL    HW1 7363   1.019   3.914   3.580
 1921SOL    HW2 7364   1.045   3.753   3.575
 1922SOL     OW 7365   0.504   3.774   3.602
 1922SOL    HW1 7366   0.462   3.717   3.532
 1922SOL    HW2 7367   0.438   3.843   3.634
 1923SOL     OW 7368   0.573   4.594   2.891
 1923SOL    HW1 7369   0.617   4.683   2.882
 1923SOL    HW2 7370   0.510   4.594   2.968
 1924SOL     OW 7371   1.360   4.586   2.907
 1924SOL    HW1 7372   1.285   4.586   2.841
 1924SOL    HW2 7373   1.397   4.494   2.916
 1925SOL     OW 7374   1.209   4.249   2.137
 1925SOL    HW1 7375   1.222   4.165   2.191
 1925SOL    HW2 7376   1.180   4.323   2.197
 1926SOL     OW 7377   0.307   3.937   3.093
 1926SOL    HW1 7378   0.284   3.974   3.183
 1926SOL    HW2 7379   0.277   3.842   3.087
 1927SOL     OW 7380   0.037   5.034   3.144
 1927SOL    HW1 7381   0.090   4.985   3.212
 1927SOL    HW2 7382   0.059   5.132   3.149
 1928SOL     OW 7383   0.732   4.358   2.926
 1928SOL    HW1 7384   0.791   4.332   2.850
 1928SOL    HW2 7385   0.704   4.454   2.915
 1929SOL     OW 7386   1.728   4.659   3.716
 1929SOL    HW1 7387   1.682   4.652   3.627
 1929SOL    HW2 7388   1.666   4.703   3.782
 1930SOL     OW 7389   0.307   3.787   2.480
 1930SOL    HW1 7390   0.296   3.881   2.513
 1930SOL    HW2 7391   0.302   3.724   2.557
 1931SOL     OW 7392   1.622   4.091   2.236
 1931SOL    HW1 7393   1.624   4.015   2.300
 1931SOL    HW2 7394   1.574   4.168   2.276
 1932SOL     OW 7395   1.023   4.490   2.828
 1932SOL    HW1 7396   1.038   4.511   2.924
 1932SOL    HW2 7397   0.993   4.395   2.819
 1933SOL     OW 7398   0.980   5.297   3.562
 1933SOL    HW1 7399   0.960   5.341   3.474
 1933SOL    HW2 7400   1.019   5.206   3.546
 1934SOL     OW 7401   1.859   5.242   3.467
 1934SOL    HW1 7402   1.873   5.269   3.372
 1934SOL    HW2 7403   1.942   5.264   3.520
 1935SOL     OW 7404   0.350   4.622   3.666
 1935SOL    HW1 7405   0.426   4.666   3.714
 1935SOL    HW2 7406   0.385   4.575   3.584
 1936SOL     OW 7407   1.540   3.998   1.987
 1936SOL    HW1 7408   1.479   3.923   2.010
 1936SOL    HW2 7409   1.562   4.050   2.070
 1937SOL     OW 7410   1.303   4.562   1.904
 1937SOL    HW1 7411   1.337   4.469   1.919
 1937SOL    HW2 7412   1.321   4.589   1.809
 1938SOL     OW 7413   1.068   5.057   2.711
 1938SOL    HW1 7414   1.075   4.973   2.656
 1938SOL    HW2 7415   1.130   5.126   2.675
 1939SOL     OW 7416   0.319   4.534   2.811
 1939SOL    HW1 7417   0.412   4.570   2.816
 1939SOL    HW2 7418   0.313   4.449   2.863
 1940SOL     OW 7419   0.339   4.233   2.868
 1940SOL    HW1 7420   0.287   4.150   2.851
 1940SOL    HW2 7421   0.416   4.238   2.804
 1941SOL     OW 7422   1.138   4.104   3.540
 1941SOL    HW1 7423   1.093   4.167   3.604
 1941SOL    HW2 7424   1.231   4.135   3.523
 1942SOL     OW 7425   1.160   3.931   3.339
 1942SOL    HW1 7426   1.160   3.995   3.416
 1942SOL    HW2 7427   1.188   3.979   3.256
 1943SOL     OW 7428   0.008   5.050   2.062
 1943SOL    HW1 7429  -0.085   5.071   2.031
 1943SOL    HW2 7430   0.018   4.951   2.075
 1944SOL     OW 7431   0.088   5.525   2.789
 1944SOL    HW1 7432   0.046   5.439   2.762
 1944SOL    HW2 7433   0.182   5.528   2.755
 1945SOL     OW 7434   0.504   5.292   2.772
 1945SOL    HW1 7435   0.570   5.366   2.781
 1945SOL    HW2 7436   0.548   5.213   2.730
 1946SOL     OW 7437   1.002   4.520   3.100
 1946SOL    HW1 7438   1.043   4.488   3.186
 1946SOL    HW2 7439   0.906   4.493   3.097
 1947SOL     OW 7440   0.040   4.268   2.976
 1947SOL    HW1 7441   0.125   4.235   2.935
 1947SOL    HW2 7442   0.053   4.283   3.074
 1948SOL     OW 7443   0.189   4.244   3.584
 1948SOL    HW1 7444   0.248   4.204   3.514
 1948SOL    HW2 7445   0.131   4.315   3.543
 1949SOL     OW 7446   1.369   4.674   3.522
 1949SOL    HW1 7447   1.408   4.763   3.542
 1949SOL    HW2 7448   1.379   4.654   3.425
 1950SOL     OW 7449   0.815   4.296   2.187
 1950SOL    HW1 7450   0.822   4.207   2.141
 1950SOL    HW2 7451   0.721   4.330   2.179
 1951SOL     OW 7452   1.657   4.328   3.068
 1951SOL    HW1 7453   1.619   4.259   3.130
 1951SOL    HW2 7454   1.739   4.292   3.024
 1952SOL     OW 7455   0.252   5.288   3.606
 1952SOL    HW1 7456   0.222   5.345   3.682
 1952SOL    HW2 7457   0.245   5.191   3.632
 1953SOL     OW 7458   0.671   4.188   3.131
 1953SOL    HW1 7459   0.637   4.099   3.101
 1953SOL    HW2 7460   0.697   4.242   3.051
 1954SOL     OW 7461   0.930   5.402   3.327
 1954SOL    HW1 7462   0.906   5.384   3.232
 1954SOL    HW2 7463   0.960   5.496   3.337
 1955SOL     OW 7464   0.473   4.224   2.053
 1955SOL    HW1 7465   0.534   4.304   2.057
 1955SOL    HW2 7466   0.378   4.255   2.060
 1956SOL     OW 7467   0.159   4.861   3.328
 1956SOL    HW1 7468   0.181   4.800   3.404
 1956SOL    HW2 7469   0.169   4.812   3.242
 1957SOL     OW 7470   1.347   4.783   3.096
 1957SOL    HW1 7471   1.371   4.720   3.022
 1957SOL    HW2 7472   1.257   4.823   3.078
 1958SOL     OW 7473   1.302   4.579   2.171
 1958SOL    HW1 7474   1.216   4.548   2.213
 1958SOL    HW2 7475   1.298   4.565   2.072
 1959SOL     OW 7476   1.759   5.471   3.016
 1959SOL    HW1 7477   1.820   5.501   2.943
 1959SOL    HW2 7478   1.721   5.382   2.994
 1960SOL     OW 7479   1.252   5.455   2.990
 1960SOL    HW1 7480   1.336   5.460   2.936
 1960SOL    HW2 7481   1.229   5.359   3.008
 1961SOL     OW 7482   0.083   4.982   2.884
 1961SOL    HW1 7483   0.078   4.981   2.984
 1961SOL    HW2 7484   0.000   4.941   2.846
 1962SOL     OW 7485   0.688   5.386   3.578
 1962SOL    HW1 7486   0.632   5.467   3.587
 1962SOL    HW2 7487   0.740   5.390   3.492
 1963SOL     OW 7488   1.388   5.297   2.339
 1963SOL    HW1 7489   1.455   5.309   2.265
 1963SOL    HW2 7490   1.348   5.386   2.362
 1964SOL     OW 7491   0.130   5.518   3.713
 1964SOL    HW1 7492   0.089   5.444   3.766
 1964SOL    HW2 7493   0.194   5.569   3.771
 1965SOL     OW 7494   1.280   4.651   2.534
 1965SOL    HW1 7495   1.340   4.570   2.536
 1965SOL    HW2 7496   1.320   4.720   2.474
 1966SOL     OW 7497   0.830   4.997   3.284
 1966SOL    HW1 7498   0.825   5.030   3.379
 1966SOL    HW2 7499   0.744   5.016   3.238
 1967SOL     OW 7500   0.672   5.340   2.016
 1967SOL    HW1 7501   0.681   5.350   1.917
 1967SOL    HW2 7502   0.632   5.251   2.037
 1968SOL     OW 7503   1.650   5.444   3.256
 1968SOL    HW1 7504   1.703   5.454   3.172
 1968SOL    HW2 7505   1.623   5.534   3.290
 1969SOL     OW 7506   1.841   3.899   2.825
 1969SOL    HW1 7507   1.880   3.814   2.789
 1969SOL    HW2 7508   1.743   3.901   2.806
 1970SOL     OW 7509   0.263   4.050   2.582
 1970SOL    HW1 7510   0.184   4.101   2.548
 1970SOL    HW2 7511   0.254   4.035   2.680
 1971SOL     OW 7512   1.194   5.336   1.893
 1971SOL    HW1 7513   1.200   5.243   1.930
 1971SOL    HW2 7514   1.135   5.336   1.813
 1972SOL     OW 7515   0.822   4.726   3.234
 1972SOL    HW1 7516   0.862   4.725   3.142
 1972SOL    HW2 7517   0.832   4.818   3.274
 1973SOL     OW 7518   0.916   4.634   2.153
 1973SOL    HW1 7519   0.979   4.672   2.085
 1973SOL    HW2 7520   0.956   4.551   2.192
 1974SOL     OW 7521   1.504   5.331   1.906
 1974SOL    HW1 7522   1.412   5.368   1.913
 1974SOL    HW2 7523   1.542   5.351   1.816
 1975SOL     OW 7524   0.372   5.012   3.352
 1975SOL    HW1 7525   0.359   5.105   3.318
 1975SOL    HW2 7526   0.288   4.960   3.339
 1976SOL     OW 7527   1.614   5.016   3.151
 1976SOL    HW1 7528   1.674   5.019   3.231
 1976SOL    HW2 7529   1.539   5.080   3.164
 1977SOL     OW 7530   1.039   4.822   2.558
 1977SOL    HW1 7531   0.969   4.775   2.612
 1977SOL    HW2 7532   1.098   4.754   2.515
 1978SOL     OW 7533   1.014   3.960   2.833
 1978SOL    HW1 7534   1.006   3.924   2.740
 1978SOL    HW2 7535   1.012   3.884   2.898
 1979SOL     OW 7536   0.590   5.211   2.353
 1979SOL    HW1 7537   0.632   5.153   2.283
 1979SOL    HW2 7538   0.546   5.290   2.309
 1980SOL     OW 7539   1.709   4.109   3.243
 1980SOL    HW1 7540   1.782   4.178   3.247
 1980SOL    HW2 7541   1.737   4.034   3.184
 1981SOL     OW 7542   0.255   5.072   2.152
 1981SOL    HW1 7543   0.159   5.073   2.125
 1981SOL    HW2 7544   0.267   5.125   2.236
 1982SOL     OW 7545   0.105   4.737   3.588
 1982SOL    HW1 7546   0.028   4.704   3.642
 1982SOL    HW2 7547   0.190   4.707   3.630
 1983SOL     OW 7548   0.672   3.927   3.351
 1983SOL    HW1 7549   0.762   3.911   3.311
 1983SOL    HW2 7550   0.680   3.932   3.450
 1984SOL     OW 7551   0.075   4.069   1.895
 1984SOL    HW1 7552  -0.017   4.041   1.866
 1984SOL    HW2 7553   0.106   4.146   1.839
 1985SOL     OW 7554   1.440   4.580   3.260
 1985SOL    HW1 7555   1.383   4.632   3.197
 1985SOL    HW2 7556   1.536   4.592   3.236
 1986SOL     OW 7557   0.072   3.890   2.180
 1986SOL    HW1 7558   0.055   3.973   2.126
 1986SOL    HW2 7559   0.162   3.853   2.158
 1987SOL     OW 7560   1.183   5.059   1.981
 1987SOL    HW1 7561   1.084   5.048   1.983
 1987SOL    HW2 7562   1.217   5.074   2.074
 1988SOL     OW 7563   0.613   4.566   3.293
 1988SOL    HW1 7564   0.669   4.647   3.276
 1988SOL    HW2 7565   0.672   4.486   3.296
 1989SOL     OW 7566   1.493   5.491   2.821
 1989SOL    HW1 7567   1.526   5.555   2.752
 1989SOL    HW2 7568   1.559   5.485   2.896
 1990SOL     OW 7569   0.716   4.289   3.570
 1990SOL    HW1 7570   0.735   4.354   3.644
 1990SOL    HW2 7571   0.776   4.209   3.579
 1991SOL     OW 7572   1.450   4.944   3.495
 1991SOL    HW1 7573   1.441   4.934   3.594
 1991SOL    HW2 7574   1.546   4.937   3.469
 1992SOL     OW 7575   0.390   5.465   3.422
 1992SOL    HW1 7576   0.299   5.506   3.420
 1992SOL    HW2 7577   0.383   5.371   3.454
 1993SOL     OW 7578   1.674   4.607   3.116
 1993SOL    HW1 7579   1.647   4.518   3.079
 1993SOL    HW2 7580   1.675   4.675   3.043
 1994SOL     OW 7581   1.225   4.049   2.311
 1994SOL    HW1 7582   1.290   3.975   2.300
 1994SOL    HW2 7583   1.245   4.099   2.395
 1995SOL     OW 7584   0.594   4.469   2.514
 1995SOL    HW1 7585   0.644   4.554   2.495
 1995SOL    HW2 7586   0.506   4.471   2.466
 1996SOL     OW 7587   1.777   4.066   3.504
 1996SOL    HW1 7588   1.760   4.097   3.410
 1996SOL    HW2 7589   1.693   4.029   3.542
 1997SOL     OW 7590   1.730   4.658   3.379
 1997SOL    HW1 7591   1.768   4.749   3.394
 1997SOL    HW2 7592   1.722   4.641   3.280
 1998SOL     OW 7593   0.859   5.098   1.878
 1998SOL    HW1 7594   0.813   5.113   1.966
 1998SOL    HW2 7595   0.903   5.183   1.848
 1999SOL     OW 7596   0.661   5.514   2.815
 1999SOL    HW1 7597   0.615   5.602   2.802
 1999SOL    HW2 7598   0.760   5.526   2.808
 2000SOL     OW 7599   0.859   4.680   2.723
 2000SOL    HW1 7600   0.913   4.611   2.771
 2000SOL    HW2 7601   0.827   4.749   2.789
 2001SOL     OW 7602   1.083   4.708   1.949
 2001SOL    HW1 7603   1.060   4.761   1.867
 2001SOL    HW2 7604   1.164   4.652   1.930
 2002SOL     OW 7605   1.861   5.293   2.713
 2002SOL    HW1 7606   1.790   5.281   2.643
 2002SOL    HW2 7607   1.862   5.214   2.773
 2003SOL     OW 7608   0.221   5.038   3.706
 2003SOL    HW1 7609   0.156   4.965   3.685
 2003SOL    HW2 7610   0.225   5.052   3.804
 2004SOL     OW 7611   0.079   4.964   2.515
 2004SOL    HW1 7612   0.078   4.917   2.603
 2004SOL    HW2 7613   0.161   4.936   2.464
 2005SOL     OW 7614   0.672   5.115   3.486
 2005SOL    HW1 7615   0.594   5.065   3.524
 2005SOL    HW2 7616   0.669   5.210   3.517
 2006SOL     OW 7617   1.824   3.916   3.089
 2006SOL    HW1 7618   1.820   3.826   3.133
 2006SOL    HW2 7619   1.827   3.905   2.990
 2007SOL     OW 7620   0.428   4.148   2.382
 2007SOL    HW1 7621   0.458   4.076   2.320
 2007SOL    HW2 7622   0.389   4.108   2.465
 2008SOL     OW 7623   1.705   5.211   2.966
 2008SOL    HW1 7624   1.612   5.186   2.939
 2008SOL    HW2 7625   1.731   5.161   3.048
 2009SOL     OW 7626   0.317   4.271   3.142
 2009SOL    HW1 7627   0.355   4.212   3.214
 2009SOL    HW2 7628   0.357   4.245   3.054
 2010SOL     OW 7629   0.812   5.310   2.549
 2010SOL    HW1 7630   0.844   5.320   2.455
 2010SOL    HW2 7631   0.733   5.248   2.551
 2011SOL     OW 7632   1.424   3.938   2.974
 2011SOL    HW1 7633   1.476   3.873   3.029
 2011SOL    HW2 7634   1.375   4.001   3.035
 2012SOL     OW 7635   1.001   3.758   3.016
 2012SOL    HW1 7636   0.938   3.686   2.985
 2012SOL    HW2 7637   1.094   3.722   3.016
 2013SOL     OW 7638   0.770   5.054   2.163
 2013SOL    HW1 7639   0.724   4.967   2.180
 2013SOL    HW2 7640   0.861   5.051   2.204
 2014SOL     OW 7641   0.618   5.291   3.146
 2014SOL    HW1 7642   0.613   5.373   3.203
 2014SOL    HW2 7643   0.707   5.288   3.101
 2015SOL     OW 7644   1.352   3.776   2.030
 2015SOL    HW1 7645   1.387   3.735   1.946
 2015SOL    HW2 7646   1.262   3.738   2.050
 2016SOL     OW 7647   1.300   4.177   2.553
 2016SOL    HW1 7648   1.241   4.257   2.557
 2016SOL    HW2 7649   1.315   4.142   2.646
 2017SOL     OW 7650   1.593   3.945   2.744
 2017SOL    HW1 7651   1.509   3.944   2.798
 2017SOL    HW2 7652   1.595   4.028   2.688
 2018SOL     OW 7653   0.039   4.801   2.162
 2018SOL    HW1 7654   0.138   4.790   2.153
 2018SOL    HW2 7655  -0.001   4.715   2.194
 2019SOL     OW 7656   0.875   5.370   2.199
 2019SOL    HW1 7657   0.798   5.335   2.145
 2019SOL    HW2 7658   0.843   5.441   2.261
 2020SOL     OW 7659   0.230   4.352   3.837
 2020SOL    HW1 7660   0.137   4.350   3.874
 2020SOL    HW2 7661   0.231   4.313   3.745
 2021SOL     OW 7662   0.225   3.999   4.720
 2021SOL    HW1 7663   0.260   3.982   4.812
 2021SOL    HW2 7664   0.137   3.954   4.708
 2022SOL     OW 7665   0.019   4.092   4.371
 2022SOL    HW1 7666  -0.063   4.135   4.410
 2022SOL    HW2 7667  -0.009   4.019   4.308
 2023SOL     OW 7668   0.569   4.999   4.889
 2023SOL    HW1 7669   0.476   4.992   4.852
 2023SOL    HW2 7670   0.580   5.088   4.933
 2024SOL     OW 7671   1.555   5.235   4.427
 2024SOL    HW1 7672   1.498   5.219   4.508
 2024SOL    HW2 7673   1.496   5.245   4.347
 2025SOL     OW 7674   1.135   4.427   4.441
 2025SOL    HW1 7675   1.192   4.505   4.416
 2025SOL    HW2 7676   1.075   4.453   4.517
 2026SOL     OW 7677   1.755   4.331   3.955
 2026SOL    HW1 7678   1.743   4.318   3.856
 2026SOL    HW2 7679   1.725   4.250   4.004
 2027SOL     OW 7680   0.768   4.868   4.747
 2027SOL    HW1 7681   0.690   4.885   4.807
 2027SOL    HW2 7682   0.802   4.955   4.711
 2028SOL     OW 7683   0.850   4.522   5.547
 2028SOL    HW1 7684   0.846   4.598   5.612
 2028SOL    HW2 7685   0.872   4.558   5.456
 2029SOL     OW 7686   0.685   4.736   4.389
 2029SOL    HW1 7687   0.754   4.720   4.459
 2029SOL    HW2 7688   0.612   4.793   4.427
 2030SOL     OW 7689   0.686   4.885   5.527
 2030SOL    HW1 7690   0.746   4.964   5.541
 2030SOL    HW2 7691   0.600   4.916   5.486
 2031SOL     OW 7692   0.335   5.159   4.785
 2031SOL    HW1 7693   0.257   5.128   4.732
 2031SOL    HW2 7694   0.393   5.217   4.728
 2032SOL     OW 7695   1.460   5.229   5.063
 2032SOL    HW1 7696   1.484   5.323   5.089
 2032SOL    HW2 7697   1.444   5.175   5.145
 2033SOL     OW 7698   0.438   4.116   5.223
 2033SOL    HW1 7699   0.520   4.060   5.232
 2033SOL    HW2 7700   0.357   4.058   5.227
 2034SOL     OW 7701   1.603   4.171   4.461
 2034SOL    HW1 7702   1.529   4.217   4.411
 2034SOL    HW2 7703   1.654   4.239   4.514
 2035SOL     OW 7704   0.231   5.437   4.207
 2035SOL    HW1 7705   0.265   5.514   4.261
 2035SOL    HW2 7706   0.275   5.437   4.117
 2036SOL     OW 7707   1.127   5.065   5.414
 2036SOL    HW1 7708   1.174   5.065   5.502
 2036SOL    HW2 7709   1.079   4.978   5.403
 2037SOL     OW 7710   0.230   5.158   4.262
 2037SOL    HW1 7711   0.204   5.254   4.262
 2037SOL    HW2 7712   0.159   5.104   4.307
 2038SOL     OW 7713   0.240   4.815   4.610
 2038SOL    HW1 7714   0.254   4.731   4.662
 2038SOL    HW2 7715   0.185   4.879   4.665
 2039SOL     OW 7716   0.620   5.510   5.163
 2039SOL    HW1 7717   0.528   5.493   5.198
 2039SOL    HW2 7718   0.648   5.602   5.189
 2040SOL     OW 7719   0.606   4.688   3.847
 2040SOL    HW1 7720   0.613   4.772   3.793
 2040SOL    HW2 7721   0.652   4.701   3.935
 2041SOL     OW 7722   1.594   3.838   5.204
 2041SOL    HW1 7723   1.576   3.905   5.132
 2041SOL    HW2 7724   1.591   3.884   5.293
 2042SOL     OW 7725   0.122   4.367   4.287
 2042SOL    HW1 7726   0.077   4.279   4.304
 2042SOL    HW2 7727   0.121   4.421   4.371
 2043SOL     OW 7728   1.842   5.491   4.083
 2043SOL    HW1 7729   1.896   5.462   4.163
 2043SOL    HW2 7730   1.872   5.581   4.054
 2044SOL     OW 7731   0.027   5.320   3.841
 2044SOL    HW1 7732   0.008   5.224   3.862
 2044SOL    HW2 7733  -0.006   5.378   3.916
 2045SOL     OW 7734   1.689   4.646   4.336
 2045SOL    HW1 7735   1.784   4.617   4.344
 2045SOL    HW2 7736   1.681   4.711   4.261
 2046SOL     OW 7737   1.641   4.832   4.156
 2046SOL    HW1 7738   1.727   4.834   4.104
 2046SOL    HW2 7739   1.655   4.879   4.244
 2047SOL     OW 7740   0.113   4.461   5.321
 2047SOL    HW1 7741   0.201   4.448   5.366
 2047SOL    HW2 7742   0.100   4.558   5.299
 2048SOL     OW 7743   0.613   5.089   4.450
 2048SOL    HW1 7744   0.564   5.002   4.459
 2048SOL    HW2 7745   0.590   5.132   4.363
 2049SOL     OW 7746   1.293   4.952   5.147
 2049SOL    HW1 7747   1.330   4.879   5.089
 2049SOL    HW2 7748   1.345   4.957   5.232
 2050SOL     OW 7749   0.809   3.728   4.226
 2050SOL    HW1 7750   0.849   3.819   4.217
 2050SOL    HW2 7751   0.709   3.736   4.232
 2051SOL     OW 7752   0.197   4.700   4.988
 2051SOL    HW1 7753   0.286   4.655   4.974
 2051SOL    HW2 7754   0.124   4.635   4.969
 2052SOL     OW 7755   1.525   4.723   3.914
 2052SOL    HW1 7756   1.462   4.647   3.927
 2052SOL    HW2 7757   1.573   4.741   4.000
 2053SOL     OW 7758   1.187   5.516   5.340
 2053SOL    HW1 7759   1.211   5.576   5.264
 2053SOL    HW2 7760   1.194   5.421   5.310
 2054SOL     OW 7761   1.466   5.141   4.677
 2054SOL    HW1 7762   1.407   5.147   4.757
 2054SOL    HW2 7763   1.451   5.053   4.631
 2055SOL     OW 7764   1.667   5.438   4.296
 2055SOL    HW1 7765   1.626   5.415   4.208
 2055SOL    HW2 7766   1.649   5.364   4.361
 2056SOL     OW 7767   0.598   4.453   3.994
 2056SOL    HW1 7768   0.622   4.522   3.926
 2056SOL    HW2 7769   0.520   4.486   4.048
 2057SOL     OW 7770   1.281   4.069   4.668
 2057SOL    HW1 7771   1.195   4.019   4.655
 2057SOL    HW2 7772   1.343   4.015   4.724
 2058SOL     OW 7773   1.576   5.386   4.031
 2058SOL    HW1 7774   1.665   5.432   4.034
 2058SOL    HW2 7775   1.555   5.362   3.936
 2059SOL     OW 7776   0.807   4.329   5.189
 2059SOL    HW1 7777   0.760   4.326   5.278
 2059SOL    HW2 7778   0.756   4.274   5.123
 2060SOL     OW 7779   1.394   4.193   5.398
 2060SOL    HW1 7780   1.374   4.236   5.486
 2060SOL    HW2 7781   1.472   4.131   5.407
 2061SOL     OW 7782   0.973   4.614   5.296
 2061SOL    HW1 7783   1.019   4.530   5.267
 2061SOL    HW2 7784   0.917   4.648   5.221
 2062SOL     OW 7785   0.991   4.134   4.966
 2062SOL    HW1 7786   0.914   4.168   5.020
 2062SOL    HW2 7787   0.957   4.083   4.887
 2063SOL     OW 7788   1.041   4.425   4.153
 2063SOL    HW1 7789   1.067   4.421   4.249
 2063SOL    HW2 7790   0.956   4.374   4.139
 2064SOL     OW 7791   0.076   4.535   4.513
 2064SOL    HW1 7792   0.175   4.523   4.522
 2064SOL    HW2 7793   0.052   4.630   4.534
 2065SOL     OW 7794   0.130   5.545   5.295
 2065SOL    HW1 7795   0.120   5.530   5.394
 2065SOL    HW2 7796   0.044   5.581   5.259
 2066SOL     OW 7797   0.865   4.072   3.919
 2066SOL    HW1 7798   0.924   4.135   3.870
 2066SOL    HW2 7799   0.884   3.978   3.890
 2067SOL     OW 7800   1.719   4.309   5.555
 2067SOL    HW1 7801   1.693   4.398   5.519
 2067SOL    HW2 7802   1.717   4.241   5.482
 2068SOL     OW 7803   1.362   4.868   4.269
 2068SOL    HW1 7804   1.445   4.839   4.221
 2068SOL    HW2 7805   1.313   4.935   4.213
 2069SOL     OW 7806   0.550   3.920   4.609
 2069SOL    HW1 7807   0.545   3.915   4.709
 2069SOL    HW2 7808   0.552   4.016   4.580
 2070SOL     OW 7809   1.008   5.180   4.201
 2070SOL    HW1 7810   0.962   5.252   4.149
 2070SOL    HW2 7811   1.004   5.200   4.299
 2071SOL     OW 7812   0.351   5.525   4.577
 2071SOL    HW1 7813   0.401   5.439   4.583
 2071SOL    HW2 7814   0.416   5.602   4.574
 2072SOL     OW 7815   1.795   4.790   4.597
 2072SOL    HW1 7816   1.733   4.775   4.521
 2072SOL    HW2 7817   1.743   4.801   4.682
 2073SOL     OW 7818   1.227   5.274   5.230
 2073SOL    HW1 7819   1.233   5.197   5.294
 2073SOL    HW2 7820   1.175   5.248   5.150
 2074SOL     OW 7821   0.321   4.667   3.966
 2074SOL    HW1 7822   0.403   4.706   3.924
 2074SOL    HW2 7823   0.294   4.585   3.917
 2075SOL     OW 7824   1.458   4.459   4.452
 2075SOL    HW1 7825   1.453   4.394   4.527
 2075SOL    HW2 7826   1.538   4.518   4.465
 2076SOL     OW 7827   0.461   4.990   5.451
 2076SOL    HW1 7828   0.411   4.991   5.365
 2076SOL    HW2 7829   0.398   4.972   5.527
 2077SOL     OW 7830   1.111   5.500   3.961
 2077SOL    HW1 7831   1.051   5.438   4.011
 2077SOL    HW2 7832   1.142   5.456   3.876
 2078SOL     OW 7833   0.202   4.009   5.222
 2078SOL    HW1 7834   0.122   4.069   5.209
 2078SOL    HW2 7835   0.192   3.960   5.308
 2079SOL     OW 7836   1.632   5.101   3.805
 2079SOL    HW1 7837   1.600   5.195   3.795
 2079SOL    HW2 7838   1.556   5.038   3.793
 2080SOL     OW 7839   0.464   5.467   4.047
 2080SOL    HW1 7840   0.497   5.506   4.133
 2080SOL    HW2 7841   0.540   5.460   3.982
 2081SOL     OW 7842   1.400   3.831   4.150
 2081SOL    HW1 7843   1.376   3.794   4.060
 2081SOL    HW2 7844   1.499   3.847   4.154
 2082SOL     OW 7845   0.249   5.509   4.965
 2082SOL    HW1 7846   0.306   5.444   5.015
 2082SOL    HW2 7847   0.233   5.476   4.872
 2083SOL     OW 7848   0.940   5.422   4.628
 2083SOL    HW1 7849   1.020   5.365   4.649
 2083SOL    HW2 7850   0.891   5.382   4.551
 2084SOL     OW 7851   0.382   4.424   4.204
 2084SOL    HW1 7852   0.427   4.334   4.201
 2084SOL    HW2 7853   0.288   4.413   4.237
 2085SOL     OW 7854   1.547   3.946   5.453
 2085SOL    HW1 7855   1.542   3.983   5.545
 2085SOL    HW2 7856   1.475   3.877   5.441
 2086SOL     OW 7857   0.614   3.846   3.841
 2086SOL    HW1 7858   0.712   3.824   3.848
 2086SOL    HW2 7859   0.583   3.829   3.748
 2087SOL     OW 7860   0.888   5.238   4.919
 2087SOL    HW1 7861   0.865   5.213   4.825
 2087SOL    HW2 7862   0.949   5.169   4.958
 2088SOL     OW 7863   1.351   4.314   5.157
 2088SOL    HW1 7864   1.379   4.271   5.242
 2088SOL    HW2 7865   1.376   4.410   5.158
 2089SOL     OW 7866   0.803   5.126   4.648
 2089SOL    HW1 7867   0.893   5.140   4.606
 2089SOL    HW2 7868   0.732   5.128   4.577
 2090SOL     OW 7869   0.922   4.227   4.623
 2090SOL    HW1 7870   0.897   4.218   4.527
 2090SOL    HW2 7871   0.970   4.145   4.654
 2091SOL     OW 7872   0.539   3.788   4.236
 2091SOL    HW1 7873   0.458   3.789   4.294
 2091SOL    HW2 7874   0.542   3.871   4.181
 2092SOL     OW 7875   1.434   4.912   3.765
 2092SOL    HW1 7876   1.466   4.836   3.822
 2092SOL    HW2 7877   1.342   4.939   3.795
 2093SOL     OW 7878   0.297   3.759   3.895
 2093SOL    HW1 7879   0.346   3.843   3.874
 2093SOL    HW2 7880   0.359   3.694   3.940
 2094SOL     OW 7881   0.935   3.960   4.204
 2094SOL    HW1 7882   0.887   4.001   4.126
 2094SOL    HW2 7883   1.034   3.958   4.185
 2095SOL     OW 7884   1.076   4.407   5.188
 2095SOL    HW1 7885   0.996   4.346   5.191
 2095SOL    HW2 7886   1.157   4.354   5.164
 2096SOL     OW 7887   1.227   5.294   4.517
 2096SOL    HW1 7888   1.248   5.368   4.452
 2096SOL    HW2 7889   1.295   5.294   4.590
 2097SOL     OW 7890   0.459   4.876   4.465
 2097SOL    HW1 7891   0.388   4.849   4.530
 2097SOL    HW2 7892   0.433   4.848   4.372
 2098SOL     OW 7893   1.271   5.521   4.315
 2098SOL    HW1 7894   1.315   5.585   4.251
 2098SOL    HW2 7895   1.221   5.573   4.385
 2099SOL     OW 7896   1.032   4.273   3.740
 2099SOL    HW1 7897   0.991   4.355   3.701
 2099SOL    HW2 7898   1.096   4.299   3.813
 2100SOL     OW 7899   0.078   4.280   5.110
 2100SOL    HW1 7900   0.170   4.279   5.069
 2100SOL    HW2 7901   0.072   4.354   5.177
 2101SOL     OW 7902   0.561   3.946   4.871
 2101SOL    HW1 7903   0.599   3.862   4.908
 2101SOL    HW2 7904   0.473   3.965   4.915
 2102SOL     OW 7905   0.866   4.178   4.366
 2102SOL    HW1 7906   0.834   4.250   4.304
 2102SOL    HW2 7907   0.890   4.097   4.313
 2103SOL     OW 7908   1.017   3.763   4.477
 2103SOL    HW1 7909   0.945   3.768   4.408
 2103SOL    HW2 7910   0.993   3.694   4.546
 2104SOL     OW 7911   1.429   4.897   4.591
 2104SOL    HW1 7912   1.374   4.813   4.584
 2104SOL    HW2 7913   1.455   4.926   4.499
 2105SOL     OW 7914   1.466   4.314   4.716
 2105SOL    HW1 7915   1.436   4.219   4.723
 2105SOL    HW2 7916   1.539   4.330   4.782
 2106SOL     OW 7917   0.488   5.109   3.898
 2106SOL    HW1 7918   0.401   5.094   3.945
 2106SOL    HW2 7919   0.471   5.135   3.803
 2107SOL     OW 7920   1.664   5.004   4.381
 2107SOL    HW1 7921   1.763   5.012   4.395
 2107SOL    HW2 7922   1.619   5.088   4.412
 2108SOL     OW 7923   1.390   4.299   3.802
 2108SOL    HW1 7924   1.336   4.278   3.883
 2108SOL    HW2 7925   1.481   4.258   3.811
 2109SOL     OW 7926   0.527   3.980   4.052
 2109SOL    HW1 7927   0.554   3.921   3.977
 2109SOL    HW2 7928   0.527   4.075   4.021
 2110SOL     OW 7929   1.754   4.947   5.312
 2110SOL    HW1 7930   1.845   4.908   5.299
 2110SOL    HW2 7931   1.762   5.043   5.336
 2111SOL     OW 7932   1.064   5.071   5.064
 2111SOL    HW1 7933   0.984   5.048   5.119
 2111SOL    HW2 7934   1.147   5.045   5.113
 2112SOL     OW 7935   1.592   5.353   5.349
 2112SOL    HW1 7936   1.619   5.387   5.259
 2112SOL    HW2 7937   1.671   5.315   5.395
 2113SOL     OW 7938   1.111   4.919   4.824
 2113SOL    HW1 7939   1.071   4.963   4.905
 2113SOL    HW2 7940   1.070   4.956   4.741
 2114SOL     OW 7941   1.638   4.823   4.803
 2114SOL    HW1 7942   1.643   4.904   4.862
 2114SOL    HW2 7943   1.552   4.825   4.752
 2115SOL     OW 7944   0.915   3.813   5.126
 2115SOL    HW1 7945   0.940   3.793   5.031
 2115SOL    HW2 7946   0.987   3.869   5.168
 2116SOL     OW 7947   0.980   4.840   5.443
 2116SOL    HW1 7948   0.881   4.846   5.453
 2116SOL    HW2 7949   1.003   4.760   5.387
 2117SOL     OW 7950   0.705   4.774   4.092
 2117SOL    HW1 7951   0.691   4.781   4.191
 2117SOL    HW2 7952   0.789   4.723   4.074
 2118SOL     OW 7953   0.410   4.537   4.975
 2118SOL    HW1 7954   0.496   4.549   5.025
 2118SOL    HW2 7955   0.368   4.450   5.002
 2119SOL     OW 7956   1.274   4.110   4.986
 2119SOL    HW1 7957   1.295   4.184   5.050
 2119SOL    HW2 7958   1.185   4.127   4.943
 2120SOL     OW 7959   0.064   5.288   5.055
 2120SOL    HW1 7960   0.018   5.370   5.021
 2120SOL    HW2 7961   0.162   5.307   5.064
 2121SOL     OW 7962   0.367   4.824   4.225
 2121SOL    HW1 7963   0.360   4.907   4.169
 2121SOL    HW2 7964   0.371   4.744   4.165
 2122SOL     OW 7965   0.566   4.261   4.589
 2122SOL    HW1 7966   0.578   4.327   4.515
 2122SOL    HW2 7967   0.612   4.295   4.672
 2123SOL     OW 7968   1.252   5.072   4.112
 2123SOL    HW1 7969   1.302   5.149   4.152
 2123SOL    HW2 7970   1.157   5.074   4.144
 2124SOL     OW 7971   1.272   5.169   4.866
 2124SOL    HW1 7972   1.319   5.182   4.953
 2124SOL    HW2 7973   1.206   5.095   4.875
 2125SOL     OW 7974   1.582   4.363   4.196
 2125SOL    HW1 7975   1.551   4.424   4.269
 2125SOL    HW2 7976   1.632   4.415   4.127
 2126SOL     OW 7977   0.354   5.234   5.053
 2126SOL    HW1 7978   0.333   5.190   4.966
 2126SOL    HW2 7979   0.451   5.260   5.056
 2127SOL     OW 7980   0.402   4.475   5.322
 2127SOL    HW1 7981   0.470   4.530   5.275
 2127SOL    HW2 7982   0.442   4.387   5.349
 2128SOL     OW 7983   1.587   4.503   5.394
 2128SOL    HW1 7984   1.495   4.541   5.389
 2128SOL    HW2 7985   1.647   4.550   5.329
 2129SOL     OW 7986   1.013   3.829   5.494
 2129SOL    HW1 7987   1.019   3.914   5.442
 2129SOL    HW2 7988   1.045   3.753   5.437
 2130SOL     OW 7989   0.573   4.594   4.753
 2130SOL    HW1 7990   0.617   4.683   4.744
 2130SOL    HW2 7991   0.510   4.594   4.830
 2131SOL     OW 7992   1.360   4.586   4.769
 2131SOL    HW1 7993   1.285   4.586   4.703
 2131SOL    HW2 7994   1.397   4.494   4.778
 2132SOL     OW 7995   1.209   4.249   3.999
 2132SOL    HW1 7996   1.222   4.165   4.053
 2132SOL    HW2 7997   1.180   4.323   4.059
 2133SOL     OW 7998   0.307   3.937   4.955
 2133SOL    HW1 7999   0.284   3.974   5.045
 2133SOL    HW2 8000   0.277   3.842   4.949
 2134SOL     OW 8001   0.037   5.034   5.006
 2134SOL    HW1 8002   0.090   4.985   5.074
 2134SOL    HW2 8003   0.059   5.132   5.011
 2135SOL     OW 8004   0.732   4.358   4.788
 2135SOL    HW1 8005   0.791   4.332   4.712
 2135SOL    HW2 8006   0.704   4.454   4.777
 2136SOL     OW 8007   1.728   4.659   5.578
 2136SOL    HW1 8008   1.682   4.652   5.489
 2136SOL    HW2 8009   1.666   4.703   5.644
 2137SOL     OW 8010   0.307   3.787   4.342
 2137SOL    HW1 8011   0.296   3.881   4.375
 2137SOL    HW2 8012   0.302   3.724   4.419
 2138SOL     OW 8013   1.622   4.091   4.098
 2138SOL    HW1 8014   1.624   4.015   4.162
 2138SOL    HW2 8015   1.574   4.168   4.138
 2139SOL     OW 8016   1.023   4.490   4.690
 2139SOL    HW1 8017   1.038   4.511   4.786
 2139SOL    HW2 8018   0.993   4.395   4.681
 2140SOL     OW 8019   0.980   5.297   5.424
 2140SOL    HW1 8020   0.960   5.341   5.336
 2140SOL    HW2 8021   1.019   5.206   5.408
 2141SOL     OW 8022   1.859   5.242   5.329
 2141SOL    HW1 8023   1.873   5.269   5.234
 2141SOL    HW2 8024   1.942   5.264   5.382
 2142SOL     OW 8025   0.350   4.622   5.528
 2142SOL    HW1 8026   0.426   4.666   5.576
 2142SOL    HW2 8027   0.385   4.575   5.446
 2143SOL     OW 8028   1.540   3.998   3.849
 2143SOL    HW1 8029   1.479   3.923   3.872
 2143SOL    HW2 8030   1.562   4.050   3.932
 2144SOL     OW 8031   1.303   4.562   3.766
 2144SOL    HW1 8032   1.337   4.469   3.781
 2144SOL    HW2 8033   1.321   4.589   3.671
 2145SOL     OW 8034   1.068   5.057   4.573
 2145SOL    HW1 8035   1.075   4.973   4.518
 2145SOL    HW2 8036   1.130   5.126   4.537
 2146SOL     OW 8037   0.319   4.534   4.673
 2146SOL    HW1 8038   0.412   4.570   4.678
 2146SOL    HW2 8039   0.313   4.449   4.725
 2147SOL     OW 8040   0.339   4.233   4.730
 2147SOL    HW1 8041   0.287   4.150   4.713
 2147SOL    HW2 8042   0.416   4.238   4.666
 2148SOL     OW 8043   1.138   4.104   5.402
 2148SOL    HW1 8044   1.093   4.167   5.466
 2148SOL    HW2 8045   1.231   4.135   5.385
 2149SOL     OW 8046   1.160   3.931   5.201
 2149SOL    HW1 8047   1.160   3.995   5.278
 2149SOL    HW2 8048   1.188   3.979   5.118
 2150SOL     OW 8049   0.008   5.050   3.924
 2150SOL    HW1 8050  -0.085   5.071   3.893
 2150SOL    HW2 8051   0.018   4.951   3.937
 2151SOL     OW 8052   0.088   5.525   4.651
 2151SOL    HW1 8053   0.046   5.439   4.624
 2151SOL    HW2 8054   0.182   5.528   4.617
 2152SOL     OW 8055   0.504   5.292   4.634
 2152SOL    HW1 8056   0.570   5.366   4.643
 2152SOL    HW2 8057   0.548   5.213   4.592
 2153SOL     OW 8058   1.002   4.520   4.962
 2153SOL    HW1 8059   1.043   4.488   5.048
 2153SOL    HW2 8060   0.906   4.493   4.959
 2154SOL     OW 8061   0.040   4.268   4.838
 2154SOL    HW1 8062   0.125   4.235   4.797
 2154SOL    HW2 8063   0.053   4.283   4.936
 2155SOL     OW 8064   0.189   4.244   5.446
 2155SOL    HW1 8065   0.248   4.204   5.376
 2155SOL    HW2 8066   0.131   4.315   5.405
 2156SOL     OW 8067   1.369   4.674   5.384
 2156SOL    HW1 8068   1.408   4.763   5.404
 2156SOL    HW2 8069   1.379   4.654   5.287
 2157SOL     OW 8070   0.815   4.296   4.049
 2157SOL    HW1 8071   0.822   4.207   4.003
 2157SOL    HW2 8072   0.721   4.330   4.041
 2158SOL     OW 8073   1.657   4.328   4.930
 2158SOL    HW1 8074   1.619   4.259   4.992
 2158SOL    HW2 8075   1.739   4.292   4.886
 2159SOL     OW 8076   0.252   5.288   5.468
 2159SOL    HW1 8077   0.222   5.345   5.544
 2159SOL    HW2 8078   0.245   5.191   5.494
 2160SOL     OW 8079   0.671   4.188   4.993
 2160SOL    HW1 8080   0.637   4.099   4.963
 2160SOL    HW2 8081   0.697   4.242   4.913
 2161SOL     OW 8082   0.930   5.402   5.189
 2161SOL    HW1 8083   0.906   5.384   5.094
 2161SOL    HW2 8084   0.960   5.496   5.199
 2162SOL     OW 8085   0.473   4.224   3.915
 2162SOL    HW1 8086   0.534   4.304   3.919
 2162SOL    HW2 8087   0.378   4.255   3.922
 2163SOL     OW 8088   0.159   4.861   5.190
 2163SOL    HW1 8089   0.181   4.800   5.266
 2163SOL    HW2 8090   0.169   4.812   5.104
 2164SOL     OW 8091   1.347   4.783   4.958
 2164SOL    HW1 8092   1.371   4.720   4.884
 2164SOL    HW2 8093   1.257   4.823   4.940
 2165SOL     OW 8094   1.302   4.579   4.033
 2165SOL    HW1 8095   1.216   4.548   4.075
 2165SOL    HW2 8096   1.298   4.565   3.934
 2166SOL     OW 8097   1.759   5.471   4.878
 2166SOL    HW1 8098   1.820   5.501   4.805
 2166SOL    HW2 8099   1.721   5.382   4.856
 2167SOL     OW 8100   1.252   5.455   4.852
 2167SOL    HW1 8101   1.336   5.460   4.798
 2167SOL    HW2 8102   1.229   5.359   4.870
 2168SOL     OW 8103   0.083   4.982   4.746
 2168SOL    HW1 8104   0.078   4.981   4.846
 2168SOL    HW2 8105   0.000   4.941   4.708
 2169SOL     OW 8106   0.688   5.386   5.440
 2169SOL    HW1 8107   0.632   5.467   5.449
 2169SOL    HW2 8108   0.740   5.390   5.354
 2170SOL     OW 8109   1.726   3.859   4.247
 2170SOL    HW1 8110   1.799   3.842   4.180
 2170SOL    HW2 8111   1.695   3.772   4.285
 2171SOL     OW 8112   1.388   5.297   4.201
 2171SOL    HW1 8113   1.455   5.309   4.127
 2171SOL    HW2 8114   1.348   5.386   4.224
 2172SOL     OW 8115   0.130   5.518   5.575
 2172SOL    HW1 8116   0.089   5.444   5.628
 2172SOL    HW2 8117   0.194   5.569   5.633
 2173SOL     OW 8118   1.280   4.651   4.396
 2173SOL    HW1 8119   1.340   4.570   4.398
 2173SOL    HW2 8120   1.320   4.720   4.336
 2174SOL     OW 8121   0.830   4.997   5.146
 2174SOL    HW1 8122   0.825   5.030   5.241
 2174SOL    HW2 8123   0.744   5.016   5.100
 2175SOL     OW 8124   0.672   5.340   3.878
 2175SOL    HW1 8125   0.681   5.350   3.779
 2175SOL    HW2 8126   0.632   5.251   3.899
 2176SOL     OW 8127   1.650   5.444   5.118
 2176SOL    HW1 8128   1.703   5.454   5.034
 2176SOL    HW2 8129   1.623   5.534   5.152
 2177SOL     OW 8130   1.841   3.899   4.687
 2177SOL    HW1 8131   1.880   3.814   4.651
 2177SOL    HW2 8132   1.743   3.901   4.668
 2178SOL     OW 8133   0.263   4.050   4.444
 2178SOL    HW1 8134   0.184   4.101   4.410
 2178SOL    HW2 8135   0.254   4.035   4.542
 2179SOL     OW 8136   1.194   5.336   3.755
 2179SOL    HW1 8137   1.200   5.243   3.792
 2179SOL    HW2 8138   1.135   5.336   3.675
 2180SOL     OW 8139   0.822   4.726   5.096
 2180SOL    HW1 8140   0.862   4.725   5.004
 2180SOL    HW2 8141   0.832   4.818   5.136
 2181SOL     OW 8142   0.916   4.634   4.015
 2181SOL    HW1 8143   0.979   4.672   3.947
 2181SOL    HW2 8144   0.956   4.551   4.054
 2182SOL     OW 8145   1.504   5.331   3.768
 2182SOL    HW1 8146   1.412   5.368   3.775
 2182SOL    HW2 8147   1.542   5.351   3.678
 2183SOL     OW 8148   0.372   5.012   5.214
 2183SOL    HW1 8149   0.359   5.105   5.180
 2183SOL    HW2 8150   0.288   4.960   5.201
 2184SOL     OW 8151   1.614   5.016   5.013
 2184SOL    HW1 8152   1.674   5.019   5.093
 2184SOL    HW2 8153   1.539   5.080   5.026
 2185SOL     OW 8154   1.039   4.822   4.420
 2185SOL    HW1 8155   0.969   4.775   4.474
 2185SOL    HW2 8156   1.098   4.754   4.377
 2186SOL     OW 8157   1.014   3.960   4.695
 2186SOL    HW1 8158   1.006   3.924   4.602
 2186SOL    HW2 8159   1.012   3.884   4.760
 2187SOL     OW 8160   0.590   5.211   4.215
 2187SOL    HW1 8161   0.632   5.153   4.145
 2187SOL    HW2 8162   0.546   5.290   4.171
 2188SOL     OW 8163   1.709   4.109   5.105
 2188SOL    HW1 8164   1.782   4.178   5.109
 2188SOL    HW2 8165   1.737   4.034   5.046
 2189SOL     OW 8166   0.255   5.072   4.014
 2189SOL    HW1 8167   0.159   5.073   3.987
 2189SOL    HW2 8168   0.267   5.125   4.098
 2190SOL     OW 8169   0.105   4.737   5.450
 2190SOL    HW1 8170   0.028   4.704   5.504
 2190SOL    HW2 8171   0.190   4.707   5.492
 2191SOL     OW 8172   0.672   3.927   5.213
 2191SOL    HW1 8173   0.762   3.911   5.173
 2191SOL    HW2 8174   0.680   3.932   5.312
 2192SOL     OW 8175   0.075   4.069   3.757
 2192SOL    HW1 8176  -0.017   4.041   3.728
 2192SOL    HW2 8177   0.106   4.146   3.701
 2193SOL     OW 8178   1.440   4.580   5.122
 2193SOL    HW1 8179   1.383   4.632   5.059
 2193SOL    HW2 8180   1.536   4.592   5.098
 2194SOL     OW 8181   0.072   3.890   4.042
 2194SOL    HW1 8182   0.055   3.973   3.988
 2194SOL    HW2 8183   0.162   3.853   4.020
 2195SOL     OW 8184   1.183   5.059   3.843
 2195SOL    HW1 8185   1.084   5.048   3.845
 2195SOL    HW2 8186   1.217   5.074   3.936
 2196SOL     OW 8187   0.613   4.566   5.155
 2196SOL    HW1 8188   0.669   4.647   5.138
 2196SOL    HW2 8189   0.672   4.486   5.158
 2197SOL     OW 8190   1.493   5.491   4.683
 2197SOL    HW1 8191   1.526   5.555   4.614
 2197SOL    HW2 8192   1.559   5.485   4.758
 2198SOL     OW 8193   0.716   4.289   5.432
 2198SOL    HW1 8194   0.735   4.354   5.506
 2198SOL    HW2 8195   0.776   4.209   5.441
 2199SOL     OW 8196   1.450   4.944   5.357
 2199SOL    HW1 8197   1.441   4.934   5.456
 2199SOL    HW2 8198   1.546   4.937   5.331
 2200SOL     OW 8199   0.390   5.465   5.284
 2200SOL    HW1 8200   0.299   5.506   5.282
 2200SOL    HW2 8201   0.383   5.371   5.316
 2201SOL     OW 8202   1.674   4.607   4.978
 2201SOL    HW1 8203   1.647   4.518   4.941
 2201SOL    HW2 8204   1.675   4.675   4.905
 2202SOL     OW 8205   1.225   4.049   4.173
 2202SOL    HW1 8206   1.290   3.975   4.162
 2202SOL    HW2 8207   1.245   4.099   4.257
 2203SOL     OW 8208   0.594   4.469   4.376
 2203SOL    HW1 8209   0.644   4.554   4.357
 2203SOL    HW2 8210   0.506   4.471   4.328
 2204SOL     OW 8211   1.777   4.066   5.366
 2204SOL    HW1 8212   1.760   4.097   5.272
 2204SOL    HW2 8213   1.693   4.029   5.404
 2205SOL     OW 8214   1.730   4.658   5.241
 2205SOL    HW1 8215   1.768   4.749   5.256
 2205SOL    HW2 8216   1.722   4.641   5.142
 2206SOL     OW 8217   0.859   5.098   3.740
 2206SOL    HW1 8218   0.813   5.113   3.828
 2206SOL    HW2 8219   0.903   5.183   3.710
 2207SOL     OW 8220   0.661   5.514   4.677
 2207SOL    HW1 8221   0.615   5.602   4.664
 2207SOL    HW2 8222   0.760   5.526   4.670
 2208SOL     OW 8223   0.859   4.680   4.585
 2208SOL    HW1 8224   0.913   4.611   4.633
 2208SOL    HW2 8225   0.827   4.749   4.651
 2209SOL     OW 8226   1.083   4.708   3.811
 2209SOL    HW1 8227   1.060   4.761   3.729
 2209SOL    HW2 8228   1.164   4.652   3.792
 2210SOL     OW 8229   1.861   5.293   4.575
 2210SOL    HW1 8230   1.790   5.281   4.505
 2210SOL    HW2 8231   1.862   5.214   4.635
 2211SOL     OW 8232   0.221   5.038   5.568
 2211SOL    HW1 8233   0.156   4.965   5.547
 2211SOL    HW2 8234   0.225   5.052   5.666
 2212SOL     OW 8235   0.079   4.964   4.377
 2212SOL    HW1 8236   0.078   4.917   4.465
 2212SOL    HW2 8237   0.161   4.936   4.326
 2213SOL     OW 8238   0.672   5.115   5.348
 2213SOL    HW1 8239   0.594   5.065   5.386
 2213SOL    HW2 8240   0.669   5.210   5.379
 2214SOL     OW 8241   1.824   3.916   4.951
 2214SOL    HW1 8242   1.820   3.826   4.995
 2214SOL    HW2 8243   1.827   3.905   4.852
 2215SOL     OW 8244   0.428   4.148   4.244
 2215SOL    HW1 8245   0.458   4.076   4.182
 2215SOL    HW2 8246   0.389   4.108   4.327
 2216SOL     OW 8247   1.705   5.211   4.828
 2216SOL    HW1 8248   1.612   5.186   4.801
 2216SOL    HW2 8249   1.731   5.161   4.910
 2217SOL     OW 8250   0.317   4.271   5.004
 2217SOL    HW1 8251   0.355   4.212   5.076
 2217SOL    HW2 8252   0.357   4.245   4.916
 2218SOL     OW 8253   0.812   5.310   4.411
 2218SOL    HW1 8254   0.844   5.320   4.317
 2218SOL    HW2 8255   0.733   5.248   4.413
 2219SOL     OW 8256   1.424   3.938   4.836
 2219SOL    HW1 8257   1.476   3.873   4.891
 2219SOL    HW2 8258   1.375   4.001   4.897
 2220SOL     OW 8259   1.001   3.758   4.878
 2220SOL    HW1 8260   0.938   3.686   4.847
 2220SOL    HW2 8261   1.094   3.722   4.878
 2221SOL     OW 8262   0.770   5.054   4.025
 2221SOL    HW1 8263   0.724   4.967   4.042
 2221SOL    HW2 8264   0.861   5.051   4.066
 2222SOL     OW 8265   0.618   5.291   5.008
 2222SOL    HW1 8266   0.613   5.373   5.065
 2222SOL    HW2 8267   0.707   5.288   4.963
 2223SOL     OW 8268   1.352   3.776   3.892
 2223SOL    HW1 8269   1.387   3.735   3.808
 2223SOL    HW2 8270   1.262   3.738   3.912
 2224SOL     OW 8271   1.300   4.177   4.415
 2224SOL    HW1 8272   1.241   4.257   4.419
 2224SOL    HW2 8273   1.315   4.142   4.508
 2225SOL     OW 8274   1.593   3.945   4.606
 2225SOL    HW1 8275   1.509   3.944   4.660
 2225SOL    HW2 8276   1.595   4.028   4.550
 2226SOL     OW 8277   0.039   4.801   4.024
 2226SOL    HW1 8278   0.138   4.790   4.015
 2226SOL    HW2 8279  -0.001   4.715   4.056
 2227SOL     OW 8280   0.875   5.370   4.061
 2227SOL    HW1 8281   0.798   5.335   4.007
 2227SOL    HW2 8282   0.843   5.441   4.123
 2228SOL     OW 8283   0.230   4.352   5.699
 2228SOL    HW1 8284   0.137   4.350   5.736
 2228SOL    HW2 8285   0.231   4.313   5.607
 2229SOL     OW 8286   0.225   3.999   6.582
 2229SOL    HW1 8287   0.260   3.982   6.674
 2229SOL    HW2 8288   0.137   3.954   6.570
 2230SOL     OW 8289   0.019   4.092   6.233
 2230SOL    HW1 8290  -0.063   4.135   6.272
 2230SOL    HW2 8291  -0.009   4.019   6.170
 2231SOL     OW 8292   0.569   4.999   6.751
 2231SOL    HW1 8293   0.476   4.992   6.714
 2231SOL    HW2 8294   0.580   5.088   6.795
 2232SOL     OW 8295   1.555   5.235   6.289
 2232SOL    HW1 8296   1.498   5.219   6.370
 2232SOL    HW2 8297   1.496   5.245   6.209
 2233SOL     OW 8298   1.135   4.427   6.303
 2233SOL    HW1 8299   1.192   4.505   6.278
 2233SOL    HW2 8300   1.075   4.453   6.379
 2234SOL     OW 8301   1.755   4.331   5.817
 2234SOL    HW1 8302   1.743   4.318   5.718
 2234SOL    HW2 8303   1.725   4.250   5.866
 2235SOL     OW 8304   0.768   4.868   6.609
 2235SOL    HW1 8305   0.690   4.885   6.669
 2235SOL    HW2 8306   0.802   4.955   6.573
 2236SOL     OW 8307   0.685   4.736   6.251
 2236SOL    HW1 8308   0.754   4.720   6.321
 2236SOL    HW2 8309   0.612   4.793   6.289
 2237SOL     OW 8310   0.335   5.159   6.647
 2237SOL    HW1 8311   0.257   5.128   6.594
 2237SOL    HW2 8312   0.393   5.217   6.590
 2238SOL     OW 8313   1.603   4.171   6.323
 2238SOL    HW1 8314   1.529   4.217   6.273
 2238SOL    HW2 8315   1.654   4.239   6.376
 2239SOL     OW 8316   0.231   5.437   6.069
 2239SOL    HW1 8317   0.265   5.514   6.123
 2239SOL    HW2 8318   0.275   5.437   5.979
 2240SOL     OW 8319   0.230   5.158   6.124
 2240SOL    HW1 8320   0.204   5.254   6.124
 2240SOL    HW2 8321   0.159   5.104   6.169
 2241SOL     OW 8322   0.240   4.815   6.472
 2241SOL    HW1 8323   0.254   4.731   6.524
 2241SOL    HW2 8324   0.185   4.879   6.527
 2242SOL     OW 8325   0.620   5.510   7.025
 2242SOL    HW1 8326   0.528   5.493   7.060
 2242SOL    HW2 8327   0.648   5.602   7.051
 2243SOL     OW 8328   0.606   4.688   5.709
 2243SOL    HW1 8329   0.613   4.772   5.655
 2243SOL    HW2 8330   0.652   4.701   5.797
 2244SOL     OW 8331   0.122   4.367   6.149
 2244SOL    HW1 8332   0.077   4.279   6.166
 2244SOL    HW2 8333   0.121   4.421   6.233
 2245SOL     OW 8334   0.027   5.320   5.703
 2245SOL    HW1 8335   0.008   5.224   5.724
 2245SOL    HW2 8336  -0.006   5.378   5.778
 2246SOL     OW 8337   1.689   4.646   6.198
 2246SOL    HW1 8338   1.784   4.617   6.206
 2246SOL    HW2 8339   1.681   4.711   6.123
 2247SOL     OW 8340   1.641   4.832   6.018
 2247SOL    HW1 8341   1.727   4.834   5.966
 2247SOL    HW2 8342   1.655   4.879   6.106
 2248SOL     OW 8343   0.613   5.089   6.312
 2248SOL    HW1 8344   0.564   5.002   6.321
 2248SOL    HW2 8345   0.590   5.132   6.225
 2249SOL     OW 8346   0.809   3.728   6.088
 2249SOL    HW1 8347   0.849   3.819   6.079
 2249SOL    HW2 8348   0.709   3.736   6.094
 2250SOL     OW 8349   0.197   4.700   6.850
 2250SOL    HW1 8350   0.286   4.655   6.836
 2250SOL    HW2 8351   0.124   4.635   6.831
 2251SOL     OW 8352   1.525   4.723   5.776
 2251SOL    HW1 8353   1.462   4.647   5.789
 2251SOL    HW2 8354   1.573   4.741   5.862
 2252SOL     OW 8355   1.466   5.141   6.539
 2252SOL    HW1 8356   1.407   5.147   6.619
 2252SOL    HW2 8357   1.451   5.053   6.493
 2253SOL     OW 8358   1.667   5.438   6.158
 2253SOL    HW1 8359   1.626   5.415   6.070
 2253SOL    HW2 8360   1.649   5.364   6.223
 2254SOL     OW 8361   0.598   4.453   5.856
 2254SOL    HW1 8362   0.622   4.522   5.788
 2254SOL    HW2 8363   0.520   4.486   5.910
 2255SOL     OW 8364   1.281   4.069   6.530
 2255SOL    HW1 8365   1.195   4.019   6.517
 2255SOL    HW2 8366   1.343   4.015   6.586
 2256SOL     OW 8367   1.576   5.386   5.893
 2256SOL    HW1 8368   1.665   5.432   5.896
 2256SOL    HW2 8369   1.555   5.362   5.798
 2257SOL     OW 8370   0.807   4.329   7.051
 2257SOL    HW1 8371   0.760   4.326   7.140
 2257SOL    HW2 8372   0.756   4.274   6.985
 2258SOL     OW 8373   0.991   4.134   6.828
 2258SOL    HW1 8374   0.914   4.168   6.882
 2258SOL    HW2 8375   0.957   4.083   6.749
 2259SOL     OW 8376   1.041   4.425   6.015
 2259SOL    HW1 8377   1.067   4.421   6.111
 2259SOL    HW2 8378   0.956   4.374   6.001
 2260SOL     OW 8379   0.076   4.535   6.375
 2260SOL    HW1 8380   0.175   4.523   6.384
 2260SOL    HW2 8381   0.052   4.630   6.396
 2261SOL     OW 8382   0.130   5.545   7.157
 2261SOL    HW1 8383   0.120   5.530   7.256
 2261SOL    HW2 8384   0.044   5.581   7.121
 2262SOL     OW 8385   0.865   4.072   5.781
 2262SOL    HW1 8386   0.924   4.135   5.732
 2262SOL    HW2 8387   0.884   3.978   5.752
 2263SOL     OW 8388   1.362   4.868   6.131
 2263SOL    HW1 8389   1.445   4.839   6.083
 2263SOL    HW2 8390   1.313   4.935   6.075
 2264SOL     OW 8391   0.550   3.920   6.471
 2264SOL    HW1 8392   0.545   3.915   6.571
 2264SOL    HW2 8393   0.552   4.016   6.442
 2265SOL     OW 8394   1.008   5.180   6.063
 2265SOL    HW1 8395   0.962   5.252   6.011
 2265SOL    HW2 8396   1.004   5.200   6.161
 2266SOL     OW 8397   0.351   5.525   6.439
 2266SOL    HW1 8398   0.401   5.439   6.445
 2266SOL    HW2 8399   0.416   5.602   6.436
 2267SOL     OW 8400   1.795   4.790   6.459
 2267SOL    HW1 8401   1.733   4.775   6.383
 2267SOL    HW2 8402   1.743   4.801   6.544
 2268SOL     OW 8403   0.321   4.667   5.828
 2268SOL    HW1 8404   0.403   4.706   5.786
 2268SOL    HW2 8405   0.294   4.585   5.779
 2269SOL     OW 8406   1.458   4.459   6.314
 2269SOL    HW1 8407   1.453   4.394   6.389
 2269SOL    HW2 8408   1.538   4.518   6.327
 2270SOL     OW 8409   1.111   5.500   5.823
 2270SOL    HW1 8410   1.051   5.438   5.873
 2270SOL    HW2 8411   1.142   5.456   5.738
 2271SOL     OW 8412   1.632   5.101   5.667
 2271SOL    HW1 8413   1.600   5.195   5.657
 2271SOL    HW2 8414   1.556   5.038   5.655
 2272SOL     OW 8415   0.464   5.467   5.909
 2272SOL    HW1 8416   0.497   5.506   5.995
 2272SOL    HW2 8417   0.540   5.460   5.844
 2273SOL     OW 8418   1.400   3.831   6.012
 2273SOL    HW1 8419   1.376   3.794   5.922
 2273SOL    HW2 8420   1.499   3.847   6.016
 2274SOL     OW 8421   0.940   5.422   6.490
 2274SOL    HW1 8422   1.020   5.365   6.511
 2274SOL    HW2 8423   0.891   5.382   6.413
 2275SOL     OW 8424   0.382   4.424   6.066
 2275SOL    HW1 8425   0.427   4.334   6.063
 2275SOL    HW2 8426   0.288   4.413   6.099
 2276SOL     OW 8427   0.888   5.238   6.781
 2276SOL    HW1 8428   0.865   5.213   6.687
 2276SOL    HW2 8429   0.949   5.169   6.820
 2277SOL     OW 8430   0.803   5.126   6.510
 2277SOL    HW1 8431   0.893   5.140   6.468
 2277SOL    HW2 8432   0.732   5.128   6.439
 2278SOL     OW 8433   0.922   4.227   6.485
 2278SOL    HW1 8434   0.897   4.218   6.389
 2278SOL    HW2 8435   0.970   4.145   6.516
 2279SOL     OW 8436   0.539   3.788   6.098
 2279SOL    HW1 8437   0.458   3.789   6.156
 2279SOL    HW2 8438   0.542   3.871   6.043
 2280SOL     OW 8439   1.434   4.912   5.627
 2280SOL    HW1 8440   1.466   4.836   5.684
 2280SOL    HW2 8441   1.342   4.939   5.657
 2281SOL     OW 8442   0.935   3.960   6.066
 2281SOL    HW1 8443   0.887   4.001   5.988
 2281SOL    HW2 8444   1.034   3.958   6.047
 2282SOL     OW 8445   1.227   5.294   6.379
 2282SOL    HW1 8446   1.248   5.368   6.314
 2282SOL    HW2 8447   1.295   5.294   6.452
 2283SOL     OW 8448   0.459   4.876   6.327
 2283SOL    HW1 8449   0.388   4.849   6.392
 2283SOL    HW2 8450   0.433   4.848   6.234
 2284SOL     OW 8451   1.271   5.521   6.177
 2284SOL    HW1 8452   1.315   5.585   6.113
 2284SOL    HW2 8453   1.221   5.573   6.247
 2285SOL     OW 8454   1.032   4.273   5.602
 2285SOL    HW1 8455   0.991   4.355   5.563
 2285SOL    HW2 8456   1.096   4.299   5.675
 2286SOL     OW 8457   0.561   3.946   6.733
 2286SOL    HW1 8458   0.599   3.862   6.770
 2286SOL    HW2 8459   0.473   3.965   6.777
 2287SOL     OW 8460   0.866   4.178   6.228
 2287SOL    HW1 8461   0.834   4.250   6.166
 2287SOL    HW2 8462   0.890   4.097   6.175
 2288SOL     OW 8463   1.017   3.763   6.339
 2288SOL    HW1 8464   0.945   3.768   6.270
 2288SOL    HW2 8465   0.993   3.694   6.408
 2289SOL     OW 8466   1.429   4.897   6.453
 2289SOL    HW1 8467   1.374   4.813   6.446
 2289SOL    HW2 8468   1.455   4.926   6.361
 2290SOL     OW 8469   1.466   4.314   6.578
 2290SOL    HW1 8470   1.436   4.219   6.585
 2290SOL    HW2 8471   1.539   4.330   6.644
 2291SOL     OW 8472   1.857   4.557   5.963
 2291SOL    HW1 8473   1.899   4.493   6.027
 2291SOL    HW2 8474   1.819   4.506   5.885
 2292SOL     OW 8475   0.488   5.109   5.760
 2292SOL    HW1 8476   0.401   5.094   5.807
 2292SOL    HW2 8477   0.471   5.135   5.665
 2293SOL     OW 8478   1.664   5.004   6.243
 2293SOL    HW1 8479   1.763   5.012   6.257
 2293SOL    HW2 8480   1.619   5.088   6.274
 2294SOL     OW 8481   1.390   4.299   5.664
 2294SOL    HW1 8482   1.336   4.278   5.745
 2294SOL    HW2 8483   1.481   4.258   5.673
 2295SOL     OW 8484   1.754   4.947   7.174
 2295SOL    HW1 8485   1.845   4.908   7.161
 2295SOL    HW2 8486   1.762   5.043   7.198
 2296SOL     OW 8487   1.111   4.919   6.686
 2296SOL    HW1 8488   1.071   4.963   6.767
 2296SOL    HW2 8489   1.070   4.956   6.603
 2297SOL     OW 8490   1.638   4.823   6.665
 2297SOL    HW1 8491   1.643   4.904   6.724
 2297SOL    HW2 8492   1.552   4.825   6.614
 2298SOL     OW 8493   0.705   4.774   5.954
 2298SOL    HW1 8494   0.691   4.781   6.053
 2298SOL    HW2 8495   0.789   4.723   5.936
 2299SOL     OW 8496   0.410   4.537   6.837
 2299SOL    HW1 8497   0.496   4.549   6.887
 2299SOL    HW2 8498   0.368   4.450   6.864
 2300SOL     OW 8499   1.274   4.110   6.848
 2300SOL    HW1 8500   1.295   4.184   6.912
 2300SOL    HW2 8501   1.185   4.127   6.805
 2301SOL     OW 8502   0.367   4.824   6.087
 2301SOL    HW1 8503   0.360   4.907   6.031
 2301SOL    HW2 8504   0.371   4.744   6.027
 2302SOL     OW 8505   0.566   4.261   6.451
 2302SOL    HW1 8506   0.578   4.327   6.377
 2302SOL    HW2 8507   0.612   4.295   6.534
 2303SOL     OW 8508   1.252   5.072   5.974
 2303SOL    HW1 8509   1.302   5.149   6.014
 2303SOL    HW2 8510   1.157   5.074   6.006
 2304SOL     OW 8511   1.272   5.169   6.728
 2304SOL    HW1 8512   1.319   5.182   6.815
 2304SOL    HW2 8513   1.206   5.095   6.737
 2305SOL     OW 8514   1.582   4.363   6.058
 2305SOL    HW1 8515   1.551   4.424   6.131
 2305SOL    HW2 8516   1.632   4.415   5.989
 2306SOL     OW 8517   0.354   5.234   6.915
 2306SOL    HW1 8518   0.333   5.190   6.828
 2306SOL    HW2 8519   0.451   5.260   6.918
 2307SOL     OW 8520   0.573   4.594   6.615
 2307SOL    HW1 8521   0.617   4.683   6.606
 2307SOL    HW2 8522   0.510   4.594   6.692
 2308SOL     OW 8523   1.360   4.586   6.631
 2308SOL    HW1 8524   1.285   4.586   6.565
 2308SOL    HW2 8525   1.397   4.494   6.640
 2309SOL     OW 8526   1.209   4.249   5.861
 2309SOL    HW1 8527   1.222   4.165   5.915
 2309SOL    HW2 8528   1.180   4.323   5.921
 2310SOL     OW 8529   0.307   3.937   6.817
 2310SOL    HW1 8530   0.284   3.974   6.907
 2310SOL    HW2 8531   0.277   3.842   6.811
 2311SOL     OW 8532   0.037   5.034   6.868
 2311SOL    HW1 8533   0.090   4.985   6.936
 2311SOL    HW2 8534   0.059   5.132   6.873
 2312SOL     OW 8535   0.732   4.358   6.650
 2312SOL    HW1 8536   0.791   4.332   6.574
 2312SOL    HW2 8537   0.704   4.454   6.639
 2313SOL     OW 8538   0.307   3.787   6.204
 2313SOL    HW1 8539   0.296   3.881   6.237
 2313SOL    HW2 8540   0.302   3.724   6.281
 2314SOL     OW 8541   1.622   4.091   5.960
 2314SOL    HW1 8542   1.624   4.015   6.024
 2314SOL    HW2 8543   1.574   4.168   6.000
 2315SOL     OW 8544   1.023   4.490   6.552
 2315SOL    HW1 8545   1.038   4.511   6.648
 2315SOL    HW2 8546   0.993   4.395   6.543
 2316SOL     OW 8547   1.859   5.242   7.191
 2316SOL    HW1 8548   1.873   5.269   7.096
 2316SOL    HW2 8549   1.942   5.264   7.244
 2317SOL     OW 8550   1.540   3.998   5.711
 2317SOL    HW1 8551   1.479   3.923   5.734
 2317SOL    HW2 8552   1.562   4.050   5.794
 2318SOL     OW 8553   1.303   4.562   5.628
 2318SOL    HW1 8554   1.337   4.469   5.643
 2318SOL    HW2 8555   1.321   4.589   5.533
 2319SOL     OW 8556   1.068   5.057   6.435
 2319SOL    HW1 8557   1.075   4.973   6.380
 2319SOL    HW2 8558   1.130   5.126   6.399
 2320SOL     OW 8559   0.319   4.534   6.535
 2320SOL    HW1 8560   0.412   4.570   6.540
 2320SOL    HW2 8561   0.313   4.449   6.587
 2321SOL     OW 8562   0.339   4.233   6.592
 2321SOL    HW1 8563   0.287   4.150   6.575
 2321SOL    HW2 8564   0.416   4.238   6.528
 2322SOL     OW 8565   1.160   3.931   7.063
 2322SOL    HW1 8566   1.160   3.995   7.140
 2322SOL    HW2 8567   1.188   3.979   6.980
 2323SOL     OW 8568   0.008   5.050   5.786
 2323SOL    HW1 8569  -0.085   5.071   5.755
 2323SOL    HW2 8570   0.018   4.951   5.799
 2324SOL     OW 8571   0.504   5.292   6.496
 2324SOL    HW1 8572   0.570   5.366   6.505
 2324SOL    HW2 8573   0.548   5.213   6.454
 2325SOL     OW 8574   1.002   4.520   6.824
 2325SOL    HW1 8575   1.043   4.488   6.910
 2325SOL    HW2 8576   0.906   4.493   6.821
 2326SOL     OW 8577   0.040   4.268   6.700
 2326SOL    HW1 8578   0.125   4.235   6.659
 2326SOL    HW2 8579   0.053   4.283   6.798
 2327SOL     OW 8580   0.815   4.296   5.911
 2327SOL    HW1 8581   0.822   4.207   5.865
 2327SOL    HW2 8582   0.721   4.330   5.903
 2328SOL     OW 8583   1.657   4.328   6.792
 2328SOL    HW1 8584   1.619   4.259   6.854
 2328SOL    HW2 8585   1.739   4.292   6.748
 2329SOL     OW 8586   0.671   4.188   6.855
 2329SOL    HW1 8587   0.637   4.099   6.825
 2329SOL    HW2 8588   0.697   4.242   6.775
 2330SOL     OW 8589   0.930   5.402   7.051
 2330SOL    HW1 8590   0.906   5.384   6.956
 2330SOL    HW2 8591   0.960   5.496   7.061
 2331SOL     OW 8592   0.159   4.861   7.052
 2331SOL    HW1 8593   0.181   4.800   7.128
 2331SOL    HW2 8594   0.169   4.812   6.966
 2332SOL     OW 8595   1.347   4.783   6.820
 2332SOL    HW1 8596   1.371   4.720   6.746
 2332SOL    HW2 8597   1.257   4.823   6.802
 2333SOL     OW 8598   1.302   4.579   5.895
 2333SOL    HW1 8599   1.216   4.548   5.937
 2333SOL    HW2 8600   1.298   4.565   5.796
 2334SOL     OW 8601   1.759   5.471   6.740
 2334SOL    HW1 8602   1.820   5.501   6.667
 2334SOL    HW2 8603   1.721   5.382   6.718
 2335SOL     OW 8604   1.252   5.455   6.714
 2335SOL    HW1 8605   1.336   5.460   6.660
 2335SOL    HW2 8606   1.229   5.359   6.732
 2336SOL     OW 8607   0.083   4.982   6.608
 2336SOL    HW1 8608   0.078   4.981   6.708
 2336SOL    HW2 8609   0.000   4.941   6.570
 2337SOL     OW 8610   1.726   3.859   6.109
 2337SOL    HW1 8611   1.799   3.842   6.042
 2337SOL    HW2 8612   1.695   3.772   6.147
 2338SOL     OW 8613   1.388   5.297   6.063
 2338SOL    HW1 8614   1.455   5.309   5.989
 2338SOL    HW2 8615   1.348   5.386   6.086
 2339SOL     OW 8616   1.280   4.651   6.258
 2339SOL    HW1 8617   1.340   4.570   6.260
 2339SOL    HW2 8618   1.320   4.720   6.198
 2340SOL     OW 8619   0.672   5.340   5.740
 2340SOL    HW1 8620   0.681   5.350   5.641
 2340SOL    HW2 8621   0.632   5.251   5.761
 2341SOL     OW 8622   1.841   3.899   6.549
 2341SOL    HW1 8623   1.880   3.814   6.513
 2341SOL    HW2 8624   1.743   3.901   6.530
 2342SOL     OW 8625   0.263   4.050   6.306
 2342SOL    HW1 8626   0.184   4.101   6.272
 2342SOL    HW2 8627   0.254   4.035   6.404
 2343SOL     OW 8628   1.194   5.336   5.617
 2343SOL    HW1 8629   1.200   5.243   5.654
 2343SOL    HW2 8630   1.135   5.336   5.537
 2344SOL     OW 8631   0.822   4.726   6.958
 2344SOL    HW1 8632   0.862   4.725   6.866
 2344SOL    HW2 8633   0.832   4.818   6.998
 2345SOL     OW 8634   0.916   4.634   5.877
 2345SOL    HW1 8635   0.979   4.672   5.809
 2345SOL    HW2 8636   0.956   4.551   5.916
 2346SOL     OW 8637   1.504   5.331   5.630
 2346SOL    HW1 8638   1.412   5.368   5.637
 2346SOL    HW2 8639   1.542   5.351   5.540
 2347SOL     OW 8640   1.614   5.016   6.875
 2347SOL    HW1 8641   1.674   5.019   6.955
 2347SOL    HW2 8642   1.539   5.080   6.888
 2348SOL     OW 8643   1.039   4.822   6.282
 2348SOL    HW1 8644   0.969   4.775   6.336
 2348SOL    HW2 8645   1.098   4.754   6.239
 2349SOL     OW 8646   1.014   3.960   6.557
 2349SOL    HW1 8647   1.006   3.924   6.464
 2349SOL    HW2 8648   1.012   3.884   6.622
 2350SOL     OW 8649   0.590   5.211   6.077
 2350SOL    HW1 8650   0.632   5.153   6.007
 2350SOL    HW2 8651   0.546   5.290   6.033
 2351SOL     OW 8652   1.709   4.109   6.967
 2351SOL    HW1 8653   1.782   4.178   6.971
 2351SOL    HW2 8654   1.737   4.034   6.908
 2352SOL     OW 8655   0.255   5.072   5.876
 2352SOL    HW1 8656   0.159   5.073   5.849
 2352SOL    HW2 8657   0.267   5.125   5.960
 2353SOL     OW 8658   0.672   3.927   7.075
 2353SOL    HW1 8659   0.762   3.911   7.035
 2353SOL    HW2 8660   0.680   3.932   7.174
 2354SOL     OW 8661   1.183   5.059   5.705
 2354SOL    HW1 8662   1.084   5.048   5.707
 2354SOL    HW2 8663   1.217   5.074   5.798
 2355SOL     OW 8664   1.493   5.491   6.545
 2355SOL    HW1 8665   1.526   5.555   6.476
 2355SOL    HW2 8666   1.559   5.485   6.620
 2356SOL     OW 8667   1.450   4.944   7.219
 2356SOL    HW1 8668   1.441   4.934   7.318
 2356SOL    HW2 8669   1.546   4.937   7.193
 2357SOL     OW 8670   1.674   4.607   6.840
 2357SOL    HW1 8671   1.647   4.518   6.803
 2357SOL    HW2 8672   1.675   4.675   6.767
 2358SOL     OW 8673   1.225   4.049   6.035
 2358SOL    HW1 8674   1.290   3.975   6.024
 2358SOL    HW2 8675   1.245   4.099   6.119
 2359SOL     OW 8676   0.594   4.469   6.238
 2359SOL    HW1 8677   0.644   4.554   6.219
 2359SOL    HW2 8678   0.506   4.471   6.190
 2360SOL     OW 8679   1.730   4.658   7.103
 2360SOL    HW1 8680   1.768   4.749   7.118
 2360SOL    HW2 8681   1.722   4.641   7.004
 2361SOL     OW 8682   0.859   5.098   5.602
 2361SOL    HW1 8683   0.813   5.113   5.690
 2361SOL    HW2 8684   0.903   5.183   5.572
 2362SOL     OW 8685   0.661   5.514   6.539
 2362SOL    HW1 8686   0.615   5.602   6.526
 2362SOL    HW2 8687   0.760   5.526   6.532
 2363SOL     OW 8688   0.859   4.680   6.447
 2363SOL    HW1 8689   0.913   4.611   6.495
 2363SOL    HW2 8690   0.827   4.749   6.513
 2364SOL     OW 8691   1.083   4.708   5.673
 2364SOL    HW1 8692   1.060   4.761   5.591
 2364SOL    HW2 8693   1.164   4.652   5.654
 2365SOL     OW 8694   0.079   4.964   6.239
 2365SOL    HW1 8695   0.078   4.917   6.327
 2365SOL    HW2 8696   0.161   4.936   6.188
 2366SOL     OW 8697   1.824   3.916   6.813
 2366SOL    HW1 8698   1.820   3.826   6.857
 2366SOL    HW2 8699   1.827   3.905   6.714
 2367SOL     OW 8700   0.428   4.148   6.106
 2367SOL    HW1 8701   0.458   4.076   6.044
 2367SOL    HW2 8702   0.389   4.108   6.189
 2368SOL     OW 8703   1.705   5.211   6.690
 2368SOL    HW1 8704   1.612   5.186   6.663
 2368SOL    HW2 8705   1.731   5.161   6.772
 2369SOL     OW 8706   0.317   4.271   6.866
 2369SOL    HW1 8707   0.355   4.212   6.938
 2369SOL    HW2 8708   0.357   4.245   6.778
 2370SOL     OW 8709   0.812   5.310   6.273
 2370SOL    HW1 8710   0.844   5.320   6.179
 2370SOL    HW2 8711   0.733   5.248   6.275
 2371SOL     OW 8712   1.424   3.938   6.698
 2371SOL    HW1 8713   1.476   3.873   6.753
 2371SOL    HW2 8714   1.375   4.001   6.759
 2372SOL     OW 8715   1.001   3.758   6.740
 2372SOL    HW1 8716   0.938   3.686   6.709
 2372SOL    HW2 8717   1.094   3.722   6.740
 2373SOL     OW 8718   0.770   5.054   5.887
 2373SOL    HW1 8719   0.724   4.967   5.904
 2373SOL    HW2 8720   0.861   5.051   5.928
 2374SOL     OW 8721   0.618   5.291   6.870
 2374SOL    HW1 8722   0.613   5.373   6.927
 2374SOL    HW2 8723   0.707   5.288   6.825
 2375SOL     OW 8724   1.352   3.776   5.754
 2375SOL    HW1 8725   1.387   3.735   5.670
 2375SOL    HW2 8726   1.262   3.738   5.774
 2376SOL     OW 8727   1.300   4.177   6.277
 2376SOL    HW1 8728   1.241   4.257   6.281
 2376SOL    HW2 8729   1.315   4.142   6.370
 2377SOL     OW 8730   1.593   3.945   6.468
 2377SOL    HW1 8731   1.509   3.944   6.522
 2377SOL    HW2 8732   1.595   4.028   6.412
 2378SOL     OW 8733   0.039   4.801   5.886
 2378SOL    HW1 8734   0.138   4.790   5.877
 2378SOL    HW2 8735  -0.001   4.715   5.918
 2379SOL     OW 8736   0.875   5.370   5.923
 2379SOL    HW1 8737   0.798   5.335   5.869
 2379SOL    HW2 8738   0.843   5.441   5.985
 2380SOL     OW 8739   0.225   5.861   0.996
 2380SOL    HW1 8740   0.260   5.844   1.088
 2380SOL    HW2 8741   0.137   5.816   0.984
 2381SOL     OW 8742   0.019   5.954   0.647
 2381SOL    HW1 8743  -0.063   5.997   0.686
 2381SOL    HW2 8744  -0.009   5.881   0.584
 2382SOL     OW 8745   0.569   6.861   1.165
 2382SOL    HW1 8746   0.476   6.854   1.128
 2382SOL    HW2 8747   0.580   6.950   1.209
 2383SOL     OW 8748   1.555   7.097   0.703
 2383SOL    HW1 8749   1.498   7.081   0.784
 2383SOL    HW2 8750   1.496   7.107   0.623
 2384SOL     OW 8751   1.135   6.289   0.717
 2384SOL    HW1 8752   1.192   6.367   0.692
 2384SOL    HW2 8753   1.075   6.315   0.793
 2385SOL     OW 8754   1.755   6.193   0.231
 2385SOL    HW1 8755   1.743   6.180   0.132
 2385SOL    HW2 8756   1.725   6.112   0.280
 2386SOL     OW 8757   0.768   6.730   1.023
 2386SOL    HW1 8758   0.690   6.747   1.083
 2386SOL    HW2 8759   0.802   6.817   0.987
 2387SOL     OW 8760   0.850   6.384   1.823
 2387SOL    HW1 8761   0.846   6.460   1.888
 2387SOL    HW2 8762   0.872   6.420   1.732
 2388SOL     OW 8763   0.685   6.598   0.665
 2388SOL    HW1 8764   0.754   6.582   0.735
 2388SOL    HW2 8765   0.612   6.655   0.703
 2389SOL     OW 8766   0.686   6.747   1.803
 2389SOL    HW1 8767   0.746   6.826   1.817
 2389SOL    HW2 8768   0.600   6.778   1.762
 2390SOL     OW 8769   0.335   7.021   1.061
 2390SOL    HW1 8770   0.257   6.990   1.008
 2390SOL    HW2 8771   0.393   7.079   1.004
 2391SOL     OW 8772   0.438   5.978   1.499
 2391SOL    HW1 8773   0.520   5.922   1.508
 2391SOL    HW2 8774   0.357   5.920   1.503
 2392SOL     OW 8775   1.603   6.033   0.737
 2392SOL    HW1 8776   1.529   6.079   0.687
 2392SOL    HW2 8777   1.654   6.101   0.790
 2393SOL     OW 8778   0.240   6.677   0.886
 2393SOL    HW1 8779   0.254   6.593   0.938
 2393SOL    HW2 8780   0.185   6.741   0.941
 2394SOL     OW 8781   0.606   6.550   0.123
 2394SOL    HW1 8782   0.613   6.634   0.069
 2394SOL    HW2 8783   0.652   6.563   0.211
 2395SOL     OW 8784   1.594   5.700   1.480
 2395SOL    HW1 8785   1.576   5.767   1.408
 2395SOL    HW2 8786   1.591   5.746   1.569
 2396SOL     OW 8787   0.122   6.229   0.563
 2396SOL    HW1 8788   0.077   6.141   0.580
 2396SOL    HW2 8789   0.121   6.283   0.647
 2397SOL     OW 8790   1.689   6.508   0.612
 2397SOL    HW1 8791   1.784   6.479   0.620
 2397SOL    HW2 8792   1.681   6.573   0.537
 2398SOL     OW 8793   1.641   6.694   0.432
 2398SOL    HW1 8794   1.727   6.696   0.380
 2398SOL    HW2 8795   1.655   6.741   0.520
 2399SOL     OW 8796   0.113   6.323   1.597
 2399SOL    HW1 8797   0.201   6.310   1.642
 2399SOL    HW2 8798   0.100   6.420   1.575
 2400SOL     OW 8799   1.293   6.814   1.423
 2400SOL    HW1 8800   1.330   6.741   1.365
 2400SOL    HW2 8801   1.345   6.819   1.508
 2401SOL     OW 8802   0.809   5.590   0.502
 2401SOL    HW1 8803   0.849   5.681   0.493
 2401SOL    HW2 8804   0.709   5.598   0.508
 2402SOL     OW 8805   0.197   6.562   1.264
 2402SOL    HW1 8806   0.286   6.517   1.250
 2402SOL    HW2 8807   0.124   6.497   1.245
 2403SOL     OW 8808   1.525   6.585   0.190
 2403SOL    HW1 8809   1.462   6.509   0.203
 2403SOL    HW2 8810   1.573   6.603   0.276
 2404SOL     OW 8811   0.317   5.837   1.801
 2404SOL    HW1 8812   0.388   5.908   1.807
 2404SOL    HW2 8813   0.229   5.876   1.829
 2405SOL     OW 8814   1.466   7.003   0.953
 2405SOL    HW1 8815   1.407   7.009   1.033
 2405SOL    HW2 8816   1.451   6.915   0.907
 2406SOL     OW 8817   0.598   6.315   0.270
 2406SOL    HW1 8818   0.622   6.384   0.202
 2406SOL    HW2 8819   0.520   6.348   0.324
 2407SOL     OW 8820   1.281   5.931   0.944
 2407SOL    HW1 8821   1.195   5.881   0.931
 2407SOL    HW2 8822   1.343   5.877   1.000
 2408SOL     OW 8823   0.807   6.191   1.465
 2408SOL    HW1 8824   0.760   6.188   1.554
 2408SOL    HW2 8825   0.756   6.136   1.399
 2409SOL     OW 8826   1.394   6.055   1.674
 2409SOL    HW1 8827   1.374   6.098   1.762
 2409SOL    HW2 8828   1.472   5.993   1.683
 2410SOL     OW 8829   0.973   6.476   1.572
 2410SOL    HW1 8830   1.019   6.392   1.543
 2410SOL    HW2 8831   0.917   6.510   1.497
 2411SOL     OW 8832   0.991   5.996   1.242
 2411SOL    HW1 8833   0.914   6.030   1.296
 2411SOL    HW2 8834   0.957   5.945   1.163
 2412SOL     OW 8835   1.041   6.287   0.429
 2412SOL    HW1 8836   1.067   6.283   0.525
 2412SOL    HW2 8837   0.956   6.236   0.415
 2413SOL     OW 8838   0.076   6.397   0.789
 2413SOL    HW1 8839   0.175   6.385   0.798
 2413SOL    HW2 8840   0.052   6.492   0.810
 2414SOL     OW 8841   0.865   5.934   0.195
 2414SOL    HW1 8842   0.924   5.997   0.146
 2414SOL    HW2 8843   0.884   5.840   0.166
 2415SOL     OW 8844   1.719   6.171   1.831
 2415SOL    HW1 8845   1.693   6.260   1.795
 2415SOL    HW2 8846   1.717   6.103   1.758
 2416SOL     OW 8847   1.362   6.730   0.545
 2416SOL    HW1 8848   1.445   6.701   0.497
 2416SOL    HW2 8849   1.313   6.797   0.489
 2417SOL     OW 8850   0.550   5.782   0.885
 2417SOL    HW1 8851   0.545   5.777   0.985
 2417SOL    HW2 8852   0.552   5.878   0.856
 2418SOL     OW 8853   1.795   6.652   0.873
 2418SOL    HW1 8854   1.733   6.637   0.797
 2418SOL    HW2 8855   1.743   6.663   0.958
 2419SOL     OW 8856   0.321   6.529   0.242
 2419SOL    HW1 8857   0.403   6.568   0.200
 2419SOL    HW2 8858   0.294   6.447   0.193
 2420SOL     OW 8859   1.458   6.321   0.728
 2420SOL    HW1 8860   1.453   6.256   0.803
 2420SOL    HW2 8861   1.538   6.380   0.741
 2421SOL     OW 8862   0.202   5.871   1.498
 2421SOL    HW1 8863   0.122   5.931   1.485
 2421SOL    HW2 8864   0.192   5.822   1.584
 2422SOL     OW 8865   1.632   6.963   0.081
 2422SOL    HW1 8866   1.600   7.057   0.071
 2422SOL    HW2 8867   1.556   6.900   0.069
 2423SOL     OW 8868   1.400   5.693   0.426
 2423SOL    HW1 8869   1.376   5.656   0.336
 2423SOL    HW2 8870   1.499   5.709   0.430
 2424SOL     OW 8871   0.382   6.286   0.480
 2424SOL    HW1 8872   0.427   6.196   0.477
 2424SOL    HW2 8873   0.288   6.275   0.513
 2425SOL     OW 8874   1.547   5.808   1.729
 2425SOL    HW1 8875   1.542   5.845   1.821
 2425SOL    HW2 8876   1.475   5.739   1.717
 2426SOL     OW 8877   0.781   5.850   1.749
 2426SOL    HW1 8878   0.848   5.789   1.792
 2426SOL    HW2 8879   0.708   5.869   1.814
 2427SOL     OW 8880   1.351   6.176   1.433
 2427SOL    HW1 8881   1.379   6.133   1.518
 2427SOL    HW2 8882   1.376   6.272   1.434
 2428SOL     OW 8883   0.922   6.089   0.899
 2428SOL    HW1 8884   0.897   6.080   0.803
 2428SOL    HW2 8885   0.970   6.007   0.930
 2429SOL     OW 8886   0.539   5.650   0.512
 2429SOL    HW1 8887   0.458   5.651   0.570
 2429SOL    HW2 8888   0.542   5.733   0.457
 2430SOL     OW 8889   1.434   6.774   0.041
 2430SOL    HW1 8890   1.466   6.698   0.098
 2430SOL    HW2 8891   1.342   6.801   0.071
 2431SOL     OW 8892   0.935   5.822   0.480
 2431SOL    HW1 8893   0.887   5.863   0.402
 2431SOL    HW2 8894   1.034   5.820   0.461
 2432SOL     OW 8895   1.076   6.269   1.464
 2432SOL    HW1 8896   0.996   6.208   1.467
 2432SOL    HW2 8897   1.157   6.216   1.440
 2433SOL     OW 8898   1.227   7.156   0.793
 2433SOL    HW1 8899   1.248   7.230   0.728
 2433SOL    HW2 8900   1.295   7.156   0.866
 2434SOL     OW 8901   0.459   6.738   0.741
 2434SOL    HW1 8902   0.388   6.711   0.806
 2434SOL    HW2 8903   0.433   6.710   0.648
 2435SOL     OW 8904   1.032   6.135   0.016
 2435SOL    HW1 8905   0.991   6.217  -0.023
 2435SOL    HW2 8906   1.096   6.161   0.089
 2436SOL     OW 8907   0.078   6.142   1.386
 2436SOL    HW1 8908   0.170   6.141   1.345
 2436SOL    HW2 8909   0.072   6.216   1.453
 2437SOL     OW 8910   0.561   5.808   1.147
 2437SOL    HW1 8911   0.599   5.724   1.184
 2437SOL    HW2 8912   0.473   5.827   1.191
 2438SOL     OW 8913   0.866   6.040   0.642
 2438SOL    HW1 8914   0.834   6.112   0.580
 2438SOL    HW2 8915   0.890   5.959   0.589
 2439SOL     OW 8916   1.017   5.625   0.753
 2439SOL    HW1 8917   0.945   5.630   0.684
 2439SOL    HW2 8918   0.993   5.556   0.822
 2440SOL     OW 8919   1.429   6.759   0.867
 2440SOL    HW1 8920   1.374   6.675   0.860
 2440SOL    HW2 8921   1.455   6.788   0.775
 2441SOL     OW 8922   1.466   6.176   0.992
 2441SOL    HW1 8923   1.436   6.081   0.999
 2441SOL    HW2 8924   1.539   6.192   1.058
 2442SOL     OW 8925   1.857   6.419   0.377
 2442SOL    HW1 8926   1.899   6.355   0.441
 2442SOL    HW2 8927   1.819   6.368   0.299
 2443SOL     OW 8928   1.664   6.866   0.657
 2443SOL    HW1 8929   1.763   6.874   0.671
 2443SOL    HW2 8930   1.619   6.950   0.688
 2444SOL     OW 8931   1.390   6.161   0.078
 2444SOL    HW1 8932   1.336   6.140   0.159
 2444SOL    HW2 8933   1.481   6.120   0.087
 2445SOL     OW 8934   0.527   5.842   0.328
 2445SOL    HW1 8935   0.554   5.783   0.253
 2445SOL    HW2 8936   0.527   5.937   0.297
 2446SOL     OW 8937   1.754   6.809   1.588
 2446SOL    HW1 8938   1.845   6.770   1.575
 2446SOL    HW2 8939   1.762   6.905   1.612
 2447SOL     OW 8940   1.064   6.933   1.340
 2447SOL    HW1 8941   0.984   6.910   1.395
 2447SOL    HW2 8942   1.147   6.907   1.389
 2448SOL     OW 8943   1.111   6.781   1.100
 2448SOL    HW1 8944   1.071   6.825   1.181
 2448SOL    HW2 8945   1.070   6.818   1.017
 2449SOL     OW 8946   1.638   6.685   1.079
 2449SOL    HW1 8947   1.643   6.766   1.138
 2449SOL    HW2 8948   1.552   6.687   1.028
 2450SOL     OW 8949   0.915   5.675   1.402
 2450SOL    HW1 8950   0.940   5.655   1.307
 2450SOL    HW2 8951   0.987   5.731   1.444
 2451SOL     OW 8952   0.980   6.702   1.719
 2451SOL    HW1 8953   0.881   6.708   1.729
 2451SOL    HW2 8954   1.003   6.622   1.663
 2452SOL     OW 8955   0.705   6.636   0.368
 2452SOL    HW1 8956   0.691   6.643   0.467
 2452SOL    HW2 8957   0.789   6.585   0.350
 2453SOL     OW 8958   0.410   6.399   1.251
 2453SOL    HW1 8959   0.496   6.411   1.301
 2453SOL    HW2 8960   0.368   6.312   1.278
 2454SOL     OW 8961   1.274   5.972   1.262
 2454SOL    HW1 8962   1.295   6.046   1.326
 2454SOL    HW2 8963   1.185   5.989   1.219
 2455SOL     OW 8964   0.064   7.150   1.331
 2455SOL    HW1 8965   0.018   7.232   1.297
 2455SOL    HW2 8966   0.162   7.169   1.340
 2456SOL     OW 8967   0.367   6.686   0.501
 2456SOL    HW1 8968   0.360   6.769   0.445
 2456SOL    HW2 8969   0.371   6.606   0.441
 2457SOL     OW 8970   0.566   6.123   0.865
 2457SOL    HW1 8971   0.578   6.189   0.791
 2457SOL    HW2 8972   0.612   6.157   0.948
 2458SOL     OW 8973   1.582   6.225   0.472
 2458SOL    HW1 8974   1.551   6.286   0.545
 2458SOL    HW2 8975   1.632   6.277   0.403
 2459SOL     OW 8976   0.402   6.337   1.598
 2459SOL    HW1 8977   0.470   6.392   1.551
 2459SOL    HW2 8978   0.442   6.249   1.625
 2460SOL     OW 8979   1.587   6.365   1.670
 2460SOL    HW1 8980   1.495   6.403   1.665
 2460SOL    HW2 8981   1.647   6.412   1.605
 2461SOL     OW 8982   1.013   5.691   1.770
 2461SOL    HW1 8983   1.019   5.776   1.718
 2461SOL    HW2 8984   1.045   5.615   1.713
 2462SOL     OW 8985   0.504   5.636   1.740
 2462SOL    HW1 8986   0.462   5.579   1.670
 2462SOL    HW2 8987   0.438   5.705   1.772
 2463SOL     OW 8988   0.573   6.456   1.029
 2463SOL    HW1 8989   0.617   6.545   1.020
 2463SOL    HW2 8990   0.510   6.456   1.106
 2464SOL     OW 8991   1.360   6.448   1.045
 2464SOL    HW1 8992   1.285   6.448   0.979
 2464SOL    HW2 8993   1.397   6.356   1.054
 2465SOL     OW 8994   1.209   6.111   0.275
 2465SOL    HW1 8995   1.222   6.027   0.329
 2465SOL    HW2 8996   1.180   6.185   0.335
 2466SOL     OW 8997   0.307   5.799   1.231
 2466SOL    HW1 8998   0.284   5.836   1.321
 2466SOL    HW2 8999   0.277   5.704   1.225
 2467SOL     OW 9000   0.037   6.896   1.282
 2467SOL    HW1 9001   0.090   6.847   1.350
 2467SOL    HW2 9002   0.059   6.994   1.287
 2468SOL     OW 9003   0.732   6.220   1.064
 2468SOL    HW1 9004   0.791   6.194   0.988
 2468SOL    HW2 9005   0.704   6.316   1.053
 2469SOL     OW 9006   1.728   6.521   1.854
 2469SOL    HW1 9007   1.682   6.514   1.765
 2469SOL    HW2 9008   1.666   6.565   1.920
 2470SOL     OW 9009   0.307   5.649   0.618
 2470SOL    HW1 9010   0.296   5.743   0.651
 2470SOL    HW2 9011   0.302   5.586   0.695
 2471SOL     OW 9012   1.622   5.953   0.374
 2471SOL    HW1 9013   1.624   5.877   0.438
 2471SOL    HW2 9014   1.574   6.030   0.414
 2472SOL     OW 9015   1.023   6.352   0.966
 2472SOL    HW1 9016   1.038   6.373   1.062
 2472SOL    HW2 9017   0.993   6.257   0.957
 2473SOL     OW 9018   1.859   7.104   1.605
 2473SOL    HW1 9019   1.873   7.131   1.510
 2473SOL    HW2 9020   1.942   7.126   1.658
 2474SOL     OW 9021   0.350   6.484   1.804
 2474SOL    HW1 9022   0.426   6.528   1.852
 2474SOL    HW2 9023   0.385   6.437   1.722
 2475SOL     OW 9024   1.540   5.860   0.125
 2475SOL    HW1 9025   1.479   5.785   0.148
 2475SOL    HW2 9026   1.562   5.912   0.208
 2476SOL     OW 9027   1.303   6.424   0.042
 2476SOL    HW1 9028   1.337   6.331   0.057
 2476SOL    HW2 9029   1.321   6.451  -0.053
 2477SOL     OW 9030   0.319   6.396   0.949
 2477SOL    HW1 9031   0.412   6.432   0.954
 2477SOL    HW2 9032   0.313   6.311   1.001
 2478SOL     OW 9033   0.339   6.095   1.006
 2478SOL    HW1 9034   0.287   6.012   0.989
 2478SOL    HW2 9035   0.416   6.100   0.942
 2479SOL     OW 9036   1.138   5.966   1.678
 2479SOL    HW1 9037   1.093   6.029   1.742
 2479SOL    HW2 9038   1.231   5.997   1.661
 2480SOL     OW 9039   1.160   5.793   1.477
 2480SOL    HW1 9040   1.160   5.857   1.554
 2480SOL    HW2 9041   1.188   5.841   1.394
 2481SOL     OW 9042   0.008   6.912   0.200
 2481SOL    HW1 9043  -0.085   6.933   0.169
 2481SOL    HW2 9044   0.018   6.813   0.213
 2482SOL     OW 9045   1.002   6.382   1.238
 2482SOL    HW1 9046   1.043   6.350   1.324
 2482SOL    HW2 9047   0.906   6.355   1.235
 2483SOL     OW 9048   0.040   6.130   1.114
 2483SOL    HW1 9049   0.125   6.097   1.073
 2483SOL    HW2 9050   0.053   6.145   1.212
 2484SOL     OW 9051   0.189   6.106   1.722
 2484SOL    HW1 9052   0.248   6.066   1.652
 2484SOL    HW2 9053   0.131   6.177   1.681
 2485SOL     OW 9054   1.369   6.536   1.660
 2485SOL    HW1 9055   1.408   6.625   1.680
 2485SOL    HW2 9056   1.379   6.516   1.563
 2486SOL     OW 9057   0.815   6.158   0.325
 2486SOL    HW1 9058   0.822   6.069   0.279
 2486SOL    HW2 9059   0.721   6.192   0.317
 2487SOL     OW 9060   1.657   6.190   1.206
 2487SOL    HW1 9061   1.619   6.121   1.268
 2487SOL    HW2 9062   1.739   6.154   1.162
 2488SOL     OW 9063   0.671   6.050   1.269
 2488SOL    HW1 9064   0.637   5.961   1.239
 2488SOL    HW2 9065   0.697   6.104   1.189
 2489SOL     OW 9066   0.473   6.086   0.191
 2489SOL    HW1 9067   0.534   6.166   0.195
 2489SOL    HW2 9068   0.378   6.117   0.198
 2490SOL     OW 9069   0.159   6.723   1.466
 2490SOL    HW1 9070   0.181   6.662   1.542
 2490SOL    HW2 9071   0.169   6.674   1.380
 2491SOL     OW 9072   1.347   6.645   1.234
 2491SOL    HW1 9073   1.371   6.582   1.160
 2491SOL    HW2 9074   1.257   6.685   1.216
 2492SOL     OW 9075   1.302   6.441   0.309
 2492SOL    HW1 9076   1.216   6.410   0.351
 2492SOL    HW2 9077   1.298   6.427   0.210
 2493SOL     OW 9078   0.083   6.844   1.022
 2493SOL    HW1 9079   0.078   6.843   1.122
 2493SOL    HW2 9080   0.000   6.803   0.984
 2494SOL     OW 9081   0.903   5.672   0.133
 2494SOL    HW1 9082   0.954   5.673   0.047
 2494SOL    HW2 9083   0.959   5.630   0.204
 2495SOL     OW 9084   1.726   5.721   0.523
 2495SOL    HW1 9085   1.799   5.704   0.456
 2495SOL    HW2 9086   1.695   5.634   0.561
 2496SOL     OW 9087   1.280   6.513   0.672
 2496SOL    HW1 9088   1.340   6.432   0.674
 2496SOL    HW2 9089   1.320   6.582   0.612
 2497SOL     OW 9090   0.830   6.859   1.422
 2497SOL    HW1 9091   0.825   6.892   1.517
 2497SOL    HW2 9092   0.744   6.878   1.376
 2498SOL     OW 9093   1.841   5.761   0.963
 2498SOL    HW1 9094   1.880   5.676   0.927
 2498SOL    HW2 9095   1.743   5.763   0.944
 2499SOL     OW 9096   0.263   5.912   0.720
 2499SOL    HW1 9097   0.184   5.963   0.686
 2499SOL    HW2 9098   0.254   5.897   0.818
 2500SOL     OW 9099   0.822   6.588   1.372
 2500SOL    HW1 9100   0.862   6.587   1.280
 2500SOL    HW2 9101   0.832   6.680   1.412
 2501SOL     OW 9102   0.916   6.496   0.291
 2501SOL    HW1 9103   0.979   6.534   0.223
 2501SOL    HW2 9104   0.956   6.413   0.330
 2502SOL     OW 9105   0.372   6.874   1.490
 2502SOL    HW1 9106   0.359   6.967   1.456
 2502SOL    HW2 9107   0.288   6.822   1.477
 2503SOL     OW 9108   1.614   6.878   1.289
 2503SOL    HW1 9109   1.674   6.881   1.369
 2503SOL    HW2 9110   1.539   6.942   1.302
 2504SOL     OW 9111   1.039   6.684   0.696
 2504SOL    HW1 9112   0.969   6.637   0.750
 2504SOL    HW2 9113   1.098   6.616   0.653
 2505SOL     OW 9114   1.014   5.822   0.971
 2505SOL    HW1 9115   1.006   5.786   0.878
 2505SOL    HW2 9116   1.012   5.746   1.036
 2506SOL     OW 9117   1.709   5.971   1.381
 2506SOL    HW1 9118   1.782   6.040   1.385
 2506SOL    HW2 9119   1.737   5.896   1.322
 2507SOL     OW 9120   0.105   6.599   1.726
 2507SOL    HW1 9121   0.028   6.566   1.780
 2507SOL    HW2 9122   0.190   6.569   1.768
 2508SOL     OW 9123   0.672   5.789   1.489
 2508SOL    HW1 9124   0.762   5.773   1.449
 2508SOL    HW2 9125   0.680   5.794   1.588
 2509SOL     OW 9126   1.440   6.442   1.398
 2509SOL    HW1 9127   1.383   6.494   1.335
 2509SOL    HW2 9128   1.536   6.454   1.374
 2510SOL     OW 9129   0.072   5.752   0.318
 2510SOL    HW1 9130   0.055   5.835   0.264
 2510SOL    HW2 9131   0.162   5.715   0.296
 2511SOL     OW 9132   0.613   6.428   1.431
 2511SOL    HW1 9133   0.669   6.509   1.414
 2511SOL    HW2 9134   0.672   6.348   1.434
 2512SOL     OW 9135   0.716   6.151   1.708
 2512SOL    HW1 9136   0.735   6.216   1.782
 2512SOL    HW2 9137   0.776   6.071   1.717
 2513SOL     OW 9138   1.450   6.806   1.633
 2513SOL    HW1 9139   1.441   6.796   1.732
 2513SOL    HW2 9140   1.546   6.799   1.607
 2514SOL     OW 9141   1.674   6.469   1.254
 2514SOL    HW1 9142   1.647   6.380   1.217
 2514SOL    HW2 9143   1.675   6.537   1.181
 2515SOL     OW 9144   1.225   5.911   0.449
 2515SOL    HW1 9145   1.290   5.837   0.438
 2515SOL    HW2 9146   1.245   5.961   0.533
 2516SOL     OW 9147   0.594   6.331   0.652
 2516SOL    HW1 9148   0.644   6.416   0.633
 2516SOL    HW2 9149   0.506   6.333   0.604
 2517SOL     OW 9150   1.777   5.928   1.642
 2517SOL    HW1 9151   1.760   5.959   1.548
 2517SOL    HW2 9152   1.693   5.891   1.680
 2518SOL     OW 9153   1.730   6.520   1.517
 2518SOL    HW1 9154   1.768   6.611   1.532
 2518SOL    HW2 9155   1.722   6.503   1.418
 2519SOL     OW 9156   0.859   6.542   0.861
 2519SOL    HW1 9157   0.913   6.473   0.909
 2519SOL    HW2 9158   0.827   6.611   0.927
 2520SOL     OW 9159   1.083   6.570   0.087
 2520SOL    HW1 9160   1.060   6.623   0.005
 2520SOL    HW2 9161   1.164   6.514   0.068
 2521SOL     OW 9162   0.221   6.900   1.844
 2521SOL    HW1 9163   0.156   6.827   1.823
 2521SOL    HW2 9164   0.225   6.914   1.942
 2522SOL     OW 9165   0.079   6.826   0.653
 2522SOL    HW1 9166   0.078   6.779   0.741
 2522SOL    HW2 9167   0.161   6.798   0.602
 2523SOL     OW 9168   0.672   6.977   1.624
 2523SOL    HW1 9169   0.594   6.927   1.662
 2523SOL    HW2 9170   0.669   7.072   1.655
 2524SOL     OW 9171   1.824   5.778   1.227
 2524SOL    HW1 9172   1.820   5.688   1.271
 2524SOL    HW2 9173   1.827   5.767   1.128
 2525SOL     OW 9174   0.428   6.010   0.520
 2525SOL    HW1 9175   0.458   5.938   0.458
 2525SOL    HW2 9176   0.389   5.970   0.603
 2526SOL     OW 9177   1.705   7.073   1.104
 2526SOL    HW1 9178   1.612   7.048   1.077
 2526SOL    HW2 9179   1.731   7.023   1.186
 2527SOL     OW 9180   0.317   6.133   1.280
 2527SOL    HW1 9181   0.355   6.074   1.352
 2527SOL    HW2 9182   0.357   6.107   1.192
 2528SOL     OW 9183   1.424   5.800   1.112
 2528SOL    HW1 9184   1.476   5.735   1.167
 2528SOL    HW2 9185   1.375   5.863   1.173
 2529SOL     OW 9186   1.001   5.620   1.154
 2529SOL    HW1 9187   0.938   5.548   1.123
 2529SOL    HW2 9188   1.094   5.584   1.154
 2530SOL     OW 9189   0.770   6.916   0.301
 2530SOL    HW1 9190   0.724   6.829   0.318
 2530SOL    HW2 9191   0.861   6.913   0.342
 2531SOL     OW 9192   1.352   5.638   0.168
 2531SOL    HW1 9193   1.387   5.597   0.084
 2531SOL    HW2 9194   1.262   5.600   0.188
 2532SOL     OW 9195   1.300   6.039   0.691
 2532SOL    HW1 9196   1.241   6.119   0.695
 2532SOL    HW2 9197   1.315   6.004   0.784
 2533SOL     OW 9198   1.593   5.807   0.882
 2533SOL    HW1 9199   1.509   5.806   0.936
 2533SOL    HW2 9200   1.595   5.890   0.826
 2534SOL     OW 9201   0.039   6.663   0.300
 2534SOL    HW1 9202   0.138   6.652   0.291
 2534SOL    HW2 9203  -0.001   6.577   0.332
 2535SOL     OW 9204   0.230   6.214   1.975
 2535SOL    HW1 9205   0.137   6.212   2.012
 2535SOL    HW2 9206   0.231   6.175   1.883
 2536SOL     OW 9207   0.225   5.861   2.858
 2536SOL    HW1 9208   0.260   5.844   2.950
 2536SOL    HW2 9209   0.137   5.816   2.846
 2537SOL     OW 9210   0.019   5.954   2.509
 2537SOL    HW1 9211  -0.063   5.997   2.548
 2537SOL    HW2 9212  -0.009   5.881   2.446
 2538SOL     OW 9213   0.569   6.861   3.027
 2538SOL    HW1 9214   0.476   6.854   2.990
 2538SOL    HW2 9215   0.580   6.950   3.071
 2539SOL     OW 9216   1.555   7.097   2.565
 2539SOL    HW1 9217   1.498   7.081   2.646
 2539SOL    HW2 9218   1.496   7.107   2.485
 2540SOL     OW 9219   1.135   6.289   2.579
 2540SOL    HW1 9220   1.192   6.367   2.554
 2540SOL    HW2 9221   1.075   6.315   2.655
 2541SOL     OW 9222   1.755   6.193   2.093
 2541SOL    HW1 9223   1.743   6.180   1.994
 2541SOL    HW2 9224   1.725   6.112   2.142
 2542SOL     OW 9225   0.768   6.730   2.885
 2542SOL    HW1 9226   0.690   6.747   2.945
 2542SOL    HW2 9227   0.802   6.817   2.849
 2543SOL     OW 9228   0.850   6.384   3.685
 2543SOL    HW1 9229   0.846   6.460   3.750
 2543SOL    HW2 9230   0.872   6.420   3.594
 2544SOL     OW 9231   0.685   6.598   2.527
 2544SOL    HW1 9232   0.754   6.582   2.597
 2544SOL    HW2 9233   0.612   6.655   2.565
 2545SOL     OW 9234   0.686   6.747   3.665
 2545SOL    HW1 9235   0.746   6.826   3.679
 2545SOL    HW2 9236   0.600   6.778   3.624
 2546SOL     OW 9237   0.335   7.021   2.923
 2546SOL    HW1 9238   0.257   6.990   2.870
 2546SOL    HW2 9239   0.393   7.079   2.866
 2547SOL     OW 9240   0.438   5.978   3.361
 2547SOL    HW1 9241   0.520   5.922   3.370
 2547SOL    HW2 9242   0.357   5.920   3.365
 2548SOL     OW 9243   1.603   6.033   2.599
 2548SOL    HW1 9244   1.529   6.079   2.549
 2548SOL    HW2 9245   1.654   6.101   2.652
 2549SOL     OW 9246   0.240   6.677   2.748
 2549SOL    HW1 9247   0.254   6.593   2.800
 2549SOL    HW2 9248   0.185   6.741   2.803
 2550SOL     OW 9249   0.606   6.550   1.985
 2550SOL    HW1 9250   0.613   6.634   1.931
 2550SOL    HW2 9251   0.652   6.563   2.073
 2551SOL     OW 9252   1.594   5.700   3.342
 2551SOL    HW1 9253   1.576   5.767   3.270
 2551SOL    HW2 9254   1.591   5.746   3.431
 2552SOL     OW 9255   0.122   6.229   2.425
 2552SOL    HW1 9256   0.077   6.141   2.442
 2552SOL    HW2 9257   0.121   6.283   2.509
 2553SOL     OW 9258   1.689   6.508   2.474
 2553SOL    HW1 9259   1.784   6.479   2.482
 2553SOL    HW2 9260   1.681   6.573   2.399
 2554SOL     OW 9261   1.641   6.694   2.294
 2554SOL    HW1 9262   1.727   6.696   2.242
 2554SOL    HW2 9263   1.655   6.741   2.382
 2555SOL     OW 9264   0.113   6.323   3.459
 2555SOL    HW1 9265   0.201   6.310   3.504
 2555SOL    HW2 9266   0.100   6.420   3.437
 2556SOL     OW 9267   1.293   6.814   3.285
 2556SOL    HW1 9268   1.330   6.741   3.227
 2556SOL    HW2 9269   1.345   6.819   3.370
 2557SOL     OW 9270   0.809   5.590   2.364
 2557SOL    HW1 9271   0.849   5.681   2.355
 2557SOL    HW2 9272   0.709   5.598   2.370
 2558SOL     OW 9273   0.197   6.562   3.126
 2558SOL    HW1 9274   0.286   6.517   3.112
 2558SOL    HW2 9275   0.124   6.497   3.107
 2559SOL     OW 9276   1.525   6.585   2.052
 2559SOL    HW1 9277   1.462   6.509   2.065
 2559SOL    HW2 9278   1.573   6.603   2.138
 2560SOL     OW 9279   0.317   5.837   3.663
 2560SOL    HW1 9280   0.388   5.908   3.669
 2560SOL    HW2 9281   0.229   5.876   3.691
 2561SOL     OW 9282   1.466   7.003   2.815
 2561SOL    HW1 9283   1.407   7.009   2.895
 2561SOL    HW2 9284   1.451   6.915   2.769
 2562SOL     OW 9285   0.598   6.315   2.132
 2562SOL    HW1 9286   0.622   6.384   2.064
 2562SOL    HW2 9287   0.520   6.348   2.186
 2563SOL     OW 9288   1.281   5.931   2.806
 2563SOL    HW1 9289   1.195   5.881   2.793
 2563SOL    HW2 9290   1.343   5.877   2.862
 2564SOL     OW 9291   0.807   6.191   3.327
 2564SOL    HW1 9292   0.760   6.188   3.416
 2564SOL    HW2 9293   0.756   6.136   3.261
 2565SOL     OW 9294   1.394   6.055   3.536
 2565SOL    HW1 9295   1.374   6.098   3.624
 2565SOL    HW2 9296   1.472   5.993   3.545
 2566SOL     OW 9297   0.973   6.476   3.434
 2566SOL    HW1 9298   1.019   6.392   3.405
 2566SOL    HW2 9299   0.917   6.510   3.359
 2567SOL     OW 9300   0.991   5.996   3.104
 2567SOL    HW1 9301   0.914   6.030   3.158
 2567SOL    HW2 9302   0.957   5.945   3.025
 2568SOL     OW 9303   1.041   6.287   2.291
 2568SOL    HW1 9304   1.067   6.283   2.387
 2568SOL    HW2 9305   0.956   6.236   2.277
 2569SOL     OW 9306   0.076   6.397   2.651
 2569SOL    HW1 9307   0.175   6.385   2.660
 2569SOL    HW2 9308   0.052   6.492   2.672
 2570SOL     OW 9309   0.865   5.934   2.057
 2570SOL    HW1 9310   0.924   5.997   2.008
 2570SOL    HW2 9311   0.884   5.840   2.028
 2571SOL     OW 9312   1.719   6.171   3.693
 2571SOL    HW1 9313   1.693   6.260   3.657
 2571SOL    HW2 9314   1.717   6.103   3.620
 2572SOL     OW 9315   1.362   6.730   2.407
 2572SOL    HW1 9316   1.445   6.701   2.359
 2572SOL    HW2 9317   1.313   6.797   2.351
 2573SOL     OW 9318   0.550   5.782   2.747
 2573SOL    HW1 9319   0.545   5.777   2.847
 2573SOL    HW2 9320   0.552   5.878   2.718
 2574SOL     OW 9321   1.795   6.652   2.735
 2574SOL    HW1 9322   1.733   6.637   2.659
 2574SOL    HW2 9323   1.743   6.663   2.820
 2575SOL     OW 9324   0.321   6.529   2.104
 2575SOL    HW1 9325   0.403   6.568   2.062
 2575SOL    HW2 9326   0.294   6.447   2.055
 2576SOL     OW 9327   1.458   6.321   2.590
 2576SOL    HW1 9328   1.453   6.256   2.665
 2576SOL    HW2 9329   1.538   6.380   2.603
 2577SOL     OW 9330   0.202   5.871   3.360
 2577SOL    HW1 9331   0.122   5.931   3.347
 2577SOL    HW2 9332   0.192   5.822   3.446
 2578SOL     OW 9333   1.632   6.963   1.943
 2578SOL    HW1 9334   1.600   7.057   1.933
 2578SOL    HW2 9335   1.556   6.900   1.931
 2579SOL     OW 9336   1.400   5.693   2.288
 2579SOL    HW1 9337   1.376   5.656   2.198
 2579SOL    HW2 9338   1.499   5.709   2.292
 2580SOL     OW 9339   0.382   6.286   2.342
 2580SOL    HW1 9340   0.427   6.196   2.339
 2580SOL    HW2 9341   0.288   6.275   2.375
 2581SOL     OW 9342   1.547   5.808   3.591
 2581SOL    HW1 9343   1.542   5.845   3.683
 2581SOL    HW2 9344   1.475   5.739   3.579
 2582SOL     OW 9345   0.614   5.708   1.979
 2582SOL    HW1 9346   0.712   5.686   1.986
 2582SOL    HW2 9347   0.583   5.691   1.886
 2583SOL     OW 9348   0.781   5.850   3.611
 2583SOL    HW1 9349   0.848   5.789   3.654
 2583SOL    HW2 9350   0.708   5.869   3.676
 2584SOL     OW 9351   1.351   6.176   3.295
 2584SOL    HW1 9352   1.379   6.133   3.380
 2584SOL    HW2 9353   1.376   6.272   3.296
 2585SOL     OW 9354   0.922   6.089   2.761
 2585SOL    HW1 9355   0.897   6.080   2.665
 2585SOL    HW2 9356   0.970   6.007   2.792
 2586SOL     OW 9357   0.539   5.650   2.374
 2586SOL    HW1 9358   0.458   5.651   2.432
 2586SOL    HW2 9359   0.542   5.733   2.319
 2587SOL     OW 9360   1.434   6.774   1.903
 2587SOL    HW1 9361   1.466   6.698   1.960
 2587SOL    HW2 9362   1.342   6.801   1.933
 2588SOL     OW 9363   0.297   5.621   2.033
 2588SOL    HW1 9364   0.346   5.705   2.012
 2588SOL    HW2 9365   0.359   5.556   2.078
 2589SOL     OW 9366   0.935   5.822   2.342
 2589SOL    HW1 9367   0.887   5.863   2.264
 2589SOL    HW2 9368   1.034   5.820   2.323
 2590SOL     OW 9369   1.076   6.269   3.326
 2590SOL    HW1 9370   0.996   6.208   3.329
 2590SOL    HW2 9371   1.157   6.216   3.302
 2591SOL     OW 9372   1.227   7.156   2.655
 2591SOL    HW1 9373   1.248   7.230   2.590
 2591SOL    HW2 9374   1.295   7.156   2.728
 2592SOL     OW 9375   0.459   6.738   2.603
 2592SOL    HW1 9376   0.388   6.711   2.668
 2592SOL    HW2 9377   0.433   6.710   2.510
 2593SOL     OW 9378   1.032   6.135   1.878
 2593SOL    HW1 9379   0.991   6.217   1.839
 2593SOL    HW2 9380   1.096   6.161   1.951
 2594SOL     OW 9381   0.078   6.142   3.248
 2594SOL    HW1 9382   0.170   6.141   3.207
 2594SOL    HW2 9383   0.072   6.216   3.315
 2595SOL     OW 9384   0.561   5.808   3.009
 2595SOL    HW1 9385   0.599   5.724   3.046
 2595SOL    HW2 9386   0.473   5.827   3.053
 2596SOL     OW 9387   0.866   6.040   2.504
 2596SOL    HW1 9388   0.834   6.112   2.442
 2596SOL    HW2 9389   0.890   5.959   2.451
 2597SOL     OW 9390   1.017   5.625   2.615
 2597SOL    HW1 9391   0.945   5.630   2.546
 2597SOL    HW2 9392   0.993   5.556   2.684
 2598SOL     OW 9393   1.429   6.759   2.729
 2598SOL    HW1 9394   1.374   6.675   2.722
 2598SOL    HW2 9395   1.455   6.788   2.637
 2599SOL     OW 9396   1.466   6.176   2.854
 2599SOL    HW1 9397   1.436   6.081   2.861
 2599SOL    HW2 9398   1.539   6.192   2.920
 2600SOL     OW 9399   1.857   6.419   2.239
 2600SOL    HW1 9400   1.899   6.355   2.303
 2600SOL    HW2 9401   1.819   6.368   2.161
 2601SOL     OW 9402   1.664   6.866   2.519
 2601SOL    HW1 9403   1.763   6.874   2.533
 2601SOL    HW2 9404   1.619   6.950   2.550
 2602SOL     OW 9405   1.390   6.161   1.940
 2602SOL    HW1 9406   1.336   6.140   2.021
 2602SOL    HW2 9407   1.481   6.120   1.949
 2603SOL     OW 9408   0.527   5.842   2.190
 2603SOL    HW1 9409   0.554   5.783   2.115
 2603SOL    HW2 9410   0.527   5.937   2.159
 2604SOL     OW 9411   1.754   6.809   3.450
 2604SOL    HW1 9412   1.845   6.770   3.437
 2604SOL    HW2 9413   1.762   6.905   3.474
 2605SOL     OW 9414   1.064   6.933   3.202
 2605SOL    HW1 9415   0.984   6.910   3.257
 2605SOL    HW2 9416   1.147   6.907   3.251
 2606SOL     OW 9417   1.111   6.781   2.962
 2606SOL    HW1 9418   1.071   6.825   3.043
 2606SOL    HW2 9419   1.070   6.818   2.879
 2607SOL     OW 9420   1.638   6.685   2.941
 2607SOL    HW1 9421   1.643   6.766   3.000
 2607SOL    HW2 9422   1.552   6.687   2.890
 2608SOL     OW 9423   0.915   5.675   3.264
 2608SOL    HW1 9424   0.940   5.655   3.169
 2608SOL    HW2 9425   0.987   5.731   3.306
 2609SOL     OW 9426   0.980   6.702   3.581
 2609SOL    HW1 9427   0.881   6.708   3.591
 2609SOL    HW2 9428   1.003   6.622   3.525
 2610SOL     OW 9429   0.705   6.636   2.230
 2610SOL    HW1 9430   0.691   6.643   2.329
 2610SOL    HW2 9431   0.789   6.585   2.212
 2611SOL     OW 9432   0.410   6.399   3.113
 2611SOL    HW1 9433   0.496   6.411   3.163
 2611SOL    HW2 9434   0.368   6.312   3.140
 2612SOL     OW 9435   1.274   5.972   3.124
 2612SOL    HW1 9436   1.295   6.046   3.188
 2612SOL    HW2 9437   1.185   5.989   3.081
 2613SOL     OW 9438   0.064   7.150   3.193
 2613SOL    HW1 9439   0.018   7.232   3.159
 2613SOL    HW2 9440   0.162   7.169   3.202
 2614SOL     OW 9441   0.367   6.686   2.363
 2614SOL    HW1 9442   0.360   6.769   2.307
 2614SOL    HW2 9443   0.371   6.606   2.303
 2615SOL     OW 9444   0.566   6.123   2.727
 2615SOL    HW1 9445   0.578   6.189   2.653
 2615SOL    HW2 9446   0.612   6.157   2.810
 2616SOL     OW 9447   1.582   6.225   2.334
 2616SOL    HW1 9448   1.551   6.286   2.407
 2616SOL    HW2 9449   1.632   6.277   2.265
 2617SOL     OW 9450   0.402   6.337   3.460
 2617SOL    HW1 9451   0.470   6.392   3.413
 2617SOL    HW2 9452   0.442   6.249   3.487
 2618SOL     OW 9453   1.587   6.365   3.532
 2618SOL    HW1 9454   1.495   6.403   3.527
 2618SOL    HW2 9455   1.647   6.412   3.467
 2619SOL     OW 9456   1.013   5.691   3.632
 2619SOL    HW1 9457   1.019   5.776   3.580
 2619SOL    HW2 9458   1.045   5.615   3.575
 2620SOL     OW 9459   0.504   5.636   3.602
 2620SOL    HW1 9460   0.462   5.579   3.532
 2620SOL    HW2 9461   0.438   5.705   3.634
 2621SOL     OW 9462   0.573   6.456   2.891
 2621SOL    HW1 9463   0.617   6.545   2.882
 2621SOL    HW2 9464   0.510   6.456   2.968
 2622SOL     OW 9465   1.360   6.448   2.907
 2622SOL    HW1 9466   1.285   6.448   2.841
 2622SOL    HW2 9467   1.397   6.356   2.916
 2623SOL     OW 9468   1.209   6.111   2.137
 2623SOL    HW1 9469   1.222   6.027   2.191
 2623SOL    HW2 9470   1.180   6.185   2.197
 2624SOL     OW 9471   0.307   5.799   3.093
 2624SOL    HW1 9472   0.284   5.836   3.183
 2624SOL    HW2 9473   0.277   5.704   3.087
 2625SOL     OW 9474   0.037   6.896   3.144
 2625SOL    HW1 9475   0.090   6.847   3.212
 2625SOL    HW2 9476   0.059   6.994   3.149
 2626SOL     OW 9477   0.732   6.220   2.926
 2626SOL    HW1 9478   0.791   6.194   2.850
 2626SOL    HW2 9479   0.704   6.316   2.915
 2627SOL     OW 9480   1.728   6.521   3.716
 2627SOL    HW1 9481   1.682   6.514   3.627
 2627SOL    HW2 9482   1.666   6.565   3.782
 2628SOL     OW 9483   0.307   5.649   2.480
 2628SOL    HW1 9484   0.296   5.743   2.513
 2628SOL    HW2 9485   0.302   5.586   2.557
 2629SOL     OW 9486   1.622   5.953   2.236
 2629SOL    HW1 9487   1.624   5.877   2.300
 2629SOL    HW2 9488   1.574   6.030   2.276
 2630SOL     OW 9489   1.023   6.352   2.828
 2630SOL    HW1 9490   1.038   6.373   2.924
 2630SOL    HW2 9491   0.993   6.257   2.819
 2631SOL     OW 9492   1.859   7.104   3.467
 2631SOL    HW1 9493   1.873   7.131   3.372
 2631SOL    HW2 9494   1.942   7.126   3.520
 2632SOL     OW 9495   0.350   6.484   3.666
 2632SOL    HW1 9496   0.426   6.528   3.714
 2632SOL    HW2 9497   0.385   6.437   3.584
 2633SOL     OW 9498   1.540   5.860   1.987
 2633SOL    HW1 9499   1.479   5.785   2.010
 2633SOL    HW2 9500   1.562   5.912   2.070
 2634SOL     OW 9501   1.303   6.424   1.904
 2634SOL    HW1 9502   1.337   6.331   1.919
 2634SOL    HW2 9503   1.321   6.451   1.809
 2635SOL     OW 9504   0.319   6.396   2.811
 2635SOL    HW1 9505   0.412   6.432   2.816
 2635SOL    HW2 9506   0.313   6.311   2.863
 2636SOL     OW 9507   0.339   6.095   2.868
 2636SOL    HW1 9508   0.287   6.012   2.851
 2636SOL    HW2 9509   0.416   6.100   2.804
 2637SOL     OW 9510   1.138   5.966   3.540
 2637SOL    HW1 9511   1.093   6.029   3.604
 2637SOL    HW2 9512   1.231   5.997   3.523
 2638SOL     OW 9513   1.160   5.793   3.339
 2638SOL    HW1 9514   1.160   5.857   3.416
 2638SOL    HW2 9515   1.188   5.841   3.256
 2639SOL     OW 9516   0.008   6.912   2.062
 2639SOL    HW1 9517  -0.085   6.933   2.031
 2639SOL    HW2 9518   0.018   6.813   2.075
 2640SOL     OW 9519   1.002   6.382   3.100
 2640SOL    HW1 9520   1.043   6.350   3.186
 2640SOL    HW2 9521   0.906   6.355   3.097
 2641SOL     OW 9522   0.040   6.130   2.976
 2641SOL    HW1 9523   0.125   6.097   2.935
 2641SOL    HW2 9524   0.053   6.145   3.074
 2642SOL     OW 9525   0.189   6.106   3.584
 2642SOL    HW1 9526   0.248   6.066   3.514
 2642SOL    HW2 9527   0.131   6.177   3.543
 2643SOL     OW 9528   1.369   6.536   3.522
 2643SOL    HW1 9529   1.408   6.625   3.542
 2643SOL    HW2 9530   1.379   6.516   3.425
 2644SOL     OW 9531   0.815   6.158   2.187
 2644SOL    HW1 9532   0.822   6.069   2.141
 2644SOL    HW2 9533   0.721   6.192   2.179
 2645SOL     OW 9534   1.657   6.190   3.068
 2645SOL    HW1 9535   1.619   6.121   3.130
 2645SOL    HW2 9536   1.739   6.154   3.024
 2646SOL     OW 9537   0.671   6.050   3.131
 2646SOL    HW1 9538   0.637   5.961   3.101
 2646SOL    HW2 9539   0.697   6.104   3.051
 2647SOL     OW 9540   0.473   6.086   2.053
 2647SOL    HW1 9541   0.534   6.166   2.057
 2647SOL    HW2 9542   0.378   6.117   2.060
 2648SOL     OW 9543   0.159   6.723   3.328
 2648SOL    HW1 9544   0.181   6.662   3.404
 2648SOL    HW2 9545   0.169   6.674   3.242
 2649SOL     OW 9546   1.347   6.645   3.096
 2649SOL    HW1 9547   1.371   6.582   3.022
 2649SOL    HW2 9548   1.257   6.685   3.078
 2650SOL     OW 9549   1.302   6.441   2.171
 2650SOL    HW1 9550   1.216   6.410   2.213
 2650SOL    HW2 9551   1.298   6.427   2.072
 2651SOL     OW 9552   0.083   6.844   2.884
 2651SOL    HW1 9553   0.078   6.843   2.984
 2651SOL    HW2 9554   0.000   6.803   2.846
 2652SOL     OW 9555   1.726   5.721   2.385
 2652SOL    HW1 9556   1.799   5.704   2.318
 2652SOL    HW2 9557   1.695   5.634   2.423
 2653SOL     OW 9558   1.280   6.513   2.534
 2653SOL    HW1 9559   1.340   6.432   2.536
 2653SOL    HW2 9560   1.320   6.582   2.474
 2654SOL     OW 9561   0.830   6.859   3.284
 2654SOL    HW1 9562   0.825   6.892   3.379
 2654SOL    HW2 9563   0.744   6.878   3.238
 2655SOL     OW 9564   1.841   5.761   2.825
 2655SOL    HW1 9565   1.880   5.676   2.789
 2655SOL    HW2 9566   1.743   5.763   2.806
 2656SOL     OW 9567   0.263   5.912   2.582
 2656SOL    HW1 9568   0.184   5.963   2.548
 2656SOL    HW2 9569   0.254   5.897   2.680
 2657SOL     OW 9570   1.194   7.198   1.893
 2657SOL    HW1 9571   1.200   7.105   1.930
 2657SOL    HW2 9572   1.135   7.198   1.813
 2658SOL     OW 9573   0.822   6.588   3.234
 2658SOL    HW1 9574   0.862   6.587   3.142
 2658SOL    HW2 9575   0.832   6.680   3.274
 2659SOL     OW 9576   0.916   6.496   2.153
 2659SOL    HW1 9577   0.979   6.534   2.085
 2659SOL    HW2 9578   0.956   6.413   2.192
 2660SOL     OW 9579   0.372   6.874   3.352
 2660SOL    HW1 9580   0.359   6.967   3.318
 2660SOL    HW2 9581   0.288   6.822   3.339
 2661SOL     OW 9582   1.614   6.878   3.151
 2661SOL    HW1 9583   1.674   6.881   3.231
 2661SOL    HW2 9584   1.539   6.942   3.164
 2662SOL     OW 9585   1.039   6.684   2.558
 2662SOL    HW1 9586   0.969   6.637   2.612
 2662SOL    HW2 9587   1.098   6.616   2.515
 2663SOL     OW 9588   1.014   5.822   2.833
 2663SOL    HW1 9589   1.006   5.786   2.740
 2663SOL    HW2 9590   1.012   5.746   2.898
 2664SOL     OW 9591   1.709   5.971   3.243
 2664SOL    HW1 9592   1.782   6.040   3.247
 2664SOL    HW2 9593   1.737   5.896   3.184
 2665SOL     OW 9594   0.105   6.599   3.588
 2665SOL    HW1 9595   0.028   6.566   3.642
 2665SOL    HW2 9596   0.190   6.569   3.630
 2666SOL     OW 9597   0.672   5.789   3.351
 2666SOL    HW1 9598   0.762   5.773   3.311
 2666SOL    HW2 9599   0.680   5.794   3.450
 2667SOL     OW 9600   0.075   5.931   1.895
 2667SOL    HW1 9601  -0.017   5.903   1.866
 2667SOL    HW2 9602   0.106   6.008   1.839
 2668SOL     OW 9603   1.440   6.442   3.260
 2668SOL    HW1 9604   1.383   6.494   3.197
 2668SOL    HW2 9605   1.536   6.454   3.236
 2669SOL     OW 9606   0.072   5.752   2.180
 2669SOL    HW1 9607   0.055   5.835   2.126
 2669SOL    HW2 9608   0.162   5.715   2.158
 2670SOL     OW 9609   0.613   6.428   3.293
 2670SOL    HW1 9610   0.669   6.509   3.276
 2670SOL    HW2 9611   0.672   6.348   3.296
 2671SOL     OW 9612   0.716   6.151   3.570
 2671SOL    HW1 9613   0.735   6.216   3.644
 2671SOL    HW2 9614   0.776   6.071   3.579
 2672SOL     OW 9615   1.450   6.806   3.495
 2672SOL    HW1 9616   1.441   6.796   3.594
 2672SOL    HW2 9617   1.546   6.799   3.469
 2673SOL     OW 9618   1.674   6.469   3.116
 2673SOL    HW1 9619   1.647   6.380   3.079
 2673SOL    HW2 9620   1.675   6.537   3.043
 2674SOL     OW 9621   1.225   5.911   2.311
 2674SOL    HW1 9622   1.290   5.837   2.300
 2674SOL    HW2 9623   1.245   5.961   2.395
 2675SOL     OW 9624   0.594   6.331   2.514
 2675SOL    HW1 9625   0.644   6.416   2.495
 2675SOL    HW2 9626   0.506   6.333   2.466
 2676SOL     OW 9627   1.777   5.928   3.504
 2676SOL    HW1 9628   1.760   5.959   3.410
 2676SOL    HW2 9629   1.693   5.891   3.542
 2677SOL     OW 9630   1.730   6.520   3.379
 2677SOL    HW1 9631   1.768   6.611   3.394
 2677SOL    HW2 9632   1.722   6.503   3.280
 2678SOL     OW 9633   0.859   6.542   2.723
 2678SOL    HW1 9634   0.913   6.473   2.771
 2678SOL    HW2 9635   0.827   6.611   2.789
 2679SOL     OW 9636   1.083   6.570   1.949
 2679SOL    HW1 9637   1.060   6.623   1.867
 2679SOL    HW2 9638   1.164   6.514   1.930
 2680SOL     OW 9639   0.221   6.900   3.706
 2680SOL    HW1 9640   0.156   6.827   3.685
 2680SOL    HW2 9641   0.225   6.914   3.804
 2681SOL     OW 9642   0.079   6.826   2.515
 2681SOL    HW1 9643   0.078   6.779   2.603
 2681SOL    HW2 9644   0.161   6.798   2.464
 2682SOL     OW 9645   0.672   6.977   3.486
 2682SOL    HW1 9646   0.594   6.927   3.524
 2682SOL    HW2 9647   0.669   7.072   3.517
 2683SOL     OW 9648   1.824   5.778   3.089
 2683SOL    HW1 9649   1.820   5.688   3.133
 2683SOL    HW2 9650   1.827   5.767   2.990
 2684SOL     OW 9651   0.428   6.010   2.382
 2684SOL    HW1 9652   0.458   5.938   2.320
 2684SOL    HW2 9653   0.389   5.970   2.465
 2685SOL     OW 9654   1.705   7.073   2.966
 2685SOL    HW1 9655   1.612   7.048   2.939
 2685SOL    HW2 9656   1.731   7.023   3.048
 2686SOL     OW 9657   0.317   6.133   3.142
 2686SOL    HW1 9658   0.355   6.074   3.214
 2686SOL    HW2 9659   0.357   6.107   3.054
 2687SOL     OW 9660   1.424   5.800   2.974
 2687SOL    HW1 9661   1.476   5.735   3.029
 2687SOL    HW2 9662   1.375   5.863   3.035
 2688SOL     OW 9663   1.001   5.620   3.016
 2688SOL    HW1 9664   0.938   5.548   2.985
 2688SOL    HW2 9665   1.094   5.584   3.016
 2689SOL     OW 9666   0.770   6.916   2.163
 2689SOL    HW1 9667   0.724   6.829   2.180
 2689SOL    HW2 9668   0.861   6.913   2.204
 2690SOL     OW 9669   1.352   5.638   2.030
 2690SOL    HW1 9670   1.387   5.597   1.946
 2690SOL    HW2 9671   1.262   5.600   2.050
 2691SOL     OW 9672   1.300   6.039   2.553
 2691SOL    HW1 9673   1.241   6.119   2.557
 2691SOL    HW2 9674   1.315   6.004   2.646
 2692SOL     OW 9675   1.593   5.807   2.744
 2692SOL    HW1 9676   1.509   5.806   2.798
 2692SOL    HW2 9677   1.595   5.890   2.688
 2693SOL     OW 9678   0.039   6.663   2.162
 2693SOL    HW1 9679   0.138   6.652   2.153
 2693SOL    HW2 9680  -0.001   6.577   2.194
 2694SOL     OW 9681   0.230   6.214   3.837
 2694SOL    HW1 9682   0.137   6.212   3.874
 2694SOL    HW2 9683   0.231   6.175   3.745
 2695SOL     OW 9684   0.225   5.861   4.720
 2695SOL    HW1 9685   0.260   5.844   4.812
 2695SOL    HW2 9686   0.137   5.816   4.708
 2696SOL     OW 9687   0.019   5.954   4.371
 2696SOL    HW1 9688  -0.063   5.997   4.410
 2696SOL    HW2 9689  -0.009   5.881   4.308
 2697SOL     OW 9690   0.569   6.861   4.889
 2697SOL    HW1 9691   0.476   6.854   4.852
 2697SOL    HW2 9692   0.580   6.950   4.933
 2698SOL     OW 9693   1.555   7.097   4.427
 2698SOL    HW1 9694   1.498   7.081   4.508
 2698SOL    HW2 9695   1.496   7.107   4.347
 2699SOL     OW 9696   1.135   6.289   4.441
 2699SOL    HW1 9697   1.192   6.367   4.416
 2699SOL    HW2 9698   1.075   6.315   4.517
 2700SOL     OW 9699   1.755   6.193   3.955
 2700SOL    HW1 9700   1.743   6.180   3.856
 2700SOL    HW2 9701   1.725   6.112   4.004
 2701SOL     OW 9702   0.768   6.730   4.747
 2701SOL    HW1 9703   0.690   6.747   4.807
 2701SOL    HW2 9704   0.802   6.817   4.711
 2702SOL     OW 9705   0.850   6.384   5.547
 2702SOL    HW1 9706   0.846   6.460   5.612
 2702SOL    HW2 9707   0.872   6.420   5.456
 2703SOL     OW 9708   0.685   6.598   4.389
 2703SOL    HW1 9709   0.754   6.582   4.459
 2703SOL    HW2 9710   0.612   6.655   4.427
 2704SOL     OW 9711   0.686   6.747   5.527
 2704SOL    HW1 9712   0.746   6.826   5.541
 2704SOL    HW2 9713   0.600   6.778   5.486
 2705SOL     OW 9714   0.335   7.021   4.785
 2705SOL    HW1 9715   0.257   6.990   4.732
 2705SOL    HW2 9716   0.393   7.079   4.728
 2706SOL     OW 9717   0.438   5.978   5.223
 2706SOL    HW1 9718   0.520   5.922   5.232
 2706SOL    HW2 9719   0.357   5.920   5.227
 2707SOL     OW 9720   1.603   6.033   4.461
 2707SOL    HW1 9721   1.529   6.079   4.411
 2707SOL    HW2 9722   1.654   6.101   4.514
 2708SOL     OW 9723   0.240   6.677   4.610
 2708SOL    HW1 9724   0.254   6.593   4.662
 2708SOL    HW2 9725   0.185   6.741   4.665
 2709SOL     OW 9726   0.606   6.550   3.847
 2709SOL    HW1 9727   0.613   6.634   3.793
 2709SOL    HW2 9728   0.652   6.563   3.935
 2710SOL     OW 9729   1.594   5.700   5.204
 2710SOL    HW1 9730   1.576   5.767   5.132
 2710SOL    HW2 9731   1.591   5.746   5.293
 2711SOL     OW 9732   0.122   6.229   4.287
 2711SOL    HW1 9733   0.077   6.141   4.304
 2711SOL    HW2 9734   0.121   6.283   4.371
 2712SOL     OW 9735   1.689   6.508   4.336
 2712SOL    HW1 9736   1.784   6.479   4.344
 2712SOL    HW2 9737   1.681   6.573   4.261
 2713SOL     OW 9738   1.641   6.694   4.156
 2713SOL    HW1 9739   1.727   6.696   4.104
 2713SOL    HW2 9740   1.655   6.741   4.244
 2714SOL     OW 9741   0.113   6.323   5.321
 2714SOL    HW1 9742   0.201   6.310   5.366
 2714SOL    HW2 9743   0.100   6.420   5.299
 2715SOL     OW 9744   1.293   6.814   5.147
 2715SOL    HW1 9745   1.330   6.741   5.089
 2715SOL    HW2 9746   1.345   6.819   5.232
 2716SOL     OW 9747   0.809   5.590   4.226
 2716SOL    HW1 9748   0.849   5.681   4.217
 2716SOL    HW2 9749   0.709   5.598   4.232
 2717SOL     OW 9750   0.197   6.562   4.988
 2717SOL    HW1 9751   0.286   6.517   4.974
 2717SOL    HW2 9752   0.124   6.497   4.969
 2718SOL     OW 9753   1.525   6.585   3.914
 2718SOL    HW1 9754   1.462   6.509   3.927
 2718SOL    HW2 9755   1.573   6.603   4.000
 2719SOL     OW 9756   0.317   5.837   5.525
 2719SOL    HW1 9757   0.388   5.908   5.531
 2719SOL    HW2 9758   0.229   5.876   5.553
 2720SOL     OW 9759   1.466   7.003   4.677
 2720SOL    HW1 9760   1.407   7.009   4.757
 2720SOL    HW2 9761   1.451   6.915   4.631
 2721SOL     OW 9762   0.598   6.315   3.994
 2721SOL    HW1 9763   0.622   6.384   3.926
 2721SOL    HW2 9764   0.520   6.348   4.048
 2722SOL     OW 9765   1.281   5.931   4.668
 2722SOL    HW1 9766   1.195   5.881   4.655
 2722SOL    HW2 9767   1.343   5.877   4.724
 2723SOL     OW 9768   0.807   6.191   5.189
 2723SOL    HW1 9769   0.760   6.188   5.278
 2723SOL    HW2 9770   0.756   6.136   5.123
 2724SOL     OW 9771   1.394   6.055   5.398
 2724SOL    HW1 9772   1.374   6.098   5.486
 2724SOL    HW2 9773   1.472   5.993   5.407
 2725SOL     OW 9774   0.973   6.476   5.296
 2725SOL    HW1 9775   1.019   6.392   5.267
 2725SOL    HW2 9776   0.917   6.510   5.221
 2726SOL     OW 9777   0.991   5.996   4.966
 2726SOL    HW1 9778   0.914   6.030   5.020
 2726SOL    HW2 9779   0.957   5.945   4.887
 2727SOL     OW 9780   1.041   6.287   4.153
 2727SOL    HW1 9781   1.067   6.283   4.249
 2727SOL    HW2 9782   0.956   6.236   4.139
 2728SOL     OW 9783   0.076   6.397   4.513
 2728SOL    HW1 9784   0.175   6.385   4.522
 2728SOL    HW2 9785   0.052   6.492   4.534
 2729SOL     OW 9786   0.865   5.934   3.919
 2729SOL    HW1 9787   0.924   5.997   3.870
 2729SOL    HW2 9788   0.884   5.840   3.890
 2730SOL     OW 9789   1.719   6.171   5.555
 2730SOL    HW1 9790   1.693   6.260   5.519
 2730SOL    HW2 9791   1.717   6.103   5.482
 2731SOL     OW 9792   1.362   6.730   4.269
 2731SOL    HW1 9793   1.445   6.701   4.221
 2731SOL    HW2 9794   1.313   6.797   4.213
 2732SOL     OW 9795   0.550   5.782   4.609
 2732SOL    HW1 9796   0.545   5.777   4.709
 2732SOL    HW2 9797   0.552   5.878   4.580
 2733SOL     OW 9798   1.795   6.652   4.597
 2733SOL    HW1 9799   1.733   6.637   4.521
 2733SOL    HW2 9800   1.743   6.663   4.682
 2734SOL     OW 9801   0.321   6.529   3.966
 2734SOL    HW1 9802   0.403   6.568   3.924
 2734SOL    HW2 9803   0.294   6.447   3.917
 2735SOL     OW 9804   1.458   6.321   4.452
 2735SOL    HW1 9805   1.453   6.256   4.527
 2735SOL    HW2 9806   1.538   6.380   4.465
 2736SOL     OW 9807   0.202   5.871   5.222
 2736SOL    HW1 9808   0.122   5.931   5.209
 2736SOL    HW2 9809   0.192   5.822   5.308
 2737SOL     OW 9810   1.632   6.963   3.805
 2737SOL    HW1 9811   1.600   7.057   3.795
 2737SOL    HW2 9812   1.556   6.900   3.793
 2738SOL     OW 9813   1.400   5.693   4.150
 2738SOL    HW1 9814   1.376   5.656   4.060
 2738SOL    HW2 9815   1.499   5.709   4.154
 2739SOL     OW 9816   0.382   6.286   4.204
 2739SOL    HW1 9817   0.427   6.196   4.201
 2739SOL    HW2 9818   0.288   6.275   4.237
 2740SOL     OW 9819   1.547   5.808   5.453
 2740SOL    HW1 9820   1.542   5.845   5.545
 2740SOL    HW2 9821   1.475   5.739   5.441
 2741SOL     OW 9822   0.614   5.708   3.841
 2741SOL    HW1 9823   0.712   5.686   3.848
 2741SOL    HW2 9824   0.583   5.691   3.748
 2742SOL     OW 9825   0.781   5.850   5.473
 2742SOL    HW1 9826   0.848   5.789   5.516
 2742SOL    HW2 9827   0.708   5.869   5.538
 2743SOL     OW 9828   1.351   6.176   5.157
 2743SOL    HW1 9829   1.379   6.133   5.242
 2743SOL    HW2 9830   1.376   6.272   5.158
 2744SOL     OW 9831   0.922   6.089   4.623
 2744SOL    HW1 9832   0.897   6.080   4.527
 2744SOL    HW2 9833   0.970   6.007   4.654
 2745SOL     OW 9834   0.539   5.650   4.236
 2745SOL    HW1 9835   0.458   5.651   4.294
 2745SOL    HW2 9836   0.542   5.733   4.181
 2746SOL     OW 9837   1.434   6.774   3.765
 2746SOL    HW1 9838   1.466   6.698   3.822
 2746SOL    HW2 9839   1.342   6.801   3.795
 2747SOL     OW 9840   0.297   5.621   3.895
 2747SOL    HW1 9841   0.346   5.705   3.874
 2747SOL    HW2 9842   0.359   5.556   3.940
 2748SOL     OW 9843   0.935   5.822   4.204
 2748SOL    HW1 9844   0.887   5.863   4.126
 2748SOL    HW2 9845   1.034   5.820   4.185
 2749SOL     OW 9846   1.076   6.269   5.188
 2749SOL    HW1 9847   0.996   6.208   5.191
 2749SOL    HW2 9848   1.157   6.216   5.164
 2750SOL     OW 9849   1.227   7.156   4.517
 2750SOL    HW1 9850   1.248   7.230   4.452
 2750SOL    HW2 9851   1.295   7.156   4.590
 2751SOL     OW 9852   0.459   6.738   4.465
 2751SOL    HW1 9853   0.388   6.711   4.530
 2751SOL    HW2 9854   0.433   6.710   4.372
 2752SOL     OW 9855   1.032   6.135   3.740
 2752SOL    HW1 9856   0.991   6.217   3.701
 2752SOL    HW2 9857   1.096   6.161   3.813
 2753SOL     OW 9858   0.078   6.142   5.110
 2753SOL    HW1 9859   0.170   6.141   5.069
 2753SOL    HW2 9860   0.072   6.216   5.177
 2754SOL     OW 9861   0.561   5.808   4.871
 2754SOL    HW1 9862   0.599   5.724   4.908
 2754SOL    HW2 9863   0.473   5.827   4.915
 2755SOL     OW 9864   0.866   6.040   4.366
 2755SOL    HW1 9865   0.834   6.112   4.304
 2755SOL    HW2 9866   0.890   5.959   4.313
 2756SOL     OW 9867   1.017   5.625   4.477
 2756SOL    HW1 9868   0.945   5.630   4.408
 2756SOL    HW2 9869   0.993   5.556   4.546
 2757SOL     OW 9870   1.429   6.759   4.591
 2757SOL    HW1 9871   1.374   6.675   4.584
 2757SOL    HW2 9872   1.455   6.788   4.499
 2758SOL     OW 9873   1.466   6.176   4.716
 2758SOL    HW1 9874   1.436   6.081   4.723
 2758SOL    HW2 9875   1.539   6.192   4.782
 2759SOL     OW 9876   1.857   6.419   4.101
 2759SOL    HW1 9877   1.899   6.355   4.165
 2759SOL    HW2 9878   1.819   6.368   4.023
 2760SOL     OW 9879   1.664   6.866   4.381
 2760SOL    HW1 9880   1.763   6.874   4.395
 2760SOL    HW2 9881   1.619   6.950   4.412
 2761SOL     OW 9882   1.390   6.161   3.802
 2761SOL    HW1 9883   1.336   6.140   3.883
 2761SOL    HW2 9884   1.481   6.120   3.811
 2762SOL     OW 9885   0.527   5.842   4.052
 2762SOL    HW1 9886   0.554   5.783   3.977
 2762SOL    HW2 9887   0.527   5.937   4.021
 2763SOL     OW 9888   1.754   6.809   5.312
 2763SOL    HW1 9889   1.845   6.770   5.299
 2763SOL    HW2 9890   1.762   6.905   5.336
 2764SOL     OW 9891   1.064   6.933   5.064
 2764SOL    HW1 9892   0.984   6.910   5.119
 2764SOL    HW2 9893   1.147   6.907   5.113
 2765SOL     OW 9894   1.111   6.781   4.824
 2765SOL    HW1 9895   1.071   6.825   4.905
 2765SOL    HW2 9896   1.070   6.818   4.741
 2766SOL     OW 9897   1.638   6.685   4.803
 2766SOL    HW1 9898   1.643   6.766   4.862
 2766SOL    HW2 9899   1.552   6.687   4.752
 2767SOL     OW 9900   0.915   5.675   5.126
 2767SOL    HW1 9901   0.940   5.655   5.031
 2767SOL    HW2 9902   0.987   5.731   5.168
 2768SOL     OW 9903   0.980   6.702   5.443
 2768SOL    HW1 9904   0.881   6.708   5.453
 2768SOL    HW2 9905   1.003   6.622   5.387
 2769SOL     OW 9906   0.705   6.636   4.092
 2769SOL    HW1 9907   0.691   6.643   4.191
 2769SOL    HW2 9908   0.789   6.585   4.074
 2770SOL     OW 9909   0.410   6.399   4.975
 2770SOL    HW1 9910   0.496   6.411   5.025
 2770SOL    HW2 9911   0.368   6.312   5.002
 2771SOL     OW 9912   1.274   5.972   4.986
 2771SOL    HW1 9913   1.295   6.046   5.050
 2771SOL    HW2 9914   1.185   5.989   4.943
 2772SOL     OW 9915   0.064   7.150   5.055
 2772SOL    HW1 9916   0.018   7.232   5.021
 2772SOL    HW2 9917   0.162   7.169   5.064
 2773SOL     OW 9918   0.367   6.686   4.225
 2773SOL    HW1 9919   0.360   6.769   4.169
 2773SOL    HW2 9920   0.371   6.606   4.165
 2774SOL     OW 9921   0.566   6.123   4.589
 2774SOL    HW1 9922   0.578   6.189   4.515
 2774SOL    HW2 9923   0.612   6.157   4.672
 2775SOL     OW 9924   1.582   6.225   4.196
 2775SOL    HW1 9925   1.551   6.286   4.269
 2775SOL    HW2 9926   1.632   6.277   4.127
 2776SOL     OW 9927   0.402   6.337   5.322
 2776SOL    HW1 9928   0.470   6.392   5.275
 2776SOL    HW2 9929   0.442   6.249   5.349
 2777SOL     OW 9930   1.587   6.365   5.394
 2777SOL    HW1 9931   1.495   6.403   5.389
 2777SOL    HW2 9932   1.647   6.412   5.329
 2778SOL     OW 9933   1.013   5.691   5.494
 2778SOL    HW1 9934   1.019   5.776   5.442
 2778SOL    HW2 9935   1.045   5.615   5.437
 2779SOL     OW 9936   0.504   5.636   5.464
 2779SOL    HW1 9937   0.462   5.579   5.394
 2779SOL    HW2 9938   0.438   5.705   5.496
 2780SOL     OW 9939   0.573   6.456   4.753
 2780SOL    HW1 9940   0.617   6.545   4.744
 2780SOL    HW2 9941   0.510   6.456   4.830
 2781SOL     OW 9942   1.360   6.448   4.769
 2781SOL    HW1 9943   1.285   6.448   4.703
 2781SOL    HW2 9944   1.397   6.356   4.778
 2782SOL     OW 9945   1.209   6.111   3.999
 2782SOL    HW1 9946   1.222   6.027   4.053
 2782SOL    HW2 9947   1.180   6.185   4.059
 2783SOL     OW 9948   0.307   5.799   4.955
 2783SOL    HW1 9949   0.284   5.836   5.045
 2783SOL    HW2 9950   0.277   5.704   4.949
 2784SOL     OW 9951   0.037   6.896   5.006
 2784SOL    HW1 9952   0.090   6.847   5.074
 2784SOL    HW2 9953   0.059   6.994   5.011
 2785SOL     OW 9954   0.732   6.220   4.788
 2785SOL    HW1 9955   0.791   6.194   4.712
 2785SOL    HW2 9956   0.704   6.316   4.777
 2786SOL     OW 9957   1.728   6.521   5.578
 2786SOL    HW1 9958   1.682   6.514   5.489
 2786SOL    HW2 9959   1.666   6.565   5.644
 2787SOL     OW 9960   0.307   5.649   4.342
 2787SOL    HW1 9961   0.296   5.743   4.375
 2787SOL    HW2 9962   0.302   5.586   4.419
 2788SOL     OW 9963   1.622   5.953   4.098
 2788SOL    HW1 9964   1.624   5.877   4.162
 2788SOL    HW2 9965   1.574   6.030   4.138
 2789SOL     OW 9966   1.023   6.352   4.690
 2789SOL    HW1 9967   1.038   6.373   4.786
 2789SOL    HW2 9968   0.993   6.257   4.681
 2790SOL     OW 9969   1.859   7.104   5.329
 2790SOL    HW1 9970   1.873   7.131   5.234
 2790SOL    HW2 9971   1.942   7.126   5.382
 2791SOL     OW 9972   0.350   6.484   5.528
 2791SOL    HW1 9973   0.426   6.528   5.576
 2791SOL    HW2 9974   0.385   6.437   5.446
 2792SOL     OW 9975   1.540   5.860   3.849
 2792SOL    HW1 9976   1.479   5.785   3.872
 2792SOL    HW2 9977   1.562   5.912   3.932
 2793SOL     OW 9978   1.303   6.424   3.766
 2793SOL    HW1 9979   1.337   6.331   3.781
 2793SOL    HW2 9980   1.321   6.451   3.671
 2794SOL     OW 9981   0.319   6.396   4.673
 2794SOL    HW1 9982   0.412   6.432   4.678
 2794SOL    HW2 9983   0.313   6.311   4.725
 2795SOL     OW 9984   0.339   6.095   4.730
 2795SOL    HW1 9985   0.287   6.012   4.713
 2795SOL    HW2 9986   0.416   6.100   4.666
 2796SOL     OW 9987   1.138   5.966   5.402
 2796SOL    HW1 9988   1.093   6.029   5.466
 2796SOL    HW2 9989   1.231   5.997   5.385
 2797SOL     OW 9990   1.160   5.793   5.201
 2797SOL    HW1 9991   1.160   5.857   5.278
 2797SOL    HW2 9992   1.188   5.841   5.118
 2798SOL     OW 9993   0.008   6.912   3.924
 2798SOL    HW1 9994  -0.085   6.933   3.893
 2798SOL    HW2 9995   0.018   6.813   3.937
 2799SOL     OW 9996   1.002   6.382   4.962
 2799SOL    HW1 9997   1.043   6.350   5.048
 2799SOL    HW2 9998   0.906   6.355   4.959
 2800SOL     OW 9999   0.040   6.130   4.838
 2800SOL    HW110000   0.125   6.097   4.797
 2800SOL    HW210001   0.053   6.145   4.936
 2801SOL     OW10002   0.189   6.106   5.446
 2801SOL    HW110003   0.248   6.066   5.376
 2801SOL    HW210004   0.131   6.177   5.405
 2802SOL     OW10005   1.369   6.536   5.384
 2802SOL    HW110006   1.408   6.625   5.404
 2802SOL    HW210007   1.379   6.516   5.287
 2803SOL     OW10008   0.815   6.158   4.049
 2803SOL    HW110009   0.822   6.069   4.003
 2803SOL    HW210010   0.721   6.192   4.041
 2804SOL     OW10011   1.657   6.190   4.930
 2804SOL    HW110012   1.619   6.121   4.992
 2804SOL    HW210013   1.739   6.154   4.886
 2805SOL     OW10014   0.671   6.050   4.993
 2805SOL    HW110015   0.637   5.961   4.963
 2805SOL    HW210016   0.697   6.104   4.913
 2806SOL     OW10017   0.473   6.086   3.915
 2806SOL    HW110018   0.534   6.166   3.919
 2806SOL    HW210019   0.378   6.117   3.922
 2807SOL     OW10020   0.159   6.723   5.190
 2807SOL    HW110021   0.181   6.662   5.266
 2807SOL    HW210022   0.169   6.674   5.104
 2808SOL     OW10023   1.347   6.645   4.958
 2808SOL    HW110024   1.371   6.582   4.884
 2808SOL    HW210025   1.257   6.685   4.940
 2809SOL     OW10026   1.302   6.441   4.033
 2809SOL    HW110027   1.216   6.410   4.075
 2809SOL    HW210028   1.298   6.427   3.934
 2810SOL     OW10029   0.083   6.844   4.746
 2810SOL    HW110030   0.078   6.843   4.846
 2810SOL    HW210031   0.000   6.803   4.708
 2811SOL     OW10032   1.726   5.721   4.247
 2811SOL    HW110033   1.799   5.704   4.180
 2811SOL    HW210034   1.695   5.634   4.285
 2812SOL     OW10035   1.280   6.513   4.396
 2812SOL    HW110036   1.340   6.432   4.398
 2812SOL    HW210037   1.320   6.582   4.336
 2813SOL     OW10038   0.830   6.859   5.146
 2813SOL    HW110039   0.825   6.892   5.241
 2813SOL    HW210040   0.744   6.878   5.100
 2814SOL     OW10041   1.841   5.761   4.687
 2814SOL    HW110042   1.880   5.676   4.651
 2814SOL    HW210043   1.743   5.763   4.668
 2815SOL     OW10044   0.263   5.912   4.444
 2815SOL    HW110045   0.184   5.963   4.410
 2815SOL    HW210046   0.254   5.897   4.542
 2816SOL     OW10047   1.194   7.198   3.755
 2816SOL    HW110048   1.200   7.105   3.792
 2816SOL    HW210049   1.135   7.198   3.675
 2817SOL     OW10050   0.822   6.588   5.096
 2817SOL    HW110051   0.862   6.587   5.004
 2817SOL    HW210052   0.832   6.680   5.136
 2818SOL     OW10053   0.916   6.496   4.015
 2818SOL    HW110054   0.979   6.534   3.947
 2818SOL    HW210055   0.956   6.413   4.054
 2819SOL     OW10056   0.372   6.874   5.214
 2819SOL    HW110057   0.359   6.967   5.180
 2819SOL    HW210058   0.288   6.822   5.201
 2820SOL     OW10059   1.614   6.878   5.013
 2820SOL    HW110060   1.674   6.881   5.093
 2820SOL    HW210061   1.539   6.942   5.026
 2821SOL     OW10062   1.039   6.684   4.420
 2821SOL    HW110063   0.969   6.637   4.474
 2821SOL    HW210064   1.098   6.616   4.377
 2822SOL     OW10065   1.014   5.822   4.695
 2822SOL    HW110066   1.006   5.786   4.602
 2822SOL    HW210067   1.012   5.746   4.760
 2823SOL     OW10068   1.709   5.971   5.105
 2823SOL    HW110069   1.782   6.040   5.109
 2823SOL    HW210070   1.737   5.896   5.046
 2824SOL     OW10071   0.105   6.599   5.450
 2824SOL    HW110072   0.028   6.566   5.504
 2824SOL    HW210073   0.190   6.569   5.492
 2825SOL     OW10074   0.672   5.789   5.213
 2825SOL    HW110075   0.762   5.773   5.173
 2825SOL    HW210076   0.680   5.794   5.312
 2826SOL     OW10077   0.075   5.931   3.757
 2826SOL    HW110078  -0.017   5.903   3.728
 2826SOL    HW210079   0.106   6.008   3.701
 2827SOL     OW10080   1.440   6.442   5.122
 2827SOL    HW110081   1.383   6.494   5.059
 2827SOL    HW210082   1.536   6.454   5.098
 2828SOL     OW10083   0.072   5.752   4.042
 2828SOL    HW110084   0.055   5.835   3.988
 2828SOL    HW210085   0.162   5.715   4.020
 2829SOL     OW10086   0.613   6.428   5.155
 2829SOL    HW110087   0.669   6.509   5.138
 2829SOL    HW210088   0.672   6.348   5.158
 2830SOL     OW10089   0.716   6.151   5.432
 2830SOL    HW110090   0.735   6.216   5.506
 2830SOL    HW210091   0.776   6.071   5.441
 2831SOL     OW10092   1.450   6.806   5.357
 2831SOL    HW110093   1.441   6.796   5.456
 2831SOL    HW210094   1.546   6.799   5.331
 2832SOL     OW10095   1.674   6.469   4.978
 2832SOL    HW110096   1.647   6.380   4.941
 2832SOL    HW210097   1.675   6.537   4.905
 2833SOL     OW10098   1.225   5.911   4.173
 2833SOL    HW110099   1.290   5.837   4.162
 2833SOL    HW210100   1.245   5.961   4.257
 2834SOL     OW10101   0.594   6.331   4.376
 2834SOL    HW110102   0.644   6.416   4.357
 2834SOL    HW210103   0.506   6.333   4.328
 2835SOL     OW10104   1.777   5.928   5.366
 2835SOL    HW110105   1.760   5.959   5.272
 2835SOL    HW210106   1.693   5.891   5.404
 2836SOL     OW10107   1.730   6.520   5.241
 2836SOL    HW110108   1.768   6.611   5.256
 2836SOL    HW210109   1.722   6.503   5.142
 2837SOL     OW10110   0.859   6.542   4.585
 2837SOL    HW110111   0.913   6.473   4.633
 2837SOL    HW210112   0.827   6.611   4.651
 2838SOL     OW10113   1.083   6.570   3.811
 2838SOL    HW110114   1.060   6.623   3.729
 2838SOL    HW210115   1.164   6.514   3.792
 2839SOL     OW10116   0.221   6.900   5.568
 2839SOL    HW110117   0.156   6.827   5.547
 2839SOL    HW210118   0.225   6.914   5.666
 2840SOL     OW10119   0.079   6.826   4.377
 2840SOL    HW110120   0.078   6.779   4.465
 2840SOL    HW210121   0.161   6.798   4.326
 2841SOL     OW10122   0.672   6.977   5.348
 2841SOL    HW110123   0.594   6.927   5.386
 2841SOL    HW210124   0.669   7.072   5.379
 2842SOL     OW10125   1.824   5.778   4.951
 2842SOL    HW110126   1.820   5.688   4.995
 2842SOL    HW210127   1.827   5.767   4.852
 2843SOL     OW10128   0.428   6.010   4.244
 2843SOL    HW110129   0.458   5.938   4.182
 2843SOL    HW210130   0.389   5.970   4.327
 2844SOL     OW10131   1.705   7.073   4.828
 2844SOL    HW110132   1.612   7.048   4.801
 2844SOL    HW210133   1.731   7.023   4.910
 2845SOL     OW10134   0.317   6.133   5.004
 2845SOL    HW110135   0.355   6.074   5.076
 2845SOL    HW210136   0.357   6.107   4.916
 2846SOL     OW10137   1.424   5.800   4.836
 2846SOL    HW110138   1.476   5.735   4.891
 2846SOL    HW210139   1.375   5.863   4.897
 2847SOL     OW10140   1.001   5.620   4.878
 2847SOL    HW110141   0.938   5.548   4.847
 2847SOL    HW210142   1.094   5.584   4.878
 2848SOL     OW10143   0.770   6.916   4.025
 2848SOL    HW110144   0.724   6.829   4.042
 2848SOL    HW210145   0.861   6.913   4.066
 2849SOL     OW10146   1.352   5.638   3.892
 2849SOL    HW110147   1.387   5.597   3.808
 2849SOL    HW210148   1.262   5.600   3.912
 2850SOL     OW10149   1.300   6.039   4.415
 2850SOL    HW110150   1.241   6.119   4.419
 2850SOL    HW210151   1.315   6.004   4.508
 2851SOL     OW10152   1.593   5.807   4.606
 2851SOL    HW110153   1.509   5.806   4.660
 2851SOL    HW210154   1.595   5.890   4.550
 2852SOL     OW10155   0.039   6.663   4.024
 2852SOL    HW110156   0.138   6.652   4.015
 2852SOL    HW210157  -0.001   6.577   4.056
 2853SOL     OW10158   0.230   6.214   5.699
 2853SOL    HW110159   0.137   6.212   5.736
 2853SOL    HW210160   0.231   6.175   5.607
 2854SOL     OW10161   0.225   5.861   6.582
 2854SOL    HW110162   0.260   5.844   6.674
 2854SOL    HW210163   0.137   5.816   6.570
 2855SOL     OW10164   0.019   5.954   6.233
 2855SOL    HW110165  -0.063   5.997   6.272
 2855SOL    HW210166  -0.009   5.881   6.170
 2856SOL     OW10167   0.569   6.861   6.751
 2856SOL    HW110168   0.476   6.854   6.714
 2856SOL    HW210169   0.580   6.950   6.795
 2857SOL     OW10170   1.555   7.097   6.289
 2857SOL    HW110171   1.498   7.081   6.370
 2857SOL    HW210172   1.496   7.107   6.209
 2858SOL     OW10173   1.135   6.289   6.303
 2858SOL    HW110174   1.192   6.367   6.278
 2858SOL    HW210175   1.075   6.315   6.379
 2859SOL     OW10176   1.755   6.193   5.817
 2859SOL    HW110177   1.743   6.180   5.718
 2859SOL    HW210178   1.725   6.112   5.866
 2860SOL     OW10179   0.768   6.730   6.609
 2860SOL    HW110180   0.690   6.747   6.669
 2860SOL    HW210181   0.802   6.817   6.573
 2861SOL     OW10182   0.685   6.598   6.251
 2861SOL    HW110183   0.754   6.582   6.321
 2861SOL    HW210184   0.612   6.655   6.289
 2862SOL     OW10185   0.335   7.021   6.647
 2862SOL    HW110186   0.257   6.990   6.594
 2862SOL    HW210187   0.393   7.079   6.590
 2863SOL     OW10188   1.603   6.033   6.323
 2863SOL    HW110189   1.529   6.079   6.273
 2863SOL    HW210190   1.654   6.101   6.376
 2864SOL     OW10191   0.240   6.677   6.472
 2864SOL    HW110192   0.254   6.593   6.524
 2864SOL    HW210193   0.185   6.741   6.527
 2865SOL     OW10194   0.606   6.550   5.709
 2865SOL    HW110195   0.613   6.634   5.655
 2865SOL    HW210196   0.652   6.563   5.797
 2866SOL     OW10197   0.122   6.229   6.149
 2866SOL    HW110198   0.077   6.141   6.166
 2866SOL    HW210199   0.121   6.283   6.233
 2867SOL     OW10200   1.689   6.508   6.198
 2867SOL    HW110201   1.784   6.479   6.206
 2867SOL    HW210202   1.681   6.573   6.123
 2868SOL     OW10203   1.641   6.694   6.018
 2868SOL    HW110204   1.727   6.696   5.966
 2868SOL    HW210205   1.655   6.741   6.106
 2869SOL     OW10206   0.809   5.590   6.088
 2869SOL    HW110207   0.849   5.681   6.079
 2869SOL    HW210208   0.709   5.598   6.094
 2870SOL     OW10209   0.197   6.562   6.850
 2870SOL    HW110210   0.286   6.517   6.836
 2870SOL    HW210211   0.124   6.497   6.831
 2871SOL     OW10212   1.525   6.585   5.776
 2871SOL    HW110213   1.462   6.509   5.789
 2871SOL    HW210214   1.573   6.603   5.862
 2872SOL     OW10215   1.466   7.003   6.539
 2872SOL    HW110216   1.407   7.009   6.619
 2872SOL    HW210217   1.451   6.915   6.493
 2873SOL     OW10218   0.598   6.315   5.856
 2873SOL    HW110219   0.622   6.384   5.788
 2873SOL    HW210220   0.520   6.348   5.910
 2874SOL     OW10221   1.281   5.931   6.530
 2874SOL    HW110222   1.195   5.881   6.517
 2874SOL    HW210223   1.343   5.877   6.586
 2875SOL     OW10224   0.807   6.191   7.051
 2875SOL    HW110225   0.760   6.188   7.140
 2875SOL    HW210226   0.756   6.136   6.985
 2876SOL     OW10227   0.991   5.996   6.828
 2876SOL    HW110228   0.914   6.030   6.882
 2876SOL    HW210229   0.957   5.945   6.749
 2877SOL     OW10230   1.041   6.287   6.015
 2877SOL    HW110231   1.067   6.283   6.111
 2877SOL    HW210232   0.956   6.236   6.001
 2878SOL     OW10233   0.076   6.397   6.375
 2878SOL    HW110234   0.175   6.385   6.384
 2878SOL    HW210235   0.052   6.492   6.396
 2879SOL     OW10236   0.865   5.934   5.781
 2879SOL    HW110237   0.924   5.997   5.732
 2879SOL    HW210238   0.884   5.840   5.752
 2880SOL     OW10239   1.362   6.730   6.131
 2880SOL    HW110240   1.445   6.701   6.083
 2880SOL    HW210241   1.313   6.797   6.075
 2881SOL     OW10242   0.550   5.782   6.471
 2881SOL    HW110243   0.545   5.777   6.571
 2881SOL    HW210244   0.552   5.878   6.442
 2882SOL     OW10245   1.795   6.652   6.459
 2882SOL    HW110246   1.733   6.637   6.383
 2882SOL    HW210247   1.743   6.663   6.544
 2883SOL     OW10248   0.321   6.529   5.828
 2883SOL    HW110249   0.403   6.568   5.786
 2883SOL    HW210250   0.294   6.447   5.779
 2884SOL     OW10251   1.458   6.321   6.314
 2884SOL    HW110252   1.453   6.256   6.389
 2884SOL    HW210253   1.538   6.380   6.327
 2885SOL     OW10254   1.632   6.963   5.667
 2885SOL    HW110255   1.600   7.057   5.657
 2885SOL    HW210256   1.556   6.900   5.655
 2886SOL     OW10257   1.400   5.693   6.012
 2886SOL    HW110258   1.376   5.656   5.922
 2886SOL    HW210259   1.499   5.709   6.016
 2887SOL     OW10260   0.382   6.286   6.066
 2887SOL    HW110261   0.427   6.196   6.063
 2887SOL    HW210262   0.288   6.275   6.099
 2888SOL     OW10263   0.614   5.708   5.703
 2888SOL    HW110264   0.712   5.686   5.710
 2888SOL    HW210265   0.583   5.691   5.610
 2889SOL     OW10266   0.922   6.089   6.485
 2889SOL    HW110267   0.897   6.080   6.389
 2889SOL    HW210268   0.970   6.007   6.516
 2890SOL     OW10269   0.539   5.650   6.098
 2890SOL    HW110270   0.458   5.651   6.156
 2890SOL    HW210271   0.542   5.733   6.043
 2891SOL     OW10272   1.434   6.774   5.627
 2891SOL    HW110273   1.466   6.698   5.684
 2891SOL    HW210274   1.342   6.801   5.657
 2892SOL     OW10275   0.297   5.621   5.757
 2892SOL    HW110276   0.346   5.705   5.736
 2892SOL    HW210277   0.359   5.556   5.802
 2893SOL     OW10278   0.935   5.822   6.066
 2893SOL    HW110279   0.887   5.863   5.988
 2893SOL    HW210280   1.034   5.820   6.047
 2894SOL     OW10281   1.227   7.156   6.379
 2894SOL    HW110282   1.248   7.230   6.314
 2894SOL    HW210283   1.295   7.156   6.452
 2895SOL     OW10284   0.459   6.738   6.327
 2895SOL    HW110285   0.388   6.711   6.392
 2895SOL    HW210286   0.433   6.710   6.234
 2896SOL     OW10287   1.032   6.135   5.602
 2896SOL    HW110288   0.991   6.217   5.563
 2896SOL    HW210289   1.096   6.161   5.675
 2897SOL     OW10290   0.561   5.808   6.733
 2897SOL    HW110291   0.599   5.724   6.770
 2897SOL    HW210292   0.473   5.827   6.777
 2898SOL     OW10293   0.866   6.040   6.228
 2898SOL    HW110294   0.834   6.112   6.166
 2898SOL    HW210295   0.890   5.959   6.175
 2899SOL     OW10296   1.017   5.625   6.339
 2899SOL    HW110297   0.945   5.630   6.270
 2899SOL    HW210298   0.993   5.556   6.408
 2900SOL     OW10299   1.429   6.759   6.453
 2900SOL    HW110300   1.374   6.675   6.446
 2900SOL    HW210301   1.455   6.788   6.361
 2901SOL     OW10302   1.466   6.176   6.578
 2901SOL    HW110303   1.436   6.081   6.585
 2901SOL    HW210304   1.539   6.192   6.644
 2902SOL     OW10305   1.857   6.419   5.963
 2902SOL    HW110306   1.899   6.355   6.027
 2902SOL    HW210307   1.819   6.368   5.885
 2903SOL     OW10308   1.664   6.866   6.243
 2903SOL    HW110309   1.763   6.874   6.257
 2903SOL    HW210310   1.619   6.950   6.274
 2904SOL     OW10311   1.390   6.161   5.664
 2904SOL    HW110312   1.336   6.140   5.745
 2904SOL    HW210313   1.481   6.120   5.673
 2905SOL     OW10314   0.527   5.842   5.914
 2905SOL    HW110315   0.554   5.783   5.839
 2905SOL    HW210316   0.527   5.937   5.883
 2906SOL     OW10317   1.754   6.809   7.174
 2906SOL    HW110318   1.845   6.770   7.161
 2906SOL    HW210319   1.762   6.905   7.198
 2907SOL     OW10320   1.064   6.933   6.926
 2907SOL    HW110321   0.984   6.910   6.981
 2907SOL    HW210322   1.147   6.907   6.975
 2908SOL     OW10323   1.111   6.781   6.686
 2908SOL    HW110324   1.071   6.825   6.767
 2908SOL    HW210325   1.070   6.818   6.603
 2909SOL     OW10326   1.638   6.685   6.665
 2909SOL    HW110327   1.643   6.766   6.724
 2909SOL    HW210328   1.552   6.687   6.614
 2910SOL     OW10329   0.705   6.636   5.954
 2910SOL    HW110330   0.691   6.643   6.053
 2910SOL    HW210331   0.789   6.585   5.936
 2911SOL     OW10332   0.410   6.399   6.837
 2911SOL    HW110333   0.496   6.411   6.887
 2911SOL    HW210334   0.368   6.312   6.864
 2912SOL     OW10335   1.274   5.972   6.848
 2912SOL    HW110336   1.295   6.046   6.912
 2912SOL    HW210337   1.185   5.989   6.805
 2913SOL     OW10338   0.064   7.150   6.917
 2913SOL    HW110339   0.018   7.232   6.883
 2913SOL    HW210340   0.162   7.169   6.926
 2914SOL     OW10341   0.367   6.686   6.087
 2914SOL    HW110342   0.360   6.769   6.031
 2914SOL    HW210343   0.371   6.606   6.027
 2915SOL     OW10344   0.566   6.123   6.451
 2915SOL    HW110345   0.578   6.189   6.377
 2915SOL    HW210346   0.612   6.157   6.534
 2916SOL     OW10347   1.582   6.225   6.058
 2916SOL    HW110348   1.551   6.286   6.131
 2916SOL    HW210349   1.632   6.277   5.989
 2917SOL     OW10350   0.573   6.456   6.615
 2917SOL    HW110351   0.617   6.545   6.606
 2917SOL    HW210352   0.510   6.456   6.692
 2918SOL     OW10353   1.360   6.448   6.631
 2918SOL    HW110354   1.285   6.448   6.565
 2918SOL    HW210355   1.397   6.356   6.640
 2919SOL     OW10356   1.209   6.111   5.861
 2919SOL    HW110357   1.222   6.027   5.915
 2919SOL    HW210358   1.180   6.185   5.921
 2920SOL     OW10359   0.037   6.896   6.868
 2920SOL    HW110360   0.090   6.847   6.936
 2920SOL    HW210361   0.059   6.994   6.873
 2921SOL     OW10362   0.732   6.220   6.650
 2921SOL    HW110363   0.791   6.194   6.574
 2921SOL    HW210364   0.704   6.316   6.639
 2922SOL     OW10365   0.307   5.649   6.204
 2922SOL    HW110366   0.296   5.743   6.237
 2922SOL    HW210367   0.302   5.586   6.281
 2923SOL     OW10368   1.622   5.953   5.960
 2923SOL    HW110369   1.624   5.877   6.024
 2923SOL    HW210370   1.574   6.030   6.000
 2924SOL     OW10371   1.023   6.352   6.552
 2924SOL    HW110372   1.038   6.373   6.648
 2924SOL    HW210373   0.993   6.257   6.543
 2925SOL     OW10374   1.540   5.860   5.711
 2925SOL    HW110375   1.479   5.785   5.734
 2925SOL    HW210376   1.562   5.912   5.794
 2926SOL     OW10377   1.303   6.424   5.628
 2926SOL    HW110378   1.337   6.331   5.643
 2926SOL    HW210379   1.321   6.451   5.533
 2927SOL     OW10380   1.160   5.793   7.063
 2927SOL    HW110381   1.160   5.857   7.140
 2927SOL    HW210382   1.188   5.841   6.980
 2928SOL     OW10383   0.008   6.912   5.786
 2928SOL    HW110384  -0.085   6.933   5.755
 2928SOL    HW210385   0.018   6.813   5.799
 2929SOL     OW10386   1.002   6.382   6.824
 2929SOL    HW110387   1.043   6.350   6.910
 2929SOL    HW210388   0.906   6.355   6.821
 2930SOL     OW10389   0.815   6.158   5.911
 2930SOL    HW110390   0.822   6.069   5.865
 2930SOL    HW210391   0.721   6.192   5.903
 2931SOL     OW10392   1.657   6.190   6.792
 2931SOL    HW110393   1.619   6.121   6.854
 2931SOL    HW210394   1.739   6.154   6.748
 2932SOL     OW10395   0.671   6.050   6.855
 2932SOL    HW110396   0.637   5.961   6.825
 2932SOL    HW210397   0.697   6.104   6.775
 2933SOL     OW10398   0.473   6.086   5.777
 2933SOL    HW110399   0.534   6.166   5.781
 2933SOL    HW210400   0.378   6.117   5.784
 2934SOL     OW10401   0.159   6.723   7.052
 2934SOL    HW110402   0.181   6.662   7.128
 2934SOL    HW210403   0.169   6.674   6.966
 2935SOL     OW10404   1.347   6.645   6.820
 2935SOL    HW110405   1.371   6.582   6.746
 2935SOL    HW210406   1.257   6.685   6.802
 2936SOL     OW10407   1.302   6.441   5.895
 2936SOL    HW110408   1.216   6.410   5.937
 2936SOL    HW210409   1.298   6.427   5.796
 2937SOL     OW10410   0.083   6.844   6.608
 2937SOL    HW110411   0.078   6.843   6.708
 2937SOL    HW210412   0.000   6.803   6.570
 2938SOL     OW10413   1.726   5.721   6.109
 2938SOL    HW110414   1.799   5.704   6.042
 2938SOL    HW210415   1.695   5.634   6.147
 2939SOL     OW10416   1.280   6.513   6.258
 2939SOL    HW110417   1.340   6.432   6.260
 2939SOL    HW210418   1.320   6.582   6.198
 2940SOL     OW10419   0.830   6.859   7.008
 2940SOL    HW110420   0.825   6.892   7.103
 2940SOL    HW210421   0.744   6.878   6.962
 2941SOL     OW10422   1.841   5.761   6.549
 2941SOL    HW110423   1.880   5.676   6.513
 2941SOL    HW210424   1.743   5.763   6.530
 2942SOL     OW10425   0.263   5.912   6.306
 2942SOL    HW110426   0.184   5.963   6.272
 2942SOL    HW210427   0.254   5.897   6.404
 2943SOL     OW10428   1.194   7.198   5.617
 2943SOL    HW110429   1.200   7.105   5.654
 2943SOL    HW210430   1.135   7.198   5.537
 2944SOL     OW10431   0.822   6.588   6.958
 2944SOL    HW110432   0.862   6.587   6.866
 2944SOL    HW210433   0.832   6.680   6.998
 2945SOL     OW10434   0.916   6.496   5.877
 2945SOL    HW110435   0.979   6.534   5.809
 2945SOL    HW210436   0.956   6.413   5.916
 2946SOL     OW10437   0.372   6.874   7.076
 2946SOL    HW110438   0.359   6.967   7.042
 2946SOL    HW210439   0.288   6.822   7.063
 2947SOL     OW10440   1.614   6.878   6.875
 2947SOL    HW110441   1.674   6.881   6.955
 2947SOL    HW210442   1.539   6.942   6.888
 2948SOL     OW10443   1.039   6.684   6.282
 2948SOL    HW110444   0.969   6.637   6.336
 2948SOL    HW210445   1.098   6.616   6.239
 2949SOL     OW10446   1.014   5.822   6.557
 2949SOL    HW110447   1.006   5.786   6.464
 2949SOL    HW210448   1.012   5.746   6.622
 2950SOL     OW10449   1.709   5.971   6.967
 2950SOL    HW110450   1.782   6.040   6.971
 2950SOL    HW210451   1.737   5.896   6.908
 2951SOL     OW10452   0.672   5.789   7.075
 2951SOL    HW110453   0.762   5.773   7.035
 2951SOL    HW210454   0.680   5.794   7.174
 2952SOL     OW10455   0.075   5.931   5.619
 2952SOL    HW110456  -0.017   5.903   5.590
 2952SOL    HW210457   0.106   6.008   5.563
 2953SOL     OW10458   0.072   5.752   5.904
 2953SOL    HW110459   0.055   5.835   5.850
 2953SOL    HW210460   0.162   5.715   5.882
 2954SOL     OW10461   1.450   6.806   7.219
 2954SOL    HW110462   1.441   6.796   7.318
 2954SOL    HW210463   1.546   6.799   7.193
 2955SOL     OW10464   1.674   6.469   6.840
 2955SOL    HW110465   1.647   6.380   6.803
 2955SOL    HW210466   1.675   6.537   6.767
 2956SOL     OW10467   1.225   5.911   6.035
 2956SOL    HW110468   1.290   5.837   6.024
 2956SOL    HW210469   1.245   5.961   6.119
 2957SOL     OW10470   0.594   6.331   6.238
 2957SOL    HW110471   0.644   6.416   6.219
 2957SOL    HW210472   0.506   6.333   6.190
 2958SOL     OW10473   1.730   6.520   7.103
 2958SOL    HW110474   1.768   6.611   7.118
 2958SOL    HW210475   1.722   6.503   7.004
 2959SOL     OW10476   0.859   6.542   6.447
 2959SOL    HW110477   0.913   6.473   6.495
 2959SOL    HW210478   0.827   6.611   6.513
 2960SOL     OW10479   1.083   6.570   5.673
 2960SOL    HW110480   1.060   6.623   5.591
 2960SOL    HW210481   1.164   6.514   5.654
 2961SOL     OW10482   0.079   6.826   6.239
 2961SOL    HW110483   0.078   6.779   6.327
 2961SOL    HW210484   0.161   6.798   6.188
 2962SOL     OW10485   1.824   5.778   6.813
 2962SOL    HW110486   1.820   5.688   6.857
 2962SOL    HW210487   1.827   5.767   6.714
 2963SOL     OW10488   0.428   6.010   6.106
 2963SOL    HW110489   0.458   5.938   6.044
 2963SOL    HW210490   0.389   5.970   6.189
 2964SOL     OW10491   1.705   7.073   6.690
 2964SOL    HW110492   1.612   7.048   6.663
 2964SOL    HW210493   1.731   7.023   6.772
 2965SOL     OW10494   1.424   5.800   6.698
 2965SOL    HW110495   1.476   5.735   6.753
 2965SOL    HW210496   1.375   5.863   6.759
 2966SOL     OW10497   1.001   5.620   6.740
 2966SOL    HW110498   0.938   5.548   6.709
 2966SOL    HW210499   1.094   5.584   6.740
 2967SOL     OW10500   0.770   6.916   5.887
 2967SOL    HW110501   0.724   6.829   5.904
 2967SOL    HW210502   0.861   6.913   5.928
 2968SOL     OW10503   1.352   5.638   5.754
 2968SOL    HW110504   1.387   5.597   5.670
 2968SOL    HW210505   1.262   5.600   5.774
 2969SOL     OW10506   1.300   6.039   6.277
 2969SOL    HW110507   1.241   6.119   6.281
 2969SOL    HW210508   1.315   6.004   6.370
 2970SOL     OW10509   1.593   5.807   6.468
 2970SOL    HW110510   1.509   5.806   6.522
 2970SOL    HW210511   1.595   5.890   6.412
 2971SOL     OW10512   0.039   6.663   5.886
 2971SOL    HW110513   0.138   6.652   5.877
 2971SOL    HW210514  -0.001   6.577   5.918
 2972SOL     OW10515   2.092   0.628   0.113
 2972SOL    HW110516   1.999   0.626   0.150
 2972SOL    HW210517   2.093   0.589   0.021
 2973SOL     OW10518   2.087   0.275   0.996
 2973SOL    HW110519   2.122   0.258   1.088
 2973SOL    HW210520   1.999   0.230   0.984
 2974SOL     OW10521   1.881   0.368   0.647
 2974SOL    HW110522   1.799   0.411   0.686
 2974SOL    HW210523   1.853   0.295   0.584
 2975SOL     OW10524   2.431   1.275   1.165
 2975SOL    HW110525   2.338   1.268   1.128
 2975SOL    HW210526   2.442   1.364   1.209
 2976SOL     OW10527   3.417   1.511   0.703
 2976SOL    HW110528   3.360   1.495   0.784
 2976SOL    HW210529   3.358   1.521   0.623
 2977SOL     OW10530   2.997   0.703   0.717
 2977SOL    HW110531   3.054   0.781   0.692
 2977SOL    HW210532   2.937   0.729   0.793
 2978SOL     OW10533   3.617   0.607   0.231
 2978SOL    HW110534   3.605   0.594   0.132
 2978SOL    HW210535   3.587   0.526   0.280
 2979SOL     OW10536   2.630   1.144   1.023
 2979SOL    HW110537   2.552   1.161   1.083
 2979SOL    HW210538   2.664   1.231   0.987
 2980SOL     OW10539   2.712   0.798   1.823
 2980SOL    HW110540   2.708   0.874   1.888
 2980SOL    HW210541   2.734   0.834   1.732
 2981SOL     OW10542   2.547   1.012   0.665
 2981SOL    HW110543   2.616   0.996   0.735
 2981SOL    HW210544   2.474   1.069   0.703
 2982SOL     OW10545   2.548   1.161   1.803
 2982SOL    HW110546   2.608   1.240   1.817
 2982SOL    HW210547   2.462   1.192   1.762
 2983SOL     OW10548   2.197   1.435   1.061
 2983SOL    HW110549   2.119   1.404   1.008
 2983SOL    HW210550   2.255   1.493   1.004
 2984SOL     OW10551   3.322   1.505   1.339
 2984SOL    HW110552   3.346   1.599   1.365
 2984SOL    HW210553   3.306   1.451   1.421
 2985SOL     OW10554   2.300   0.392   1.499
 2985SOL    HW110555   2.382   0.336   1.508
 2985SOL    HW210556   2.219   0.334   1.503
 2986SOL     OW10557   3.465   0.447   0.737
 2986SOL    HW110558   3.391   0.493   0.687
 2986SOL    HW210559   3.516   0.515   0.790
 2987SOL     OW10560   2.093   1.713   0.483
 2987SOL    HW110561   2.127   1.790   0.537
 2987SOL    HW210562   2.137   1.713   0.393
 2988SOL     OW10563   2.989   1.341   1.690
 2988SOL    HW110564   3.036   1.341   1.778
 2988SOL    HW210565   2.941   1.254   1.679
 2989SOL     OW10566   2.092   1.434   0.538
 2989SOL    HW110567   2.066   1.530   0.538
 2989SOL    HW210568   2.021   1.380   0.583
 2990SOL     OW10569   2.102   1.091   0.886
 2990SOL    HW110570   2.116   1.007   0.938
 2990SOL    HW210571   2.047   1.155   0.941
 2991SOL     OW10572   2.482   1.786   1.439
 2991SOL    HW110573   2.390   1.769   1.474
 2991SOL    HW210574   2.510   1.878   1.465
 2992SOL     OW10575   2.468   0.964   0.123
 2992SOL    HW110576   2.475   1.048   0.069
 2992SOL    HW210577   2.514   0.977   0.211
 2993SOL     OW10578   3.456   0.114   1.480
 2993SOL    HW110579   3.438   0.181   1.408
 2993SOL    HW210580   3.453   0.160   1.569
 2994SOL     OW10581   1.984   0.643   0.563
 2994SOL    HW110582   1.939   0.555   0.580
 2994SOL    HW210583   1.983   0.697   0.647
 2995SOL     OW10584   3.704   1.767   0.359
 2995SOL    HW110585   3.758   1.738   0.439
 2995SOL    HW210586   3.734   1.857   0.330
 2996SOL     OW10587   3.551   0.922   0.612
 2996SOL    HW110588   3.646   0.893   0.620
 2996SOL    HW210589   3.543   0.987   0.537
 2997SOL     OW10590   3.503   1.108   0.432
 2997SOL    HW110591   3.589   1.110   0.380
 2997SOL    HW210592   3.517   1.155   0.520
 2998SOL     OW10593   1.975   0.737   1.597
 2998SOL    HW110594   2.063   0.724   1.642
 2998SOL    HW210595   1.962   0.834   1.575
 2999SOL     OW10596   2.475   1.365   0.726
 2999SOL    HW110597   2.426   1.278   0.735
 2999SOL    HW210598   2.452   1.408   0.639
 3000SOL     OW10599   3.155   1.228   1.423
 3000SOL    HW110600   3.192   1.155   1.365
 3000SOL    HW210601   3.207   1.233   1.508
 3001SOL     OW10602   2.671   0.004   0.502
 3001SOL    HW110603   2.711   0.095   0.493
 3001SOL    HW210604   2.571   0.012   0.508
 3002SOL     OW10605   2.059   0.976   1.264
 3002SOL    HW110606   2.148   0.931   1.250
 3002SOL    HW210607   1.986   0.911   1.245
 3003SOL     OW10608   3.387   0.999   0.190
 3003SOL    HW110609   3.324   0.923   0.203
 3003SOL    HW210610   3.435   1.017   0.276
 3004SOL     OW10611   3.049   1.792   1.616
 3004SOL    HW110612   3.073   1.852   1.540
 3004SOL    HW210613   3.056   1.697   1.586
 3005SOL     OW10614   2.179   0.251   1.801
 3005SOL    HW110615   2.250   0.322   1.807
 3005SOL    HW210616   2.091   0.290   1.829
 3006SOL     OW10617   3.328   1.417   0.953
 3006SOL    HW110618   3.269   1.423   1.033
 3006SOL    HW210619   3.313   1.329   0.907
 3007SOL     OW10620   3.529   1.714   0.572
 3007SOL    HW110621   3.488   1.691   0.484
 3007SOL    HW210622   3.511   1.640   0.637
 3008SOL     OW10623   2.460   0.729   0.270
 3008SOL    HW110624   2.484   0.798   0.202
 3008SOL    HW210625   2.382   0.762   0.324
 3009SOL     OW10626   3.143   0.345   0.944
 3009SOL    HW110627   3.057   0.295   0.931
 3009SOL    HW210628   3.205   0.291   1.000
 3010SOL     OW10629   3.438   1.662   0.307
 3010SOL    HW110630   3.527   1.708   0.310
 3010SOL    HW210631   3.417   1.638   0.212
 3011SOL     OW10632   2.669   0.605   1.465
 3011SOL    HW110633   2.622   0.602   1.554
 3011SOL    HW210634   2.618   0.550   1.399
 3012SOL     OW10635   3.256   0.469   1.674
 3012SOL    HW110636   3.236   0.512   1.762
 3012SOL    HW210637   3.334   0.407   1.683
 3013SOL     OW10638   2.835   0.890   1.572
 3013SOL    HW110639   2.881   0.806   1.543
 3013SOL    HW210640   2.779   0.924   1.497
 3014SOL     OW10641   2.853   0.410   1.242
 3014SOL    HW110642   2.776   0.444   1.296
 3014SOL    HW210643   2.819   0.359   1.163
 3015SOL     OW10644   2.903   0.701   0.429
 3015SOL    HW110645   2.929   0.697   0.525
 3015SOL    HW210646   2.818   0.650   0.415
 3016SOL     OW10647   1.938   0.811   0.789
 3016SOL    HW110648   2.037   0.799   0.798
 3016SOL    HW210649   1.914   0.906   0.810
 3017SOL     OW10650   1.992   1.821   1.571
 3017SOL    HW110651   1.982   1.806   1.670
 3017SOL    HW210652   1.906   1.857   1.535
 3018SOL     OW10653   2.727   0.348   0.195
 3018SOL    HW110654   2.786   0.411   0.146
 3018SOL    HW210655   2.746   0.254   0.166
 3019SOL     OW10656   3.581   0.585   1.831
 3019SOL    HW110657   3.555   0.674   1.795
 3019SOL    HW210658   3.579   0.517   1.758
 3020SOL     OW10659   3.224   1.144   0.545
 3020SOL    HW110660   3.307   1.115   0.497
 3020SOL    HW210661   3.175   1.211   0.489
 3021SOL     OW10662   2.412   0.196   0.885
 3021SOL    HW110663   2.407   0.191   0.985
 3021SOL    HW210664   2.414   0.292   0.856
 3022SOL     OW10665   2.870   1.456   0.477
 3022SOL    HW110666   2.824   1.528   0.425
 3022SOL    HW210667   2.866   1.476   0.575
 3023SOL     OW10668   2.213   1.801   0.853
 3023SOL    HW110669   2.263   1.715   0.859
 3023SOL    HW210670   2.278   1.878   0.850
 3024SOL     OW10671   3.657   1.066   0.873
 3024SOL    HW110672   3.595   1.051   0.797
 3024SOL    HW210673   3.605   1.077   0.958
 3025SOL     OW10674   3.089   1.550   1.506
 3025SOL    HW110675   3.095   1.473   1.570
 3025SOL    HW210676   3.037   1.524   1.426
 3026SOL     OW10677   2.183   0.943   0.242
 3026SOL    HW110678   2.265   0.982   0.200
 3026SOL    HW210679   2.156   0.861   0.193
 3027SOL     OW10680   3.320   0.735   0.728
 3027SOL    HW110681   3.315   0.670   0.803
 3027SOL    HW210682   3.400   0.794   0.741
 3028SOL     OW10683   2.323   1.266   1.727
 3028SOL    HW110684   2.273   1.267   1.641
 3028SOL    HW210685   2.260   1.248   1.803
 3029SOL     OW10686   2.973   1.776   0.237
 3029SOL    HW110687   2.913   1.714   0.287
 3029SOL    HW210688   3.004   1.732   0.152
 3030SOL     OW10689   2.064   0.285   1.498
 3030SOL    HW110690   1.984   0.345   1.485
 3030SOL    HW210691   2.054   0.236   1.584
 3031SOL     OW10692   3.494   1.377   0.081
 3031SOL    HW110693   3.462   1.471   0.071
 3031SOL    HW210694   3.418   1.314   0.069
 3032SOL     OW10695   2.326   1.743   0.323
 3032SOL    HW110696   2.359   1.782   0.409
 3032SOL    HW210697   2.402   1.736   0.258
 3033SOL     OW10698   3.262   0.107   0.426
 3033SOL    HW110699   3.238   0.070   0.336
 3033SOL    HW210700   3.361   0.123   0.430
 3034SOL     OW10701   2.111   1.785   1.241
 3034SOL    HW110702   2.168   1.720   1.291
 3034SOL    HW210703   2.095   1.752   1.148
 3035SOL     OW10704   2.802   1.698   0.904
 3035SOL    HW110705   2.882   1.641   0.925
 3035SOL    HW210706   2.753   1.658   0.827
 3036SOL     OW10707   2.244   0.700   0.480
 3036SOL    HW110708   2.289   0.610   0.477
 3036SOL    HW210709   2.150   0.689   0.513
 3037SOL     OW10710   3.409   0.222   1.729
 3037SOL    HW110711   3.404   0.259   1.821
 3037SOL    HW210712   3.337   0.153   1.717
 3038SOL     OW10713   2.476   0.122   0.117
 3038SOL    HW110714   2.574   0.100   0.124
 3038SOL    HW210715   2.445   0.105   0.024
 3039SOL     OW10716   2.643   0.264   1.749
 3039SOL    HW110717   2.710   0.203   1.792
 3039SOL    HW210718   2.570   0.283   1.814
 3040SOL     OW10719   2.750   1.514   1.195
 3040SOL    HW110720   2.727   1.489   1.101
 3040SOL    HW210721   2.811   1.445   1.234
 3041SOL     OW10722   3.213   0.590   1.433
 3041SOL    HW110723   3.241   0.547   1.518
 3041SOL    HW210724   3.238   0.686   1.434
 3042SOL     OW10725   2.665   1.402   0.924
 3042SOL    HW110726   2.755   1.416   0.882
 3042SOL    HW210727   2.594   1.404   0.853
 3043SOL     OW10728   2.784   0.503   0.899
 3043SOL    HW110729   2.759   0.494   0.803
 3043SOL    HW210730   2.832   0.421   0.930
 3044SOL     OW10731   2.401   0.064   0.512
 3044SOL    HW110732   2.320   0.065   0.570
 3044SOL    HW210733   2.404   0.147   0.457
 3045SOL     OW10734   3.296   1.188   0.041
 3045SOL    HW110735   3.328   1.112   0.098
 3045SOL    HW210736   3.204   1.215   0.071
 3046SOL     OW10737   2.159   0.035   0.171
 3046SOL    HW110738   2.208   0.119   0.150
 3046SOL    HW210739   2.221  -0.030   0.216
 3047SOL     OW10740   2.797   0.236   0.480
 3047SOL    HW110741   2.749   0.277   0.402
 3047SOL    HW210742   2.896   0.234   0.461
 3048SOL     OW10743   2.938   0.683   1.464
 3048SOL    HW110744   2.858   0.622   1.467
 3048SOL    HW210745   3.019   0.630   1.440
 3049SOL     OW10746   3.089   1.570   0.793
 3049SOL    HW110747   3.110   1.644   0.728
 3049SOL    HW210748   3.157   1.570   0.866
 3050SOL     OW10749   2.321   1.152   0.741
 3050SOL    HW110750   2.250   1.125   0.806
 3050SOL    HW210751   2.295   1.124   0.648
 3051SOL     OW10752   3.133   1.797   0.591
 3051SOL    HW110753   3.177   1.861   0.527
 3051SOL    HW210754   3.083   1.849   0.661
 3052SOL     OW10755   2.894   0.549   0.016
 3052SOL    HW110756   2.853   0.631  -0.023
 3052SOL    HW210757   2.958   0.575   0.089
 3053SOL     OW10758   1.940   0.556   1.386
 3053SOL    HW110759   2.032   0.555   1.345
 3053SOL    HW210760   1.934   0.630   1.453
 3054SOL     OW10761   2.423   0.222   1.147
 3054SOL    HW110762   2.461   0.138   1.184
 3054SOL    HW210763   2.335   0.241   1.191
 3055SOL     OW10764   2.728   0.454   0.642
 3055SOL    HW110765   2.696   0.526   0.580
 3055SOL    HW210766   2.752   0.373   0.589
 3056SOL     OW10767   2.879   0.039   0.753
 3056SOL    HW110768   2.807   0.044   0.684
 3056SOL    HW210769   2.855  -0.030   0.822
 3057SOL     OW10770   3.291   1.173   0.867
 3057SOL    HW110771   3.236   1.089   0.860
 3057SOL    HW210772   3.317   1.202   0.775
 3058SOL     OW10773   3.328   0.590   0.992
 3058SOL    HW110774   3.298   0.495   0.999
 3058SOL    HW210775   3.401   0.606   1.058
 3059SOL     OW10776   3.719   0.833   0.377
 3059SOL    HW110777   3.761   0.769   0.441
 3059SOL    HW210778   3.681   0.782   0.299
 3060SOL     OW10779   2.350   1.385   0.174
 3060SOL    HW110780   2.263   1.370   0.221
 3060SOL    HW210781   2.333   1.411   0.079
 3061SOL     OW10782   3.526   1.280   0.657
 3061SOL    HW110783   3.625   1.288   0.671
 3061SOL    HW210784   3.481   1.364   0.688
 3062SOL     OW10785   3.252   0.575   0.078
 3062SOL    HW110786   3.198   0.554   0.159
 3062SOL    HW210787   3.343   0.534   0.087
 3063SOL     OW10788   2.389   0.256   0.328
 3063SOL    HW110789   2.416   0.197   0.253
 3063SOL    HW210790   2.389   0.351   0.297
 3064SOL     OW10791   3.616   1.223   1.588
 3064SOL    HW110792   3.707   1.184   1.575
 3064SOL    HW210793   3.624   1.319   1.612
 3065SOL     OW10794   2.926   1.347   1.340
 3065SOL    HW110795   2.846   1.324   1.395
 3065SOL    HW210796   3.009   1.321   1.389
 3066SOL     OW10797   3.454   1.629   1.625
 3066SOL    HW110798   3.481   1.663   1.535
 3066SOL    HW210799   3.533   1.591   1.671
 3067SOL     OW10800   2.973   1.195   1.100
 3067SOL    HW110801   2.933   1.239   1.181
 3067SOL    HW210802   2.932   1.232   1.017
 3068SOL     OW10803   3.500   1.099   1.079
 3068SOL    HW110804   3.505   1.180   1.138
 3068SOL    HW210805   3.414   1.101   1.028
 3069SOL     OW10806   2.777   0.089   1.402
 3069SOL    HW110807   2.802   0.069   1.307
 3069SOL    HW210808   2.849   0.145   1.444
 3070SOL     OW10809   2.842   1.116   1.719
 3070SOL    HW110810   2.743   1.122   1.729
 3070SOL    HW210811   2.865   1.036   1.663
 3071SOL     OW10812   2.567   1.050   0.368
 3071SOL    HW110813   2.553   1.057   0.467
 3071SOL    HW210814   2.651   0.999   0.350
 3072SOL     OW10815   2.272   0.813   1.251
 3072SOL    HW110816   2.358   0.825   1.301
 3072SOL    HW210817   2.230   0.726   1.278
 3073SOL     OW10818   3.136   0.386   1.262
 3073SOL    HW110819   3.157   0.460   1.326
 3073SOL    HW210820   3.047   0.403   1.219
 3074SOL     OW10821   1.926   1.564   1.331
 3074SOL    HW110822   1.880   1.646   1.297
 3074SOL    HW210823   2.024   1.583   1.340
 3075SOL     OW10824   2.229   1.100   0.501
 3075SOL    HW110825   2.222   1.183   0.445
 3075SOL    HW210826   2.233   1.020   0.441
 3076SOL     OW10827   2.428   0.537   0.865
 3076SOL    HW110828   2.440   0.603   0.791
 3076SOL    HW210829   2.474   0.571   0.948
 3077SOL     OW10830   3.114   1.348   0.388
 3077SOL    HW110831   3.164   1.425   0.428
 3077SOL    HW210832   3.019   1.350   0.420
 3078SOL     OW10833   3.134   1.445   1.142
 3078SOL    HW110834   3.181   1.458   1.229
 3078SOL    HW210835   3.068   1.371   1.151
 3079SOL     OW10836   3.444   0.639   0.472
 3079SOL    HW110837   3.413   0.700   0.545
 3079SOL    HW210838   3.494   0.691   0.403
 3080SOL     OW10839   2.216   1.510   1.329
 3080SOL    HW110840   2.195   1.466   1.242
 3080SOL    HW210841   2.313   1.536   1.332
 3081SOL     OW10842   2.264   0.751   1.598
 3081SOL    HW110843   2.332   0.806   1.551
 3081SOL    HW210844   2.304   0.663   1.625
 3082SOL     OW10845   3.449   0.779   1.670
 3082SOL    HW110846   3.357   0.817   1.665
 3082SOL    HW210847   3.509   0.826   1.605
 3083SOL     OW10848   2.875   0.105   1.770
 3083SOL    HW110849   2.881   0.190   1.718
 3083SOL    HW210850   2.907   0.029   1.713
 3084SOL     OW10851   2.366   0.050   1.740
 3084SOL    HW110852   2.324  -0.007   1.670
 3084SOL    HW210853   2.300   0.119   1.772
 3085SOL     OW10854   2.435   0.870   1.029
 3085SOL    HW110855   2.479   0.959   1.020
 3085SOL    HW210856   2.372   0.870   1.106
 3086SOL     OW10857   3.222   0.862   1.045
 3086SOL    HW110858   3.147   0.862   0.979
 3086SOL    HW210859   3.259   0.770   1.054
 3087SOL     OW10860   3.071   0.525   0.275
 3087SOL    HW110861   3.084   0.441   0.329
 3087SOL    HW210862   3.042   0.599   0.335
 3088SOL     OW10863   2.169   0.213   1.231
 3088SOL    HW110864   2.146   0.250   1.321
 3088SOL    HW210865   2.139   0.118   1.225
 3089SOL     OW10866   1.899   1.310   1.282
 3089SOL    HW110867   1.952   1.261   1.350
 3089SOL    HW210868   1.921   1.408   1.287
 3090SOL     OW10869   2.594   0.634   1.064
 3090SOL    HW110870   2.653   0.608   0.988
 3090SOL    HW210871   2.566   0.730   1.053
 3091SOL     OW10872   3.590   0.935   1.854
 3091SOL    HW110873   3.544   0.928   1.765
 3091SOL    HW210874   3.528   0.979   1.920
 3092SOL     OW10875   2.169   0.063   0.618
 3092SOL    HW110876   2.158   0.157   0.651
 3092SOL    HW210877   2.164   0.000   0.695
 3093SOL     OW10878   3.484   0.367   0.374
 3093SOL    HW110879   3.486   0.291   0.438
 3093SOL    HW210880   3.436   0.444   0.414
 3094SOL     OW10881   2.885   0.766   0.966
 3094SOL    HW110882   2.900   0.787   1.062
 3094SOL    HW210883   2.855   0.671   0.957
 3095SOL     OW10884   2.842   1.573   1.700
 3095SOL    HW110885   2.822   1.617   1.612
 3095SOL    HW210886   2.881   1.482   1.684
 3096SOL     OW10887   3.721   1.518   1.605
 3096SOL    HW110888   3.735   1.545   1.510
 3096SOL    HW210889   3.804   1.540   1.658
 3097SOL     OW10890   2.212   0.898   1.804
 3097SOL    HW110891   2.288   0.942   1.852
 3097SOL    HW210892   2.247   0.851   1.722
 3098SOL     OW10893   3.402   0.274   0.125
 3098SOL    HW110894   3.341   0.199   0.148
 3098SOL    HW210895   3.424   0.326   0.208
 3099SOL     OW10896   3.165   0.838   0.042
 3099SOL    HW110897   3.199   0.745   0.057
 3099SOL    HW210898   3.183   0.865  -0.053
 3100SOL     OW10899   2.930   1.333   0.849
 3100SOL    HW110900   2.937   1.249   0.794
 3100SOL    HW210901   2.992   1.402   0.813
 3101SOL     OW10902   2.181   0.810   0.949
 3101SOL    HW110903   2.274   0.846   0.954
 3101SOL    HW210904   2.175   0.725   1.001
 3102SOL     OW10905   2.201   0.509   1.006
 3102SOL    HW110906   2.149   0.426   0.989
 3102SOL    HW210907   2.278   0.514   0.942
 3103SOL     OW10908   3.000   0.380   1.678
 3103SOL    HW110909   2.955   0.443   1.742
 3103SOL    HW210910   3.093   0.411   1.661
 3104SOL     OW10911   3.022   0.207   1.477
 3104SOL    HW110912   3.022   0.271   1.554
 3104SOL    HW210913   3.050   0.255   1.394
 3105SOL     OW10914   1.950   1.801   0.927
 3105SOL    HW110915   1.908   1.715   0.900
 3105SOL    HW210916   2.044   1.804   0.893
 3106SOL     OW10917   2.366   1.568   0.910
 3106SOL    HW110918   2.432   1.642   0.919
 3106SOL    HW210919   2.410   1.489   0.868
 3107SOL     OW10920   2.864   0.796   1.238
 3107SOL    HW110921   2.905   0.764   1.324
 3107SOL    HW210922   2.768   0.769   1.235
 3108SOL     OW10923   1.902   0.544   1.114
 3108SOL    HW110924   1.987   0.511   1.073
 3108SOL    HW210925   1.915   0.559   1.212
 3109SOL     OW10926   2.051   0.520   1.722
 3109SOL    HW110927   2.110   0.480   1.652
 3109SOL    HW210928   1.993   0.591   1.681
 3110SOL     OW10929   3.231   0.950   1.660
 3110SOL    HW110930   3.270   1.039   1.680
 3110SOL    HW210931   3.241   0.930   1.563
 3111SOL     OW10932   2.677   0.572   0.325
 3111SOL    HW110933   2.684   0.483   0.279
 3111SOL    HW210934   2.583   0.606   0.317
 3112SOL     OW10935   3.519   0.604   1.206
 3112SOL    HW110936   3.481   0.535   1.268
 3112SOL    HW210937   3.601   0.568   1.162
 3113SOL     OW10938   2.114   1.564   1.744
 3113SOL    HW110939   2.084   1.621   1.820
 3113SOL    HW210940   2.107   1.467   1.770
 3114SOL     OW10941   2.533   0.464   1.269
 3114SOL    HW110942   2.499   0.375   1.239
 3114SOL    HW210943   2.559   0.518   1.189
 3115SOL     OW10944   2.792   1.678   1.465
 3115SOL    HW110945   2.768   1.660   1.370
 3115SOL    HW210946   2.822   1.772   1.475
 3116SOL     OW10947   2.335   0.500   0.191
 3116SOL    HW110948   2.396   0.580   0.195
 3116SOL    HW210949   2.240   0.531   0.198
 3117SOL     OW10950   2.021   1.137   1.466
 3117SOL    HW110951   2.043   1.076   1.542
 3117SOL    HW210952   2.031   1.088   1.380
 3118SOL     OW10953   3.209   1.059   1.234
 3118SOL    HW110954   3.233   0.996   1.160
 3118SOL    HW210955   3.119   1.099   1.216
 3119SOL     OW10956   3.164   0.855   0.309
 3119SOL    HW110957   3.078   0.824   0.351
 3119SOL    HW210958   3.160   0.841   0.210
 3120SOL     OW10959   3.621   1.747   1.154
 3120SOL    HW110960   3.682   1.777   1.081
 3120SOL    HW210961   3.583   1.658   1.132
 3121SOL     OW10962   3.114   1.731   1.128
 3121SOL    HW110963   3.198   1.736   1.074
 3121SOL    HW210964   3.091   1.635   1.146
 3122SOL     OW10965   1.945   1.258   1.022
 3122SOL    HW110966   1.940   1.257   1.122
 3122SOL    HW210967   1.862   1.217   0.984
 3123SOL     OW10968   2.550   1.662   1.716
 3123SOL    HW110969   2.494   1.743   1.725
 3123SOL    HW210970   2.602   1.666   1.630
 3124SOL     OW10971   2.765   0.086   0.133
 3124SOL    HW110972   2.816   0.087   0.047
 3124SOL    HW210973   2.821   0.044   0.204
 3125SOL     OW10974   3.588   0.135   0.523
 3125SOL    HW110975   3.661   0.118   0.456
 3125SOL    HW210976   3.557   0.048   0.561
 3126SOL     OW10977   3.250   1.573   0.477
 3126SOL    HW110978   3.317   1.585   0.403
 3126SOL    HW210979   3.210   1.662   0.500
 3127SOL     OW10980   1.992   1.794   1.851
 3127SOL    HW110981   1.951   1.720   1.904
 3127SOL    HW210982   2.056   1.845   1.909
 3128SOL     OW10983   3.142   0.927   0.672
 3128SOL    HW110984   3.202   0.846   0.674
 3128SOL    HW210985   3.182   0.996   0.612
 3129SOL     OW10986   2.692   1.273   1.422
 3129SOL    HW110987   2.687   1.306   1.517
 3129SOL    HW210988   2.606   1.292   1.376
 3130SOL     OW10989   2.534   1.616   0.154
 3130SOL    HW110990   2.543   1.626   0.055
 3130SOL    HW210991   2.494   1.527   0.175
 3131SOL     OW10992   3.512   1.720   1.394
 3131SOL    HW110993   3.565   1.730   1.310
 3131SOL    HW210994   3.485   1.810   1.428
 3132SOL     OW10995   3.703   0.175   0.963
 3132SOL    HW110996   3.742   0.090   0.927
 3132SOL    HW210997   3.605   0.177   0.944
 3133SOL     OW10998   2.125   0.326   0.720
 3133SOL    HW110999   2.046   0.377   0.686
 3133SOL    HW211000   2.116   0.311   0.818
 3134SOL     OW11001   3.056   1.612   0.031
 3134SOL    HW111002   3.062   1.519   0.068
 3134SOL    HW211003   2.997   1.612  -0.049
 3135SOL     OW11004   2.684   1.002   1.372
 3135SOL    HW111005   2.724   1.001   1.280
 3135SOL    HW211006   2.694   1.094   1.412
 3136SOL     OW11007   2.778   0.910   0.291
 3136SOL    HW111008   2.841   0.948   0.223
 3136SOL    HW211009   2.818   0.827   0.330
 3137SOL     OW11010   3.366   1.607   0.044
 3137SOL    HW111011   3.274   1.644   0.051
 3137SOL    HW211012   3.404   1.627  -0.046
 3138SOL     OW11013   2.234   1.288   1.490
 3138SOL    HW111014   2.221   1.381   1.456
 3138SOL    HW211015   2.150   1.236   1.477
 3139SOL     OW11016   3.476   1.292   1.289
 3139SOL    HW111017   3.536   1.295   1.369
 3139SOL    HW211018   3.401   1.356   1.302
 3140SOL     OW11019   2.901   1.098   0.696
 3140SOL    HW111020   2.831   1.051   0.750
 3140SOL    HW211021   2.960   1.030   0.653
 3141SOL     OW11022   2.876   0.236   0.971
 3141SOL    HW111023   2.868   0.200   0.878
 3141SOL    HW211024   2.874   0.160   1.036
 3142SOL     OW11025   2.452   1.487   0.491
 3142SOL    HW111026   2.494   1.429   0.421
 3142SOL    HW211027   2.408   1.566   0.447
 3143SOL     OW11028   3.571   0.385   1.381
 3143SOL    HW111029   3.644   0.454   1.385
 3143SOL    HW211030   3.599   0.310   1.322
 3144SOL     OW11031   2.117   1.348   0.290
 3144SOL    HW111032   2.021   1.349   0.263
 3144SOL    HW211033   2.129   1.401   0.374
 3145SOL     OW11034   1.967   1.013   1.726
 3145SOL    HW111035   1.890   0.980   1.780
 3145SOL    HW211036   2.052   0.983   1.768
 3146SOL     OW11037   2.534   0.203   1.489
 3146SOL    HW111038   2.624   0.187   1.449
 3146SOL    HW211039   2.542   0.208   1.588
 3147SOL     OW11040   1.937   0.345   0.033
 3147SOL    HW111041   1.845   0.317   0.004
 3147SOL    HW211042   1.968   0.422  -0.023
 3148SOL     OW11043   3.302   0.856   1.398
 3148SOL    HW111044   3.245   0.908   1.335
 3148SOL    HW211045   3.398   0.868   1.374
 3149SOL     OW11046   1.934   0.166   0.318
 3149SOL    HW111047   1.917   0.249   0.264
 3149SOL    HW211048   2.024   0.129   0.296
 3150SOL     OW11049   3.045   1.335   0.119
 3150SOL    HW111050   2.946   1.324   0.121
 3150SOL    HW211051   3.079   1.350   0.212
 3151SOL     OW11052   2.475   0.842   1.431
 3151SOL    HW111053   2.531   0.923   1.414
 3151SOL    HW211054   2.534   0.762   1.434
 3152SOL     OW11055   3.355   1.767   0.959
 3152SOL    HW111056   3.388   1.831   0.890
 3152SOL    HW211057   3.421   1.761   1.034
 3153SOL     OW11058   2.578   0.565   1.708
 3153SOL    HW111059   2.597   0.630   1.782
 3153SOL    HW211060   2.638   0.485   1.717
 3154SOL     OW11061   3.312   1.220   1.633
 3154SOL    HW111062   3.303   1.210   1.732
 3154SOL    HW211063   3.408   1.213   1.607
 3155SOL     OW11064   2.252   1.741   1.560
 3155SOL    HW111065   2.161   1.782   1.558
 3155SOL    HW211066   2.245   1.647   1.592
 3156SOL     OW11067   3.536   0.883   1.254
 3156SOL    HW111068   3.509   0.794   1.217
 3156SOL    HW211069   3.537   0.951   1.181
 3157SOL     OW11070   3.087   0.325   0.449
 3157SOL    HW111071   3.152   0.251   0.438
 3157SOL    HW211072   3.107   0.375   0.533
 3158SOL     OW11073   2.456   0.745   0.652
 3158SOL    HW111074   2.506   0.830   0.633
 3158SOL    HW211075   2.368   0.747   0.604
 3159SOL     OW11076   3.639   0.342   1.642
 3159SOL    HW111077   3.622   0.373   1.548
 3159SOL    HW211078   3.555   0.305   1.680
 3160SOL     OW11079   3.592   0.934   1.517
 3160SOL    HW111080   3.630   1.025   1.532
 3160SOL    HW211081   3.584   0.917   1.418
 3161SOL     OW11082   2.721   1.374   0.016
 3161SOL    HW111083   2.675   1.389   0.104
 3161SOL    HW211084   2.765   1.459  -0.014
 3162SOL     OW11085   2.523   1.790   0.953
 3162SOL    HW111086   2.477   1.878   0.940
 3162SOL    HW211087   2.622   1.802   0.946
 3163SOL     OW11088   2.721   0.956   0.861
 3163SOL    HW111089   2.775   0.887   0.909
 3163SOL    HW211090   2.689   1.025   0.927
 3164SOL     OW11091   2.945   0.984   0.087
 3164SOL    HW111092   2.922   1.037   0.005
 3164SOL    HW211093   3.026   0.928   0.068
 3165SOL     OW11094   3.723   1.569   0.851
 3165SOL    HW111095   3.652   1.557   0.781
 3165SOL    HW211096   3.724   1.490   0.911
 3166SOL     OW11097   2.083   1.314   1.844
 3166SOL    HW111098   2.018   1.241   1.823
 3166SOL    HW211099   2.087   1.328   1.942
 3167SOL     OW11100   1.941   1.240   0.653
 3167SOL    HW111101   1.940   1.193   0.741
 3167SOL    HW211102   2.023   1.212   0.602
 3168SOL     OW11103   2.534   1.391   1.624
 3168SOL    HW111104   2.456   1.341   1.662
 3168SOL    HW211105   2.531   1.486   1.655
 3169SOL     OW11106   3.686   0.192   1.227
 3169SOL    HW111107   3.682   0.102   1.271
 3169SOL    HW211108   3.689   0.181   1.128
 3170SOL     OW11109   2.290   0.424   0.520
 3170SOL    HW111110   2.320   0.352   0.458
 3170SOL    HW211111   2.251   0.384   0.603
 3171SOL     OW11112   3.567   1.487   1.104
 3171SOL    HW111113   3.474   1.462   1.077
 3171SOL    HW211114   3.593   1.437   1.186
 3172SOL     OW11115   2.179   0.547   1.280
 3172SOL    HW111116   2.217   0.488   1.352
 3172SOL    HW211117   2.219   0.521   1.192
 3173SOL     OW11118   2.674   1.586   0.687
 3173SOL    HW111119   2.706   1.596   0.593
 3173SOL    HW211120   2.595   1.524   0.689
 3174SOL     OW11121   3.286   0.214   1.112
 3174SOL    HW111122   3.338   0.149   1.167
 3174SOL    HW211123   3.237   0.277   1.173
 3175SOL     OW11124   2.863   0.034   1.154
 3175SOL    HW111125   2.800  -0.038   1.123
 3175SOL    HW211126   2.956  -0.002   1.154
 3176SOL     OW11127   2.632   1.330   0.301
 3176SOL    HW111128   2.586   1.243   0.318
 3176SOL    HW211129   2.723   1.327   0.342
 3177SOL     OW11130   2.480   1.567   1.284
 3177SOL    HW111131   2.475   1.649   1.341
 3177SOL    HW211132   2.569   1.564   1.239
 3178SOL     OW11133   3.214   0.052   0.168
 3178SOL    HW111134   3.249   0.011   0.084
 3178SOL    HW211135   3.124   0.014   0.188
 3179SOL     OW11136   3.162   0.453   0.691
 3179SOL    HW111137   3.103   0.533   0.695
 3179SOL    HW211138   3.177   0.418   0.784
 3180SOL     OW11139   3.455   0.221   0.882
 3180SOL    HW111140   3.371   0.220   0.936
 3180SOL    HW211141   3.457   0.304   0.826
 3181SOL     OW11142   1.901   1.077   0.300
 3181SOL    HW111143   2.000   1.066   0.291
 3181SOL    HW211144   1.861   0.991   0.332
 3182SOL     OW11145   2.737   1.646   0.337
 3182SOL    HW111146   2.660   1.611   0.283
 3182SOL    HW211147   2.705   1.717   0.399
 3183SOL     OW11148   2.092   0.628   1.975
 3183SOL    HW111149   1.999   0.626   2.012
 3183SOL    HW211150   2.093   0.589   1.883
 3184SOL     OW11151   2.087   0.275   2.858
 3184SOL    HW111152   2.122   0.258   2.950
 3184SOL    HW211153   1.999   0.230   2.846
 3185SOL     OW11154   1.881   0.368   2.509
 3185SOL    HW111155   1.799   0.411   2.548
 3185SOL    HW211156   1.853   0.295   2.446
 3186SOL     OW11157   2.431   1.275   3.027
 3186SOL    HW111158   2.338   1.268   2.990
 3186SOL    HW211159   2.442   1.364   3.071
 3187SOL     OW11160   3.417   1.511   2.565
 3187SOL    HW111161   3.360   1.495   2.646
 3187SOL    HW211162   3.358   1.521   2.485
 3188SOL     OW11163   2.997   0.703   2.579
 3188SOL    HW111164   3.054   0.781   2.554
 3188SOL    HW211165   2.937   0.729   2.655
 3189SOL     OW11166   3.617   0.607   2.093
 3189SOL    HW111167   3.605   0.594   1.994
 3189SOL    HW211168   3.587   0.526   2.142
 3190SOL     OW11169   2.630   1.144   2.885
 3190SOL    HW111170   2.552   1.161   2.945
 3190SOL    HW211171   2.664   1.231   2.849
 3191SOL     OW11172   2.712   0.798   3.685
 3191SOL    HW111173   2.708   0.874   3.750
 3191SOL    HW211174   2.734   0.834   3.594
 3192SOL     OW11175   2.547   1.012   2.527
 3192SOL    HW111176   2.616   0.996   2.597
 3192SOL    HW211177   2.474   1.069   2.565
 3193SOL     OW11178   2.548   1.161   3.665
 3193SOL    HW111179   2.608   1.240   3.679
 3193SOL    HW211180   2.462   1.192   3.624
 3194SOL     OW11181   2.197   1.435   2.923
 3194SOL    HW111182   2.119   1.404   2.870
 3194SOL    HW211183   2.255   1.493   2.866
 3195SOL     OW11184   3.322   1.505   3.201
 3195SOL    HW111185   3.346   1.599   3.227
 3195SOL    HW211186   3.306   1.451   3.283
 3196SOL     OW11187   2.300   0.392   3.361
 3196SOL    HW111188   2.382   0.336   3.370
 3196SOL    HW211189   2.219   0.334   3.365
 3197SOL     OW11190   3.465   0.447   2.599
 3197SOL    HW111191   3.391   0.493   2.549
 3197SOL    HW211192   3.516   0.515   2.652
 3198SOL     OW11193   2.093   1.713   2.345
 3198SOL    HW111194   2.127   1.790   2.399
 3198SOL    HW211195   2.137   1.713   2.255
 3199SOL     OW11196   2.989   1.341   3.552
 3199SOL    HW111197   3.036   1.341   3.640
 3199SOL    HW211198   2.941   1.254   3.541
 3200SOL     OW11199   2.092   1.434   2.400
 3200SOL    HW111200   2.066   1.530   2.400
 3200SOL    HW211201   2.021   1.380   2.445
 3201SOL     OW11202   2.102   1.091   2.748
 3201SOL    HW111203   2.116   1.007   2.800
 3201SOL    HW211204   2.047   1.155   2.803
 3202SOL     OW11205   2.482   1.786   3.301
 3202SOL    HW111206   2.390   1.769   3.336
 3202SOL    HW211207   2.510   1.878   3.327
 3203SOL     OW11208   2.468   0.964   1.985
 3203SOL    HW111209   2.475   1.048   1.931
 3203SOL    HW211210   2.514   0.977   2.073
 3204SOL     OW11211   3.456   0.114   3.342
 3204SOL    HW111212   3.438   0.181   3.270
 3204SOL    HW211213   3.453   0.160   3.431
 3205SOL     OW11214   1.984   0.643   2.425
 3205SOL    HW111215   1.939   0.555   2.442
 3205SOL    HW211216   1.983   0.697   2.509
 3206SOL     OW11217   3.704   1.767   2.221
 3206SOL    HW111218   3.758   1.738   2.301
 3206SOL    HW211219   3.734   1.857   2.192
 3207SOL     OW11220   1.889   1.596   1.979
 3207SOL    HW111221   1.870   1.500   2.000
 3207SOL    HW211222   1.856   1.654   2.054
 3208SOL     OW11223   3.551   0.922   2.474
 3208SOL    HW111224   3.646   0.893   2.482
 3208SOL    HW211225   3.543   0.987   2.399
 3209SOL     OW11226   3.503   1.108   2.294
 3209SOL    HW111227   3.589   1.110   2.242
 3209SOL    HW211228   3.517   1.155   2.382
 3210SOL     OW11229   1.975   0.737   3.459
 3210SOL    HW111230   2.063   0.724   3.504
 3210SOL    HW211231   1.962   0.834   3.437
 3211SOL     OW11232   2.475   1.365   2.588
 3211SOL    HW111233   2.426   1.278   2.597
 3211SOL    HW211234   2.452   1.408   2.501
 3212SOL     OW11235   3.155   1.228   3.285
 3212SOL    HW111236   3.192   1.155   3.227
 3212SOL    HW211237   3.207   1.233   3.370
 3213SOL     OW11238   2.671   0.004   2.364
 3213SOL    HW111239   2.711   0.095   2.355
 3213SOL    HW211240   2.571   0.012   2.370
 3214SOL     OW11241   2.059   0.976   3.126
 3214SOL    HW111242   2.148   0.931   3.112
 3214SOL    HW211243   1.986   0.911   3.107
 3215SOL     OW11244   3.387   0.999   2.052
 3215SOL    HW111245   3.324   0.923   2.065
 3215SOL    HW211246   3.435   1.017   2.138
 3216SOL     OW11247   3.049   1.792   3.478
 3216SOL    HW111248   3.073   1.852   3.402
 3216SOL    HW211249   3.056   1.697   3.448
 3217SOL     OW11250   2.179   0.251   3.663
 3217SOL    HW111251   2.250   0.322   3.669
 3217SOL    HW211252   2.091   0.290   3.691
 3218SOL     OW11253   3.328   1.417   2.815
 3218SOL    HW111254   3.269   1.423   2.895
 3218SOL    HW211255   3.313   1.329   2.769
 3219SOL     OW11256   3.529   1.714   2.434
 3219SOL    HW111257   3.488   1.691   2.346
 3219SOL    HW211258   3.511   1.640   2.499
 3220SOL     OW11259   2.460   0.729   2.132
 3220SOL    HW111260   2.484   0.798   2.064
 3220SOL    HW211261   2.382   0.762   2.186
 3221SOL     OW11262   3.143   0.345   2.806
 3221SOL    HW111263   3.057   0.295   2.793
 3221SOL    HW211264   3.205   0.291   2.862
 3222SOL     OW11265   3.438   1.662   2.169
 3222SOL    HW111266   3.527   1.708   2.172
 3222SOL    HW211267   3.417   1.638   2.074
 3223SOL     OW11268   2.669   0.605   3.327
 3223SOL    HW111269   2.622   0.602   3.416
 3223SOL    HW211270   2.618   0.550   3.261
 3224SOL     OW11271   3.256   0.469   3.536
 3224SOL    HW111272   3.236   0.512   3.624
 3224SOL    HW211273   3.334   0.407   3.545
 3225SOL     OW11274   2.835   0.890   3.434
 3225SOL    HW111275   2.881   0.806   3.405
 3225SOL    HW211276   2.779   0.924   3.359
 3226SOL     OW11277   2.853   0.410   3.104
 3226SOL    HW111278   2.776   0.444   3.158
 3226SOL    HW211279   2.819   0.359   3.025
 3227SOL     OW11280   2.903   0.701   2.291
 3227SOL    HW111281   2.929   0.697   2.387
 3227SOL    HW211282   2.818   0.650   2.277
 3228SOL     OW11283   1.938   0.811   2.651
 3228SOL    HW111284   2.037   0.799   2.660
 3228SOL    HW211285   1.914   0.906   2.672
 3229SOL     OW11286   1.992   1.821   3.433
 3229SOL    HW111287   1.982   1.806   3.532
 3229SOL    HW211288   1.906   1.857   3.397
 3230SOL     OW11289   2.727   0.348   2.057
 3230SOL    HW111290   2.786   0.411   2.008
 3230SOL    HW211291   2.746   0.254   2.028
 3231SOL     OW11292   3.581   0.585   3.693
 3231SOL    HW111293   3.555   0.674   3.657
 3231SOL    HW211294   3.579   0.517   3.620
 3232SOL     OW11295   3.224   1.144   2.407
 3232SOL    HW111296   3.307   1.115   2.359
 3232SOL    HW211297   3.175   1.211   2.351
 3233SOL     OW11298   2.412   0.196   2.747
 3233SOL    HW111299   2.407   0.191   2.847
 3233SOL    HW211300   2.414   0.292   2.718
 3234SOL     OW11301   2.870   1.456   2.339
 3234SOL    HW111302   2.824   1.528   2.287
 3234SOL    HW211303   2.866   1.476   2.437
 3235SOL     OW11304   2.213   1.801   2.715
 3235SOL    HW111305   2.263   1.715   2.721
 3235SOL    HW211306   2.278   1.878   2.712
 3236SOL     OW11307   3.657   1.066   2.735
 3236SOL    HW111308   3.595   1.051   2.659
 3236SOL    HW211309   3.605   1.077   2.820
 3237SOL     OW11310   3.089   1.550   3.368
 3237SOL    HW111311   3.095   1.473   3.432
 3237SOL    HW211312   3.037   1.524   3.288
 3238SOL     OW11313   2.183   0.943   2.104
 3238SOL    HW111314   2.265   0.982   2.062
 3238SOL    HW211315   2.156   0.861   2.055
 3239SOL     OW11316   3.320   0.735   2.590
 3239SOL    HW111317   3.315   0.670   2.665
 3239SOL    HW211318   3.400   0.794   2.603
 3240SOL     OW11319   2.323   1.266   3.589
 3240SOL    HW111320   2.273   1.267   3.503
 3240SOL    HW211321   2.260   1.248   3.665
 3241SOL     OW11322   2.973   1.776   2.099
 3241SOL    HW111323   2.913   1.714   2.149
 3241SOL    HW211324   3.004   1.732   2.014
 3242SOL     OW11325   2.064   0.285   3.360
 3242SOL    HW111326   1.984   0.345   3.347
 3242SOL    HW211327   2.054   0.236   3.446
 3243SOL     OW11328   3.494   1.377   1.943
 3243SOL    HW111329   3.462   1.471   1.933
 3243SOL    HW211330   3.418   1.314   1.931
 3244SOL     OW11331   2.326   1.743   2.185
 3244SOL    HW111332   2.359   1.782   2.271
 3244SOL    HW211333   2.402   1.736   2.120
 3245SOL     OW11334   3.262   0.107   2.288
 3245SOL    HW111335   3.238   0.070   2.198
 3245SOL    HW211336   3.361   0.123   2.292
 3246SOL     OW11337   2.111   1.785   3.103
 3246SOL    HW111338   2.168   1.720   3.153
 3246SOL    HW211339   2.095   1.752   3.010
 3247SOL     OW11340   2.802   1.698   2.766
 3247SOL    HW111341   2.882   1.641   2.787
 3247SOL    HW211342   2.753   1.658   2.689
 3248SOL     OW11343   2.244   0.700   2.342
 3248SOL    HW111344   2.289   0.610   2.339
 3248SOL    HW211345   2.150   0.689   2.375
 3249SOL     OW11346   3.409   0.222   3.591
 3249SOL    HW111347   3.404   0.259   3.683
 3249SOL    HW211348   3.337   0.153   3.579
 3250SOL     OW11349   2.476   0.122   1.979
 3250SOL    HW111350   2.574   0.100   1.986
 3250SOL    HW211351   2.445   0.105   1.886
 3251SOL     OW11352   2.643   0.264   3.611
 3251SOL    HW111353   2.710   0.203   3.654
 3251SOL    HW211354   2.570   0.283   3.676
 3252SOL     OW11355   2.750   1.514   3.057
 3252SOL    HW111356   2.727   1.489   2.963
 3252SOL    HW211357   2.811   1.445   3.096
 3253SOL     OW11358   3.213   0.590   3.295
 3253SOL    HW111359   3.241   0.547   3.380
 3253SOL    HW211360   3.238   0.686   3.296
 3254SOL     OW11361   2.665   1.402   2.786
 3254SOL    HW111362   2.755   1.416   2.744
 3254SOL    HW211363   2.594   1.404   2.715
 3255SOL     OW11364   2.784   0.503   2.761
 3255SOL    HW111365   2.759   0.494   2.665
 3255SOL    HW211366   2.832   0.421   2.792
 3256SOL     OW11367   2.401   0.064   2.374
 3256SOL    HW111368   2.320   0.065   2.432
 3256SOL    HW211369   2.404   0.147   2.319
 3257SOL     OW11370   3.296   1.188   1.903
 3257SOL    HW111371   3.328   1.112   1.960
 3257SOL    HW211372   3.204   1.215   1.933
 3258SOL     OW11373   2.159   0.035   2.033
 3258SOL    HW111374   2.208   0.119   2.012
 3258SOL    HW211375   2.221  -0.030   2.078
 3259SOL     OW11376   2.797   0.236   2.342
 3259SOL    HW111377   2.749   0.277   2.264
 3259SOL    HW211378   2.896   0.234   2.323
 3260SOL     OW11379   2.938   0.683   3.326
 3260SOL    HW111380   2.858   0.622   3.329
 3260SOL    HW211381   3.019   0.630   3.302
 3261SOL     OW11382   3.089   1.570   2.655
 3261SOL    HW111383   3.110   1.644   2.590
 3261SOL    HW211384   3.157   1.570   2.728
 3262SOL     OW11385   2.321   1.152   2.603
 3262SOL    HW111386   2.250   1.125   2.668
 3262SOL    HW211387   2.295   1.124   2.510
 3263SOL     OW11388   3.133   1.797   2.453
 3263SOL    HW111389   3.177   1.861   2.389
 3263SOL    HW211390   3.083   1.849   2.523
 3264SOL     OW11391   2.894   0.549   1.878
 3264SOL    HW111392   2.853   0.631   1.839
 3264SOL    HW211393   2.958   0.575   1.951
 3265SOL     OW11394   1.940   0.556   3.248
 3265SOL    HW111395   2.032   0.555   3.207
 3265SOL    HW211396   1.934   0.630   3.315
 3266SOL     OW11397   2.423   0.222   3.009
 3266SOL    HW111398   2.461   0.138   3.046
 3266SOL    HW211399   2.335   0.241   3.053
 3267SOL     OW11400   2.728   0.454   2.504
 3267SOL    HW111401   2.696   0.526   2.442
 3267SOL    HW211402   2.752   0.373   2.451
 3268SOL     OW11403   2.879   0.039   2.615
 3268SOL    HW111404   2.807   0.044   2.546
 3268SOL    HW211405   2.855  -0.030   2.684
 3269SOL     OW11406   3.291   1.173   2.729
 3269SOL    HW111407   3.236   1.089   2.722
 3269SOL    HW211408   3.317   1.202   2.637
 3270SOL     OW11409   3.328   0.590   2.854
 3270SOL    HW111410   3.298   0.495   2.861
 3270SOL    HW211411   3.401   0.606   2.920
 3271SOL     OW11412   3.719   0.833   2.239
 3271SOL    HW111413   3.761   0.769   2.303
 3271SOL    HW211414   3.681   0.782   2.161
 3272SOL     OW11415   2.350   1.385   2.036
 3272SOL    HW111416   2.263   1.370   2.083
 3272SOL    HW211417   2.333   1.411   1.941
 3273SOL     OW11418   3.526   1.280   2.519
 3273SOL    HW111419   3.625   1.288   2.533
 3273SOL    HW211420   3.481   1.364   2.550
 3274SOL     OW11421   3.252   0.575   1.940
 3274SOL    HW111422   3.198   0.554   2.021
 3274SOL    HW211423   3.343   0.534   1.949
 3275SOL     OW11424   2.389   0.256   2.190
 3275SOL    HW111425   2.416   0.197   2.115
 3275SOL    HW211426   2.389   0.351   2.159
 3276SOL     OW11427   3.616   1.223   3.450
 3276SOL    HW111428   3.707   1.184   3.437
 3276SOL    HW211429   3.624   1.319   3.474
 3277SOL     OW11430   2.926   1.347   3.202
 3277SOL    HW111431   2.846   1.324   3.257
 3277SOL    HW211432   3.009   1.321   3.251
 3278SOL     OW11433   3.454   1.629   3.487
 3278SOL    HW111434   3.481   1.663   3.397
 3278SOL    HW211435   3.533   1.591   3.533
 3279SOL     OW11436   2.973   1.195   2.962
 3279SOL    HW111437   2.933   1.239   3.043
 3279SOL    HW211438   2.932   1.232   2.879
 3280SOL     OW11439   3.500   1.099   2.941
 3280SOL    HW111440   3.505   1.180   3.000
 3280SOL    HW211441   3.414   1.101   2.890
 3281SOL     OW11442   2.777   0.089   3.264
 3281SOL    HW111443   2.802   0.069   3.169
 3281SOL    HW211444   2.849   0.145   3.306
 3282SOL     OW11445   2.842   1.116   3.581
 3282SOL    HW111446   2.743   1.122   3.591
 3282SOL    HW211447   2.865   1.036   3.525
 3283SOL     OW11448   2.567   1.050   2.230
 3283SOL    HW111449   2.553   1.057   2.329
 3283SOL    HW211450   2.651   0.999   2.212
 3284SOL     OW11451   2.272   0.813   3.113
 3284SOL    HW111452   2.358   0.825   3.163
 3284SOL    HW211453   2.230   0.726   3.140
 3285SOL     OW11454   3.136   0.386   3.124
 3285SOL    HW111455   3.157   0.460   3.188
 3285SOL    HW211456   3.047   0.403   3.081
 3286SOL     OW11457   1.926   1.564   3.193
 3286SOL    HW111458   1.880   1.646   3.159
 3286SOL    HW211459   2.024   1.583   3.202
 3287SOL     OW11460   2.229   1.100   2.363
 3287SOL    HW111461   2.222   1.183   2.307
 3287SOL    HW211462   2.233   1.020   2.303
 3288SOL     OW11463   2.428   0.537   2.727
 3288SOL    HW111464   2.440   0.603   2.653
 3288SOL    HW211465   2.474   0.571   2.810
 3289SOL     OW11466   3.114   1.348   2.250
 3289SOL    HW111467   3.164   1.425   2.290
 3289SOL    HW211468   3.019   1.350   2.282
 3290SOL     OW11469   3.134   1.445   3.004
 3290SOL    HW111470   3.181   1.458   3.091
 3290SOL    HW211471   3.068   1.371   3.013
 3291SOL     OW11472   3.444   0.639   2.334
 3291SOL    HW111473   3.413   0.700   2.407
 3291SOL    HW211474   3.494   0.691   2.265
 3292SOL     OW11475   2.216   1.510   3.191
 3292SOL    HW111476   2.195   1.466   3.104
 3292SOL    HW211477   2.313   1.536   3.194
 3293SOL     OW11478   2.264   0.751   3.460
 3293SOL    HW111479   2.332   0.806   3.413
 3293SOL    HW211480   2.304   0.663   3.487
 3294SOL     OW11481   3.449   0.779   3.532
 3294SOL    HW111482   3.357   0.817   3.527
 3294SOL    HW211483   3.509   0.826   3.467
 3295SOL     OW11484   2.366   0.050   3.602
 3295SOL    HW111485   2.324  -0.007   3.532
 3295SOL    HW211486   2.300   0.119   3.634
 3296SOL     OW11487   2.435   0.870   2.891
 3296SOL    HW111488   2.479   0.959   2.882
 3296SOL    HW211489   2.372   0.870   2.968
 3297SOL     OW11490   3.222   0.862   2.907
 3297SOL    HW111491   3.147   0.862   2.841
 3297SOL    HW211492   3.259   0.770   2.916
 3298SOL     OW11493   3.071   0.525   2.137
 3298SOL    HW111494   3.084   0.441   2.191
 3298SOL    HW211495   3.042   0.599   2.197
 3299SOL     OW11496   2.169   0.213   3.093
 3299SOL    HW111497   2.146   0.250   3.183
 3299SOL    HW211498   2.139   0.118   3.087
 3300SOL     OW11499   1.899   1.310   3.144
 3300SOL    HW111500   1.952   1.261   3.212
 3300SOL    HW211501   1.921   1.408   3.149
 3301SOL     OW11502   2.594   0.634   2.926
 3301SOL    HW111503   2.653   0.608   2.850
 3301SOL    HW211504   2.566   0.730   2.915
 3302SOL     OW11505   3.590   0.935   3.716
 3302SOL    HW111506   3.544   0.928   3.627
 3302SOL    HW211507   3.528   0.979   3.782
 3303SOL     OW11508   2.169   0.063   2.480
 3303SOL    HW111509   2.158   0.157   2.513
 3303SOL    HW211510   2.164   0.000   2.557
 3304SOL     OW11511   3.484   0.367   2.236
 3304SOL    HW111512   3.486   0.291   2.300
 3304SOL    HW211513   3.436   0.444   2.276
 3305SOL     OW11514   2.885   0.766   2.828
 3305SOL    HW111515   2.900   0.787   2.924
 3305SOL    HW211516   2.855   0.671   2.819
 3306SOL     OW11517   2.842   1.573   3.562
 3306SOL    HW111518   2.822   1.617   3.474
 3306SOL    HW211519   2.881   1.482   3.546
 3307SOL     OW11520   3.721   1.518   3.467
 3307SOL    HW111521   3.735   1.545   3.372
 3307SOL    HW211522   3.804   1.540   3.520
 3308SOL     OW11523   2.212   0.898   3.666
 3308SOL    HW111524   2.288   0.942   3.714
 3308SOL    HW211525   2.247   0.851   3.584
 3309SOL     OW11526   3.402   0.274   1.987
 3309SOL    HW111527   3.341   0.199   2.010
 3309SOL    HW211528   3.424   0.326   2.070
 3310SOL     OW11529   3.165   0.838   1.904
 3310SOL    HW111530   3.199   0.745   1.919
 3310SOL    HW211531   3.183   0.865   1.809
 3311SOL     OW11532   2.930   1.333   2.711
 3311SOL    HW111533   2.937   1.249   2.656
 3311SOL    HW211534   2.992   1.402   2.675
 3312SOL     OW11535   2.181   0.810   2.811
 3312SOL    HW111536   2.274   0.846   2.816
 3312SOL    HW211537   2.175   0.725   2.863
 3313SOL     OW11538   2.201   0.509   2.868
 3313SOL    HW111539   2.149   0.426   2.851
 3313SOL    HW211540   2.278   0.514   2.804
 3314SOL     OW11541   3.000   0.380   3.540
 3314SOL    HW111542   2.955   0.443   3.604
 3314SOL    HW211543   3.093   0.411   3.523
 3315SOL     OW11544   3.022   0.207   3.339
 3315SOL    HW111545   3.022   0.271   3.416
 3315SOL    HW211546   3.050   0.255   3.256
 3316SOL     OW11547   1.870   1.326   2.062
 3316SOL    HW111548   1.777   1.347   2.031
 3316SOL    HW211549   1.880   1.227   2.075
 3317SOL     OW11550   1.950   1.801   2.789
 3317SOL    HW111551   1.908   1.715   2.762
 3317SOL    HW211552   2.044   1.804   2.755
 3318SOL     OW11553   2.366   1.568   2.772
 3318SOL    HW111554   2.432   1.642   2.781
 3318SOL    HW211555   2.410   1.489   2.730
 3319SOL     OW11556   2.864   0.796   3.100
 3319SOL    HW111557   2.905   0.764   3.186
 3319SOL    HW211558   2.768   0.769   3.097
 3320SOL     OW11559   1.902   0.544   2.976
 3320SOL    HW111560   1.987   0.511   2.935
 3320SOL    HW211561   1.915   0.559   3.074
 3321SOL     OW11562   2.051   0.520   3.584
 3321SOL    HW111563   2.110   0.480   3.514
 3321SOL    HW211564   1.993   0.591   3.543
 3322SOL     OW11565   3.231   0.950   3.522
 3322SOL    HW111566   3.270   1.039   3.542
 3322SOL    HW211567   3.241   0.930   3.425
 3323SOL     OW11568   2.677   0.572   2.187
 3323SOL    HW111569   2.684   0.483   2.141
 3323SOL    HW211570   2.583   0.606   2.179
 3324SOL     OW11571   3.519   0.604   3.068
 3324SOL    HW111572   3.481   0.535   3.130
 3324SOL    HW211573   3.601   0.568   3.024
 3325SOL     OW11574   2.114   1.564   3.606
 3325SOL    HW111575   2.084   1.621   3.682
 3325SOL    HW211576   2.107   1.467   3.632
 3326SOL     OW11577   2.533   0.464   3.131
 3326SOL    HW111578   2.499   0.375   3.101
 3326SOL    HW211579   2.559   0.518   3.051
 3327SOL     OW11580   2.792   1.678   3.327
 3327SOL    HW111581   2.768   1.660   3.232
 3327SOL    HW211582   2.822   1.772   3.337
 3328SOL     OW11583   2.335   0.500   2.053
 3328SOL    HW111584   2.396   0.580   2.057
 3328SOL    HW211585   2.240   0.531   2.060
 3329SOL     OW11586   2.021   1.137   3.328
 3329SOL    HW111587   2.043   1.076   3.404
 3329SOL    HW211588   2.031   1.088   3.242
 3330SOL     OW11589   3.209   1.059   3.096
 3330SOL    HW111590   3.233   0.996   3.022
 3330SOL    HW211591   3.119   1.099   3.078
 3331SOL     OW11592   3.164   0.855   2.171
 3331SOL    HW111593   3.078   0.824   2.213
 3331SOL    HW211594   3.160   0.841   2.072
 3332SOL     OW11595   3.621   1.747   3.016
 3332SOL    HW111596   3.682   1.777   2.943
 3332SOL    HW211597   3.583   1.658   2.994
 3333SOL     OW11598   3.114   1.731   2.990
 3333SOL    HW111599   3.198   1.736   2.936
 3333SOL    HW211600   3.091   1.635   3.008
 3334SOL     OW11601   1.945   1.258   2.884
 3334SOL    HW111602   1.940   1.257   2.984
 3334SOL    HW211603   1.862   1.217   2.846
 3335SOL     OW11604   2.550   1.662   3.578
 3335SOL    HW111605   2.494   1.743   3.587
 3335SOL    HW211606   2.602   1.666   3.492
 3336SOL     OW11607   3.588   0.135   2.385
 3336SOL    HW111608   3.661   0.118   2.318
 3336SOL    HW211609   3.557   0.048   2.423
 3337SOL     OW11610   3.250   1.573   2.339
 3337SOL    HW111611   3.317   1.585   2.265
 3337SOL    HW211612   3.210   1.662   2.362
 3338SOL     OW11613   1.992   1.794   3.713
 3338SOL    HW111614   1.951   1.720   3.766
 3338SOL    HW211615   2.056   1.845   3.771
 3339SOL     OW11616   3.142   0.927   2.534
 3339SOL    HW111617   3.202   0.846   2.536
 3339SOL    HW211618   3.182   0.996   2.474
 3340SOL     OW11619   2.692   1.273   3.284
 3340SOL    HW111620   2.687   1.306   3.379
 3340SOL    HW211621   2.606   1.292   3.238
 3341SOL     OW11622   2.534   1.616   2.016
 3341SOL    HW111623   2.543   1.626   1.917
 3341SOL    HW211624   2.494   1.527   2.037
 3342SOL     OW11625   3.512   1.720   3.256
 3342SOL    HW111626   3.565   1.730   3.172
 3342SOL    HW211627   3.485   1.810   3.290
 3343SOL     OW11628   3.703   0.175   2.825
 3343SOL    HW111629   3.742   0.090   2.789
 3343SOL    HW211630   3.605   0.177   2.806
 3344SOL     OW11631   2.125   0.326   2.582
 3344SOL    HW111632   2.046   0.377   2.548
 3344SOL    HW211633   2.116   0.311   2.680
 3345SOL     OW11634   3.056   1.612   1.893
 3345SOL    HW111635   3.062   1.519   1.930
 3345SOL    HW211636   2.997   1.612   1.813
 3346SOL     OW11637   2.684   1.002   3.234
 3346SOL    HW111638   2.724   1.001   3.142
 3346SOL    HW211639   2.694   1.094   3.274
 3347SOL     OW11640   2.778   0.910   2.153
 3347SOL    HW111641   2.841   0.948   2.085
 3347SOL    HW211642   2.818   0.827   2.192
 3348SOL     OW11643   3.366   1.607   1.906
 3348SOL    HW111644   3.274   1.644   1.913
 3348SOL    HW211645   3.404   1.627   1.816
 3349SOL     OW11646   2.234   1.288   3.352
 3349SOL    HW111647   2.221   1.381   3.318
 3349SOL    HW211648   2.150   1.236   3.339
 3350SOL     OW11649   3.476   1.292   3.151
 3350SOL    HW111650   3.536   1.295   3.231
 3350SOL    HW211651   3.401   1.356   3.164
 3351SOL     OW11652   2.901   1.098   2.558
 3351SOL    HW111653   2.831   1.051   2.612
 3351SOL    HW211654   2.960   1.030   2.515
 3352SOL     OW11655   2.876   0.236   2.833
 3352SOL    HW111656   2.868   0.200   2.740
 3352SOL    HW211657   2.874   0.160   2.898
 3353SOL     OW11658   2.452   1.487   2.353
 3353SOL    HW111659   2.494   1.429   2.283
 3353SOL    HW211660   2.408   1.566   2.309
 3354SOL     OW11661   3.571   0.385   3.243
 3354SOL    HW111662   3.644   0.454   3.247
 3354SOL    HW211663   3.599   0.310   3.184
 3355SOL     OW11664   2.117   1.348   2.152
 3355SOL    HW111665   2.021   1.349   2.125
 3355SOL    HW211666   2.129   1.401   2.236
 3356SOL     OW11667   1.967   1.013   3.588
 3356SOL    HW111668   1.890   0.980   3.642
 3356SOL    HW211669   2.052   0.983   3.630
 3357SOL     OW11670   2.534   0.203   3.351
 3357SOL    HW111671   2.624   0.187   3.311
 3357SOL    HW211672   2.542   0.208   3.450
 3358SOL     OW11673   1.937   0.345   1.895
 3358SOL    HW111674   1.845   0.317   1.866
 3358SOL    HW211675   1.968   0.422   1.839
 3359SOL     OW11676   3.302   0.856   3.260
 3359SOL    HW111677   3.245   0.908   3.197
 3359SOL    HW211678   3.398   0.868   3.236
 3360SOL     OW11679   1.934   0.166   2.180
 3360SOL    HW111680   1.917   0.249   2.126
 3360SOL    HW211681   2.024   0.129   2.158
 3361SOL     OW11682   3.045   1.335   1.981
 3361SOL    HW111683   2.946   1.324   1.983
 3361SOL    HW211684   3.079   1.350   2.074
 3362SOL     OW11685   2.475   0.842   3.293
 3362SOL    HW111686   2.531   0.923   3.276
 3362SOL    HW211687   2.534   0.762   3.296
 3363SOL     OW11688   3.355   1.767   2.821
 3363SOL    HW111689   3.388   1.831   2.752
 3363SOL    HW211690   3.421   1.761   2.896
 3364SOL     OW11691   2.578   0.565   3.570
 3364SOL    HW111692   2.597   0.630   3.644
 3364SOL    HW211693   2.638   0.485   3.579
 3365SOL     OW11694   3.312   1.220   3.495
 3365SOL    HW111695   3.303   1.210   3.594
 3365SOL    HW211696   3.408   1.213   3.469
 3366SOL     OW11697   2.252   1.741   3.422
 3366SOL    HW111698   2.161   1.782   3.420
 3366SOL    HW211699   2.245   1.647   3.454
 3367SOL     OW11700   3.536   0.883   3.116
 3367SOL    HW111701   3.509   0.794   3.079
 3367SOL    HW211702   3.537   0.951   3.043
 3368SOL     OW11703   3.087   0.325   2.311
 3368SOL    HW111704   3.152   0.251   2.300
 3368SOL    HW211705   3.107   0.375   2.395
 3369SOL     OW11706   2.456   0.745   2.514
 3369SOL    HW111707   2.506   0.830   2.495
 3369SOL    HW211708   2.368   0.747   2.466
 3370SOL     OW11709   3.639   0.342   3.504
 3370SOL    HW111710   3.622   0.373   3.410
 3370SOL    HW211711   3.555   0.305   3.542
 3371SOL     OW11712   3.592   0.934   3.379
 3371SOL    HW111713   3.630   1.025   3.394
 3371SOL    HW211714   3.584   0.917   3.280
 3372SOL     OW11715   2.721   1.374   1.878
 3372SOL    HW111716   2.675   1.389   1.966
 3372SOL    HW211717   2.765   1.459   1.848
 3373SOL     OW11718   2.523   1.790   2.815
 3373SOL    HW111719   2.477   1.878   2.802
 3373SOL    HW211720   2.622   1.802   2.808
 3374SOL     OW11721   2.721   0.956   2.723
 3374SOL    HW111722   2.775   0.887   2.771
 3374SOL    HW211723   2.689   1.025   2.789
 3375SOL     OW11724   2.945   0.984   1.949
 3375SOL    HW111725   2.922   1.037   1.867
 3375SOL    HW211726   3.026   0.928   1.930
 3376SOL     OW11727   3.723   1.569   2.713
 3376SOL    HW111728   3.652   1.557   2.643
 3376SOL    HW211729   3.724   1.490   2.773
 3377SOL     OW11730   2.083   1.314   3.706
 3377SOL    HW111731   2.018   1.241   3.685
 3377SOL    HW211732   2.087   1.328   3.804
 3378SOL     OW11733   1.941   1.240   2.515
 3378SOL    HW111734   1.940   1.193   2.603
 3378SOL    HW211735   2.023   1.212   2.464
 3379SOL     OW11736   2.534   1.391   3.486
 3379SOL    HW111737   2.456   1.341   3.524
 3379SOL    HW211738   2.531   1.486   3.517
 3380SOL     OW11739   3.686   0.192   3.089
 3380SOL    HW111740   3.682   0.102   3.133
 3380SOL    HW211741   3.689   0.181   2.990
 3381SOL     OW11742   2.290   0.424   2.382
 3381SOL    HW111743   2.320   0.352   2.320
 3381SOL    HW211744   2.251   0.384   2.465
 3382SOL     OW11745   3.567   1.487   2.966
 3382SOL    HW111746   3.474   1.462   2.939
 3382SOL    HW211747   3.593   1.437   3.048
 3383SOL     OW11748   2.179   0.547   3.142
 3383SOL    HW111749   2.217   0.488   3.214
 3383SOL    HW211750   2.219   0.521   3.054
 3384SOL     OW11751   2.674   1.586   2.549
 3384SOL    HW111752   2.706   1.596   2.455
 3384SOL    HW211753   2.595   1.524   2.551
 3385SOL     OW11754   3.286   0.214   2.974
 3385SOL    HW111755   3.338   0.149   3.029
 3385SOL    HW211756   3.237   0.277   3.035
 3386SOL     OW11757   2.863   0.034   3.016
 3386SOL    HW111758   2.800  -0.038   2.985
 3386SOL    HW211759   2.956  -0.002   3.016
 3387SOL     OW11760   2.632   1.330   2.163
 3387SOL    HW111761   2.586   1.243   2.180
 3387SOL    HW211762   2.723   1.327   2.204
 3388SOL     OW11763   2.480   1.567   3.146
 3388SOL    HW111764   2.475   1.649   3.203
 3388SOL    HW211765   2.569   1.564   3.101
 3389SOL     OW11766   3.214   0.052   2.030
 3389SOL    HW111767   3.249   0.011   1.946
 3389SOL    HW211768   3.124   0.014   2.050
 3390SOL     OW11769   3.162   0.453   2.553
 3390SOL    HW111770   3.103   0.533   2.557
 3390SOL    HW211771   3.177   0.418   2.646
 3391SOL     OW11772   3.455   0.221   2.744
 3391SOL    HW111773   3.371   0.220   2.798
 3391SOL    HW211774   3.457   0.304   2.688
 3392SOL     OW11775   1.901   1.077   2.162
 3392SOL    HW111776   2.000   1.066   2.153
 3392SOL    HW211777   1.861   0.991   2.194
 3393SOL     OW11778   2.737   1.646   2.199
 3393SOL    HW111779   2.660   1.611   2.145
 3393SOL    HW211780   2.705   1.717   2.261
 3394SOL     OW11781   2.092   0.628   3.837
 3394SOL    HW111782   1.999   0.626   3.874
 3394SOL    HW211783   2.093   0.589   3.745
 3395SOL     OW11784   2.087   0.275   4.720
 3395SOL    HW111785   2.122   0.258   4.812
 3395SOL    HW211786   1.999   0.230   4.708
 3396SOL     OW11787   1.881   0.368   4.371
 3396SOL    HW111788   1.799   0.411   4.410
 3396SOL    HW211789   1.853   0.295   4.308
 3397SOL     OW11790   2.431   1.275   4.889
 3397SOL    HW111791   2.338   1.268   4.852
 3397SOL    HW211792   2.442   1.364   4.933
 3398SOL     OW11793   3.417   1.511   4.427
 3398SOL    HW111794   3.360   1.495   4.508
 3398SOL    HW211795   3.358   1.521   4.347
 3399SOL     OW11796   2.997   0.703   4.441
 3399SOL    HW111797   3.054   0.781   4.416
 3399SOL    HW211798   2.937   0.729   4.517
 3400SOL     OW11799   3.617   0.607   3.955
 3400SOL    HW111800   3.605   0.594   3.856
 3400SOL    HW211801   3.587   0.526   4.004
 3401SOL     OW11802   2.630   1.144   4.747
 3401SOL    HW111803   2.552   1.161   4.807
 3401SOL    HW211804   2.664   1.231   4.711
 3402SOL     OW11805   2.712   0.798   5.547
 3402SOL    HW111806   2.708   0.874   5.612
 3402SOL    HW211807   2.734   0.834   5.456
 3403SOL     OW11808   2.547   1.012   4.389
 3403SOL    HW111809   2.616   0.996   4.459
 3403SOL    HW211810   2.474   1.069   4.427
 3404SOL     OW11811   2.548   1.161   5.527
 3404SOL    HW111812   2.608   1.240   5.541
 3404SOL    HW211813   2.462   1.192   5.486
 3405SOL     OW11814   2.197   1.435   4.785
 3405SOL    HW111815   2.119   1.404   4.732
 3405SOL    HW211816   2.255   1.493   4.728
 3406SOL     OW11817   3.322   1.505   5.063
 3406SOL    HW111818   3.346   1.599   5.089
 3406SOL    HW211819   3.306   1.451   5.145
 3407SOL     OW11820   2.300   0.392   5.223
 3407SOL    HW111821   2.382   0.336   5.232
 3407SOL    HW211822   2.219   0.334   5.227
 3408SOL     OW11823   3.465   0.447   4.461
 3408SOL    HW111824   3.391   0.493   4.411
 3408SOL    HW211825   3.516   0.515   4.514
 3409SOL     OW11826   2.093   1.713   4.207
 3409SOL    HW111827   2.127   1.790   4.261
 3409SOL    HW211828   2.137   1.713   4.117
 3410SOL     OW11829   2.989   1.341   5.414
 3410SOL    HW111830   3.036   1.341   5.502
 3410SOL    HW211831   2.941   1.254   5.403
 3411SOL     OW11832   2.092   1.434   4.262
 3411SOL    HW111833   2.066   1.530   4.262
 3411SOL    HW211834   2.021   1.380   4.307
 3412SOL     OW11835   2.102   1.091   4.610
 3412SOL    HW111836   2.116   1.007   4.662
 3412SOL    HW211837   2.047   1.155   4.665
 3413SOL     OW11838   2.482   1.786   5.163
 3413SOL    HW111839   2.390   1.769   5.198
 3413SOL    HW211840   2.510   1.878   5.189
 3414SOL     OW11841   2.468   0.964   3.847
 3414SOL    HW111842   2.475   1.048   3.793
 3414SOL    HW211843   2.514   0.977   3.935
 3415SOL     OW11844   3.456   0.114   5.204
 3415SOL    HW111845   3.438   0.181   5.132
 3415SOL    HW211846   3.453   0.160   5.293
 3416SOL     OW11847   1.984   0.643   4.287
 3416SOL    HW111848   1.939   0.555   4.304
 3416SOL    HW211849   1.983   0.697   4.371
 3417SOL     OW11850   3.704   1.767   4.083
 3417SOL    HW111851   3.758   1.738   4.163
 3417SOL    HW211852   3.734   1.857   4.054
 3418SOL     OW11853   1.889   1.596   3.841
 3418SOL    HW111854   1.870   1.500   3.862
 3418SOL    HW211855   1.856   1.654   3.916
 3419SOL     OW11856   3.551   0.922   4.336
 3419SOL    HW111857   3.646   0.893   4.344
 3419SOL    HW211858   3.543   0.987   4.261
 3420SOL     OW11859   3.503   1.108   4.156
 3420SOL    HW111860   3.589   1.110   4.104
 3420SOL    HW211861   3.517   1.155   4.244
 3421SOL     OW11862   1.975   0.737   5.321
 3421SOL    HW111863   2.063   0.724   5.366
 3421SOL    HW211864   1.962   0.834   5.299
 3422SOL     OW11865   2.475   1.365   4.450
 3422SOL    HW111866   2.426   1.278   4.459
 3422SOL    HW211867   2.452   1.408   4.363
 3423SOL     OW11868   3.155   1.228   5.147
 3423SOL    HW111869   3.192   1.155   5.089
 3423SOL    HW211870   3.207   1.233   5.232
 3424SOL     OW11871   2.671   0.004   4.226
 3424SOL    HW111872   2.711   0.095   4.217
 3424SOL    HW211873   2.571   0.012   4.232
 3425SOL     OW11874   2.059   0.976   4.988
 3425SOL    HW111875   2.148   0.931   4.974
 3425SOL    HW211876   1.986   0.911   4.969
 3426SOL     OW11877   3.387   0.999   3.914
 3426SOL    HW111878   3.324   0.923   3.927
 3426SOL    HW211879   3.435   1.017   4.000
 3427SOL     OW11880   3.049   1.792   5.340
 3427SOL    HW111881   3.073   1.852   5.264
 3427SOL    HW211882   3.056   1.697   5.310
 3428SOL     OW11883   2.179   0.251   5.525
 3428SOL    HW111884   2.250   0.322   5.531
 3428SOL    HW211885   2.091   0.290   5.553
 3429SOL     OW11886   3.328   1.417   4.677
 3429SOL    HW111887   3.269   1.423   4.757
 3429SOL    HW211888   3.313   1.329   4.631
 3430SOL     OW11889   3.529   1.714   4.296
 3430SOL    HW111890   3.488   1.691   4.208
 3430SOL    HW211891   3.511   1.640   4.361
 3431SOL     OW11892   2.460   0.729   3.994
 3431SOL    HW111893   2.484   0.798   3.926
 3431SOL    HW211894   2.382   0.762   4.048
 3432SOL     OW11895   3.143   0.345   4.668
 3432SOL    HW111896   3.057   0.295   4.655
 3432SOL    HW211897   3.205   0.291   4.724
 3433SOL     OW11898   3.438   1.662   4.031
 3433SOL    HW111899   3.527   1.708   4.034
 3433SOL    HW211900   3.417   1.638   3.936
 3434SOL     OW11901   2.669   0.605   5.189
 3434SOL    HW111902   2.622   0.602   5.278
 3434SOL    HW211903   2.618   0.550   5.123
 3435SOL     OW11904   3.256   0.469   5.398
 3435SOL    HW111905   3.236   0.512   5.486
 3435SOL    HW211906   3.334   0.407   5.407
 3436SOL     OW11907   2.835   0.890   5.296
 3436SOL    HW111908   2.881   0.806   5.267
 3436SOL    HW211909   2.779   0.924   5.221
 3437SOL     OW11910   2.853   0.410   4.966
 3437SOL    HW111911   2.776   0.444   5.020
 3437SOL    HW211912   2.819   0.359   4.887
 3438SOL     OW11913   2.903   0.701   4.153
 3438SOL    HW111914   2.929   0.697   4.249
 3438SOL    HW211915   2.818   0.650   4.139
 3439SOL     OW11916   1.938   0.811   4.513
 3439SOL    HW111917   2.037   0.799   4.522
 3439SOL    HW211918   1.914   0.906   4.534
 3440SOL     OW11919   1.992   1.821   5.295
 3440SOL    HW111920   1.982   1.806   5.394
 3440SOL    HW211921   1.906   1.857   5.259
 3441SOL     OW11922   2.727   0.348   3.919
 3441SOL    HW111923   2.786   0.411   3.870
 3441SOL    HW211924   2.746   0.254   3.890
 3442SOL     OW11925   3.581   0.585   5.555
 3442SOL    HW111926   3.555   0.674   5.519
 3442SOL    HW211927   3.579   0.517   5.482
 3443SOL     OW11928   3.224   1.144   4.269
 3443SOL    HW111929   3.307   1.115   4.221
 3443SOL    HW211930   3.175   1.211   4.213
 3444SOL     OW11931   2.412   0.196   4.609
 3444SOL    HW111932   2.407   0.191   4.709
 3444SOL    HW211933   2.414   0.292   4.580
 3445SOL     OW11934   2.870   1.456   4.201
 3445SOL    HW111935   2.824   1.528   4.149
 3445SOL    HW211936   2.866   1.476   4.299
 3446SOL     OW11937   2.213   1.801   4.577
 3446SOL    HW111938   2.263   1.715   4.583
 3446SOL    HW211939   2.278   1.878   4.574
 3447SOL     OW11940   3.657   1.066   4.597
 3447SOL    HW111941   3.595   1.051   4.521
 3447SOL    HW211942   3.605   1.077   4.682
 3448SOL     OW11943   3.089   1.550   5.230
 3448SOL    HW111944   3.095   1.473   5.294
 3448SOL    HW211945   3.037   1.524   5.150
 3449SOL     OW11946   2.183   0.943   3.966
 3449SOL    HW111947   2.265   0.982   3.924
 3449SOL    HW211948   2.156   0.861   3.917
 3450SOL     OW11949   3.320   0.735   4.452
 3450SOL    HW111950   3.315   0.670   4.527
 3450SOL    HW211951   3.400   0.794   4.465
 3451SOL     OW11952   2.323   1.266   5.451
 3451SOL    HW111953   2.273   1.267   5.365
 3451SOL    HW211954   2.260   1.248   5.527
 3452SOL     OW11955   2.973   1.776   3.961
 3452SOL    HW111956   2.913   1.714   4.011
 3452SOL    HW211957   3.004   1.732   3.876
 3453SOL     OW11958   2.064   0.285   5.222
 3453SOL    HW111959   1.984   0.345   5.209
 3453SOL    HW211960   2.054   0.236   5.308
 3454SOL     OW11961   3.494   1.377   3.805
 3454SOL    HW111962   3.462   1.471   3.795
 3454SOL    HW211963   3.418   1.314   3.793
 3455SOL     OW11964   2.326   1.743   4.047
 3455SOL    HW111965   2.359   1.782   4.133
 3455SOL    HW211966   2.402   1.736   3.982
 3456SOL     OW11967   3.262   0.107   4.150
 3456SOL    HW111968   3.238   0.070   4.060
 3456SOL    HW211969   3.361   0.123   4.154
 3457SOL     OW11970   2.111   1.785   4.965
 3457SOL    HW111971   2.168   1.720   5.015
 3457SOL    HW211972   2.095   1.752   4.872
 3458SOL     OW11973   2.802   1.698   4.628
 3458SOL    HW111974   2.882   1.641   4.649
 3458SOL    HW211975   2.753   1.658   4.551
 3459SOL     OW11976   2.244   0.700   4.204
 3459SOL    HW111977   2.289   0.610   4.201
 3459SOL    HW211978   2.150   0.689   4.237
 3460SOL     OW11979   3.409   0.222   5.453
 3460SOL    HW111980   3.404   0.259   5.545
 3460SOL    HW211981   3.337   0.153   5.441
 3461SOL     OW11982   2.476   0.122   3.841
 3461SOL    HW111983   2.574   0.100   3.848
 3461SOL    HW211984   2.445   0.105   3.748
 3462SOL     OW11985   2.643   0.264   5.473
 3462SOL    HW111986   2.710   0.203   5.516
 3462SOL    HW211987   2.570   0.283   5.538
 3463SOL     OW11988   2.750   1.514   4.919
 3463SOL    HW111989   2.727   1.489   4.825
 3463SOL    HW211990   2.811   1.445   4.958
 3464SOL     OW11991   3.213   0.590   5.157
 3464SOL    HW111992   3.241   0.547   5.242
 3464SOL    HW211993   3.238   0.686   5.158
 3465SOL     OW11994   2.665   1.402   4.648
 3465SOL    HW111995   2.755   1.416   4.606
 3465SOL    HW211996   2.594   1.404   4.577
 3466SOL     OW11997   2.784   0.503   4.623
 3466SOL    HW111998   2.759   0.494   4.527
 3466SOL    HW211999   2.832   0.421   4.654
 3467SOL     OW12000   2.401   0.064   4.236
 3467SOL    HW112001   2.320   0.065   4.294
 3467SOL    HW212002   2.404   0.147   4.181
 3468SOL     OW12003   3.296   1.188   3.765
 3468SOL    HW112004   3.328   1.112   3.822
 3468SOL    HW212005   3.204   1.215   3.795
 3469SOL     OW12006   2.159   0.035   3.895
 3469SOL    HW112007   2.208   0.119   3.874
 3469SOL    HW212008   2.221  -0.030   3.940
 3470SOL     OW12009   2.797   0.236   4.204
 3470SOL    HW112010   2.749   0.277   4.126
 3470SOL    HW212011   2.896   0.234   4.185
 3471SOL     OW12012   2.938   0.683   5.188
 3471SOL    HW112013   2.858   0.622   5.191
 3471SOL    HW212014   3.019   0.630   5.164
 3472SOL     OW12015   3.089   1.570   4.517
 3472SOL    HW112016   3.110   1.644   4.452
 3472SOL    HW212017   3.157   1.570   4.590
 3473SOL     OW12018   2.321   1.152   4.465
 3473SOL    HW112019   2.250   1.125   4.530
 3473SOL    HW212020   2.295   1.124   4.372
 3474SOL     OW12021   3.133   1.797   4.315
 3474SOL    HW112022   3.177   1.861   4.251
 3474SOL    HW212023   3.083   1.849   4.385
 3475SOL     OW12024   2.894   0.549   3.740
 3475SOL    HW112025   2.853   0.631   3.701
 3475SOL    HW212026   2.958   0.575   3.813
 3476SOL     OW12027   1.940   0.556   5.110
 3476SOL    HW112028   2.032   0.555   5.069
 3476SOL    HW212029   1.934   0.630   5.177
 3477SOL     OW12030   2.423   0.222   4.871
 3477SOL    HW112031   2.461   0.138   4.908
 3477SOL    HW212032   2.335   0.241   4.915
 3478SOL     OW12033   2.728   0.454   4.366
 3478SOL    HW112034   2.696   0.526   4.304
 3478SOL    HW212035   2.752   0.373   4.313
 3479SOL     OW12036   2.879   0.039   4.477
 3479SOL    HW112037   2.807   0.044   4.408
 3479SOL    HW212038   2.855  -0.030   4.546
 3480SOL     OW12039   3.291   1.173   4.591
 3480SOL    HW112040   3.236   1.089   4.584
 3480SOL    HW212041   3.317   1.202   4.499
 3481SOL     OW12042   3.328   0.590   4.716
 3481SOL    HW112043   3.298   0.495   4.723
 3481SOL    HW212044   3.401   0.606   4.782
 3482SOL     OW12045   3.719   0.833   4.101
 3482SOL    HW112046   3.761   0.769   4.165
 3482SOL    HW212047   3.681   0.782   4.023
 3483SOL     OW12048   2.350   1.385   3.898
 3483SOL    HW112049   2.263   1.370   3.945
 3483SOL    HW212050   2.333   1.411   3.803
 3484SOL     OW12051   3.526   1.280   4.381
 3484SOL    HW112052   3.625   1.288   4.395
 3484SOL    HW212053   3.481   1.364   4.412
 3485SOL     OW12054   3.252   0.575   3.802
 3485SOL    HW112055   3.198   0.554   3.883
 3485SOL    HW212056   3.343   0.534   3.811
 3486SOL     OW12057   2.389   0.256   4.052
 3486SOL    HW112058   2.416   0.197   3.977
 3486SOL    HW212059   2.389   0.351   4.021
 3487SOL     OW12060   3.616   1.223   5.312
 3487SOL    HW112061   3.707   1.184   5.299
 3487SOL    HW212062   3.624   1.319   5.336
 3488SOL     OW12063   2.926   1.347   5.064
 3488SOL    HW112064   2.846   1.324   5.119
 3488SOL    HW212065   3.009   1.321   5.113
 3489SOL     OW12066   3.454   1.629   5.349
 3489SOL    HW112067   3.481   1.663   5.259
 3489SOL    HW212068   3.533   1.591   5.395
 3490SOL     OW12069   2.973   1.195   4.824
 3490SOL    HW112070   2.933   1.239   4.905
 3490SOL    HW212071   2.932   1.232   4.741
 3491SOL     OW12072   3.500   1.099   4.803
 3491SOL    HW112073   3.505   1.180   4.862
 3491SOL    HW212074   3.414   1.101   4.752
 3492SOL     OW12075   2.777   0.089   5.126
 3492SOL    HW112076   2.802   0.069   5.031
 3492SOL    HW212077   2.849   0.145   5.168
 3493SOL     OW12078   2.842   1.116   5.443
 3493SOL    HW112079   2.743   1.122   5.453
 3493SOL    HW212080   2.865   1.036   5.387
 3494SOL     OW12081   2.567   1.050   4.092
 3494SOL    HW112082   2.553   1.057   4.191
 3494SOL    HW212083   2.651   0.999   4.074
 3495SOL     OW12084   2.272   0.813   4.975
 3495SOL    HW112085   2.358   0.825   5.025
 3495SOL    HW212086   2.230   0.726   5.002
 3496SOL     OW12087   3.136   0.386   4.986
 3496SOL    HW112088   3.157   0.460   5.050
 3496SOL    HW212089   3.047   0.403   4.943
 3497SOL     OW12090   1.926   1.564   5.055
 3497SOL    HW112091   1.880   1.646   5.021
 3497SOL    HW212092   2.024   1.583   5.064
 3498SOL     OW12093   2.229   1.100   4.225
 3498SOL    HW112094   2.222   1.183   4.169
 3498SOL    HW212095   2.233   1.020   4.165
 3499SOL     OW12096   2.428   0.537   4.589
 3499SOL    HW112097   2.440   0.603   4.515
 3499SOL    HW212098   2.474   0.571   4.672
 3500SOL     OW12099   3.114   1.348   4.112
 3500SOL    HW112100   3.164   1.425   4.152
 3500SOL    HW212101   3.019   1.350   4.144
 3501SOL     OW12102   3.134   1.445   4.866
 3501SOL    HW112103   3.181   1.458   4.953
 3501SOL    HW212104   3.068   1.371   4.875
 3502SOL     OW12105   3.444   0.639   4.196
 3502SOL    HW112106   3.413   0.700   4.269
 3502SOL    HW212107   3.494   0.691   4.127
 3503SOL     OW12108   2.216   1.510   5.053
 3503SOL    HW112109   2.195   1.466   4.966
 3503SOL    HW212110   2.313   1.536   5.056
 3504SOL     OW12111   2.264   0.751   5.322
 3504SOL    HW112112   2.332   0.806   5.275
 3504SOL    HW212113   2.304   0.663   5.349
 3505SOL     OW12114   3.449   0.779   5.394
 3505SOL    HW112115   3.357   0.817   5.389
 3505SOL    HW212116   3.509   0.826   5.329
 3506SOL     OW12117   2.875   0.105   5.494
 3506SOL    HW112118   2.881   0.190   5.442
 3506SOL    HW212119   2.907   0.029   5.437
 3507SOL     OW12120   2.366   0.050   5.464
 3507SOL    HW112121   2.324  -0.007   5.394
 3507SOL    HW212122   2.300   0.119   5.496
 3508SOL     OW12123   2.435   0.870   4.753
 3508SOL    HW112124   2.479   0.959   4.744
 3508SOL    HW212125   2.372   0.870   4.830
 3509SOL     OW12126   3.222   0.862   4.769
 3509SOL    HW112127   3.147   0.862   4.703
 3509SOL    HW212128   3.259   0.770   4.778
 3510SOL     OW12129   3.071   0.525   3.999
 3510SOL    HW112130   3.084   0.441   4.053
 3510SOL    HW212131   3.042   0.599   4.059
 3511SOL     OW12132   2.169   0.213   4.955
 3511SOL    HW112133   2.146   0.250   5.045
 3511SOL    HW212134   2.139   0.118   4.949
 3512SOL     OW12135   1.899   1.310   5.006
 3512SOL    HW112136   1.952   1.261   5.074
 3512SOL    HW212137   1.921   1.408   5.011
 3513SOL     OW12138   2.594   0.634   4.788
 3513SOL    HW112139   2.653   0.608   4.712
 3513SOL    HW212140   2.566   0.730   4.777
 3514SOL     OW12141   3.590   0.935   5.578
 3514SOL    HW112142   3.544   0.928   5.489
 3514SOL    HW212143   3.528   0.979   5.644
 3515SOL     OW12144   2.169   0.063   4.342
 3515SOL    HW112145   2.158   0.157   4.375
 3515SOL    HW212146   2.164   0.000   4.419
 3516SOL     OW12147   3.484   0.367   4.098
 3516SOL    HW112148   3.486   0.291   4.162
 3516SOL    HW212149   3.436   0.444   4.138
 3517SOL     OW12150   2.885   0.766   4.690
 3517SOL    HW112151   2.900   0.787   4.786
 3517SOL    HW212152   2.855   0.671   4.681
 3518SOL     OW12153   2.842   1.573   5.424
 3518SOL    HW112154   2.822   1.617   5.336
 3518SOL    HW212155   2.881   1.482   5.408
 3519SOL     OW12156   3.721   1.518   5.329
 3519SOL    HW112157   3.735   1.545   5.234
 3519SOL    HW212158   3.804   1.540   5.382
 3520SOL     OW12159   2.212   0.898   5.528
 3520SOL    HW112160   2.288   0.942   5.576
 3520SOL    HW212161   2.247   0.851   5.446
 3521SOL     OW12162   3.402   0.274   3.849
 3521SOL    HW112163   3.341   0.199   3.872
 3521SOL    HW212164   3.424   0.326   3.932
 3522SOL     OW12165   3.165   0.838   3.766
 3522SOL    HW112166   3.199   0.745   3.781
 3522SOL    HW212167   3.183   0.865   3.671
 3523SOL     OW12168   2.930   1.333   4.573
 3523SOL    HW112169   2.937   1.249   4.518
 3523SOL    HW212170   2.992   1.402   4.537
 3524SOL     OW12171   2.181   0.810   4.673
 3524SOL    HW112172   2.274   0.846   4.678
 3524SOL    HW212173   2.175   0.725   4.725
 3525SOL     OW12174   2.201   0.509   4.730
 3525SOL    HW112175   2.149   0.426   4.713
 3525SOL    HW212176   2.278   0.514   4.666
 3526SOL     OW12177   3.000   0.380   5.402
 3526SOL    HW112178   2.955   0.443   5.466
 3526SOL    HW212179   3.093   0.411   5.385
 3527SOL     OW12180   3.022   0.207   5.201
 3527SOL    HW112181   3.022   0.271   5.278
 3527SOL    HW212182   3.050   0.255   5.118
 3528SOL     OW12183   1.870   1.326   3.924
 3528SOL    HW112184   1.777   1.347   3.893
 3528SOL    HW212185   1.880   1.227   3.937
 3529SOL     OW12186   1.950   1.801   4.651
 3529SOL    HW112187   1.908   1.715   4.624
 3529SOL    HW212188   2.044   1.804   4.617
 3530SOL     OW12189   2.366   1.568   4.634
 3530SOL    HW112190   2.432   1.642   4.643
 3530SOL    HW212191   2.410   1.489   4.592
 3531SOL     OW12192   2.864   0.796   4.962
 3531SOL    HW112193   2.905   0.764   5.048
 3531SOL    HW212194   2.768   0.769   4.959
 3532SOL     OW12195   1.902   0.544   4.838
 3532SOL    HW112196   1.987   0.511   4.797
 3532SOL    HW212197   1.915   0.559   4.936
 3533SOL     OW12198   2.051   0.520   5.446
 3533SOL    HW112199   2.110   0.480   5.376
 3533SOL    HW212200   1.993   0.591   5.405
 3534SOL     OW12201   3.231   0.950   5.384
 3534SOL    HW112202   3.270   1.039   5.404
 3534SOL    HW212203   3.241   0.930   5.287
 3535SOL     OW12204   2.677   0.572   4.049
 3535SOL    HW112205   2.684   0.483   4.003
 3535SOL    HW212206   2.583   0.606   4.041
 3536SOL     OW12207   3.519   0.604   4.930
 3536SOL    HW112208   3.481   0.535   4.992
 3536SOL    HW212209   3.601   0.568   4.886
 3537SOL     OW12210   2.114   1.564   5.468
 3537SOL    HW112211   2.084   1.621   5.544
 3537SOL    HW212212   2.107   1.467   5.494
 3538SOL     OW12213   2.533   0.464   4.993
 3538SOL    HW112214   2.499   0.375   4.963
 3538SOL    HW212215   2.559   0.518   4.913
 3539SOL     OW12216   2.792   1.678   5.189
 3539SOL    HW112217   2.768   1.660   5.094
 3539SOL    HW212218   2.822   1.772   5.199
 3540SOL     OW12219   2.335   0.500   3.915
 3540SOL    HW112220   2.396   0.580   3.919
 3540SOL    HW212221   2.240   0.531   3.922
 3541SOL     OW12222   2.021   1.137   5.190
 3541SOL    HW112223   2.043   1.076   5.266
 3541SOL    HW212224   2.031   1.088   5.104
 3542SOL     OW12225   3.209   1.059   4.958
 3542SOL    HW112226   3.233   0.996   4.884
 3542SOL    HW212227   3.119   1.099   4.940
 3543SOL     OW12228   3.164   0.855   4.033
 3543SOL    HW112229   3.078   0.824   4.075
 3543SOL    HW212230   3.160   0.841   3.934
 3544SOL     OW12231   3.621   1.747   4.878
 3544SOL    HW112232   3.682   1.777   4.805
 3544SOL    HW212233   3.583   1.658   4.856
 3545SOL     OW12234   3.114   1.731   4.852
 3545SOL    HW112235   3.198   1.736   4.798
 3545SOL    HW212236   3.091   1.635   4.870
 3546SOL     OW12237   1.945   1.258   4.746
 3546SOL    HW112238   1.940   1.257   4.846
 3546SOL    HW212239   1.862   1.217   4.708
 3547SOL     OW12240   2.550   1.662   5.440
 3547SOL    HW112241   2.494   1.743   5.449
 3547SOL    HW212242   2.602   1.666   5.354
 3548SOL     OW12243   3.250   1.573   4.201
 3548SOL    HW112244   3.317   1.585   4.127
 3548SOL    HW212245   3.210   1.662   4.224
 3549SOL     OW12246   1.992   1.794   5.575
 3549SOL    HW112247   1.951   1.720   5.628
 3549SOL    HW212248   2.056   1.845   5.633
 3550SOL     OW12249   3.142   0.927   4.396
 3550SOL    HW112250   3.202   0.846   4.398
 3550SOL    HW212251   3.182   0.996   4.336
 3551SOL     OW12252   2.692   1.273   5.146
 3551SOL    HW112253   2.687   1.306   5.241
 3551SOL    HW212254   2.606   1.292   5.100
 3552SOL     OW12255   2.534   1.616   3.878
 3552SOL    HW112256   2.543   1.626   3.779
 3552SOL    HW212257   2.494   1.527   3.899
 3553SOL     OW12258   3.512   1.720   5.118
 3553SOL    HW112259   3.565   1.730   5.034
 3553SOL    HW212260   3.485   1.810   5.152
 3554SOL     OW12261   3.703   0.175   4.687
 3554SOL    HW112262   3.742   0.090   4.651
 3554SOL    HW212263   3.605   0.177   4.668
 3555SOL     OW12264   2.125   0.326   4.444
 3555SOL    HW112265   2.046   0.377   4.410
 3555SOL    HW212266   2.116   0.311   4.542
 3556SOL     OW12267   3.056   1.612   3.755
 3556SOL    HW112268   3.062   1.519   3.792
 3556SOL    HW212269   2.997   1.612   3.675
 3557SOL     OW12270   2.684   1.002   5.096
 3557SOL    HW112271   2.724   1.001   5.004
 3557SOL    HW212272   2.694   1.094   5.136
 3558SOL     OW12273   2.778   0.910   4.015
 3558SOL    HW112274   2.841   0.948   3.947
 3558SOL    HW212275   2.818   0.827   4.054
 3559SOL     OW12276   3.366   1.607   3.768
 3559SOL    HW112277   3.274   1.644   3.775
 3559SOL    HW212278   3.404   1.627   3.678
 3560SOL     OW12279   2.234   1.288   5.214
 3560SOL    HW112280   2.221   1.381   5.180
 3560SOL    HW212281   2.150   1.236   5.201
 3561SOL     OW12282   3.476   1.292   5.013
 3561SOL    HW112283   3.536   1.295   5.093
 3561SOL    HW212284   3.401   1.356   5.026
 3562SOL     OW12285   2.901   1.098   4.420
 3562SOL    HW112286   2.831   1.051   4.474
 3562SOL    HW212287   2.960   1.030   4.377
 3563SOL     OW12288   2.876   0.236   4.695
 3563SOL    HW112289   2.868   0.200   4.602
 3563SOL    HW212290   2.874   0.160   4.760
 3564SOL     OW12291   2.452   1.487   4.215
 3564SOL    HW112292   2.494   1.429   4.145
 3564SOL    HW212293   2.408   1.566   4.171
 3565SOL     OW12294   3.571   0.385   5.105
 3565SOL    HW112295   3.644   0.454   5.109
 3565SOL    HW212296   3.599   0.310   5.046
 3566SOL     OW12297   2.117   1.348   4.014
 3566SOL    HW112298   2.021   1.349   3.987
 3566SOL    HW212299   2.129   1.401   4.098
 3567SOL     OW12300   1.967   1.013   5.450
 3567SOL    HW112301   1.890   0.980   5.504
 3567SOL    HW212302   2.052   0.983   5.492
 3568SOL     OW12303   2.534   0.203   5.213
 3568SOL    HW112304   2.624   0.187   5.173
 3568SOL    HW212305   2.542   0.208   5.312
 3569SOL     OW12306   1.937   0.345   3.757
 3569SOL    HW112307   1.845   0.317   3.728
 3569SOL    HW212308   1.968   0.422   3.701
 3570SOL     OW12309   3.302   0.856   5.122
 3570SOL    HW112310   3.245   0.908   5.059
 3570SOL    HW212311   3.398   0.868   5.098
 3571SOL     OW12312   1.934   0.166   4.042
 3571SOL    HW112313   1.917   0.249   3.988
 3571SOL    HW212314   2.024   0.129   4.020
 3572SOL     OW12315   3.045   1.335   3.843
 3572SOL    HW112316   2.946   1.324   3.845
 3572SOL    HW212317   3.079   1.350   3.936
 3573SOL     OW12318   2.475   0.842   5.155
 3573SOL    HW112319   2.531   0.923   5.138
 3573SOL    HW212320   2.534   0.762   5.158
 3574SOL     OW12321   3.355   1.767   4.683
 3574SOL    HW112322   3.388   1.831   4.614
 3574SOL    HW212323   3.421   1.761   4.758
 3575SOL     OW12324   2.578   0.565   5.432
 3575SOL    HW112325   2.597   0.630   5.506
 3575SOL    HW212326   2.638   0.485   5.441
 3576SOL     OW12327   3.312   1.220   5.357
 3576SOL    HW112328   3.303   1.210   5.456
 3576SOL    HW212329   3.408   1.213   5.331
 3577SOL     OW12330   2.252   1.741   5.284
 3577SOL    HW112331   2.161   1.782   5.282
 3577SOL    HW212332   2.245   1.647   5.316
 3578SOL     OW12333   3.536   0.883   4.978
 3578SOL    HW112334   3.509   0.794   4.941
 3578SOL    HW212335   3.537   0.951   4.905
 3579SOL     OW12336   3.087   0.325   4.173
 3579SOL    HW112337   3.152   0.251   4.162
 3579SOL    HW212338   3.107   0.375   4.257
 3580SOL     OW12339   2.456   0.745   4.376
 3580SOL    HW112340   2.506   0.830   4.357
 3580SOL    HW212341   2.368   0.747   4.328
 3581SOL     OW12342   3.639   0.342   5.366
 3581SOL    HW112343   3.622   0.373   5.272
 3581SOL    HW212344   3.555   0.305   5.404
 3582SOL     OW12345   3.592   0.934   5.241
 3582SOL    HW112346   3.630   1.025   5.256
 3582SOL    HW212347   3.584   0.917   5.142
 3583SOL     OW12348   2.721   1.374   3.740
 3583SOL    HW112349   2.675   1.389   3.828
 3583SOL    HW212350   2.765   1.459   3.710
 3584SOL     OW12351   2.523   1.790   4.677
 3584SOL    HW112352   2.477   1.878   4.664
 3584SOL    HW212353   2.622   1.802   4.670
 3585SOL     OW12354   2.721   0.956   4.585
 3585SOL    HW112355   2.775   0.887   4.633
 3585SOL    HW212356   2.689   1.025   4.651
 3586SOL     OW12357   2.945   0.984   3.811
 3586SOL    HW112358   2.922   1.037   3.729
 3586SOL    HW212359   3.026   0.928   3.792
 3587SOL     OW12360   3.723   1.569   4.575
 3587SOL    HW112361   3.652   1.557   4.505
 3587SOL    HW212362   3.724   1.490   4.635
 3588SOL     OW12363   2.083   1.314   5.568
 3588SOL    HW112364   2.018   1.241   5.547
 3588SOL    HW212365   2.087   1.328   5.666
 3589SOL     OW12366   1.941   1.240   4.377
 3589SOL    HW112367   1.940   1.193   4.465
 3589SOL    HW212368   2.023   1.212   4.326
 3590SOL     OW12369   2.534   1.391   5.348
 3590SOL    HW112370   2.456   1.341   5.386
 3590SOL    HW212371   2.531   1.486   5.379
 3591SOL     OW12372   3.686   0.192   4.951
 3591SOL    HW112373   3.682   0.102   4.995
 3591SOL    HW212374   3.689   0.181   4.852
 3592SOL     OW12375   2.290   0.424   4.244
 3592SOL    HW112376   2.320   0.352   4.182
 3592SOL    HW212377   2.251   0.384   4.327
 3593SOL     OW12378   3.567   1.487   4.828
 3593SOL    HW112379   3.474   1.462   4.801
 3593SOL    HW212380   3.593   1.437   4.910
 3594SOL     OW12381   2.179   0.547   5.004
 3594SOL    HW112382   2.217   0.488   5.076
 3594SOL    HW212383   2.219   0.521   4.916
 3595SOL     OW12384   2.674   1.586   4.411
 3595SOL    HW112385   2.706   1.596   4.317
 3595SOL    HW212386   2.595   1.524   4.413
 3596SOL     OW12387   3.286   0.214   4.836
 3596SOL    HW112388   3.338   0.149   4.891
 3596SOL    HW212389   3.237   0.277   4.897
 3597SOL     OW12390   2.863   0.034   4.878
 3597SOL    HW112391   2.800  -0.038   4.847
 3597SOL    HW212392   2.956  -0.002   4.878
 3598SOL     OW12393   2.632   1.330   4.025
 3598SOL    HW112394   2.586   1.243   4.042
 3598SOL    HW212395   2.723   1.327   4.066
 3599SOL     OW12396   2.480   1.567   5.008
 3599SOL    HW112397   2.475   1.649   5.065
 3599SOL    HW212398   2.569   1.564   4.963
 3600SOL     OW12399   3.214   0.052   3.892
 3600SOL    HW112400   3.249   0.011   3.808
 3600SOL    HW212401   3.124   0.014   3.912
 3601SOL     OW12402   3.162   0.453   4.415
 3601SOL    HW112403   3.103   0.533   4.419
 3601SOL    HW212404   3.177   0.418   4.508
 3602SOL     OW12405   3.455   0.221   4.606
 3602SOL    HW112406   3.371   0.220   4.660
 3602SOL    HW212407   3.457   0.304   4.550
 3603SOL     OW12408   1.901   1.077   4.024
 3603SOL    HW112409   2.000   1.066   4.015
 3603SOL    HW212410   1.861   0.991   4.056
 3604SOL     OW12411   2.737   1.646   4.061
 3604SOL    HW112412   2.660   1.611   4.007
 3604SOL    HW212413   2.705   1.717   4.123
 3605SOL     OW12414   2.092   0.628   5.699
 3605SOL    HW112415   1.999   0.626   5.736
 3605SOL    HW212416   2.093   0.589   5.607
 3606SOL     OW12417   2.087   0.275   6.582
 3606SOL    HW112418   2.122   0.258   6.674
 3606SOL    HW212419   1.999   0.230   6.570
 3607SOL     OW12420   1.881   0.368   6.233
 3607SOL    HW112421   1.799   0.411   6.272
 3607SOL    HW212422   1.853   0.295   6.170
 3608SOL     OW12423   2.431   1.275   6.751
 3608SOL    HW112424   2.338   1.268   6.714
 3608SOL    HW212425   2.442   1.364   6.795
 3609SOL     OW12426   3.417   1.511   6.289
 3609SOL    HW112427   3.360   1.495   6.370
 3609SOL    HW212428   3.358   1.521   6.209
 3610SOL     OW12429   2.997   0.703   6.303
 3610SOL    HW112430   3.054   0.781   6.278
 3610SOL    HW212431   2.937   0.729   6.379
 3611SOL     OW12432   3.617   0.607   5.817
 3611SOL    HW112433   3.605   0.594   5.718
 3611SOL    HW212434   3.587   0.526   5.866
 3612SOL     OW12435   2.630   1.144   6.609
 3612SOL    HW112436   2.552   1.161   6.669
 3612SOL    HW212437   2.664   1.231   6.573
 3613SOL     OW12438   2.547   1.012   6.251
 3613SOL    HW112439   2.616   0.996   6.321
 3613SOL    HW212440   2.474   1.069   6.289
 3614SOL     OW12441   2.197   1.435   6.647
 3614SOL    HW112442   2.119   1.404   6.594
 3614SOL    HW212443   2.255   1.493   6.590
 3615SOL     OW12444   3.465   0.447   6.323
 3615SOL    HW112445   3.391   0.493   6.273
 3615SOL    HW212446   3.516   0.515   6.376
 3616SOL     OW12447   2.093   1.713   6.069
 3616SOL    HW112448   2.127   1.790   6.123
 3616SOL    HW212449   2.137   1.713   5.979
 3617SOL     OW12450   2.092   1.434   6.124
 3617SOL    HW112451   2.066   1.530   6.124
 3617SOL    HW212452   2.021   1.380   6.169
 3618SOL     OW12453   2.102   1.091   6.472
 3618SOL    HW112454   2.116   1.007   6.524
 3618SOL    HW212455   2.047   1.155   6.527
 3619SOL     OW12456   2.482   1.786   7.025
 3619SOL    HW112457   2.390   1.769   7.060
 3619SOL    HW212458   2.510   1.878   7.051
 3620SOL     OW12459   2.468   0.964   5.709
 3620SOL    HW112460   2.475   1.048   5.655
 3620SOL    HW212461   2.514   0.977   5.797
 3621SOL     OW12462   1.984   0.643   6.149
 3621SOL    HW112463   1.939   0.555   6.166
 3621SOL    HW212464   1.983   0.697   6.233
 3622SOL     OW12465   3.704   1.767   5.945
 3622SOL    HW112466   3.758   1.738   6.025
 3622SOL    HW212467   3.734   1.857   5.916
 3623SOL     OW12468   1.889   1.596   5.703
 3623SOL    HW112469   1.870   1.500   5.724
 3623SOL    HW212470   1.856   1.654   5.778
 3624SOL     OW12471   3.551   0.922   6.198
 3624SOL    HW112472   3.646   0.893   6.206
 3624SOL    HW212473   3.543   0.987   6.123
 3625SOL     OW12474   3.503   1.108   6.018
 3625SOL    HW112475   3.589   1.110   5.966
 3625SOL    HW212476   3.517   1.155   6.106
 3626SOL     OW12477   2.475   1.365   6.312
 3626SOL    HW112478   2.426   1.278   6.321
 3626SOL    HW212479   2.452   1.408   6.225
 3627SOL     OW12480   2.671   0.004   6.088
 3627SOL    HW112481   2.711   0.095   6.079
 3627SOL    HW212482   2.571   0.012   6.094
 3628SOL     OW12483   2.059   0.976   6.850
 3628SOL    HW112484   2.148   0.931   6.836
 3628SOL    HW212485   1.986   0.911   6.831
 3629SOL     OW12486   3.387   0.999   5.776
 3629SOL    HW112487   3.324   0.923   5.789
 3629SOL    HW212488   3.435   1.017   5.862
 3630SOL     OW12489   3.328   1.417   6.539
 3630SOL    HW112490   3.269   1.423   6.619
 3630SOL    HW212491   3.313   1.329   6.493
 3631SOL     OW12492   3.529   1.714   6.158
 3631SOL    HW112493   3.488   1.691   6.070
 3631SOL    HW212494   3.511   1.640   6.223
 3632SOL     OW12495   2.460   0.729   5.856
 3632SOL    HW112496   2.484   0.798   5.788
 3632SOL    HW212497   2.382   0.762   5.910
 3633SOL     OW12498   3.143   0.345   6.530
 3633SOL    HW112499   3.057   0.295   6.517
 3633SOL    HW212500   3.205   0.291   6.586
 3634SOL     OW12501   3.438   1.662   5.893
 3634SOL    HW112502   3.527   1.708   5.896
 3634SOL    HW212503   3.417   1.638   5.798
 3635SOL     OW12504   2.669   0.605   7.051
 3635SOL    HW112505   2.622   0.602   7.140
 3635SOL    HW212506   2.618   0.550   6.985
 3636SOL     OW12507   2.853   0.410   6.828
 3636SOL    HW112508   2.776   0.444   6.882
 3636SOL    HW212509   2.819   0.359   6.749
 3637SOL     OW12510   2.903   0.701   6.015
 3637SOL    HW112511   2.929   0.697   6.111
 3637SOL    HW212512   2.818   0.650   6.001
 3638SOL     OW12513   1.938   0.811   6.375
 3638SOL    HW112514   2.037   0.799   6.384
 3638SOL    HW212515   1.914   0.906   6.396
 3639SOL     OW12516   1.992   1.821   7.157
 3639SOL    HW112517   1.982   1.806   7.256
 3639SOL    HW212518   1.906   1.857   7.121
 3640SOL     OW12519   2.727   0.348   5.781
 3640SOL    HW112520   2.786   0.411   5.732
 3640SOL    HW212521   2.746   0.254   5.752
 3641SOL     OW12522   3.224   1.144   6.131
 3641SOL    HW112523   3.307   1.115   6.083
 3641SOL    HW212524   3.175   1.211   6.075
 3642SOL     OW12525   2.412   0.196   6.471
 3642SOL    HW112526   2.407   0.191   6.571
 3642SOL    HW212527   2.414   0.292   6.442
 3643SOL     OW12528   2.870   1.456   6.063
 3643SOL    HW112529   2.824   1.528   6.011
 3643SOL    HW212530   2.866   1.476   6.161
 3644SOL     OW12531   2.213   1.801   6.439
 3644SOL    HW112532   2.263   1.715   6.445
 3644SOL    HW212533   2.278   1.878   6.436
 3645SOL     OW12534   3.657   1.066   6.459
 3645SOL    HW112535   3.595   1.051   6.383
 3645SOL    HW212536   3.605   1.077   6.544
 3646SOL     OW12537   2.183   0.943   5.828
 3646SOL    HW112538   2.265   0.982   5.786
 3646SOL    HW212539   2.156   0.861   5.779
 3647SOL     OW12540   3.320   0.735   6.314
 3647SOL    HW112541   3.315   0.670   6.389
 3647SOL    HW212542   3.400   0.794   6.327
 3648SOL     OW12543   2.973   1.776   5.823
 3648SOL    HW112544   2.913   1.714   5.873
 3648SOL    HW212545   3.004   1.732   5.738
 3649SOL     OW12546   3.494   1.377   5.667
 3649SOL    HW112547   3.462   1.471   5.657
 3649SOL    HW212548   3.418   1.314   5.655
 3650SOL     OW12549   2.326   1.743   5.909
 3650SOL    HW112550   2.359   1.782   5.995
 3650SOL    HW212551   2.402   1.736   5.844
 3651SOL     OW12552   3.262   0.107   6.012
 3651SOL    HW112553   3.238   0.070   5.922
 3651SOL    HW212554   3.361   0.123   6.016
 3652SOL     OW12555   2.111   1.785   6.827
 3652SOL    HW112556   2.168   1.720   6.877
 3652SOL    HW212557   2.095   1.752   6.734
 3653SOL     OW12558   2.802   1.698   6.490
 3653SOL    HW112559   2.882   1.641   6.511
 3653SOL    HW212560   2.753   1.658   6.413
 3654SOL     OW12561   2.244   0.700   6.066
 3654SOL    HW112562   2.289   0.610   6.063
 3654SOL    HW212563   2.150   0.689   6.099
 3655SOL     OW12564   2.476   0.122   5.703
 3655SOL    HW112565   2.574   0.100   5.710
 3655SOL    HW212566   2.445   0.105   5.610
 3656SOL     OW12567   2.750   1.514   6.781
 3656SOL    HW112568   2.727   1.489   6.687
 3656SOL    HW212569   2.811   1.445   6.820
 3657SOL     OW12570   2.665   1.402   6.510
 3657SOL    HW112571   2.755   1.416   6.468
 3657SOL    HW212572   2.594   1.404   6.439
 3658SOL     OW12573   2.784   0.503   6.485
 3658SOL    HW112574   2.759   0.494   6.389
 3658SOL    HW212575   2.832   0.421   6.516
 3659SOL     OW12576   2.401   0.064   6.098
 3659SOL    HW112577   2.320   0.065   6.156
 3659SOL    HW212578   2.404   0.147   6.043
 3660SOL     OW12579   3.296   1.188   5.627
 3660SOL    HW112580   3.328   1.112   5.684
 3660SOL    HW212581   3.204   1.215   5.657
 3661SOL     OW12582   2.159   0.035   5.757
 3661SOL    HW112583   2.208   0.119   5.736
 3661SOL    HW212584   2.221  -0.030   5.802
 3662SOL     OW12585   2.797   0.236   6.066
 3662SOL    HW112586   2.749   0.277   5.988
 3662SOL    HW212587   2.896   0.234   6.047
 3663SOL     OW12588   3.089   1.570   6.379
 3663SOL    HW112589   3.110   1.644   6.314
 3663SOL    HW212590   3.157   1.570   6.452
 3664SOL     OW12591   2.321   1.152   6.327
 3664SOL    HW112592   2.250   1.125   6.392
 3664SOL    HW212593   2.295   1.124   6.234
 3665SOL     OW12594   3.133   1.797   6.177
 3665SOL    HW112595   3.177   1.861   6.113
 3665SOL    HW212596   3.083   1.849   6.247
 3666SOL     OW12597   2.894   0.549   5.602
 3666SOL    HW112598   2.853   0.631   5.563
 3666SOL    HW212599   2.958   0.575   5.675
 3667SOL     OW12600   2.423   0.222   6.733
 3667SOL    HW112601   2.461   0.138   6.770
 3667SOL    HW212602   2.335   0.241   6.777
 3668SOL     OW12603   2.728   0.454   6.228
 3668SOL    HW112604   2.696   0.526   6.166
 3668SOL    HW212605   2.752   0.373   6.175
 3669SOL     OW12606   2.879   0.039   6.339
 3669SOL    HW112607   2.807   0.044   6.270
 3669SOL    HW212608   2.855  -0.030   6.408
 3670SOL     OW12609   3.291   1.173   6.453
 3670SOL    HW112610   3.236   1.089   6.446
 3670SOL    HW212611   3.317   1.202   6.361
 3671SOL     OW12612   3.328   0.590   6.578
 3671SOL    HW112613   3.298   0.495   6.585
 3671SOL    HW212614   3.401   0.606   6.644
 3672SOL     OW12615   3.719   0.833   5.963
 3672SOL    HW112616   3.761   0.769   6.027
 3672SOL    HW212617   3.681   0.782   5.885
 3673SOL     OW12618   2.350   1.385   5.760
 3673SOL    HW112619   2.263   1.370   5.807
 3673SOL    HW212620   2.333   1.411   5.665
 3674SOL     OW12621   3.526   1.280   6.243
 3674SOL    HW112622   3.625   1.288   6.257
 3674SOL    HW212623   3.481   1.364   6.274
 3675SOL     OW12624   3.252   0.575   5.664
 3675SOL    HW112625   3.198   0.554   5.745
 3675SOL    HW212626   3.343   0.534   5.673
 3676SOL     OW12627   2.389   0.256   5.914
 3676SOL    HW112628   2.416   0.197   5.839
 3676SOL    HW212629   2.389   0.351   5.883
 3677SOL     OW12630   3.616   1.223   7.174
 3677SOL    HW112631   3.707   1.184   7.161
 3677SOL    HW212632   3.624   1.319   7.198
 3678SOL     OW12633   2.973   1.195   6.686
 3678SOL    HW112634   2.933   1.239   6.767
 3678SOL    HW212635   2.932   1.232   6.603
 3679SOL     OW12636   3.500   1.099   6.665
 3679SOL    HW112637   3.505   1.180   6.724
 3679SOL    HW212638   3.414   1.101   6.614
 3680SOL     OW12639   2.567   1.050   5.954
 3680SOL    HW112640   2.553   1.057   6.053
 3680SOL    HW212641   2.651   0.999   5.936
 3681SOL     OW12642   2.272   0.813   6.837
 3681SOL    HW112643   2.358   0.825   6.887
 3681SOL    HW212644   2.230   0.726   6.864
 3682SOL     OW12645   3.136   0.386   6.848
 3682SOL    HW112646   3.157   0.460   6.912
 3682SOL    HW212647   3.047   0.403   6.805
 3683SOL     OW12648   1.926   1.564   6.917
 3683SOL    HW112649   1.880   1.646   6.883
 3683SOL    HW212650   2.024   1.583   6.926
 3684SOL     OW12651   2.229   1.100   6.087
 3684SOL    HW112652   2.222   1.183   6.031
 3684SOL    HW212653   2.233   1.020   6.027
 3685SOL     OW12654   2.428   0.537   6.451
 3685SOL    HW112655   2.440   0.603   6.377
 3685SOL    HW212656   2.474   0.571   6.534
 3686SOL     OW12657   3.114   1.348   5.974
 3686SOL    HW112658   3.164   1.425   6.014
 3686SOL    HW212659   3.019   1.350   6.006
 3687SOL     OW12660   3.134   1.445   6.728
 3687SOL    HW112661   3.181   1.458   6.815
 3687SOL    HW212662   3.068   1.371   6.737
 3688SOL     OW12663   3.444   0.639   6.058
 3688SOL    HW112664   3.413   0.700   6.131
 3688SOL    HW212665   3.494   0.691   5.989
 3689SOL     OW12666   2.216   1.510   6.915
 3689SOL    HW112667   2.195   1.466   6.828
 3689SOL    HW212668   2.313   1.536   6.918
 3690SOL     OW12669   2.435   0.870   6.615
 3690SOL    HW112670   2.479   0.959   6.606
 3690SOL    HW212671   2.372   0.870   6.692
 3691SOL     OW12672   3.222   0.862   6.631
 3691SOL    HW112673   3.147   0.862   6.565
 3691SOL    HW212674   3.259   0.770   6.640
 3692SOL     OW12675   3.071   0.525   5.861
 3692SOL    HW112676   3.084   0.441   5.915
 3692SOL    HW212677   3.042   0.599   5.921
 3693SOL     OW12678   2.169   0.213   6.817
 3693SOL    HW112679   2.146   0.250   6.907
 3693SOL    HW212680   2.139   0.118   6.811
 3694SOL     OW12681   1.899   1.310   6.868
 3694SOL    HW112682   1.952   1.261   6.936
 3694SOL    HW212683   1.921   1.408   6.873
 3695SOL     OW12684   2.594   0.634   6.650
 3695SOL    HW112685   2.653   0.608   6.574
 3695SOL    HW212686   2.566   0.730   6.639
 3696SOL     OW12687   2.169   0.063   6.204
 3696SOL    HW112688   2.158   0.157   6.237
 3696SOL    HW212689   2.164   0.000   6.281
 3697SOL     OW12690   3.484   0.367   5.960
 3697SOL    HW112691   3.486   0.291   6.024
 3697SOL    HW212692   3.436   0.444   6.000
 3698SOL     OW12693   2.885   0.766   6.552
 3698SOL    HW112694   2.900   0.787   6.648
 3698SOL    HW212695   2.855   0.671   6.543
 3699SOL     OW12696   3.402   0.274   5.711
 3699SOL    HW112697   3.341   0.199   5.734
 3699SOL    HW212698   3.424   0.326   5.794
 3700SOL     OW12699   3.165   0.838   5.628
 3700SOL    HW112700   3.199   0.745   5.643
 3700SOL    HW212701   3.183   0.865   5.533
 3701SOL     OW12702   2.930   1.333   6.435
 3701SOL    HW112703   2.937   1.249   6.380
 3701SOL    HW212704   2.992   1.402   6.399
 3702SOL     OW12705   2.181   0.810   6.535
 3702SOL    HW112706   2.274   0.846   6.540
 3702SOL    HW212707   2.175   0.725   6.587
 3703SOL     OW12708   2.201   0.509   6.592
 3703SOL    HW112709   2.149   0.426   6.575
 3703SOL    HW212710   2.278   0.514   6.528
 3704SOL     OW12711   3.022   0.207   7.063
 3704SOL    HW112712   3.022   0.271   7.140
 3704SOL    HW212713   3.050   0.255   6.980
 3705SOL     OW12714   1.870   1.326   5.786
 3705SOL    HW112715   1.777   1.347   5.755
 3705SOL    HW212716   1.880   1.227   5.799
 3706SOL     OW12717   1.950   1.801   6.513
 3706SOL    HW112718   1.908   1.715   6.486
 3706SOL    HW212719   2.044   1.804   6.479
 3707SOL     OW12720   2.366   1.568   6.496
 3707SOL    HW112721   2.432   1.642   6.505
 3707SOL    HW212722   2.410   1.489   6.454
 3708SOL     OW12723   2.864   0.796   6.824
 3708SOL    HW112724   2.905   0.764   6.910
 3708SOL    HW212725   2.768   0.769   6.821
 3709SOL     OW12726   1.902   0.544   6.700
 3709SOL    HW112727   1.987   0.511   6.659
 3709SOL    HW212728   1.915   0.559   6.798
 3710SOL     OW12729   2.677   0.572   5.911
 3710SOL    HW112730   2.684   0.483   5.865
 3710SOL    HW212731   2.583   0.606   5.903
 3711SOL     OW12732   3.519   0.604   6.792
 3711SOL    HW112733   3.481   0.535   6.854
 3711SOL    HW212734   3.601   0.568   6.748
 3712SOL     OW12735   2.533   0.464   6.855
 3712SOL    HW112736   2.499   0.375   6.825
 3712SOL    HW212737   2.559   0.518   6.775
 3713SOL     OW12738   2.792   1.678   7.051
 3713SOL    HW112739   2.768   1.660   6.956
 3713SOL    HW212740   2.822   1.772   7.061
 3714SOL     OW12741   2.335   0.500   5.777
 3714SOL    HW112742   2.396   0.580   5.781
 3714SOL    HW212743   2.240   0.531   5.784
 3715SOL     OW12744   2.021   1.137   7.052
 3715SOL    HW112745   2.043   1.076   7.128
 3715SOL    HW212746   2.031   1.088   6.966
 3716SOL     OW12747   3.209   1.059   6.820
 3716SOL    HW112748   3.233   0.996   6.746
 3716SOL    HW212749   3.119   1.099   6.802
 3717SOL     OW12750   3.164   0.855   5.895
 3717SOL    HW112751   3.078   0.824   5.937
 3717SOL    HW212752   3.160   0.841   5.796
 3718SOL     OW12753   3.621   1.747   6.740
 3718SOL    HW112754   3.682   1.777   6.667
 3718SOL    HW212755   3.583   1.658   6.718
 3719SOL     OW12756   3.114   1.731   6.714
 3719SOL    HW112757   3.198   1.736   6.660
 3719SOL    HW212758   3.091   1.635   6.732
 3720SOL     OW12759   1.945   1.258   6.608
 3720SOL    HW112760   1.940   1.257   6.708
 3720SOL    HW212761   1.862   1.217   6.570
 3721SOL     OW12762   3.588   0.135   6.109
 3721SOL    HW112763   3.661   0.118   6.042
 3721SOL    HW212764   3.557   0.048   6.147
 3722SOL     OW12765   3.250   1.573   6.063
 3722SOL    HW112766   3.317   1.585   5.989
 3722SOL    HW212767   3.210   1.662   6.086
 3723SOL     OW12768   3.142   0.927   6.258
 3723SOL    HW112769   3.202   0.846   6.260
 3723SOL    HW212770   3.182   0.996   6.198
 3724SOL     OW12771   2.534   1.616   5.740
 3724SOL    HW112772   2.543   1.626   5.641
 3724SOL    HW212773   2.494   1.527   5.761
 3725SOL     OW12774   3.703   0.175   6.549
 3725SOL    HW112775   3.742   0.090   6.513
 3725SOL    HW212776   3.605   0.177   6.530
 3726SOL     OW12777   2.125   0.326   6.306
 3726SOL    HW112778   2.046   0.377   6.272
 3726SOL    HW212779   2.116   0.311   6.404
 3727SOL     OW12780   3.056   1.612   5.617
 3727SOL    HW112781   3.062   1.519   5.654
 3727SOL    HW212782   2.997   1.612   5.537
 3728SOL     OW12783   2.684   1.002   6.958
 3728SOL    HW112784   2.724   1.001   6.866
 3728SOL    HW212785   2.694   1.094   6.998
 3729SOL     OW12786   2.778   0.910   5.877
 3729SOL    HW112787   2.841   0.948   5.809
 3729SOL    HW212788   2.818   0.827   5.916
 3730SOL     OW12789   3.366   1.607   5.630
 3730SOL    HW112790   3.274   1.644   5.637
 3730SOL    HW212791   3.404   1.627   5.540
 3731SOL     OW12792   3.476   1.292   6.875
 3731SOL    HW112793   3.536   1.295   6.955
 3731SOL    HW212794   3.401   1.356   6.888
 3732SOL     OW12795   2.901   1.098   6.282
 3732SOL    HW112796   2.831   1.051   6.336
 3732SOL    HW212797   2.960   1.030   6.239
 3733SOL     OW12798   2.876   0.236   6.557
 3733SOL    HW112799   2.868   0.200   6.464
 3733SOL    HW212800   2.874   0.160   6.622
 3734SOL     OW12801   2.452   1.487   6.077
 3734SOL    HW112802   2.494   1.429   6.007
 3734SOL    HW212803   2.408   1.566   6.033
 3735SOL     OW12804   3.571   0.385   6.967
 3735SOL    HW112805   3.644   0.454   6.971
 3735SOL    HW212806   3.599   0.310   6.908
 3736SOL     OW12807   2.117   1.348   5.876
 3736SOL    HW112808   2.021   1.349   5.849
 3736SOL    HW212809   2.129   1.401   5.960
 3737SOL     OW12810   1.937   0.345   5.619
 3737SOL    HW112811   1.845   0.317   5.590
 3737SOL    HW212812   1.968   0.422   5.563
 3738SOL     OW12813   1.934   0.166   5.904
 3738SOL    HW112814   1.917   0.249   5.850
 3738SOL    HW212815   2.024   0.129   5.882
 3739SOL     OW12816   3.045   1.335   5.705
 3739SOL    HW112817   2.946   1.324   5.707
 3739SOL    HW212818   3.079   1.350   5.798
 3740SOL     OW12819   3.355   1.767   6.545
 3740SOL    HW112820   3.388   1.831   6.476
 3740SOL    HW212821   3.421   1.761   6.620
 3741SOL     OW12822   3.312   1.220   7.219
 3741SOL    HW112823   3.303   1.210   7.318
 3741SOL    HW212824   3.408   1.213   7.193
 3742SOL     OW12825   2.252   1.741   7.146
 3742SOL    HW112826   2.161   1.782   7.144
 3742SOL    HW212827   2.245   1.647   7.178
 3743SOL     OW12828   3.536   0.883   6.840
 3743SOL    HW112829   3.509   0.794   6.803
 3743SOL    HW212830   3.537   0.951   6.767
 3744SOL     OW12831   3.087   0.325   6.035
 3744SOL    HW112832   3.152   0.251   6.024
 3744SOL    HW212833   3.107   0.375   6.119
 3745SOL     OW12834   2.456   0.745   6.238
 3745SOL    HW112835   2.506   0.830   6.219
 3745SOL    HW212836   2.368   0.747   6.190
 3746SOL     OW12837   3.592   0.934   7.103
 3746SOL    HW112838   3.630   1.025   7.118
 3746SOL    HW212839   3.584   0.917   7.004
 3747SOL     OW12840   2.721   1.374   5.602
 3747SOL    HW112841   2.675   1.389   5.690
 3747SOL    HW212842   2.765   1.459   5.572
 3748SOL     OW12843   2.523   1.790   6.539
 3748SOL    HW112844   2.477   1.878   6.526
 3748SOL    HW212845   2.622   1.802   6.532
 3749SOL     OW12846   2.721   0.956   6.447
 3749SOL    HW112847   2.775   0.887   6.495
 3749SOL    HW212848   2.689   1.025   6.513
 3750SOL     OW12849   2.945   0.984   5.673
 3750SOL    HW112850   2.922   1.037   5.591
 3750SOL    HW212851   3.026   0.928   5.654
 3751SOL     OW12852   3.723   1.569   6.437
 3751SOL    HW112853   3.652   1.557   6.367
 3751SOL    HW212854   3.724   1.490   6.497
 3752SOL     OW12855   1.941   1.240   6.239
 3752SOL    HW112856   1.940   1.193   6.327
 3752SOL    HW212857   2.023   1.212   6.188
 3753SOL     OW12858   3.686   0.192   6.813
 3753SOL    HW112859   3.682   0.102   6.857
 3753SOL    HW212860   3.689   0.181   6.714
 3754SOL     OW12861   2.290   0.424   6.106
 3754SOL    HW112862   2.320   0.352   6.044
 3754SOL    HW212863   2.251   0.384   6.189
 3755SOL     OW12864   3.567   1.487   6.690
 3755SOL    HW112865   3.474   1.462   6.663
 3755SOL    HW212866   3.593   1.437   6.772
 3756SOL     OW12867   2.179   0.547   6.866
 3756SOL    HW112868   2.217   0.488   6.938
 3756SOL    HW212869   2.219   0.521   6.778
 3757SOL     OW12870   2.674   1.586   6.273
 3757SOL    HW112871   2.706   1.596   6.179
 3757SOL    HW212872   2.595   1.524   6.275
 3758SOL     OW12873   3.286   0.214   6.698
 3758SOL    HW112874   3.338   0.149   6.753
 3758SOL    HW212875   3.237   0.277   6.759
 3759SOL     OW12876   2.863   0.034   6.740
 3759SOL    HW112877   2.800  -0.038   6.709
 3759SOL    HW212878   2.956  -0.002   6.740
 3760SOL     OW12879   2.632   1.330   5.887
 3760SOL    HW112880   2.586   1.243   5.904
 3760SOL    HW212881   2.723   1.327   5.928
 3761SOL     OW12882   2.480   1.567   6.870
 3761SOL    HW112883   2.475   1.649   6.927
 3761SOL    HW212884   2.569   1.564   6.825
 3762SOL     OW12885   3.214   0.052   5.754
 3762SOL    HW112886   3.249   0.011   5.670
 3762SOL    HW212887   3.124   0.014   5.774
 3763SOL     OW12888   3.162   0.453   6.277
 3763SOL    HW112889   3.103   0.533   6.281
 3763SOL    HW212890   3.177   0.418   6.370
 3764SOL     OW12891   3.455   0.221   6.468
 3764SOL    HW112892   3.371   0.220   6.522
 3764SOL    HW212893   3.457   0.304   6.412
 3765SOL     OW12894   1.901   1.077   5.886
 3765SOL    HW112895   2.000   1.066   5.877
 3765SOL    HW212896   1.861   0.991   5.918
 3766SOL     OW12897   2.737   1.646   5.923
 3766SOL    HW112898   2.660   1.611   5.869
 3766SOL    HW212899   2.705   1.717   5.985
 3767SOL     OW12900   2.092   2.490   0.113
 3767SOL    HW112901   1.999   2.488   0.150
 3767SOL    HW212902   2.093   2.451   0.021
 3768SOL     OW12903   2.087   2.137   0.996
 3768SOL    HW112904   2.122   2.120   1.088
 3768SOL    HW212905   1.999   2.092   0.984
 3769SOL     OW12906   1.881   2.230   0.647
 3769SOL    HW112907   1.799   2.273   0.686
 3769SOL    HW212908   1.853   2.157   0.584
 3770SOL     OW12909   2.431   3.137   1.165
 3770SOL    HW112910   2.338   3.130   1.128
 3770SOL    HW212911   2.442   3.226   1.209
 3771SOL     OW12912   3.417   3.373   0.703
 3771SOL    HW112913   3.360   3.357   0.784
 3771SOL    HW212914   3.358   3.383   0.623
 3772SOL     OW12915   2.997   2.565   0.717
 3772SOL    HW112916   3.054   2.643   0.692
 3772SOL    HW212917   2.937   2.591   0.793
 3773SOL     OW12918   3.617   2.469   0.231
 3773SOL    HW112919   3.605   2.456   0.132
 3773SOL    HW212920   3.587   2.388   0.280
 3774SOL     OW12921   2.630   3.006   1.023
 3774SOL    HW112922   2.552   3.023   1.083
 3774SOL    HW212923   2.664   3.093   0.987
 3775SOL     OW12924   2.712   2.660   1.823
 3775SOL    HW112925   2.708   2.736   1.888
 3775SOL    HW212926   2.734   2.696   1.732
 3776SOL     OW12927   2.547   2.874   0.665
 3776SOL    HW112928   2.616   2.858   0.735
 3776SOL    HW212929   2.474   2.931   0.703
 3777SOL     OW12930   2.548   3.023   1.803
 3777SOL    HW112931   2.608   3.102   1.817
 3777SOL    HW212932   2.462   3.054   1.762
 3778SOL     OW12933   2.197   3.297   1.061
 3778SOL    HW112934   2.119   3.266   1.008
 3778SOL    HW212935   2.255   3.355   1.004
 3779SOL     OW12936   3.322   3.367   1.339
 3779SOL    HW112937   3.346   3.461   1.365
 3779SOL    HW212938   3.306   3.313   1.421
 3780SOL     OW12939   2.300   2.254   1.499
 3780SOL    HW112940   2.382   2.198   1.508
 3780SOL    HW212941   2.219   2.196   1.503
 3781SOL     OW12942   3.465   2.309   0.737
 3781SOL    HW112943   3.391   2.355   0.687
 3781SOL    HW212944   3.516   2.377   0.790
 3782SOL     OW12945   2.093   3.575   0.483
 3782SOL    HW112946   2.127   3.652   0.537
 3782SOL    HW212947   2.137   3.575   0.393
 3783SOL     OW12948   2.989   3.203   1.690
 3783SOL    HW112949   3.036   3.203   1.778
 3783SOL    HW212950   2.941   3.116   1.679
 3784SOL     OW12951   2.092   3.296   0.538
 3784SOL    HW112952   2.066   3.392   0.538
 3784SOL    HW212953   2.021   3.242   0.583
 3785SOL     OW12954   2.102   2.953   0.886
 3785SOL    HW112955   2.116   2.869   0.938
 3785SOL    HW212956   2.047   3.017   0.941
 3786SOL     OW12957   2.482   3.648   1.439
 3786SOL    HW112958   2.390   3.631   1.474
 3786SOL    HW212959   2.510   3.740   1.465
 3787SOL     OW12960   2.468   2.826   0.123
 3787SOL    HW112961   2.475   2.910   0.069
 3787SOL    HW212962   2.514   2.839   0.211
 3788SOL     OW12963   3.456   1.976   1.480
 3788SOL    HW112964   3.438   2.043   1.408
 3788SOL    HW212965   3.453   2.022   1.569
 3789SOL     OW12966   1.984   2.505   0.563
 3789SOL    HW112967   1.939   2.417   0.580
 3789SOL    HW212968   1.983   2.559   0.647
 3790SOL     OW12969   3.704   3.629   0.359
 3790SOL    HW112970   3.758   3.600   0.439
 3790SOL    HW212971   3.734   3.719   0.330
 3791SOL     OW12972   3.551   2.784   0.612
 3791SOL    HW112973   3.646   2.755   0.620
 3791SOL    HW212974   3.543   2.849   0.537
 3792SOL     OW12975   3.503   2.970   0.432
 3792SOL    HW112976   3.589   2.972   0.380
 3792SOL    HW212977   3.517   3.017   0.520
 3793SOL     OW12978   1.975   2.599   1.597
 3793SOL    HW112979   2.063   2.586   1.642
 3793SOL    HW212980   1.962   2.696   1.575
 3794SOL     OW12981   2.475   3.227   0.726
 3794SOL    HW112982   2.426   3.140   0.735
 3794SOL    HW212983   2.452   3.270   0.639
 3795SOL     OW12984   3.155   3.090   1.423
 3795SOL    HW112985   3.192   3.017   1.365
 3795SOL    HW212986   3.207   3.095   1.508
 3796SOL     OW12987   2.671   1.866   0.502
 3796SOL    HW112988   2.711   1.957   0.493
 3796SOL    HW212989   2.571   1.874   0.508
 3797SOL     OW12990   2.059   2.838   1.264
 3797SOL    HW112991   2.148   2.793   1.250
 3797SOL    HW212992   1.986   2.773   1.245
 3798SOL     OW12993   3.387   2.861   0.190
 3798SOL    HW112994   3.324   2.785   0.203
 3798SOL    HW212995   3.435   2.879   0.276
 3799SOL     OW12996   3.049   3.654   1.616
 3799SOL    HW112997   3.073   3.714   1.540
 3799SOL    HW212998   3.056   3.559   1.586
 3800SOL     OW12999   2.179   2.113   1.801
 3800SOL    HW113000   2.250   2.184   1.807
 3800SOL    HW213001   2.091   2.152   1.829
 3801SOL     OW13002   3.328   3.279   0.953
 3801SOL    HW113003   3.269   3.285   1.033
 3801SOL    HW213004   3.313   3.191   0.907
 3802SOL     OW13005   3.529   3.576   0.572
 3802SOL    HW113006   3.488   3.553   0.484
 3802SOL    HW213007   3.511   3.502   0.637
 3803SOL     OW13008   2.460   2.591   0.270
 3803SOL    HW113009   2.484   2.660   0.202
 3803SOL    HW213010   2.382   2.624   0.324
 3804SOL     OW13011   3.143   2.207   0.944
 3804SOL    HW113012   3.057   2.157   0.931
 3804SOL    HW213013   3.205   2.153   1.000
 3805SOL     OW13014   3.438   3.524   0.307
 3805SOL    HW113015   3.527   3.570   0.310
 3805SOL    HW213016   3.417   3.500   0.212
 3806SOL     OW13017   2.669   2.467   1.465
 3806SOL    HW113018   2.622   2.464   1.554
 3806SOL    HW213019   2.618   2.412   1.399
 3807SOL     OW13020   3.256   2.331   1.674
 3807SOL    HW113021   3.236   2.374   1.762
 3807SOL    HW213022   3.334   2.269   1.683
 3808SOL     OW13023   2.835   2.752   1.572
 3808SOL    HW113024   2.881   2.668   1.543
 3808SOL    HW213025   2.779   2.786   1.497
 3809SOL     OW13026   2.853   2.272   1.242
 3809SOL    HW113027   2.776   2.306   1.296
 3809SOL    HW213028   2.819   2.221   1.163
 3810SOL     OW13029   2.903   2.563   0.429
 3810SOL    HW113030   2.929   2.559   0.525
 3810SOL    HW213031   2.818   2.512   0.415
 3811SOL     OW13032   1.938   2.673   0.789
 3811SOL    HW113033   2.037   2.661   0.798
 3811SOL    HW213034   1.914   2.768   0.810
 3812SOL     OW13035   1.992   3.683   1.571
 3812SOL    HW113036   1.982   3.668   1.670
 3812SOL    HW213037   1.906   3.719   1.535
 3813SOL     OW13038   2.727   2.210   0.195
 3813SOL    HW113039   2.786   2.273   0.146
 3813SOL    HW213040   2.746   2.116   0.166
 3814SOL     OW13041   3.581   2.447   1.831
 3814SOL    HW113042   3.555   2.536   1.795
 3814SOL    HW213043   3.579   2.379   1.758
 3815SOL     OW13044   3.224   3.006   0.545
 3815SOL    HW113045   3.307   2.977   0.497
 3815SOL    HW213046   3.175   3.073   0.489
 3816SOL     OW13047   2.412   2.058   0.885
 3816SOL    HW113048   2.407   2.053   0.985
 3816SOL    HW213049   2.414   2.154   0.856
 3817SOL     OW13050   2.870   3.318   0.477
 3817SOL    HW113051   2.824   3.390   0.425
 3817SOL    HW213052   2.866   3.338   0.575
 3818SOL     OW13053   2.213   3.663   0.853
 3818SOL    HW113054   2.263   3.577   0.859
 3818SOL    HW213055   2.278   3.740   0.850
 3819SOL     OW13056   3.657   2.928   0.873
 3819SOL    HW113057   3.595   2.913   0.797
 3819SOL    HW213058   3.605   2.939   0.958
 3820SOL     OW13059   3.089   3.412   1.506
 3820SOL    HW113060   3.095   3.335   1.570
 3820SOL    HW213061   3.037   3.386   1.426
 3821SOL     OW13062   2.183   2.805   0.242
 3821SOL    HW113063   2.265   2.844   0.200
 3821SOL    HW213064   2.156   2.723   0.193
 3822SOL     OW13065   3.320   2.597   0.728
 3822SOL    HW113066   3.315   2.532   0.803
 3822SOL    HW213067   3.400   2.656   0.741
 3823SOL     OW13068   2.323   3.128   1.727
 3823SOL    HW113069   2.273   3.129   1.641
 3823SOL    HW213070   2.260   3.110   1.803
 3824SOL     OW13071   2.973   3.638   0.237
 3824SOL    HW113072   2.913   3.576   0.287
 3824SOL    HW213073   3.004   3.594   0.152
 3825SOL     OW13074   2.064   2.147   1.498
 3825SOL    HW113075   1.984   2.207   1.485
 3825SOL    HW213076   2.054   2.098   1.584
 3826SOL     OW13077   3.494   3.239   0.081
 3826SOL    HW113078   3.462   3.333   0.071
 3826SOL    HW213079   3.418   3.176   0.069
 3827SOL     OW13080   2.326   3.605   0.323
 3827SOL    HW113081   2.359   3.644   0.409
 3827SOL    HW213082   2.402   3.598   0.258
 3828SOL     OW13083   2.111   3.647   1.241
 3828SOL    HW113084   2.168   3.582   1.291
 3828SOL    HW213085   2.095   3.614   1.148
 3829SOL     OW13086   2.802   3.560   0.904
 3829SOL    HW113087   2.882   3.503   0.925
 3829SOL    HW213088   2.753   3.520   0.827
 3830SOL     OW13089   2.244   2.562   0.480
 3830SOL    HW113090   2.289   2.472   0.477
 3830SOL    HW213091   2.150   2.551   0.513
 3831SOL     OW13092   3.409   2.084   1.729
 3831SOL    HW113093   3.404   2.121   1.821
 3831SOL    HW213094   3.337   2.015   1.717
 3832SOL     OW13095   2.643   2.126   1.749
 3832SOL    HW113096   2.710   2.065   1.792
 3832SOL    HW213097   2.570   2.145   1.814
 3833SOL     OW13098   2.750   3.376   1.195
 3833SOL    HW113099   2.727   3.351   1.101
 3833SOL    HW213100   2.811   3.307   1.234
 3834SOL     OW13101   3.213   2.452   1.433
 3834SOL    HW113102   3.241   2.409   1.518
 3834SOL    HW213103   3.238   2.548   1.434
 3835SOL     OW13104   2.665   3.264   0.924
 3835SOL    HW113105   2.755   3.278   0.882
 3835SOL    HW213106   2.594   3.266   0.853
 3836SOL     OW13107   2.784   2.365   0.899
 3836SOL    HW113108   2.759   2.356   0.803
 3836SOL    HW213109   2.832   2.283   0.930
 3837SOL     OW13110   2.401   1.926   0.512
 3837SOL    HW113111   2.320   1.927   0.570
 3837SOL    HW213112   2.404   2.009   0.457
 3838SOL     OW13113   3.296   3.050   0.041
 3838SOL    HW113114   3.328   2.974   0.098
 3838SOL    HW213115   3.204   3.077   0.071
 3839SOL     OW13116   2.797   2.098   0.480
 3839SOL    HW113117   2.749   2.139   0.402
 3839SOL    HW213118   2.896   2.096   0.461
 3840SOL     OW13119   2.938   2.545   1.464
 3840SOL    HW113120   2.858   2.484   1.467
 3840SOL    HW213121   3.019   2.492   1.440
 3841SOL     OW13122   3.089   3.432   0.793
 3841SOL    HW113123   3.110   3.506   0.728
 3841SOL    HW213124   3.157   3.432   0.866
 3842SOL     OW13125   2.321   3.014   0.741
 3842SOL    HW113126   2.250   2.987   0.806
 3842SOL    HW213127   2.295   2.986   0.648
 3843SOL     OW13128   3.133   3.659   0.591
 3843SOL    HW113129   3.177   3.723   0.527
 3843SOL    HW213130   3.083   3.711   0.661
 3844SOL     OW13131   2.894   2.411   0.016
 3844SOL    HW113132   2.853   2.493  -0.023
 3844SOL    HW213133   2.958   2.437   0.089
 3845SOL     OW13134   1.940   2.418   1.386
 3845SOL    HW113135   2.032   2.417   1.345
 3845SOL    HW213136   1.934   2.492   1.453
 3846SOL     OW13137   2.423   2.084   1.147
 3846SOL    HW113138   2.461   2.000   1.184
 3846SOL    HW213139   2.335   2.103   1.191
 3847SOL     OW13140   2.728   2.316   0.642
 3847SOL    HW113141   2.696   2.388   0.580
 3847SOL    HW213142   2.752   2.235   0.589
 3848SOL     OW13143   2.879   1.901   0.753
 3848SOL    HW113144   2.807   1.906   0.684
 3848SOL    HW213145   2.855   1.832   0.822
 3849SOL     OW13146   3.291   3.035   0.867
 3849SOL    HW113147   3.236   2.951   0.860
 3849SOL    HW213148   3.317   3.064   0.775
 3850SOL     OW13149   3.328   2.452   0.992
 3850SOL    HW113150   3.298   2.357   0.999
 3850SOL    HW213151   3.401   2.468   1.058
 3851SOL     OW13152   3.719   2.695   0.377
 3851SOL    HW113153   3.761   2.631   0.441
 3851SOL    HW213154   3.681   2.644   0.299
 3852SOL     OW13155   2.350   3.247   0.174
 3852SOL    HW113156   2.263   3.232   0.221
 3852SOL    HW213157   2.333   3.273   0.079
 3853SOL     OW13158   3.526   3.142   0.657
 3853SOL    HW113159   3.625   3.150   0.671
 3853SOL    HW213160   3.481   3.226   0.688
 3854SOL     OW13161   3.252   2.437   0.078
 3854SOL    HW113162   3.198   2.416   0.159
 3854SOL    HW213163   3.343   2.396   0.087
 3855SOL     OW13164   2.389   2.118   0.328
 3855SOL    HW113165   2.416   2.059   0.253
 3855SOL    HW213166   2.389   2.213   0.297
 3856SOL     OW13167   3.616   3.085   1.588
 3856SOL    HW113168   3.707   3.046   1.575
 3856SOL    HW213169   3.624   3.181   1.612
 3857SOL     OW13170   2.926   3.209   1.340
 3857SOL    HW113171   2.846   3.186   1.395
 3857SOL    HW213172   3.009   3.183   1.389
 3858SOL     OW13173   3.454   3.491   1.625
 3858SOL    HW113174   3.481   3.525   1.535
 3858SOL    HW213175   3.533   3.453   1.671
 3859SOL     OW13176   2.973   3.057   1.100
 3859SOL    HW113177   2.933   3.101   1.181
 3859SOL    HW213178   2.932   3.094   1.017
 3860SOL     OW13179   3.500   2.961   1.079
 3860SOL    HW113180   3.505   3.042   1.138
 3860SOL    HW213181   3.414   2.963   1.028
 3861SOL     OW13182   2.777   1.951   1.402
 3861SOL    HW113183   2.802   1.931   1.307
 3861SOL    HW213184   2.849   2.007   1.444
 3862SOL     OW13185   2.842   2.978   1.719
 3862SOL    HW113186   2.743   2.984   1.729
 3862SOL    HW213187   2.865   2.898   1.663
 3863SOL     OW13188   2.567   2.912   0.368
 3863SOL    HW113189   2.553   2.919   0.467
 3863SOL    HW213190   2.651   2.861   0.350
 3864SOL     OW13191   2.272   2.675   1.251
 3864SOL    HW113192   2.358   2.687   1.301
 3864SOL    HW213193   2.230   2.588   1.278
 3865SOL     OW13194   3.136   2.248   1.262
 3865SOL    HW113195   3.157   2.322   1.326
 3865SOL    HW213196   3.047   2.265   1.219
 3866SOL     OW13197   1.926   3.426   1.331
 3866SOL    HW113198   1.880   3.508   1.297
 3866SOL    HW213199   2.024   3.445   1.340
 3867SOL     OW13200   2.229   2.962   0.501
 3867SOL    HW113201   2.222   3.045   0.445
 3867SOL    HW213202   2.233   2.882   0.441
 3868SOL     OW13203   2.428   2.399   0.865
 3868SOL    HW113204   2.440   2.465   0.791
 3868SOL    HW213205   2.474   2.433   0.948
 3869SOL     OW13206   3.114   3.210   0.388
 3869SOL    HW113207   3.164   3.287   0.428
 3869SOL    HW213208   3.019   3.212   0.420
 3870SOL     OW13209   3.134   3.307   1.142
 3870SOL    HW113210   3.181   3.320   1.229
 3870SOL    HW213211   3.068   3.233   1.151
 3871SOL     OW13212   3.444   2.501   0.472
 3871SOL    HW113213   3.413   2.562   0.545
 3871SOL    HW213214   3.494   2.553   0.403
 3872SOL     OW13215   2.216   3.372   1.329
 3872SOL    HW113216   2.195   3.328   1.242
 3872SOL    HW213217   2.313   3.398   1.332
 3873SOL     OW13218   2.264   2.613   1.598
 3873SOL    HW113219   2.332   2.668   1.551
 3873SOL    HW213220   2.304   2.525   1.625
 3874SOL     OW13221   3.449   2.641   1.670
 3874SOL    HW113222   3.357   2.679   1.665
 3874SOL    HW213223   3.509   2.688   1.605
 3875SOL     OW13224   2.875   1.967   1.770
 3875SOL    HW113225   2.881   2.052   1.718
 3875SOL    HW213226   2.907   1.891   1.713
 3876SOL     OW13227   2.366   1.912   1.740
 3876SOL    HW113228   2.324   1.855   1.670
 3876SOL    HW213229   2.300   1.981   1.772
 3877SOL     OW13230   2.435   2.732   1.029
 3877SOL    HW113231   2.479   2.821   1.020
 3877SOL    HW213232   2.372   2.732   1.106
 3878SOL     OW13233   3.222   2.724   1.045
 3878SOL    HW113234   3.147   2.724   0.979
 3878SOL    HW213235   3.259   2.632   1.054
 3879SOL     OW13236   3.071   2.387   0.275
 3879SOL    HW113237   3.084   2.303   0.329
 3879SOL    HW213238   3.042   2.461   0.335
 3880SOL     OW13239   2.169   2.075   1.231
 3880SOL    HW113240   2.146   2.112   1.321
 3880SOL    HW213241   2.139   1.980   1.225
 3881SOL     OW13242   1.899   3.172   1.282
 3881SOL    HW113243   1.952   3.123   1.350
 3881SOL    HW213244   1.921   3.270   1.287
 3882SOL     OW13245   2.594   2.496   1.064
 3882SOL    HW113246   2.653   2.470   0.988
 3882SOL    HW213247   2.566   2.592   1.053
 3883SOL     OW13248   3.590   2.797   1.854
 3883SOL    HW113249   3.544   2.790   1.765
 3883SOL    HW213250   3.528   2.841   1.920
 3884SOL     OW13251   2.169   1.925   0.618
 3884SOL    HW113252   2.158   2.019   0.651
 3884SOL    HW213253   2.164   1.862   0.695
 3885SOL     OW13254   3.484   2.229   0.374
 3885SOL    HW113255   3.486   2.153   0.438
 3885SOL    HW213256   3.436   2.306   0.414
 3886SOL     OW13257   2.885   2.628   0.966
 3886SOL    HW113258   2.900   2.649   1.062
 3886SOL    HW213259   2.855   2.533   0.957
 3887SOL     OW13260   2.842   3.435   1.700
 3887SOL    HW113261   2.822   3.479   1.612
 3887SOL    HW213262   2.881   3.344   1.684
 3888SOL     OW13263   3.721   3.380   1.605
 3888SOL    HW113264   3.735   3.407   1.510
 3888SOL    HW213265   3.804   3.402   1.658
 3889SOL     OW13266   2.212   2.760   1.804
 3889SOL    HW113267   2.288   2.804   1.852
 3889SOL    HW213268   2.247   2.713   1.722
 3890SOL     OW13269   3.402   2.136   0.125
 3890SOL    HW113270   3.341   2.061   0.148
 3890SOL    HW213271   3.424   2.188   0.208
 3891SOL     OW13272   3.165   2.700   0.042
 3891SOL    HW113273   3.199   2.607   0.057
 3891SOL    HW213274   3.183   2.727  -0.053
 3892SOL     OW13275   2.930   3.195   0.849
 3892SOL    HW113276   2.937   3.111   0.794
 3892SOL    HW213277   2.992   3.264   0.813
 3893SOL     OW13278   2.181   2.672   0.949
 3893SOL    HW113279   2.274   2.708   0.954
 3893SOL    HW213280   2.175   2.587   1.001
 3894SOL     OW13281   2.201   2.371   1.006
 3894SOL    HW113282   2.149   2.288   0.989
 3894SOL    HW213283   2.278   2.376   0.942
 3895SOL     OW13284   3.000   2.242   1.678
 3895SOL    HW113285   2.955   2.305   1.742
 3895SOL    HW213286   3.093   2.273   1.661
 3896SOL     OW13287   3.022   2.069   1.477
 3896SOL    HW113288   3.022   2.133   1.554
 3896SOL    HW213289   3.050   2.117   1.394
 3897SOL     OW13290   1.950   3.663   0.927
 3897SOL    HW113291   1.908   3.577   0.900
 3897SOL    HW213292   2.044   3.666   0.893
 3898SOL     OW13293   2.366   3.430   0.910
 3898SOL    HW113294   2.432   3.504   0.919
 3898SOL    HW213295   2.410   3.351   0.868
 3899SOL     OW13296   2.864   2.658   1.238
 3899SOL    HW113297   2.905   2.626   1.324
 3899SOL    HW213298   2.768   2.631   1.235
 3900SOL     OW13299   1.902   2.406   1.114
 3900SOL    HW113300   1.987   2.373   1.073
 3900SOL    HW213301   1.915   2.421   1.212
 3901SOL     OW13302   2.051   2.382   1.722
 3901SOL    HW113303   2.110   2.342   1.652
 3901SOL    HW213304   1.993   2.453   1.681
 3902SOL     OW13305   3.231   2.812   1.660
 3902SOL    HW113306   3.270   2.901   1.680
 3902SOL    HW213307   3.241   2.792   1.563
 3903SOL     OW13308   2.677   2.434   0.325
 3903SOL    HW113309   2.684   2.345   0.279
 3903SOL    HW213310   2.583   2.468   0.317
 3904SOL     OW13311   3.519   2.466   1.206
 3904SOL    HW113312   3.481   2.397   1.268
 3904SOL    HW213313   3.601   2.430   1.162
 3905SOL     OW13314   2.114   3.426   1.744
 3905SOL    HW113315   2.084   3.483   1.820
 3905SOL    HW213316   2.107   3.329   1.770
 3906SOL     OW13317   2.533   2.326   1.269
 3906SOL    HW113318   2.499   2.237   1.239
 3906SOL    HW213319   2.559   2.380   1.189
 3907SOL     OW13320   2.792   3.540   1.465
 3907SOL    HW113321   2.768   3.522   1.370
 3907SOL    HW213322   2.822   3.634   1.475
 3908SOL     OW13323   2.335   2.362   0.191
 3908SOL    HW113324   2.396   2.442   0.195
 3908SOL    HW213325   2.240   2.393   0.198
 3909SOL     OW13326   2.021   2.999   1.466
 3909SOL    HW113327   2.043   2.938   1.542
 3909SOL    HW213328   2.031   2.950   1.380
 3910SOL     OW13329   3.209   2.921   1.234
 3910SOL    HW113330   3.233   2.858   1.160
 3910SOL    HW213331   3.119   2.961   1.216
 3911SOL     OW13332   3.164   2.717   0.309
 3911SOL    HW113333   3.078   2.686   0.351
 3911SOL    HW213334   3.160   2.703   0.210
 3912SOL     OW13335   3.621   3.609   1.154
 3912SOL    HW113336   3.682   3.639   1.081
 3912SOL    HW213337   3.583   3.520   1.132
 3913SOL     OW13338   3.114   3.593   1.128
 3913SOL    HW113339   3.198   3.598   1.074
 3913SOL    HW213340   3.091   3.497   1.146
 3914SOL     OW13341   1.945   3.120   1.022
 3914SOL    HW113342   1.940   3.119   1.122
 3914SOL    HW213343   1.862   3.079   0.984
 3915SOL     OW13344   2.550   3.524   1.716
 3915SOL    HW113345   2.494   3.605   1.725
 3915SOL    HW213346   2.602   3.528   1.630
 3916SOL     OW13347   2.765   1.948   0.133
 3916SOL    HW113348   2.816   1.949   0.047
 3916SOL    HW213349   2.821   1.906   0.204
 3917SOL     OW13350   3.588   1.997   0.523
 3917SOL    HW113351   3.661   1.980   0.456
 3917SOL    HW213352   3.557   1.910   0.561
 3918SOL     OW13353   3.250   3.435   0.477
 3918SOL    HW113354   3.317   3.447   0.403
 3918SOL    HW213355   3.210   3.524   0.500
 3919SOL     OW13356   1.992   3.656   1.851
 3919SOL    HW113357   1.951   3.582   1.904
 3919SOL    HW213358   2.056   3.707   1.909
 3920SOL     OW13359   3.142   2.789   0.672
 3920SOL    HW113360   3.202   2.708   0.674
 3920SOL    HW213361   3.182   2.858   0.612
 3921SOL     OW13362   2.692   3.135   1.422
 3921SOL    HW113363   2.687   3.168   1.517
 3921SOL    HW213364   2.606   3.154   1.376
 3922SOL     OW13365   2.534   3.478   0.154
 3922SOL    HW113366   2.543   3.488   0.055
 3922SOL    HW213367   2.494   3.389   0.175
 3923SOL     OW13368   3.512   3.582   1.394
 3923SOL    HW113369   3.565   3.592   1.310
 3923SOL    HW213370   3.485   3.672   1.428
 3924SOL     OW13371   3.703   2.037   0.963
 3924SOL    HW113372   3.742   1.952   0.927
 3924SOL    HW213373   3.605   2.039   0.944
 3925SOL     OW13374   2.125   2.188   0.720
 3925SOL    HW113375   2.046   2.239   0.686
 3925SOL    HW213376   2.116   2.173   0.818
 3926SOL     OW13377   3.056   3.474   0.031
 3926SOL    HW113378   3.062   3.381   0.068
 3926SOL    HW213379   2.997   3.474  -0.049
 3927SOL     OW13380   2.684   2.864   1.372
 3927SOL    HW113381   2.724   2.863   1.280
 3927SOL    HW213382   2.694   2.956   1.412
 3928SOL     OW13383   2.778   2.772   0.291
 3928SOL    HW113384   2.841   2.810   0.223
 3928SOL    HW213385   2.818   2.689   0.330
 3929SOL     OW13386   3.366   3.469   0.044
 3929SOL    HW113387   3.274   3.506   0.051
 3929SOL    HW213388   3.404   3.489  -0.046
 3930SOL     OW13389   2.234   3.150   1.490
 3930SOL    HW113390   2.221   3.243   1.456
 3930SOL    HW213391   2.150   3.098   1.477
 3931SOL     OW13392   3.476   3.154   1.289
 3931SOL    HW113393   3.536   3.157   1.369
 3931SOL    HW213394   3.401   3.218   1.302
 3932SOL     OW13395   2.901   2.960   0.696
 3932SOL    HW113396   2.831   2.913   0.750
 3932SOL    HW213397   2.960   2.892   0.653
 3933SOL     OW13398   2.876   2.098   0.971
 3933SOL    HW113399   2.868   2.062   0.878
 3933SOL    HW213400   2.874   2.022   1.036
 3934SOL     OW13401   2.452   3.349   0.491
 3934SOL    HW113402   2.494   3.291   0.421
 3934SOL    HW213403   2.408   3.428   0.447
 3935SOL     OW13404   3.571   2.247   1.381
 3935SOL    HW113405   3.644   2.316   1.385
 3935SOL    HW213406   3.599   2.172   1.322
 3936SOL     OW13407   2.117   3.210   0.290
 3936SOL    HW113408   2.021   3.211   0.263
 3936SOL    HW213409   2.129   3.263   0.374
 3937SOL     OW13410   1.967   2.875   1.726
 3937SOL    HW113411   1.890   2.842   1.780
 3937SOL    HW213412   2.052   2.845   1.768
 3938SOL     OW13413   2.534   2.065   1.489
 3938SOL    HW113414   2.624   2.049   1.449
 3938SOL    HW213415   2.542   2.070   1.588
 3939SOL     OW13416   1.937   2.207   0.033
 3939SOL    HW113417   1.845   2.179   0.004
 3939SOL    HW213418   1.968   2.284  -0.023
 3940SOL     OW13419   3.302   2.718   1.398
 3940SOL    HW113420   3.245   2.770   1.335
 3940SOL    HW213421   3.398   2.730   1.374
 3941SOL     OW13422   1.934   2.028   0.318
 3941SOL    HW113423   1.917   2.111   0.264
 3941SOL    HW213424   2.024   1.991   0.296
 3942SOL     OW13425   3.045   3.197   0.119
 3942SOL    HW113426   2.946   3.186   0.121
 3942SOL    HW213427   3.079   3.212   0.212
 3943SOL     OW13428   2.475   2.704   1.431
 3943SOL    HW113429   2.531   2.785   1.414
 3943SOL    HW213430   2.534   2.624   1.434
 3944SOL     OW13431   3.355   3.629   0.959
 3944SOL    HW113432   3.388   3.693   0.890
 3944SOL    HW213433   3.421   3.623   1.034
 3945SOL     OW13434   2.578   2.427   1.708
 3945SOL    HW113435   2.597   2.492   1.782
 3945SOL    HW213436   2.638   2.347   1.717
 3946SOL     OW13437   3.312   3.082   1.633
 3946SOL    HW113438   3.303   3.072   1.732
 3946SOL    HW213439   3.408   3.075   1.607
 3947SOL     OW13440   2.252   3.603   1.560
 3947SOL    HW113441   2.161   3.644   1.558
 3947SOL    HW213442   2.245   3.509   1.592
 3948SOL     OW13443   3.536   2.745   1.254
 3948SOL    HW113444   3.509   2.656   1.217
 3948SOL    HW213445   3.537   2.813   1.181
 3949SOL     OW13446   3.087   2.187   0.449
 3949SOL    HW113447   3.152   2.113   0.438
 3949SOL    HW213448   3.107   2.237   0.533
 3950SOL     OW13449   2.456   2.607   0.652
 3950SOL    HW113450   2.506   2.692   0.633
 3950SOL    HW213451   2.368   2.609   0.604
 3951SOL     OW13452   3.639   2.204   1.642
 3951SOL    HW113453   3.622   2.235   1.548
 3951SOL    HW213454   3.555   2.167   1.680
 3952SOL     OW13455   3.592   2.796   1.517
 3952SOL    HW113456   3.630   2.887   1.532
 3952SOL    HW213457   3.584   2.779   1.418
 3953SOL     OW13458   2.721   3.236   0.016
 3953SOL    HW113459   2.675   3.251   0.104
 3953SOL    HW213460   2.765   3.321  -0.014
 3954SOL     OW13461   2.523   3.652   0.953
 3954SOL    HW113462   2.477   3.740   0.940
 3954SOL    HW213463   2.622   3.664   0.946
 3955SOL     OW13464   2.721   2.818   0.861
 3955SOL    HW113465   2.775   2.749   0.909
 3955SOL    HW213466   2.689   2.887   0.927
 3956SOL     OW13467   2.945   2.846   0.087
 3956SOL    HW113468   2.922   2.899   0.005
 3956SOL    HW213469   3.026   2.790   0.068
 3957SOL     OW13470   3.723   3.431   0.851
 3957SOL    HW113471   3.652   3.419   0.781
 3957SOL    HW213472   3.724   3.352   0.911
 3958SOL     OW13473   2.083   3.176   1.844
 3958SOL    HW113474   2.018   3.103   1.823
 3958SOL    HW213475   2.087   3.190   1.942
 3959SOL     OW13476   1.941   3.102   0.653
 3959SOL    HW113477   1.940   3.055   0.741
 3959SOL    HW213478   2.023   3.074   0.602
 3960SOL     OW13479   2.534   3.253   1.624
 3960SOL    HW113480   2.456   3.203   1.662
 3960SOL    HW213481   2.531   3.348   1.655
 3961SOL     OW13482   3.686   2.054   1.227
 3961SOL    HW113483   3.682   1.964   1.271
 3961SOL    HW213484   3.689   2.043   1.128
 3962SOL     OW13485   2.290   2.286   0.520
 3962SOL    HW113486   2.320   2.214   0.458
 3962SOL    HW213487   2.251   2.246   0.603
 3963SOL     OW13488   3.567   3.349   1.104
 3963SOL    HW113489   3.474   3.324   1.077
 3963SOL    HW213490   3.593   3.299   1.186
 3964SOL     OW13491   2.179   2.409   1.280
 3964SOL    HW113492   2.217   2.350   1.352
 3964SOL    HW213493   2.219   2.383   1.192
 3965SOL     OW13494   2.674   3.448   0.687
 3965SOL    HW113495   2.706   3.458   0.593
 3965SOL    HW213496   2.595   3.386   0.689
 3966SOL     OW13497   3.286   2.076   1.112
 3966SOL    HW113498   3.338   2.011   1.167
 3966SOL    HW213499   3.237   2.139   1.173
 3967SOL     OW13500   2.863   1.896   1.154
 3967SOL    HW113501   2.800   1.824   1.123
 3967SOL    HW213502   2.956   1.860   1.154
 3968SOL     OW13503   2.632   3.192   0.301
 3968SOL    HW113504   2.586   3.105   0.318
 3968SOL    HW213505   2.723   3.189   0.342
 3969SOL     OW13506   2.480   3.429   1.284
 3969SOL    HW113507   2.475   3.511   1.341
 3969SOL    HW213508   2.569   3.426   1.239
 3970SOL     OW13509   3.214   1.914   0.168
 3970SOL    HW113510   3.249   1.873   0.084
 3970SOL    HW213511   3.124   1.876   0.188
 3971SOL     OW13512   3.162   2.315   0.691
 3971SOL    HW113513   3.103   2.395   0.695
 3971SOL    HW213514   3.177   2.280   0.784
 3972SOL     OW13515   3.455   2.083   0.882
 3972SOL    HW113516   3.371   2.082   0.936
 3972SOL    HW213517   3.457   2.166   0.826
 3973SOL     OW13518   1.901   2.939   0.300
 3973SOL    HW113519   2.000   2.928   0.291
 3973SOL    HW213520   1.861   2.853   0.332
 3974SOL     OW13521   2.737   3.508   0.337
 3974SOL    HW113522   2.660   3.473   0.283
 3974SOL    HW213523   2.705   3.579   0.399
 3975SOL     OW13524   2.092   2.490   1.975
 3975SOL    HW113525   1.999   2.488   2.012
 3975SOL    HW213526   2.093   2.451   1.883
 3976SOL     OW13527   2.087   2.137   2.858
 3976SOL    HW113528   2.122   2.120   2.950
 3976SOL    HW213529   1.999   2.092   2.846
 3977SOL     OW13530   1.881   2.230   2.509
 3977SOL    HW113531   1.799   2.273   2.548
 3977SOL    HW213532   1.853   2.157   2.446
 3978SOL     OW13533   2.431   3.137   3.027
 3978SOL    HW113534   2.338   3.130   2.990
 3978SOL    HW213535   2.442   3.226   3.071
 3979SOL     OW13536   2.997   2.565   2.579
 3979SOL    HW113537   3.054   2.643   2.554
 3979SOL    HW213538   2.937   2.591   2.655
 3980SOL     OW13539   3.617   2.469   2.093
 3980SOL    HW113540   3.605   2.456   1.994
 3980SOL    HW213541   3.587   2.388   2.142
 3981SOL     OW13542   2.630   3.006   2.885
 3981SOL    HW113543   2.552   3.023   2.945
 3981SOL    HW213544   2.664   3.093   2.849
 3982SOL     OW13545   2.712   2.660   3.685
 3982SOL    HW113546   2.708   2.736   3.750
 3982SOL    HW213547   2.734   2.696   3.594
 3983SOL     OW13548   2.548   3.023   3.665
 3983SOL    HW113549   2.608   3.102   3.679
 3983SOL    HW213550   2.462   3.054   3.624
 3984SOL     OW13551   2.197   3.297   2.923
 3984SOL    HW113552   2.119   3.266   2.870
 3984SOL    HW213553   2.255   3.355   2.866
 3985SOL     OW13554   3.322   3.367   3.201
 3985SOL    HW113555   3.346   3.461   3.227
 3985SOL    HW213556   3.306   3.313   3.283
 3986SOL     OW13557   2.300   2.254   3.361
 3986SOL    HW113558   2.382   2.198   3.370
 3986SOL    HW213559   2.219   2.196   3.365
 3987SOL     OW13560   3.465   2.309   2.599
 3987SOL    HW113561   3.391   2.355   2.549
 3987SOL    HW213562   3.516   2.377   2.652
 3988SOL     OW13563   2.989   3.203   3.552
 3988SOL    HW113564   3.036   3.203   3.640
 3988SOL    HW213565   2.941   3.116   3.541
 3989SOL     OW13566   2.482   3.648   3.301
 3989SOL    HW113567   2.390   3.631   3.336
 3989SOL    HW213568   2.510   3.740   3.327
 3990SOL     OW13569   2.468   2.826   1.985
 3990SOL    HW113570   2.475   2.910   1.931
 3990SOL    HW213571   2.514   2.839   2.073
 3991SOL     OW13572   3.456   1.976   3.342
 3991SOL    HW113573   3.438   2.043   3.270
 3991SOL    HW213574   3.453   2.022   3.431
 3992SOL     OW13575   1.984   2.505   2.425
 3992SOL    HW113576   1.939   2.417   2.442
 3992SOL    HW213577   1.983   2.559   2.509
 3993SOL     OW13578   3.704   3.629   2.221
 3993SOL    HW113579   3.758   3.600   2.301
 3993SOL    HW213580   3.734   3.719   2.192
 3994SOL     OW13581   1.889   3.458   1.979
 3994SOL    HW113582   1.870   3.362   2.000
 3994SOL    HW213583   1.856   3.516   2.054
 3995SOL     OW13584   3.551   2.784   2.474
 3995SOL    HW113585   3.646   2.755   2.482
 3995SOL    HW213586   3.543   2.849   2.399
 3996SOL     OW13587   3.503   2.970   2.294
 3996SOL    HW113588   3.589   2.972   2.242
 3996SOL    HW213589   3.517   3.017   2.382
 3997SOL     OW13590   1.975   2.599   3.459
 3997SOL    HW113591   2.063   2.586   3.504
 3997SOL    HW213592   1.962   2.696   3.437
 3998SOL     OW13593   3.155   3.090   3.285
 3998SOL    HW113594   3.192   3.017   3.227
 3998SOL    HW213595   3.207   3.095   3.370
 3999SOL     OW13596   2.671   1.866   2.364
 3999SOL    HW113597   2.711   1.957   2.355
 3999SOL    HW213598   2.571   1.874   2.370
 4000SOL     OW13599   2.059   2.838   3.126
 4000SOL    HW113600   2.148   2.793   3.112
 4000SOL    HW213601   1.986   2.773   3.107
 4001SOL     OW13602   3.387   2.861   2.052
 4001SOL    HW113603   3.324   2.785   2.065
 4001SOL    HW213604   3.435   2.879   2.138
 4002SOL     OW13605   3.049   3.654   3.478
 4002SOL    HW113606   3.073   3.714   3.402
 4002SOL    HW213607   3.056   3.559   3.448
 4003SOL     OW13608   2.179   2.113   3.663
 4003SOL    HW113609   2.250   2.184   3.669
 4003SOL    HW213610   2.091   2.152   3.691
 4004SOL     OW13611   3.328   3.279   2.815
 4004SOL    HW113612   3.269   3.285   2.895
 4004SOL    HW213613   3.313   3.191   2.769
 4005SOL     OW13614   2.460   2.591   2.132
 4005SOL    HW113615   2.484   2.660   2.064
 4005SOL    HW213616   2.382   2.624   2.186
 4006SOL     OW13617   3.143   2.207   2.806
 4006SOL    HW113618   3.057   2.157   2.793
 4006SOL    HW213619   3.205   2.153   2.862
 4007SOL     OW13620   3.438   3.524   2.169
 4007SOL    HW113621   3.527   3.570   2.172
 4007SOL    HW213622   3.417   3.500   2.074
 4008SOL     OW13623   2.835   2.752   3.434
 4008SOL    HW113624   2.881   2.668   3.405
 4008SOL    HW213625   2.779   2.786   3.359
 4009SOL     OW13626   2.853   2.272   3.104
 4009SOL    HW113627   2.776   2.306   3.158
 4009SOL    HW213628   2.819   2.221   3.025
 4010SOL     OW13629   2.903   2.563   2.291
 4010SOL    HW113630   2.929   2.559   2.387
 4010SOL    HW213631   2.818   2.512   2.277
 4011SOL     OW13632   1.992   3.683   3.433
 4011SOL    HW113633   1.982   3.668   3.532
 4011SOL    HW213634   1.906   3.719   3.397
 4012SOL     OW13635   2.727   2.210   2.057
 4012SOL    HW113636   2.786   2.273   2.008
 4012SOL    HW213637   2.746   2.116   2.028
 4013SOL     OW13638   3.224   3.006   2.407
 4013SOL    HW113639   3.307   2.977   2.359
 4013SOL    HW213640   3.175   3.073   2.351
 4014SOL     OW13641   2.412   2.058   2.747
 4014SOL    HW113642   2.407   2.053   2.847
 4014SOL    HW213643   2.414   2.154   2.718
 4015SOL     OW13644   2.213   3.663   2.715
 4015SOL    HW113645   2.263   3.577   2.721
 4015SOL    HW213646   2.278   3.740   2.712
 4016SOL     OW13647   3.089   3.412   3.368
 4016SOL    HW113648   3.095   3.335   3.432
 4016SOL    HW213649   3.037   3.386   3.288
 4017SOL     OW13650   2.183   2.805   2.104
 4017SOL    HW113651   2.265   2.844   2.062
 4017SOL    HW213652   2.156   2.723   2.055
 4018SOL     OW13653   3.320   2.597   2.590
 4018SOL    HW113654   3.315   2.532   2.665
 4018SOL    HW213655   3.400   2.656   2.603
 4019SOL     OW13656   2.323   3.128   3.589
 4019SOL    HW113657   2.273   3.129   3.503
 4019SOL    HW213658   2.260   3.110   3.665
 4020SOL     OW13659   2.973   3.638   2.099
 4020SOL    HW113660   2.913   3.576   2.149
 4020SOL    HW213661   3.004   3.594   2.014
 4021SOL     OW13662   2.064   2.147   3.360
 4021SOL    HW113663   1.984   2.207   3.347
 4021SOL    HW213664   2.054   2.098   3.446
 4022SOL     OW13665   3.494   3.239   1.943
 4022SOL    HW113666   3.462   3.333   1.933
 4022SOL    HW213667   3.418   3.176   1.931
 4023SOL     OW13668   2.326   3.605   2.185
 4023SOL    HW113669   2.359   3.644   2.271
 4023SOL    HW213670   2.402   3.598   2.120
 4024SOL     OW13671   3.262   1.969   2.288
 4024SOL    HW113672   3.238   1.932   2.198
 4024SOL    HW213673   3.361   1.985   2.292
 4025SOL     OW13674   2.111   3.647   3.103
 4025SOL    HW113675   2.168   3.582   3.153
 4025SOL    HW213676   2.095   3.614   3.010
 4026SOL     OW13677   2.802   3.560   2.766
 4026SOL    HW113678   2.882   3.503   2.787
 4026SOL    HW213679   2.753   3.520   2.689
 4027SOL     OW13680   2.244   2.562   2.342
 4027SOL    HW113681   2.289   2.472   2.339
 4027SOL    HW213682   2.150   2.551   2.375
 4028SOL     OW13683   3.409   2.084   3.591
 4028SOL    HW113684   3.404   2.121   3.683
 4028SOL    HW213685   3.337   2.015   3.579
 4029SOL     OW13686   2.476   1.984   1.979
 4029SOL    HW113687   2.574   1.962   1.986
 4029SOL    HW213688   2.445   1.967   1.886
 4030SOL     OW13689   2.643   2.126   3.611
 4030SOL    HW113690   2.710   2.065   3.654
 4030SOL    HW213691   2.570   2.145   3.676
 4031SOL     OW13692   2.750   3.376   3.057
 4031SOL    HW113693   2.727   3.351   2.963
 4031SOL    HW213694   2.811   3.307   3.096
 4032SOL     OW13695   2.665   3.264   2.786
 4032SOL    HW113696   2.755   3.278   2.744
 4032SOL    HW213697   2.594   3.266   2.715
 4033SOL     OW13698   2.784   2.365   2.761
 4033SOL    HW113699   2.759   2.356   2.665
 4033SOL    HW213700   2.832   2.283   2.792
 4034SOL     OW13701   2.401   1.926   2.374
 4034SOL    HW113702   2.320   1.927   2.432
 4034SOL    HW213703   2.404   2.009   2.319
 4035SOL     OW13704   3.296   3.050   1.903
 4035SOL    HW113705   3.328   2.974   1.960
 4035SOL    HW213706   3.204   3.077   1.933
 4036SOL     OW13707   2.159   1.897   2.033
 4036SOL    HW113708   2.208   1.981   2.012
 4036SOL    HW213709   2.221   1.832   2.078
 4037SOL     OW13710   2.797   2.098   2.342
 4037SOL    HW113711   2.749   2.139   2.264
 4037SOL    HW213712   2.896   2.096   2.323
 4038SOL     OW13713   2.894   2.411   1.878
 4038SOL    HW113714   2.853   2.493   1.839
 4038SOL    HW213715   2.958   2.437   1.951
 4039SOL     OW13716   2.423   2.084   3.009
 4039SOL    HW113717   2.461   2.000   3.046
 4039SOL    HW213718   2.335   2.103   3.053
 4040SOL     OW13719   2.728   2.316   2.504
 4040SOL    HW113720   2.696   2.388   2.442
 4040SOL    HW213721   2.752   2.235   2.451
 4041SOL     OW13722   2.879   1.901   2.615
 4041SOL    HW113723   2.807   1.906   2.546
 4041SOL    HW213724   2.855   1.832   2.684
 4042SOL     OW13725   3.328   2.452   2.854
 4042SOL    HW113726   3.298   2.357   2.861
 4042SOL    HW213727   3.401   2.468   2.920
 4043SOL     OW13728   3.719   2.695   2.239
 4043SOL    HW113729   3.761   2.631   2.303
 4043SOL    HW213730   3.681   2.644   2.161
 4044SOL     OW13731   2.350   3.247   2.036
 4044SOL    HW113732   2.263   3.232   2.083
 4044SOL    HW213733   2.333   3.273   1.941
 4045SOL     OW13734   3.252   2.437   1.940
 4045SOL    HW113735   3.198   2.416   2.021
 4045SOL    HW213736   3.343   2.396   1.949
 4046SOL     OW13737   2.389   2.118   2.190
 4046SOL    HW113738   2.416   2.059   2.115
 4046SOL    HW213739   2.389   2.213   2.159
 4047SOL     OW13740   3.616   3.085   3.450
 4047SOL    HW113741   3.707   3.046   3.437
 4047SOL    HW213742   3.624   3.181   3.474
 4048SOL     OW13743   2.926   3.209   3.202
 4048SOL    HW113744   2.846   3.186   3.257
 4048SOL    HW213745   3.009   3.183   3.251
 4049SOL     OW13746   3.454   3.491   3.487
 4049SOL    HW113747   3.481   3.525   3.397
 4049SOL    HW213748   3.533   3.453   3.533
 4050SOL     OW13749   2.973   3.057   2.962
 4050SOL    HW113750   2.933   3.101   3.043
 4050SOL    HW213751   2.932   3.094   2.879
 4051SOL     OW13752   3.500   2.961   2.941
 4051SOL    HW113753   3.505   3.042   3.000
 4051SOL    HW213754   3.414   2.963   2.890
 4052SOL     OW13755   2.777   1.951   3.264
 4052SOL    HW113756   2.802   1.931   3.169
 4052SOL    HW213757   2.849   2.007   3.306
 4053SOL     OW13758   2.842   2.978   3.581
 4053SOL    HW113759   2.743   2.984   3.591
 4053SOL    HW213760   2.865   2.898   3.525
 4054SOL     OW13761   2.567   2.912   2.230
 4054SOL    HW113762   2.553   2.919   2.329
 4054SOL    HW213763   2.651   2.861   2.212
 4055SOL     OW13764   3.136   2.248   3.124
 4055SOL    HW113765   3.157   2.322   3.188
 4055SOL    HW213766   3.047   2.265   3.081
 4056SOL     OW13767   1.926   3.426   3.193
 4056SOL    HW113768   1.880   3.508   3.159
 4056SOL    HW213769   2.024   3.445   3.202
 4057SOL     OW13770   2.229   2.962   2.363
 4057SOL    HW113771   2.222   3.045   2.307
 4057SOL    HW213772   2.233   2.882   2.303
 4058SOL     OW13773   2.428   2.399   2.727
 4058SOL    HW113774   2.440   2.465   2.653
 4058SOL    HW213775   2.474   2.433   2.810
 4059SOL     OW13776   3.114   3.210   2.250
 4059SOL    HW113777   3.164   3.287   2.290
 4059SOL    HW213778   3.019   3.212   2.282
 4060SOL     OW13779   3.134   3.307   3.004
 4060SOL    HW113780   3.181   3.320   3.091
 4060SOL    HW213781   3.068   3.233   3.013
 4061SOL     OW13782   3.444   2.501   2.334
 4061SOL    HW113783   3.413   2.562   2.407
 4061SOL    HW213784   3.494   2.553   2.265
 4062SOL     OW13785   2.216   3.372   3.191
 4062SOL    HW113786   2.195   3.328   3.104
 4062SOL    HW213787   2.313   3.398   3.194
 4063SOL     OW13788   3.449   2.641   3.532
 4063SOL    HW113789   3.357   2.679   3.527
 4063SOL    HW213790   3.509   2.688   3.467
 4064SOL     OW13791   2.875   1.967   3.632
 4064SOL    HW113792   2.881   2.052   3.580
 4064SOL    HW213793   2.907   1.891   3.575
 4065SOL     OW13794   2.366   1.912   3.602
 4065SOL    HW113795   2.324   1.855   3.532
 4065SOL    HW213796   2.300   1.981   3.634
 4066SOL     OW13797   3.071   2.387   2.137
 4066SOL    HW113798   3.084   2.303   2.191
 4066SOL    HW213799   3.042   2.461   2.197
 4067SOL     OW13800   2.169   2.075   3.093
 4067SOL    HW113801   2.146   2.112   3.183
 4067SOL    HW213802   2.139   1.980   3.087
 4068SOL     OW13803   1.899   3.172   3.144
 4068SOL    HW113804   1.952   3.123   3.212
 4068SOL    HW213805   1.921   3.270   3.149
 4069SOL     OW13806   3.590   2.797   3.716
 4069SOL    HW113807   3.544   2.790   3.627
 4069SOL    HW213808   3.528   2.841   3.782
 4070SOL     OW13809   2.169   1.925   2.480
 4070SOL    HW113810   2.158   2.019   2.513
 4070SOL    HW213811   2.164   1.862   2.557
 4071SOL     OW13812   3.484   2.229   2.236
 4071SOL    HW113813   3.486   2.153   2.300
 4071SOL    HW213814   3.436   2.306   2.276
 4072SOL     OW13815   2.842   3.435   3.562
 4072SOL    HW113816   2.822   3.479   3.474
 4072SOL    HW213817   2.881   3.344   3.546
 4073SOL     OW13818   3.721   3.380   3.467
 4073SOL    HW113819   3.735   3.407   3.372
 4073SOL    HW213820   3.804   3.402   3.520
 4074SOL     OW13821   2.212   2.760   3.666
 4074SOL    HW113822   2.288   2.804   3.714
 4074SOL    HW213823   2.247   2.713   3.584
 4075SOL     OW13824   3.402   2.136   1.987
 4075SOL    HW113825   3.341   2.061   2.010
 4075SOL    HW213826   3.424   2.188   2.070
 4076SOL     OW13827   3.165   2.700   1.904
 4076SOL    HW113828   3.199   2.607   1.919
 4076SOL    HW213829   3.183   2.727   1.809
 4077SOL     OW13830   2.201   2.371   2.868
 4077SOL    HW113831   2.149   2.288   2.851
 4077SOL    HW213832   2.278   2.376   2.804
 4078SOL     OW13833   3.000   2.242   3.540
 4078SOL    HW113834   2.955   2.305   3.604
 4078SOL    HW213835   3.093   2.273   3.523
 4079SOL     OW13836   3.022   2.069   3.339
 4079SOL    HW113837   3.022   2.133   3.416
 4079SOL    HW213838   3.050   2.117   3.256
 4080SOL     OW13839   1.870   3.188   2.062
 4080SOL    HW113840   1.777   3.209   2.031
 4080SOL    HW213841   1.880   3.089   2.075
 4081SOL     OW13842   1.950   3.663   2.789
 4081SOL    HW113843   1.908   3.577   2.762
 4081SOL    HW213844   2.044   3.666   2.755
 4082SOL     OW13845   2.366   3.430   2.772
 4082SOL    HW113846   2.432   3.504   2.781
 4082SOL    HW213847   2.410   3.351   2.730
 4083SOL     OW13848   1.902   2.406   2.976
 4083SOL    HW113849   1.987   2.373   2.935
 4083SOL    HW213850   1.915   2.421   3.074
 4084SOL     OW13851   3.231   2.812   3.522
 4084SOL    HW113852   3.270   2.901   3.542
 4084SOL    HW213853   3.241   2.792   3.425
 4085SOL     OW13854   2.677   2.434   2.187
 4085SOL    HW113855   2.684   2.345   2.141
 4085SOL    HW213856   2.583   2.468   2.179
 4086SOL     OW13857   2.114   3.426   3.606
 4086SOL    HW113858   2.084   3.483   3.682
 4086SOL    HW213859   2.107   3.329   3.632
 4087SOL     OW13860   2.533   2.326   3.131
 4087SOL    HW113861   2.499   2.237   3.101
 4087SOL    HW213862   2.559   2.380   3.051
 4088SOL     OW13863   2.792   3.540   3.327
 4088SOL    HW113864   2.768   3.522   3.232
 4088SOL    HW213865   2.822   3.634   3.337
 4089SOL     OW13866   2.335   2.362   2.053
 4089SOL    HW113867   2.396   2.442   2.057
 4089SOL    HW213868   2.240   2.393   2.060
 4090SOL     OW13869   2.021   2.999   3.328
 4090SOL    HW113870   2.043   2.938   3.404
 4090SOL    HW213871   2.031   2.950   3.242
 4091SOL     OW13872   3.209   2.921   3.096
 4091SOL    HW113873   3.233   2.858   3.022
 4091SOL    HW213874   3.119   2.961   3.078
 4092SOL     OW13875   3.164   2.717   2.171
 4092SOL    HW113876   3.078   2.686   2.213
 4092SOL    HW213877   3.160   2.703   2.072
 4093SOL     OW13878   3.621   3.609   3.016
 4093SOL    HW113879   3.682   3.639   2.943
 4093SOL    HW213880   3.583   3.520   2.994
 4094SOL     OW13881   3.114   3.593   2.990
 4094SOL    HW113882   3.198   3.598   2.936
 4094SOL    HW213883   3.091   3.497   3.008
 4095SOL     OW13884   1.945   3.120   2.884
 4095SOL    HW113885   1.940   3.119   2.984
 4095SOL    HW213886   1.862   3.079   2.846
 4096SOL     OW13887   2.550   3.524   3.578
 4096SOL    HW113888   2.494   3.605   3.587
 4096SOL    HW213889   2.602   3.528   3.492
 4097SOL     OW13890   3.588   1.997   2.385
 4097SOL    HW113891   3.661   1.980   2.318
 4097SOL    HW213892   3.557   1.910   2.423
 4098SOL     OW13893   1.992   3.656   3.713
 4098SOL    HW113894   1.951   3.582   3.766
 4098SOL    HW213895   2.056   3.707   3.771
 4099SOL     OW13896   3.142   2.789   2.534
 4099SOL    HW113897   3.202   2.708   2.536
 4099SOL    HW213898   3.182   2.858   2.474
 4100SOL     OW13899   2.692   3.135   3.284
 4100SOL    HW113900   2.687   3.168   3.379
 4100SOL    HW213901   2.606   3.154   3.238
 4101SOL     OW13902   2.534   3.478   2.016
 4101SOL    HW113903   2.543   3.488   1.917
 4101SOL    HW213904   2.494   3.389   2.037
 4102SOL     OW13905   3.512   3.582   3.256
 4102SOL    HW113906   3.565   3.592   3.172
 4102SOL    HW213907   3.485   3.672   3.290
 4103SOL     OW13908   3.703   2.037   2.825
 4103SOL    HW113909   3.742   1.952   2.789
 4103SOL    HW213910   3.605   2.039   2.806
 4104SOL     OW13911   2.125   2.188   2.582
 4104SOL    HW113912   2.046   2.239   2.548
 4104SOL    HW213913   2.116   2.173   2.680
 4105SOL     OW13914   3.056   3.474   1.893
 4105SOL    HW113915   3.062   3.381   1.930
 4105SOL    HW213916   2.997   3.474   1.813
 4106SOL     OW13917   2.684   2.864   3.234
 4106SOL    HW113918   2.724   2.863   3.142
 4106SOL    HW213919   2.694   2.956   3.274
 4107SOL     OW13920   2.778   2.772   2.153
 4107SOL    HW113921   2.841   2.810   2.085
 4107SOL    HW213922   2.818   2.689   2.192
 4108SOL     OW13923   3.366   3.469   1.906
 4108SOL    HW113924   3.274   3.506   1.913
 4108SOL    HW213925   3.404   3.489   1.816
 4109SOL     OW13926   2.234   3.150   3.352
 4109SOL    HW113927   2.221   3.243   3.318
 4109SOL    HW213928   2.150   3.098   3.339
 4110SOL     OW13929   3.476   3.154   3.151
 4110SOL    HW113930   3.536   3.157   3.231
 4110SOL    HW213931   3.401   3.218   3.164
 4111SOL     OW13932   2.876   2.098   2.833
 4111SOL    HW113933   2.868   2.062   2.740
 4111SOL    HW213934   2.874   2.022   2.898
 4112SOL     OW13935   3.571   2.247   3.243
 4112SOL    HW113936   3.644   2.316   3.247
 4112SOL    HW213937   3.599   2.172   3.184
 4113SOL     OW13938   2.117   3.210   2.152
 4113SOL    HW113939   2.021   3.211   2.125
 4113SOL    HW213940   2.129   3.263   2.236
 4114SOL     OW13941   1.967   2.875   3.588
 4114SOL    HW113942   1.890   2.842   3.642
 4114SOL    HW213943   2.052   2.845   3.630
 4115SOL     OW13944   2.534   2.065   3.351
 4115SOL    HW113945   2.624   2.049   3.311
 4115SOL    HW213946   2.542   2.070   3.450
 4116SOL     OW13947   1.937   2.207   1.895
 4116SOL    HW113948   1.845   2.179   1.866
 4116SOL    HW213949   1.968   2.284   1.839
 4117SOL     OW13950   3.302   2.718   3.260
 4117SOL    HW113951   3.245   2.770   3.197
 4117SOL    HW213952   3.398   2.730   3.236
 4118SOL     OW13953   1.934   2.028   2.180
 4118SOL    HW113954   1.917   2.111   2.126
 4118SOL    HW213955   2.024   1.991   2.158
 4119SOL     OW13956   3.045   3.197   1.981
 4119SOL    HW113957   2.946   3.186   1.983
 4119SOL    HW213958   3.079   3.212   2.074
 4120SOL     OW13959   3.355   3.629   2.821
 4120SOL    HW113960   3.388   3.693   2.752
 4120SOL    HW213961   3.421   3.623   2.896
 4121SOL     OW13962   3.312   3.082   3.495
 4121SOL    HW113963   3.303   3.072   3.594
 4121SOL    HW213964   3.408   3.075   3.469
 4122SOL     OW13965   2.252   3.603   3.422
 4122SOL    HW113966   2.161   3.644   3.420
 4122SOL    HW213967   2.245   3.509   3.454
 4123SOL     OW13968   3.087   2.187   2.311
 4123SOL    HW113969   3.152   2.113   2.300
 4123SOL    HW213970   3.107   2.237   2.395
 4124SOL     OW13971   2.456   2.607   2.514
 4124SOL    HW113972   2.506   2.692   2.495
 4124SOL    HW213973   2.368   2.609   2.466
 4125SOL     OW13974   3.639   2.204   3.504
 4125SOL    HW113975   3.622   2.235   3.410
 4125SOL    HW213976   3.555   2.167   3.542
 4126SOL     OW13977   3.592   2.796   3.379
 4126SOL    HW113978   3.630   2.887   3.394
 4126SOL    HW213979   3.584   2.779   3.280
 4127SOL     OW13980   2.721   3.236   1.878
 4127SOL    HW113981   2.675   3.251   1.966
 4127SOL    HW213982   2.765   3.321   1.848
 4128SOL     OW13983   2.523   3.652   2.815
 4128SOL    HW113984   2.477   3.740   2.802
 4128SOL    HW213985   2.622   3.664   2.808
 4129SOL     OW13986   2.945   2.846   1.949
 4129SOL    HW113987   2.922   2.899   1.867
 4129SOL    HW213988   3.026   2.790   1.930
 4130SOL     OW13989   3.723   3.431   2.713
 4130SOL    HW113990   3.652   3.419   2.643
 4130SOL    HW213991   3.724   3.352   2.773
 4131SOL     OW13992   2.083   3.176   3.706
 4131SOL    HW113993   2.018   3.103   3.685
 4131SOL    HW213994   2.087   3.190   3.804
 4132SOL     OW13995   2.534   3.253   3.486
 4132SOL    HW113996   2.456   3.203   3.524
 4132SOL    HW213997   2.531   3.348   3.517
 4133SOL     OW13998   3.686   2.054   3.089
 4133SOL    HW113999   3.682   1.964   3.133
 4133SOL    HW214000   3.689   2.043   2.990
 4134SOL     OW14001   2.290   2.286   2.382
 4134SOL    HW114002   2.320   2.214   2.320
 4134SOL    HW214003   2.251   2.246   2.465
 4135SOL     OW14004   3.567   3.349   2.966
 4135SOL    HW114005   3.474   3.324   2.939
 4135SOL    HW214006   3.593   3.299   3.048
 4136SOL     OW14007   3.286   2.076   2.974
 4136SOL    HW114008   3.338   2.011   3.029
 4136SOL    HW214009   3.237   2.139   3.035
 4137SOL     OW14010   2.863   1.896   3.016
 4137SOL    HW114011   2.800   1.824   2.985
 4137SOL    HW214012   2.956   1.860   3.016
 4138SOL     OW14013   2.632   3.192   2.163
 4138SOL    HW114014   2.586   3.105   2.180
 4138SOL    HW214015   2.723   3.189   2.204
 4139SOL     OW14016   2.480   3.429   3.146
 4139SOL    HW114017   2.475   3.511   3.203
 4139SOL    HW214018   2.569   3.426   3.101
 4140SOL     OW14019   3.214   1.914   2.030
 4140SOL    HW114020   3.249   1.873   1.946
 4140SOL    HW214021   3.124   1.876   2.050
 4141SOL     OW14022   3.162   2.315   2.553
 4141SOL    HW114023   3.103   2.395   2.557
 4141SOL    HW214024   3.177   2.280   2.646
 4142SOL     OW14025   3.455   2.083   2.744
 4142SOL    HW114026   3.371   2.082   2.798
 4142SOL    HW214027   3.457   2.166   2.688
 4143SOL     OW14028   1.901   2.939   2.162
 4143SOL    HW114029   2.000   2.928   2.153
 4143SOL    HW214030   1.861   2.853   2.194
 4144SOL     OW14031   2.737   3.508   2.199
 4144SOL    HW114032   2.660   3.473   2.145
 4144SOL    HW214033   2.705   3.579   2.261
 4145SOL     OW14034   2.087   2.137   4.720
 4145SOL    HW114035   2.122   2.120   4.812
 4145SOL    HW214036   1.999   2.092   4.708
 4146SOL     OW14037   1.881   2.230   4.371
 4146SOL    HW114038   1.799   2.273   4.410
 4146SOL    HW214039   1.853   2.157   4.308
 4147SOL     OW14040   2.431   3.137   4.889
 4147SOL    HW114041   2.338   3.130   4.852
 4147SOL    HW214042   2.442   3.226   4.933
 4148SOL     OW14043   2.997   2.565   4.441
 4148SOL    HW114044   3.054   2.643   4.416
 4148SOL    HW214045   2.937   2.591   4.517
 4149SOL     OW14046   2.630   3.006   4.747
 4149SOL    HW114047   2.552   3.023   4.807
 4149SOL    HW214048   2.664   3.093   4.711
 4150SOL     OW14049   2.712   2.660   5.547
 4150SOL    HW114050   2.708   2.736   5.612
 4150SOL    HW214051   2.734   2.696   5.456
 4151SOL     OW14052   2.548   3.023   5.527
 4151SOL    HW114053   2.608   3.102   5.541
 4151SOL    HW214054   2.462   3.054   5.486
 4152SOL     OW14055   2.197   3.297   4.785
 4152SOL    HW114056   2.119   3.266   4.732
 4152SOL    HW214057   2.255   3.355   4.728
 4153SOL     OW14058   3.322   3.367   5.063
 4153SOL    HW114059   3.346   3.461   5.089
 4153SOL    HW214060   3.306   3.313   5.145
 4154SOL     OW14061   2.300   2.254   5.223
 4154SOL    HW114062   2.382   2.198   5.232
 4154SOL    HW214063   2.219   2.196   5.227
 4155SOL     OW14064   3.465   2.309   4.461
 4155SOL    HW114065   3.391   2.355   4.411
 4155SOL    HW214066   3.516   2.377   4.514
 4156SOL     OW14067   2.093   3.575   4.207
 4156SOL    HW114068   2.127   3.652   4.261
 4156SOL    HW214069   2.137   3.575   4.117
 4157SOL     OW14070   2.989   3.203   5.414
 4157SOL    HW114071   3.036   3.203   5.502
 4157SOL    HW214072   2.941   3.116   5.403
 4158SOL     OW14073   2.092   3.296   4.262
 4158SOL    HW114074   2.066   3.392   4.262
 4158SOL    HW214075   2.021   3.242   4.307
 4159SOL     OW14076   2.102   2.953   4.610
 4159SOL    HW114077   2.116   2.869   4.662
 4159SOL    HW214078   2.047   3.017   4.665
 4160SOL     OW14079   2.482   3.648   5.163
 4160SOL    HW114080   2.390   3.631   5.198
 4160SOL    HW214081   2.510   3.740   5.189
 4161SOL     OW14082   2.468   2.826   3.847
 4161SOL    HW114083   2.475   2.910   3.793
 4161SOL    HW214084   2.514   2.839   3.935
 4162SOL     OW14085   3.456   1.976   5.204
 4162SOL    HW114086   3.438   2.043   5.132
 4162SOL    HW214087   3.453   2.022   5.293
 4163SOL     OW14088   1.984   2.505   4.287
 4163SOL    HW114089   1.939   2.417   4.304
 4163SOL    HW214090   1.983   2.559   4.371
 4164SOL     OW14091   3.704   3.629   4.083
 4164SOL    HW114092   3.758   3.600   4.163
 4164SOL    HW214093   3.734   3.719   4.054
 4165SOL     OW14094   1.889   3.458   3.841
 4165SOL    HW114095   1.870   3.362   3.862
 4165SOL    HW214096   1.856   3.516   3.916
 4166SOL     OW14097   3.503   2.970   4.156
 4166SOL    HW114098   3.589   2.972   4.104
 4166SOL    HW214099   3.517   3.017   4.244
 4167SOL     OW14100   1.975   2.599   5.321
 4167SOL    HW114101   2.063   2.586   5.366
 4167SOL    HW214102   1.962   2.696   5.299
 4168SOL     OW14103   3.155   3.090   5.147
 4168SOL    HW114104   3.192   3.017   5.089
 4168SOL    HW214105   3.207   3.095   5.232
 4169SOL     OW14106   2.671   1.866   4.226
 4169SOL    HW114107   2.711   1.957   4.217
 4169SOL    HW214108   2.571   1.874   4.232
 4170SOL     OW14109   2.059   2.838   4.988
 4170SOL    HW114110   2.148   2.793   4.974
 4170SOL    HW214111   1.986   2.773   4.969
 4171SOL     OW14112   3.387   2.861   3.914
 4171SOL    HW114113   3.324   2.785   3.927
 4171SOL    HW214114   3.435   2.879   4.000
 4172SOL     OW14115   3.049   3.654   5.340
 4172SOL    HW114116   3.073   3.714   5.264
 4172SOL    HW214117   3.056   3.559   5.310
 4173SOL     OW14118   2.179   2.113   5.525
 4173SOL    HW114119   2.250   2.184   5.531
 4173SOL    HW214120   2.091   2.152   5.553
 4174SOL     OW14121   3.529   3.576   4.296
 4174SOL    HW114122   3.488   3.553   4.208
 4174SOL    HW214123   3.511   3.502   4.361
 4175SOL     OW14124   3.143   2.207   4.668
 4175SOL    HW114125   3.057   2.157   4.655
 4175SOL    HW214126   3.205   2.153   4.724
 4176SOL     OW14127   3.438   3.524   4.031
 4176SOL    HW114128   3.527   3.570   4.034
 4176SOL    HW214129   3.417   3.500   3.936
 4177SOL     OW14130   2.669   2.467   5.189
 4177SOL    HW114131   2.622   2.464   5.278
 4177SOL    HW214132   2.618   2.412   5.123
 4178SOL     OW14133   3.256   2.331   5.398
 4178SOL    HW114134   3.236   2.374   5.486
 4178SOL    HW214135   3.334   2.269   5.407
 4179SOL     OW14136   2.835   2.752   5.296
 4179SOL    HW114137   2.881   2.668   5.267
 4179SOL    HW214138   2.779   2.786   5.221
 4180SOL     OW14139   2.853   2.272   4.966
 4180SOL    HW114140   2.776   2.306   5.020
 4180SOL    HW214141   2.819   2.221   4.887
 4181SOL     OW14142   1.938   2.673   4.513
 4181SOL    HW114143   2.037   2.661   4.522
 4181SOL    HW214144   1.914   2.768   4.534
 4182SOL     OW14145   1.992   3.683   5.295
 4182SOL    HW114146   1.982   3.668   5.394
 4182SOL    HW214147   1.906   3.719   5.259
 4183SOL     OW14148   2.727   2.210   3.919
 4183SOL    HW114149   2.786   2.273   3.870
 4183SOL    HW214150   2.746   2.116   3.890
 4184SOL     OW14151   3.581   2.447   5.555
 4184SOL    HW114152   3.555   2.536   5.519
 4184SOL    HW214153   3.579   2.379   5.482
 4185SOL     OW14154   2.412   2.058   4.609
 4185SOL    HW114155   2.407   2.053   4.709
 4185SOL    HW214156   2.414   2.154   4.580
 4186SOL     OW14157   2.870   3.318   4.201
 4186SOL    HW114158   2.824   3.390   4.149
 4186SOL    HW214159   2.866   3.338   4.299
 4187SOL     OW14160   3.089   3.412   5.230
 4187SOL    HW114161   3.095   3.335   5.294
 4187SOL    HW214162   3.037   3.386   5.150
 4188SOL     OW14163   2.183   2.805   3.966
 4188SOL    HW114164   2.265   2.844   3.924
 4188SOL    HW214165   2.156   2.723   3.917
 4189SOL     OW14166   3.320   2.597   4.452
 4189SOL    HW114167   3.315   2.532   4.527
 4189SOL    HW214168   3.400   2.656   4.465
 4190SOL     OW14169   2.323   3.128   5.451
 4190SOL    HW114170   2.273   3.129   5.365
 4190SOL    HW214171   2.260   3.110   5.527
 4191SOL     OW14172   2.973   3.638   3.961
 4191SOL    HW114173   2.913   3.576   4.011
 4191SOL    HW214174   3.004   3.594   3.876
 4192SOL     OW14175   2.064   2.147   5.222
 4192SOL    HW114176   1.984   2.207   5.209
 4192SOL    HW214177   2.054   2.098   5.308
 4193SOL     OW14178   3.494   3.239   3.805
 4193SOL    HW114179   3.462   3.333   3.795
 4193SOL    HW214180   3.418   3.176   3.793
 4194SOL     OW14181   2.326   3.605   4.047
 4194SOL    HW114182   2.359   3.644   4.133
 4194SOL    HW214183   2.402   3.598   3.982
 4195SOL     OW14184   3.262   1.969   4.150
 4195SOL    HW114185   3.238   1.932   4.060
 4195SOL    HW214186   3.361   1.985   4.154
 4196SOL     OW14187   2.111   3.647   4.965
 4196SOL    HW114188   2.168   3.582   5.015
 4196SOL    HW214189   2.095   3.614   4.872
 4197SOL     OW14190   3.409   2.084   5.453
 4197SOL    HW114191   3.404   2.121   5.545
 4197SOL    HW214192   3.337   2.015   5.441
 4198SOL     OW14193   2.476   1.984   3.841
 4198SOL    HW114194   2.574   1.962   3.848
 4198SOL    HW214195   2.445   1.967   3.748
 4199SOL     OW14196   2.643   2.126   5.473
 4199SOL    HW114197   2.710   2.065   5.516
 4199SOL    HW214198   2.570   2.145   5.538
 4200SOL     OW14199   2.750   3.376   4.919
 4200SOL    HW114200   2.727   3.351   4.825
 4200SOL    HW214201   2.811   3.307   4.958
 4201SOL     OW14202   3.213   2.452   5.157
 4201SOL    HW114203   3.241   2.409   5.242
 4201SOL    HW214204   3.238   2.548   5.158
 4202SOL     OW14205   2.784   2.365   4.623
 4202SOL    HW114206   2.759   2.356   4.527
 4202SOL    HW214207   2.832   2.283   4.654
 4203SOL     OW14208   2.401   1.926   4.236
 4203SOL    HW114209   2.320   1.927   4.294
 4203SOL    HW214210   2.404   2.009   4.181
 4204SOL     OW14211   3.296   3.050   3.765
 4204SOL    HW114212   3.328   2.974   3.822
 4204SOL    HW214213   3.204   3.077   3.795
 4205SOL     OW14214   2.159   1.897   3.895
 4205SOL    HW114215   2.208   1.981   3.874
 4205SOL    HW214216   2.221   1.832   3.940
 4206SOL     OW14217   2.797   2.098   4.204
 4206SOL    HW114218   2.749   2.139   4.126
 4206SOL    HW214219   2.896   2.096   4.185
 4207SOL     OW14220   2.938   2.545   5.188
 4207SOL    HW114221   2.858   2.484   5.191
 4207SOL    HW214222   3.019   2.492   5.164
 4208SOL     OW14223   1.940   2.418   5.110
 4208SOL    HW114224   2.032   2.417   5.069
 4208SOL    HW214225   1.934   2.492   5.177
 4209SOL     OW14226   2.423   2.084   4.871
 4209SOL    HW114227   2.461   2.000   4.908
 4209SOL    HW214228   2.335   2.103   4.915
 4210SOL     OW14229   2.728   2.316   4.366
 4210SOL    HW114230   2.696   2.388   4.304
 4210SOL    HW214231   2.752   2.235   4.313
 4211SOL     OW14232   2.879   1.901   4.477
 4211SOL    HW114233   2.807   1.906   4.408
 4211SOL    HW214234   2.855   1.832   4.546
 4212SOL     OW14235   3.328   2.452   4.716
 4212SOL    HW114236   3.298   2.357   4.723
 4212SOL    HW214237   3.401   2.468   4.782
 4213SOL     OW14238   2.350   3.247   3.898
 4213SOL    HW114239   2.263   3.232   3.945
 4213SOL    HW214240   2.333   3.273   3.803
 4214SOL     OW14241   2.389   2.118   4.052
 4214SOL    HW114242   2.416   2.059   3.977
 4214SOL    HW214243   2.389   2.213   4.021
 4215SOL     OW14244   3.616   3.085   5.312
 4215SOL    HW114245   3.707   3.046   5.299
 4215SOL    HW214246   3.624   3.181   5.336
 4216SOL     OW14247   2.926   3.209   5.064
 4216SOL    HW114248   2.846   3.186   5.119
 4216SOL    HW214249   3.009   3.183   5.113
 4217SOL     OW14250   3.454   3.491   5.349
 4217SOL    HW114251   3.481   3.525   5.259
 4217SOL    HW214252   3.533   3.453   5.395
 4218SOL     OW14253   2.973   3.057   4.824
 4218SOL    HW114254   2.933   3.101   4.905
 4218SOL    HW214255   2.932   3.094   4.741
 4219SOL     OW14256   3.500   2.961   4.803
 4219SOL    HW114257   3.505   3.042   4.862
 4219SOL    HW214258   3.414   2.963   4.752
 4220SOL     OW14259   2.777   1.951   5.126
 4220SOL    HW114260   2.802   1.931   5.031
 4220SOL    HW214261   2.849   2.007   5.168
 4221SOL     OW14262   2.842   2.978   5.443
 4221SOL    HW114263   2.743   2.984   5.453
 4221SOL    HW214264   2.865   2.898   5.387
 4222SOL     OW14265   2.272   2.675   4.975
 4222SOL    HW114266   2.358   2.687   5.025
 4222SOL    HW214267   2.230   2.588   5.002
 4223SOL     OW14268   3.136   2.248   4.986
 4223SOL    HW114269   3.157   2.322   5.050
 4223SOL    HW214270   3.047   2.265   4.943
 4224SOL     OW14271   1.926   3.426   5.055
 4224SOL    HW114272   1.880   3.508   5.021
 4224SOL    HW214273   2.024   3.445   5.064
 4225SOL     OW14274   2.428   2.399   4.589
 4225SOL    HW114275   2.440   2.465   4.515
 4225SOL    HW214276   2.474   2.433   4.672
 4226SOL     OW14277   3.114   3.210   4.112
 4226SOL    HW114278   3.164   3.287   4.152
 4226SOL    HW214279   3.019   3.212   4.144
 4227SOL     OW14280   3.134   3.307   4.866
 4227SOL    HW114281   3.181   3.320   4.953
 4227SOL    HW214282   3.068   3.233   4.875
 4228SOL     OW14283   2.216   3.372   5.053
 4228SOL    HW114284   2.195   3.328   4.966
 4228SOL    HW214285   2.313   3.398   5.056
 4229SOL     OW14286   2.264   2.613   5.322
 4229SOL    HW114287   2.332   2.668   5.275
 4229SOL    HW214288   2.304   2.525   5.349
 4230SOL     OW14289   3.449   2.641   5.394
 4230SOL    HW114290   3.357   2.679   5.389
 4230SOL    HW214291   3.509   2.688   5.329
 4231SOL     OW14292   2.875   1.967   5.494
 4231SOL    HW114293   2.881   2.052   5.442
 4231SOL    HW214294   2.907   1.891   5.437
 4232SOL     OW14295   2.366   1.912   5.464
 4232SOL    HW114296   2.324   1.855   5.394
 4232SOL    HW214297   2.300   1.981   5.496
 4233SOL     OW14298   2.435   2.732   4.753
 4233SOL    HW114299   2.479   2.821   4.744
 4233SOL    HW214300   2.372   2.732   4.830
 4234SOL     OW14301   3.222   2.724   4.769
 4234SOL    HW114302   3.147   2.724   4.703
 4234SOL    HW214303   3.259   2.632   4.778
 4235SOL     OW14304   2.169   2.075   4.955
 4235SOL    HW114305   2.146   2.112   5.045
 4235SOL    HW214306   2.139   1.980   4.949
 4236SOL     OW14307   1.899   3.172   5.006
 4236SOL    HW114308   1.952   3.123   5.074
 4236SOL    HW214309   1.921   3.270   5.011
 4237SOL     OW14310   2.594   2.496   4.788
 4237SOL    HW114311   2.653   2.470   4.712
 4237SOL    HW214312   2.566   2.592   4.777
 4238SOL     OW14313   3.590   2.797   5.578
 4238SOL    HW114314   3.544   2.790   5.489
 4238SOL    HW214315   3.528   2.841   5.644
 4239SOL     OW14316   2.169   1.925   4.342
 4239SOL    HW114317   2.158   2.019   4.375
 4239SOL    HW214318   2.164   1.862   4.419
 4240SOL     OW14319   3.484   2.229   4.098
 4240SOL    HW114320   3.486   2.153   4.162
 4240SOL    HW214321   3.436   2.306   4.138
 4241SOL     OW14322   2.885   2.628   4.690
 4241SOL    HW114323   2.900   2.649   4.786
 4241SOL    HW214324   2.855   2.533   4.681
 4242SOL     OW14325   2.842   3.435   5.424
 4242SOL    HW114326   2.822   3.479   5.336
 4242SOL    HW214327   2.881   3.344   5.408
 4243SOL     OW14328   3.721   3.380   5.329
 4243SOL    HW114329   3.735   3.407   5.234
 4243SOL    HW214330   3.804   3.402   5.382
 4244SOL     OW14331   2.212   2.760   5.528
 4244SOL    HW114332   2.288   2.804   5.576
 4244SOL    HW214333   2.247   2.713   5.446
 4245SOL     OW14334   3.402   2.136   3.849
 4245SOL    HW114335   3.341   2.061   3.872
 4245SOL    HW214336   3.424   2.188   3.932
 4246SOL     OW14337   2.181   2.672   4.673
 4246SOL    HW114338   2.274   2.708   4.678
 4246SOL    HW214339   2.175   2.587   4.725
 4247SOL     OW14340   2.201   2.371   4.730
 4247SOL    HW114341   2.149   2.288   4.713
 4247SOL    HW214342   2.278   2.376   4.666
 4248SOL     OW14343   3.000   2.242   5.402
 4248SOL    HW114344   2.955   2.305   5.466
 4248SOL    HW214345   3.093   2.273   5.385
 4249SOL     OW14346   3.022   2.069   5.201
 4249SOL    HW114347   3.022   2.133   5.278
 4249SOL    HW214348   3.050   2.117   5.118
 4250SOL     OW14349   1.870   3.188   3.924
 4250SOL    HW114350   1.777   3.209   3.893
 4250SOL    HW214351   1.880   3.089   3.937
 4251SOL     OW14352   2.864   2.658   4.962
 4251SOL    HW114353   2.905   2.626   5.048
 4251SOL    HW214354   2.768   2.631   4.959
 4252SOL     OW14355   1.902   2.406   4.838
 4252SOL    HW114356   1.987   2.373   4.797
 4252SOL    HW214357   1.915   2.421   4.936
 4253SOL     OW14358   2.051   2.382   5.446
 4253SOL    HW114359   2.110   2.342   5.376
 4253SOL    HW214360   1.993   2.453   5.405
 4254SOL     OW14361   3.231   2.812   5.384
 4254SOL    HW114362   3.270   2.901   5.404
 4254SOL    HW214363   3.241   2.792   5.287
 4255SOL     OW14364   3.519   2.466   4.930
 4255SOL    HW114365   3.481   2.397   4.992
 4255SOL    HW214366   3.601   2.430   4.886
 4256SOL     OW14367   2.114   3.426   5.468
 4256SOL    HW114368   2.084   3.483   5.544
 4256SOL    HW214369   2.107   3.329   5.494
 4257SOL     OW14370   2.533   2.326   4.993
 4257SOL    HW114371   2.499   2.237   4.963
 4257SOL    HW214372   2.559   2.380   4.913
 4258SOL     OW14373   2.792   3.540   5.189
 4258SOL    HW114374   2.768   3.522   5.094
 4258SOL    HW214375   2.822   3.634   5.199
 4259SOL     OW14376   2.021   2.999   5.190
 4259SOL    HW114377   2.043   2.938   5.266
 4259SOL    HW214378   2.031   2.950   5.104
 4260SOL     OW14379   3.209   2.921   4.958
 4260SOL    HW114380   3.233   2.858   4.884
 4260SOL    HW214381   3.119   2.961   4.940
 4261SOL     OW14382   3.621   3.609   4.878
 4261SOL    HW114383   3.682   3.639   4.805
 4261SOL    HW214384   3.583   3.520   4.856
 4262SOL     OW14385   3.114   3.593   4.852
 4262SOL    HW114386   3.198   3.598   4.798
 4262SOL    HW214387   3.091   3.497   4.870
 4263SOL     OW14388   1.945   3.120   4.746
 4263SOL    HW114389   1.940   3.119   4.846
 4263SOL    HW214390   1.862   3.079   4.708
 4264SOL     OW14391   2.550   3.524   5.440
 4264SOL    HW114392   2.494   3.605   5.449
 4264SOL    HW214393   2.602   3.528   5.354
 4265SOL     OW14394   3.588   1.997   4.247
 4265SOL    HW114395   3.661   1.980   4.180
 4265SOL    HW214396   3.557   1.910   4.285
 4266SOL     OW14397   3.250   3.435   4.201
 4266SOL    HW114398   3.317   3.447   4.127
 4266SOL    HW214399   3.210   3.524   4.224
 4267SOL     OW14400   1.992   3.656   5.575
 4267SOL    HW114401   1.951   3.582   5.628
 4267SOL    HW214402   2.056   3.707   5.633
 4268SOL     OW14403   2.692   3.135   5.146
 4268SOL    HW114404   2.687   3.168   5.241
 4268SOL    HW214405   2.606   3.154   5.100
 4269SOL     OW14406   2.534   3.478   3.878
 4269SOL    HW114407   2.543   3.488   3.779
 4269SOL    HW214408   2.494   3.389   3.899
 4270SOL     OW14409   3.512   3.582   5.118
 4270SOL    HW114410   3.565   3.592   5.034
 4270SOL    HW214411   3.485   3.672   5.152
 4271SOL     OW14412   3.703   2.037   4.687
 4271SOL    HW114413   3.742   1.952   4.651
 4271SOL    HW214414   3.605   2.039   4.668
 4272SOL     OW14415   2.125   2.188   4.444
 4272SOL    HW114416   2.046   2.239   4.410
 4272SOL    HW214417   2.116   2.173   4.542
 4273SOL     OW14418   3.056   3.474   3.755
 4273SOL    HW114419   3.062   3.381   3.792
 4273SOL    HW214420   2.997   3.474   3.675
 4274SOL     OW14421   2.684   2.864   5.096
 4274SOL    HW114422   2.724   2.863   5.004
 4274SOL    HW214423   2.694   2.956   5.136
 4275SOL     OW14424   3.366   3.469   3.768
 4275SOL    HW114425   3.274   3.506   3.775
 4275SOL    HW214426   3.404   3.489   3.678
 4276SOL     OW14427   2.234   3.150   5.214
 4276SOL    HW114428   2.221   3.243   5.180
 4276SOL    HW214429   2.150   3.098   5.201
 4277SOL     OW14430   3.476   3.154   5.013
 4277SOL    HW114431   3.536   3.157   5.093
 4277SOL    HW214432   3.401   3.218   5.026
 4278SOL     OW14433   2.876   2.098   4.695
 4278SOL    HW114434   2.868   2.062   4.602
 4278SOL    HW214435   2.874   2.022   4.760
 4279SOL     OW14436   2.452   3.349   4.215
 4279SOL    HW114437   2.494   3.291   4.145
 4279SOL    HW214438   2.408   3.428   4.171
 4280SOL     OW14439   3.571   2.247   5.105
 4280SOL    HW114440   3.644   2.316   5.109
 4280SOL    HW214441   3.599   2.172   5.046
 4281SOL     OW14442   2.117   3.210   4.014
 4281SOL    HW114443   2.021   3.211   3.987
 4281SOL    HW214444   2.129   3.263   4.098
 4282SOL     OW14445   1.967   2.875   5.450
 4282SOL    HW114446   1.890   2.842   5.504
 4282SOL    HW214447   2.052   2.845   5.492
 4283SOL     OW14448   2.534   2.065   5.213
 4283SOL    HW114449   2.624   2.049   5.173
 4283SOL    HW214450   2.542   2.070   5.312
 4284SOL     OW14451   1.937   2.207   3.757
 4284SOL    HW114452   1.845   2.179   3.728
 4284SOL    HW214453   1.968   2.284   3.701
 4285SOL     OW14454   3.302   2.718   5.122
 4285SOL    HW114455   3.245   2.770   5.059
 4285SOL    HW214456   3.398   2.730   5.098
 4286SOL     OW14457   1.934   2.028   4.042
 4286SOL    HW114458   1.917   2.111   3.988
 4286SOL    HW214459   2.024   1.991   4.020
 4287SOL     OW14460   3.045   3.197   3.843
 4287SOL    HW114461   2.946   3.186   3.845
 4287SOL    HW214462   3.079   3.212   3.936
 4288SOL     OW14463   2.475   2.704   5.155
 4288SOL    HW114464   2.531   2.785   5.138
 4288SOL    HW214465   2.534   2.624   5.158
 4289SOL     OW14466   2.578   2.427   5.432
 4289SOL    HW114467   2.597   2.492   5.506
 4289SOL    HW214468   2.638   2.347   5.441
 4290SOL     OW14469   3.312   3.082   5.357
 4290SOL    HW114470   3.303   3.072   5.456
 4290SOL    HW214471   3.408   3.075   5.331
 4291SOL     OW14472   2.252   3.603   5.284
 4291SOL    HW114473   2.161   3.644   5.282
 4291SOL    HW214474   2.245   3.509   5.316
 4292SOL     OW14475   3.536   2.745   4.978
 4292SOL    HW114476   3.509   2.656   4.941
 4292SOL    HW214477   3.537   2.813   4.905
 4293SOL     OW14478   3.087   2.187   4.173
 4293SOL    HW114479   3.152   2.113   4.162
 4293SOL    HW214480   3.107   2.237   4.257
 4294SOL     OW14481   3.639   2.204   5.366
 4294SOL    HW114482   3.622   2.235   5.272
 4294SOL    HW214483   3.555   2.167   5.404
 4295SOL     OW14484   3.592   2.796   5.241
 4295SOL    HW114485   3.630   2.887   5.256
 4295SOL    HW214486   3.584   2.779   5.142
 4296SOL     OW14487   2.721   3.236   3.740
 4296SOL    HW114488   2.675   3.251   3.828
 4296SOL    HW214489   2.765   3.321   3.710
 4297SOL     OW14490   2.721   2.818   4.585
 4297SOL    HW114491   2.775   2.749   4.633
 4297SOL    HW214492   2.689   2.887   4.651
 4298SOL     OW14493   2.945   2.846   3.811
 4298SOL    HW114494   2.922   2.899   3.729
 4298SOL    HW214495   3.026   2.790   3.792
 4299SOL     OW14496   2.083   3.176   5.568
 4299SOL    HW114497   2.018   3.103   5.547
 4299SOL    HW214498   2.087   3.190   5.666
 4300SOL     OW14499   2.534   3.253   5.348
 4300SOL    HW114500   2.456   3.203   5.386
 4300SOL    HW214501   2.531   3.348   5.379
 4301SOL     OW14502   3.686   2.054   4.951
 4301SOL    HW114503   3.682   1.964   4.995
 4301SOL    HW214504   3.689   2.043   4.852
 4302SOL     OW14505   2.290   2.286   4.244
 4302SOL    HW114506   2.320   2.214   4.182
 4302SOL    HW214507   2.251   2.246   4.327
 4303SOL     OW14508   3.567   3.349   4.828
 4303SOL    HW114509   3.474   3.324   4.801
 4303SOL    HW214510   3.593   3.299   4.910
 4304SOL     OW14511   2.179   2.409   5.004
 4304SOL    HW114512   2.217   2.350   5.076
 4304SOL    HW214513   2.219   2.383   4.916
 4305SOL     OW14514   3.286   2.076   4.836
 4305SOL    HW114515   3.338   2.011   4.891
 4305SOL    HW214516   3.237   2.139   4.897
 4306SOL     OW14517   2.863   1.896   4.878
 4306SOL    HW114518   2.800   1.824   4.847
 4306SOL    HW214519   2.956   1.860   4.878
 4307SOL     OW14520   2.632   3.192   4.025
 4307SOL    HW114521   2.586   3.105   4.042
 4307SOL    HW214522   2.723   3.189   4.066
 4308SOL     OW14523   2.480   3.429   5.008
 4308SOL    HW114524   2.475   3.511   5.065
 4308SOL    HW214525   2.569   3.426   4.963
 4309SOL     OW14526   3.214   1.914   3.892
 4309SOL    HW114527   3.249   1.873   3.808
 4309SOL    HW214528   3.124   1.876   3.912
 4310SOL     OW14529   3.162   2.315   4.415
 4310SOL    HW114530   3.103   2.395   4.419
 4310SOL    HW214531   3.177   2.280   4.508
 4311SOL     OW14532   3.455   2.083   4.606
 4311SOL    HW114533   3.371   2.082   4.660
 4311SOL    HW214534   3.457   2.166   4.550
 4312SOL     OW14535   1.901   2.939   4.024
 4312SOL    HW114536   2.000   2.928   4.015
 4312SOL    HW214537   1.861   2.853   4.056
 4313SOL     OW14538   2.737   3.508   4.061
 4313SOL    HW114539   2.660   3.473   4.007
 4313SOL    HW214540   2.705   3.579   4.123
 4314SOL     OW14541   2.092   2.490   5.699
 4314SOL    HW114542   1.999   2.488   5.736
 4314SOL    HW214543   2.093   2.451   5.607
 4315SOL     OW14544   2.087   2.137   6.582
 4315SOL    HW114545   2.122   2.120   6.674
 4315SOL    HW214546   1.999   2.092   6.570
 4316SOL     OW14547   1.881   2.230   6.233
 4316SOL    HW114548   1.799   2.273   6.272
 4316SOL    HW214549   1.853   2.157   6.170
 4317SOL     OW14550   2.431   3.137   6.751
 4317SOL    HW114551   2.338   3.130   6.714
 4317SOL    HW214552   2.442   3.226   6.795
 4318SOL     OW14553   3.417   3.373   6.289
 4318SOL    HW114554   3.360   3.357   6.370
 4318SOL    HW214555   3.358   3.383   6.209
 4319SOL     OW14556   2.997   2.565   6.303
 4319SOL    HW114557   3.054   2.643   6.278
 4319SOL    HW214558   2.937   2.591   6.379
 4320SOL     OW14559   3.617   2.469   5.817
 4320SOL    HW114560   3.605   2.456   5.718
 4320SOL    HW214561   3.587   2.388   5.866
 4321SOL     OW14562   2.630   3.006   6.609
 4321SOL    HW114563   2.552   3.023   6.669
 4321SOL    HW214564   2.664   3.093   6.573
 4322SOL     OW14565   2.547   2.874   6.251
 4322SOL    HW114566   2.616   2.858   6.321
 4322SOL    HW214567   2.474   2.931   6.289
 4323SOL     OW14568   2.197   3.297   6.647
 4323SOL    HW114569   2.119   3.266   6.594
 4323SOL    HW214570   2.255   3.355   6.590
 4324SOL     OW14571   3.465   2.309   6.323
 4324SOL    HW114572   3.391   2.355   6.273
 4324SOL    HW214573   3.516   2.377   6.376
 4325SOL     OW14574   2.093   3.575   6.069
 4325SOL    HW114575   2.127   3.652   6.123
 4325SOL    HW214576   2.137   3.575   5.979
 4326SOL     OW14577   2.092   3.296   6.124
 4326SOL    HW114578   2.066   3.392   6.124
 4326SOL    HW214579   2.021   3.242   6.169
 4327SOL     OW14580   2.102   2.953   6.472
 4327SOL    HW114581   2.116   2.869   6.524
 4327SOL    HW214582   2.047   3.017   6.527
 4328SOL     OW14583   2.482   3.648   7.025
 4328SOL    HW114584   2.390   3.631   7.060
 4328SOL    HW214585   2.510   3.740   7.051
 4329SOL     OW14586   2.468   2.826   5.709
 4329SOL    HW114587   2.475   2.910   5.655
 4329SOL    HW214588   2.514   2.839   5.797
 4330SOL     OW14589   1.984   2.505   6.149
 4330SOL    HW114590   1.939   2.417   6.166
 4330SOL    HW214591   1.983   2.559   6.233
 4331SOL     OW14592   3.704   3.629   5.945
 4331SOL    HW114593   3.758   3.600   6.025
 4331SOL    HW214594   3.734   3.719   5.916
 4332SOL     OW14595   1.889   3.458   5.703
 4332SOL    HW114596   1.870   3.362   5.724
 4332SOL    HW214597   1.856   3.516   5.778
 4333SOL     OW14598   3.551   2.784   6.198
 4333SOL    HW114599   3.646   2.755   6.206
 4333SOL    HW214600   3.543   2.849   6.123
 4334SOL     OW14601   3.503   2.970   6.018
 4334SOL    HW114602   3.589   2.972   5.966
 4334SOL    HW214603   3.517   3.017   6.106
 4335SOL     OW14604   2.475   3.227   6.312
 4335SOL    HW114605   2.426   3.140   6.321
 4335SOL    HW214606   2.452   3.270   6.225
 4336SOL     OW14607   2.671   1.866   6.088
 4336SOL    HW114608   2.711   1.957   6.079
 4336SOL    HW214609   2.571   1.874   6.094
 4337SOL     OW14610   2.059   2.838   6.850
 4337SOL    HW114611   2.148   2.793   6.836
 4337SOL    HW214612   1.986   2.773   6.831
 4338SOL     OW14613   3.387   2.861   5.776
 4338SOL    HW114614   3.324   2.785   5.789
 4338SOL    HW214615   3.435   2.879   5.862
 4339SOL     OW14616   3.328   3.279   6.539
 4339SOL    HW114617   3.269   3.285   6.619
 4339SOL    HW214618   3.313   3.191   6.493
 4340SOL     OW14619   3.529   3.576   6.158
 4340SOL    HW114620   3.488   3.553   6.070
 4340SOL    HW214621   3.511   3.502   6.223
 4341SOL     OW14622   2.460   2.591   5.856
 4341SOL    HW114623   2.484   2.660   5.788
 4341SOL    HW214624   2.382   2.624   5.910
 4342SOL     OW14625   3.143   2.207   6.530
 4342SOL    HW114626   3.057   2.157   6.517
 4342SOL    HW214627   3.205   2.153   6.586
 4343SOL     OW14628   3.438   3.524   5.893
 4343SOL    HW114629   3.527   3.570   5.896
 4343SOL    HW214630   3.417   3.500   5.798
 4344SOL     OW14631   2.669   2.467   7.051
 4344SOL    HW114632   2.622   2.464   7.140
 4344SOL    HW214633   2.618   2.412   6.985
 4345SOL     OW14634   2.853   2.272   6.828
 4345SOL    HW114635   2.776   2.306   6.882
 4345SOL    HW214636   2.819   2.221   6.749
 4346SOL     OW14637   2.903   2.563   6.015
 4346SOL    HW114638   2.929   2.559   6.111
 4346SOL    HW214639   2.818   2.512   6.001
 4347SOL     OW14640   1.938   2.673   6.375
 4347SOL    HW114641   2.037   2.661   6.384
 4347SOL    HW214642   1.914   2.768   6.396
 4348SOL     OW14643   1.992   3.683   7.157
 4348SOL    HW114644   1.982   3.668   7.256
 4348SOL    HW214645   1.906   3.719   7.121
 4349SOL     OW14646   2.727   2.210   5.781
 4349SOL    HW114647   2.786   2.273   5.732
 4349SOL    HW214648   2.746   2.116   5.752
 4350SOL     OW14649   3.224   3.006   6.131
 4350SOL    HW114650   3.307   2.977   6.083
 4350SOL    HW214651   3.175   3.073   6.075
 4351SOL     OW14652   2.412   2.058   6.471
 4351SOL    HW114653   2.407   2.053   6.571
 4351SOL    HW214654   2.414   2.154   6.442
 4352SOL     OW14655   2.870   3.318   6.063
 4352SOL    HW114656   2.824   3.390   6.011
 4352SOL    HW214657   2.866   3.338   6.161
 4353SOL     OW14658   2.213   3.663   6.439
 4353SOL    HW114659   2.263   3.577   6.445
 4353SOL    HW214660   2.278   3.740   6.436
 4354SOL     OW14661   3.657   2.928   6.459
 4354SOL    HW114662   3.595   2.913   6.383
 4354SOL    HW214663   3.605   2.939   6.544
 4355SOL     OW14664   2.183   2.805   5.828
 4355SOL    HW114665   2.265   2.844   5.786
 4355SOL    HW214666   2.156   2.723   5.779
 4356SOL     OW14667   3.320   2.597   6.314
 4356SOL    HW114668   3.315   2.532   6.389
 4356SOL    HW214669   3.400   2.656   6.327
 4357SOL     OW14670   2.973   3.638   5.823
 4357SOL    HW114671   2.913   3.576   5.873
 4357SOL    HW214672   3.004   3.594   5.738
 4358SOL     OW14673   3.494   3.239   5.667
 4358SOL    HW114674   3.462   3.333   5.657
 4358SOL    HW214675   3.418   3.176   5.655
 4359SOL     OW14676   2.326   3.605   5.909
 4359SOL    HW114677   2.359   3.644   5.995
 4359SOL    HW214678   2.402   3.598   5.844
 4360SOL     OW14679   3.262   1.969   6.012
 4360SOL    HW114680   3.238   1.932   5.922
 4360SOL    HW214681   3.361   1.985   6.016
 4361SOL     OW14682   2.111   3.647   6.827
 4361SOL    HW114683   2.168   3.582   6.877
 4361SOL    HW214684   2.095   3.614   6.734
 4362SOL     OW14685   2.802   3.560   6.490
 4362SOL    HW114686   2.882   3.503   6.511
 4362SOL    HW214687   2.753   3.520   6.413
 4363SOL     OW14688   2.244   2.562   6.066
 4363SOL    HW114689   2.289   2.472   6.063
 4363SOL    HW214690   2.150   2.551   6.099
 4364SOL     OW14691   2.476   1.984   5.703
 4364SOL    HW114692   2.574   1.962   5.710
 4364SOL    HW214693   2.445   1.967   5.610
 4365SOL     OW14694   2.750   3.376   6.781
 4365SOL    HW114695   2.727   3.351   6.687
 4365SOL    HW214696   2.811   3.307   6.820
 4366SOL     OW14697   2.665   3.264   6.510
 4366SOL    HW114698   2.755   3.278   6.468
 4366SOL    HW214699   2.594   3.266   6.439
 4367SOL     OW14700   2.784   2.365   6.485
 4367SOL    HW114701   2.759   2.356   6.389
 4367SOL    HW214702   2.832   2.283   6.516
 4368SOL     OW14703   2.401   1.926   6.098
 4368SOL    HW114704   2.320   1.927   6.156
 4368SOL    HW214705   2.404   2.009   6.043
 4369SOL     OW14706   3.296   3.050   5.627
 4369SOL    HW114707   3.328   2.974   5.684
 4369SOL    HW214708   3.204   3.077   5.657
 4370SOL     OW14709   2.159   1.897   5.757
 4370SOL    HW114710   2.208   1.981   5.736
 4370SOL    HW214711   2.221   1.832   5.802
 4371SOL     OW14712   2.797   2.098   6.066
 4371SOL    HW114713   2.749   2.139   5.988
 4371SOL    HW214714   2.896   2.096   6.047
 4372SOL     OW14715   3.089   3.432   6.379
 4372SOL    HW114716   3.110   3.506   6.314
 4372SOL    HW214717   3.157   3.432   6.452
 4373SOL     OW14718   2.321   3.014   6.327
 4373SOL    HW114719   2.250   2.987   6.392
 4373SOL    HW214720   2.295   2.986   6.234
 4374SOL     OW14721   3.133   3.659   6.177
 4374SOL    HW114722   3.177   3.723   6.113
 4374SOL    HW214723   3.083   3.711   6.247
 4375SOL     OW14724   2.894   2.411   5.602
 4375SOL    HW114725   2.853   2.493   5.563
 4375SOL    HW214726   2.958   2.437   5.675
 4376SOL     OW14727   2.423   2.084   6.733
 4376SOL    HW114728   2.461   2.000   6.770
 4376SOL    HW214729   2.335   2.103   6.777
 4377SOL     OW14730   2.728   2.316   6.228
 4377SOL    HW114731   2.696   2.388   6.166
 4377SOL    HW214732   2.752   2.235   6.175
 4378SOL     OW14733   2.879   1.901   6.339
 4378SOL    HW114734   2.807   1.906   6.270
 4378SOL    HW214735   2.855   1.832   6.408
 4379SOL     OW14736   3.291   3.035   6.453
 4379SOL    HW114737   3.236   2.951   6.446
 4379SOL    HW214738   3.317   3.064   6.361
 4380SOL     OW14739   3.328   2.452   6.578
 4380SOL    HW114740   3.298   2.357   6.585
 4380SOL    HW214741   3.401   2.468   6.644
 4381SOL     OW14742   3.719   2.695   5.963
 4381SOL    HW114743   3.761   2.631   6.027
 4381SOL    HW214744   3.681   2.644   5.885
 4382SOL     OW14745   2.350   3.247   5.760
 4382SOL    HW114746   2.263   3.232   5.807
 4382SOL    HW214747   2.333   3.273   5.665
 4383SOL     OW14748   3.526   3.142   6.243
 4383SOL    HW114749   3.625   3.150   6.257
 4383SOL    HW214750   3.481   3.226   6.274
 4384SOL     OW14751   3.252   2.437   5.664
 4384SOL    HW114752   3.198   2.416   5.745
 4384SOL    HW214753   3.343   2.396   5.673
 4385SOL     OW14754   2.389   2.118   5.914
 4385SOL    HW114755   2.416   2.059   5.839
 4385SOL    HW214756   2.389   2.213   5.883
 4386SOL     OW14757   3.616   3.085   7.174
 4386SOL    HW114758   3.707   3.046   7.161
 4386SOL    HW214759   3.624   3.181   7.198
 4387SOL     OW14760   2.973   3.057   6.686
 4387SOL    HW114761   2.933   3.101   6.767
 4387SOL    HW214762   2.932   3.094   6.603
 4388SOL     OW14763   3.500   2.961   6.665
 4388SOL    HW114764   3.505   3.042   6.724
 4388SOL    HW214765   3.414   2.963   6.614
 4389SOL     OW14766   2.567   2.912   5.954
 4389SOL    HW114767   2.553   2.919   6.053
 4389SOL    HW214768   2.651   2.861   5.936
 4390SOL     OW14769   2.272   2.675   6.837
 4390SOL    HW114770   2.358   2.687   6.887
 4390SOL    HW214771   2.230   2.588   6.864
 4391SOL     OW14772   3.136   2.248   6.848
 4391SOL    HW114773   3.157   2.322   6.912
 4391SOL    HW214774   3.047   2.265   6.805
 4392SOL     OW14775   1.926   3.426   6.917
 4392SOL    HW114776   1.880   3.508   6.883
 4392SOL    HW214777   2.024   3.445   6.926
 4393SOL     OW14778   2.229   2.962   6.087
 4393SOL    HW114779   2.222   3.045   6.031
 4393SOL    HW214780   2.233   2.882   6.027
 4394SOL     OW14781   2.428   2.399   6.451
 4394SOL    HW114782   2.440   2.465   6.377
 4394SOL    HW214783   2.474   2.433   6.534
 4395SOL     OW14784   3.114   3.210   5.974
 4395SOL    HW114785   3.164   3.287   6.014
 4395SOL    HW214786   3.019   3.212   6.006
 4396SOL     OW14787   3.134   3.307   6.728
 4396SOL    HW114788   3.181   3.320   6.815
 4396SOL    HW214789   3.068   3.233   6.737
 4397SOL     OW14790   3.444   2.501   6.058
 4397SOL    HW114791   3.413   2.562   6.131
 4397SOL    HW214792   3.494   2.553   5.989
 4398SOL     OW14793   2.216   3.372   6.915
 4398SOL    HW114794   2.195   3.328   6.828
 4398SOL    HW214795   2.313   3.398   6.918
 4399SOL     OW14796   2.435   2.732   6.615
 4399SOL    HW114797   2.479   2.821   6.606
 4399SOL    HW214798   2.372   2.732   6.692
 4400SOL     OW14799   3.222   2.724   6.631
 4400SOL    HW114800   3.147   2.724   6.565
 4400SOL    HW214801   3.259   2.632   6.640
 4401SOL     OW14802   3.071   2.387   5.861
 4401SOL    HW114803   3.084   2.303   5.915
 4401SOL    HW214804   3.042   2.461   5.921
 4402SOL     OW14805   2.169   2.075   6.817
 4402SOL    HW114806   2.146   2.112   6.907
 4402SOL    HW214807   2.139   1.980   6.811
 4403SOL     OW14808   1.899   3.172   6.868
 4403SOL    HW114809   1.952   3.123   6.936
 4403SOL    HW214810   1.921   3.270   6.873
 4404SOL     OW14811   2.594   2.496   6.650
 4404SOL    HW114812   2.653   2.470   6.574
 4404SOL    HW214813   2.566   2.592   6.639
 4405SOL     OW14814   2.169   1.925   6.204
 4405SOL    HW114815   2.158   2.019   6.237
 4405SOL    HW214816   2.164   1.862   6.281
 4406SOL     OW14817   3.484   2.229   5.960
 4406SOL    HW114818   3.486   2.153   6.024
 4406SOL    HW214819   3.436   2.306   6.000
 4407SOL     OW14820   2.885   2.628   6.552
 4407SOL    HW114821   2.900   2.649   6.648
 4407SOL    HW214822   2.855   2.533   6.543
 4408SOL     OW14823   3.402   2.136   5.711
 4408SOL    HW114824   3.341   2.061   5.734
 4408SOL    HW214825   3.424   2.188   5.794
 4409SOL     OW14826   3.165   2.700   5.628
 4409SOL    HW114827   3.199   2.607   5.643
 4409SOL    HW214828   3.183   2.727   5.533
 4410SOL     OW14829   2.930   3.195   6.435
 4410SOL    HW114830   2.937   3.111   6.380
 4410SOL    HW214831   2.992   3.264   6.399
 4411SOL     OW14832   2.181   2.672   6.535
 4411SOL    HW114833   2.274   2.708   6.540
 4411SOL    HW214834   2.175   2.587   6.587
 4412SOL     OW14835   2.201   2.371   6.592
 4412SOL    HW114836   2.149   2.288   6.575
 4412SOL    HW214837   2.278   2.376   6.528
 4413SOL     OW14838   3.022   2.069   7.063
 4413SOL    HW114839   3.022   2.133   7.140
 4413SOL    HW214840   3.050   2.117   6.980
 4414SOL     OW14841   1.870   3.188   5.786
 4414SOL    HW114842   1.777   3.209   5.755
 4414SOL    HW214843   1.880   3.089   5.799
 4415SOL     OW14844   1.950   3.663   6.513
 4415SOL    HW114845   1.908   3.577   6.486
 4415SOL    HW214846   2.044   3.666   6.479
 4416SOL     OW14847   2.366   3.430   6.496
 4416SOL    HW114848   2.432   3.504   6.505
 4416SOL    HW214849   2.410   3.351   6.454
 4417SOL     OW14850   2.864   2.658   6.824
 4417SOL    HW114851   2.905   2.626   6.910
 4417SOL    HW214852   2.768   2.631   6.821
 4418SOL     OW14853   1.902   2.406   6.700
 4418SOL    HW114854   1.987   2.373   6.659
 4418SOL    HW214855   1.915   2.421   6.798
 4419SOL     OW14856   2.677   2.434   5.911
 4419SOL    HW114857   2.684   2.345   5.865
 4419SOL    HW214858   2.583   2.468   5.903
 4420SOL     OW14859   3.519   2.466   6.792
 4420SOL    HW114860   3.481   2.397   6.854
 4420SOL    HW214861   3.601   2.430   6.748
 4421SOL     OW14862   2.533   2.326   6.855
 4421SOL    HW114863   2.499   2.237   6.825
 4421SOL    HW214864   2.559   2.380   6.775
 4422SOL     OW14865   2.792   3.540   7.051
 4422SOL    HW114866   2.768   3.522   6.956
 4422SOL    HW214867   2.822   3.634   7.061
 4423SOL     OW14868   2.335   2.362   5.777
 4423SOL    HW114869   2.396   2.442   5.781
 4423SOL    HW214870   2.240   2.393   5.784
 4424SOL     OW14871   2.021   2.999   7.052
 4424SOL    HW114872   2.043   2.938   7.128
 4424SOL    HW214873   2.031   2.950   6.966
 4425SOL     OW14874   3.209   2.921   6.820
 4425SOL    HW114875   3.233   2.858   6.746
 4425SOL    HW214876   3.119   2.961   6.802
 4426SOL     OW14877   3.164   2.717   5.895
 4426SOL    HW114878   3.078   2.686   5.937
 4426SOL    HW214879   3.160   2.703   5.796
 4427SOL     OW14880   3.621   3.609   6.740
 4427SOL    HW114881   3.682   3.639   6.667
 4427SOL    HW214882   3.583   3.520   6.718
 4428SOL     OW14883   3.114   3.593   6.714
 4428SOL    HW114884   3.198   3.598   6.660
 4428SOL    HW214885   3.091   3.497   6.732
 4429SOL     OW14886   1.945   3.120   6.608
 4429SOL    HW114887   1.940   3.119   6.708
 4429SOL    HW214888   1.862   3.079   6.570
 4430SOL     OW14889   3.588   1.997   6.109
 4430SOL    HW114890   3.661   1.980   6.042
 4430SOL    HW214891   3.557   1.910   6.147
 4431SOL     OW14892   3.250   3.435   6.063
 4431SOL    HW114893   3.317   3.447   5.989
 4431SOL    HW214894   3.210   3.524   6.086
 4432SOL     OW14895   3.142   2.789   6.258
 4432SOL    HW114896   3.202   2.708   6.260
 4432SOL    HW214897   3.182   2.858   6.198
 4433SOL     OW14898   2.534   3.478   5.740
 4433SOL    HW114899   2.543   3.488   5.641
 4433SOL    HW214900   2.494   3.389   5.761
 4434SOL     OW14901   3.703   2.037   6.549
 4434SOL    HW114902   3.742   1.952   6.513
 4434SOL    HW214903   3.605   2.039   6.530
 4435SOL     OW14904   2.125   2.188   6.306
 4435SOL    HW114905   2.046   2.239   6.272
 4435SOL    HW214906   2.116   2.173   6.404
 4436SOL     OW14907   3.056   3.474   5.617
 4436SOL    HW114908   3.062   3.381   5.654
 4436SOL    HW214909   2.997   3.474   5.537
 4437SOL     OW14910   2.684   2.864   6.958
 4437SOL    HW114911   2.724   2.863   6.866
 4437SOL    HW214912   2.694   2.956   6.998
 4438SOL     OW14913   2.778   2.772   5.877
 4438SOL    HW114914   2.841   2.810   5.809
 4438SOL    HW214915   2.818   2.689   5.916
 4439SOL     OW14916   3.366   3.469   5.630
 4439SOL    HW114917   3.274   3.506   5.637
 4439SOL    HW214918   3.404   3.489   5.540
 4440SOL     OW14919   3.476   3.154   6.875
 4440SOL    HW114920   3.536   3.157   6.955
 4440SOL    HW214921   3.401   3.218   6.888
 4441SOL     OW14922   2.901   2.960   6.282
 4441SOL    HW114923   2.831   2.913   6.336
 4441SOL    HW214924   2.960   2.892   6.239
 4442SOL     OW14925   2.876   2.098   6.557
 4442SOL    HW114926   2.868   2.062   6.464
 4442SOL    HW214927   2.874   2.022   6.622
 4443SOL     OW14928   2.452   3.349   6.077
 4443SOL    HW114929   2.494   3.291   6.007
 4443SOL    HW214930   2.408   3.428   6.033
 4444SOL     OW14931   3.571   2.247   6.967
 4444SOL    HW114932   3.644   2.316   6.971
 4444SOL    HW214933   3.599   2.172   6.908
 4445SOL     OW14934   2.117   3.210   5.876
 4445SOL    HW114935   2.021   3.211   5.849
 4445SOL    HW214936   2.129   3.263   5.960
 4446SOL     OW14937   2.534   2.065   7.075
 4446SOL    HW114938   2.624   2.049   7.035
 4446SOL    HW214939   2.542   2.070   7.174
 4447SOL     OW14940   1.937   2.207   5.619
 4447SOL    HW114941   1.845   2.179   5.590
 4447SOL    HW214942   1.968   2.284   5.563
 4448SOL     OW14943   1.934   2.028   5.904
 4448SOL    HW114944   1.917   2.111   5.850
 4448SOL    HW214945   2.024   1.991   5.882
 4449SOL     OW14946   3.045   3.197   5.705
 4449SOL    HW114947   2.946   3.186   5.707
 4449SOL    HW214948   3.079   3.212   5.798
 4450SOL     OW14949   3.355   3.629   6.545
 4450SOL    HW114950   3.388   3.693   6.476
 4450SOL    HW214951   3.421   3.623   6.620
 4451SOL     OW14952   3.312   3.082   7.219
 4451SOL    HW114953   3.303   3.072   7.318
 4451SOL    HW214954   3.408   3.075   7.193
 4452SOL     OW14955   2.252   3.603   7.146
 4452SOL    HW114956   2.161   3.644   7.144
 4452SOL    HW214957   2.245   3.509   7.178
 4453SOL     OW14958   3.536   2.745   6.840
 4453SOL    HW114959   3.509   2.656   6.803
 4453SOL    HW214960   3.537   2.813   6.767
 4454SOL     OW14961   3.087   2.187   6.035
 4454SOL    HW114962   3.152   2.113   6.024
 4454SOL    HW214963   3.107   2.237   6.119
 4455SOL     OW14964   2.456   2.607   6.238
 4455SOL    HW114965   2.506   2.692   6.219
 4455SOL    HW214966   2.368   2.609   6.190
 4456SOL     OW14967   3.592   2.796   7.103
 4456SOL    HW114968   3.630   2.887   7.118
 4456SOL    HW214969   3.584   2.779   7.004
 4457SOL     OW14970   2.721   3.236   5.602
 4457SOL    HW114971   2.675   3.251   5.690
 4457SOL    HW214972   2.765   3.321   5.572
 4458SOL     OW14973   2.523   3.652   6.539
 4458SOL    HW114974   2.477   3.740   6.526
 4458SOL    HW214975   2.622   3.664   6.532
 4459SOL     OW14976   2.721   2.818   6.447
 4459SOL    HW114977   2.775   2.749   6.495
 4459SOL    HW214978   2.689   2.887   6.513
 4460SOL     OW14979   2.945   2.846   5.673
 4460SOL    HW114980   2.922   2.899   5.591
 4460SOL    HW214981   3.026   2.790   5.654
 4461SOL     OW14982   3.723   3.431   6.437
 4461SOL    HW114983   3.652   3.419   6.367
 4461SOL    HW214984   3.724   3.352   6.497
 4462SOL     OW14985   1.941   3.102   6.239
 4462SOL    HW114986   1.940   3.055   6.327
 4462SOL    HW214987   2.023   3.074   6.188
 4463SOL     OW14988   3.686   2.054   6.813
 4463SOL    HW114989   3.682   1.964   6.857
 4463SOL    HW214990   3.689   2.043   6.714
 4464SOL     OW14991   2.290   2.286   6.106
 4464SOL    HW114992   2.320   2.214   6.044
 4464SOL    HW214993   2.251   2.246   6.189
 4465SOL     OW14994   3.567   3.349   6.690
 4465SOL    HW114995   3.474   3.324   6.663
 4465SOL    HW214996   3.593   3.299   6.772
 4466SOL     OW14997   2.179   2.409   6.866
 4466SOL    HW114998   2.217   2.350   6.938
 4466SOL    HW214999   2.219   2.383   6.778
 4467SOL     OW15000   2.674   3.448   6.273
 4467SOL    HW115001   2.706   3.458   6.179
 4467SOL    HW215002   2.595   3.386   6.275
 4468SOL     OW15003   3.286   2.076   6.698
 4468SOL    HW115004   3.338   2.011   6.753
 4468SOL    HW215005   3.237   2.139   6.759
 4469SOL     OW15006   2.863   1.896   6.740
 4469SOL    HW115007   2.800   1.824   6.709
 4469SOL    HW215008   2.956   1.860   6.740
 4470SOL     OW15009   2.632   3.192   5.887
 4470SOL    HW115010   2.586   3.105   5.904
 4470SOL    HW215011   2.723   3.189   5.928
 4471SOL     OW15012   2.480   3.429   6.870
 4471SOL    HW115013   2.475   3.511   6.927
 4471SOL    HW215014   2.569   3.426   6.825
 4472SOL     OW15015   3.214   1.914   5.754
 4472SOL    HW115016   3.249   1.873   5.670
 4472SOL    HW215017   3.124   1.876   5.774
 4473SOL     OW15018   3.162   2.315   6.277
 4473SOL    HW115019   3.103   2.395   6.281
 4473SOL    HW215020   3.177   2.280   6.370
 4474SOL     OW15021   3.455   2.083   6.468
 4474SOL    HW115022   3.371   2.082   6.522
 4474SOL    HW215023   3.457   2.166   6.412
 4475SOL     OW15024   1.901   2.939   5.886
 4475SOL    HW115025   2.000   2.928   5.877
 4475SOL    HW215026   1.861   2.853   5.918
 4476SOL     OW15027   2.737   3.508   5.923
 4476SOL    HW115028   2.660   3.473   5.869
 4476SOL    HW215029   2.705   3.579   5.985
 4477SOL     OW15030   2.092   4.352   0.113
 4477SOL    HW115031   1.999   4.350   0.150
 4477SOL    HW215032   2.093   4.313   0.021
 4478SOL     OW15033   2.087   3.999   0.996
 4478SOL    HW115034   2.122   3.982   1.088
 4478SOL    HW215035   1.999   3.954   0.984
 4479SOL     OW15036   1.881   4.092   0.647
 4479SOL    HW115037   1.799   4.135   0.686
 4479SOL    HW215038   1.853   4.019   0.584
 4480SOL     OW15039   2.431   4.999   1.165
 4480SOL    HW115040   2.338   4.992   1.128
 4480SOL    HW215041   2.442   5.088   1.209
 4481SOL     OW15042   3.417   5.235   0.703
 4481SOL    HW115043   3.360   5.219   0.784
 4481SOL    HW215044   3.358   5.245   0.623
 4482SOL     OW15045   2.997   4.427   0.717
 4482SOL    HW115046   3.054   4.505   0.692
 4482SOL    HW215047   2.937   4.453   0.793
 4483SOL     OW15048   3.617   4.331   0.231
 4483SOL    HW115049   3.605   4.318   0.132
 4483SOL    HW215050   3.587   4.250   0.280
 4484SOL     OW15051   2.630   4.868   1.023
 4484SOL    HW115052   2.552   4.885   1.083
 4484SOL    HW215053   2.664   4.955   0.987
 4485SOL     OW15054   2.712   4.522   1.823
 4485SOL    HW115055   2.708   4.598   1.888
 4485SOL    HW215056   2.734   4.558   1.732
 4486SOL     OW15057   2.547   4.736   0.665
 4486SOL    HW115058   2.616   4.720   0.735
 4486SOL    HW215059   2.474   4.793   0.703
 4487SOL     OW15060   2.548   4.885   1.803
 4487SOL    HW115061   2.608   4.964   1.817
 4487SOL    HW215062   2.462   4.916   1.762
 4488SOL     OW15063   2.197   5.159   1.061
 4488SOL    HW115064   2.119   5.128   1.008
 4488SOL    HW215065   2.255   5.217   1.004
 4489SOL     OW15066   2.300   4.116   1.499
 4489SOL    HW115067   2.382   4.060   1.508
 4489SOL    HW215068   2.219   4.058   1.503
 4490SOL     OW15069   3.465   4.171   0.737
 4490SOL    HW115070   3.391   4.217   0.687
 4490SOL    HW215071   3.516   4.239   0.790
 4491SOL     OW15072   2.093   5.437   0.483
 4491SOL    HW115073   2.127   5.514   0.537
 4491SOL    HW215074   2.137   5.437   0.393
 4492SOL     OW15075   2.989   5.065   1.690
 4492SOL    HW115076   3.036   5.065   1.778
 4492SOL    HW215077   2.941   4.978   1.679
 4493SOL     OW15078   2.092   5.158   0.538
 4493SOL    HW115079   2.066   5.254   0.538
 4493SOL    HW215080   2.021   5.104   0.583
 4494SOL     OW15081   2.102   4.815   0.886
 4494SOL    HW115082   2.116   4.731   0.938
 4494SOL    HW215083   2.047   4.879   0.941
 4495SOL     OW15084   2.482   5.510   1.439
 4495SOL    HW115085   2.390   5.493   1.474
 4495SOL    HW215086   2.510   5.602   1.465
 4496SOL     OW15087   2.468   4.688   0.123
 4496SOL    HW115088   2.475   4.772   0.069
 4496SOL    HW215089   2.514   4.701   0.211
 4497SOL     OW15090   3.456   3.838   1.480
 4497SOL    HW115091   3.438   3.905   1.408
 4497SOL    HW215092   3.453   3.884   1.569
 4498SOL     OW15093   1.984   4.367   0.563
 4498SOL    HW115094   1.939   4.279   0.580
 4498SOL    HW215095   1.983   4.421   0.647
 4499SOL     OW15096   3.704   5.491   0.359
 4499SOL    HW115097   3.758   5.462   0.439
 4499SOL    HW215098   3.734   5.581   0.330
 4500SOL     OW15099   3.551   4.646   0.612
 4500SOL    HW115100   3.646   4.617   0.620
 4500SOL    HW215101   3.543   4.711   0.537
 4501SOL     OW15102   3.503   4.832   0.432
 4501SOL    HW115103   3.589   4.834   0.380
 4501SOL    HW215104   3.517   4.879   0.520
 4502SOL     OW15105   1.975   4.461   1.597
 4502SOL    HW115106   2.063   4.448   1.642
 4502SOL    HW215107   1.962   4.558   1.575
 4503SOL     OW15108   2.475   5.089   0.726
 4503SOL    HW115109   2.426   5.002   0.735
 4503SOL    HW215110   2.452   5.132   0.639
 4504SOL     OW15111   2.671   3.728   0.502
 4504SOL    HW115112   2.711   3.819   0.493
 4504SOL    HW215113   2.571   3.736   0.508
 4505SOL     OW15114   2.059   4.700   1.264
 4505SOL    HW115115   2.148   4.655   1.250
 4505SOL    HW215116   1.986   4.635   1.245
 4506SOL     OW15117   3.387   4.723   0.190
 4506SOL    HW115118   3.324   4.647   0.203
 4506SOL    HW215119   3.435   4.741   0.276
 4507SOL     OW15120   3.049   5.516   1.616
 4507SOL    HW115121   3.073   5.576   1.540
 4507SOL    HW215122   3.056   5.421   1.586
 4508SOL     OW15123   2.179   3.975   1.801
 4508SOL    HW115124   2.250   4.046   1.807
 4508SOL    HW215125   2.091   4.014   1.829
 4509SOL     OW15126   3.328   5.141   0.953
 4509SOL    HW115127   3.269   5.147   1.033
 4509SOL    HW215128   3.313   5.053   0.907
 4510SOL     OW15129   3.529   5.438   0.572
 4510SOL    HW115130   3.488   5.415   0.484
 4510SOL    HW215131   3.511   5.364   0.637
 4511SOL     OW15132   2.460   4.453   0.270
 4511SOL    HW115133   2.484   4.522   0.202
 4511SOL    HW215134   2.382   4.486   0.324
 4512SOL     OW15135   3.143   4.069   0.944
 4512SOL    HW115136   3.057   4.019   0.931
 4512SOL    HW215137   3.205   4.015   1.000
 4513SOL     OW15138   3.438   5.386   0.307
 4513SOL    HW115139   3.527   5.432   0.310
 4513SOL    HW215140   3.417   5.362   0.212
 4514SOL     OW15141   2.669   4.329   1.465
 4514SOL    HW115142   2.622   4.326   1.554
 4514SOL    HW215143   2.618   4.274   1.399
 4515SOL     OW15144   3.256   4.193   1.674
 4515SOL    HW115145   3.236   4.236   1.762
 4515SOL    HW215146   3.334   4.131   1.683
 4516SOL     OW15147   2.835   4.614   1.572
 4516SOL    HW115148   2.881   4.530   1.543
 4516SOL    HW215149   2.779   4.648   1.497
 4517SOL     OW15150   2.853   4.134   1.242
 4517SOL    HW115151   2.776   4.168   1.296
 4517SOL    HW215152   2.819   4.083   1.163
 4518SOL     OW15153   2.903   4.425   0.429
 4518SOL    HW115154   2.929   4.421   0.525
 4518SOL    HW215155   2.818   4.374   0.415
 4519SOL     OW15156   1.938   4.535   0.789
 4519SOL    HW115157   2.037   4.523   0.798
 4519SOL    HW215158   1.914   4.630   0.810
 4520SOL     OW15159   1.992   5.545   1.571
 4520SOL    HW115160   1.982   5.530   1.670
 4520SOL    HW215161   1.906   5.581   1.535
 4521SOL     OW15162   2.727   4.072   0.195
 4521SOL    HW115163   2.786   4.135   0.146
 4521SOL    HW215164   2.746   3.978   0.166
 4522SOL     OW15165   3.581   4.309   1.831
 4522SOL    HW115166   3.555   4.398   1.795
 4522SOL    HW215167   3.579   4.241   1.758
 4523SOL     OW15168   3.224   4.868   0.545
 4523SOL    HW115169   3.307   4.839   0.497
 4523SOL    HW215170   3.175   4.935   0.489
 4524SOL     OW15171   2.412   3.920   0.885
 4524SOL    HW115172   2.407   3.915   0.985
 4524SOL    HW215173   2.414   4.016   0.856
 4525SOL     OW15174   2.870   5.180   0.477
 4525SOL    HW115175   2.824   5.252   0.425
 4525SOL    HW215176   2.866   5.200   0.575
 4526SOL     OW15177   2.213   5.525   0.853
 4526SOL    HW115178   2.263   5.439   0.859
 4526SOL    HW215179   2.278   5.602   0.850
 4527SOL     OW15180   3.657   4.790   0.873
 4527SOL    HW115181   3.595   4.775   0.797
 4527SOL    HW215182   3.605   4.801   0.958
 4528SOL     OW15183   2.183   4.667   0.242
 4528SOL    HW115184   2.265   4.706   0.200
 4528SOL    HW215185   2.156   4.585   0.193
 4529SOL     OW15186   3.320   4.459   0.728
 4529SOL    HW115187   3.315   4.394   0.803
 4529SOL    HW215188   3.400   4.518   0.741
 4530SOL     OW15189   2.323   4.990   1.727
 4530SOL    HW115190   2.273   4.991   1.641
 4530SOL    HW215191   2.260   4.972   1.803
 4531SOL     OW15192   2.973   5.500   0.237
 4531SOL    HW115193   2.913   5.438   0.287
 4531SOL    HW215194   3.004   5.456   0.152
 4532SOL     OW15195   2.064   4.009   1.498
 4532SOL    HW115196   1.984   4.069   1.485
 4532SOL    HW215197   2.054   3.960   1.584
 4533SOL     OW15198   3.494   5.101   0.081
 4533SOL    HW115199   3.462   5.195   0.071
 4533SOL    HW215200   3.418   5.038   0.069
 4534SOL     OW15201   2.326   5.467   0.323
 4534SOL    HW115202   2.359   5.506   0.409
 4534SOL    HW215203   2.402   5.460   0.258
 4535SOL     OW15204   2.111   5.509   1.241
 4535SOL    HW115205   2.168   5.444   1.291
 4535SOL    HW215206   2.095   5.476   1.148
 4536SOL     OW15207   2.802   5.422   0.904
 4536SOL    HW115208   2.882   5.365   0.925
 4536SOL    HW215209   2.753   5.382   0.827
 4537SOL     OW15210   2.244   4.424   0.480
 4537SOL    HW115211   2.289   4.334   0.477
 4537SOL    HW215212   2.150   4.413   0.513
 4538SOL     OW15213   3.409   3.946   1.729
 4538SOL    HW115214   3.404   3.983   1.821
 4538SOL    HW215215   3.337   3.877   1.717
 4539SOL     OW15216   2.643   3.988   1.749
 4539SOL    HW115217   2.710   3.927   1.792
 4539SOL    HW215218   2.570   4.007   1.814
 4540SOL     OW15219   2.750   5.238   1.195
 4540SOL    HW115220   2.727   5.213   1.101
 4540SOL    HW215221   2.811   5.169   1.234
 4541SOL     OW15222   3.213   4.314   1.433
 4541SOL    HW115223   3.241   4.271   1.518
 4541SOL    HW215224   3.238   4.410   1.434
 4542SOL     OW15225   2.665   5.126   0.924
 4542SOL    HW115226   2.755   5.140   0.882
 4542SOL    HW215227   2.594   5.128   0.853
 4543SOL     OW15228   2.784   4.227   0.899
 4543SOL    HW115229   2.759   4.218   0.803
 4543SOL    HW215230   2.832   4.145   0.930
 4544SOL     OW15231   2.401   3.788   0.512
 4544SOL    HW115232   2.320   3.789   0.570
 4544SOL    HW215233   2.404   3.871   0.457
 4545SOL     OW15234   3.296   4.912   0.041
 4545SOL    HW115235   3.328   4.836   0.098
 4545SOL    HW215236   3.204   4.939   0.071
 4546SOL     OW15237   2.797   3.960   0.480
 4546SOL    HW115238   2.749   4.001   0.402
 4546SOL    HW215239   2.896   3.958   0.461
 4547SOL     OW15240   2.938   4.407   1.464
 4547SOL    HW115241   2.858   4.346   1.467
 4547SOL    HW215242   3.019   4.354   1.440
 4548SOL     OW15243   3.089   5.294   0.793
 4548SOL    HW115244   3.110   5.368   0.728
 4548SOL    HW215245   3.157   5.294   0.866
 4549SOL     OW15246   2.321   4.876   0.741
 4549SOL    HW115247   2.250   4.849   0.806
 4549SOL    HW215248   2.295   4.848   0.648
 4550SOL     OW15249   3.133   5.521   0.591
 4550SOL    HW115250   3.177   5.585   0.527
 4550SOL    HW215251   3.083   5.573   0.661
 4551SOL     OW15252   2.894   4.273   0.016
 4551SOL    HW115253   2.853   4.355  -0.023
 4551SOL    HW215254   2.958   4.299   0.089
 4552SOL     OW15255   1.940   4.280   1.386
 4552SOL    HW115256   2.032   4.279   1.345
 4552SOL    HW215257   1.934   4.354   1.453
 4553SOL     OW15258   2.423   3.946   1.147
 4553SOL    HW115259   2.461   3.862   1.184
 4553SOL    HW215260   2.335   3.965   1.191
 4554SOL     OW15261   2.728   4.178   0.642
 4554SOL    HW115262   2.696   4.250   0.580
 4554SOL    HW215263   2.752   4.097   0.589
 4555SOL     OW15264   2.879   3.763   0.753
 4555SOL    HW115265   2.807   3.768   0.684
 4555SOL    HW215266   2.855   3.694   0.822
 4556SOL     OW15267   3.291   4.897   0.867
 4556SOL    HW115268   3.236   4.813   0.860
 4556SOL    HW215269   3.317   4.926   0.775
 4557SOL     OW15270   3.328   4.314   0.992
 4557SOL    HW115271   3.298   4.219   0.999
 4557SOL    HW215272   3.401   4.330   1.058
 4558SOL     OW15273   3.719   4.557   0.377
 4558SOL    HW115274   3.761   4.493   0.441
 4558SOL    HW215275   3.681   4.506   0.299
 4559SOL     OW15276   2.350   5.109   0.174
 4559SOL    HW115277   2.263   5.094   0.221
 4559SOL    HW215278   2.333   5.135   0.079
 4560SOL     OW15279   3.526   5.004   0.657
 4560SOL    HW115280   3.625   5.012   0.671
 4560SOL    HW215281   3.481   5.088   0.688
 4561SOL     OW15282   3.252   4.299   0.078
 4561SOL    HW115283   3.198   4.278   0.159
 4561SOL    HW215284   3.343   4.258   0.087
 4562SOL     OW15285   2.389   3.980   0.328
 4562SOL    HW115286   2.416   3.921   0.253
 4562SOL    HW215287   2.389   4.075   0.297
 4563SOL     OW15288   3.616   4.947   1.588
 4563SOL    HW115289   3.707   4.908   1.575
 4563SOL    HW215290   3.624   5.043   1.612
 4564SOL     OW15291   2.926   5.071   1.340
 4564SOL    HW115292   2.846   5.048   1.395
 4564SOL    HW215293   3.009   5.045   1.389
 4565SOL     OW15294   2.973   4.919   1.100
 4565SOL    HW115295   2.933   4.963   1.181
 4565SOL    HW215296   2.932   4.956   1.017
 4566SOL     OW15297   3.500   4.823   1.079
 4566SOL    HW115298   3.505   4.904   1.138
 4566SOL    HW215299   3.414   4.825   1.028
 4567SOL     OW15300   2.777   3.813   1.402
 4567SOL    HW115301   2.802   3.793   1.307
 4567SOL    HW215302   2.849   3.869   1.444
 4568SOL     OW15303   2.842   4.840   1.719
 4568SOL    HW115304   2.743   4.846   1.729
 4568SOL    HW215305   2.865   4.760   1.663
 4569SOL     OW15306   2.567   4.774   0.368
 4569SOL    HW115307   2.553   4.781   0.467
 4569SOL    HW215308   2.651   4.723   0.350
 4570SOL     OW15309   2.272   4.537   1.251
 4570SOL    HW115310   2.358   4.549   1.301
 4570SOL    HW215311   2.230   4.450   1.278
 4571SOL     OW15312   3.136   4.110   1.262
 4571SOL    HW115313   3.157   4.184   1.326
 4571SOL    HW215314   3.047   4.127   1.219
 4572SOL     OW15315   1.926   5.288   1.331
 4572SOL    HW115316   1.880   5.370   1.297
 4572SOL    HW215317   2.024   5.307   1.340
 4573SOL     OW15318   2.229   4.824   0.501
 4573SOL    HW115319   2.222   4.907   0.445
 4573SOL    HW215320   2.233   4.744   0.441
 4574SOL     OW15321   2.428   4.261   0.865
 4574SOL    HW115322   2.440   4.327   0.791
 4574SOL    HW215323   2.474   4.295   0.948
 4575SOL     OW15324   3.114   5.072   0.388
 4575SOL    HW115325   3.164   5.149   0.428
 4575SOL    HW215326   3.019   5.074   0.420
 4576SOL     OW15327   3.134   5.169   1.142
 4576SOL    HW115328   3.181   5.182   1.229
 4576SOL    HW215329   3.068   5.095   1.151
 4577SOL     OW15330   3.444   4.363   0.472
 4577SOL    HW115331   3.413   4.424   0.545
 4577SOL    HW215332   3.494   4.415   0.403
 4578SOL     OW15333   2.216   5.234   1.329
 4578SOL    HW115334   2.195   5.190   1.242
 4578SOL    HW215335   2.313   5.260   1.332
 4579SOL     OW15336   2.264   4.475   1.598
 4579SOL    HW115337   2.332   4.530   1.551
 4579SOL    HW215338   2.304   4.387   1.625
 4580SOL     OW15339   2.875   3.829   1.770
 4580SOL    HW115340   2.881   3.914   1.718
 4580SOL    HW215341   2.907   3.753   1.713
 4581SOL     OW15342   2.366   3.774   1.740
 4581SOL    HW115343   2.324   3.717   1.670
 4581SOL    HW215344   2.300   3.843   1.772
 4582SOL     OW15345   2.435   4.594   1.029
 4582SOL    HW115346   2.479   4.683   1.020
 4582SOL    HW215347   2.372   4.594   1.106
 4583SOL     OW15348   3.222   4.586   1.045
 4583SOL    HW115349   3.147   4.586   0.979
 4583SOL    HW215350   3.259   4.494   1.054
 4584SOL     OW15351   3.071   4.249   0.275
 4584SOL    HW115352   3.084   4.165   0.329
 4584SOL    HW215353   3.042   4.323   0.335
 4585SOL     OW15354   2.169   3.937   1.231
 4585SOL    HW115355   2.146   3.974   1.321
 4585SOL    HW215356   2.139   3.842   1.225
 4586SOL     OW15357   1.899   5.034   1.282
 4586SOL    HW115358   1.952   4.985   1.350
 4586SOL    HW215359   1.921   5.132   1.287
 4587SOL     OW15360   2.594   4.358   1.064
 4587SOL    HW115361   2.653   4.332   0.988
 4587SOL    HW215362   2.566   4.454   1.053
 4588SOL     OW15363   3.590   4.659   1.854
 4588SOL    HW115364   3.544   4.652   1.765
 4588SOL    HW215365   3.528   4.703   1.920
 4589SOL     OW15366   2.169   3.787   0.618
 4589SOL    HW115367   2.158   3.881   0.651
 4589SOL    HW215368   2.164   3.724   0.695
 4590SOL     OW15369   3.484   4.091   0.374
 4590SOL    HW115370   3.486   4.015   0.438
 4590SOL    HW215371   3.436   4.168   0.414
 4591SOL     OW15372   2.885   4.490   0.966
 4591SOL    HW115373   2.900   4.511   1.062
 4591SOL    HW215374   2.855   4.395   0.957
 4592SOL     OW15375   2.842   5.297   1.700
 4592SOL    HW115376   2.822   5.341   1.612
 4592SOL    HW215377   2.881   5.206   1.684
 4593SOL     OW15378   3.721   5.242   1.605
 4593SOL    HW115379   3.735   5.269   1.510
 4593SOL    HW215380   3.804   5.264   1.658
 4594SOL     OW15381   2.212   4.622   1.804
 4594SOL    HW115382   2.288   4.666   1.852
 4594SOL    HW215383   2.247   4.575   1.722
 4595SOL     OW15384   3.402   3.998   0.125
 4595SOL    HW115385   3.341   3.923   0.148
 4595SOL    HW215386   3.424   4.050   0.208
 4596SOL     OW15387   3.165   4.562   0.042
 4596SOL    HW115388   3.199   4.469   0.057
 4596SOL    HW215389   3.183   4.589  -0.053
 4597SOL     OW15390   2.930   5.057   0.849
 4597SOL    HW115391   2.937   4.973   0.794
 4597SOL    HW215392   2.992   5.126   0.813
 4598SOL     OW15393   2.181   4.534   0.949
 4598SOL    HW115394   2.274   4.570   0.954
 4598SOL    HW215395   2.175   4.449   1.001
 4599SOL     OW15396   2.201   4.233   1.006
 4599SOL    HW115397   2.149   4.150   0.989
 4599SOL    HW215398   2.278   4.238   0.942
 4600SOL     OW15399   3.000   4.104   1.678
 4600SOL    HW115400   2.955   4.167   1.742
 4600SOL    HW215401   3.093   4.135   1.661
 4601SOL     OW15402   3.022   3.931   1.477
 4601SOL    HW115403   3.022   3.995   1.554
 4601SOL    HW215404   3.050   3.979   1.394
 4602SOL     OW15405   1.950   5.525   0.927
 4602SOL    HW115406   1.908   5.439   0.900
 4602SOL    HW215407   2.044   5.528   0.893
 4603SOL     OW15408   2.366   5.292   0.910
 4603SOL    HW115409   2.432   5.366   0.919
 4603SOL    HW215410   2.410   5.213   0.868
 4604SOL     OW15411   2.864   4.520   1.238
 4604SOL    HW115412   2.905   4.488   1.324
 4604SOL    HW215413   2.768   4.493   1.235
 4605SOL     OW15414   1.902   4.268   1.114
 4605SOL    HW115415   1.987   4.235   1.073
 4605SOL    HW215416   1.915   4.283   1.212
 4606SOL     OW15417   2.051   4.244   1.722
 4606SOL    HW115418   2.110   4.204   1.652
 4606SOL    HW215419   1.993   4.315   1.681
 4607SOL     OW15420   2.677   4.296   0.325
 4607SOL    HW115421   2.684   4.207   0.279
 4607SOL    HW215422   2.583   4.330   0.317
 4608SOL     OW15423   3.519   4.328   1.206
 4608SOL    HW115424   3.481   4.259   1.268
 4608SOL    HW215425   3.601   4.292   1.162
 4609SOL     OW15426   2.533   4.188   1.269
 4609SOL    HW115427   2.499   4.099   1.239
 4609SOL    HW215428   2.559   4.242   1.189
 4610SOL     OW15429   2.792   5.402   1.465
 4610SOL    HW115430   2.768   5.384   1.370
 4610SOL    HW215431   2.822   5.496   1.475
 4611SOL     OW15432   2.335   4.224   0.191
 4611SOL    HW115433   2.396   4.304   0.195
 4611SOL    HW215434   2.240   4.255   0.198
 4612SOL     OW15435   2.021   4.861   1.466
 4612SOL    HW115436   2.043   4.800   1.542
 4612SOL    HW215437   2.031   4.812   1.380
 4613SOL     OW15438   3.164   4.579   0.309
 4613SOL    HW115439   3.078   4.548   0.351
 4613SOL    HW215440   3.160   4.565   0.210
 4614SOL     OW15441   3.621   5.471   1.154
 4614SOL    HW115442   3.682   5.501   1.081
 4614SOL    HW215443   3.583   5.382   1.132
 4615SOL     OW15444   1.945   4.982   1.022
 4615SOL    HW115445   1.940   4.981   1.122
 4615SOL    HW215446   1.862   4.941   0.984
 4616SOL     OW15447   2.765   3.810   0.133
 4616SOL    HW115448   2.816   3.811   0.047
 4616SOL    HW215449   2.821   3.768   0.204
 4617SOL     OW15450   3.588   3.859   0.523
 4617SOL    HW115451   3.661   3.842   0.456
 4617SOL    HW215452   3.557   3.772   0.561
 4618SOL     OW15453   3.250   5.297   0.477
 4618SOL    HW115454   3.317   5.309   0.403
 4618SOL    HW215455   3.210   5.386   0.500
 4619SOL     OW15456   3.142   4.651   0.672
 4619SOL    HW115457   3.202   4.570   0.674
 4619SOL    HW215458   3.182   4.720   0.612
 4620SOL     OW15459   2.692   4.997   1.422
 4620SOL    HW115460   2.687   5.030   1.517
 4620SOL    HW215461   2.606   5.016   1.376
 4621SOL     OW15462   2.534   5.340   0.154
 4621SOL    HW115463   2.543   5.350   0.055
 4621SOL    HW215464   2.494   5.251   0.175
 4622SOL     OW15465   3.703   3.899   0.963
 4622SOL    HW115466   3.742   3.814   0.927
 4622SOL    HW215467   3.605   3.901   0.944
 4623SOL     OW15468   2.125   4.050   0.720
 4623SOL    HW115469   2.046   4.101   0.686
 4623SOL    HW215470   2.116   4.035   0.818
 4624SOL     OW15471   3.056   5.336   0.031
 4624SOL    HW115472   3.062   5.243   0.068
 4624SOL    HW215473   2.997   5.336  -0.049
 4625SOL     OW15474   2.684   4.726   1.372
 4625SOL    HW115475   2.724   4.725   1.280
 4625SOL    HW215476   2.694   4.818   1.412
 4626SOL     OW15477   2.778   4.634   0.291
 4626SOL    HW115478   2.841   4.672   0.223
 4626SOL    HW215479   2.818   4.551   0.330
 4627SOL     OW15480   3.366   5.331   0.044
 4627SOL    HW115481   3.274   5.368   0.051
 4627SOL    HW215482   3.404   5.351  -0.046
 4628SOL     OW15483   2.234   5.012   1.490
 4628SOL    HW115484   2.221   5.105   1.456
 4628SOL    HW215485   2.150   4.960   1.477
 4629SOL     OW15486   2.901   4.822   0.696
 4629SOL    HW115487   2.831   4.775   0.750
 4629SOL    HW215488   2.960   4.754   0.653
 4630SOL     OW15489   2.876   3.960   0.971
 4630SOL    HW115490   2.868   3.924   0.878
 4630SOL    HW215491   2.874   3.884   1.036
 4631SOL     OW15492   2.452   5.211   0.491
 4631SOL    HW115493   2.494   5.153   0.421
 4631SOL    HW215494   2.408   5.290   0.447
 4632SOL     OW15495   3.571   4.109   1.381
 4632SOL    HW115496   3.644   4.178   1.385
 4632SOL    HW215497   3.599   4.034   1.322
 4633SOL     OW15498   2.117   5.072   0.290
 4633SOL    HW115499   2.021   5.073   0.263
 4633SOL    HW215500   2.129   5.125   0.374
 4634SOL     OW15501   1.967   4.737   1.726
 4634SOL    HW115502   1.890   4.704   1.780
 4634SOL    HW215503   2.052   4.707   1.768
 4635SOL     OW15504   2.534   3.927   1.489
 4635SOL    HW115505   2.624   3.911   1.449
 4635SOL    HW215506   2.542   3.932   1.588
 4636SOL     OW15507   1.937   4.069   0.033
 4636SOL    HW115508   1.845   4.041   0.004
 4636SOL    HW215509   1.968   4.146  -0.023
 4637SOL     OW15510   1.934   3.890   0.318
 4637SOL    HW115511   1.917   3.973   0.264
 4637SOL    HW215512   2.024   3.853   0.296
 4638SOL     OW15513   3.045   5.059   0.119
 4638SOL    HW115514   2.946   5.048   0.121
 4638SOL    HW215515   3.079   5.074   0.212
 4639SOL     OW15516   2.475   4.566   1.431
 4639SOL    HW115517   2.531   4.647   1.414
 4639SOL    HW215518   2.534   4.486   1.434
 4640SOL     OW15519   3.355   5.491   0.959
 4640SOL    HW115520   3.388   5.555   0.890
 4640SOL    HW215521   3.421   5.485   1.034
 4641SOL     OW15522   2.578   4.289   1.708
 4641SOL    HW115523   2.597   4.354   1.782
 4641SOL    HW215524   2.638   4.209   1.717
 4642SOL     OW15525   3.087   4.049   0.449
 4642SOL    HW115526   3.152   3.975   0.438
 4642SOL    HW215527   3.107   4.099   0.533
 4643SOL     OW15528   2.456   4.469   0.652
 4643SOL    HW115529   2.506   4.554   0.633
 4643SOL    HW215530   2.368   4.471   0.604
 4644SOL     OW15531   3.639   4.066   1.642
 4644SOL    HW115532   3.622   4.097   1.548
 4644SOL    HW215533   3.555   4.029   1.680
 4645SOL     OW15534   2.721   5.098   0.016
 4645SOL    HW115535   2.675   5.113   0.104
 4645SOL    HW215536   2.765   5.183  -0.014
 4646SOL     OW15537   2.523   5.514   0.953
 4646SOL    HW115538   2.477   5.602   0.940
 4646SOL    HW215539   2.622   5.526   0.946
 4647SOL     OW15540   2.721   4.680   0.861
 4647SOL    HW115541   2.775   4.611   0.909
 4647SOL    HW215542   2.689   4.749   0.927
 4648SOL     OW15543   2.945   4.708   0.087
 4648SOL    HW115544   2.922   4.761   0.005
 4648SOL    HW215545   3.026   4.652   0.068
 4649SOL     OW15546   3.723   5.293   0.851
 4649SOL    HW115547   3.652   5.281   0.781
 4649SOL    HW215548   3.724   5.214   0.911
 4650SOL     OW15549   2.083   5.038   1.844
 4650SOL    HW115550   2.018   4.965   1.823
 4650SOL    HW215551   2.087   5.052   1.942
 4651SOL     OW15552   1.941   4.964   0.653
 4651SOL    HW115553   1.940   4.917   0.741
 4651SOL    HW215554   2.023   4.936   0.602
 4652SOL     OW15555   2.534   5.115   1.624
 4652SOL    HW115556   2.456   5.065   1.662
 4652SOL    HW215557   2.531   5.210   1.655
 4653SOL     OW15558   3.686   3.916   1.227
 4653SOL    HW115559   3.682   3.826   1.271
 4653SOL    HW215560   3.689   3.905   1.128
 4654SOL     OW15561   2.290   4.148   0.520
 4654SOL    HW115562   2.320   4.076   0.458
 4654SOL    HW215563   2.251   4.108   0.603
 4655SOL     OW15564   3.567   5.211   1.104
 4655SOL    HW115565   3.474   5.186   1.077
 4655SOL    HW215566   3.593   5.161   1.186
 4656SOL     OW15567   2.179   4.271   1.280
 4656SOL    HW115568   2.217   4.212   1.352
 4656SOL    HW215569   2.219   4.245   1.192
 4657SOL     OW15570   2.674   5.310   0.687
 4657SOL    HW115571   2.706   5.320   0.593
 4657SOL    HW215572   2.595   5.248   0.689
 4658SOL     OW15573   3.286   3.938   1.112
 4658SOL    HW115574   3.338   3.873   1.167
 4658SOL    HW215575   3.237   4.001   1.173
 4659SOL     OW15576   2.863   3.758   1.154
 4659SOL    HW115577   2.800   3.686   1.123
 4659SOL    HW215578   2.956   3.722   1.154
 4660SOL     OW15579   2.632   5.054   0.301
 4660SOL    HW115580   2.586   4.967   0.318
 4660SOL    HW215581   2.723   5.051   0.342
 4661SOL     OW15582   2.480   5.291   1.284
 4661SOL    HW115583   2.475   5.373   1.341
 4661SOL    HW215584   2.569   5.288   1.239
 4662SOL     OW15585   3.214   3.776   0.168
 4662SOL    HW115586   3.249   3.735   0.084
 4662SOL    HW215587   3.124   3.738   0.188
 4663SOL     OW15588   3.162   4.177   0.691
 4663SOL    HW115589   3.103   4.257   0.695
 4663SOL    HW215590   3.177   4.142   0.784
 4664SOL     OW15591   3.455   3.945   0.882
 4664SOL    HW115592   3.371   3.944   0.936
 4664SOL    HW215593   3.457   4.028   0.826
 4665SOL     OW15594   1.901   4.801   0.300
 4665SOL    HW115595   2.000   4.790   0.291
 4665SOL    HW215596   1.861   4.715   0.332
 4666SOL     OW15597   2.737   5.370   0.337
 4666SOL    HW115598   2.660   5.335   0.283
 4666SOL    HW215599   2.705   5.441   0.399
 4667SOL     OW15600   2.092   4.352   1.975
 4667SOL    HW115601   1.999   4.350   2.012
 4667SOL    HW215602   2.093   4.313   1.883
 4668SOL     OW15603   2.087   3.999   2.858
 4668SOL    HW115604   2.122   3.982   2.950
 4668SOL    HW215605   1.999   3.954   2.846
 4669SOL     OW15606   2.431   4.999   3.027
 4669SOL    HW115607   2.338   4.992   2.990
 4669SOL    HW215608   2.442   5.088   3.071
 4670SOL     OW15609   3.417   5.235   2.565
 4670SOL    HW115610   3.360   5.219   2.646
 4670SOL    HW215611   3.358   5.245   2.485
 4671SOL     OW15612   2.997   4.427   2.579
 4671SOL    HW115613   3.054   4.505   2.554
 4671SOL    HW215614   2.937   4.453   2.655
 4672SOL     OW15615   3.617   4.331   2.093
 4672SOL    HW115616   3.605   4.318   1.994
 4672SOL    HW215617   3.587   4.250   2.142
 4673SOL     OW15618   2.630   4.868   2.885
 4673SOL    HW115619   2.552   4.885   2.945
 4673SOL    HW215620   2.664   4.955   2.849
 4674SOL     OW15621   2.547   4.736   2.527
 4674SOL    HW115622   2.616   4.720   2.597
 4674SOL    HW215623   2.474   4.793   2.565
 4675SOL     OW15624   2.548   4.885   3.665
 4675SOL    HW115625   2.608   4.964   3.679
 4675SOL    HW215626   2.462   4.916   3.624
 4676SOL     OW15627   2.197   5.159   2.923
 4676SOL    HW115628   2.119   5.128   2.870
 4676SOL    HW215629   2.255   5.217   2.866
 4677SOL     OW15630   3.322   5.229   3.201
 4677SOL    HW115631   3.346   5.323   3.227
 4677SOL    HW215632   3.306   5.175   3.283
 4678SOL     OW15633   2.300   4.116   3.361
 4678SOL    HW115634   2.382   4.060   3.370
 4678SOL    HW215635   2.219   4.058   3.365
 4679SOL     OW15636   2.989   5.065   3.552
 4679SOL    HW115637   3.036   5.065   3.640
 4679SOL    HW215638   2.941   4.978   3.541
 4680SOL     OW15639   2.092   5.158   2.400
 4680SOL    HW115640   2.066   5.254   2.400
 4680SOL    HW215641   2.021   5.104   2.445
 4681SOL     OW15642   2.102   4.815   2.748
 4681SOL    HW115643   2.116   4.731   2.800
 4681SOL    HW215644   2.047   4.879   2.803
 4682SOL     OW15645   2.482   5.510   3.301
 4682SOL    HW115646   2.390   5.493   3.336
 4682SOL    HW215647   2.510   5.602   3.327
 4683SOL     OW15648   2.468   4.688   1.985
 4683SOL    HW115649   2.475   4.772   1.931
 4683SOL    HW215650   2.514   4.701   2.073
 4684SOL     OW15651   3.456   3.838   3.342
 4684SOL    HW115652   3.438   3.905   3.270
 4684SOL    HW215653   3.453   3.884   3.431
 4685SOL     OW15654   1.984   4.367   2.425
 4685SOL    HW115655   1.939   4.279   2.442
 4685SOL    HW215656   1.983   4.421   2.509
 4686SOL     OW15657   3.704   5.491   2.221
 4686SOL    HW115658   3.758   5.462   2.301
 4686SOL    HW215659   3.734   5.581   2.192
 4687SOL     OW15660   1.889   5.320   1.979
 4687SOL    HW115661   1.870   5.224   2.000
 4687SOL    HW215662   1.856   5.378   2.054
 4688SOL     OW15663   3.551   4.646   2.474
 4688SOL    HW115664   3.646   4.617   2.482
 4688SOL    HW215665   3.543   4.711   2.399
 4689SOL     OW15666   3.503   4.832   2.294
 4689SOL    HW115667   3.589   4.834   2.242
 4689SOL    HW215668   3.517   4.879   2.382
 4690SOL     OW15669   2.475   5.089   2.588
 4690SOL    HW115670   2.426   5.002   2.597
 4690SOL    HW215671   2.452   5.132   2.501
 4691SOL     OW15672   3.155   4.952   3.285
 4691SOL    HW115673   3.192   4.879   3.227
 4691SOL    HW215674   3.207   4.957   3.370
 4692SOL     OW15675   2.059   4.700   3.126
 4692SOL    HW115676   2.148   4.655   3.112
 4692SOL    HW215677   1.986   4.635   3.107
 4693SOL     OW15678   3.387   4.723   2.052
 4693SOL    HW115679   3.324   4.647   2.065
 4693SOL    HW215680   3.435   4.741   2.138
 4694SOL     OW15681   3.049   5.516   3.478
 4694SOL    HW115682   3.073   5.576   3.402
 4694SOL    HW215683   3.056   5.421   3.448
 4695SOL     OW15684   2.179   3.975   3.663
 4695SOL    HW115685   2.250   4.046   3.669
 4695SOL    HW215686   2.091   4.014   3.691
 4696SOL     OW15687   3.328   5.141   2.815
 4696SOL    HW115688   3.269   5.147   2.895
 4696SOL    HW215689   3.313   5.053   2.769
 4697SOL     OW15690   3.529   5.438   2.434
 4697SOL    HW115691   3.488   5.415   2.346
 4697SOL    HW215692   3.511   5.364   2.499
 4698SOL     OW15693   2.460   4.453   2.132
 4698SOL    HW115694   2.484   4.522   2.064
 4698SOL    HW215695   2.382   4.486   2.186
 4699SOL     OW15696   3.438   5.386   2.169
 4699SOL    HW115697   3.527   5.432   2.172
 4699SOL    HW215698   3.417   5.362   2.074
 4700SOL     OW15699   2.669   4.329   3.327
 4700SOL    HW115700   2.622   4.326   3.416
 4700SOL    HW215701   2.618   4.274   3.261
 4701SOL     OW15702   3.256   4.193   3.536
 4701SOL    HW115703   3.236   4.236   3.624
 4701SOL    HW215704   3.334   4.131   3.545
 4702SOL     OW15705   2.853   4.134   3.104
 4702SOL    HW115706   2.776   4.168   3.158
 4702SOL    HW215707   2.819   4.083   3.025
 4703SOL     OW15708   2.903   4.425   2.291
 4703SOL    HW115709   2.929   4.421   2.387
 4703SOL    HW215710   2.818   4.374   2.277
 4704SOL     OW15711   1.938   4.535   2.651
 4704SOL    HW115712   2.037   4.523   2.660
 4704SOL    HW215713   1.914   4.630   2.672
 4705SOL     OW15714   1.992   5.545   3.433
 4705SOL    HW115715   1.982   5.530   3.532
 4705SOL    HW215716   1.906   5.581   3.397
 4706SOL     OW15717   2.727   4.072   2.057
 4706SOL    HW115718   2.786   4.135   2.008
 4706SOL    HW215719   2.746   3.978   2.028
 4707SOL     OW15720   3.224   4.868   2.407
 4707SOL    HW115721   3.307   4.839   2.359
 4707SOL    HW215722   3.175   4.935   2.351
 4708SOL     OW15723   2.870   5.180   2.339
 4708SOL    HW115724   2.824   5.252   2.287
 4708SOL    HW215725   2.866   5.200   2.437
 4709SOL     OW15726   2.213   5.525   2.715
 4709SOL    HW115727   2.263   5.439   2.721
 4709SOL    HW215728   2.278   5.602   2.712
 4710SOL     OW15729   3.657   4.790   2.735
 4710SOL    HW115730   3.595   4.775   2.659
 4710SOL    HW215731   3.605   4.801   2.820
 4711SOL     OW15732   3.089   5.274   3.368
 4711SOL    HW115733   3.095   5.197   3.432
 4711SOL    HW215734   3.037   5.248   3.288
 4712SOL     OW15735   2.183   4.667   2.104
 4712SOL    HW115736   2.265   4.706   2.062
 4712SOL    HW215737   2.156   4.585   2.055
 4713SOL     OW15738   3.320   4.459   2.590
 4713SOL    HW115739   3.315   4.394   2.665
 4713SOL    HW215740   3.400   4.518   2.603
 4714SOL     OW15741   2.323   4.990   3.589
 4714SOL    HW115742   2.273   4.991   3.503
 4714SOL    HW215743   2.260   4.972   3.665
 4715SOL     OW15744   2.973   5.500   2.099
 4715SOL    HW115745   2.913   5.438   2.149
 4715SOL    HW215746   3.004   5.456   2.014
 4716SOL     OW15747   2.064   4.009   3.360
 4716SOL    HW115748   1.984   4.069   3.347
 4716SOL    HW215749   2.054   3.960   3.446
 4717SOL     OW15750   2.326   5.467   2.185
 4717SOL    HW115751   2.359   5.506   2.271
 4717SOL    HW215752   2.402   5.460   2.120
 4718SOL     OW15753   3.262   3.831   2.288
 4718SOL    HW115754   3.238   3.794   2.198
 4718SOL    HW215755   3.361   3.847   2.292
 4719SOL     OW15756   2.111   5.509   3.103
 4719SOL    HW115757   2.168   5.444   3.153
 4719SOL    HW215758   2.095   5.476   3.010
 4720SOL     OW15759   2.802   5.422   2.766
 4720SOL    HW115760   2.882   5.365   2.787
 4720SOL    HW215761   2.753   5.382   2.689
 4721SOL     OW15762   2.244   4.424   2.342
 4721SOL    HW115763   2.289   4.334   2.339
 4721SOL    HW215764   2.150   4.413   2.375
 4722SOL     OW15765   3.409   3.946   3.591
 4722SOL    HW115766   3.404   3.983   3.683
 4722SOL    HW215767   3.337   3.877   3.579
 4723SOL     OW15768   2.476   3.846   1.979
 4723SOL    HW115769   2.574   3.824   1.986
 4723SOL    HW215770   2.445   3.829   1.886
 4724SOL     OW15771   2.643   3.988   3.611
 4724SOL    HW115772   2.710   3.927   3.654
 4724SOL    HW215773   2.570   4.007   3.676
 4725SOL     OW15774   2.750   5.238   3.057
 4725SOL    HW115775   2.727   5.213   2.963
 4725SOL    HW215776   2.811   5.169   3.096
 4726SOL     OW15777   2.665   5.126   2.786
 4726SOL    HW115778   2.755   5.140   2.744
 4726SOL    HW215779   2.594   5.128   2.715
 4727SOL     OW15780   3.296   4.912   1.903
 4727SOL    HW115781   3.328   4.836   1.960
 4727SOL    HW215782   3.204   4.939   1.933
 4728SOL     OW15783   2.159   3.759   2.033
 4728SOL    HW115784   2.208   3.843   2.012
 4728SOL    HW215785   2.221   3.694   2.078
 4729SOL     OW15786   2.797   3.960   2.342
 4729SOL    HW115787   2.749   4.001   2.264
 4729SOL    HW215788   2.896   3.958   2.323
 4730SOL     OW15789   3.089   5.294   2.655
 4730SOL    HW115790   3.110   5.368   2.590
 4730SOL    HW215791   3.157   5.294   2.728
 4731SOL     OW15792   2.321   4.876   2.603
 4731SOL    HW115793   2.250   4.849   2.668
 4731SOL    HW215794   2.295   4.848   2.510
 4732SOL     OW15795   2.894   4.273   1.878
 4732SOL    HW115796   2.853   4.355   1.839
 4732SOL    HW215797   2.958   4.299   1.951
 4733SOL     OW15798   1.940   4.280   3.248
 4733SOL    HW115799   2.032   4.279   3.207
 4733SOL    HW215800   1.934   4.354   3.315
 4734SOL     OW15801   2.423   3.946   3.009
 4734SOL    HW115802   2.461   3.862   3.046
 4734SOL    HW215803   2.335   3.965   3.053
 4735SOL     OW15804   3.291   4.897   2.729
 4735SOL    HW115805   3.236   4.813   2.722
 4735SOL    HW215806   3.317   4.926   2.637
 4736SOL     OW15807   3.719   4.557   2.239
 4736SOL    HW115808   3.761   4.493   2.303
 4736SOL    HW215809   3.681   4.506   2.161
 4737SOL     OW15810   2.350   5.109   2.036
 4737SOL    HW115811   2.263   5.094   2.083
 4737SOL    HW215812   2.333   5.135   1.941
 4738SOL     OW15813   3.526   5.004   2.519
 4738SOL    HW115814   3.625   5.012   2.533
 4738SOL    HW215815   3.481   5.088   2.550
 4739SOL     OW15816   3.252   4.299   1.940
 4739SOL    HW115817   3.198   4.278   2.021
 4739SOL    HW215818   3.343   4.258   1.949
 4740SOL     OW15819   2.389   3.980   2.190
 4740SOL    HW115820   2.416   3.921   2.115
 4740SOL    HW215821   2.389   4.075   2.159
 4741SOL     OW15822   3.616   4.947   3.450
 4741SOL    HW115823   3.707   4.908   3.437
 4741SOL    HW215824   3.624   5.043   3.474
 4742SOL     OW15825   2.926   5.071   3.202
 4742SOL    HW115826   2.846   5.048   3.257
 4742SOL    HW215827   3.009   5.045   3.251
 4743SOL     OW15828   3.454   5.353   3.487
 4743SOL    HW115829   3.481   5.387   3.397
 4743SOL    HW215830   3.533   5.315   3.533
 4744SOL     OW15831   2.973   4.919   2.962
 4744SOL    HW115832   2.933   4.963   3.043
 4744SOL    HW215833   2.932   4.956   2.879
 4745SOL     OW15834   3.500   4.823   2.941
 4745SOL    HW115835   3.505   4.904   3.000
 4745SOL    HW215836   3.414   4.825   2.890
 4746SOL     OW15837   2.777   3.813   3.264
 4746SOL    HW115838   2.802   3.793   3.169
 4746SOL    HW215839   2.849   3.869   3.306
 4747SOL     OW15840   2.842   4.840   3.581
 4747SOL    HW115841   2.743   4.846   3.591
 4747SOL    HW215842   2.865   4.760   3.525
 4748SOL     OW15843   2.567   4.774   2.230
 4748SOL    HW115844   2.553   4.781   2.329
 4748SOL    HW215845   2.651   4.723   2.212
 4749SOL     OW15846   3.136   4.110   3.124
 4749SOL    HW115847   3.157   4.184   3.188
 4749SOL    HW215848   3.047   4.127   3.081
 4750SOL     OW15849   1.926   5.288   3.193
 4750SOL    HW115850   1.880   5.370   3.159
 4750SOL    HW215851   2.024   5.307   3.202
 4751SOL     OW15852   2.229   4.824   2.363
 4751SOL    HW115853   2.222   4.907   2.307
 4751SOL    HW215854   2.233   4.744   2.303
 4752SOL     OW15855   3.114   5.072   2.250
 4752SOL    HW115856   3.164   5.149   2.290
 4752SOL    HW215857   3.019   5.074   2.282
 4753SOL     OW15858   3.134   5.169   3.004
 4753SOL    HW115859   3.181   5.182   3.091
 4753SOL    HW215860   3.068   5.095   3.013
 4754SOL     OW15861   3.444   4.363   2.334
 4754SOL    HW115862   3.413   4.424   2.407
 4754SOL    HW215863   3.494   4.415   2.265
 4755SOL     OW15864   2.216   5.234   3.191
 4755SOL    HW115865   2.195   5.190   3.104
 4755SOL    HW215866   2.313   5.260   3.194
 4756SOL     OW15867   2.875   3.829   3.632
 4756SOL    HW115868   2.881   3.914   3.580
 4756SOL    HW215869   2.907   3.753   3.575
 4757SOL     OW15870   2.366   3.774   3.602
 4757SOL    HW115871   2.324   3.717   3.532
 4757SOL    HW215872   2.300   3.843   3.634
 4758SOL     OW15873   2.435   4.594   2.891
 4758SOL    HW115874   2.479   4.683   2.882
 4758SOL    HW215875   2.372   4.594   2.968
 4759SOL     OW15876   3.071   4.249   2.137
 4759SOL    HW115877   3.084   4.165   2.191
 4759SOL    HW215878   3.042   4.323   2.197
 4760SOL     OW15879   2.169   3.937   3.093
 4760SOL    HW115880   2.146   3.974   3.183
 4760SOL    HW215881   2.139   3.842   3.087
 4761SOL     OW15882   1.899   5.034   3.144
 4761SOL    HW115883   1.952   4.985   3.212
 4761SOL    HW215884   1.921   5.132   3.149
 4762SOL     OW15885   3.484   4.091   2.236
 4762SOL    HW115886   3.486   4.015   2.300
 4762SOL    HW215887   3.436   4.168   2.276
 4763SOL     OW15888   2.842   5.297   3.562
 4763SOL    HW115889   2.822   5.341   3.474
 4763SOL    HW215890   2.881   5.206   3.546
 4764SOL     OW15891   3.721   5.242   3.467
 4764SOL    HW115892   3.735   5.269   3.372
 4764SOL    HW215893   3.804   5.264   3.520
 4765SOL     OW15894   3.402   3.998   1.987
 4765SOL    HW115895   3.341   3.923   2.010
 4765SOL    HW215896   3.424   4.050   2.070
 4766SOL     OW15897   2.930   5.057   2.711
 4766SOL    HW115898   2.937   4.973   2.656
 4766SOL    HW215899   2.992   5.126   2.675
 4767SOL     OW15900   3.000   4.104   3.540
 4767SOL    HW115901   2.955   4.167   3.604
 4767SOL    HW215902   3.093   4.135   3.523
 4768SOL     OW15903   3.022   3.931   3.339
 4768SOL    HW115904   3.022   3.995   3.416
 4768SOL    HW215905   3.050   3.979   3.256
 4769SOL     OW15906   1.870   5.050   2.062
 4769SOL    HW115907   1.777   5.071   2.031
 4769SOL    HW215908   1.880   4.951   2.075
 4770SOL     OW15909   1.950   5.525   2.789
 4770SOL    HW115910   1.908   5.439   2.762
 4770SOL    HW215911   2.044   5.528   2.755
 4771SOL     OW15912   2.366   5.292   2.772
 4771SOL    HW115913   2.432   5.366   2.781
 4771SOL    HW215914   2.410   5.213   2.730
 4772SOL     OW15915   1.902   4.268   2.976
 4772SOL    HW115916   1.987   4.235   2.935
 4772SOL    HW215917   1.915   4.283   3.074
 4773SOL     OW15918   2.051   4.244   3.584
 4773SOL    HW115919   2.110   4.204   3.514
 4773SOL    HW215920   1.993   4.315   3.543
 4774SOL     OW15921   2.677   4.296   2.187
 4774SOL    HW115922   2.684   4.207   2.141
 4774SOL    HW215923   2.583   4.330   2.179
 4775SOL     OW15924   2.114   5.288   3.606
 4775SOL    HW115925   2.084   5.345   3.682
 4775SOL    HW215926   2.107   5.191   3.632
 4776SOL     OW15927   2.533   4.188   3.131
 4776SOL    HW115928   2.499   4.099   3.101
 4776SOL    HW215929   2.559   4.242   3.051
 4777SOL     OW15930   2.792   5.402   3.327
 4777SOL    HW115931   2.768   5.384   3.232
 4777SOL    HW215932   2.822   5.496   3.337
 4778SOL     OW15933   2.335   4.224   2.053
 4778SOL    HW115934   2.396   4.304   2.057
 4778SOL    HW215935   2.240   4.255   2.060
 4779SOL     OW15936   2.021   4.861   3.328
 4779SOL    HW115937   2.043   4.800   3.404
 4779SOL    HW215938   2.031   4.812   3.242
 4780SOL     OW15939   3.209   4.783   3.096
 4780SOL    HW115940   3.233   4.720   3.022
 4780SOL    HW215941   3.119   4.823   3.078
 4781SOL     OW15942   3.164   4.579   2.171
 4781SOL    HW115943   3.078   4.548   2.213
 4781SOL    HW215944   3.160   4.565   2.072
 4782SOL     OW15945   3.621   5.471   3.016
 4782SOL    HW115946   3.682   5.501   2.943
 4782SOL    HW215947   3.583   5.382   2.994
 4783SOL     OW15948   3.114   5.455   2.990
 4783SOL    HW115949   3.198   5.460   2.936
 4783SOL    HW215950   3.091   5.359   3.008
 4784SOL     OW15951   1.945   4.982   2.884
 4784SOL    HW115952   1.940   4.981   2.984
 4784SOL    HW215953   1.862   4.941   2.846
 4785SOL     OW15954   2.550   5.386   3.578
 4785SOL    HW115955   2.494   5.467   3.587
 4785SOL    HW215956   2.602   5.390   3.492
 4786SOL     OW15957   3.250   5.297   2.339
 4786SOL    HW115958   3.317   5.309   2.265
 4786SOL    HW215959   3.210   5.386   2.362
 4787SOL     OW15960   1.992   5.518   3.713
 4787SOL    HW115961   1.951   5.444   3.766
 4787SOL    HW215962   2.056   5.569   3.771
 4788SOL     OW15963   3.142   4.651   2.534
 4788SOL    HW115964   3.202   4.570   2.536
 4788SOL    HW215965   3.182   4.720   2.474
 4789SOL     OW15966   2.692   4.997   3.284
 4789SOL    HW115967   2.687   5.030   3.379
 4789SOL    HW215968   2.606   5.016   3.238
 4790SOL     OW15969   2.534   5.340   2.016
 4790SOL    HW115970   2.543   5.350   1.917
 4790SOL    HW215971   2.494   5.251   2.037
 4791SOL     OW15972   3.512   5.444   3.256
 4791SOL    HW115973   3.565   5.454   3.172
 4791SOL    HW215974   3.485   5.534   3.290
 4792SOL     OW15975   3.703   3.899   2.825
 4792SOL    HW115976   3.742   3.814   2.789
 4792SOL    HW215977   3.605   3.901   2.806
 4793SOL     OW15978   3.056   5.336   1.893
 4793SOL    HW115979   3.062   5.243   1.930
 4793SOL    HW215980   2.997   5.336   1.813
 4794SOL     OW15981   2.684   4.726   3.234
 4794SOL    HW115982   2.724   4.725   3.142
 4794SOL    HW215983   2.694   4.818   3.274
 4795SOL     OW15984   2.778   4.634   2.153
 4795SOL    HW115985   2.841   4.672   2.085
 4795SOL    HW215986   2.818   4.551   2.192
 4796SOL     OW15987   2.234   5.012   3.352
 4796SOL    HW115988   2.221   5.105   3.318
 4796SOL    HW215989   2.150   4.960   3.339
 4797SOL     OW15990   3.476   5.016   3.151
 4797SOL    HW115991   3.536   5.019   3.231
 4797SOL    HW215992   3.401   5.080   3.164
 4798SOL     OW15993   2.901   4.822   2.558
 4798SOL    HW115994   2.831   4.775   2.612
 4798SOL    HW215995   2.960   4.754   2.515
 4799SOL     OW15996   2.876   3.960   2.833
 4799SOL    HW115997   2.868   3.924   2.740
 4799SOL    HW215998   2.874   3.884   2.898
 4800SOL     OW15999   2.452   5.211   2.353
 4800SOL    HW116000   2.494   5.153   2.283
 4800SOL    HW216001   2.408   5.290   2.309
 4801SOL     OW16002   3.571   4.109   3.243
 4801SOL    HW116003   3.644   4.178   3.247
 4801SOL    HW216004   3.599   4.034   3.184
 4802SOL     OW16005   2.117   5.072   2.152
 4802SOL    HW116006   2.021   5.073   2.125
 4802SOL    HW216007   2.129   5.125   2.236
 4803SOL     OW16008   1.967   4.737   3.588
 4803SOL    HW116009   1.890   4.704   3.642
 4803SOL    HW216010   2.052   4.707   3.630
 4804SOL     OW16011   2.534   3.927   3.351
 4804SOL    HW116012   2.624   3.911   3.311
 4804SOL    HW216013   2.542   3.932   3.450
 4805SOL     OW16014   1.937   4.069   1.895
 4805SOL    HW116015   1.845   4.041   1.866
 4805SOL    HW216016   1.968   4.146   1.839
 4806SOL     OW16017   1.934   3.890   2.180
 4806SOL    HW116018   1.917   3.973   2.126
 4806SOL    HW216019   2.024   3.853   2.158
 4807SOL     OW16020   3.045   5.059   1.981
 4807SOL    HW116021   2.946   5.048   1.983
 4807SOL    HW216022   3.079   5.074   2.074
 4808SOL     OW16023   3.355   5.491   2.821
 4808SOL    HW116024   3.388   5.555   2.752
 4808SOL    HW216025   3.421   5.485   2.896
 4809SOL     OW16026   2.578   4.289   3.570
 4809SOL    HW116027   2.597   4.354   3.644
 4809SOL    HW216028   2.638   4.209   3.579
 4810SOL     OW16029   3.312   4.944   3.495
 4810SOL    HW116030   3.303   4.934   3.594
 4810SOL    HW216031   3.408   4.937   3.469
 4811SOL     OW16032   2.252   5.465   3.422
 4811SOL    HW116033   2.161   5.506   3.420
 4811SOL    HW216034   2.245   5.371   3.454
 4812SOL     OW16035   3.087   4.049   2.311
 4812SOL    HW116036   3.152   3.975   2.300
 4812SOL    HW216037   3.107   4.099   2.395
 4813SOL     OW16038   2.456   4.469   2.514
 4813SOL    HW116039   2.506   4.554   2.495
 4813SOL    HW216040   2.368   4.471   2.466
 4814SOL     OW16041   3.639   4.066   3.504
 4814SOL    HW116042   3.622   4.097   3.410
 4814SOL    HW216043   3.555   4.029   3.542
 4815SOL     OW16044   2.721   5.098   1.878
 4815SOL    HW116045   2.675   5.113   1.966
 4815SOL    HW216046   2.765   5.183   1.848
 4816SOL     OW16047   2.523   5.514   2.815
 4816SOL    HW116048   2.477   5.602   2.802
 4816SOL    HW216049   2.622   5.526   2.808
 4817SOL     OW16050   2.721   4.680   2.723
 4817SOL    HW116051   2.775   4.611   2.771
 4817SOL    HW216052   2.689   4.749   2.789
 4818SOL     OW16053   2.945   4.708   1.949
 4818SOL    HW116054   2.922   4.761   1.867
 4818SOL    HW216055   3.026   4.652   1.930
 4819SOL     OW16056   3.723   5.293   2.713
 4819SOL    HW116057   3.652   5.281   2.643
 4819SOL    HW216058   3.724   5.214   2.773
 4820SOL     OW16059   2.083   5.038   3.706
 4820SOL    HW116060   2.018   4.965   3.685
 4820SOL    HW216061   2.087   5.052   3.804
 4821SOL     OW16062   1.941   4.964   2.515
 4821SOL    HW116063   1.940   4.917   2.603
 4821SOL    HW216064   2.023   4.936   2.464
 4822SOL     OW16065   2.534   5.115   3.486
 4822SOL    HW116066   2.456   5.065   3.524
 4822SOL    HW216067   2.531   5.210   3.517
 4823SOL     OW16068   3.686   3.916   3.089
 4823SOL    HW116069   3.682   3.826   3.133
 4823SOL    HW216070   3.689   3.905   2.990
 4824SOL     OW16071   3.567   5.211   2.966
 4824SOL    HW116072   3.474   5.186   2.939
 4824SOL    HW216073   3.593   5.161   3.048
 4825SOL     OW16074   2.179   4.271   3.142
 4825SOL    HW116075   2.217   4.212   3.214
 4825SOL    HW216076   2.219   4.245   3.054
 4826SOL     OW16077   2.674   5.310   2.549
 4826SOL    HW116078   2.706   5.320   2.455
 4826SOL    HW216079   2.595   5.248   2.551
 4827SOL     OW16080   3.286   3.938   2.974
 4827SOL    HW116081   3.338   3.873   3.029
 4827SOL    HW216082   3.237   4.001   3.035
 4828SOL     OW16083   2.863   3.758   3.016
 4828SOL    HW116084   2.800   3.686   2.985
 4828SOL    HW216085   2.956   3.722   3.016
 4829SOL     OW16086   2.632   5.054   2.163
 4829SOL    HW116087   2.586   4.967   2.180
 4829SOL    HW216088   2.723   5.051   2.204
 4830SOL     OW16089   2.480   5.291   3.146
 4830SOL    HW116090   2.475   5.373   3.203
 4830SOL    HW216091   2.569   5.288   3.101
 4831SOL     OW16092   3.214   3.776   2.030
 4831SOL    HW116093   3.249   3.735   1.946
 4831SOL    HW216094   3.124   3.738   2.050
 4832SOL     OW16095   1.901   4.801   2.162
 4832SOL    HW116096   2.000   4.790   2.153
 4832SOL    HW216097   1.861   4.715   2.194
 4833SOL     OW16098   2.737   5.370   2.199
 4833SOL    HW116099   2.660   5.335   2.145
 4833SOL    HW216100   2.705   5.441   2.261
 4834SOL     OW16101   2.087   3.999   4.720
 4834SOL    HW116102   2.122   3.982   4.812
 4834SOL    HW216103   1.999   3.954   4.708
 4835SOL     OW16104   2.431   4.999   4.889
 4835SOL    HW116105   2.338   4.992   4.852
 4835SOL    HW216106   2.442   5.088   4.933
 4836SOL     OW16107   3.417   5.235   4.427
 4836SOL    HW116108   3.360   5.219   4.508
 4836SOL    HW216109   3.358   5.245   4.347
 4837SOL     OW16110   2.997   4.427   4.441
 4837SOL    HW116111   3.054   4.505   4.416
 4837SOL    HW216112   2.937   4.453   4.517
 4838SOL     OW16113   2.630   4.868   4.747
 4838SOL    HW116114   2.552   4.885   4.807
 4838SOL    HW216115   2.664   4.955   4.711
 4839SOL     OW16116   2.712   4.522   5.547
 4839SOL    HW116117   2.708   4.598   5.612
 4839SOL    HW216118   2.734   4.558   5.456
 4840SOL     OW16119   2.547   4.736   4.389
 4840SOL    HW116120   2.616   4.720   4.459
 4840SOL    HW216121   2.474   4.793   4.427
 4841SOL     OW16122   2.548   4.885   5.527
 4841SOL    HW116123   2.608   4.964   5.541
 4841SOL    HW216124   2.462   4.916   5.486
 4842SOL     OW16125   2.197   5.159   4.785
 4842SOL    HW116126   2.119   5.128   4.732
 4842SOL    HW216127   2.255   5.217   4.728
 4843SOL     OW16128   3.322   5.229   5.063
 4843SOL    HW116129   3.346   5.323   5.089
 4843SOL    HW216130   3.306   5.175   5.145
 4844SOL     OW16131   2.300   4.116   5.223
 4844SOL    HW116132   2.382   4.060   5.232
 4844SOL    HW216133   2.219   4.058   5.227
 4845SOL     OW16134   2.093   5.437   4.207
 4845SOL    HW116135   2.127   5.514   4.261
 4845SOL    HW216136   2.137   5.437   4.117
 4846SOL     OW16137   2.989   5.065   5.414
 4846SOL    HW116138   3.036   5.065   5.502
 4846SOL    HW216139   2.941   4.978   5.403
 4847SOL     OW16140   2.092   5.158   4.262
 4847SOL    HW116141   2.066   5.254   4.262
 4847SOL    HW216142   2.021   5.104   4.307
 4848SOL     OW16143   2.102   4.815   4.610
 4848SOL    HW116144   2.116   4.731   4.662
 4848SOL    HW216145   2.047   4.879   4.665
 4849SOL     OW16146   2.482   5.510   5.163
 4849SOL    HW116147   2.390   5.493   5.198
 4849SOL    HW216148   2.510   5.602   5.189
 4850SOL     OW16149   2.468   4.688   3.847
 4850SOL    HW116150   2.475   4.772   3.793
 4850SOL    HW216151   2.514   4.701   3.935
 4851SOL     OW16152   3.456   3.838   5.204
 4851SOL    HW116153   3.438   3.905   5.132
 4851SOL    HW216154   3.453   3.884   5.293
 4852SOL     OW16155   3.704   5.491   4.083
 4852SOL    HW116156   3.758   5.462   4.163
 4852SOL    HW216157   3.734   5.581   4.054
 4853SOL     OW16158   1.889   5.320   3.841
 4853SOL    HW116159   1.870   5.224   3.862
 4853SOL    HW216160   1.856   5.378   3.916
 4854SOL     OW16161   3.551   4.646   4.336
 4854SOL    HW116162   3.646   4.617   4.344
 4854SOL    HW216163   3.543   4.711   4.261
 4855SOL     OW16164   3.503   4.832   4.156
 4855SOL    HW116165   3.589   4.834   4.104
 4855SOL    HW216166   3.517   4.879   4.244
 4856SOL     OW16167   1.975   4.461   5.321
 4856SOL    HW116168   2.063   4.448   5.366
 4856SOL    HW216169   1.962   4.558   5.299
 4857SOL     OW16170   2.475   5.089   4.450
 4857SOL    HW116171   2.426   5.002   4.459
 4857SOL    HW216172   2.452   5.132   4.363
 4858SOL     OW16173   3.155   4.952   5.147
 4858SOL    HW116174   3.192   4.879   5.089
 4858SOL    HW216175   3.207   4.957   5.232
 4859SOL     OW16176   2.671   3.728   4.226
 4859SOL    HW116177   2.711   3.819   4.217
 4859SOL    HW216178   2.571   3.736   4.232
 4860SOL     OW16179   2.059   4.700   4.988
 4860SOL    HW116180   2.148   4.655   4.974
 4860SOL    HW216181   1.986   4.635   4.969
 4861SOL     OW16182   3.387   4.723   3.914
 4861SOL    HW116183   3.324   4.647   3.927
 4861SOL    HW216184   3.435   4.741   4.000
 4862SOL     OW16185   3.049   5.516   5.340
 4862SOL    HW116186   3.073   5.576   5.264
 4862SOL    HW216187   3.056   5.421   5.310
 4863SOL     OW16188   2.179   3.975   5.525
 4863SOL    HW116189   2.250   4.046   5.531
 4863SOL    HW216190   2.091   4.014   5.553
 4864SOL     OW16191   3.328   5.141   4.677
 4864SOL    HW116192   3.269   5.147   4.757
 4864SOL    HW216193   3.313   5.053   4.631
 4865SOL     OW16194   3.529   5.438   4.296
 4865SOL    HW116195   3.488   5.415   4.208
 4865SOL    HW216196   3.511   5.364   4.361
 4866SOL     OW16197   3.143   4.069   4.668
 4866SOL    HW116198   3.057   4.019   4.655
 4866SOL    HW216199   3.205   4.015   4.724
 4867SOL     OW16200   3.438   5.386   4.031
 4867SOL    HW116201   3.527   5.432   4.034
 4867SOL    HW216202   3.417   5.362   3.936
 4868SOL     OW16203   2.669   4.329   5.189
 4868SOL    HW116204   2.622   4.326   5.278
 4868SOL    HW216205   2.618   4.274   5.123
 4869SOL     OW16206   3.256   4.193   5.398
 4869SOL    HW116207   3.236   4.236   5.486
 4869SOL    HW216208   3.334   4.131   5.407
 4870SOL     OW16209   2.835   4.614   5.296
 4870SOL    HW116210   2.881   4.530   5.267
 4870SOL    HW216211   2.779   4.648   5.221
 4871SOL     OW16212   2.853   4.134   4.966
 4871SOL    HW116213   2.776   4.168   5.020
 4871SOL    HW216214   2.819   4.083   4.887
 4872SOL     OW16215   1.938   4.535   4.513
 4872SOL    HW116216   2.037   4.523   4.522
 4872SOL    HW216217   1.914   4.630   4.534
 4873SOL     OW16218   1.992   5.545   5.295
 4873SOL    HW116219   1.982   5.530   5.394
 4873SOL    HW216220   1.906   5.581   5.259
 4874SOL     OW16221   2.727   4.072   3.919
 4874SOL    HW116222   2.786   4.135   3.870
 4874SOL    HW216223   2.746   3.978   3.890
 4875SOL     OW16224   3.581   4.309   5.555
 4875SOL    HW116225   3.555   4.398   5.519
 4875SOL    HW216226   3.579   4.241   5.482
 4876SOL     OW16227   3.224   4.868   4.269
 4876SOL    HW116228   3.307   4.839   4.221
 4876SOL    HW216229   3.175   4.935   4.213
 4877SOL     OW16230   2.870   5.180   4.201
 4877SOL    HW116231   2.824   5.252   4.149
 4877SOL    HW216232   2.866   5.200   4.299
 4878SOL     OW16233   2.213   5.525   4.577
 4878SOL    HW116234   2.263   5.439   4.583
 4878SOL    HW216235   2.278   5.602   4.574
 4879SOL     OW16236   3.657   4.790   4.597
 4879SOL    HW116237   3.595   4.775   4.521
 4879SOL    HW216238   3.605   4.801   4.682
 4880SOL     OW16239   3.089   5.274   5.230
 4880SOL    HW116240   3.095   5.197   5.294
 4880SOL    HW216241   3.037   5.248   5.150
 4881SOL     OW16242   3.320   4.459   4.452
 4881SOL    HW116243   3.315   4.394   4.527
 4881SOL    HW216244   3.400   4.518   4.465
 4882SOL     OW16245   2.323   4.990   5.451
 4882SOL    HW116246   2.273   4.991   5.365
 4882SOL    HW216247   2.260   4.972   5.527
 4883SOL     OW16248   2.973   5.500   3.961
 4883SOL    HW116249   2.913   5.438   4.011
 4883SOL    HW216250   3.004   5.456   3.876
 4884SOL     OW16251   2.064   4.009   5.222
 4884SOL    HW116252   1.984   4.069   5.209
 4884SOL    HW216253   2.054   3.960   5.308
 4885SOL     OW16254   3.494   5.101   3.805
 4885SOL    HW116255   3.462   5.195   3.795
 4885SOL    HW216256   3.418   5.038   3.793
 4886SOL     OW16257   2.326   5.467   4.047
 4886SOL    HW116258   2.359   5.506   4.133
 4886SOL    HW216259   2.402   5.460   3.982
 4887SOL     OW16260   3.262   3.831   4.150
 4887SOL    HW116261   3.238   3.794   4.060
 4887SOL    HW216262   3.361   3.847   4.154
 4888SOL     OW16263   2.111   5.509   4.965
 4888SOL    HW116264   2.168   5.444   5.015
 4888SOL    HW216265   2.095   5.476   4.872
 4889SOL     OW16266   2.802   5.422   4.628
 4889SOL    HW116267   2.882   5.365   4.649
 4889SOL    HW216268   2.753   5.382   4.551
 4890SOL     OW16269   3.409   3.946   5.453
 4890SOL    HW116270   3.404   3.983   5.545
 4890SOL    HW216271   3.337   3.877   5.441
 4891SOL     OW16272   2.476   3.846   3.841
 4891SOL    HW116273   2.574   3.824   3.848
 4891SOL    HW216274   2.445   3.829   3.748
 4892SOL     OW16275   2.643   3.988   5.473
 4892SOL    HW116276   2.710   3.927   5.516
 4892SOL    HW216277   2.570   4.007   5.538
 4893SOL     OW16278   2.750   5.238   4.919
 4893SOL    HW116279   2.727   5.213   4.825
 4893SOL    HW216280   2.811   5.169   4.958
 4894SOL     OW16281   3.213   4.314   5.157
 4894SOL    HW116282   3.241   4.271   5.242
 4894SOL    HW216283   3.238   4.410   5.158
 4895SOL     OW16284   2.665   5.126   4.648
 4895SOL    HW116285   2.755   5.140   4.606
 4895SOL    HW216286   2.594   5.128   4.577
 4896SOL     OW16287   2.784   4.227   4.623
 4896SOL    HW116288   2.759   4.218   4.527
 4896SOL    HW216289   2.832   4.145   4.654
 4897SOL     OW16290   2.401   3.788   4.236
 4897SOL    HW116291   2.320   3.789   4.294
 4897SOL    HW216292   2.404   3.871   4.181
 4898SOL     OW16293   3.296   4.912   3.765
 4898SOL    HW116294   3.328   4.836   3.822
 4898SOL    HW216295   3.204   4.939   3.795
 4899SOL     OW16296   2.159   3.759   3.895
 4899SOL    HW116297   2.208   3.843   3.874
 4899SOL    HW216298   2.221   3.694   3.940
 4900SOL     OW16299   2.797   3.960   4.204
 4900SOL    HW116300   2.749   4.001   4.126
 4900SOL    HW216301   2.896   3.958   4.185
 4901SOL     OW16302   2.938   4.407   5.188
 4901SOL    HW116303   2.858   4.346   5.191
 4901SOL    HW216304   3.019   4.354   5.164
 4902SOL     OW16305   3.089   5.294   4.517
 4902SOL    HW116306   3.110   5.368   4.452
 4902SOL    HW216307   3.157   5.294   4.590
 4903SOL     OW16308   2.321   4.876   4.465
 4903SOL    HW116309   2.250   4.849   4.530
 4903SOL    HW216310   2.295   4.848   4.372
 4904SOL     OW16311   3.133   5.521   4.315
 4904SOL    HW116312   3.177   5.585   4.251
 4904SOL    HW216313   3.083   5.573   4.385
 4905SOL     OW16314   2.894   4.273   3.740
 4905SOL    HW116315   2.853   4.355   3.701
 4905SOL    HW216316   2.958   4.299   3.813
 4906SOL     OW16317   1.940   4.280   5.110
 4906SOL    HW116318   2.032   4.279   5.069
 4906SOL    HW216319   1.934   4.354   5.177
 4907SOL     OW16320   2.423   3.946   4.871
 4907SOL    HW116321   2.461   3.862   4.908
 4907SOL    HW216322   2.335   3.965   4.915
 4908SOL     OW16323   3.291   4.897   4.591
 4908SOL    HW116324   3.236   4.813   4.584
 4908SOL    HW216325   3.317   4.926   4.499
 4909SOL     OW16326   3.328   4.314   4.716
 4909SOL    HW116327   3.298   4.219   4.723
 4909SOL    HW216328   3.401   4.330   4.782
 4910SOL     OW16329   2.350   5.109   3.898
 4910SOL    HW116330   2.263   5.094   3.945
 4910SOL    HW216331   2.333   5.135   3.803
 4911SOL     OW16332   3.526   5.004   4.381
 4911SOL    HW116333   3.625   5.012   4.395
 4911SOL    HW216334   3.481   5.088   4.412
 4912SOL     OW16335   3.252   4.299   3.802
 4912SOL    HW116336   3.198   4.278   3.883
 4912SOL    HW216337   3.343   4.258   3.811
 4913SOL     OW16338   2.389   3.980   4.052
 4913SOL    HW116339   2.416   3.921   3.977
 4913SOL    HW216340   2.389   4.075   4.021
 4914SOL     OW16341   3.616   4.947   5.312
 4914SOL    HW116342   3.707   4.908   5.299
 4914SOL    HW216343   3.624   5.043   5.336
 4915SOL     OW16344   2.926   5.071   5.064
 4915SOL    HW116345   2.846   5.048   5.119
 4915SOL    HW216346   3.009   5.045   5.113
 4916SOL     OW16347   3.454   5.353   5.349
 4916SOL    HW116348   3.481   5.387   5.259
 4916SOL    HW216349   3.533   5.315   5.395
 4917SOL     OW16350   2.973   4.919   4.824
 4917SOL    HW116351   2.933   4.963   4.905
 4917SOL    HW216352   2.932   4.956   4.741
 4918SOL     OW16353   3.500   4.823   4.803
 4918SOL    HW116354   3.505   4.904   4.862
 4918SOL    HW216355   3.414   4.825   4.752
 4919SOL     OW16356   2.777   3.813   5.126
 4919SOL    HW116357   2.802   3.793   5.031
 4919SOL    HW216358   2.849   3.869   5.168
 4920SOL     OW16359   2.842   4.840   5.443
 4920SOL    HW116360   2.743   4.846   5.453
 4920SOL    HW216361   2.865   4.760   5.387
 4921SOL     OW16362   2.567   4.774   4.092
 4921SOL    HW116363   2.553   4.781   4.191
 4921SOL    HW216364   2.651   4.723   4.074
 4922SOL     OW16365   2.272   4.537   4.975
 4922SOL    HW116366   2.358   4.549   5.025
 4922SOL    HW216367   2.230   4.450   5.002
 4923SOL     OW16368   3.136   4.110   4.986
 4923SOL    HW116369   3.157   4.184   5.050
 4923SOL    HW216370   3.047   4.127   4.943
 4924SOL     OW16371   1.926   5.288   5.055
 4924SOL    HW116372   1.880   5.370   5.021
 4924SOL    HW216373   2.024   5.307   5.064
 4925SOL     OW16374   2.229   4.824   4.225
 4925SOL    HW116375   2.222   4.907   4.169
 4925SOL    HW216376   2.233   4.744   4.165
 4926SOL     OW16377   2.428   4.261   4.589
 4926SOL    HW116378   2.440   4.327   4.515
 4926SOL    HW216379   2.474   4.295   4.672
 4927SOL     OW16380   3.114   5.072   4.112
 4927SOL    HW116381   3.164   5.149   4.152
 4927SOL    HW216382   3.019   5.074   4.144
 4928SOL     OW16383   3.134   5.169   4.866
 4928SOL    HW116384   3.181   5.182   4.953
 4928SOL    HW216385   3.068   5.095   4.875
 4929SOL     OW16386   2.216   5.234   5.053
 4929SOL    HW116387   2.195   5.190   4.966
 4929SOL    HW216388   2.313   5.260   5.056
 4930SOL     OW16389   2.264   4.475   5.322
 4930SOL    HW116390   2.332   4.530   5.275
 4930SOL    HW216391   2.304   4.387   5.349
 4931SOL     OW16392   3.449   4.503   5.394
 4931SOL    HW116393   3.357   4.541   5.389
 4931SOL    HW216394   3.509   4.550   5.329
 4932SOL     OW16395   2.875   3.829   5.494
 4932SOL    HW116396   2.881   3.914   5.442
 4932SOL    HW216397   2.907   3.753   5.437
 4933SOL     OW16398   2.366   3.774   5.464
 4933SOL    HW116399   2.324   3.717   5.394
 4933SOL    HW216400   2.300   3.843   5.496
 4934SOL     OW16401   2.435   4.594   4.753
 4934SOL    HW116402   2.479   4.683   4.744
 4934SOL    HW216403   2.372   4.594   4.830
 4935SOL     OW16404   3.222   4.586   4.769
 4935SOL    HW116405   3.147   4.586   4.703
 4935SOL    HW216406   3.259   4.494   4.778
 4936SOL     OW16407   2.169   3.937   4.955
 4936SOL    HW116408   2.146   3.974   5.045
 4936SOL    HW216409   2.139   3.842   4.949
 4937SOL     OW16410   1.899   5.034   5.006
 4937SOL    HW116411   1.952   4.985   5.074
 4937SOL    HW216412   1.921   5.132   5.011
 4938SOL     OW16413   2.594   4.358   4.788
 4938SOL    HW116414   2.653   4.332   4.712
 4938SOL    HW216415   2.566   4.454   4.777
 4939SOL     OW16416   3.590   4.659   5.578
 4939SOL    HW116417   3.544   4.652   5.489
 4939SOL    HW216418   3.528   4.703   5.644
 4940SOL     OW16419   2.885   4.490   4.690
 4940SOL    HW116420   2.900   4.511   4.786
 4940SOL    HW216421   2.855   4.395   4.681
 4941SOL     OW16422   2.842   5.297   5.424
 4941SOL    HW116423   2.822   5.341   5.336
 4941SOL    HW216424   2.881   5.206   5.408
 4942SOL     OW16425   3.721   5.242   5.329
 4942SOL    HW116426   3.735   5.269   5.234
 4942SOL    HW216427   3.804   5.264   5.382
 4943SOL     OW16428   2.212   4.622   5.528
 4943SOL    HW116429   2.288   4.666   5.576
 4943SOL    HW216430   2.247   4.575   5.446
 4944SOL     OW16431   3.402   3.998   3.849
 4944SOL    HW116432   3.341   3.923   3.872
 4944SOL    HW216433   3.424   4.050   3.932
 4945SOL     OW16434   2.930   5.057   4.573
 4945SOL    HW116435   2.937   4.973   4.518
 4945SOL    HW216436   2.992   5.126   4.537
 4946SOL     OW16437   2.181   4.534   4.673
 4946SOL    HW116438   2.274   4.570   4.678
 4946SOL    HW216439   2.175   4.449   4.725
 4947SOL     OW16440   2.201   4.233   4.730
 4947SOL    HW116441   2.149   4.150   4.713
 4947SOL    HW216442   2.278   4.238   4.666
 4948SOL     OW16443   3.000   4.104   5.402
 4948SOL    HW116444   2.955   4.167   5.466
 4948SOL    HW216445   3.093   4.135   5.385
 4949SOL     OW16446   3.022   3.931   5.201
 4949SOL    HW116447   3.022   3.995   5.278
 4949SOL    HW216448   3.050   3.979   5.118
 4950SOL     OW16449   1.870   5.050   3.924
 4950SOL    HW116450   1.777   5.071   3.893
 4950SOL    HW216451   1.880   4.951   3.937
 4951SOL     OW16452   1.950   5.525   4.651
 4951SOL    HW116453   1.908   5.439   4.624
 4951SOL    HW216454   2.044   5.528   4.617
 4952SOL     OW16455   2.366   5.292   4.634
 4952SOL    HW116456   2.432   5.366   4.643
 4952SOL    HW216457   2.410   5.213   4.592
 4953SOL     OW16458   2.864   4.520   4.962
 4953SOL    HW116459   2.905   4.488   5.048
 4953SOL    HW216460   2.768   4.493   4.959
 4954SOL     OW16461   1.902   4.268   4.838
 4954SOL    HW116462   1.987   4.235   4.797
 4954SOL    HW216463   1.915   4.283   4.936
 4955SOL     OW16464   2.051   4.244   5.446
 4955SOL    HW116465   2.110   4.204   5.376
 4955SOL    HW216466   1.993   4.315   5.405
 4956SOL     OW16467   3.231   4.674   5.384
 4956SOL    HW116468   3.270   4.763   5.404
 4956SOL    HW216469   3.241   4.654   5.287
 4957SOL     OW16470   3.519   4.328   4.930
 4957SOL    HW116471   3.481   4.259   4.992
 4957SOL    HW216472   3.601   4.292   4.886
 4958SOL     OW16473   2.114   5.288   5.468
 4958SOL    HW116474   2.084   5.345   5.544
 4958SOL    HW216475   2.107   5.191   5.494
 4959SOL     OW16476   2.533   4.188   4.993
 4959SOL    HW116477   2.499   4.099   4.963
 4959SOL    HW216478   2.559   4.242   4.913
 4960SOL     OW16479   2.792   5.402   5.189
 4960SOL    HW116480   2.768   5.384   5.094
 4960SOL    HW216481   2.822   5.496   5.199
 4961SOL     OW16482   2.021   4.861   5.190
 4961SOL    HW116483   2.043   4.800   5.266
 4961SOL    HW216484   2.031   4.812   5.104
 4962SOL     OW16485   3.209   4.783   4.958
 4962SOL    HW116486   3.233   4.720   4.884
 4962SOL    HW216487   3.119   4.823   4.940
 4963SOL     OW16488   3.621   5.471   4.878
 4963SOL    HW116489   3.682   5.501   4.805
 4963SOL    HW216490   3.583   5.382   4.856
 4964SOL     OW16491   3.114   5.455   4.852
 4964SOL    HW116492   3.198   5.460   4.798
 4964SOL    HW216493   3.091   5.359   4.870
 4965SOL     OW16494   1.945   4.982   4.746
 4965SOL    HW116495   1.940   4.981   4.846
 4965SOL    HW216496   1.862   4.941   4.708
 4966SOL     OW16497   2.550   5.386   5.440
 4966SOL    HW116498   2.494   5.467   5.449
 4966SOL    HW216499   2.602   5.390   5.354
 4967SOL     OW16500   3.588   3.859   4.247
 4967SOL    HW116501   3.661   3.842   4.180
 4967SOL    HW216502   3.557   3.772   4.285
 4968SOL     OW16503   3.250   5.297   4.201
 4968SOL    HW116504   3.317   5.309   4.127
 4968SOL    HW216505   3.210   5.386   4.224
 4969SOL     OW16506   3.142   4.651   4.396
 4969SOL    HW116507   3.202   4.570   4.398
 4969SOL    HW216508   3.182   4.720   4.336
 4970SOL     OW16509   2.692   4.997   5.146
 4970SOL    HW116510   2.687   5.030   5.241
 4970SOL    HW216511   2.606   5.016   5.100
 4971SOL     OW16512   2.534   5.340   3.878
 4971SOL    HW116513   2.543   5.350   3.779
 4971SOL    HW216514   2.494   5.251   3.899
 4972SOL     OW16515   3.512   5.444   5.118
 4972SOL    HW116516   3.565   5.454   5.034
 4972SOL    HW216517   3.485   5.534   5.152
 4973SOL     OW16518   3.703   3.899   4.687
 4973SOL    HW116519   3.742   3.814   4.651
 4973SOL    HW216520   3.605   3.901   4.668
 4974SOL     OW16521   3.056   5.336   3.755
 4974SOL    HW116522   3.062   5.243   3.792
 4974SOL    HW216523   2.997   5.336   3.675
 4975SOL     OW16524   2.684   4.726   5.096
 4975SOL    HW116525   2.724   4.725   5.004
 4975SOL    HW216526   2.694   4.818   5.136
 4976SOL     OW16527   3.366   5.331   3.768
 4976SOL    HW116528   3.274   5.368   3.775
 4976SOL    HW216529   3.404   5.351   3.678
 4977SOL     OW16530   2.234   5.012   5.214
 4977SOL    HW116531   2.221   5.105   5.180
 4977SOL    HW216532   2.150   4.960   5.201
 4978SOL     OW16533   3.476   5.016   5.013
 4978SOL    HW116534   3.536   5.019   5.093
 4978SOL    HW216535   3.401   5.080   5.026
 4979SOL     OW16536   2.901   4.822   4.420
 4979SOL    HW116537   2.831   4.775   4.474
 4979SOL    HW216538   2.960   4.754   4.377
 4980SOL     OW16539   2.452   5.211   4.215
 4980SOL    HW116540   2.494   5.153   4.145
 4980SOL    HW216541   2.408   5.290   4.171
 4981SOL     OW16542   3.571   4.109   5.105
 4981SOL    HW116543   3.644   4.178   5.109
 4981SOL    HW216544   3.599   4.034   5.046
 4982SOL     OW16545   2.117   5.072   4.014
 4982SOL    HW116546   2.021   5.073   3.987
 4982SOL    HW216547   2.129   5.125   4.098
 4983SOL     OW16548   1.967   4.737   5.450
 4983SOL    HW116549   1.890   4.704   5.504
 4983SOL    HW216550   2.052   4.707   5.492
 4984SOL     OW16551   2.534   3.927   5.213
 4984SOL    HW116552   2.624   3.911   5.173
 4984SOL    HW216553   2.542   3.932   5.312
 4985SOL     OW16554   1.937   4.069   3.757
 4985SOL    HW116555   1.845   4.041   3.728
 4985SOL    HW216556   1.968   4.146   3.701
 4986SOL     OW16557   3.302   4.580   5.122
 4986SOL    HW116558   3.245   4.632   5.059
 4986SOL    HW216559   3.398   4.592   5.098
 4987SOL     OW16560   1.934   3.890   4.042
 4987SOL    HW116561   1.917   3.973   3.988
 4987SOL    HW216562   2.024   3.853   4.020
 4988SOL     OW16563   3.045   5.059   3.843
 4988SOL    HW116564   2.946   5.048   3.845
 4988SOL    HW216565   3.079   5.074   3.936
 4989SOL     OW16566   2.475   4.566   5.155
 4989SOL    HW116567   2.531   4.647   5.138
 4989SOL    HW216568   2.534   4.486   5.158
 4990SOL     OW16569   3.355   5.491   4.683
 4990SOL    HW116570   3.388   5.555   4.614
 4990SOL    HW216571   3.421   5.485   4.758
 4991SOL     OW16572   2.578   4.289   5.432
 4991SOL    HW116573   2.597   4.354   5.506
 4991SOL    HW216574   2.638   4.209   5.441
 4992SOL     OW16575   3.312   4.944   5.357
 4992SOL    HW116576   3.303   4.934   5.456
 4992SOL    HW216577   3.408   4.937   5.331
 4993SOL     OW16578   2.252   5.465   5.284
 4993SOL    HW116579   2.161   5.506   5.282
 4993SOL    HW216580   2.245   5.371   5.316
 4994SOL     OW16581   3.536   4.607   4.978
 4994SOL    HW116582   3.509   4.518   4.941
 4994SOL    HW216583   3.537   4.675   4.905
 4995SOL     OW16584   2.456   4.469   4.376
 4995SOL    HW116585   2.506   4.554   4.357
 4995SOL    HW216586   2.368   4.471   4.328
 4996SOL     OW16587   3.639   4.066   5.366
 4996SOL    HW116588   3.622   4.097   5.272
 4996SOL    HW216589   3.555   4.029   5.404
 4997SOL     OW16590   3.592   4.658   5.241
 4997SOL    HW116591   3.630   4.749   5.256
 4997SOL    HW216592   3.584   4.641   5.142
 4998SOL     OW16593   2.721   5.098   3.740
 4998SOL    HW116594   2.675   5.113   3.828
 4998SOL    HW216595   2.765   5.183   3.710
 4999SOL     OW16596   2.523   5.514   4.677
 4999SOL    HW116597   2.477   5.602   4.664
 4999SOL    HW216598   2.622   5.526   4.670
 5000SOL     OW16599   2.721   4.680   4.585
 5000SOL    HW116600   2.775   4.611   4.633
 5000SOL    HW216601   2.689   4.749   4.651
 5001SOL     OW16602   3.723   5.293   4.575
 5001SOL    HW116603   3.652   5.281   4.505
 5001SOL    HW216604   3.724   5.214   4.635
 5002SOL     OW16605   2.083   5.038   5.568
 5002SOL    HW116606   2.018   4.965   5.547
 5002SOL    HW216607   2.087   5.052   5.666
 5003SOL     OW16608   1.941   4.964   4.377
 5003SOL    HW116609   1.940   4.917   4.465
 5003SOL    HW216610   2.023   4.936   4.326
 5004SOL     OW16611   2.534   5.115   5.348
 5004SOL    HW116612   2.456   5.065   5.386
 5004SOL    HW216613   2.531   5.210   5.379
 5005SOL     OW16614   3.686   3.916   4.951
 5005SOL    HW116615   3.682   3.826   4.995
 5005SOL    HW216616   3.689   3.905   4.852
 5006SOL     OW16617   3.567   5.211   4.828
 5006SOL    HW116618   3.474   5.186   4.801
 5006SOL    HW216619   3.593   5.161   4.910
 5007SOL     OW16620   2.179   4.271   5.004
 5007SOL    HW116621   2.217   4.212   5.076
 5007SOL    HW216622   2.219   4.245   4.916
 5008SOL     OW16623   2.674   5.310   4.411
 5008SOL    HW116624   2.706   5.320   4.317
 5008SOL    HW216625   2.595   5.248   4.413
 5009SOL     OW16626   3.286   3.938   4.836
 5009SOL    HW116627   3.338   3.873   4.891
 5009SOL    HW216628   3.237   4.001   4.897
 5010SOL     OW16629   2.863   3.758   4.878
 5010SOL    HW116630   2.800   3.686   4.847
 5010SOL    HW216631   2.956   3.722   4.878
 5011SOL     OW16632   2.632   5.054   4.025
 5011SOL    HW116633   2.586   4.967   4.042
 5011SOL    HW216634   2.723   5.051   4.066
 5012SOL     OW16635   2.480   5.291   5.008
 5012SOL    HW116636   2.475   5.373   5.065
 5012SOL    HW216637   2.569   5.288   4.963
 5013SOL     OW16638   3.214   3.776   3.892
 5013SOL    HW116639   3.249   3.735   3.808
 5013SOL    HW216640   3.124   3.738   3.912
 5014SOL     OW16641   1.901   4.801   4.024
 5014SOL    HW116642   2.000   4.790   4.015
 5014SOL    HW216643   1.861   4.715   4.056
 5015SOL     OW16644   2.737   5.370   4.061
 5015SOL    HW116645   2.660   5.335   4.007
 5015SOL    HW216646   2.705   5.441   4.123
 5016SOL     OW16647   2.092   4.352   5.699
 5016SOL    HW116648   1.999   4.350   5.736
 5016SOL    HW216649   2.093   4.313   5.607
 5017SOL     OW16650   2.087   3.999   6.582
 5017SOL    HW116651   2.122   3.982   6.674
 5017SOL    HW216652   1.999   3.954   6.570
 5018SOL     OW16653   1.881   4.092   6.233
 5018SOL    HW116654   1.799   4.135   6.272
 5018SOL    HW216655   1.853   4.019   6.170
 5019SOL     OW16656   3.417   5.235   6.289
 5019SOL    HW116657   3.360   5.219   6.370
 5019SOL    HW216658   3.358   5.245   6.209
 5020SOL     OW16659   2.997   4.427   6.303
 5020SOL    HW116660   3.054   4.505   6.278
 5020SOL    HW216661   2.937   4.453   6.379
 5021SOL     OW16662   3.617   4.331   5.817
 5021SOL    HW116663   3.605   4.318   5.718
 5021SOL    HW216664   3.587   4.250   5.866
 5022SOL     OW16665   2.547   4.736   6.251
 5022SOL    HW116666   2.616   4.720   6.321
 5022SOL    HW216667   2.474   4.793   6.289
 5023SOL     OW16668   3.465   4.171   6.323
 5023SOL    HW116669   3.391   4.217   6.273
 5023SOL    HW216670   3.516   4.239   6.376
 5024SOL     OW16671   2.482   5.510   7.025
 5024SOL    HW116672   2.390   5.493   7.060
 5024SOL    HW216673   2.510   5.602   7.051
 5025SOL     OW16674   2.468   4.688   5.709
 5025SOL    HW116675   2.475   4.772   5.655
 5025SOL    HW216676   2.514   4.701   5.797
 5026SOL     OW16677   1.984   4.367   6.149
 5026SOL    HW116678   1.939   4.279   6.166
 5026SOL    HW216679   1.983   4.421   6.233
 5027SOL     OW16680   3.704   5.491   5.945
 5027SOL    HW116681   3.758   5.462   6.025
 5027SOL    HW216682   3.734   5.581   5.916
 5028SOL     OW16683   1.889   5.320   5.703
 5028SOL    HW116684   1.870   5.224   5.724
 5028SOL    HW216685   1.856   5.378   5.778
 5029SOL     OW16686   3.551   4.646   6.198
 5029SOL    HW116687   3.646   4.617   6.206
 5029SOL    HW216688   3.543   4.711   6.123
 5030SOL     OW16689   3.503   4.832   6.018
 5030SOL    HW116690   3.589   4.834   5.966
 5030SOL    HW216691   3.517   4.879   6.106
 5031SOL     OW16692   2.671   3.728   6.088
 5031SOL    HW116693   2.711   3.819   6.079
 5031SOL    HW216694   2.571   3.736   6.094
 5032SOL     OW16695   2.059   4.700   6.850
 5032SOL    HW116696   2.148   4.655   6.836
 5032SOL    HW216697   1.986   4.635   6.831
 5033SOL     OW16698   3.387   4.723   5.776
 5033SOL    HW116699   3.324   4.647   5.789
 5033SOL    HW216700   3.435   4.741   5.862
 5034SOL     OW16701   3.328   5.141   6.539
 5034SOL    HW116702   3.269   5.147   6.619
 5034SOL    HW216703   3.313   5.053   6.493
 5035SOL     OW16704   3.529   5.438   6.158
 5035SOL    HW116705   3.488   5.415   6.070
 5035SOL    HW216706   3.511   5.364   6.223
 5036SOL     OW16707   2.460   4.453   5.856
 5036SOL    HW116708   2.484   4.522   5.788
 5036SOL    HW216709   2.382   4.486   5.910
 5037SOL     OW16710   3.143   4.069   6.530
 5037SOL    HW116711   3.057   4.019   6.517
 5037SOL    HW216712   3.205   4.015   6.586
 5038SOL     OW16713   3.438   5.386   5.893
 5038SOL    HW116714   3.527   5.432   5.896
 5038SOL    HW216715   3.417   5.362   5.798
 5039SOL     OW16716   2.669   4.329   7.051
 5039SOL    HW116717   2.622   4.326   7.140
 5039SOL    HW216718   2.618   4.274   6.985
 5040SOL     OW16719   2.853   4.134   6.828
 5040SOL    HW116720   2.776   4.168   6.882
 5040SOL    HW216721   2.819   4.083   6.749
 5041SOL     OW16722   2.903   4.425   6.015
 5041SOL    HW116723   2.929   4.421   6.111
 5041SOL    HW216724   2.818   4.374   6.001
 5042SOL     OW16725   1.938   4.535   6.375
 5042SOL    HW116726   2.037   4.523   6.384
 5042SOL    HW216727   1.914   4.630   6.396
 5043SOL     OW16728   1.992   5.545   7.157
 5043SOL    HW116729   1.982   5.530   7.256
 5043SOL    HW216730   1.906   5.581   7.121
 5044SOL     OW16731   2.727   4.072   5.781
 5044SOL    HW116732   2.786   4.135   5.732
 5044SOL    HW216733   2.746   3.978   5.752
 5045SOL     OW16734   3.224   4.868   6.131
 5045SOL    HW116735   3.307   4.839   6.083
 5045SOL    HW216736   3.175   4.935   6.075
 5046SOL     OW16737   2.412   3.920   6.471
 5046SOL    HW116738   2.407   3.915   6.571
 5046SOL    HW216739   2.414   4.016   6.442
 5047SOL     OW16740   2.870   5.180   6.063
 5047SOL    HW116741   2.824   5.252   6.011
 5047SOL    HW216742   2.866   5.200   6.161
 5048SOL     OW16743   2.213   5.525   6.439
 5048SOL    HW116744   2.263   5.439   6.445
 5048SOL    HW216745   2.278   5.602   6.436
 5049SOL     OW16746   3.657   4.790   6.459
 5049SOL    HW116747   3.595   4.775   6.383
 5049SOL    HW216748   3.605   4.801   6.544
 5050SOL     OW16749   2.183   4.667   5.828
 5050SOL    HW116750   2.265   4.706   5.786
 5050SOL    HW216751   2.156   4.585   5.779
 5051SOL     OW16752   3.320   4.459   6.314
 5051SOL    HW116753   3.315   4.394   6.389
 5051SOL    HW216754   3.400   4.518   6.327
 5052SOL     OW16755   2.973   5.500   5.823
 5052SOL    HW116756   2.913   5.438   5.873
 5052SOL    HW216757   3.004   5.456   5.738
 5053SOL     OW16758   3.494   5.101   5.667
 5053SOL    HW116759   3.462   5.195   5.657
 5053SOL    HW216760   3.418   5.038   5.655
 5054SOL     OW16761   3.262   3.831   6.012
 5054SOL    HW116762   3.238   3.794   5.922
 5054SOL    HW216763   3.361   3.847   6.016
 5055SOL     OW16764   2.111   5.509   6.827
 5055SOL    HW116765   2.168   5.444   6.877
 5055SOL    HW216766   2.095   5.476   6.734
 5056SOL     OW16767   2.802   5.422   6.490
 5056SOL    HW116768   2.882   5.365   6.511
 5056SOL    HW216769   2.753   5.382   6.413
 5057SOL     OW16770   2.244   4.424   6.066
 5057SOL    HW116771   2.289   4.334   6.063
 5057SOL    HW216772   2.150   4.413   6.099
 5058SOL     OW16773   2.476   3.846   5.703
 5058SOL    HW116774   2.574   3.824   5.710
 5058SOL    HW216775   2.445   3.829   5.610
 5059SOL     OW16776   2.784   4.227   6.485
 5059SOL    HW116777   2.759   4.218   6.389
 5059SOL    HW216778   2.832   4.145   6.516
 5060SOL     OW16779   2.401   3.788   6.098
 5060SOL    HW116780   2.320   3.789   6.156
 5060SOL    HW216781   2.404   3.871   6.043
 5061SOL     OW16782   3.296   4.912   5.627
 5061SOL    HW116783   3.328   4.836   5.684
 5061SOL    HW216784   3.204   4.939   5.657
 5062SOL     OW16785   2.159   3.759   5.757
 5062SOL    HW116786   2.208   3.843   5.736
 5062SOL    HW216787   2.221   3.694   5.802
 5063SOL     OW16788   2.797   3.960   6.066
 5063SOL    HW116789   2.749   4.001   5.988
 5063SOL    HW216790   2.896   3.958   6.047
 5064SOL     OW16791   3.089   5.294   6.379
 5064SOL    HW116792   3.110   5.368   6.314
 5064SOL    HW216793   3.157   5.294   6.452
 5065SOL     OW16794   3.133   5.521   6.177
 5065SOL    HW116795   3.177   5.585   6.113
 5065SOL    HW216796   3.083   5.573   6.247
 5066SOL     OW16797   2.894   4.273   5.602
 5066SOL    HW116798   2.853   4.355   5.563
 5066SOL    HW216799   2.958   4.299   5.675
 5067SOL     OW16800   2.423   3.946   6.733
 5067SOL    HW116801   2.461   3.862   6.770
 5067SOL    HW216802   2.335   3.965   6.777
 5068SOL     OW16803   2.728   4.178   6.228
 5068SOL    HW116804   2.696   4.250   6.166
 5068SOL    HW216805   2.752   4.097   6.175
 5069SOL     OW16806   2.879   3.763   6.339
 5069SOL    HW116807   2.807   3.768   6.270
 5069SOL    HW216808   2.855   3.694   6.408
 5070SOL     OW16809   3.291   4.897   6.453
 5070SOL    HW116810   3.236   4.813   6.446
 5070SOL    HW216811   3.317   4.926   6.361
 5071SOL     OW16812   3.328   4.314   6.578
 5071SOL    HW116813   3.298   4.219   6.585
 5071SOL    HW216814   3.401   4.330   6.644
 5072SOL     OW16815   3.719   4.557   5.963
 5072SOL    HW116816   3.761   4.493   6.027
 5072SOL    HW216817   3.681   4.506   5.885
 5073SOL     OW16818   3.526   5.004   6.243
 5073SOL    HW116819   3.625   5.012   6.257
 5073SOL    HW216820   3.481   5.088   6.274
 5074SOL     OW16821   3.252   4.299   5.664
 5074SOL    HW116822   3.198   4.278   5.745
 5074SOL    HW216823   3.343   4.258   5.673
 5075SOL     OW16824   2.389   3.980   5.914
 5075SOL    HW116825   2.416   3.921   5.839
 5075SOL    HW216826   2.389   4.075   5.883
 5076SOL     OW16827   3.616   4.947   7.174
 5076SOL    HW116828   3.707   4.908   7.161
 5076SOL    HW216829   3.624   5.043   7.198
 5077SOL     OW16830   2.973   4.919   6.686
 5077SOL    HW116831   2.933   4.963   6.767
 5077SOL    HW216832   2.932   4.956   6.603
 5078SOL     OW16833   3.500   4.823   6.665
 5078SOL    HW116834   3.505   4.904   6.724
 5078SOL    HW216835   3.414   4.825   6.614
 5079SOL     OW16836   2.567   4.774   5.954
 5079SOL    HW116837   2.553   4.781   6.053
 5079SOL    HW216838   2.651   4.723   5.936
 5080SOL     OW16839   2.272   4.537   6.837
 5080SOL    HW116840   2.358   4.549   6.887
 5080SOL    HW216841   2.230   4.450   6.864
 5081SOL     OW16842   3.136   4.110   6.848
 5081SOL    HW116843   3.157   4.184   6.912
 5081SOL    HW216844   3.047   4.127   6.805
 5082SOL     OW16845   2.229   4.824   6.087
 5082SOL    HW116846   2.222   4.907   6.031
 5082SOL    HW216847   2.233   4.744   6.027
 5083SOL     OW16848   2.428   4.261   6.451
 5083SOL    HW116849   2.440   4.327   6.377
 5083SOL    HW216850   2.474   4.295   6.534
 5084SOL     OW16851   3.114   5.072   5.974
 5084SOL    HW116852   3.164   5.149   6.014
 5084SOL    HW216853   3.019   5.074   6.006
 5085SOL     OW16854   3.134   5.169   6.728
 5085SOL    HW116855   3.181   5.182   6.815
 5085SOL    HW216856   3.068   5.095   6.737
 5086SOL     OW16857   3.444   4.363   6.058
 5086SOL    HW116858   3.413   4.424   6.131
 5086SOL    HW216859   3.494   4.415   5.989
 5087SOL     OW16860   2.216   5.234   6.915
 5087SOL    HW116861   2.195   5.190   6.828
 5087SOL    HW216862   2.313   5.260   6.918
 5088SOL     OW16863   3.222   4.586   6.631
 5088SOL    HW116864   3.147   4.586   6.565
 5088SOL    HW216865   3.259   4.494   6.640
 5089SOL     OW16866   3.071   4.249   5.861
 5089SOL    HW116867   3.084   4.165   5.915
 5089SOL    HW216868   3.042   4.323   5.921
 5090SOL     OW16869   2.169   3.937   6.817
 5090SOL    HW116870   2.146   3.974   6.907
 5090SOL    HW216871   2.139   3.842   6.811
 5091SOL     OW16872   2.594   4.358   6.650
 5091SOL    HW116873   2.653   4.332   6.574
 5091SOL    HW216874   2.566   4.454   6.639
 5092SOL     OW16875   2.169   3.787   6.204
 5092SOL    HW116876   2.158   3.881   6.237
 5092SOL    HW216877   2.164   3.724   6.281
 5093SOL     OW16878   3.484   4.091   5.960
 5093SOL    HW116879   3.486   4.015   6.024
 5093SOL    HW216880   3.436   4.168   6.000
 5094SOL     OW16881   2.885   4.490   6.552
 5094SOL    HW116882   2.900   4.511   6.648
 5094SOL    HW216883   2.855   4.395   6.543
 5095SOL     OW16884   3.402   3.998   5.711
 5095SOL    HW116885   3.341   3.923   5.734
 5095SOL    HW216886   3.424   4.050   5.794
 5096SOL     OW16887   3.165   4.562   5.628
 5096SOL    HW116888   3.199   4.469   5.643
 5096SOL    HW216889   3.183   4.589   5.533
 5097SOL     OW16890   2.930   5.057   6.435
 5097SOL    HW116891   2.937   4.973   6.380
 5097SOL    HW216892   2.992   5.126   6.399
 5098SOL     OW16893   2.181   4.534   6.535
 5098SOL    HW116894   2.274   4.570   6.540
 5098SOL    HW216895   2.175   4.449   6.587
 5099SOL     OW16896   2.201   4.233   6.592
 5099SOL    HW116897   2.149   4.150   6.575
 5099SOL    HW216898   2.278   4.238   6.528
 5100SOL     OW16899   3.022   3.931   7.063
 5100SOL    HW116900   3.022   3.995   7.140
 5100SOL    HW216901   3.050   3.979   6.980
 5101SOL     OW16902   1.870   5.050   5.786
 5101SOL    HW116903   1.777   5.071   5.755
 5101SOL    HW216904   1.880   4.951   5.799
 5102SOL     OW16905   1.950   5.525   6.513
 5102SOL    HW116906   1.908   5.439   6.486
 5102SOL    HW216907   2.044   5.528   6.479
 5103SOL     OW16908   2.366   5.292   6.496
 5103SOL    HW116909   2.432   5.366   6.505
 5103SOL    HW216910   2.410   5.213   6.454
 5104SOL     OW16911   2.864   4.520   6.824
 5104SOL    HW116912   2.905   4.488   6.910
 5104SOL    HW216913   2.768   4.493   6.821
 5105SOL     OW16914   1.902   4.268   6.700
 5105SOL    HW116915   1.987   4.235   6.659
 5105SOL    HW216916   1.915   4.283   6.798
 5106SOL     OW16917   2.677   4.296   5.911
 5106SOL    HW116918   2.684   4.207   5.865
 5106SOL    HW216919   2.583   4.330   5.903
 5107SOL     OW16920   3.519   4.328   6.792
 5107SOL    HW116921   3.481   4.259   6.854
 5107SOL    HW216922   3.601   4.292   6.748
 5108SOL     OW16923   2.533   4.188   6.855
 5108SOL    HW116924   2.499   4.099   6.825
 5108SOL    HW216925   2.559   4.242   6.775
 5109SOL     OW16926   2.792   5.402   7.051
 5109SOL    HW116927   2.768   5.384   6.956
 5109SOL    HW216928   2.822   5.496   7.061
 5110SOL     OW16929   2.335   4.224   5.777
 5110SOL    HW116930   2.396   4.304   5.781
 5110SOL    HW216931   2.240   4.255   5.784
 5111SOL     OW16932   2.021   4.861   7.052
 5111SOL    HW116933   2.043   4.800   7.128
 5111SOL    HW216934   2.031   4.812   6.966
 5112SOL     OW16935   3.209   4.783   6.820
 5112SOL    HW116936   3.233   4.720   6.746
 5112SOL    HW216937   3.119   4.823   6.802
 5113SOL     OW16938   3.164   4.579   5.895
 5113SOL    HW116939   3.078   4.548   5.937
 5113SOL    HW216940   3.160   4.565   5.796
 5114SOL     OW16941   3.621   5.471   6.740
 5114SOL    HW116942   3.682   5.501   6.667
 5114SOL    HW216943   3.583   5.382   6.718
 5115SOL     OW16944   3.114   5.455   6.714
 5115SOL    HW116945   3.198   5.460   6.660
 5115SOL    HW216946   3.091   5.359   6.732
 5116SOL     OW16947   3.588   3.859   6.109
 5116SOL    HW116948   3.661   3.842   6.042
 5116SOL    HW216949   3.557   3.772   6.147
 5117SOL     OW16950   3.250   5.297   6.063
 5117SOL    HW116951   3.317   5.309   5.989
 5117SOL    HW216952   3.210   5.386   6.086
 5118SOL     OW16953   3.142   4.651   6.258
 5118SOL    HW116954   3.202   4.570   6.260
 5118SOL    HW216955   3.182   4.720   6.198
 5119SOL     OW16956   3.703   3.899   6.549
 5119SOL    HW116957   3.742   3.814   6.513
 5119SOL    HW216958   3.605   3.901   6.530
 5120SOL     OW16959   2.125   4.050   6.306
 5120SOL    HW116960   2.046   4.101   6.272
 5120SOL    HW216961   2.116   4.035   6.404
 5121SOL     OW16962   3.056   5.336   5.617
 5121SOL    HW116963   3.062   5.243   5.654
 5121SOL    HW216964   2.997   5.336   5.537
 5122SOL     OW16965   2.684   4.726   6.958
 5122SOL    HW116966   2.724   4.725   6.866
 5122SOL    HW216967   2.694   4.818   6.998
 5123SOL     OW16968   2.778   4.634   5.877
 5123SOL    HW116969   2.841   4.672   5.809
 5123SOL    HW216970   2.818   4.551   5.916
 5124SOL     OW16971   3.366   5.331   5.630
 5124SOL    HW116972   3.274   5.368   5.637
 5124SOL    HW216973   3.404   5.351   5.540
 5125SOL     OW16974   3.476   5.016   6.875
 5125SOL    HW116975   3.536   5.019   6.955
 5125SOL    HW216976   3.401   5.080   6.888
 5126SOL     OW16977   2.901   4.822   6.282
 5126SOL    HW116978   2.831   4.775   6.336
 5126SOL    HW216979   2.960   4.754   6.239
 5127SOL     OW16980   2.876   3.960   6.557
 5127SOL    HW116981   2.868   3.924   6.464
 5127SOL    HW216982   2.874   3.884   6.622
 5128SOL     OW16983   3.571   4.109   6.967
 5128SOL    HW116984   3.644   4.178   6.971
 5128SOL    HW216985   3.599   4.034   6.908
 5129SOL     OW16986   2.117   5.072   5.876
 5129SOL    HW116987   2.021   5.073   5.849
 5129SOL    HW216988   2.129   5.125   5.960
 5130SOL     OW16989   2.534   3.927   7.075
 5130SOL    HW116990   2.624   3.911   7.035
 5130SOL    HW216991   2.542   3.932   7.174
 5131SOL     OW16992   1.937   4.069   5.619
 5131SOL    HW116993   1.845   4.041   5.590
 5131SOL    HW216994   1.968   4.146   5.563
 5132SOL     OW16995   1.934   3.890   5.904
 5132SOL    HW116996   1.917   3.973   5.850
 5132SOL    HW216997   2.024   3.853   5.882
 5133SOL     OW16998   3.045   5.059   5.705
 5133SOL    HW116999   2.946   5.048   5.707
 5133SOL    HW217000   3.079   5.074   5.798
 5134SOL     OW17001   3.355   5.491   6.545
 5134SOL    HW117002   3.388   5.555   6.476
 5134SOL    HW217003   3.421   5.485   6.620
 5135SOL     OW17004   3.312   4.944   7.219
 5135SOL    HW117005   3.303   4.934   7.318
 5135SOL    HW217006   3.408   4.937   7.193
 5136SOL     OW17007   2.252   5.465   7.146
 5136SOL    HW117008   2.161   5.506   7.144
 5136SOL    HW217009   2.245   5.371   7.178
 5137SOL     OW17010   3.536   4.607   6.840
 5137SOL    HW117011   3.509   4.518   6.803
 5137SOL    HW217012   3.537   4.675   6.767
 5138SOL     OW17013   3.087   4.049   6.035
 5138SOL    HW117014   3.152   3.975   6.024
 5138SOL    HW217015   3.107   4.099   6.119
 5139SOL     OW17016   2.456   4.469   6.238
 5139SOL    HW117017   2.506   4.554   6.219
 5139SOL    HW217018   2.368   4.471   6.190
 5140SOL     OW17019   3.592   4.658   7.103
 5140SOL    HW117020   3.630   4.749   7.118
 5140SOL    HW217021   3.584   4.641   7.004
 5141SOL     OW17022   2.523   5.514   6.539
 5141SOL    HW117023   2.477   5.602   6.526
 5141SOL    HW217024   2.622   5.526   6.532
 5142SOL     OW17025   2.721   4.680   6.447
 5142SOL    HW117026   2.775   4.611   6.495
 5142SOL    HW217027   2.689   4.749   6.513
 5143SOL     OW17028   2.945   4.708   5.673
 5143SOL    HW117029   2.922   4.761   5.591
 5143SOL    HW217030   3.026   4.652   5.654
 5144SOL     OW17031   3.723   5.293   6.437
 5144SOL    HW117032   3.652   5.281   6.367
 5144SOL    HW217033   3.724   5.214   6.497
 5145SOL     OW17034   1.941   4.964   6.239
 5145SOL    HW117035   1.940   4.917   6.327
 5145SOL    HW217036   2.023   4.936   6.188
 5146SOL     OW17037   3.686   3.916   6.813
 5146SOL    HW117038   3.682   3.826   6.857
 5146SOL    HW217039   3.689   3.905   6.714
 5147SOL     OW17040   2.290   4.148   6.106
 5147SOL    HW117041   2.320   4.076   6.044
 5147SOL    HW217042   2.251   4.108   6.189
 5148SOL     OW17043   3.567   5.211   6.690
 5148SOL    HW117044   3.474   5.186   6.663
 5148SOL    HW217045   3.593   5.161   6.772
 5149SOL     OW17046   2.179   4.271   6.866
 5149SOL    HW117047   2.217   4.212   6.938
 5149SOL    HW217048   2.219   4.245   6.778
 5150SOL     OW17049   2.674   5.310   6.273
 5150SOL    HW117050   2.706   5.320   6.179
 5150SOL    HW217051   2.595   5.248   6.275
 5151SOL     OW17052   3.286   3.938   6.698
 5151SOL    HW117053   3.338   3.873   6.753
 5151SOL    HW217054   3.237   4.001   6.759
 5152SOL     OW17055   2.863   3.758   6.740
 5152SOL    HW117056   2.800   3.686   6.709
 5152SOL    HW217057   2.956   3.722   6.740
 5153SOL     OW17058   2.632   5.054   5.887
 5153SOL    HW117059   2.586   4.967   5.904
 5153SOL    HW217060   2.723   5.051   5.928
 5154SOL     OW17061   3.214   3.776   5.754
 5154SOL    HW117062   3.249   3.735   5.670
 5154SOL    HW217063   3.124   3.738   5.774
 5155SOL     OW17064   3.162   4.177   6.277
 5155SOL    HW117065   3.103   4.257   6.281
 5155SOL    HW217066   3.177   4.142   6.370
 5156SOL     OW17067   3.455   3.945   6.468
 5156SOL    HW117068   3.371   3.944   6.522
 5156SOL    HW217069   3.457   4.028   6.412
 5157SOL     OW17070   1.901   4.801   5.886
 5157SOL    HW117071   2.000   4.790   5.877
 5157SOL    HW217072   1.861   4.715   5.918
 5158SOL     OW17073   2.737   5.370   5.923
 5158SOL    HW117074   2.660   5.335   5.869
 5158SOL    HW217075   2.705   5.441   5.985
 5159SOL     OW17076   2.092   6.214   0.113
 5159SOL    HW117077   1.999   6.212   0.150
 5159SOL    HW217078   2.093   6.175   0.021
 5160SOL     OW17079   2.087   5.861   0.996
 5160SOL    HW117080   2.122   5.844   1.088
 5160SOL    HW217081   1.999   5.816   0.984
 5161SOL     OW17082   1.881   5.954   0.647
 5161SOL    HW117083   1.799   5.997   0.686
 5161SOL    HW217084   1.853   5.881   0.584
 5162SOL     OW17085   2.431   6.861   1.165
 5162SOL    HW117086   2.338   6.854   1.128
 5162SOL    HW217087   2.442   6.950   1.209
 5163SOL     OW17088   3.417   7.097   0.703
 5163SOL    HW117089   3.360   7.081   0.784
 5163SOL    HW217090   3.358   7.107   0.623
 5164SOL     OW17091   2.997   6.289   0.717
 5164SOL    HW117092   3.054   6.367   0.692
 5164SOL    HW217093   2.937   6.315   0.793
 5165SOL     OW17094   3.617   6.193   0.231
 5165SOL    HW117095   3.605   6.180   0.132
 5165SOL    HW217096   3.587   6.112   0.280
 5166SOL     OW17097   2.630   6.730   1.023
 5166SOL    HW117098   2.552   6.747   1.083
 5166SOL    HW217099   2.664   6.817   0.987
 5167SOL     OW17100   2.712   6.384   1.823
 5167SOL    HW117101   2.708   6.460   1.888
 5167SOL    HW217102   2.734   6.420   1.732
 5168SOL     OW17103   2.547   6.598   0.665
 5168SOL    HW117104   2.616   6.582   0.735
 5168SOL    HW217105   2.474   6.655   0.703
 5169SOL     OW17106   2.548   6.747   1.803
 5169SOL    HW117107   2.608   6.826   1.817
 5169SOL    HW217108   2.462   6.778   1.762
 5170SOL     OW17109   2.197   7.021   1.061
 5170SOL    HW117110   2.119   6.990   1.008
 5170SOL    HW217111   2.255   7.079   1.004
 5171SOL     OW17112   2.300   5.978   1.499
 5171SOL    HW117113   2.382   5.922   1.508
 5171SOL    HW217114   2.219   5.920   1.503
 5172SOL     OW17115   3.465   6.033   0.737
 5172SOL    HW117116   3.391   6.079   0.687
 5172SOL    HW217117   3.516   6.101   0.790
 5173SOL     OW17118   2.102   6.677   0.886
 5173SOL    HW117119   2.116   6.593   0.938
 5173SOL    HW217120   2.047   6.741   0.941
 5174SOL     OW17121   2.468   6.550   0.123
 5174SOL    HW117122   2.475   6.634   0.069
 5174SOL    HW217123   2.514   6.563   0.211
 5175SOL     OW17124   1.984   6.229   0.563
 5175SOL    HW117125   1.939   6.141   0.580
 5175SOL    HW217126   1.983   6.283   0.647
 5176SOL     OW17127   3.551   6.508   0.612
 5176SOL    HW117128   3.646   6.479   0.620
 5176SOL    HW217129   3.543   6.573   0.537
 5177SOL     OW17130   3.503   6.694   0.432
 5177SOL    HW117131   3.589   6.696   0.380
 5177SOL    HW217132   3.517   6.741   0.520
 5178SOL     OW17133   1.975   6.323   1.597
 5178SOL    HW117134   2.063   6.310   1.642
 5178SOL    HW217135   1.962   6.420   1.575
 5179SOL     OW17136   3.155   6.814   1.423
 5179SOL    HW117137   3.192   6.741   1.365
 5179SOL    HW217138   3.207   6.819   1.508
 5180SOL     OW17139   2.671   5.590   0.502
 5180SOL    HW117140   2.711   5.681   0.493
 5180SOL    HW217141   2.571   5.598   0.508
 5181SOL     OW17142   2.059   6.562   1.264
 5181SOL    HW117143   2.148   6.517   1.250
 5181SOL    HW217144   1.986   6.497   1.245
 5182SOL     OW17145   3.387   6.585   0.190
 5182SOL    HW117146   3.324   6.509   0.203
 5182SOL    HW217147   3.435   6.603   0.276
 5183SOL     OW17148   2.179   5.837   1.801
 5183SOL    HW117149   2.250   5.908   1.807
 5183SOL    HW217150   2.091   5.876   1.829
 5184SOL     OW17151   3.328   7.003   0.953
 5184SOL    HW117152   3.269   7.009   1.033
 5184SOL    HW217153   3.313   6.915   0.907
 5185SOL     OW17154   2.460   6.315   0.270
 5185SOL    HW117155   2.484   6.384   0.202
 5185SOL    HW217156   2.382   6.348   0.324
 5186SOL     OW17157   2.669   6.191   1.465
 5186SOL    HW117158   2.622   6.188   1.554
 5186SOL    HW217159   2.618   6.136   1.399
 5187SOL     OW17160   2.835   6.476   1.572
 5187SOL    HW117161   2.881   6.392   1.543
 5187SOL    HW217162   2.779   6.510   1.497
 5188SOL     OW17163   2.853   5.996   1.242
 5188SOL    HW117164   2.776   6.030   1.296
 5188SOL    HW217165   2.819   5.945   1.163
 5189SOL     OW17166   2.903   6.287   0.429
 5189SOL    HW117167   2.929   6.283   0.525
 5189SOL    HW217168   2.818   6.236   0.415
 5190SOL     OW17169   1.938   6.397   0.789
 5190SOL    HW117170   2.037   6.385   0.798
 5190SOL    HW217171   1.914   6.492   0.810
 5191SOL     OW17172   2.727   5.934   0.195
 5191SOL    HW117173   2.786   5.997   0.146
 5191SOL    HW217174   2.746   5.840   0.166
 5192SOL     OW17175   3.581   6.171   1.831
 5192SOL    HW117176   3.555   6.260   1.795
 5192SOL    HW217177   3.579   6.103   1.758
 5193SOL     OW17178   3.224   6.730   0.545
 5193SOL    HW117179   3.307   6.701   0.497
 5193SOL    HW217180   3.175   6.797   0.489
 5194SOL     OW17181   2.412   5.782   0.885
 5194SOL    HW117182   2.407   5.777   0.985
 5194SOL    HW217183   2.414   5.878   0.856
 5195SOL     OW17184   3.657   6.652   0.873
 5195SOL    HW117185   3.595   6.637   0.797
 5195SOL    HW217186   3.605   6.663   0.958
 5196SOL     OW17187   2.183   6.529   0.242
 5196SOL    HW117188   2.265   6.568   0.200
 5196SOL    HW217189   2.156   6.447   0.193
 5197SOL     OW17190   3.320   6.321   0.728
 5197SOL    HW117191   3.315   6.256   0.803
 5197SOL    HW217192   3.400   6.380   0.741
 5198SOL     OW17193   2.064   5.871   1.498
 5198SOL    HW117194   1.984   5.931   1.485
 5198SOL    HW217195   2.054   5.822   1.584
 5199SOL     OW17196   3.494   6.963   0.081
 5199SOL    HW117197   3.462   7.057   0.071
 5199SOL    HW217198   3.418   6.900   0.069
 5200SOL     OW17199   2.244   6.286   0.480
 5200SOL    HW117200   2.289   6.196   0.477
 5200SOL    HW217201   2.150   6.275   0.513
 5201SOL     OW17202   2.784   6.089   0.899
 5201SOL    HW117203   2.759   6.080   0.803
 5201SOL    HW217204   2.832   6.007   0.930
 5202SOL     OW17205   2.401   5.650   0.512
 5202SOL    HW117206   2.320   5.651   0.570
 5202SOL    HW217207   2.404   5.733   0.457
 5203SOL     OW17208   3.296   6.774   0.041
 5203SOL    HW117209   3.328   6.698   0.098
 5203SOL    HW217210   3.204   6.801   0.071
 5204SOL     OW17211   2.797   5.822   0.480
 5204SOL    HW117212   2.749   5.863   0.402
 5204SOL    HW217213   2.896   5.820   0.461
 5205SOL     OW17214   2.938   6.269   1.464
 5205SOL    HW117215   2.858   6.208   1.467
 5205SOL    HW217216   3.019   6.216   1.440
 5206SOL     OW17217   3.089   7.156   0.793
 5206SOL    HW117218   3.110   7.230   0.728
 5206SOL    HW217219   3.157   7.156   0.866
 5207SOL     OW17220   2.321   6.738   0.741
 5207SOL    HW117221   2.250   6.711   0.806
 5207SOL    HW217222   2.295   6.710   0.648
 5208SOL     OW17223   2.894   6.135   0.016
 5208SOL    HW117224   2.853   6.217  -0.023
 5208SOL    HW217225   2.958   6.161   0.089
 5209SOL     OW17226   1.940   6.142   1.386
 5209SOL    HW117227   2.032   6.141   1.345
 5209SOL    HW217228   1.934   6.216   1.453
 5210SOL     OW17229   2.423   5.808   1.147
 5210SOL    HW117230   2.461   5.724   1.184
 5210SOL    HW217231   2.335   5.827   1.191
 5211SOL     OW17232   2.728   6.040   0.642
 5211SOL    HW117233   2.696   6.112   0.580
 5211SOL    HW217234   2.752   5.959   0.589
 5212SOL     OW17235   2.879   5.625   0.753
 5212SOL    HW117236   2.807   5.630   0.684
 5212SOL    HW217237   2.855   5.556   0.822
 5213SOL     OW17238   3.291   6.759   0.867
 5213SOL    HW117239   3.236   6.675   0.860
 5213SOL    HW217240   3.317   6.788   0.775
 5214SOL     OW17241   3.328   6.176   0.992
 5214SOL    HW117242   3.298   6.081   0.999
 5214SOL    HW217243   3.401   6.192   1.058
 5215SOL     OW17244   3.719   6.419   0.377
 5215SOL    HW117245   3.761   6.355   0.441
 5215SOL    HW217246   3.681   6.368   0.299
 5216SOL     OW17247   3.526   6.866   0.657
 5216SOL    HW117248   3.625   6.874   0.671
 5216SOL    HW217249   3.481   6.950   0.688
 5217SOL     OW17250   3.252   6.161   0.078
 5217SOL    HW117251   3.198   6.140   0.159
 5217SOL    HW217252   3.343   6.120   0.087
 5218SOL     OW17253   2.389   5.842   0.328
 5218SOL    HW117254   2.416   5.783   0.253
 5218SOL    HW217255   2.389   5.937   0.297
 5219SOL     OW17256   3.616   6.809   1.588
 5219SOL    HW117257   3.707   6.770   1.575
 5219SOL    HW217258   3.624   6.905   1.612
 5220SOL     OW17259   2.926   6.933   1.340
 5220SOL    HW117260   2.846   6.910   1.395
 5220SOL    HW217261   3.009   6.907   1.389
 5221SOL     OW17262   2.973   6.781   1.100
 5221SOL    HW117263   2.933   6.825   1.181
 5221SOL    HW217264   2.932   6.818   1.017
 5222SOL     OW17265   3.500   6.685   1.079
 5222SOL    HW117266   3.505   6.766   1.138
 5222SOL    HW217267   3.414   6.687   1.028
 5223SOL     OW17268   2.777   5.675   1.402
 5223SOL    HW117269   2.802   5.655   1.307
 5223SOL    HW217270   2.849   5.731   1.444
 5224SOL     OW17271   2.842   6.702   1.719
 5224SOL    HW117272   2.743   6.708   1.729
 5224SOL    HW217273   2.865   6.622   1.663
 5225SOL     OW17274   2.567   6.636   0.368
 5225SOL    HW117275   2.553   6.643   0.467
 5225SOL    HW217276   2.651   6.585   0.350
 5226SOL     OW17277   2.272   6.399   1.251
 5226SOL    HW117278   2.358   6.411   1.301
 5226SOL    HW217279   2.230   6.312   1.278
 5227SOL     OW17280   2.229   6.686   0.501
 5227SOL    HW117281   2.222   6.769   0.445
 5227SOL    HW217282   2.233   6.606   0.441
 5228SOL     OW17283   2.428   6.123   0.865
 5228SOL    HW117284   2.440   6.189   0.791
 5228SOL    HW217285   2.474   6.157   0.948
 5229SOL     OW17286   3.444   6.225   0.472
 5229SOL    HW117287   3.413   6.286   0.545
 5229SOL    HW217288   3.494   6.277   0.403
 5230SOL     OW17289   2.264   6.337   1.598
 5230SOL    HW117290   2.332   6.392   1.551
 5230SOL    HW217291   2.304   6.249   1.625
 5231SOL     OW17292   3.449   6.365   1.670
 5231SOL    HW117293   3.357   6.403   1.665
 5231SOL    HW217294   3.509   6.412   1.605
 5232SOL     OW17295   2.435   6.456   1.029
 5232SOL    HW117296   2.479   6.545   1.020
 5232SOL    HW217297   2.372   6.456   1.106
 5233SOL     OW17298   3.222   6.448   1.045
 5233SOL    HW117299   3.147   6.448   0.979
 5233SOL    HW217300   3.259   6.356   1.054
 5234SOL     OW17301   3.071   6.111   0.275
 5234SOL    HW117302   3.084   6.027   0.329
 5234SOL    HW217303   3.042   6.185   0.335
 5235SOL     OW17304   2.169   5.799   1.231
 5235SOL    HW117305   2.146   5.836   1.321
 5235SOL    HW217306   2.139   5.704   1.225
 5236SOL     OW17307   1.899   6.896   1.282
 5236SOL    HW117308   1.952   6.847   1.350
 5236SOL    HW217309   1.921   6.994   1.287
 5237SOL     OW17310   2.594   6.220   1.064
 5237SOL    HW117311   2.653   6.194   0.988
 5237SOL    HW217312   2.566   6.316   1.053
 5238SOL     OW17313   3.590   6.521   1.854
 5238SOL    HW117314   3.544   6.514   1.765
 5238SOL    HW217315   3.528   6.565   1.920
 5239SOL     OW17316   2.169   5.649   0.618
 5239SOL    HW117317   2.158   5.743   0.651
 5239SOL    HW217318   2.164   5.586   0.695
 5240SOL     OW17319   3.484   5.953   0.374
 5240SOL    HW117320   3.486   5.877   0.438
 5240SOL    HW217321   3.436   6.030   0.414
 5241SOL     OW17322   2.885   6.352   0.966
 5241SOL    HW117323   2.900   6.373   1.062
 5241SOL    HW217324   2.855   6.257   0.957
 5242SOL     OW17325   3.721   7.104   1.605
 5242SOL    HW117326   3.735   7.131   1.510
 5242SOL    HW217327   3.804   7.126   1.658
 5243SOL     OW17328   2.212   6.484   1.804
 5243SOL    HW117329   2.288   6.528   1.852
 5243SOL    HW217330   2.247   6.437   1.722
 5244SOL     OW17331   3.402   5.860   0.125
 5244SOL    HW117332   3.341   5.785   0.148
 5244SOL    HW217333   3.424   5.912   0.208
 5245SOL     OW17334   3.165   6.424   0.042
 5245SOL    HW117335   3.199   6.331   0.057
 5245SOL    HW217336   3.183   6.451  -0.053
 5246SOL     OW17337   2.181   6.396   0.949
 5246SOL    HW117338   2.274   6.432   0.954
 5246SOL    HW217339   2.175   6.311   1.001
 5247SOL     OW17340   2.201   6.095   1.006
 5247SOL    HW117341   2.149   6.012   0.989
 5247SOL    HW217342   2.278   6.100   0.942
 5248SOL     OW17343   3.022   5.793   1.477
 5248SOL    HW117344   3.022   5.857   1.554
 5248SOL    HW217345   3.050   5.841   1.394
 5249SOL     OW17346   2.864   6.382   1.238
 5249SOL    HW117347   2.905   6.350   1.324
 5249SOL    HW217348   2.768   6.355   1.235
 5250SOL     OW17349   1.902   6.130   1.114
 5250SOL    HW117350   1.987   6.097   1.073
 5250SOL    HW217351   1.915   6.145   1.212
 5251SOL     OW17352   2.051   6.106   1.722
 5251SOL    HW117353   2.110   6.066   1.652
 5251SOL    HW217354   1.993   6.177   1.681
 5252SOL     OW17355   3.231   6.536   1.660
 5252SOL    HW117356   3.270   6.625   1.680
 5252SOL    HW217357   3.241   6.516   1.563
 5253SOL     OW17358   2.677   6.158   0.325
 5253SOL    HW117359   2.684   6.069   0.279
 5253SOL    HW217360   2.583   6.192   0.317
 5254SOL     OW17361   2.533   6.050   1.269
 5254SOL    HW117362   2.499   5.961   1.239
 5254SOL    HW217363   2.559   6.104   1.189
 5255SOL     OW17364   2.335   6.086   0.191
 5255SOL    HW117365   2.396   6.166   0.195
 5255SOL    HW217366   2.240   6.117   0.198
 5256SOL     OW17367   2.021   6.723   1.466
 5256SOL    HW117368   2.043   6.662   1.542
 5256SOL    HW217369   2.031   6.674   1.380
 5257SOL     OW17370   3.209   6.645   1.234
 5257SOL    HW117371   3.233   6.582   1.160
 5257SOL    HW217372   3.119   6.685   1.216
 5258SOL     OW17373   3.164   6.441   0.309
 5258SOL    HW117374   3.078   6.410   0.351
 5258SOL    HW217375   3.160   6.427   0.210
 5259SOL     OW17376   1.945   6.844   1.022
 5259SOL    HW117377   1.940   6.843   1.122
 5259SOL    HW217378   1.862   6.803   0.984
 5260SOL     OW17379   2.765   5.672   0.133
 5260SOL    HW117380   2.816   5.673   0.047
 5260SOL    HW217381   2.821   5.630   0.204
 5261SOL     OW17382   3.588   5.721   0.523
 5261SOL    HW117383   3.661   5.704   0.456
 5261SOL    HW217384   3.557   5.634   0.561
 5262SOL     OW17385   3.142   6.513   0.672
 5262SOL    HW117386   3.202   6.432   0.674
 5262SOL    HW217387   3.182   6.582   0.612
 5263SOL     OW17388   2.692   6.859   1.422
 5263SOL    HW117389   2.687   6.892   1.517
 5263SOL    HW217390   2.606   6.878   1.376
 5264SOL     OW17391   3.703   5.761   0.963
 5264SOL    HW117392   3.742   5.676   0.927
 5264SOL    HW217393   3.605   5.763   0.944
 5265SOL     OW17394   2.125   5.912   0.720
 5265SOL    HW117395   2.046   5.963   0.686
 5265SOL    HW217396   2.116   5.897   0.818
 5266SOL     OW17397   2.684   6.588   1.372
 5266SOL    HW117398   2.724   6.587   1.280
 5266SOL    HW217399   2.694   6.680   1.412
 5267SOL     OW17400   2.778   6.496   0.291
 5267SOL    HW117401   2.841   6.534   0.223
 5267SOL    HW217402   2.818   6.413   0.330
 5268SOL     OW17403   2.234   6.874   1.490
 5268SOL    HW117404   2.221   6.967   1.456
 5268SOL    HW217405   2.150   6.822   1.477
 5269SOL     OW17406   3.476   6.878   1.289
 5269SOL    HW117407   3.536   6.881   1.369
 5269SOL    HW217408   3.401   6.942   1.302
 5270SOL     OW17409   2.901   6.684   0.696
 5270SOL    HW117410   2.831   6.637   0.750
 5270SOL    HW217411   2.960   6.616   0.653
 5271SOL     OW17412   1.967   6.599   1.726
 5271SOL    HW117413   1.890   6.566   1.780
 5271SOL    HW217414   2.052   6.569   1.768
 5272SOL     OW17415   2.534   5.789   1.489
 5272SOL    HW117416   2.624   5.773   1.449
 5272SOL    HW217417   2.542   5.794   1.588
 5273SOL     OW17418   1.937   5.931   0.033
 5273SOL    HW117419   1.845   5.903   0.004
 5273SOL    HW217420   1.968   6.008  -0.023
 5274SOL     OW17421   3.302   6.442   1.398
 5274SOL    HW117422   3.245   6.494   1.335
 5274SOL    HW217423   3.398   6.454   1.374
 5275SOL     OW17424   1.934   5.752   0.318
 5275SOL    HW117425   1.917   5.835   0.264
 5275SOL    HW217426   2.024   5.715   0.296
 5276SOL     OW17427   2.475   6.428   1.431
 5276SOL    HW117428   2.531   6.509   1.414
 5276SOL    HW217429   2.534   6.348   1.434
 5277SOL     OW17430   2.578   6.151   1.708
 5277SOL    HW117431   2.597   6.216   1.782
 5277SOL    HW217432   2.638   6.071   1.717
 5278SOL     OW17433   3.312   6.806   1.633
 5278SOL    HW117434   3.303   6.796   1.732
 5278SOL    HW217435   3.408   6.799   1.607
 5279SOL     OW17436   3.536   6.469   1.254
 5279SOL    HW117437   3.509   6.380   1.217
 5279SOL    HW217438   3.537   6.537   1.181
 5280SOL     OW17439   3.087   5.911   0.449
 5280SOL    HW117440   3.152   5.837   0.438
 5280SOL    HW217441   3.107   5.961   0.533
 5281SOL     OW17442   2.456   6.331   0.652
 5281SOL    HW117443   2.506   6.416   0.633
 5281SOL    HW217444   2.368   6.333   0.604
 5282SOL     OW17445   3.639   5.928   1.642
 5282SOL    HW117446   3.622   5.959   1.548
 5282SOL    HW217447   3.555   5.891   1.680
 5283SOL     OW17448   3.592   6.520   1.517
 5283SOL    HW117449   3.630   6.611   1.532
 5283SOL    HW217450   3.584   6.503   1.418
 5284SOL     OW17451   2.721   6.542   0.861
 5284SOL    HW117452   2.775   6.473   0.909
 5284SOL    HW217453   2.689   6.611   0.927
 5285SOL     OW17454   2.945   6.570   0.087
 5285SOL    HW117455   2.922   6.623   0.005
 5285SOL    HW217456   3.026   6.514   0.068
 5286SOL     OW17457   2.083   6.900   1.844
 5286SOL    HW117458   2.018   6.827   1.823
 5286SOL    HW217459   2.087   6.914   1.942
 5287SOL     OW17460   1.941   6.826   0.653
 5287SOL    HW117461   1.940   6.779   0.741
 5287SOL    HW217462   2.023   6.798   0.602
 5288SOL     OW17463   2.534   6.977   1.624
 5288SOL    HW117464   2.456   6.927   1.662
 5288SOL    HW217465   2.531   7.072   1.655
 5289SOL     OW17466   3.686   5.778   1.227
 5289SOL    HW117467   3.682   5.688   1.271
 5289SOL    HW217468   3.689   5.767   1.128
 5290SOL     OW17469   2.290   6.010   0.520
 5290SOL    HW117470   2.320   5.938   0.458
 5290SOL    HW217471   2.251   5.970   0.603
 5291SOL     OW17472   3.567   7.073   1.104
 5291SOL    HW117473   3.474   7.048   1.077
 5291SOL    HW217474   3.593   7.023   1.186
 5292SOL     OW17475   2.179   6.133   1.280
 5292SOL    HW117476   2.217   6.074   1.352
 5292SOL    HW217477   2.219   6.107   1.192
 5293SOL     OW17478   2.863   5.620   1.154
 5293SOL    HW117479   2.800   5.548   1.123
 5293SOL    HW217480   2.956   5.584   1.154
 5294SOL     OW17481   2.632   6.916   0.301
 5294SOL    HW117482   2.586   6.829   0.318
 5294SOL    HW217483   2.723   6.913   0.342
 5295SOL     OW17484   3.214   5.638   0.168
 5295SOL    HW117485   3.249   5.597   0.084
 5295SOL    HW217486   3.124   5.600   0.188
 5296SOL     OW17487   3.162   6.039   0.691
 5296SOL    HW117488   3.103   6.119   0.695
 5296SOL    HW217489   3.177   6.004   0.784
 5297SOL     OW17490   3.455   5.807   0.882
 5297SOL    HW117491   3.371   5.806   0.936
 5297SOL    HW217492   3.457   5.890   0.826
 5298SOL     OW17493   1.901   6.663   0.300
 5298SOL    HW117494   2.000   6.652   0.291
 5298SOL    HW217495   1.861   6.577   0.332
 5299SOL     OW17496   2.092   6.214   1.975
 5299SOL    HW117497   1.999   6.212   2.012
 5299SOL    HW217498   2.093   6.175   1.883
 5300SOL     OW17499   2.087   5.861   2.858
 5300SOL    HW117500   2.122   5.844   2.950
 5300SOL    HW217501   1.999   5.816   2.846
 5301SOL     OW17502   1.881   5.954   2.509
 5301SOL    HW117503   1.799   5.997   2.548
 5301SOL    HW217504   1.853   5.881   2.446
 5302SOL     OW17505   2.431   6.861   3.027
 5302SOL    HW117506   2.338   6.854   2.990
 5302SOL    HW217507   2.442   6.950   3.071
 5303SOL     OW17508   3.417   7.097   2.565
 5303SOL    HW117509   3.360   7.081   2.646
 5303SOL    HW217510   3.358   7.107   2.485
 5304SOL     OW17511   2.997   6.289   2.579
 5304SOL    HW117512   3.054   6.367   2.554
 5304SOL    HW217513   2.937   6.315   2.655
 5305SOL     OW17514   3.617   6.193   2.093
 5305SOL    HW117515   3.605   6.180   1.994
 5305SOL    HW217516   3.587   6.112   2.142
 5306SOL     OW17517   2.630   6.730   2.885
 5306SOL    HW117518   2.552   6.747   2.945
 5306SOL    HW217519   2.664   6.817   2.849
 5307SOL     OW17520   2.712   6.384   3.685
 5307SOL    HW117521   2.708   6.460   3.750
 5307SOL    HW217522   2.734   6.420   3.594
 5308SOL     OW17523   2.547   6.598   2.527
 5308SOL    HW117524   2.616   6.582   2.597
 5308SOL    HW217525   2.474   6.655   2.565
 5309SOL     OW17526   2.548   6.747   3.665
 5309SOL    HW117527   2.608   6.826   3.679
 5309SOL    HW217528   2.462   6.778   3.624
 5310SOL     OW17529   2.197   7.021   2.923
 5310SOL    HW117530   2.119   6.990   2.870
 5310SOL    HW217531   2.255   7.079   2.866
 5311SOL     OW17532   2.300   5.978   3.361
 5311SOL    HW117533   2.382   5.922   3.370
 5311SOL    HW217534   2.219   5.920   3.365
 5312SOL     OW17535   3.465   6.033   2.599
 5312SOL    HW117536   3.391   6.079   2.549
 5312SOL    HW217537   3.516   6.101   2.652
 5313SOL     OW17538   2.102   6.677   2.748
 5313SOL    HW117539   2.116   6.593   2.800
 5313SOL    HW217540   2.047   6.741   2.803
 5314SOL     OW17541   2.468   6.550   1.985
 5314SOL    HW117542   2.475   6.634   1.931
 5314SOL    HW217543   2.514   6.563   2.073
 5315SOL     OW17544   3.456   5.700   3.342
 5315SOL    HW117545   3.438   5.767   3.270
 5315SOL    HW217546   3.453   5.746   3.431
 5316SOL     OW17547   1.984   6.229   2.425
 5316SOL    HW117548   1.939   6.141   2.442
 5316SOL    HW217549   1.983   6.283   2.509
 5317SOL     OW17550   3.551   6.508   2.474
 5317SOL    HW117551   3.646   6.479   2.482
 5317SOL    HW217552   3.543   6.573   2.399
 5318SOL     OW17553   3.503   6.694   2.294
 5318SOL    HW117554   3.589   6.696   2.242
 5318SOL    HW217555   3.517   6.741   2.382
 5319SOL     OW17556   1.975   6.323   3.459
 5319SOL    HW117557   2.063   6.310   3.504
 5319SOL    HW217558   1.962   6.420   3.437
 5320SOL     OW17559   3.155   6.814   3.285
 5320SOL    HW117560   3.192   6.741   3.227
 5320SOL    HW217561   3.207   6.819   3.370
 5321SOL     OW17562   2.671   5.590   2.364
 5321SOL    HW117563   2.711   5.681   2.355
 5321SOL    HW217564   2.571   5.598   2.370
 5322SOL     OW17565   2.059   6.562   3.126
 5322SOL    HW117566   2.148   6.517   3.112
 5322SOL    HW217567   1.986   6.497   3.107
 5323SOL     OW17568   3.387   6.585   2.052
 5323SOL    HW117569   3.324   6.509   2.065
 5323SOL    HW217570   3.435   6.603   2.138
 5324SOL     OW17571   2.179   5.837   3.663
 5324SOL    HW117572   2.250   5.908   3.669
 5324SOL    HW217573   2.091   5.876   3.691
 5325SOL     OW17574   3.328   7.003   2.815
 5325SOL    HW117575   3.269   7.009   2.895
 5325SOL    HW217576   3.313   6.915   2.769
 5326SOL     OW17577   2.460   6.315   2.132
 5326SOL    HW117578   2.484   6.384   2.064
 5326SOL    HW217579   2.382   6.348   2.186
 5327SOL     OW17580   2.669   6.191   3.327
 5327SOL    HW117581   2.622   6.188   3.416
 5327SOL    HW217582   2.618   6.136   3.261
 5328SOL     OW17583   2.903   6.287   2.291
 5328SOL    HW117584   2.929   6.283   2.387
 5328SOL    HW217585   2.818   6.236   2.277
 5329SOL     OW17586   1.938   6.397   2.651
 5329SOL    HW117587   2.037   6.385   2.660
 5329SOL    HW217588   1.914   6.492   2.672
 5330SOL     OW17589   3.581   6.171   3.693
 5330SOL    HW117590   3.555   6.260   3.657
 5330SOL    HW217591   3.579   6.103   3.620
 5331SOL     OW17592   3.224   6.730   2.407
 5331SOL    HW117593   3.307   6.701   2.359
 5331SOL    HW217594   3.175   6.797   2.351
 5332SOL     OW17595   2.412   5.782   2.747
 5332SOL    HW117596   2.407   5.777   2.847
 5332SOL    HW217597   2.414   5.878   2.718
 5333SOL     OW17598   3.657   6.652   2.735
 5333SOL    HW117599   3.595   6.637   2.659
 5333SOL    HW217600   3.605   6.663   2.820
 5334SOL     OW17601   2.183   6.529   2.104
 5334SOL    HW117602   2.265   6.568   2.062
 5334SOL    HW217603   2.156   6.447   2.055
 5335SOL     OW17604   3.320   6.321   2.590
 5335SOL    HW117605   3.315   6.256   2.665
 5335SOL    HW217606   3.400   6.380   2.603
 5336SOL     OW17607   2.064   5.871   3.360
 5336SOL    HW117608   1.984   5.931   3.347
 5336SOL    HW217609   2.054   5.822   3.446
 5337SOL     OW17610   3.494   6.963   1.943
 5337SOL    HW117611   3.462   7.057   1.933
 5337SOL    HW217612   3.418   6.900   1.931
 5338SOL     OW17613   2.244   6.286   2.342
 5338SOL    HW117614   2.289   6.196   2.339
 5338SOL    HW217615   2.150   6.275   2.375
 5339SOL     OW17616   2.643   5.850   3.611
 5339SOL    HW117617   2.710   5.789   3.654
 5339SOL    HW217618   2.570   5.869   3.676
 5340SOL     OW17619   3.213   6.176   3.295
 5340SOL    HW117620   3.241   6.133   3.380
 5340SOL    HW217621   3.238   6.272   3.296
 5341SOL     OW17622   2.784   6.089   2.761
 5341SOL    HW117623   2.759   6.080   2.665
 5341SOL    HW217624   2.832   6.007   2.792
 5342SOL     OW17625   2.401   5.650   2.374
 5342SOL    HW117626   2.320   5.651   2.432
 5342SOL    HW217627   2.404   5.733   2.319
 5343SOL     OW17628   3.296   6.774   1.903
 5343SOL    HW117629   3.328   6.698   1.960
 5343SOL    HW217630   3.204   6.801   1.933
 5344SOL     OW17631   3.089   7.156   2.655
 5344SOL    HW117632   3.110   7.230   2.590
 5344SOL    HW217633   3.157   7.156   2.728
 5345SOL     OW17634   2.321   6.738   2.603
 5345SOL    HW117635   2.250   6.711   2.668
 5345SOL    HW217636   2.295   6.710   2.510
 5346SOL     OW17637   1.940   6.142   3.248
 5346SOL    HW117638   2.032   6.141   3.207
 5346SOL    HW217639   1.934   6.216   3.315
 5347SOL     OW17640   2.423   5.808   3.009
 5347SOL    HW117641   2.461   5.724   3.046
 5347SOL    HW217642   2.335   5.827   3.053
 5348SOL     OW17643   2.728   6.040   2.504
 5348SOL    HW117644   2.696   6.112   2.442
 5348SOL    HW217645   2.752   5.959   2.451
 5349SOL     OW17646   2.879   5.625   2.615
 5349SOL    HW117647   2.807   5.630   2.546
 5349SOL    HW217648   2.855   5.556   2.684
 5350SOL     OW17649   3.291   6.759   2.729
 5350SOL    HW117650   3.236   6.675   2.722
 5350SOL    HW217651   3.317   6.788   2.637
 5351SOL     OW17652   3.719   6.419   2.239
 5351SOL    HW117653   3.761   6.355   2.303
 5351SOL    HW217654   3.681   6.368   2.161
 5352SOL     OW17655   3.526   6.866   2.519
 5352SOL    HW117656   3.625   6.874   2.533
 5352SOL    HW217657   3.481   6.950   2.550
 5353SOL     OW17658   3.252   6.161   1.940
 5353SOL    HW117659   3.198   6.140   2.021
 5353SOL    HW217660   3.343   6.120   1.949
 5354SOL     OW17661   3.616   6.809   3.450
 5354SOL    HW117662   3.707   6.770   3.437
 5354SOL    HW217663   3.624   6.905   3.474
 5355SOL     OW17664   2.926   6.933   3.202
 5355SOL    HW117665   2.846   6.910   3.257
 5355SOL    HW217666   3.009   6.907   3.251
 5356SOL     OW17667   2.973   6.781   2.962
 5356SOL    HW117668   2.933   6.825   3.043
 5356SOL    HW217669   2.932   6.818   2.879
 5357SOL     OW17670   3.500   6.685   2.941
 5357SOL    HW117671   3.505   6.766   3.000
 5357SOL    HW217672   3.414   6.687   2.890
 5358SOL     OW17673   2.567   6.636   2.230
 5358SOL    HW117674   2.553   6.643   2.329
 5358SOL    HW217675   2.651   6.585   2.212
 5359SOL     OW17676   2.272   6.399   3.113
 5359SOL    HW117677   2.358   6.411   3.163
 5359SOL    HW217678   2.230   6.312   3.140
 5360SOL     OW17679   2.229   6.686   2.363
 5360SOL    HW117680   2.222   6.769   2.307
 5360SOL    HW217681   2.233   6.606   2.303
 5361SOL     OW17682   2.428   6.123   2.727
 5361SOL    HW117683   2.440   6.189   2.653
 5361SOL    HW217684   2.474   6.157   2.810
 5362SOL     OW17685   3.444   6.225   2.334
 5362SOL    HW117686   3.413   6.286   2.407
 5362SOL    HW217687   3.494   6.277   2.265
 5363SOL     OW17688   2.264   6.337   3.460
 5363SOL    HW117689   2.332   6.392   3.413
 5363SOL    HW217690   2.304   6.249   3.487
 5364SOL     OW17691   3.449   6.365   3.532
 5364SOL    HW117692   3.357   6.403   3.527
 5364SOL    HW217693   3.509   6.412   3.467
 5365SOL     OW17694   2.875   5.691   3.632
 5365SOL    HW117695   2.881   5.776   3.580
 5365SOL    HW217696   2.907   5.615   3.575
 5366SOL     OW17697   2.366   5.636   3.602
 5366SOL    HW117698   2.324   5.579   3.532
 5366SOL    HW217699   2.300   5.705   3.634
 5367SOL     OW17700   2.435   6.456   2.891
 5367SOL    HW117701   2.479   6.545   2.882
 5367SOL    HW217702   2.372   6.456   2.968
 5368SOL     OW17703   3.222   6.448   2.907
 5368SOL    HW117704   3.147   6.448   2.841
 5368SOL    HW217705   3.259   6.356   2.916
 5369SOL     OW17706   2.169   5.799   3.093
 5369SOL    HW117707   2.146   5.836   3.183
 5369SOL    HW217708   2.139   5.704   3.087
 5370SOL     OW17709   1.899   6.896   3.144
 5370SOL    HW117710   1.952   6.847   3.212
 5370SOL    HW217711   1.921   6.994   3.149
 5371SOL     OW17712   2.594   6.220   2.926
 5371SOL    HW117713   2.653   6.194   2.850
 5371SOL    HW217714   2.566   6.316   2.915
 5372SOL     OW17715   3.590   6.521   3.716
 5372SOL    HW117716   3.544   6.514   3.627
 5372SOL    HW217717   3.528   6.565   3.782
 5373SOL     OW17718   2.169   5.649   2.480
 5373SOL    HW117719   2.158   5.743   2.513
 5373SOL    HW217720   2.164   5.586   2.557
 5374SOL     OW17721   2.885   6.352   2.828
 5374SOL    HW117722   2.900   6.373   2.924
 5374SOL    HW217723   2.855   6.257   2.819
 5375SOL     OW17724   2.212   6.484   3.666
 5375SOL    HW117725   2.288   6.528   3.714
 5375SOL    HW217726   2.247   6.437   3.584
 5376SOL     OW17727   3.402   5.860   1.987
 5376SOL    HW117728   3.341   5.785   2.010
 5376SOL    HW217729   3.424   5.912   2.070
 5377SOL     OW17730   3.165   6.424   1.904
 5377SOL    HW117731   3.199   6.331   1.919
 5377SOL    HW217732   3.183   6.451   1.809
 5378SOL     OW17733   2.181   6.396   2.811
 5378SOL    HW117734   2.274   6.432   2.816
 5378SOL    HW217735   2.175   6.311   2.863
 5379SOL     OW17736   2.201   6.095   2.868
 5379SOL    HW117737   2.149   6.012   2.851
 5379SOL    HW217738   2.278   6.100   2.804
 5380SOL     OW17739   1.870   6.912   2.062
 5380SOL    HW117740   1.777   6.933   2.031
 5380SOL    HW217741   1.880   6.813   2.075
 5381SOL     OW17742   1.902   6.130   2.976
 5381SOL    HW117743   1.987   6.097   2.935
 5381SOL    HW217744   1.915   6.145   3.074
 5382SOL     OW17745   2.051   6.106   3.584
 5382SOL    HW117746   2.110   6.066   3.514
 5382SOL    HW217747   1.993   6.177   3.543
 5383SOL     OW17748   3.231   6.536   3.522
 5383SOL    HW117749   3.270   6.625   3.542
 5383SOL    HW217750   3.241   6.516   3.425
 5384SOL     OW17751   2.677   6.158   2.187
 5384SOL    HW117752   2.684   6.069   2.141
 5384SOL    HW217753   2.583   6.192   2.179
 5385SOL     OW17754   3.519   6.190   3.068
 5385SOL    HW117755   3.481   6.121   3.130
 5385SOL    HW217756   3.601   6.154   3.024
 5386SOL     OW17757   2.533   6.050   3.131
 5386SOL    HW117758   2.499   5.961   3.101
 5386SOL    HW217759   2.559   6.104   3.051
 5387SOL     OW17760   2.335   6.086   2.053
 5387SOL    HW117761   2.396   6.166   2.057
 5387SOL    HW217762   2.240   6.117   2.060
 5388SOL     OW17763   2.021   6.723   3.328
 5388SOL    HW117764   2.043   6.662   3.404
 5388SOL    HW217765   2.031   6.674   3.242
 5389SOL     OW17766   3.209   6.645   3.096
 5389SOL    HW117767   3.233   6.582   3.022
 5389SOL    HW217768   3.119   6.685   3.078
 5390SOL     OW17769   1.945   6.844   2.884
 5390SOL    HW117770   1.940   6.843   2.984
 5390SOL    HW217771   1.862   6.803   2.846
 5391SOL     OW17772   3.588   5.721   2.385
 5391SOL    HW117773   3.661   5.704   2.318
 5391SOL    HW217774   3.557   5.634   2.423
 5392SOL     OW17775   3.142   6.513   2.534
 5392SOL    HW117776   3.202   6.432   2.536
 5392SOL    HW217777   3.182   6.582   2.474
 5393SOL     OW17778   3.703   5.761   2.825
 5393SOL    HW117779   3.742   5.676   2.789
 5393SOL    HW217780   3.605   5.763   2.806
 5394SOL     OW17781   2.125   5.912   2.582
 5394SOL    HW117782   2.046   5.963   2.548
 5394SOL    HW217783   2.116   5.897   2.680
 5395SOL     OW17784   3.056   7.198   1.893
 5395SOL    HW117785   3.062   7.105   1.930
 5395SOL    HW217786   2.997   7.198   1.813
 5396SOL     OW17787   2.778   6.496   2.153
 5396SOL    HW117788   2.841   6.534   2.085
 5396SOL    HW217789   2.818   6.413   2.192
 5397SOL     OW17790   2.234   6.874   3.352
 5397SOL    HW117791   2.221   6.967   3.318
 5397SOL    HW217792   2.150   6.822   3.339
 5398SOL     OW17793   3.476   6.878   3.151
 5398SOL    HW117794   3.536   6.881   3.231
 5398SOL    HW217795   3.401   6.942   3.164
 5399SOL     OW17796   2.901   6.684   2.558
 5399SOL    HW117797   2.831   6.637   2.612
 5399SOL    HW217798   2.960   6.616   2.515
 5400SOL     OW17799   2.876   5.822   2.833
 5400SOL    HW117800   2.868   5.786   2.740
 5400SOL    HW217801   2.874   5.746   2.898
 5401SOL     OW17802   3.571   5.971   3.243
 5401SOL    HW117803   3.644   6.040   3.247
 5401SOL    HW217804   3.599   5.896   3.184
 5402SOL     OW17805   1.967   6.599   3.588
 5402SOL    HW117806   1.890   6.566   3.642
 5402SOL    HW217807   2.052   6.569   3.630
 5403SOL     OW17808   2.534   5.789   3.351
 5403SOL    HW117809   2.624   5.773   3.311
 5403SOL    HW217810   2.542   5.794   3.450
 5404SOL     OW17811   1.937   5.931   1.895
 5404SOL    HW117812   1.845   5.903   1.866
 5404SOL    HW217813   1.968   6.008   1.839
 5405SOL     OW17814   3.302   6.442   3.260
 5405SOL    HW117815   3.245   6.494   3.197
 5405SOL    HW217816   3.398   6.454   3.236
 5406SOL     OW17817   2.475   6.428   3.293
 5406SOL    HW117818   2.531   6.509   3.276
 5406SOL    HW217819   2.534   6.348   3.296
 5407SOL     OW17820   2.578   6.151   3.570
 5407SOL    HW117821   2.597   6.216   3.644
 5407SOL    HW217822   2.638   6.071   3.579
 5408SOL     OW17823   3.312   6.806   3.495
 5408SOL    HW117824   3.303   6.796   3.594
 5408SOL    HW217825   3.408   6.799   3.469
 5409SOL     OW17826   3.536   6.469   3.116
 5409SOL    HW117827   3.509   6.380   3.079
 5409SOL    HW217828   3.537   6.537   3.043
 5410SOL     OW17829   2.456   6.331   2.514
 5410SOL    HW117830   2.506   6.416   2.495
 5410SOL    HW217831   2.368   6.333   2.466
 5411SOL     OW17832   3.639   5.928   3.504
 5411SOL    HW117833   3.622   5.959   3.410
 5411SOL    HW217834   3.555   5.891   3.542
 5412SOL     OW17835   3.592   6.520   3.379
 5412SOL    HW117836   3.630   6.611   3.394
 5412SOL    HW217837   3.584   6.503   3.280
 5413SOL     OW17838   2.721   6.542   2.723
 5413SOL    HW117839   2.775   6.473   2.771
 5413SOL    HW217840   2.689   6.611   2.789
 5414SOL     OW17841   2.945   6.570   1.949
 5414SOL    HW117842   2.922   6.623   1.867
 5414SOL    HW217843   3.026   6.514   1.930
 5415SOL     OW17844   2.083   6.900   3.706
 5415SOL    HW117845   2.018   6.827   3.685
 5415SOL    HW217846   2.087   6.914   3.804
 5416SOL     OW17847   1.941   6.826   2.515
 5416SOL    HW117848   1.940   6.779   2.603
 5416SOL    HW217849   2.023   6.798   2.464
 5417SOL     OW17850   2.534   6.977   3.486
 5417SOL    HW117851   2.456   6.927   3.524
 5417SOL    HW217852   2.531   7.072   3.517
 5418SOL     OW17853   3.686   5.778   3.089
 5418SOL    HW117854   3.682   5.688   3.133
 5418SOL    HW217855   3.689   5.767   2.990
 5419SOL     OW17856   2.290   6.010   2.382
 5419SOL    HW117857   2.320   5.938   2.320
 5419SOL    HW217858   2.251   5.970   2.465
 5420SOL     OW17859   3.567   7.073   2.966
 5420SOL    HW117860   3.474   7.048   2.939
 5420SOL    HW217861   3.593   7.023   3.048
 5421SOL     OW17862   2.179   6.133   3.142
 5421SOL    HW117863   2.217   6.074   3.214
 5421SOL    HW217864   2.219   6.107   3.054
 5422SOL     OW17865   2.632   6.916   2.163
 5422SOL    HW117866   2.586   6.829   2.180
 5422SOL    HW217867   2.723   6.913   2.204
 5423SOL     OW17868   3.214   5.638   2.030
 5423SOL    HW117869   3.249   5.597   1.946
 5423SOL    HW217870   3.124   5.600   2.050
 5424SOL     OW17871   3.455   5.807   2.744
 5424SOL    HW117872   3.371   5.806   2.798
 5424SOL    HW217873   3.457   5.890   2.688
 5425SOL     OW17874   1.901   6.663   2.162
 5425SOL    HW117875   2.000   6.652   2.153
 5425SOL    HW217876   1.861   6.577   2.194
 5426SOL     OW17877   2.092   6.214   3.837
 5426SOL    HW117878   1.999   6.212   3.874
 5426SOL    HW217879   2.093   6.175   3.745
 5427SOL     OW17880   2.087   5.861   4.720
 5427SOL    HW117881   2.122   5.844   4.812
 5427SOL    HW217882   1.999   5.816   4.708
 5428SOL     OW17883   1.881   5.954   4.371
 5428SOL    HW117884   1.799   5.997   4.410
 5428SOL    HW217885   1.853   5.881   4.308
 5429SOL     OW17886   2.431   6.861   4.889
 5429SOL    HW117887   2.338   6.854   4.852
 5429SOL    HW217888   2.442   6.950   4.933
 5430SOL     OW17889   3.417   7.097   4.427
 5430SOL    HW117890   3.360   7.081   4.508
 5430SOL    HW217891   3.358   7.107   4.347
 5431SOL     OW17892   2.997   6.289   4.441
 5431SOL    HW117893   3.054   6.367   4.416
 5431SOL    HW217894   2.937   6.315   4.517
 5432SOL     OW17895   3.617   6.193   3.955
 5432SOL    HW117896   3.605   6.180   3.856
 5432SOL    HW217897   3.587   6.112   4.004
 5433SOL     OW17898   2.630   6.730   4.747
 5433SOL    HW117899   2.552   6.747   4.807
 5433SOL    HW217900   2.664   6.817   4.711
 5434SOL     OW17901   2.712   6.384   5.547
 5434SOL    HW117902   2.708   6.460   5.612
 5434SOL    HW217903   2.734   6.420   5.456
 5435SOL     OW17904   2.547   6.598   4.389
 5435SOL    HW117905   2.616   6.582   4.459
 5435SOL    HW217906   2.474   6.655   4.427
 5436SOL     OW17907   2.548   6.747   5.527
 5436SOL    HW117908   2.608   6.826   5.541
 5436SOL    HW217909   2.462   6.778   5.486
 5437SOL     OW17910   2.197   7.021   4.785
 5437SOL    HW117911   2.119   6.990   4.732
 5437SOL    HW217912   2.255   7.079   4.728
 5438SOL     OW17913   2.300   5.978   5.223
 5438SOL    HW117914   2.382   5.922   5.232
 5438SOL    HW217915   2.219   5.920   5.227
 5439SOL     OW17916   3.465   6.033   4.461
 5439SOL    HW117917   3.391   6.079   4.411
 5439SOL    HW217918   3.516   6.101   4.514
 5440SOL     OW17919   2.102   6.677   4.610
 5440SOL    HW117920   2.116   6.593   4.662
 5440SOL    HW217921   2.047   6.741   4.665
 5441SOL     OW17922   2.468   6.550   3.847
 5441SOL    HW117923   2.475   6.634   3.793
 5441SOL    HW217924   2.514   6.563   3.935
 5442SOL     OW17925   3.456   5.700   5.204
 5442SOL    HW117926   3.438   5.767   5.132
 5442SOL    HW217927   3.453   5.746   5.293
 5443SOL     OW17928   1.984   6.229   4.287
 5443SOL    HW117929   1.939   6.141   4.304
 5443SOL    HW217930   1.983   6.283   4.371
 5444SOL     OW17931   3.551   6.508   4.336
 5444SOL    HW117932   3.646   6.479   4.344
 5444SOL    HW217933   3.543   6.573   4.261
 5445SOL     OW17934   3.503   6.694   4.156
 5445SOL    HW117935   3.589   6.696   4.104
 5445SOL    HW217936   3.517   6.741   4.244
 5446SOL     OW17937   1.975   6.323   5.321
 5446SOL    HW117938   2.063   6.310   5.366
 5446SOL    HW217939   1.962   6.420   5.299
 5447SOL     OW17940   3.155   6.814   5.147
 5447SOL    HW117941   3.192   6.741   5.089
 5447SOL    HW217942   3.207   6.819   5.232
 5448SOL     OW17943   2.671   5.590   4.226
 5448SOL    HW117944   2.711   5.681   4.217
 5448SOL    HW217945   2.571   5.598   4.232
 5449SOL     OW17946   2.059   6.562   4.988
 5449SOL    HW117947   2.148   6.517   4.974
 5449SOL    HW217948   1.986   6.497   4.969
 5450SOL     OW17949   3.387   6.585   3.914
 5450SOL    HW117950   3.324   6.509   3.927
 5450SOL    HW217951   3.435   6.603   4.000
 5451SOL     OW17952   2.179   5.837   5.525
 5451SOL    HW117953   2.250   5.908   5.531
 5451SOL    HW217954   2.091   5.876   5.553
 5452SOL     OW17955   3.328   7.003   4.677
 5452SOL    HW117956   3.269   7.009   4.757
 5452SOL    HW217957   3.313   6.915   4.631
 5453SOL     OW17958   2.460   6.315   3.994
 5453SOL    HW117959   2.484   6.384   3.926
 5453SOL    HW217960   2.382   6.348   4.048
 5454SOL     OW17961   3.143   5.931   4.668
 5454SOL    HW117962   3.057   5.881   4.655
 5454SOL    HW217963   3.205   5.877   4.724
 5455SOL     OW17964   2.669   6.191   5.189
 5455SOL    HW117965   2.622   6.188   5.278
 5455SOL    HW217966   2.618   6.136   5.123
 5456SOL     OW17967   3.256   6.055   5.398
 5456SOL    HW117968   3.236   6.098   5.486
 5456SOL    HW217969   3.334   5.993   5.407
 5457SOL     OW17970   2.835   6.476   5.296
 5457SOL    HW117971   2.881   6.392   5.267
 5457SOL    HW217972   2.779   6.510   5.221
 5458SOL     OW17973   2.853   5.996   4.966
 5458SOL    HW117974   2.776   6.030   5.020
 5458SOL    HW217975   2.819   5.945   4.887
 5459SOL     OW17976   2.903   6.287   4.153
 5459SOL    HW117977   2.929   6.283   4.249
 5459SOL    HW217978   2.818   6.236   4.139
 5460SOL     OW17979   1.938   6.397   4.513
 5460SOL    HW117980   2.037   6.385   4.522
 5460SOL    HW217981   1.914   6.492   4.534
 5461SOL     OW17982   2.727   5.934   3.919
 5461SOL    HW117983   2.786   5.997   3.870
 5461SOL    HW217984   2.746   5.840   3.890
 5462SOL     OW17985   3.224   6.730   4.269
 5462SOL    HW117986   3.307   6.701   4.221
 5462SOL    HW217987   3.175   6.797   4.213
 5463SOL     OW17988   2.412   5.782   4.609
 5463SOL    HW117989   2.407   5.777   4.709
 5463SOL    HW217990   2.414   5.878   4.580
 5464SOL     OW17991   3.657   6.652   4.597
 5464SOL    HW117992   3.595   6.637   4.521
 5464SOL    HW217993   3.605   6.663   4.682
 5465SOL     OW17994   2.183   6.529   3.966
 5465SOL    HW117995   2.265   6.568   3.924
 5465SOL    HW217996   2.156   6.447   3.917
 5466SOL     OW17997   3.320   6.321   4.452
 5466SOL    HW117998   3.315   6.256   4.527
 5466SOL    HW217999   3.400   6.380   4.465
 5467SOL     OW18000   2.064   5.871   5.222
 5467SOL    HW118001   1.984   5.931   5.209
 5467SOL    HW218002   2.054   5.822   5.308
 5468SOL     OW18003   3.262   5.693   4.150
 5468SOL    HW118004   3.238   5.656   4.060
 5468SOL    HW218005   3.361   5.709   4.154
 5469SOL     OW18006   2.244   6.286   4.204
 5469SOL    HW118007   2.289   6.196   4.201
 5469SOL    HW218008   2.150   6.275   4.237
 5470SOL     OW18009   2.476   5.708   3.841
 5470SOL    HW118010   2.574   5.686   3.848
 5470SOL    HW218011   2.445   5.691   3.748
 5471SOL     OW18012   2.643   5.850   5.473
 5471SOL    HW118013   2.710   5.789   5.516
 5471SOL    HW218014   2.570   5.869   5.538
 5472SOL     OW18015   3.213   6.176   5.157
 5472SOL    HW118016   3.241   6.133   5.242
 5472SOL    HW218017   3.238   6.272   5.158
 5473SOL     OW18018   2.784   6.089   4.623
 5473SOL    HW118019   2.759   6.080   4.527
 5473SOL    HW218020   2.832   6.007   4.654
 5474SOL     OW18021   2.401   5.650   4.236
 5474SOL    HW118022   2.320   5.651   4.294
 5474SOL    HW218023   2.404   5.733   4.181
 5475SOL     OW18024   3.296   6.774   3.765
 5475SOL    HW118025   3.328   6.698   3.822
 5475SOL    HW218026   3.204   6.801   3.795
 5476SOL     OW18027   2.159   5.621   3.895
 5476SOL    HW118028   2.208   5.705   3.874
 5476SOL    HW218029   2.221   5.556   3.940
 5477SOL     OW18030   2.797   5.822   4.204
 5477SOL    HW118031   2.749   5.863   4.126
 5477SOL    HW218032   2.896   5.820   4.185
 5478SOL     OW18033   2.938   6.269   5.188
 5478SOL    HW118034   2.858   6.208   5.191
 5478SOL    HW218035   3.019   6.216   5.164
 5479SOL     OW18036   3.089   7.156   4.517
 5479SOL    HW118037   3.110   7.230   4.452
 5479SOL    HW218038   3.157   7.156   4.590
 5480SOL     OW18039   2.321   6.738   4.465
 5480SOL    HW118040   2.250   6.711   4.530
 5480SOL    HW218041   2.295   6.710   4.372
 5481SOL     OW18042   2.894   6.135   3.740
 5481SOL    HW118043   2.853   6.217   3.701
 5481SOL    HW218044   2.958   6.161   3.813
 5482SOL     OW18045   1.940   6.142   5.110
 5482SOL    HW118046   2.032   6.141   5.069
 5482SOL    HW218047   1.934   6.216   5.177
 5483SOL     OW18048   2.423   5.808   4.871
 5483SOL    HW118049   2.461   5.724   4.908
 5483SOL    HW218050   2.335   5.827   4.915
 5484SOL     OW18051   2.728   6.040   4.366
 5484SOL    HW118052   2.696   6.112   4.304
 5484SOL    HW218053   2.752   5.959   4.313
 5485SOL     OW18054   2.879   5.625   4.477
 5485SOL    HW118055   2.807   5.630   4.408
 5485SOL    HW218056   2.855   5.556   4.546
 5486SOL     OW18057   3.291   6.759   4.591
 5486SOL    HW118058   3.236   6.675   4.584
 5486SOL    HW218059   3.317   6.788   4.499
 5487SOL     OW18060   3.328   6.176   4.716
 5487SOL    HW118061   3.298   6.081   4.723
 5487SOL    HW218062   3.401   6.192   4.782
 5488SOL     OW18063   3.719   6.419   4.101
 5488SOL    HW118064   3.761   6.355   4.165
 5488SOL    HW218065   3.681   6.368   4.023
 5489SOL     OW18066   3.526   6.866   4.381
 5489SOL    HW118067   3.625   6.874   4.395
 5489SOL    HW218068   3.481   6.950   4.412
 5490SOL     OW18069   3.252   6.161   3.802
 5490SOL    HW118070   3.198   6.140   3.883
 5490SOL    HW218071   3.343   6.120   3.811
 5491SOL     OW18072   2.389   5.842   4.052
 5491SOL    HW118073   2.416   5.783   3.977
 5491SOL    HW218074   2.389   5.937   4.021
 5492SOL     OW18075   3.616   6.809   5.312
 5492SOL    HW118076   3.707   6.770   5.299
 5492SOL    HW218077   3.624   6.905   5.336
 5493SOL     OW18078   2.926   6.933   5.064
 5493SOL    HW118079   2.846   6.910   5.119
 5493SOL    HW218080   3.009   6.907   5.113
 5494SOL     OW18081   2.973   6.781   4.824
 5494SOL    HW118082   2.933   6.825   4.905
 5494SOL    HW218083   2.932   6.818   4.741
 5495SOL     OW18084   3.500   6.685   4.803
 5495SOL    HW118085   3.505   6.766   4.862
 5495SOL    HW218086   3.414   6.687   4.752
 5496SOL     OW18087   2.777   5.675   5.126
 5496SOL    HW118088   2.802   5.655   5.031
 5496SOL    HW218089   2.849   5.731   5.168
 5497SOL     OW18090   2.842   6.702   5.443
 5497SOL    HW118091   2.743   6.708   5.453
 5497SOL    HW218092   2.865   6.622   5.387
 5498SOL     OW18093   2.567   6.636   4.092
 5498SOL    HW118094   2.553   6.643   4.191
 5498SOL    HW218095   2.651   6.585   4.074
 5499SOL     OW18096   2.272   6.399   4.975
 5499SOL    HW118097   2.358   6.411   5.025
 5499SOL    HW218098   2.230   6.312   5.002
 5500SOL     OW18099   3.136   5.972   4.986
 5500SOL    HW118100   3.157   6.046   5.050
 5500SOL    HW218101   3.047   5.989   4.943
 5501SOL     OW18102   2.229   6.686   4.225
 5501SOL    HW118103   2.222   6.769   4.169
 5501SOL    HW218104   2.233   6.606   4.165
 5502SOL     OW18105   2.428   6.123   4.589
 5502SOL    HW118106   2.440   6.189   4.515
 5502SOL    HW218107   2.474   6.157   4.672
 5503SOL     OW18108   3.444   6.225   4.196
 5503SOL    HW118109   3.413   6.286   4.269
 5503SOL    HW218110   3.494   6.277   4.127
 5504SOL     OW18111   2.264   6.337   5.322
 5504SOL    HW118112   2.332   6.392   5.275
 5504SOL    HW218113   2.304   6.249   5.349
 5505SOL     OW18114   3.449   6.365   5.394
 5505SOL    HW118115   3.357   6.403   5.389
 5505SOL    HW218116   3.509   6.412   5.329
 5506SOL     OW18117   2.875   5.691   5.494
 5506SOL    HW118118   2.881   5.776   5.442
 5506SOL    HW218119   2.907   5.615   5.437
 5507SOL     OW18120   2.366   5.636   5.464
 5507SOL    HW118121   2.324   5.579   5.394
 5507SOL    HW218122   2.300   5.705   5.496
 5508SOL     OW18123   2.435   6.456   4.753
 5508SOL    HW118124   2.479   6.545   4.744
 5508SOL    HW218125   2.372   6.456   4.830
 5509SOL     OW18126   3.222   6.448   4.769
 5509SOL    HW118127   3.147   6.448   4.703
 5509SOL    HW218128   3.259   6.356   4.778
 5510SOL     OW18129   3.071   6.111   3.999
 5510SOL    HW118130   3.084   6.027   4.053
 5510SOL    HW218131   3.042   6.185   4.059
 5511SOL     OW18132   2.169   5.799   4.955
 5511SOL    HW118133   2.146   5.836   5.045
 5511SOL    HW218134   2.139   5.704   4.949
 5512SOL     OW18135   1.899   6.896   5.006
 5512SOL    HW118136   1.952   6.847   5.074
 5512SOL    HW218137   1.921   6.994   5.011
 5513SOL     OW18138   2.594   6.220   4.788
 5513SOL    HW118139   2.653   6.194   4.712
 5513SOL    HW218140   2.566   6.316   4.777
 5514SOL     OW18141   3.590   6.521   5.578
 5514SOL    HW118142   3.544   6.514   5.489
 5514SOL    HW218143   3.528   6.565   5.644
 5515SOL     OW18144   2.169   5.649   4.342
 5515SOL    HW118145   2.158   5.743   4.375
 5515SOL    HW218146   2.164   5.586   4.419
 5516SOL     OW18147   3.484   5.953   4.098
 5516SOL    HW118148   3.486   5.877   4.162
 5516SOL    HW218149   3.436   6.030   4.138
 5517SOL     OW18150   2.885   6.352   4.690
 5517SOL    HW118151   2.900   6.373   4.786
 5517SOL    HW218152   2.855   6.257   4.681
 5518SOL     OW18153   3.721   7.104   5.329
 5518SOL    HW118154   3.735   7.131   5.234
 5518SOL    HW218155   3.804   7.126   5.382
 5519SOL     OW18156   2.212   6.484   5.528
 5519SOL    HW118157   2.288   6.528   5.576
 5519SOL    HW218158   2.247   6.437   5.446
 5520SOL     OW18159   2.181   6.396   4.673
 5520SOL    HW118160   2.274   6.432   4.678
 5520SOL    HW218161   2.175   6.311   4.725
 5521SOL     OW18162   2.201   6.095   4.730
 5521SOL    HW118163   2.149   6.012   4.713
 5521SOL    HW218164   2.278   6.100   4.666
 5522SOL     OW18165   3.000   5.966   5.402
 5522SOL    HW118166   2.955   6.029   5.466
 5522SOL    HW218167   3.093   5.997   5.385
 5523SOL     OW18168   3.022   5.793   5.201
 5523SOL    HW118169   3.022   5.857   5.278
 5523SOL    HW218170   3.050   5.841   5.118
 5524SOL     OW18171   1.870   6.912   3.924
 5524SOL    HW118172   1.777   6.933   3.893
 5524SOL    HW218173   1.880   6.813   3.937
 5525SOL     OW18174   2.864   6.382   4.962
 5525SOL    HW118175   2.905   6.350   5.048
 5525SOL    HW218176   2.768   6.355   4.959
 5526SOL     OW18177   1.902   6.130   4.838
 5526SOL    HW118178   1.987   6.097   4.797
 5526SOL    HW218179   1.915   6.145   4.936
 5527SOL     OW18180   2.051   6.106   5.446
 5527SOL    HW118181   2.110   6.066   5.376
 5527SOL    HW218182   1.993   6.177   5.405
 5528SOL     OW18183   3.231   6.536   5.384
 5528SOL    HW118184   3.270   6.625   5.404
 5528SOL    HW218185   3.241   6.516   5.287
 5529SOL     OW18186   2.677   6.158   4.049
 5529SOL    HW118187   2.684   6.069   4.003
 5529SOL    HW218188   2.583   6.192   4.041
 5530SOL     OW18189   2.533   6.050   4.993
 5530SOL    HW118190   2.499   5.961   4.963
 5530SOL    HW218191   2.559   6.104   4.913
 5531SOL     OW18192   2.335   6.086   3.915
 5531SOL    HW118193   2.396   6.166   3.919
 5531SOL    HW218194   2.240   6.117   3.922
 5532SOL     OW18195   2.021   6.723   5.190
 5532SOL    HW118196   2.043   6.662   5.266
 5532SOL    HW218197   2.031   6.674   5.104
 5533SOL     OW18198   3.209   6.645   4.958
 5533SOL    HW118199   3.233   6.582   4.884
 5533SOL    HW218200   3.119   6.685   4.940
 5534SOL     OW18201   3.164   6.441   4.033
 5534SOL    HW118202   3.078   6.410   4.075
 5534SOL    HW218203   3.160   6.427   3.934
 5535SOL     OW18204   1.945   6.844   4.746
 5535SOL    HW118205   1.940   6.843   4.846
 5535SOL    HW218206   1.862   6.803   4.708
 5536SOL     OW18207   3.588   5.721   4.247
 5536SOL    HW118208   3.661   5.704   4.180
 5536SOL    HW218209   3.557   5.634   4.285
 5537SOL     OW18210   3.142   6.513   4.396
 5537SOL    HW118211   3.202   6.432   4.398
 5537SOL    HW218212   3.182   6.582   4.336
 5538SOL     OW18213   2.692   6.859   5.146
 5538SOL    HW118214   2.687   6.892   5.241
 5538SOL    HW218215   2.606   6.878   5.100
 5539SOL     OW18216   3.703   5.761   4.687
 5539SOL    HW118217   3.742   5.676   4.651
 5539SOL    HW218218   3.605   5.763   4.668
 5540SOL     OW18219   2.125   5.912   4.444
 5540SOL    HW118220   2.046   5.963   4.410
 5540SOL    HW218221   2.116   5.897   4.542
 5541SOL     OW18222   3.056   7.198   3.755
 5541SOL    HW118223   3.062   7.105   3.792
 5541SOL    HW218224   2.997   7.198   3.675
 5542SOL     OW18225   2.684   6.588   5.096
 5542SOL    HW118226   2.724   6.587   5.004
 5542SOL    HW218227   2.694   6.680   5.136
 5543SOL     OW18228   2.778   6.496   4.015
 5543SOL    HW118229   2.841   6.534   3.947
 5543SOL    HW218230   2.818   6.413   4.054
 5544SOL     OW18231   2.234   6.874   5.214
 5544SOL    HW118232   2.221   6.967   5.180
 5544SOL    HW218233   2.150   6.822   5.201
 5545SOL     OW18234   3.476   6.878   5.013
 5545SOL    HW118235   3.536   6.881   5.093
 5545SOL    HW218236   3.401   6.942   5.026
 5546SOL     OW18237   2.901   6.684   4.420
 5546SOL    HW118238   2.831   6.637   4.474
 5546SOL    HW218239   2.960   6.616   4.377
 5547SOL     OW18240   2.876   5.822   4.695
 5547SOL    HW118241   2.868   5.786   4.602
 5547SOL    HW218242   2.874   5.746   4.760
 5548SOL     OW18243   1.967   6.599   5.450
 5548SOL    HW118244   1.890   6.566   5.504
 5548SOL    HW218245   2.052   6.569   5.492
 5549SOL     OW18246   2.534   5.789   5.213
 5549SOL    HW118247   2.624   5.773   5.173
 5549SOL    HW218248   2.542   5.794   5.312
 5550SOL     OW18249   1.937   5.931   3.757
 5550SOL    HW118250   1.845   5.903   3.728
 5550SOL    HW218251   1.968   6.008   3.701
 5551SOL     OW18252   3.302   6.442   5.122
 5551SOL    HW118253   3.245   6.494   5.059
 5551SOL    HW218254   3.398   6.454   5.098
 5552SOL     OW18255   1.934   5.752   4.042
 5552SOL    HW118256   1.917   5.835   3.988
 5552SOL    HW218257   2.024   5.715   4.020
 5553SOL     OW18258   2.475   6.428   5.155
 5553SOL    HW118259   2.531   6.509   5.138
 5553SOL    HW218260   2.534   6.348   5.158
 5554SOL     OW18261   2.578   6.151   5.432
 5554SOL    HW118262   2.597   6.216   5.506
 5554SOL    HW218263   2.638   6.071   5.441
 5555SOL     OW18264   3.312   6.806   5.357
 5555SOL    HW118265   3.303   6.796   5.456
 5555SOL    HW218266   3.408   6.799   5.331
 5556SOL     OW18267   3.087   5.911   4.173
 5556SOL    HW118268   3.152   5.837   4.162
 5556SOL    HW218269   3.107   5.961   4.257
 5557SOL     OW18270   2.456   6.331   4.376
 5557SOL    HW118271   2.506   6.416   4.357
 5557SOL    HW218272   2.368   6.333   4.328
 5558SOL     OW18273   3.592   6.520   5.241
 5558SOL    HW118274   3.630   6.611   5.256
 5558SOL    HW218275   3.584   6.503   5.142
 5559SOL     OW18276   2.721   6.542   4.585
 5559SOL    HW118277   2.775   6.473   4.633
 5559SOL    HW218278   2.689   6.611   4.651
 5560SOL     OW18279   2.945   6.570   3.811
 5560SOL    HW118280   2.922   6.623   3.729
 5560SOL    HW218281   3.026   6.514   3.792
 5561SOL     OW18282   2.083   6.900   5.568
 5561SOL    HW118283   2.018   6.827   5.547
 5561SOL    HW218284   2.087   6.914   5.666
 5562SOL     OW18285   1.941   6.826   4.377
 5562SOL    HW118286   1.940   6.779   4.465
 5562SOL    HW218287   2.023   6.798   4.326
 5563SOL     OW18288   2.534   6.977   5.348
 5563SOL    HW118289   2.456   6.927   5.386
 5563SOL    HW218290   2.531   7.072   5.379
 5564SOL     OW18291   3.686   5.778   4.951
 5564SOL    HW118292   3.682   5.688   4.995
 5564SOL    HW218293   3.689   5.767   4.852
 5565SOL     OW18294   2.290   6.010   4.244
 5565SOL    HW118295   2.320   5.938   4.182
 5565SOL    HW218296   2.251   5.970   4.327
 5566SOL     OW18297   3.567   7.073   4.828
 5566SOL    HW118298   3.474   7.048   4.801
 5566SOL    HW218299   3.593   7.023   4.910
 5567SOL     OW18300   2.179   6.133   5.004
 5567SOL    HW118301   2.217   6.074   5.076
 5567SOL    HW218302   2.219   6.107   4.916
 5568SOL     OW18303   3.286   5.800   4.836
 5568SOL    HW118304   3.338   5.735   4.891
 5568SOL    HW218305   3.237   5.863   4.897
 5569SOL     OW18306   2.863   5.620   4.878
 5569SOL    HW118307   2.800   5.548   4.847
 5569SOL    HW218308   2.956   5.584   4.878
 5570SOL     OW18309   2.632   6.916   4.025
 5570SOL    HW118310   2.586   6.829   4.042
 5570SOL    HW218311   2.723   6.913   4.066
 5571SOL     OW18312   3.214   5.638   3.892
 5571SOL    HW118313   3.249   5.597   3.808
 5571SOL    HW218314   3.124   5.600   3.912
 5572SOL     OW18315   3.162   6.039   4.415
 5572SOL    HW118316   3.103   6.119   4.419
 5572SOL    HW218317   3.177   6.004   4.508
 5573SOL     OW18318   3.455   5.807   4.606
 5573SOL    HW118319   3.371   5.806   4.660
 5573SOL    HW218320   3.457   5.890   4.550
 5574SOL     OW18321   1.901   6.663   4.024
 5574SOL    HW118322   2.000   6.652   4.015
 5574SOL    HW218323   1.861   6.577   4.056
 5575SOL     OW18324   2.092   6.214   5.699
 5575SOL    HW118325   1.999   6.212   5.736
 5575SOL    HW218326   2.093   6.175   5.607
 5576SOL     OW18327   2.087   5.861   6.582
 5576SOL    HW118328   2.122   5.844   6.674
 5576SOL    HW218329   1.999   5.816   6.570
 5577SOL     OW18330   1.881   5.954   6.233
 5577SOL    HW118331   1.799   5.997   6.272
 5577SOL    HW218332   1.853   5.881   6.170
 5578SOL     OW18333   2.431   6.861   6.751
 5578SOL    HW118334   2.338   6.854   6.714
 5578SOL    HW218335   2.442   6.950   6.795
 5579SOL     OW18336   3.417   7.097   6.289
 5579SOL    HW118337   3.360   7.081   6.370
 5579SOL    HW218338   3.358   7.107   6.209
 5580SOL     OW18339   2.997   6.289   6.303
 5580SOL    HW118340   3.054   6.367   6.278
 5580SOL    HW218341   2.937   6.315   6.379
 5581SOL     OW18342   2.630   6.730   6.609
 5581SOL    HW118343   2.552   6.747   6.669
 5581SOL    HW218344   2.664   6.817   6.573
 5582SOL     OW18345   2.547   6.598   6.251
 5582SOL    HW118346   2.616   6.582   6.321
 5582SOL    HW218347   2.474   6.655   6.289
 5583SOL     OW18348   2.197   7.021   6.647
 5583SOL    HW118349   2.119   6.990   6.594
 5583SOL    HW218350   2.255   7.079   6.590
 5584SOL     OW18351   3.465   6.033   6.323
 5584SOL    HW118352   3.391   6.079   6.273
 5584SOL    HW218353   3.516   6.101   6.376
 5585SOL     OW18354   2.102   6.677   6.472
 5585SOL    HW118355   2.116   6.593   6.524
 5585SOL    HW218356   2.047   6.741   6.527
 5586SOL     OW18357   2.468   6.550   5.709
 5586SOL    HW118358   2.475   6.634   5.655
 5586SOL    HW218359   2.514   6.563   5.797
 5587SOL     OW18360   1.984   6.229   6.149
 5587SOL    HW118361   1.939   6.141   6.166
 5587SOL    HW218362   1.983   6.283   6.233
 5588SOL     OW18363   3.551   6.508   6.198
 5588SOL    HW118364   3.646   6.479   6.206
 5588SOL    HW218365   3.543   6.573   6.123
 5589SOL     OW18366   3.503   6.694   6.018
 5589SOL    HW118367   3.589   6.696   5.966
 5589SOL    HW218368   3.517   6.741   6.106
 5590SOL     OW18369   2.671   5.590   6.088
 5590SOL    HW118370   2.711   5.681   6.079
 5590SOL    HW218371   2.571   5.598   6.094
 5591SOL     OW18372   2.059   6.562   6.850
 5591SOL    HW118373   2.148   6.517   6.836
 5591SOL    HW218374   1.986   6.497   6.831
 5592SOL     OW18375   3.387   6.585   5.776
 5592SOL    HW118376   3.324   6.509   5.789
 5592SOL    HW218377   3.435   6.603   5.862
 5593SOL     OW18378   3.328   7.003   6.539
 5593SOL    HW118379   3.269   7.009   6.619
 5593SOL    HW218380   3.313   6.915   6.493
 5594SOL     OW18381   2.460   6.315   5.856
 5594SOL    HW118382   2.484   6.384   5.788
 5594SOL    HW218383   2.382   6.348   5.910
 5595SOL     OW18384   3.143   5.931   6.530
 5595SOL    HW118385   3.057   5.881   6.517
 5595SOL    HW218386   3.205   5.877   6.586
 5596SOL     OW18387   2.669   6.191   7.051
 5596SOL    HW118388   2.622   6.188   7.140
 5596SOL    HW218389   2.618   6.136   6.985
 5597SOL     OW18390   2.853   5.996   6.828
 5597SOL    HW118391   2.776   6.030   6.882
 5597SOL    HW218392   2.819   5.945   6.749
 5598SOL     OW18393   2.903   6.287   6.015
 5598SOL    HW118394   2.929   6.283   6.111
 5598SOL    HW218395   2.818   6.236   6.001
 5599SOL     OW18396   1.938   6.397   6.375
 5599SOL    HW118397   2.037   6.385   6.384
 5599SOL    HW218398   1.914   6.492   6.396
 5600SOL     OW18399   2.727   5.934   5.781
 5600SOL    HW118400   2.786   5.997   5.732
 5600SOL    HW218401   2.746   5.840   5.752
 5601SOL     OW18402   3.224   6.730   6.131
 5601SOL    HW118403   3.307   6.701   6.083
 5601SOL    HW218404   3.175   6.797   6.075
 5602SOL     OW18405   2.412   5.782   6.471
 5602SOL    HW118406   2.407   5.777   6.571
 5602SOL    HW218407   2.414   5.878   6.442
 5603SOL     OW18408   3.657   6.652   6.459
 5603SOL    HW118409   3.595   6.637   6.383
 5603SOL    HW218410   3.605   6.663   6.544
 5604SOL     OW18411   2.183   6.529   5.828
 5604SOL    HW118412   2.265   6.568   5.786
 5604SOL    HW218413   2.156   6.447   5.779
 5605SOL     OW18414   3.320   6.321   6.314
 5605SOL    HW118415   3.315   6.256   6.389
 5605SOL    HW218416   3.400   6.380   6.327
 5606SOL     OW18417   3.494   6.963   5.667
 5606SOL    HW118418   3.462   7.057   5.657
 5606SOL    HW218419   3.418   6.900   5.655
 5607SOL     OW18420   2.244   6.286   6.066
 5607SOL    HW118421   2.289   6.196   6.063
 5607SOL    HW218422   2.150   6.275   6.099
 5608SOL     OW18423   2.476   5.708   5.703
 5608SOL    HW118424   2.574   5.686   5.710
 5608SOL    HW218425   2.445   5.691   5.610
 5609SOL     OW18426   2.784   6.089   6.485
 5609SOL    HW118427   2.759   6.080   6.389
 5609SOL    HW218428   2.832   6.007   6.516
 5610SOL     OW18429   2.401   5.650   6.098
 5610SOL    HW118430   2.320   5.651   6.156
 5610SOL    HW218431   2.404   5.733   6.043
 5611SOL     OW18432   3.296   6.774   5.627
 5611SOL    HW118433   3.328   6.698   5.684
 5611SOL    HW218434   3.204   6.801   5.657
 5612SOL     OW18435   2.797   5.822   6.066
 5612SOL    HW118436   2.749   5.863   5.988
 5612SOL    HW218437   2.896   5.820   6.047
 5613SOL     OW18438   3.089   7.156   6.379
 5613SOL    HW118439   3.110   7.230   6.314
 5613SOL    HW218440   3.157   7.156   6.452
 5614SOL     OW18441   2.321   6.738   6.327
 5614SOL    HW118442   2.250   6.711   6.392
 5614SOL    HW218443   2.295   6.710   6.234
 5615SOL     OW18444   2.894   6.135   5.602
 5615SOL    HW118445   2.853   6.217   5.563
 5615SOL    HW218446   2.958   6.161   5.675
 5616SOL     OW18447   2.423   5.808   6.733
 5616SOL    HW118448   2.461   5.724   6.770
 5616SOL    HW218449   2.335   5.827   6.777
 5617SOL     OW18450   2.728   6.040   6.228
 5617SOL    HW118451   2.696   6.112   6.166
 5617SOL    HW218452   2.752   5.959   6.175
 5618SOL     OW18453   2.879   5.625   6.339
 5618SOL    HW118454   2.807   5.630   6.270
 5618SOL    HW218455   2.855   5.556   6.408
 5619SOL     OW18456   3.291   6.759   6.453
 5619SOL    HW118457   3.236   6.675   6.446
 5619SOL    HW218458   3.317   6.788   6.361
 5620SOL     OW18459   3.328   6.176   6.578
 5620SOL    HW118460   3.298   6.081   6.585
 5620SOL    HW218461   3.401   6.192   6.644
 5621SOL     OW18462   3.719   6.419   5.963
 5621SOL    HW118463   3.761   6.355   6.027
 5621SOL    HW218464   3.681   6.368   5.885
 5622SOL     OW18465   3.526   6.866   6.243
 5622SOL    HW118466   3.625   6.874   6.257
 5622SOL    HW218467   3.481   6.950   6.274
 5623SOL     OW18468   2.389   5.842   5.914
 5623SOL    HW118469   2.416   5.783   5.839
 5623SOL    HW218470   2.389   5.937   5.883
 5624SOL     OW18471   3.616   6.809   7.174
 5624SOL    HW118472   3.707   6.770   7.161
 5624SOL    HW218473   3.624   6.905   7.198
 5625SOL     OW18474   2.926   6.933   6.926
 5625SOL    HW118475   2.846   6.910   6.981
 5625SOL    HW218476   3.009   6.907   6.975
 5626SOL     OW18477   2.973   6.781   6.686
 5626SOL    HW118478   2.933   6.825   6.767
 5626SOL    HW218479   2.932   6.818   6.603
 5627SOL     OW18480   3.500   6.685   6.665
 5627SOL    HW118481   3.505   6.766   6.724
 5627SOL    HW218482   3.414   6.687   6.614
 5628SOL     OW18483   2.567   6.636   5.954
 5628SOL    HW118484   2.553   6.643   6.053
 5628SOL    HW218485   2.651   6.585   5.936
 5629SOL     OW18486   2.272   6.399   6.837
 5629SOL    HW118487   2.358   6.411   6.887
 5629SOL    HW218488   2.230   6.312   6.864
 5630SOL     OW18489   3.136   5.972   6.848
 5630SOL    HW118490   3.157   6.046   6.912
 5630SOL    HW218491   3.047   5.989   6.805
 5631SOL     OW18492   2.229   6.686   6.087
 5631SOL    HW118493   2.222   6.769   6.031
 5631SOL    HW218494   2.233   6.606   6.027
 5632SOL     OW18495   2.428   6.123   6.451
 5632SOL    HW118496   2.440   6.189   6.377
 5632SOL    HW218497   2.474   6.157   6.534
 5633SOL     OW18498   2.435   6.456   6.615
 5633SOL    HW118499   2.479   6.545   6.606
 5633SOL    HW218500   2.372   6.456   6.692
 5634SOL     OW18501   3.222   6.448   6.631
 5634SOL    HW118502   3.147   6.448   6.565
 5634SOL    HW218503   3.259   6.356   6.640
 5635SOL     OW18504   2.169   5.799   6.817
 5635SOL    HW118505   2.146   5.836   6.907
 5635SOL    HW218506   2.139   5.704   6.811
 5636SOL     OW18507   1.899   6.896   6.868
 5636SOL    HW118508   1.952   6.847   6.936
 5636SOL    HW218509   1.921   6.994   6.873
 5637SOL     OW18510   2.594   6.220   6.650
 5637SOL    HW118511   2.653   6.194   6.574
 5637SOL    HW218512   2.566   6.316   6.639
 5638SOL     OW18513   2.169   5.649   6.204
 5638SOL    HW118514   2.158   5.743   6.237
 5638SOL    HW218515   2.164   5.586   6.281
 5639SOL     OW18516   2.885   6.352   6.552
 5639SOL    HW118517   2.900   6.373   6.648
 5639SOL    HW218518   2.855   6.257   6.543
 5640SOL     OW18519   3.165   6.424   5.628
 5640SOL    HW118520   3.199   6.331   5.643
 5640SOL    HW218521   3.183   6.451   5.533
 5641SOL     OW18522   2.181   6.396   6.535
 5641SOL    HW118523   2.274   6.432   6.540
 5641SOL    HW218524   2.175   6.311   6.587
 5642SOL     OW18525   2.201   6.095   6.592
 5642SOL    HW118526   2.149   6.012   6.575
 5642SOL    HW218527   2.278   6.100   6.528
 5643SOL     OW18528   3.022   5.793   7.063
 5643SOL    HW118529   3.022   5.857   7.140
 5643SOL    HW218530   3.050   5.841   6.980
 5644SOL     OW18531   1.870   6.912   5.786
 5644SOL    HW118532   1.777   6.933   5.755
 5644SOL    HW218533   1.880   6.813   5.799
 5645SOL     OW18534   2.864   6.382   6.824
 5645SOL    HW118535   2.905   6.350   6.910
 5645SOL    HW218536   2.768   6.355   6.821
 5646SOL     OW18537   1.902   6.130   6.700
 5646SOL    HW118538   1.987   6.097   6.659
 5646SOL    HW218539   1.915   6.145   6.798
 5647SOL     OW18540   2.677   6.158   5.911
 5647SOL    HW118541   2.684   6.069   5.865
 5647SOL    HW218542   2.583   6.192   5.903
 5648SOL     OW18543   3.519   6.190   6.792
 5648SOL    HW118544   3.481   6.121   6.854
 5648SOL    HW218545   3.601   6.154   6.748
 5649SOL     OW18546   2.533   6.050   6.855
 5649SOL    HW118547   2.499   5.961   6.825
 5649SOL    HW218548   2.559   6.104   6.775
 5650SOL     OW18549   2.335   6.086   5.777
 5650SOL    HW118550   2.396   6.166   5.781
 5650SOL    HW218551   2.240   6.117   5.784
 5651SOL     OW18552   2.021   6.723   7.052
 5651SOL    HW118553   2.043   6.662   7.128
 5651SOL    HW218554   2.031   6.674   6.966
 5652SOL     OW18555   3.209   6.645   6.820
 5652SOL    HW118556   3.233   6.582   6.746
 5652SOL    HW218557   3.119   6.685   6.802
 5653SOL     OW18558   3.164   6.441   5.895
 5653SOL    HW118559   3.078   6.410   5.937
 5653SOL    HW218560   3.160   6.427   5.796
 5654SOL     OW18561   1.945   6.844   6.608
 5654SOL    HW118562   1.940   6.843   6.708
 5654SOL    HW218563   1.862   6.803   6.570
 5655SOL     OW18564   3.588   5.721   6.109
 5655SOL    HW118565   3.661   5.704   6.042
 5655SOL    HW218566   3.557   5.634   6.147
 5656SOL     OW18567   3.142   6.513   6.258
 5656SOL    HW118568   3.202   6.432   6.260
 5656SOL    HW218569   3.182   6.582   6.198
 5657SOL     OW18570   2.692   6.859   7.008
 5657SOL    HW118571   2.687   6.892   7.103
 5657SOL    HW218572   2.606   6.878   6.962
 5658SOL     OW18573   3.703   5.761   6.549
 5658SOL    HW118574   3.742   5.676   6.513
 5658SOL    HW218575   3.605   5.763   6.530
 5659SOL     OW18576   2.125   5.912   6.306
 5659SOL    HW118577   2.046   5.963   6.272
 5659SOL    HW218578   2.116   5.897   6.404
 5660SOL     OW18579   3.056   7.198   5.617
 5660SOL    HW118580   3.062   7.105   5.654
 5660SOL    HW218581   2.997   7.198   5.537
 5661SOL     OW18582   2.684   6.588   6.958
 5661SOL    HW118583   2.724   6.587   6.866
 5661SOL    HW218584   2.694   6.680   6.998
 5662SOL     OW18585   2.778   6.496   5.877
 5662SOL    HW118586   2.841   6.534   5.809
 5662SOL    HW218587   2.818   6.413   5.916
 5663SOL     OW18588   2.234   6.874   7.076
 5663SOL    HW118589   2.221   6.967   7.042
 5663SOL    HW218590   2.150   6.822   7.063
 5664SOL     OW18591   3.476   6.878   6.875
 5664SOL    HW118592   3.536   6.881   6.955
 5664SOL    HW218593   3.401   6.942   6.888
 5665SOL     OW18594   2.901   6.684   6.282
 5665SOL    HW118595   2.831   6.637   6.336
 5665SOL    HW218596   2.960   6.616   6.239
 5666SOL     OW18597   2.876   5.822   6.557
 5666SOL    HW118598   2.868   5.786   6.464
 5666SOL    HW218599   2.874   5.746   6.622
 5667SOL     OW18600   3.571   5.971   6.967
 5667SOL    HW118601   3.644   6.040   6.971
 5667SOL    HW218602   3.599   5.896   6.908
 5668SOL     OW18603   2.534   5.789   7.075
 5668SOL    HW118604   2.624   5.773   7.035
 5668SOL    HW218605   2.542   5.794   7.174
 5669SOL     OW18606   1.937   5.931   5.619
 5669SOL    HW118607   1.845   5.903   5.590
 5669SOL    HW218608   1.968   6.008   5.563
 5670SOL     OW18609   1.934   5.752   5.904
 5670SOL    HW118610   1.917   5.835   5.850
 5670SOL    HW218611   2.024   5.715   5.882
 5671SOL     OW18612   3.312   6.806   7.219
 5671SOL    HW118613   3.303   6.796   7.318
 5671SOL    HW218614   3.408   6.799   7.193
 5672SOL     OW18615   3.536   6.469   6.840
 5672SOL    HW118616   3.509   6.380   6.803
 5672SOL    HW218617   3.537   6.537   6.767
 5673SOL     OW18618   2.456   6.331   6.238
 5673SOL    HW118619   2.506   6.416   6.219
 5673SOL    HW218620   2.368   6.333   6.190
 5674SOL     OW18621   3.592   6.520   7.103
 5674SOL    HW118622   3.630   6.611   7.118
 5674SOL    HW218623   3.584   6.503   7.004
 5675SOL     OW18624   2.721   6.542   6.447
 5675SOL    HW118625   2.775   6.473   6.495
 5675SOL    HW218626   2.689   6.611   6.513
 5676SOL     OW18627   2.945   6.570   5.673
 5676SOL    HW118628   2.922   6.623   5.591
 5676SOL    HW218629   3.026   6.514   5.654
 5677SOL     OW18630   1.941   6.826   6.239
 5677SOL    HW118631   1.940   6.779   6.327
 5677SOL    HW218632   2.023   6.798   6.188
 5678SOL     OW18633   3.686   5.778   6.813
 5678SOL    HW118634   3.682   5.688   6.857
 5678SOL    HW218635   3.689   5.767   6.714
 5679SOL     OW18636   2.290   6.010   6.106
 5679SOL    HW118637   2.320   5.938   6.044
 5679SOL    HW218638   2.251   5.970   6.189
 5680SOL     OW18639   3.567   7.073   6.690
 5680SOL    HW118640   3.474   7.048   6.663
 5680SOL    HW218641   3.593   7.023   6.772
 5681SOL     OW18642   2.179   6.133   6.866
 5681SOL    HW118643   2.217   6.074   6.938
 5681SOL    HW218644   2.219   6.107   6.778
 5682SOL     OW18645   3.286   5.800   6.698
 5682SOL    HW118646   3.338   5.735   6.753
 5682SOL    HW218647   3.237   5.863   6.759
 5683SOL     OW18648   2.863   5.620   6.740
 5683SOL    HW118649   2.800   5.548   6.709
 5683SOL    HW218650   2.956   5.584   6.740
 5684SOL     OW18651   2.632   6.916   5.887
 5684SOL    HW118652   2.586   6.829   5.904
 5684SOL    HW218653   2.723   6.913   5.928
 5685SOL     OW18654   3.162   6.039   6.277
 5685SOL    HW118655   3.103   6.119   6.281
 5685SOL    HW218656   3.177   6.004   6.370
 5686SOL     OW18657   3.455   5.807   6.468
 5686SOL    HW118658   3.371   5.806   6.522
 5686SOL    HW218659   3.457   5.890   6.412
 5687SOL     OW18660   1.901   6.663   5.886
 5687SOL    HW118661   2.000   6.652   5.877
 5687SOL    HW218662   1.861   6.577   5.918
 5688SOL     OW18663   3.954   0.628   0.113
 5688SOL    HW118664   3.861   0.626   0.150
 5688SOL    HW218665   3.955   0.589   0.021
 5689SOL     OW18666   3.949   0.275   0.996
 5689SOL    HW118667   3.984   0.258   1.088
 5689SOL    HW218668   3.861   0.230   0.984
 5690SOL     OW18669   3.743   0.368   0.647
 5690SOL    HW118670   3.661   0.411   0.686
 5690SOL    HW218671   3.715   0.295   0.584
 5691SOL     OW18672   4.293   1.275   1.165
 5691SOL    HW118673   4.200   1.268   1.128
 5691SOL    HW218674   4.304   1.364   1.209
 5692SOL     OW18675   5.279   1.511   0.703
 5692SOL    HW118676   5.222   1.495   0.784
 5692SOL    HW218677   5.220   1.521   0.623
 5693SOL     OW18678   4.859   0.703   0.717
 5693SOL    HW118679   4.916   0.781   0.692
 5693SOL    HW218680   4.799   0.729   0.793
 5694SOL     OW18681   5.479   0.607   0.231
 5694SOL    HW118682   5.467   0.594   0.132
 5694SOL    HW218683   5.449   0.526   0.280
 5695SOL     OW18684   4.492   1.144   1.023
 5695SOL    HW118685   4.414   1.161   1.083
 5695SOL    HW218686   4.526   1.231   0.987
 5696SOL     OW18687   4.574   0.798   1.823
 5696SOL    HW118688   4.570   0.874   1.888
 5696SOL    HW218689   4.596   0.834   1.732
 5697SOL     OW18690   4.409   1.012   0.665
 5697SOL    HW118691   4.478   0.996   0.735
 5697SOL    HW218692   4.336   1.069   0.703
 5698SOL     OW18693   4.410   1.161   1.803
 5698SOL    HW118694   4.470   1.240   1.817
 5698SOL    HW218695   4.324   1.192   1.762
 5699SOL     OW18696   4.059   1.435   1.061
 5699SOL    HW118697   3.981   1.404   1.008
 5699SOL    HW218698   4.117   1.493   1.004
 5700SOL     OW18699   5.184   1.505   1.339
 5700SOL    HW118700   5.208   1.599   1.365
 5700SOL    HW218701   5.168   1.451   1.421
 5701SOL     OW18702   4.162   0.392   1.499
 5701SOL    HW118703   4.244   0.336   1.508
 5701SOL    HW218704   4.081   0.334   1.503
 5702SOL     OW18705   5.327   0.447   0.737
 5702SOL    HW118706   5.253   0.493   0.687
 5702SOL    HW218707   5.378   0.515   0.790
 5703SOL     OW18708   3.955   1.713   0.483
 5703SOL    HW118709   3.989   1.790   0.537
 5703SOL    HW218710   3.999   1.713   0.393
 5704SOL     OW18711   4.851   1.341   1.690
 5704SOL    HW118712   4.898   1.341   1.778
 5704SOL    HW218713   4.803   1.254   1.679
 5705SOL     OW18714   3.954   1.434   0.538
 5705SOL    HW118715   3.928   1.530   0.538
 5705SOL    HW218716   3.883   1.380   0.583
 5706SOL     OW18717   3.964   1.091   0.886
 5706SOL    HW118718   3.978   1.007   0.938
 5706SOL    HW218719   3.909   1.155   0.941
 5707SOL     OW18720   4.344   1.786   1.439
 5707SOL    HW118721   4.252   1.769   1.474
 5707SOL    HW218722   4.372   1.878   1.465
 5708SOL     OW18723   4.330   0.964   0.123
 5708SOL    HW118724   4.337   1.048   0.069
 5708SOL    HW218725   4.376   0.977   0.211
 5709SOL     OW18726   5.318   0.114   1.480
 5709SOL    HW118727   5.300   0.181   1.408
 5709SOL    HW218728   5.315   0.160   1.569
 5710SOL     OW18729   3.846   0.643   0.563
 5710SOL    HW118730   3.801   0.555   0.580
 5710SOL    HW218731   3.845   0.697   0.647
 5711SOL     OW18732   5.566   1.767   0.359
 5711SOL    HW118733   5.620   1.738   0.439
 5711SOL    HW218734   5.596   1.857   0.330
 5712SOL     OW18735   3.751   1.596   0.117
 5712SOL    HW118736   3.732   1.500   0.138
 5712SOL    HW218737   3.718   1.654   0.192
 5713SOL     OW18738   5.413   0.922   0.612
 5713SOL    HW118739   5.508   0.893   0.620
 5713SOL    HW218740   5.405   0.987   0.537
 5714SOL     OW18741   5.365   1.108   0.432
 5714SOL    HW118742   5.451   1.110   0.380
 5714SOL    HW218743   5.379   1.155   0.520
 5715SOL     OW18744   3.837   0.737   1.597
 5715SOL    HW118745   3.925   0.724   1.642
 5715SOL    HW218746   3.824   0.834   1.575
 5716SOL     OW18747   4.337   1.365   0.726
 5716SOL    HW118748   4.288   1.278   0.735
 5716SOL    HW218749   4.314   1.408   0.639
 5717SOL     OW18750   5.017   1.228   1.423
 5717SOL    HW118751   5.054   1.155   1.365
 5717SOL    HW218752   5.069   1.233   1.508
 5718SOL     OW18753   4.533   0.004   0.502
 5718SOL    HW118754   4.573   0.095   0.493
 5718SOL    HW218755   4.433   0.012   0.508
 5719SOL     OW18756   3.921   0.976   1.264
 5719SOL    HW118757   4.010   0.931   1.250
 5719SOL    HW218758   3.848   0.911   1.245
 5720SOL     OW18759   5.249   0.999   0.190
 5720SOL    HW118760   5.186   0.923   0.203
 5720SOL    HW218761   5.297   1.017   0.276
 5721SOL     OW18762   4.911   1.792   1.616
 5721SOL    HW118763   4.935   1.852   1.540
 5721SOL    HW218764   4.918   1.697   1.586
 5722SOL     OW18765   4.041   0.251   1.801
 5722SOL    HW118766   4.112   0.322   1.807
 5722SOL    HW218767   3.953   0.290   1.829
 5723SOL     OW18768   5.190   1.417   0.953
 5723SOL    HW118769   5.131   1.423   1.033
 5723SOL    HW218770   5.175   1.329   0.907
 5724SOL     OW18771   5.391   1.714   0.572
 5724SOL    HW118772   5.350   1.691   0.484
 5724SOL    HW218773   5.373   1.640   0.637
 5725SOL     OW18774   4.322   0.729   0.270
 5725SOL    HW118775   4.346   0.798   0.202
 5725SOL    HW218776   4.244   0.762   0.324
 5726SOL     OW18777   5.005   0.345   0.944
 5726SOL    HW118778   4.919   0.295   0.931
 5726SOL    HW218779   5.067   0.291   1.000
 5727SOL     OW18780   5.300   1.662   0.307
 5727SOL    HW118781   5.389   1.708   0.310
 5727SOL    HW218782   5.279   1.638   0.212
 5728SOL     OW18783   4.531   0.605   1.465
 5728SOL    HW118784   4.484   0.602   1.554
 5728SOL    HW218785   4.480   0.550   1.399
 5729SOL     OW18786   5.118   0.469   1.674
 5729SOL    HW118787   5.098   0.512   1.762
 5729SOL    HW218788   5.196   0.407   1.683
 5730SOL     OW18789   4.697   0.890   1.572
 5730SOL    HW118790   4.743   0.806   1.543
 5730SOL    HW218791   4.641   0.924   1.497
 5731SOL     OW18792   4.715   0.410   1.242
 5731SOL    HW118793   4.638   0.444   1.296
 5731SOL    HW218794   4.681   0.359   1.163
 5732SOL     OW18795   4.765   0.701   0.429
 5732SOL    HW118796   4.791   0.697   0.525
 5732SOL    HW218797   4.680   0.650   0.415
 5733SOL     OW18798   3.800   0.811   0.789
 5733SOL    HW118799   3.899   0.799   0.798
 5733SOL    HW218800   3.776   0.906   0.810
 5734SOL     OW18801   3.854   1.821   1.571
 5734SOL    HW118802   3.844   1.806   1.670
 5734SOL    HW218803   3.768   1.857   1.535
 5735SOL     OW18804   4.589   0.348   0.195
 5735SOL    HW118805   4.648   0.411   0.146
 5735SOL    HW218806   4.608   0.254   0.166
 5736SOL     OW18807   5.443   0.585   1.831
 5736SOL    HW118808   5.417   0.674   1.795
 5736SOL    HW218809   5.441   0.517   1.758
 5737SOL     OW18810   5.086   1.144   0.545
 5737SOL    HW118811   5.169   1.115   0.497
 5737SOL    HW218812   5.037   1.211   0.489
 5738SOL     OW18813   4.274   0.196   0.885
 5738SOL    HW118814   4.269   0.191   0.985
 5738SOL    HW218815   4.276   0.292   0.856
 5739SOL     OW18816   4.732   1.456   0.477
 5739SOL    HW118817   4.686   1.528   0.425
 5739SOL    HW218818   4.728   1.476   0.575
 5740SOL     OW18819   4.075   1.801   0.853
 5740SOL    HW118820   4.125   1.715   0.859
 5740SOL    HW218821   4.140   1.878   0.850
 5741SOL     OW18822   5.519   1.066   0.873
 5741SOL    HW118823   5.457   1.051   0.797
 5741SOL    HW218824   5.467   1.077   0.958
 5742SOL     OW18825   4.951   1.550   1.506
 5742SOL    HW118826   4.957   1.473   1.570
 5742SOL    HW218827   4.899   1.524   1.426
 5743SOL     OW18828   4.045   0.943   0.242
 5743SOL    HW118829   4.127   0.982   0.200
 5743SOL    HW218830   4.018   0.861   0.193
 5744SOL     OW18831   5.182   0.735   0.728
 5744SOL    HW118832   5.177   0.670   0.803
 5744SOL    HW218833   5.262   0.794   0.741
 5745SOL     OW18834   4.185   1.266   1.727
 5745SOL    HW118835   4.135   1.267   1.641
 5745SOL    HW218836   4.122   1.248   1.803
 5746SOL     OW18837   4.835   1.776   0.237
 5746SOL    HW118838   4.775   1.714   0.287
 5746SOL    HW218839   4.866   1.732   0.152
 5747SOL     OW18840   3.926   0.285   1.498
 5747SOL    HW118841   3.846   0.345   1.485
 5747SOL    HW218842   3.916   0.236   1.584
 5748SOL     OW18843   5.356   1.377   0.081
 5748SOL    HW118844   5.324   1.471   0.071
 5748SOL    HW218845   5.280   1.314   0.069
 5749SOL     OW18846   4.188   1.743   0.323
 5749SOL    HW118847   4.221   1.782   0.409
 5749SOL    HW218848   4.264   1.736   0.258
 5750SOL     OW18849   5.124   0.107   0.426
 5750SOL    HW118850   5.100   0.070   0.336
 5750SOL    HW218851   5.223   0.123   0.430
 5751SOL     OW18852   3.973   1.785   1.241
 5751SOL    HW118853   4.030   1.720   1.291
 5751SOL    HW218854   3.957   1.752   1.148
 5752SOL     OW18855   4.664   1.698   0.904
 5752SOL    HW118856   4.744   1.641   0.925
 5752SOL    HW218857   4.615   1.658   0.827
 5753SOL     OW18858   4.106   0.700   0.480
 5753SOL    HW118859   4.151   0.610   0.477
 5753SOL    HW218860   4.012   0.689   0.513
 5754SOL     OW18861   5.271   0.222   1.729
 5754SOL    HW118862   5.266   0.259   1.821
 5754SOL    HW218863   5.199   0.153   1.717
 5755SOL     OW18864   4.338   0.122   0.117
 5755SOL    HW118865   4.436   0.100   0.124
 5755SOL    HW218866   4.307   0.105   0.024
 5756SOL     OW18867   4.505   0.264   1.749
 5756SOL    HW118868   4.572   0.203   1.792
 5756SOL    HW218869   4.432   0.283   1.814
 5757SOL     OW18870   4.612   1.514   1.195
 5757SOL    HW118871   4.589   1.489   1.101
 5757SOL    HW218872   4.673   1.445   1.234
 5758SOL     OW18873   5.075   0.590   1.433
 5758SOL    HW118874   5.103   0.547   1.518
 5758SOL    HW218875   5.100   0.686   1.434
 5759SOL     OW18876   4.527   1.402   0.924
 5759SOL    HW118877   4.617   1.416   0.882
 5759SOL    HW218878   4.456   1.404   0.853
 5760SOL     OW18879   4.646   0.503   0.899
 5760SOL    HW118880   4.621   0.494   0.803
 5760SOL    HW218881   4.694   0.421   0.930
 5761SOL     OW18882   4.263   0.064   0.512
 5761SOL    HW118883   4.182   0.065   0.570
 5761SOL    HW218884   4.266   0.147   0.457
 5762SOL     OW18885   5.158   1.188   0.041
 5762SOL    HW118886   5.190   1.112   0.098
 5762SOL    HW218887   5.066   1.215   0.071
 5763SOL     OW18888   4.021   0.035   0.171
 5763SOL    HW118889   4.070   0.119   0.150
 5763SOL    HW218890   4.083  -0.030   0.216
 5764SOL     OW18891   4.659   0.236   0.480
 5764SOL    HW118892   4.611   0.277   0.402
 5764SOL    HW218893   4.758   0.234   0.461
 5765SOL     OW18894   4.800   0.683   1.464
 5765SOL    HW118895   4.720   0.622   1.467
 5765SOL    HW218896   4.881   0.630   1.440
 5766SOL     OW18897   4.951   1.570   0.793
 5766SOL    HW118898   4.972   1.644   0.728
 5766SOL    HW218899   5.019   1.570   0.866
 5767SOL     OW18900   4.183   1.152   0.741
 5767SOL    HW118901   4.112   1.125   0.806
 5767SOL    HW218902   4.157   1.124   0.648
 5768SOL     OW18903   4.995   1.797   0.591
 5768SOL    HW118904   5.039   1.861   0.527
 5768SOL    HW218905   4.945   1.849   0.661
 5769SOL     OW18906   4.756   0.549   0.016
 5769SOL    HW118907   4.715   0.631  -0.023
 5769SOL    HW218908   4.820   0.575   0.089
 5770SOL     OW18909   3.802   0.556   1.386
 5770SOL    HW118910   3.894   0.555   1.345
 5770SOL    HW218911   3.796   0.630   1.453
 5771SOL     OW18912   4.285   0.222   1.147
 5771SOL    HW118913   4.323   0.138   1.184
 5771SOL    HW218914   4.197   0.241   1.191
 5772SOL     OW18915   4.590   0.454   0.642
 5772SOL    HW118916   4.558   0.526   0.580
 5772SOL    HW218917   4.614   0.373   0.589
 5773SOL     OW18918   4.741   0.039   0.753
 5773SOL    HW118919   4.669   0.044   0.684
 5773SOL    HW218920   4.717  -0.030   0.822
 5774SOL     OW18921   5.153   1.173   0.867
 5774SOL    HW118922   5.098   1.089   0.860
 5774SOL    HW218923   5.179   1.202   0.775
 5775SOL     OW18924   5.190   0.590   0.992
 5775SOL    HW118925   5.160   0.495   0.999
 5775SOL    HW218926   5.263   0.606   1.058
 5776SOL     OW18927   5.581   0.833   0.377
 5776SOL    HW118928   5.623   0.769   0.441
 5776SOL    HW218929   5.543   0.782   0.299
 5777SOL     OW18930   4.212   1.385   0.174
 5777SOL    HW118931   4.125   1.370   0.221
 5777SOL    HW218932   4.195   1.411   0.079
 5778SOL     OW18933   5.388   1.280   0.657
 5778SOL    HW118934   5.487   1.288   0.671
 5778SOL    HW218935   5.343   1.364   0.688
 5779SOL     OW18936   5.114   0.575   0.078
 5779SOL    HW118937   5.060   0.554   0.159
 5779SOL    HW218938   5.205   0.534   0.087
 5780SOL     OW18939   4.251   0.256   0.328
 5780SOL    HW118940   4.278   0.197   0.253
 5780SOL    HW218941   4.251   0.351   0.297
 5781SOL     OW18942   5.478   1.223   1.588
 5781SOL    HW118943   5.569   1.184   1.575
 5781SOL    HW218944   5.486   1.319   1.612
 5782SOL     OW18945   4.788   1.347   1.340
 5782SOL    HW118946   4.708   1.324   1.395
 5782SOL    HW218947   4.871   1.321   1.389
 5783SOL     OW18948   5.316   1.629   1.625
 5783SOL    HW118949   5.343   1.663   1.535
 5783SOL    HW218950   5.395   1.591   1.671
 5784SOL     OW18951   4.835   1.195   1.100
 5784SOL    HW118952   4.795   1.239   1.181
 5784SOL    HW218953   4.794   1.232   1.017
 5785SOL     OW18954   5.362   1.099   1.079
 5785SOL    HW118955   5.367   1.180   1.138
 5785SOL    HW218956   5.276   1.101   1.028
 5786SOL     OW18957   4.639   0.089   1.402
 5786SOL    HW118958   4.664   0.069   1.307
 5786SOL    HW218959   4.711   0.145   1.444
 5787SOL     OW18960   4.704   1.116   1.719
 5787SOL    HW118961   4.605   1.122   1.729
 5787SOL    HW218962   4.727   1.036   1.663
 5788SOL     OW18963   4.429   1.050   0.368
 5788SOL    HW118964   4.415   1.057   0.467
 5788SOL    HW218965   4.513   0.999   0.350
 5789SOL     OW18966   4.134   0.813   1.251
 5789SOL    HW118967   4.220   0.825   1.301
 5789SOL    HW218968   4.092   0.726   1.278
 5790SOL     OW18969   4.998   0.386   1.262
 5790SOL    HW118970   5.019   0.460   1.326
 5790SOL    HW218971   4.909   0.403   1.219
 5791SOL     OW18972   3.788   1.564   1.331
 5791SOL    HW118973   3.742   1.646   1.297
 5791SOL    HW218974   3.886   1.583   1.340
 5792SOL     OW18975   4.091   1.100   0.501
 5792SOL    HW118976   4.084   1.183   0.445
 5792SOL    HW218977   4.095   1.020   0.441
 5793SOL     OW18978   4.290   0.537   0.865
 5793SOL    HW118979   4.302   0.603   0.791
 5793SOL    HW218980   4.336   0.571   0.948
 5794SOL     OW18981   4.976   1.348   0.388
 5794SOL    HW118982   5.026   1.425   0.428
 5794SOL    HW218983   4.881   1.350   0.420
 5795SOL     OW18984   4.996   1.445   1.142
 5795SOL    HW118985   5.043   1.458   1.229
 5795SOL    HW218986   4.930   1.371   1.151
 5796SOL     OW18987   5.306   0.639   0.472
 5796SOL    HW118988   5.275   0.700   0.545
 5796SOL    HW218989   5.356   0.691   0.403
 5797SOL     OW18990   4.078   1.510   1.329
 5797SOL    HW118991   4.057   1.466   1.242
 5797SOL    HW218992   4.175   1.536   1.332
 5798SOL     OW18993   4.126   0.751   1.598
 5798SOL    HW118994   4.194   0.806   1.551
 5798SOL    HW218995   4.166   0.663   1.625
 5799SOL     OW18996   5.311   0.779   1.670
 5799SOL    HW118997   5.219   0.817   1.665
 5799SOL    HW218998   5.371   0.826   1.605
 5800SOL     OW18999   4.737   0.105   1.770
 5800SOL    HW119000   4.743   0.190   1.718
 5800SOL    HW219001   4.769   0.029   1.713
 5801SOL     OW19002   4.228   0.050   1.740
 5801SOL    HW119003   4.186  -0.007   1.670
 5801SOL    HW219004   4.162   0.119   1.772
 5802SOL     OW19005   4.297   0.870   1.029
 5802SOL    HW119006   4.341   0.959   1.020
 5802SOL    HW219007   4.234   0.870   1.106
 5803SOL     OW19008   5.084   0.862   1.045
 5803SOL    HW119009   5.009   0.862   0.979
 5803SOL    HW219010   5.121   0.770   1.054
 5804SOL     OW19011   4.933   0.525   0.275
 5804SOL    HW119012   4.946   0.441   0.329
 5804SOL    HW219013   4.904   0.599   0.335
 5805SOL     OW19014   4.031   0.213   1.231
 5805SOL    HW119015   4.008   0.250   1.321
 5805SOL    HW219016   4.001   0.118   1.225
 5806SOL     OW19017   3.761   1.310   1.282
 5806SOL    HW119018   3.814   1.261   1.350
 5806SOL    HW219019   3.783   1.408   1.287
 5807SOL     OW19020   4.456   0.634   1.064
 5807SOL    HW119021   4.515   0.608   0.988
 5807SOL    HW219022   4.428   0.730   1.053
 5808SOL     OW19023   5.452   0.935   1.854
 5808SOL    HW119024   5.406   0.928   1.765
 5808SOL    HW219025   5.390   0.979   1.920
 5809SOL     OW19026   4.031   0.063   0.618
 5809SOL    HW119027   4.020   0.157   0.651
 5809SOL    HW219028   4.026   0.000   0.695
 5810SOL     OW19029   5.346   0.367   0.374
 5810SOL    HW119030   5.348   0.291   0.438
 5810SOL    HW219031   5.298   0.444   0.414
 5811SOL     OW19032   4.747   0.766   0.966
 5811SOL    HW119033   4.762   0.787   1.062
 5811SOL    HW219034   4.717   0.671   0.957
 5812SOL     OW19035   4.704   1.573   1.700
 5812SOL    HW119036   4.684   1.617   1.612
 5812SOL    HW219037   4.743   1.482   1.684
 5813SOL     OW19038   5.583   1.518   1.605
 5813SOL    HW119039   5.597   1.545   1.510
 5813SOL    HW219040   5.666   1.540   1.658
 5814SOL     OW19041   4.074   0.898   1.804
 5814SOL    HW119042   4.150   0.942   1.852
 5814SOL    HW219043   4.109   0.851   1.722
 5815SOL     OW19044   5.264   0.274   0.125
 5815SOL    HW119045   5.203   0.199   0.148
 5815SOL    HW219046   5.286   0.326   0.208
 5816SOL     OW19047   5.027   0.838   0.042
 5816SOL    HW119048   5.061   0.745   0.057
 5816SOL    HW219049   5.045   0.865  -0.053
 5817SOL     OW19050   4.792   1.333   0.849
 5817SOL    HW119051   4.799   1.249   0.794
 5817SOL    HW219052   4.854   1.402   0.813
 5818SOL     OW19053   4.043   0.810   0.949
 5818SOL    HW119054   4.136   0.846   0.954
 5818SOL    HW219055   4.037   0.725   1.001
 5819SOL     OW19056   4.063   0.509   1.006
 5819SOL    HW119057   4.011   0.426   0.989
 5819SOL    HW219058   4.140   0.514   0.942
 5820SOL     OW19059   4.862   0.380   1.678
 5820SOL    HW119060   4.817   0.443   1.742
 5820SOL    HW219061   4.955   0.411   1.661
 5821SOL     OW19062   4.884   0.207   1.477
 5821SOL    HW119063   4.884   0.271   1.554
 5821SOL    HW219064   4.912   0.255   1.394
 5822SOL     OW19065   3.812   1.801   0.927
 5822SOL    HW119066   3.770   1.715   0.900
 5822SOL    HW219067   3.906   1.804   0.893
 5823SOL     OW19068   4.228   1.568   0.910
 5823SOL    HW119069   4.294   1.642   0.919
 5823SOL    HW219070   4.272   1.489   0.868
 5824SOL     OW19071   4.726   0.796   1.238
 5824SOL    HW119072   4.767   0.764   1.324
 5824SOL    HW219073   4.630   0.769   1.235
 5825SOL     OW19074   3.764   0.544   1.114
 5825SOL    HW119075   3.849   0.511   1.073
 5825SOL    HW219076   3.777   0.559   1.212
 5826SOL     OW19077   3.913   0.520   1.722
 5826SOL    HW119078   3.972   0.480   1.652
 5826SOL    HW219079   3.855   0.591   1.681
 5827SOL     OW19080   5.093   0.950   1.660
 5827SOL    HW119081   5.132   1.039   1.680
 5827SOL    HW219082   5.103   0.930   1.563
 5828SOL     OW19083   4.539   0.572   0.325
 5828SOL    HW119084   4.546   0.483   0.279
 5828SOL    HW219085   4.445   0.606   0.317
 5829SOL     OW19086   5.381   0.604   1.206
 5829SOL    HW119087   5.343   0.535   1.268
 5829SOL    HW219088   5.463   0.568   1.162
 5830SOL     OW19089   3.976   1.564   1.744
 5830SOL    HW119090   3.946   1.621   1.820
 5830SOL    HW219091   3.969   1.467   1.770
 5831SOL     OW19092   4.395   0.464   1.269
 5831SOL    HW119093   4.361   0.375   1.239
 5831SOL    HW219094   4.421   0.518   1.189
 5832SOL     OW19095   4.654   1.678   1.465
 5832SOL    HW119096   4.630   1.660   1.370
 5832SOL    HW219097   4.684   1.772   1.475
 5833SOL     OW19098   4.197   0.500   0.191
 5833SOL    HW119099   4.258   0.580   0.195
 5833SOL    HW219100   4.102   0.531   0.198
 5834SOL     OW19101   3.883   1.137   1.466
 5834SOL    HW119102   3.905   1.076   1.542
 5834SOL    HW219103   3.893   1.088   1.380
 5835SOL     OW19104   5.071   1.059   1.234
 5835SOL    HW119105   5.095   0.996   1.160
 5835SOL    HW219106   4.981   1.099   1.216
 5836SOL     OW19107   5.026   0.855   0.309
 5836SOL    HW119108   4.940   0.824   0.351
 5836SOL    HW219109   5.022   0.841   0.210
 5837SOL     OW19110   5.483   1.747   1.154
 5837SOL    HW119111   5.544   1.777   1.081
 5837SOL    HW219112   5.445   1.658   1.132
 5838SOL     OW19113   4.976   1.731   1.128
 5838SOL    HW119114   5.060   1.736   1.074
 5838SOL    HW219115   4.953   1.635   1.146
 5839SOL     OW19116   3.807   1.258   1.022
 5839SOL    HW119117   3.802   1.257   1.122
 5839SOL    HW219118   3.724   1.217   0.984
 5840SOL     OW19119   4.412   1.662   1.716
 5840SOL    HW119120   4.356   1.743   1.725
 5840SOL    HW219121   4.464   1.666   1.630
 5841SOL     OW19122   4.627   0.086   0.133
 5841SOL    HW119123   4.678   0.087   0.047
 5841SOL    HW219124   4.683   0.044   0.204
 5842SOL     OW19125   5.450   0.135   0.523
 5842SOL    HW119126   5.523   0.118   0.456
 5842SOL    HW219127   5.419   0.048   0.561
 5843SOL     OW19128   5.112   1.573   0.477
 5843SOL    HW119129   5.179   1.585   0.403
 5843SOL    HW219130   5.072   1.662   0.500
 5844SOL     OW19131   3.854   1.794   1.851
 5844SOL    HW119132   3.813   1.720   1.904
 5844SOL    HW219133   3.918   1.845   1.909
 5845SOL     OW19134   5.004   0.927   0.672
 5845SOL    HW119135   5.064   0.846   0.674
 5845SOL    HW219136   5.044   0.996   0.612
 5846SOL     OW19137   4.554   1.273   1.422
 5846SOL    HW119138   4.549   1.306   1.517
 5846SOL    HW219139   4.468   1.292   1.376
 5847SOL     OW19140   4.396   1.616   0.154
 5847SOL    HW119141   4.405   1.626   0.055
 5847SOL    HW219142   4.356   1.527   0.175
 5848SOL     OW19143   5.374   1.720   1.394
 5848SOL    HW119144   5.427   1.730   1.310
 5848SOL    HW219145   5.347   1.810   1.428
 5849SOL     OW19146   5.565   0.175   0.963
 5849SOL    HW119147   5.604   0.090   0.927
 5849SOL    HW219148   5.467   0.177   0.944
 5850SOL     OW19149   3.987   0.326   0.720
 5850SOL    HW119150   3.908   0.377   0.686
 5850SOL    HW219151   3.978   0.311   0.818
 5851SOL     OW19152   4.918   1.612   0.031
 5851SOL    HW119153   4.924   1.519   0.068
 5851SOL    HW219154   4.859   1.612  -0.049
 5852SOL     OW19155   4.546   1.002   1.372
 5852SOL    HW119156   4.586   1.001   1.280
 5852SOL    HW219157   4.556   1.094   1.412
 5853SOL     OW19158   4.640   0.910   0.291
 5853SOL    HW119159   4.703   0.948   0.223
 5853SOL    HW219160   4.680   0.827   0.330
 5854SOL     OW19161   5.228   1.607   0.044
 5854SOL    HW119162   5.136   1.644   0.051
 5854SOL    HW219163   5.266   1.627  -0.046
 5855SOL     OW19164   4.096   1.288   1.490
 5855SOL    HW119165   4.083   1.381   1.456
 5855SOL    HW219166   4.012   1.236   1.477
 5856SOL     OW19167   5.338   1.292   1.289
 5856SOL    HW119168   5.398   1.295   1.369
 5856SOL    HW219169   5.263   1.356   1.302
 5857SOL     OW19170   4.763   1.098   0.696
 5857SOL    HW119171   4.693   1.051   0.750
 5857SOL    HW219172   4.822   1.030   0.653
 5858SOL     OW19173   4.738   0.236   0.971
 5858SOL    HW119174   4.730   0.200   0.878
 5858SOL    HW219175   4.736   0.160   1.036
 5859SOL     OW19176   4.314   1.487   0.491
 5859SOL    HW119177   4.356   1.429   0.421
 5859SOL    HW219178   4.270   1.566   0.447
 5860SOL     OW19179   5.433   0.385   1.381
 5860SOL    HW119180   5.506   0.454   1.385
 5860SOL    HW219181   5.461   0.310   1.322
 5861SOL     OW19182   3.979   1.348   0.290
 5861SOL    HW119183   3.883   1.349   0.263
 5861SOL    HW219184   3.991   1.401   0.374
 5862SOL     OW19185   3.829   1.013   1.726
 5862SOL    HW119186   3.752   0.980   1.780
 5862SOL    HW219187   3.914   0.983   1.768
 5863SOL     OW19188   4.396   0.203   1.489
 5863SOL    HW119189   4.486   0.187   1.449
 5863SOL    HW219190   4.404   0.208   1.588
 5864SOL     OW19191   3.799   0.345   0.033
 5864SOL    HW119192   3.707   0.317   0.004
 5864SOL    HW219193   3.830   0.422  -0.023
 5865SOL     OW19194   5.164   0.856   1.398
 5865SOL    HW119195   5.107   0.908   1.335
 5865SOL    HW219196   5.260   0.868   1.374
 5866SOL     OW19197   3.796   0.166   0.318
 5866SOL    HW119198   3.779   0.249   0.264
 5866SOL    HW219199   3.886   0.129   0.296
 5867SOL     OW19200   4.907   1.335   0.119
 5867SOL    HW119201   4.808   1.324   0.121
 5867SOL    HW219202   4.941   1.350   0.212
 5868SOL     OW19203   4.337   0.842   1.431
 5868SOL    HW119204   4.393   0.923   1.414
 5868SOL    HW219205   4.396   0.762   1.434
 5869SOL     OW19206   5.217   1.767   0.959
 5869SOL    HW119207   5.250   1.831   0.890
 5869SOL    HW219208   5.283   1.761   1.034
 5870SOL     OW19209   4.440   0.565   1.708
 5870SOL    HW119210   4.459   0.630   1.782
 5870SOL    HW219211   4.500   0.485   1.717
 5871SOL     OW19212   5.174   1.220   1.633
 5871SOL    HW119213   5.165   1.210   1.732
 5871SOL    HW219214   5.270   1.213   1.607
 5872SOL     OW19215   4.114   1.741   1.560
 5872SOL    HW119216   4.023   1.782   1.558
 5872SOL    HW219217   4.107   1.647   1.592
 5873SOL     OW19218   5.398   0.883   1.254
 5873SOL    HW119219   5.371   0.794   1.217
 5873SOL    HW219220   5.399   0.951   1.181
 5874SOL     OW19221   4.949   0.325   0.449
 5874SOL    HW119222   5.014   0.251   0.438
 5874SOL    HW219223   4.969   0.375   0.533
 5875SOL     OW19224   4.318   0.745   0.652
 5875SOL    HW119225   4.368   0.830   0.633
 5875SOL    HW219226   4.230   0.747   0.604
 5876SOL     OW19227   5.501   0.342   1.642
 5876SOL    HW119228   5.484   0.373   1.548
 5876SOL    HW219229   5.417   0.305   1.680
 5877SOL     OW19230   5.454   0.934   1.517
 5877SOL    HW119231   5.492   1.025   1.532
 5877SOL    HW219232   5.446   0.917   1.418
 5878SOL     OW19233   4.583   1.374   0.016
 5878SOL    HW119234   4.537   1.389   0.104
 5878SOL    HW219235   4.627   1.459  -0.014
 5879SOL     OW19236   4.385   1.790   0.953
 5879SOL    HW119237   4.339   1.878   0.940
 5879SOL    HW219238   4.484   1.802   0.946
 5880SOL     OW19239   4.583   0.956   0.861
 5880SOL    HW119240   4.637   0.887   0.909
 5880SOL    HW219241   4.551   1.025   0.927
 5881SOL     OW19242   4.807   0.984   0.087
 5881SOL    HW119243   4.784   1.037   0.005
 5881SOL    HW219244   4.888   0.928   0.068
 5882SOL     OW19245   5.585   1.569   0.851
 5882SOL    HW119246   5.514   1.557   0.781
 5882SOL    HW219247   5.586   1.490   0.911
 5883SOL     OW19248   3.945   1.314   1.844
 5883SOL    HW119249   3.880   1.241   1.823
 5883SOL    HW219250   3.949   1.328   1.942
 5884SOL     OW19251   3.803   1.240   0.653
 5884SOL    HW119252   3.802   1.193   0.741
 5884SOL    HW219253   3.885   1.212   0.602
 5885SOL     OW19254   4.396   1.391   1.624
 5885SOL    HW119255   4.318   1.341   1.662
 5885SOL    HW219256   4.393   1.486   1.655
 5886SOL     OW19257   5.548   0.192   1.227
 5886SOL    HW119258   5.544   0.102   1.271
 5886SOL    HW219259   5.551   0.181   1.128
 5887SOL     OW19260   4.152   0.424   0.520
 5887SOL    HW119261   4.182   0.352   0.458
 5887SOL    HW219262   4.113   0.384   0.603
 5888SOL     OW19263   5.429   1.487   1.104
 5888SOL    HW119264   5.336   1.462   1.077
 5888SOL    HW219265   5.455   1.437   1.186
 5889SOL     OW19266   4.041   0.547   1.280
 5889SOL    HW119267   4.079   0.488   1.352
 5889SOL    HW219268   4.081   0.521   1.192
 5890SOL     OW19269   4.536   1.586   0.687
 5890SOL    HW119270   4.568   1.596   0.593
 5890SOL    HW219271   4.457   1.524   0.689
 5891SOL     OW19272   5.148   0.214   1.112
 5891SOL    HW119273   5.200   0.149   1.167
 5891SOL    HW219274   5.099   0.277   1.173
 5892SOL     OW19275   4.725   0.034   1.154
 5892SOL    HW119276   4.662  -0.038   1.123
 5892SOL    HW219277   4.818  -0.002   1.154
 5893SOL     OW19278   4.494   1.330   0.301
 5893SOL    HW119279   4.448   1.243   0.318
 5893SOL    HW219280   4.585   1.327   0.342
 5894SOL     OW19281   4.342   1.567   1.284
 5894SOL    HW119282   4.337   1.649   1.341
 5894SOL    HW219283   4.431   1.564   1.239
 5895SOL     OW19284   5.076   0.052   0.168
 5895SOL    HW119285   5.111   0.011   0.084
 5895SOL    HW219286   4.986   0.014   0.188
 5896SOL     OW19287   5.024   0.453   0.691
 5896SOL    HW119288   4.965   0.533   0.695
 5896SOL    HW219289   5.039   0.418   0.784
 5897SOL     OW19290   5.317   0.221   0.882
 5897SOL    HW119291   5.233   0.220   0.936
 5897SOL    HW219292   5.319   0.304   0.826
 5898SOL     OW19293   3.763   1.077   0.300
 5898SOL    HW119294   3.862   1.066   0.291
 5898SOL    HW219295   3.723   0.991   0.332
 5899SOL     OW19296   4.599   1.646   0.337
 5899SOL    HW119297   4.522   1.611   0.283
 5899SOL    HW219298   4.567   1.717   0.399
 5900SOL     OW19299   3.954   0.628   1.975
 5900SOL    HW119300   3.861   0.626   2.012
 5900SOL    HW219301   3.955   0.589   1.883
 5901SOL     OW19302   3.949   0.275   2.858
 5901SOL    HW119303   3.984   0.258   2.950
 5901SOL    HW219304   3.861   0.230   2.846
 5902SOL     OW19305   3.743   0.368   2.509
 5902SOL    HW119306   3.661   0.411   2.548
 5902SOL    HW219307   3.715   0.295   2.446
 5903SOL     OW19308   4.293   1.275   3.027
 5903SOL    HW119309   4.200   1.268   2.990
 5903SOL    HW219310   4.304   1.364   3.071
 5904SOL     OW19311   5.279   1.511   2.565
 5904SOL    HW119312   5.222   1.495   2.646
 5904SOL    HW219313   5.220   1.521   2.485
 5905SOL     OW19314   4.859   0.703   2.579
 5905SOL    HW119315   4.916   0.781   2.554
 5905SOL    HW219316   4.799   0.729   2.655
 5906SOL     OW19317   5.479   0.607   2.093
 5906SOL    HW119318   5.467   0.594   1.994
 5906SOL    HW219319   5.449   0.526   2.142
 5907SOL     OW19320   4.492   1.144   2.885
 5907SOL    HW119321   4.414   1.161   2.945
 5907SOL    HW219322   4.526   1.231   2.849
 5908SOL     OW19323   4.574   0.798   3.685
 5908SOL    HW119324   4.570   0.874   3.750
 5908SOL    HW219325   4.596   0.834   3.594
 5909SOL     OW19326   4.409   1.012   2.527
 5909SOL    HW119327   4.478   0.996   2.597
 5909SOL    HW219328   4.336   1.069   2.565
 5910SOL     OW19329   4.410   1.161   3.665
 5910SOL    HW119330   4.470   1.240   3.679
 5910SOL    HW219331   4.324   1.192   3.624
 5911SOL     OW19332   4.059   1.435   2.923
 5911SOL    HW119333   3.981   1.404   2.870
 5911SOL    HW219334   4.117   1.493   2.866
 5912SOL     OW19335   5.184   1.505   3.201
 5912SOL    HW119336   5.208   1.599   3.227
 5912SOL    HW219337   5.168   1.451   3.283
 5913SOL     OW19338   4.162   0.392   3.361
 5913SOL    HW119339   4.244   0.336   3.370
 5913SOL    HW219340   4.081   0.334   3.365
 5914SOL     OW19341   5.327   0.447   2.599
 5914SOL    HW119342   5.253   0.493   2.549
 5914SOL    HW219343   5.378   0.515   2.652
 5915SOL     OW19344   3.955   1.713   2.345
 5915SOL    HW119345   3.989   1.790   2.399
 5915SOL    HW219346   3.999   1.713   2.255
 5916SOL     OW19347   4.851   1.341   3.552
 5916SOL    HW119348   4.898   1.341   3.640
 5916SOL    HW219349   4.803   1.254   3.541
 5917SOL     OW19350   3.954   1.434   2.400
 5917SOL    HW119351   3.928   1.530   2.400
 5917SOL    HW219352   3.883   1.380   2.445
 5918SOL     OW19353   3.964   1.091   2.748
 5918SOL    HW119354   3.978   1.007   2.800
 5918SOL    HW219355   3.909   1.155   2.803
 5919SOL     OW19356   4.344   1.786   3.301
 5919SOL    HW119357   4.252   1.769   3.336
 5919SOL    HW219358   4.372   1.878   3.327
 5920SOL     OW19359   4.330   0.964   1.985
 5920SOL    HW119360   4.337   1.048   1.931
 5920SOL    HW219361   4.376   0.977   2.073
 5921SOL     OW19362   5.318   0.114   3.342
 5921SOL    HW119363   5.300   0.181   3.270
 5921SOL    HW219364   5.315   0.160   3.431
 5922SOL     OW19365   3.846   0.643   2.425
 5922SOL    HW119366   3.801   0.555   2.442
 5922SOL    HW219367   3.845   0.697   2.509
 5923SOL     OW19368   5.566   1.767   2.221
 5923SOL    HW119369   5.620   1.738   2.301
 5923SOL    HW219370   5.596   1.857   2.192
 5924SOL     OW19371   3.751   1.596   1.979
 5924SOL    HW119372   3.732   1.500   2.000
 5924SOL    HW219373   3.718   1.654   2.054
 5925SOL     OW19374   5.413   0.922   2.474
 5925SOL    HW119375   5.508   0.893   2.482
 5925SOL    HW219376   5.405   0.987   2.399
 5926SOL     OW19377   5.365   1.108   2.294
 5926SOL    HW119378   5.451   1.110   2.242
 5926SOL    HW219379   5.379   1.155   2.382
 5927SOL     OW19380   3.837   0.737   3.459
 5927SOL    HW119381   3.925   0.724   3.504
 5927SOL    HW219382   3.824   0.834   3.437
 5928SOL     OW19383   4.337   1.365   2.588
 5928SOL    HW119384   4.288   1.278   2.597
 5928SOL    HW219385   4.314   1.408   2.501
 5929SOL     OW19386   5.017   1.228   3.285
 5929SOL    HW119387   5.054   1.155   3.227
 5929SOL    HW219388   5.069   1.233   3.370
 5930SOL     OW19389   4.533   0.004   2.364
 5930SOL    HW119390   4.573   0.095   2.355
 5930SOL    HW219391   4.433   0.012   2.370
 5931SOL     OW19392   3.921   0.976   3.126
 5931SOL    HW119393   4.010   0.931   3.112
 5931SOL    HW219394   3.848   0.911   3.107
 5932SOL     OW19395   5.249   0.999   2.052
 5932SOL    HW119396   5.186   0.923   2.065
 5932SOL    HW219397   5.297   1.017   2.138
 5933SOL     OW19398   4.911   1.792   3.478
 5933SOL    HW119399   4.935   1.852   3.402
 5933SOL    HW219400   4.918   1.697   3.448
 5934SOL     OW19401   5.190   1.417   2.815
 5934SOL    HW119402   5.131   1.423   2.895
 5934SOL    HW219403   5.175   1.329   2.769
 5935SOL     OW19404   5.391   1.714   2.434
 5935SOL    HW119405   5.350   1.691   2.346
 5935SOL    HW219406   5.373   1.640   2.499
 5936SOL     OW19407   4.322   0.729   2.132
 5936SOL    HW119408   4.346   0.798   2.064
 5936SOL    HW219409   4.244   0.762   2.186
 5937SOL     OW19410   5.005   0.345   2.806
 5937SOL    HW119411   4.919   0.295   2.793
 5937SOL    HW219412   5.067   0.291   2.862
 5938SOL     OW19413   5.300   1.662   2.169
 5938SOL    HW119414   5.389   1.708   2.172
 5938SOL    HW219415   5.279   1.638   2.074
 5939SOL     OW19416   4.531   0.605   3.327
 5939SOL    HW119417   4.484   0.602   3.416
 5939SOL    HW219418   4.480   0.550   3.261
 5940SOL     OW19419   5.118   0.469   3.536
 5940SOL    HW119420   5.098   0.512   3.624
 5940SOL    HW219421   5.196   0.407   3.545
 5941SOL     OW19422   4.697   0.890   3.434
 5941SOL    HW119423   4.743   0.806   3.405
 5941SOL    HW219424   4.641   0.924   3.359
 5942SOL     OW19425   4.715   0.410   3.104
 5942SOL    HW119426   4.638   0.444   3.158
 5942SOL    HW219427   4.681   0.359   3.025
 5943SOL     OW19428   4.765   0.701   2.291
 5943SOL    HW119429   4.791   0.697   2.387
 5943SOL    HW219430   4.680   0.650   2.277
 5944SOL     OW19431   3.800   0.811   2.651
 5944SOL    HW119432   3.899   0.799   2.660
 5944SOL    HW219433   3.776   0.906   2.672
 5945SOL     OW19434   3.854   1.821   3.433
 5945SOL    HW119435   3.844   1.806   3.532
 5945SOL    HW219436   3.768   1.857   3.397
 5946SOL     OW19437   4.589   0.348   2.057
 5946SOL    HW119438   4.648   0.411   2.008
 5946SOL    HW219439   4.608   0.254   2.028
 5947SOL     OW19440   5.443   0.585   3.693
 5947SOL    HW119441   5.417   0.674   3.657
 5947SOL    HW219442   5.441   0.517   3.620
 5948SOL     OW19443   5.086   1.144   2.407
 5948SOL    HW119444   5.169   1.115   2.359
 5948SOL    HW219445   5.037   1.211   2.351
 5949SOL     OW19446   4.274   0.196   2.747
 5949SOL    HW119447   4.269   0.191   2.847
 5949SOL    HW219448   4.276   0.292   2.718
 5950SOL     OW19449   4.732   1.456   2.339
 5950SOL    HW119450   4.686   1.528   2.287
 5950SOL    HW219451   4.728   1.476   2.437
 5951SOL     OW19452   4.075   1.801   2.715
 5951SOL    HW119453   4.125   1.715   2.721
 5951SOL    HW219454   4.140   1.878   2.712
 5952SOL     OW19455   5.519   1.066   2.735
 5952SOL    HW119456   5.457   1.051   2.659
 5952SOL    HW219457   5.467   1.077   2.820
 5953SOL     OW19458   4.951   1.550   3.368
 5953SOL    HW119459   4.957   1.473   3.432
 5953SOL    HW219460   4.899   1.524   3.288
 5954SOL     OW19461   4.045   0.943   2.104
 5954SOL    HW119462   4.127   0.982   2.062
 5954SOL    HW219463   4.018   0.861   2.055
 5955SOL     OW19464   5.182   0.735   2.590
 5955SOL    HW119465   5.177   0.670   2.665
 5955SOL    HW219466   5.262   0.794   2.603
 5956SOL     OW19467   4.835   1.776   2.099
 5956SOL    HW119468   4.775   1.714   2.149
 5956SOL    HW219469   4.866   1.732   2.014
 5957SOL     OW19470   3.926   0.285   3.360
 5957SOL    HW119471   3.846   0.345   3.347
 5957SOL    HW219472   3.916   0.236   3.446
 5958SOL     OW19473   5.356   1.377   1.943
 5958SOL    HW119474   5.324   1.471   1.933
 5958SOL    HW219475   5.280   1.314   1.931
 5959SOL     OW19476   4.188   1.743   2.185
 5959SOL    HW119477   4.221   1.782   2.271
 5959SOL    HW219478   4.264   1.736   2.120
 5960SOL     OW19479   5.124   0.107   2.288
 5960SOL    HW119480   5.100   0.070   2.198
 5960SOL    HW219481   5.223   0.123   2.292
 5961SOL     OW19482   3.973   1.785   3.103
 5961SOL    HW119483   4.030   1.720   3.153
 5961SOL    HW219484   3.957   1.752   3.010
 5962SOL     OW19485   4.664   1.698   2.766
 5962SOL    HW119486   4.744   1.641   2.787
 5962SOL    HW219487   4.615   1.658   2.689
 5963SOL     OW19488   4.106   0.700   2.342
 5963SOL    HW119489   4.151   0.610   2.339
 5963SOL    HW219490   4.012   0.689   2.375
 5964SOL     OW19491   5.271   0.222   3.591
 5964SOL    HW119492   5.266   0.259   3.683
 5964SOL    HW219493   5.199   0.153   3.579
 5965SOL     OW19494   4.338   0.122   1.979
 5965SOL    HW119495   4.436   0.100   1.986
 5965SOL    HW219496   4.307   0.105   1.886
 5966SOL     OW19497   4.505   0.264   3.611
 5966SOL    HW119498   4.572   0.203   3.654
 5966SOL    HW219499   4.432   0.283   3.676
 5967SOL     OW19500   4.612   1.514   3.057
 5967SOL    HW119501   4.589   1.489   2.963
 5967SOL    HW219502   4.673   1.445   3.096
 5968SOL     OW19503   5.075   0.590   3.295
 5968SOL    HW119504   5.103   0.547   3.380
 5968SOL    HW219505   5.100   0.686   3.296
 5969SOL     OW19506   4.527   1.402   2.786
 5969SOL    HW119507   4.617   1.416   2.744
 5969SOL    HW219508   4.456   1.404   2.715
 5970SOL     OW19509   4.646   0.503   2.761
 5970SOL    HW119510   4.621   0.494   2.665
 5970SOL    HW219511   4.694   0.421   2.792
 5971SOL     OW19512   4.263   0.064   2.374
 5971SOL    HW119513   4.182   0.065   2.432
 5971SOL    HW219514   4.266   0.147   2.319
 5972SOL     OW19515   5.158   1.188   1.903
 5972SOL    HW119516   5.190   1.112   1.960
 5972SOL    HW219517   5.066   1.215   1.933
 5973SOL     OW19518   4.021   0.035   2.033
 5973SOL    HW119519   4.070   0.119   2.012
 5973SOL    HW219520   4.083  -0.030   2.078
 5974SOL     OW19521   4.659   0.236   2.342
 5974SOL    HW119522   4.611   0.277   2.264
 5974SOL    HW219523   4.758   0.234   2.323
 5975SOL     OW19524   4.800   0.683   3.326
 5975SOL    HW119525   4.720   0.622   3.329
 5975SOL    HW219526   4.881   0.630   3.302
 5976SOL     OW19527   4.951   1.570   2.655
 5976SOL    HW119528   4.972   1.644   2.590
 5976SOL    HW219529   5.019   1.570   2.728
 5977SOL     OW19530   4.183   1.152   2.603
 5977SOL    HW119531   4.112   1.125   2.668
 5977SOL    HW219532   4.157   1.124   2.510
 5978SOL     OW19533   4.995   1.797   2.453
 5978SOL    HW119534   5.039   1.861   2.389
 5978SOL    HW219535   4.945   1.849   2.523
 5979SOL     OW19536   4.756   0.549   1.878
 5979SOL    HW119537   4.715   0.631   1.839
 5979SOL    HW219538   4.820   0.575   1.951
 5980SOL     OW19539   3.802   0.556   3.248
 5980SOL    HW119540   3.894   0.555   3.207
 5980SOL    HW219541   3.796   0.630   3.315
 5981SOL     OW19542   4.285   0.222   3.009
 5981SOL    HW119543   4.323   0.138   3.046
 5981SOL    HW219544   4.197   0.241   3.053
 5982SOL     OW19545   4.590   0.454   2.504
 5982SOL    HW119546   4.558   0.526   2.442
 5982SOL    HW219547   4.614   0.373   2.451
 5983SOL     OW19548   4.741   0.039   2.615
 5983SOL    HW119549   4.669   0.044   2.546
 5983SOL    HW219550   4.717  -0.030   2.684
 5984SOL     OW19551   5.153   1.173   2.729
 5984SOL    HW119552   5.098   1.089   2.722
 5984SOL    HW219553   5.179   1.202   2.637
 5985SOL     OW19554   5.190   0.590   2.854
 5985SOL    HW119555   5.160   0.495   2.861
 5985SOL    HW219556   5.263   0.606   2.920
 5986SOL     OW19557   5.581   0.833   2.239
 5986SOL    HW119558   5.623   0.769   2.303
 5986SOL    HW219559   5.543   0.782   2.161
 5987SOL     OW19560   4.212   1.385   2.036
 5987SOL    HW119561   4.125   1.370   2.083
 5987SOL    HW219562   4.195   1.411   1.941
 5988SOL     OW19563   5.388   1.280   2.519
 5988SOL    HW119564   5.487   1.288   2.533
 5988SOL    HW219565   5.343   1.364   2.550
 5989SOL     OW19566   5.114   0.575   1.940
 5989SOL    HW119567   5.060   0.554   2.021
 5989SOL    HW219568   5.205   0.534   1.949
 5990SOL     OW19569   4.251   0.256   2.190
 5990SOL    HW119570   4.278   0.197   2.115
 5990SOL    HW219571   4.251   0.351   2.159
 5991SOL     OW19572   5.478   1.223   3.450
 5991SOL    HW119573   5.569   1.184   3.437
 5991SOL    HW219574   5.486   1.319   3.474
 5992SOL     OW19575   4.788   1.347   3.202
 5992SOL    HW119576   4.708   1.324   3.257
 5992SOL    HW219577   4.871   1.321   3.251
 5993SOL     OW19578   5.316   1.629   3.487
 5993SOL    HW119579   5.343   1.663   3.397
 5993SOL    HW219580   5.395   1.591   3.533
 5994SOL     OW19581   4.835   1.195   2.962
 5994SOL    HW119582   4.795   1.239   3.043
 5994SOL    HW219583   4.794   1.232   2.879
 5995SOL     OW19584   5.362   1.099   2.941
 5995SOL    HW119585   5.367   1.180   3.000
 5995SOL    HW219586   5.276   1.101   2.890
 5996SOL     OW19587   4.639   0.089   3.264
 5996SOL    HW119588   4.664   0.069   3.169
 5996SOL    HW219589   4.711   0.145   3.306
 5997SOL     OW19590   4.704   1.116   3.581
 5997SOL    HW119591   4.605   1.122   3.591
 5997SOL    HW219592   4.727   1.036   3.525
 5998SOL     OW19593   4.429   1.050   2.230
 5998SOL    HW119594   4.415   1.057   2.329
 5998SOL    HW219595   4.513   0.999   2.212
 5999SOL     OW19596   4.134   0.813   3.113
 5999SOL    HW119597   4.220   0.825   3.163
 5999SOL    HW219598   4.092   0.726   3.140
 6000SOL     OW19599   4.998   0.386   3.124
 6000SOL    HW119600   5.019   0.460   3.188
 6000SOL    HW219601   4.909   0.403   3.081
 6001SOL     OW19602   3.788   1.564   3.193
 6001SOL    HW119603   3.742   1.646   3.159
 6001SOL    HW219604   3.886   1.583   3.202
 6002SOL     OW19605   4.091   1.100   2.363
 6002SOL    HW119606   4.084   1.183   2.307
 6002SOL    HW219607   4.095   1.020   2.303
 6003SOL     OW19608   4.290   0.537   2.727
 6003SOL    HW119609   4.302   0.603   2.653
 6003SOL    HW219610   4.336   0.571   2.810
 6004SOL     OW19611   4.976   1.348   2.250
 6004SOL    HW119612   5.026   1.425   2.290
 6004SOL    HW219613   4.881   1.350   2.282
 6005SOL     OW19614   4.996   1.445   3.004
 6005SOL    HW119615   5.043   1.458   3.091
 6005SOL    HW219616   4.930   1.371   3.013
 6006SOL     OW19617   5.306   0.639   2.334
 6006SOL    HW119618   5.275   0.700   2.407
 6006SOL    HW219619   5.356   0.691   2.265
 6007SOL     OW19620   4.078   1.510   3.191
 6007SOL    HW119621   4.057   1.466   3.104
 6007SOL    HW219622   4.175   1.536   3.194
 6008SOL     OW19623   4.126   0.751   3.460
 6008SOL    HW119624   4.194   0.806   3.413
 6008SOL    HW219625   4.166   0.663   3.487
 6009SOL     OW19626   5.311   0.779   3.532
 6009SOL    HW119627   5.219   0.817   3.527
 6009SOL    HW219628   5.371   0.826   3.467
 6010SOL     OW19629   4.737   0.105   3.632
 6010SOL    HW119630   4.743   0.190   3.580
 6010SOL    HW219631   4.769   0.029   3.575
 6011SOL     OW19632   4.228   0.050   3.602
 6011SOL    HW119633   4.186  -0.007   3.532
 6011SOL    HW219634   4.162   0.119   3.634
 6012SOL     OW19635   4.297   0.870   2.891
 6012SOL    HW119636   4.341   0.959   2.882
 6012SOL    HW219637   4.234   0.870   2.968
 6013SOL     OW19638   5.084   0.862   2.907
 6013SOL    HW119639   5.009   0.862   2.841
 6013SOL    HW219640   5.121   0.770   2.916
 6014SOL     OW19641   4.933   0.525   2.137
 6014SOL    HW119642   4.946   0.441   2.191
 6014SOL    HW219643   4.904   0.599   2.197
 6015SOL     OW19644   4.031   0.213   3.093
 6015SOL    HW119645   4.008   0.250   3.183
 6015SOL    HW219646   4.001   0.118   3.087
 6016SOL     OW19647   3.761   1.310   3.144
 6016SOL    HW119648   3.814   1.261   3.212
 6016SOL    HW219649   3.783   1.408   3.149
 6017SOL     OW19650   4.456   0.634   2.926
 6017SOL    HW119651   4.515   0.608   2.850
 6017SOL    HW219652   4.428   0.730   2.915
 6018SOL     OW19653   5.452   0.935   3.716
 6018SOL    HW119654   5.406   0.928   3.627
 6018SOL    HW219655   5.390   0.979   3.782
 6019SOL     OW19656   4.031   0.063   2.480
 6019SOL    HW119657   4.020   0.157   2.513
 6019SOL    HW219658   4.026   0.000   2.557
 6020SOL     OW19659   5.346   0.367   2.236
 6020SOL    HW119660   5.348   0.291   2.300
 6020SOL    HW219661   5.298   0.444   2.276
 6021SOL     OW19662   4.747   0.766   2.828
 6021SOL    HW119663   4.762   0.787   2.924
 6021SOL    HW219664   4.717   0.671   2.819
 6022SOL     OW19665   4.704   1.573   3.562
 6022SOL    HW119666   4.684   1.617   3.474
 6022SOL    HW219667   4.743   1.482   3.546
 6023SOL     OW19668   5.583   1.518   3.467
 6023SOL    HW119669   5.597   1.545   3.372
 6023SOL    HW219670   5.666   1.540   3.520
 6024SOL     OW19671   5.264   0.274   1.987
 6024SOL    HW119672   5.203   0.199   2.010
 6024SOL    HW219673   5.286   0.326   2.070
 6025SOL     OW19674   5.027   0.838   1.904
 6025SOL    HW119675   5.061   0.745   1.919
 6025SOL    HW219676   5.045   0.865   1.809
 6026SOL     OW19677   4.792   1.333   2.711
 6026SOL    HW119678   4.799   1.249   2.656
 6026SOL    HW219679   4.854   1.402   2.675
 6027SOL     OW19680   4.043   0.810   2.811
 6027SOL    HW119681   4.136   0.846   2.816
 6027SOL    HW219682   4.037   0.725   2.863
 6028SOL     OW19683   4.063   0.509   2.868
 6028SOL    HW119684   4.011   0.426   2.851
 6028SOL    HW219685   4.140   0.514   2.804
 6029SOL     OW19686   4.862   0.380   3.540
 6029SOL    HW119687   4.817   0.443   3.604
 6029SOL    HW219688   4.955   0.411   3.523
 6030SOL     OW19689   4.884   0.207   3.339
 6030SOL    HW119690   4.884   0.271   3.416
 6030SOL    HW219691   4.912   0.255   3.256
 6031SOL     OW19692   3.732   1.326   2.062
 6031SOL    HW119693   3.639   1.347   2.031
 6031SOL    HW219694   3.742   1.227   2.075
 6032SOL     OW19695   3.812   1.801   2.789
 6032SOL    HW119696   3.770   1.715   2.762
 6032SOL    HW219697   3.906   1.804   2.755
 6033SOL     OW19698   4.228   1.568   2.772
 6033SOL    HW119699   4.294   1.642   2.781
 6033SOL    HW219700   4.272   1.489   2.730
 6034SOL     OW19701   4.726   0.796   3.100
 6034SOL    HW119702   4.767   0.764   3.186
 6034SOL    HW219703   4.630   0.769   3.097
 6035SOL     OW19704   3.764   0.544   2.976
 6035SOL    HW119705   3.849   0.511   2.935
 6035SOL    HW219706   3.777   0.559   3.074
 6036SOL     OW19707   3.913   0.520   3.584
 6036SOL    HW119708   3.972   0.480   3.514
 6036SOL    HW219709   3.855   0.591   3.543
 6037SOL     OW19710   5.093   0.950   3.522
 6037SOL    HW119711   5.132   1.039   3.542
 6037SOL    HW219712   5.103   0.930   3.425
 6038SOL     OW19713   4.539   0.572   2.187
 6038SOL    HW119714   4.546   0.483   2.141
 6038SOL    HW219715   4.445   0.606   2.179
 6039SOL     OW19716   5.381   0.604   3.068
 6039SOL    HW119717   5.343   0.535   3.130
 6039SOL    HW219718   5.463   0.568   3.024
 6040SOL     OW19719   3.976   1.564   3.606
 6040SOL    HW119720   3.946   1.621   3.682
 6040SOL    HW219721   3.969   1.467   3.632
 6041SOL     OW19722   4.395   0.464   3.131
 6041SOL    HW119723   4.361   0.375   3.101
 6041SOL    HW219724   4.421   0.518   3.051
 6042SOL     OW19725   4.654   1.678   3.327
 6042SOL    HW119726   4.630   1.660   3.232
 6042SOL    HW219727   4.684   1.772   3.337
 6043SOL     OW19728   4.197   0.500   2.053
 6043SOL    HW119729   4.258   0.580   2.057
 6043SOL    HW219730   4.102   0.531   2.060
 6044SOL     OW19731   3.883   1.137   3.328
 6044SOL    HW119732   3.905   1.076   3.404
 6044SOL    HW219733   3.893   1.088   3.242
 6045SOL     OW19734   5.071   1.059   3.096
 6045SOL    HW119735   5.095   0.996   3.022
 6045SOL    HW219736   4.981   1.099   3.078
 6046SOL     OW19737   5.026   0.855   2.171
 6046SOL    HW119738   4.940   0.824   2.213
 6046SOL    HW219739   5.022   0.841   2.072
 6047SOL     OW19740   5.483   1.747   3.016
 6047SOL    HW119741   5.544   1.777   2.943
 6047SOL    HW219742   5.445   1.658   2.994
 6048SOL     OW19743   4.976   1.731   2.990
 6048SOL    HW119744   5.060   1.736   2.936
 6048SOL    HW219745   4.953   1.635   3.008
 6049SOL     OW19746   3.807   1.258   2.884
 6049SOL    HW119747   3.802   1.257   2.984
 6049SOL    HW219748   3.724   1.217   2.846
 6050SOL     OW19749   4.412   1.662   3.578
 6050SOL    HW119750   4.356   1.743   3.587
 6050SOL    HW219751   4.464   1.666   3.492
 6051SOL     OW19752   5.450   0.135   2.385
 6051SOL    HW119753   5.523   0.118   2.318
 6051SOL    HW219754   5.419   0.048   2.423
 6052SOL     OW19755   5.112   1.573   2.339
 6052SOL    HW119756   5.179   1.585   2.265
 6052SOL    HW219757   5.072   1.662   2.362
 6053SOL     OW19758   3.854   1.794   3.713
 6053SOL    HW119759   3.813   1.720   3.766
 6053SOL    HW219760   3.918   1.845   3.771
 6054SOL     OW19761   5.004   0.927   2.534
 6054SOL    HW119762   5.064   0.846   2.536
 6054SOL    HW219763   5.044   0.996   2.474
 6055SOL     OW19764   4.554   1.273   3.284
 6055SOL    HW119765   4.549   1.306   3.379
 6055SOL    HW219766   4.468   1.292   3.238
 6056SOL     OW19767   4.396   1.616   2.016
 6056SOL    HW119768   4.405   1.626   1.917
 6056SOL    HW219769   4.356   1.527   2.037
 6057SOL     OW19770   5.374   1.720   3.256
 6057SOL    HW119771   5.427   1.730   3.172
 6057SOL    HW219772   5.347   1.810   3.290
 6058SOL     OW19773   5.565   0.175   2.825
 6058SOL    HW119774   5.604   0.090   2.789
 6058SOL    HW219775   5.467   0.177   2.806
 6059SOL     OW19776   3.987   0.326   2.582
 6059SOL    HW119777   3.908   0.377   2.548
 6059SOL    HW219778   3.978   0.311   2.680
 6060SOL     OW19779   4.918   1.612   1.893
 6060SOL    HW119780   4.924   1.519   1.930
 6060SOL    HW219781   4.859   1.612   1.813
 6061SOL     OW19782   4.546   1.002   3.234
 6061SOL    HW119783   4.586   1.001   3.142
 6061SOL    HW219784   4.556   1.094   3.274
 6062SOL     OW19785   4.640   0.910   2.153
 6062SOL    HW119786   4.703   0.948   2.085
 6062SOL    HW219787   4.680   0.827   2.192
 6063SOL     OW19788   5.228   1.607   1.906
 6063SOL    HW119789   5.136   1.644   1.913
 6063SOL    HW219790   5.266   1.627   1.816
 6064SOL     OW19791   4.096   1.288   3.352
 6064SOL    HW119792   4.083   1.381   3.318
 6064SOL    HW219793   4.012   1.236   3.339
 6065SOL     OW19794   5.338   1.292   3.151
 6065SOL    HW119795   5.398   1.295   3.231
 6065SOL    HW219796   5.263   1.356   3.164
 6066SOL     OW19797   4.763   1.098   2.558
 6066SOL    HW119798   4.693   1.051   2.612
 6066SOL    HW219799   4.822   1.030   2.515
 6067SOL     OW19800   4.738   0.236   2.833
 6067SOL    HW119801   4.730   0.200   2.740
 6067SOL    HW219802   4.736   0.160   2.898
 6068SOL     OW19803   4.314   1.487   2.353
 6068SOL    HW119804   4.356   1.429   2.283
 6068SOL    HW219805   4.270   1.566   2.309
 6069SOL     OW19806   5.433   0.385   3.243
 6069SOL    HW119807   5.506   0.454   3.247
 6069SOL    HW219808   5.461   0.310   3.184
 6070SOL     OW19809   3.979   1.348   2.152
 6070SOL    HW119810   3.883   1.349   2.125
 6070SOL    HW219811   3.991   1.401   2.236
 6071SOL     OW19812   3.829   1.013   3.588
 6071SOL    HW119813   3.752   0.980   3.642
 6071SOL    HW219814   3.914   0.983   3.630
 6072SOL     OW19815   4.396   0.203   3.351
 6072SOL    HW119816   4.486   0.187   3.311
 6072SOL    HW219817   4.404   0.208   3.450
 6073SOL     OW19818   3.799   0.345   1.895
 6073SOL    HW119819   3.707   0.317   1.866
 6073SOL    HW219820   3.830   0.422   1.839
 6074SOL     OW19821   5.164   0.856   3.260
 6074SOL    HW119822   5.107   0.908   3.197
 6074SOL    HW219823   5.260   0.868   3.236
 6075SOL     OW19824   3.796   0.166   2.180
 6075SOL    HW119825   3.779   0.249   2.126
 6075SOL    HW219826   3.886   0.129   2.158
 6076SOL     OW19827   4.907   1.335   1.981
 6076SOL    HW119828   4.808   1.324   1.983
 6076SOL    HW219829   4.941   1.350   2.074
 6077SOL     OW19830   4.337   0.842   3.293
 6077SOL    HW119831   4.393   0.923   3.276
 6077SOL    HW219832   4.396   0.762   3.296
 6078SOL     OW19833   5.217   1.767   2.821
 6078SOL    HW119834   5.250   1.831   2.752
 6078SOL    HW219835   5.283   1.761   2.896
 6079SOL     OW19836   4.440   0.565   3.570
 6079SOL    HW119837   4.459   0.630   3.644
 6079SOL    HW219838   4.500   0.485   3.579
 6080SOL     OW19839   5.174   1.220   3.495
 6080SOL    HW119840   5.165   1.210   3.594
 6080SOL    HW219841   5.270   1.213   3.469
 6081SOL     OW19842   4.114   1.741   3.422
 6081SOL    HW119843   4.023   1.782   3.420
 6081SOL    HW219844   4.107   1.647   3.454
 6082SOL     OW19845   5.398   0.883   3.116
 6082SOL    HW119846   5.371   0.794   3.079
 6082SOL    HW219847   5.399   0.951   3.043
 6083SOL     OW19848   4.949   0.325   2.311
 6083SOL    HW119849   5.014   0.251   2.300
 6083SOL    HW219850   4.969   0.375   2.395
 6084SOL     OW19851   4.318   0.745   2.514
 6084SOL    HW119852   4.368   0.830   2.495
 6084SOL    HW219853   4.230   0.747   2.466
 6085SOL     OW19854   5.501   0.342   3.504
 6085SOL    HW119855   5.484   0.373   3.410
 6085SOL    HW219856   5.417   0.305   3.542
 6086SOL     OW19857   5.454   0.934   3.379
 6086SOL    HW119858   5.492   1.025   3.394
 6086SOL    HW219859   5.446   0.917   3.280
 6087SOL     OW19860   4.583   1.374   1.878
 6087SOL    HW119861   4.537   1.389   1.966
 6087SOL    HW219862   4.627   1.459   1.848
 6088SOL     OW19863   4.385   1.790   2.815
 6088SOL    HW119864   4.339   1.878   2.802
 6088SOL    HW219865   4.484   1.802   2.808
 6089SOL     OW19866   4.583   0.956   2.723
 6089SOL    HW119867   4.637   0.887   2.771
 6089SOL    HW219868   4.551   1.025   2.789
 6090SOL     OW19869   4.807   0.984   1.949
 6090SOL    HW119870   4.784   1.037   1.867
 6090SOL    HW219871   4.888   0.928   1.930
 6091SOL     OW19872   5.585   1.569   2.713
 6091SOL    HW119873   5.514   1.557   2.643
 6091SOL    HW219874   5.586   1.490   2.773
 6092SOL     OW19875   3.803   1.240   2.515
 6092SOL    HW119876   3.802   1.193   2.603
 6092SOL    HW219877   3.885   1.212   2.464
 6093SOL     OW19878   4.396   1.391   3.486
 6093SOL    HW119879   4.318   1.341   3.524
 6093SOL    HW219880   4.393   1.486   3.517
 6094SOL     OW19881   5.548   0.192   3.089
 6094SOL    HW119882   5.544   0.102   3.133
 6094SOL    HW219883   5.551   0.181   2.990
 6095SOL     OW19884   4.152   0.424   2.382
 6095SOL    HW119885   4.182   0.352   2.320
 6095SOL    HW219886   4.113   0.384   2.465
 6096SOL     OW19887   5.429   1.487   2.966
 6096SOL    HW119888   5.336   1.462   2.939
 6096SOL    HW219889   5.455   1.437   3.048
 6097SOL     OW19890   4.041   0.547   3.142
 6097SOL    HW119891   4.079   0.488   3.214
 6097SOL    HW219892   4.081   0.521   3.054
 6098SOL     OW19893   4.536   1.586   2.549
 6098SOL    HW119894   4.568   1.596   2.455
 6098SOL    HW219895   4.457   1.524   2.551
 6099SOL     OW19896   5.148   0.214   2.974
 6099SOL    HW119897   5.200   0.149   3.029
 6099SOL    HW219898   5.099   0.277   3.035
 6100SOL     OW19899   4.725   0.034   3.016
 6100SOL    HW119900   4.662  -0.038   2.985
 6100SOL    HW219901   4.818  -0.002   3.016
 6101SOL     OW19902   4.494   1.330   2.163
 6101SOL    HW119903   4.448   1.243   2.180
 6101SOL    HW219904   4.585   1.327   2.204
 6102SOL     OW19905   4.342   1.567   3.146
 6102SOL    HW119906   4.337   1.649   3.203
 6102SOL    HW219907   4.431   1.564   3.101
 6103SOL     OW19908   5.076   0.052   2.030
 6103SOL    HW119909   5.111   0.011   1.946
 6103SOL    HW219910   4.986   0.014   2.050
 6104SOL     OW19911   5.024   0.453   2.553
 6104SOL    HW119912   4.965   0.533   2.557
 6104SOL    HW219913   5.039   0.418   2.646
 6105SOL     OW19914   5.317   0.221   2.744
 6105SOL    HW119915   5.233   0.220   2.798
 6105SOL    HW219916   5.319   0.304   2.688
 6106SOL     OW19917   3.763   1.077   2.162
 6106SOL    HW119918   3.862   1.066   2.153
 6106SOL    HW219919   3.723   0.991   2.194
 6107SOL     OW19920   4.599   1.646   2.199
 6107SOL    HW119921   4.522   1.611   2.145
 6107SOL    HW219922   4.567   1.717   2.261
 6108SOL     OW19923   3.949   0.275   4.720
 6108SOL    HW119924   3.984   0.258   4.812
 6108SOL    HW219925   3.861   0.230   4.708
 6109SOL     OW19926   3.743   0.368   4.371
 6109SOL    HW119927   3.661   0.411   4.410
 6109SOL    HW219928   3.715   0.295   4.308
 6110SOL     OW19929   4.293   1.275   4.889
 6110SOL    HW119930   4.200   1.268   4.852
 6110SOL    HW219931   4.304   1.364   4.933
 6111SOL     OW19932   5.279   1.511   4.427
 6111SOL    HW119933   5.222   1.495   4.508
 6111SOL    HW219934   5.220   1.521   4.347
 6112SOL     OW19935   4.859   0.703   4.441
 6112SOL    HW119936   4.916   0.781   4.416
 6112SOL    HW219937   4.799   0.729   4.517
 6113SOL     OW19938   5.479   0.607   3.955
 6113SOL    HW119939   5.467   0.594   3.856
 6113SOL    HW219940   5.449   0.526   4.004
 6114SOL     OW19941   4.492   1.144   4.747
 6114SOL    HW119942   4.414   1.161   4.807
 6114SOL    HW219943   4.526   1.231   4.711
 6115SOL     OW19944   4.574   0.798   5.547
 6115SOL    HW119945   4.570   0.874   5.612
 6115SOL    HW219946   4.596   0.834   5.456
 6116SOL     OW19947   4.409   1.012   4.389
 6116SOL    HW119948   4.478   0.996   4.459
 6116SOL    HW219949   4.336   1.069   4.427
 6117SOL     OW19950   4.410   1.161   5.527
 6117SOL    HW119951   4.470   1.240   5.541
 6117SOL    HW219952   4.324   1.192   5.486
 6118SOL     OW19953   4.059   1.435   4.785
 6118SOL    HW119954   3.981   1.404   4.732
 6118SOL    HW219955   4.117   1.493   4.728
 6119SOL     OW19956   5.184   1.505   5.063
 6119SOL    HW119957   5.208   1.599   5.089
 6119SOL    HW219958   5.168   1.451   5.145
 6120SOL     OW19959   4.162   0.392   5.223
 6120SOL    HW119960   4.244   0.336   5.232
 6120SOL    HW219961   4.081   0.334   5.227
 6121SOL     OW19962   5.327   0.447   4.461
 6121SOL    HW119963   5.253   0.493   4.411
 6121SOL    HW219964   5.378   0.515   4.514
 6122SOL     OW19965   3.955   1.713   4.207
 6122SOL    HW119966   3.989   1.790   4.261
 6122SOL    HW219967   3.999   1.713   4.117
 6123SOL     OW19968   4.851   1.341   5.414
 6123SOL    HW119969   4.898   1.341   5.502
 6123SOL    HW219970   4.803   1.254   5.403
 6124SOL     OW19971   3.954   1.434   4.262
 6124SOL    HW119972   3.928   1.530   4.262
 6124SOL    HW219973   3.883   1.380   4.307
 6125SOL     OW19974   3.964   1.091   4.610
 6125SOL    HW119975   3.978   1.007   4.662
 6125SOL    HW219976   3.909   1.155   4.665
 6126SOL     OW19977   4.344   1.786   5.163
 6126SOL    HW119978   4.252   1.769   5.198
 6126SOL    HW219979   4.372   1.878   5.189
 6127SOL     OW19980   5.318   0.114   5.204
 6127SOL    HW119981   5.300   0.181   5.132
 6127SOL    HW219982   5.315   0.160   5.293
 6128SOL     OW19983   3.846   0.643   4.287
 6128SOL    HW119984   3.801   0.555   4.304
 6128SOL    HW219985   3.845   0.697   4.371
 6129SOL     OW19986   5.566   1.767   4.083
 6129SOL    HW119987   5.620   1.738   4.163
 6129SOL    HW219988   5.596   1.857   4.054
 6130SOL     OW19989   3.751   1.596   3.841
 6130SOL    HW119990   3.732   1.500   3.862
 6130SOL    HW219991   3.718   1.654   3.916
 6131SOL     OW19992   5.413   0.922   4.336
 6131SOL    HW119993   5.508   0.893   4.344
 6131SOL    HW219994   5.405   0.987   4.261
 6132SOL     OW19995   5.365   1.108   4.156
 6132SOL    HW119996   5.451   1.110   4.104
 6132SOL    HW219997   5.379   1.155   4.244
 6133SOL     OW19998   3.837   0.737   5.321
 6133SOL    HW119999   3.925   0.724   5.366
 6133SOL    HW220000   3.824   0.834   5.299
 6134SOL     OW20001   4.337   1.365   4.450
 6134SOL    HW120002   4.288   1.278   4.459
 6134SOL    HW220003   4.314   1.408   4.363
 6135SOL     OW20004   5.017   1.228   5.147
 6135SOL    HW120005   5.054   1.155   5.089
 6135SOL    HW220006   5.069   1.233   5.232
 6136SOL     OW20007   3.921   0.976   4.988
 6136SOL    HW120008   4.010   0.931   4.974
 6136SOL    HW220009   3.848   0.911   4.969
 6137SOL     OW20010   5.249   0.999   3.914
 6137SOL    HW120011   5.186   0.923   3.927
 6137SOL    HW220012   5.297   1.017   4.000
 6138SOL     OW20013   4.911   1.792   5.340
 6138SOL    HW120014   4.935   1.852   5.264
 6138SOL    HW220015   4.918   1.697   5.310
 6139SOL     OW20016   4.041   0.251   5.525
 6139SOL    HW120017   4.112   0.322   5.531
 6139SOL    HW220018   3.953   0.290   5.553
 6140SOL     OW20019   5.190   1.417   4.677
 6140SOL    HW120020   5.131   1.423   4.757
 6140SOL    HW220021   5.175   1.329   4.631
 6141SOL     OW20022   5.391   1.714   4.296
 6141SOL    HW120023   5.350   1.691   4.208
 6141SOL    HW220024   5.373   1.640   4.361
 6142SOL     OW20025   5.005   0.345   4.668
 6142SOL    HW120026   4.919   0.295   4.655
 6142SOL    HW220027   5.067   0.291   4.724
 6143SOL     OW20028   5.300   1.662   4.031
 6143SOL    HW120029   5.389   1.708   4.034
 6143SOL    HW220030   5.279   1.638   3.936
 6144SOL     OW20031   4.531   0.605   5.189
 6144SOL    HW120032   4.484   0.602   5.278
 6144SOL    HW220033   4.480   0.550   5.123
 6145SOL     OW20034   5.118   0.469   5.398
 6145SOL    HW120035   5.098   0.512   5.486
 6145SOL    HW220036   5.196   0.407   5.407
 6146SOL     OW20037   4.697   0.890   5.296
 6146SOL    HW120038   4.743   0.806   5.267
 6146SOL    HW220039   4.641   0.924   5.221
 6147SOL     OW20040   4.715   0.410   4.966
 6147SOL    HW120041   4.638   0.444   5.020
 6147SOL    HW220042   4.681   0.359   4.887
 6148SOL     OW20043   4.765   0.701   4.153
 6148SOL    HW120044   4.791   0.697   4.249
 6148SOL    HW220045   4.680   0.650   4.139
 6149SOL     OW20046   3.800   0.811   4.513
 6149SOL    HW120047   3.899   0.799   4.522
 6149SOL    HW220048   3.776   0.906   4.534
 6150SOL     OW20049   3.854   1.821   5.295
 6150SOL    HW120050   3.844   1.806   5.394
 6150SOL    HW220051   3.768   1.857   5.259
 6151SOL     OW20052   4.589   0.348   3.919
 6151SOL    HW120053   4.648   0.411   3.870
 6151SOL    HW220054   4.608   0.254   3.890
 6152SOL     OW20055   5.443   0.585   5.555
 6152SOL    HW120056   5.417   0.674   5.519
 6152SOL    HW220057   5.441   0.517   5.482
 6153SOL     OW20058   5.086   1.144   4.269
 6153SOL    HW120059   5.169   1.115   4.221
 6153SOL    HW220060   5.037   1.211   4.213
 6154SOL     OW20061   4.274   0.196   4.609
 6154SOL    HW120062   4.269   0.191   4.709
 6154SOL    HW220063   4.276   0.292   4.580
 6155SOL     OW20064   4.732   1.456   4.201
 6155SOL    HW120065   4.686   1.528   4.149
 6155SOL    HW220066   4.728   1.476   4.299
 6156SOL     OW20067   4.075   1.801   4.577
 6156SOL    HW120068   4.125   1.715   4.583
 6156SOL    HW220069   4.140   1.878   4.574
 6157SOL     OW20070   5.519   1.066   4.597
 6157SOL    HW120071   5.457   1.051   4.521
 6157SOL    HW220072   5.467   1.077   4.682
 6158SOL     OW20073   4.951   1.550   5.230
 6158SOL    HW120074   4.957   1.473   5.294
 6158SOL    HW220075   4.899   1.524   5.150
 6159SOL     OW20076   5.182   0.735   4.452
 6159SOL    HW120077   5.177   0.670   4.527
 6159SOL    HW220078   5.262   0.794   4.465
 6160SOL     OW20079   4.185   1.266   5.451
 6160SOL    HW120080   4.135   1.267   5.365
 6160SOL    HW220081   4.122   1.248   5.527
 6161SOL     OW20082   4.835   1.776   3.961
 6161SOL    HW120083   4.775   1.714   4.011
 6161SOL    HW220084   4.866   1.732   3.876
 6162SOL     OW20085   3.926   0.285   5.222
 6162SOL    HW120086   3.846   0.345   5.209
 6162SOL    HW220087   3.916   0.236   5.308
 6163SOL     OW20088   5.356   1.377   3.805
 6163SOL    HW120089   5.324   1.471   3.795
 6163SOL    HW220090   5.280   1.314   3.793
 6164SOL     OW20091   4.188   1.743   4.047
 6164SOL    HW120092   4.221   1.782   4.133
 6164SOL    HW220093   4.264   1.736   3.982
 6165SOL     OW20094   5.124   0.107   4.150
 6165SOL    HW120095   5.100   0.070   4.060
 6165SOL    HW220096   5.223   0.123   4.154
 6166SOL     OW20097   3.973   1.785   4.965
 6166SOL    HW120098   4.030   1.720   5.015
 6166SOL    HW220099   3.957   1.752   4.872
 6167SOL     OW20100   4.664   1.698   4.628
 6167SOL    HW120101   4.744   1.641   4.649
 6167SOL    HW220102   4.615   1.658   4.551
 6168SOL     OW20103   4.106   0.700   4.204
 6168SOL    HW120104   4.151   0.610   4.201
 6168SOL    HW220105   4.012   0.689   4.237
 6169SOL     OW20106   5.271   0.222   5.453
 6169SOL    HW120107   5.266   0.259   5.545
 6169SOL    HW220108   5.199   0.153   5.441
 6170SOL     OW20109   4.338   0.122   3.841
 6170SOL    HW120110   4.436   0.100   3.848
 6170SOL    HW220111   4.307   0.105   3.748
 6171SOL     OW20112   4.505   0.264   5.473
 6171SOL    HW120113   4.572   0.203   5.516
 6171SOL    HW220114   4.432   0.283   5.538
 6172SOL     OW20115   4.612   1.514   4.919
 6172SOL    HW120116   4.589   1.489   4.825
 6172SOL    HW220117   4.673   1.445   4.958
 6173SOL     OW20118   5.075   0.590   5.157
 6173SOL    HW120119   5.103   0.547   5.242
 6173SOL    HW220120   5.100   0.686   5.158
 6174SOL     OW20121   4.527   1.402   4.648
 6174SOL    HW120122   4.617   1.416   4.606
 6174SOL    HW220123   4.456   1.404   4.577
 6175SOL     OW20124   4.646   0.503   4.623
 6175SOL    HW120125   4.621   0.494   4.527
 6175SOL    HW220126   4.694   0.421   4.654
 6176SOL     OW20127   5.158   1.188   3.765
 6176SOL    HW120128   5.190   1.112   3.822
 6176SOL    HW220129   5.066   1.215   3.795
 6177SOL     OW20130   4.659   0.236   4.204
 6177SOL    HW120131   4.611   0.277   4.126
 6177SOL    HW220132   4.758   0.234   4.185
 6178SOL     OW20133   4.800   0.683   5.188
 6178SOL    HW120134   4.720   0.622   5.191
 6178SOL    HW220135   4.881   0.630   5.164
 6179SOL     OW20136   4.951   1.570   4.517
 6179SOL    HW120137   4.972   1.644   4.452
 6179SOL    HW220138   5.019   1.570   4.590
 6180SOL     OW20139   4.183   1.152   4.465
 6180SOL    HW120140   4.112   1.125   4.530
 6180SOL    HW220141   4.157   1.124   4.372
 6181SOL     OW20142   4.995   1.797   4.315
 6181SOL    HW120143   5.039   1.861   4.251
 6181SOL    HW220144   4.945   1.849   4.385
 6182SOL     OW20145   4.756   0.549   3.740
 6182SOL    HW120146   4.715   0.631   3.701
 6182SOL    HW220147   4.820   0.575   3.813
 6183SOL     OW20148   3.802   0.556   5.110
 6183SOL    HW120149   3.894   0.555   5.069
 6183SOL    HW220150   3.796   0.630   5.177
 6184SOL     OW20151   4.285   0.222   4.871
 6184SOL    HW120152   4.323   0.138   4.908
 6184SOL    HW220153   4.197   0.241   4.915
 6185SOL     OW20154   4.590   0.454   4.366
 6185SOL    HW120155   4.558   0.526   4.304
 6185SOL    HW220156   4.614   0.373   4.313
 6186SOL     OW20157   4.741   0.039   4.477
 6186SOL    HW120158   4.669   0.044   4.408
 6186SOL    HW220159   4.717  -0.030   4.546
 6187SOL     OW20160   5.153   1.173   4.591
 6187SOL    HW120161   5.098   1.089   4.584
 6187SOL    HW220162   5.179   1.202   4.499
 6188SOL     OW20163   5.190   0.590   4.716
 6188SOL    HW120164   5.160   0.495   4.723
 6188SOL    HW220165   5.263   0.606   4.782
 6189SOL     OW20166   5.581   0.833   4.101
 6189SOL    HW120167   5.623   0.769   4.165
 6189SOL    HW220168   5.543   0.782   4.023
 6190SOL     OW20169   5.388   1.280   4.381
 6190SOL    HW120170   5.487   1.288   4.395
 6190SOL    HW220171   5.343   1.364   4.412
 6191SOL     OW20172   5.114   0.575   3.802
 6191SOL    HW120173   5.060   0.554   3.883
 6191SOL    HW220174   5.205   0.534   3.811
 6192SOL     OW20175   5.478   1.223   5.312
 6192SOL    HW120176   5.569   1.184   5.299
 6192SOL    HW220177   5.486   1.319   5.336
 6193SOL     OW20178   4.788   1.347   5.064
 6193SOL    HW120179   4.708   1.324   5.119
 6193SOL    HW220180   4.871   1.321   5.113
 6194SOL     OW20181   5.316   1.629   5.349
 6194SOL    HW120182   5.343   1.663   5.259
 6194SOL    HW220183   5.395   1.591   5.395
 6195SOL     OW20184   4.835   1.195   4.824
 6195SOL    HW120185   4.795   1.239   4.905
 6195SOL    HW220186   4.794   1.232   4.741
 6196SOL     OW20187   5.362   1.099   4.803
 6196SOL    HW120188   5.367   1.180   4.862
 6196SOL    HW220189   5.276   1.101   4.752
 6197SOL     OW20190   4.639   0.089   5.126
 6197SOL    HW120191   4.664   0.069   5.031
 6197SOL    HW220192   4.711   0.145   5.168
 6198SOL     OW20193   4.704   1.116   5.443
 6198SOL    HW120194   4.605   1.122   5.453
 6198SOL    HW220195   4.727   1.036   5.387
 6199SOL     OW20196   4.134   0.813   4.975
 6199SOL    HW120197   4.220   0.825   5.025
 6199SOL    HW220198   4.092   0.726   5.002
 6200SOL     OW20199   4.998   0.386   4.986
 6200SOL    HW120200   5.019   0.460   5.050
 6200SOL    HW220201   4.909   0.403   4.943
 6201SOL     OW20202   3.788   1.564   5.055
 6201SOL    HW120203   3.742   1.646   5.021
 6201SOL    HW220204   3.886   1.583   5.064
 6202SOL     OW20205   4.091   1.100   4.225
 6202SOL    HW120206   4.084   1.183   4.169
 6202SOL    HW220207   4.095   1.020   4.165
 6203SOL     OW20208   4.290   0.537   4.589
 6203SOL    HW120209   4.302   0.603   4.515
 6203SOL    HW220210   4.336   0.571   4.672
 6204SOL     OW20211   4.976   1.348   4.112
 6204SOL    HW120212   5.026   1.425   4.152
 6204SOL    HW220213   4.881   1.350   4.144
 6205SOL     OW20214   4.996   1.445   4.866
 6205SOL    HW120215   5.043   1.458   4.953
 6205SOL    HW220216   4.930   1.371   4.875
 6206SOL     OW20217   5.306   0.639   4.196
 6206SOL    HW120218   5.275   0.700   4.269
 6206SOL    HW220219   5.356   0.691   4.127
 6207SOL     OW20220   4.078   1.510   5.053
 6207SOL    HW120221   4.057   1.466   4.966
 6207SOL    HW220222   4.175   1.536   5.056
 6208SOL     OW20223   4.126   0.751   5.322
 6208SOL    HW120224   4.194   0.806   5.275
 6208SOL    HW220225   4.166   0.663   5.349
 6209SOL     OW20226   5.311   0.779   5.394
 6209SOL    HW120227   5.219   0.817   5.389
 6209SOL    HW220228   5.371   0.826   5.329
 6210SOL     OW20229   4.737   0.105   5.494
 6210SOL    HW120230   4.743   0.190   5.442
 6210SOL    HW220231   4.769   0.029   5.437
 6211SOL     OW20232   4.228   0.050   5.464
 6211SOL    HW120233   4.186  -0.007   5.394
 6211SOL    HW220234   4.162   0.119   5.496
 6212SOL     OW20235   4.297   0.870   4.753
 6212SOL    HW120236   4.341   0.959   4.744
 6212SOL    HW220237   4.234   0.870   4.830
 6213SOL     OW20238   5.084   0.862   4.769
 6213SOL    HW120239   5.009   0.862   4.703
 6213SOL    HW220240   5.121   0.770   4.778
 6214SOL     OW20241   4.933   0.525   3.999
 6214SOL    HW120242   4.946   0.441   4.053
 6214SOL    HW220243   4.904   0.599   4.059
 6215SOL     OW20244   4.031   0.213   4.955
 6215SOL    HW120245   4.008   0.250   5.045
 6215SOL    HW220246   4.001   0.118   4.949
 6216SOL     OW20247   3.761   1.310   5.006
 6216SOL    HW120248   3.814   1.261   5.074
 6216SOL    HW220249   3.783   1.408   5.011
 6217SOL     OW20250   4.456   0.634   4.788
 6217SOL    HW120251   4.515   0.608   4.712
 6217SOL    HW220252   4.428   0.730   4.777
 6218SOL     OW20253   5.452   0.935   5.578
 6218SOL    HW120254   5.406   0.928   5.489
 6218SOL    HW220255   5.390   0.979   5.644
 6219SOL     OW20256   5.346   0.367   4.098
 6219SOL    HW120257   5.348   0.291   4.162
 6219SOL    HW220258   5.298   0.444   4.138
 6220SOL     OW20259   4.747   0.766   4.690
 6220SOL    HW120260   4.762   0.787   4.786
 6220SOL    HW220261   4.717   0.671   4.681
 6221SOL     OW20262   4.704   1.573   5.424
 6221SOL    HW120263   4.684   1.617   5.336
 6221SOL    HW220264   4.743   1.482   5.408
 6222SOL     OW20265   5.583   1.518   5.329
 6222SOL    HW120266   5.597   1.545   5.234
 6222SOL    HW220267   5.666   1.540   5.382
 6223SOL     OW20268   4.074   0.898   5.528
 6223SOL    HW120269   4.150   0.942   5.576
 6223SOL    HW220270   4.109   0.851   5.446
 6224SOL     OW20271   5.264   0.274   3.849
 6224SOL    HW120272   5.203   0.199   3.872
 6224SOL    HW220273   5.286   0.326   3.932
 6225SOL     OW20274   5.027   0.838   3.766
 6225SOL    HW120275   5.061   0.745   3.781
 6225SOL    HW220276   5.045   0.865   3.671
 6226SOL     OW20277   4.792   1.333   4.573
 6226SOL    HW120278   4.799   1.249   4.518
 6226SOL    HW220279   4.854   1.402   4.537
 6227SOL     OW20280   4.043   0.810   4.673
 6227SOL    HW120281   4.136   0.846   4.678
 6227SOL    HW220282   4.037   0.725   4.725
 6228SOL     OW20283   4.063   0.509   4.730
 6228SOL    HW120284   4.011   0.426   4.713
 6228SOL    HW220285   4.140   0.514   4.666
 6229SOL     OW20286   4.862   0.380   5.402
 6229SOL    HW120287   4.817   0.443   5.466
 6229SOL    HW220288   4.955   0.411   5.385
 6230SOL     OW20289   4.884   0.207   5.201
 6230SOL    HW120290   4.884   0.271   5.278
 6230SOL    HW220291   4.912   0.255   5.118
 6231SOL     OW20292   3.732   1.326   3.924
 6231SOL    HW120293   3.639   1.347   3.893
 6231SOL    HW220294   3.742   1.227   3.937
 6232SOL     OW20295   3.812   1.801   4.651
 6232SOL    HW120296   3.770   1.715   4.624
 6232SOL    HW220297   3.906   1.804   4.617
 6233SOL     OW20298   4.228   1.568   4.634
 6233SOL    HW120299   4.294   1.642   4.643
 6233SOL    HW220300   4.272   1.489   4.592
 6234SOL     OW20301   4.726   0.796   4.962
 6234SOL    HW120302   4.767   0.764   5.048
 6234SOL    HW220303   4.630   0.769   4.959
 6235SOL     OW20304   3.764   0.544   4.838
 6235SOL    HW120305   3.849   0.511   4.797
 6235SOL    HW220306   3.777   0.559   4.936
 6236SOL     OW20307   3.913   0.520   5.446
 6236SOL    HW120308   3.972   0.480   5.376
 6236SOL    HW220309   3.855   0.591   5.405
 6237SOL     OW20310   5.093   0.950   5.384
 6237SOL    HW120311   5.132   1.039   5.404
 6237SOL    HW220312   5.103   0.930   5.287
 6238SOL     OW20313   5.381   0.604   4.930
 6238SOL    HW120314   5.343   0.535   4.992
 6238SOL    HW220315   5.463   0.568   4.886
 6239SOL     OW20316   3.976   1.564   5.468
 6239SOL    HW120317   3.946   1.621   5.544
 6239SOL    HW220318   3.969   1.467   5.494
 6240SOL     OW20319   4.395   0.464   4.993
 6240SOL    HW120320   4.361   0.375   4.963
 6240SOL    HW220321   4.421   0.518   4.913
 6241SOL     OW20322   4.654   1.678   5.189
 6241SOL    HW120323   4.630   1.660   5.094
 6241SOL    HW220324   4.684   1.772   5.199
 6242SOL     OW20325   3.883   1.137   5.190
 6242SOL    HW120326   3.905   1.076   5.266
 6242SOL    HW220327   3.893   1.088   5.104
 6243SOL     OW20328   5.071   1.059   4.958
 6243SOL    HW120329   5.095   0.996   4.884
 6243SOL    HW220330   4.981   1.099   4.940
 6244SOL     OW20331   5.026   0.855   4.033
 6244SOL    HW120332   4.940   0.824   4.075
 6244SOL    HW220333   5.022   0.841   3.934
 6245SOL     OW20334   5.483   1.747   4.878
 6245SOL    HW120335   5.544   1.777   4.805
 6245SOL    HW220336   5.445   1.658   4.856
 6246SOL     OW20337   4.976   1.731   4.852
 6246SOL    HW120338   5.060   1.736   4.798
 6246SOL    HW220339   4.953   1.635   4.870
 6247SOL     OW20340   3.807   1.258   4.746
 6247SOL    HW120341   3.802   1.257   4.846
 6247SOL    HW220342   3.724   1.217   4.708
 6248SOL     OW20343   4.412   1.662   5.440
 6248SOL    HW120344   4.356   1.743   5.449
 6248SOL    HW220345   4.464   1.666   5.354
 6249SOL     OW20346   5.450   0.135   4.247
 6249SOL    HW120347   5.523   0.118   4.180
 6249SOL    HW220348   5.419   0.048   4.285
 6250SOL     OW20349   5.112   1.573   4.201
 6250SOL    HW120350   5.179   1.585   4.127
 6250SOL    HW220351   5.072   1.662   4.224
 6251SOL     OW20352   3.854   1.794   5.575
 6251SOL    HW120353   3.813   1.720   5.628
 6251SOL    HW220354   3.918   1.845   5.633
 6252SOL     OW20355   5.004   0.927   4.396
 6252SOL    HW120356   5.064   0.846   4.398
 6252SOL    HW220357   5.044   0.996   4.336
 6253SOL     OW20358   4.554   1.273   5.146
 6253SOL    HW120359   4.549   1.306   5.241
 6253SOL    HW220360   4.468   1.292   5.100
 6254SOL     OW20361   4.396   1.616   3.878
 6254SOL    HW120362   4.405   1.626   3.779
 6254SOL    HW220363   4.356   1.527   3.899
 6255SOL     OW20364   5.374   1.720   5.118
 6255SOL    HW120365   5.427   1.730   5.034
 6255SOL    HW220366   5.347   1.810   5.152
 6256SOL     OW20367   5.565   0.175   4.687
 6256SOL    HW120368   5.604   0.090   4.651
 6256SOL    HW220369   5.467   0.177   4.668
 6257SOL     OW20370   3.987   0.326   4.444
 6257SOL    HW120371   3.908   0.377   4.410
 6257SOL    HW220372   3.978   0.311   4.542
 6258SOL     OW20373   4.918   1.612   3.755
 6258SOL    HW120374   4.924   1.519   3.792
 6258SOL    HW220375   4.859   1.612   3.675
 6259SOL     OW20376   4.546   1.002   5.096
 6259SOL    HW120377   4.586   1.001   5.004
 6259SOL    HW220378   4.556   1.094   5.136
 6260SOL     OW20379   5.228   1.607   3.768
 6260SOL    HW120380   5.136   1.644   3.775
 6260SOL    HW220381   5.266   1.627   3.678
 6261SOL     OW20382   4.096   1.288   5.214
 6261SOL    HW120383   4.083   1.381   5.180
 6261SOL    HW220384   4.012   1.236   5.201
 6262SOL     OW20385   5.338   1.292   5.013
 6262SOL    HW120386   5.398   1.295   5.093
 6262SOL    HW220387   5.263   1.356   5.026
 6263SOL     OW20388   4.763   1.098   4.420
 6263SOL    HW120389   4.693   1.051   4.474
 6263SOL    HW220390   4.822   1.030   4.377
 6264SOL     OW20391   4.738   0.236   4.695
 6264SOL    HW120392   4.730   0.200   4.602
 6264SOL    HW220393   4.736   0.160   4.760
 6265SOL     OW20394   4.314   1.487   4.215
 6265SOL    HW120395   4.356   1.429   4.145
 6265SOL    HW220396   4.270   1.566   4.171
 6266SOL     OW20397   5.433   0.385   5.105
 6266SOL    HW120398   5.506   0.454   5.109
 6266SOL    HW220399   5.461   0.310   5.046
 6267SOL     OW20400   3.979   1.348   4.014
 6267SOL    HW120401   3.883   1.349   3.987
 6267SOL    HW220402   3.991   1.401   4.098
 6268SOL     OW20403   3.829   1.013   5.450
 6268SOL    HW120404   3.752   0.980   5.504
 6268SOL    HW220405   3.914   0.983   5.492
 6269SOL     OW20406   4.396   0.203   5.213
 6269SOL    HW120407   4.486   0.187   5.173
 6269SOL    HW220408   4.404   0.208   5.312
 6270SOL     OW20409   5.164   0.856   5.122
 6270SOL    HW120410   5.107   0.908   5.059
 6270SOL    HW220411   5.260   0.868   5.098
 6271SOL     OW20412   4.907   1.335   3.843
 6271SOL    HW120413   4.808   1.324   3.845
 6271SOL    HW220414   4.941   1.350   3.936
 6272SOL     OW20415   4.337   0.842   5.155
 6272SOL    HW120416   4.393   0.923   5.138
 6272SOL    HW220417   4.396   0.762   5.158
 6273SOL     OW20418   5.217   1.767   4.683
 6273SOL    HW120419   5.250   1.831   4.614
 6273SOL    HW220420   5.283   1.761   4.758
 6274SOL     OW20421   4.440   0.565   5.432
 6274SOL    HW120422   4.459   0.630   5.506
 6274SOL    HW220423   4.500   0.485   5.441
 6275SOL     OW20424   5.174   1.220   5.357
 6275SOL    HW120425   5.165   1.210   5.456
 6275SOL    HW220426   5.270   1.213   5.331
 6276SOL     OW20427   4.114   1.741   5.284
 6276SOL    HW120428   4.023   1.782   5.282
 6276SOL    HW220429   4.107   1.647   5.316
 6277SOL     OW20430   5.398   0.883   4.978
 6277SOL    HW120431   5.371   0.794   4.941
 6277SOL    HW220432   5.399   0.951   4.905
 6278SOL     OW20433   4.949   0.325   4.173
 6278SOL    HW120434   5.014   0.251   4.162
 6278SOL    HW220435   4.969   0.375   4.257
 6279SOL     OW20436   4.318   0.745   4.376
 6279SOL    HW120437   4.368   0.830   4.357
 6279SOL    HW220438   4.230   0.747   4.328
 6280SOL     OW20439   5.501   0.342   5.366
 6280SOL    HW120440   5.484   0.373   5.272
 6280SOL    HW220441   5.417   0.305   5.404
 6281SOL     OW20442   5.454   0.934   5.241
 6281SOL    HW120443   5.492   1.025   5.256
 6281SOL    HW220444   5.446   0.917   5.142
 6282SOL     OW20445   4.583   1.374   3.740
 6282SOL    HW120446   4.537   1.389   3.828
 6282SOL    HW220447   4.627   1.459   3.710
 6283SOL     OW20448   4.385   1.790   4.677
 6283SOL    HW120449   4.339   1.878   4.664
 6283SOL    HW220450   4.484   1.802   4.670
 6284SOL     OW20451   4.583   0.956   4.585
 6284SOL    HW120452   4.637   0.887   4.633
 6284SOL    HW220453   4.551   1.025   4.651
 6285SOL     OW20454   4.807   0.984   3.811
 6285SOL    HW120455   4.784   1.037   3.729
 6285SOL    HW220456   4.888   0.928   3.792
 6286SOL     OW20457   5.585   1.569   4.575
 6286SOL    HW120458   5.514   1.557   4.505
 6286SOL    HW220459   5.586   1.490   4.635
 6287SOL     OW20460   3.945   1.314   5.568
 6287SOL    HW120461   3.880   1.241   5.547
 6287SOL    HW220462   3.949   1.328   5.666
 6288SOL     OW20463   3.803   1.240   4.377
 6288SOL    HW120464   3.802   1.193   4.465
 6288SOL    HW220465   3.885   1.212   4.326
 6289SOL     OW20466   4.396   1.391   5.348
 6289SOL    HW120467   4.318   1.341   5.386
 6289SOL    HW220468   4.393   1.486   5.379
 6290SOL     OW20469   5.548   0.192   4.951
 6290SOL    HW120470   5.544   0.102   4.995
 6290SOL    HW220471   5.551   0.181   4.852
 6291SOL     OW20472   5.429   1.487   4.828
 6291SOL    HW120473   5.336   1.462   4.801
 6291SOL    HW220474   5.455   1.437   4.910
 6292SOL     OW20475   4.041   0.547   5.004
 6292SOL    HW120476   4.079   0.488   5.076
 6292SOL    HW220477   4.081   0.521   4.916
 6293SOL     OW20478   4.536   1.586   4.411
 6293SOL    HW120479   4.568   1.596   4.317
 6293SOL    HW220480   4.457   1.524   4.413
 6294SOL     OW20481   5.148   0.214   4.836
 6294SOL    HW120482   5.200   0.149   4.891
 6294SOL    HW220483   5.099   0.277   4.897
 6295SOL     OW20484   4.725   0.034   4.878
 6295SOL    HW120485   4.662  -0.038   4.847
 6295SOL    HW220486   4.818  -0.002   4.878
 6296SOL     OW20487   4.342   1.567   5.008
 6296SOL    HW120488   4.337   1.649   5.065
 6296SOL    HW220489   4.431   1.564   4.963
 6297SOL     OW20490   5.076   0.052   3.892
 6297SOL    HW120491   5.111   0.011   3.808
 6297SOL    HW220492   4.986   0.014   3.912
 6298SOL     OW20493   5.024   0.453   4.415
 6298SOL    HW120494   4.965   0.533   4.419
 6298SOL    HW220495   5.039   0.418   4.508
 6299SOL     OW20496   5.317   0.221   4.606
 6299SOL    HW120497   5.233   0.220   4.660
 6299SOL    HW220498   5.319   0.304   4.550
 6300SOL     OW20499   3.763   1.077   4.024
 6300SOL    HW120500   3.862   1.066   4.015
 6300SOL    HW220501   3.723   0.991   4.056
 6301SOL     OW20502   4.599   1.646   4.061
 6301SOL    HW120503   4.522   1.611   4.007
 6301SOL    HW220504   4.567   1.717   4.123
 6302SOL     OW20505   3.954   0.628   5.699
 6302SOL    HW120506   3.861   0.626   5.736
 6302SOL    HW220507   3.955   0.589   5.607
 6303SOL     OW20508   3.949   0.275   6.582
 6303SOL    HW120509   3.984   0.258   6.674
 6303SOL    HW220510   3.861   0.230   6.570
 6304SOL     OW20511   3.743   0.368   6.233
 6304SOL    HW120512   3.661   0.411   6.272
 6304SOL    HW220513   3.715   0.295   6.170
 6305SOL     OW20514   4.293   1.275   6.751
 6305SOL    HW120515   4.200   1.268   6.714
 6305SOL    HW220516   4.304   1.364   6.795
 6306SOL     OW20517   5.279   1.511   6.289
 6306SOL    HW120518   5.222   1.495   6.370
 6306SOL    HW220519   5.220   1.521   6.209
 6307SOL     OW20520   4.859   0.703   6.303
 6307SOL    HW120521   4.916   0.781   6.278
 6307SOL    HW220522   4.799   0.729   6.379
 6308SOL     OW20523   5.479   0.607   5.817
 6308SOL    HW120524   5.467   0.594   5.718
 6308SOL    HW220525   5.449   0.526   5.866
 6309SOL     OW20526   4.492   1.144   6.609
 6309SOL    HW120527   4.414   1.161   6.669
 6309SOL    HW220528   4.526   1.231   6.573
 6310SOL     OW20529   4.409   1.012   6.251
 6310SOL    HW120530   4.478   0.996   6.321
 6310SOL    HW220531   4.336   1.069   6.289
 6311SOL     OW20532   4.059   1.435   6.647
 6311SOL    HW120533   3.981   1.404   6.594
 6311SOL    HW220534   4.117   1.493   6.590
 6312SOL     OW20535   5.327   0.447   6.323
 6312SOL    HW120536   5.253   0.493   6.273
 6312SOL    HW220537   5.378   0.515   6.376
 6313SOL     OW20538   3.955   1.713   6.069
 6313SOL    HW120539   3.989   1.790   6.123
 6313SOL    HW220540   3.999   1.713   5.979
 6314SOL     OW20541   3.954   1.434   6.124
 6314SOL    HW120542   3.928   1.530   6.124
 6314SOL    HW220543   3.883   1.380   6.169
 6315SOL     OW20544   3.964   1.091   6.472
 6315SOL    HW120545   3.978   1.007   6.524
 6315SOL    HW220546   3.909   1.155   6.527
 6316SOL     OW20547   4.344   1.786   7.025
 6316SOL    HW120548   4.252   1.769   7.060
 6316SOL    HW220549   4.372   1.878   7.051
 6317SOL     OW20550   4.330   0.964   5.709
 6317SOL    HW120551   4.337   1.048   5.655
 6317SOL    HW220552   4.376   0.977   5.797
 6318SOL     OW20553   3.846   0.643   6.149
 6318SOL    HW120554   3.801   0.555   6.166
 6318SOL    HW220555   3.845   0.697   6.233
 6319SOL     OW20556   5.566   1.767   5.945
 6319SOL    HW120557   5.620   1.738   6.025
 6319SOL    HW220558   5.596   1.857   5.916
 6320SOL     OW20559   3.751   1.596   5.703
 6320SOL    HW120560   3.732   1.500   5.724
 6320SOL    HW220561   3.718   1.654   5.778
 6321SOL     OW20562   5.413   0.922   6.198
 6321SOL    HW120563   5.508   0.893   6.206
 6321SOL    HW220564   5.405   0.987   6.123
 6322SOL     OW20565   5.365   1.108   6.018
 6322SOL    HW120566   5.451   1.110   5.966
 6322SOL    HW220567   5.379   1.155   6.106
 6323SOL     OW20568   4.337   1.365   6.312
 6323SOL    HW120569   4.288   1.278   6.321
 6323SOL    HW220570   4.314   1.408   6.225
 6324SOL     OW20571   4.533   0.004   6.088
 6324SOL    HW120572   4.573   0.095   6.079
 6324SOL    HW220573   4.433   0.012   6.094
 6325SOL     OW20574   3.921   0.976   6.850
 6325SOL    HW120575   4.010   0.931   6.836
 6325SOL    HW220576   3.848   0.911   6.831
 6326SOL     OW20577   5.249   0.999   5.776
 6326SOL    HW120578   5.186   0.923   5.789
 6326SOL    HW220579   5.297   1.017   5.862
 6327SOL     OW20580   5.190   1.417   6.539
 6327SOL    HW120581   5.131   1.423   6.619
 6327SOL    HW220582   5.175   1.329   6.493
 6328SOL     OW20583   5.391   1.714   6.158
 6328SOL    HW120584   5.350   1.691   6.070
 6328SOL    HW220585   5.373   1.640   6.223
 6329SOL     OW20586   4.322   0.729   5.856
 6329SOL    HW120587   4.346   0.798   5.788
 6329SOL    HW220588   4.244   0.762   5.910
 6330SOL     OW20589   5.005   0.345   6.530
 6330SOL    HW120590   4.919   0.295   6.517
 6330SOL    HW220591   5.067   0.291   6.586
 6331SOL     OW20592   5.300   1.662   5.893
 6331SOL    HW120593   5.389   1.708   5.896
 6331SOL    HW220594   5.279   1.638   5.798
 6332SOL     OW20595   4.531   0.605   7.051
 6332SOL    HW120596   4.484   0.602   7.140
 6332SOL    HW220597   4.480   0.550   6.985
 6333SOL     OW20598   4.715   0.410   6.828
 6333SOL    HW120599   4.638   0.444   6.882
 6333SOL    HW220600   4.681   0.359   6.749
 6334SOL     OW20601   4.765   0.701   6.015
 6334SOL    HW120602   4.791   0.697   6.111
 6334SOL    HW220603   4.680   0.650   6.001
 6335SOL     OW20604   3.800   0.811   6.375
 6335SOL    HW120605   3.899   0.799   6.384
 6335SOL    HW220606   3.776   0.906   6.396
 6336SOL     OW20607   3.854   1.821   7.157
 6336SOL    HW120608   3.844   1.806   7.256
 6336SOL    HW220609   3.768   1.857   7.121
 6337SOL     OW20610   4.589   0.348   5.781
 6337SOL    HW120611   4.648   0.411   5.732
 6337SOL    HW220612   4.608   0.254   5.752
 6338SOL     OW20613   5.086   1.144   6.131
 6338SOL    HW120614   5.169   1.115   6.083
 6338SOL    HW220615   5.037   1.211   6.075
 6339SOL     OW20616   4.274   0.196   6.471
 6339SOL    HW120617   4.269   0.191   6.571
 6339SOL    HW220618   4.276   0.292   6.442
 6340SOL     OW20619   4.732   1.456   6.063
 6340SOL    HW120620   4.686   1.528   6.011
 6340SOL    HW220621   4.728   1.476   6.161
 6341SOL     OW20622   4.075   1.801   6.439
 6341SOL    HW120623   4.125   1.715   6.445
 6341SOL    HW220624   4.140   1.878   6.436
 6342SOL     OW20625   5.519   1.066   6.459
 6342SOL    HW120626   5.457   1.051   6.383
 6342SOL    HW220627   5.467   1.077   6.544
 6343SOL     OW20628   4.045   0.943   5.828
 6343SOL    HW120629   4.127   0.982   5.786
 6343SOL    HW220630   4.018   0.861   5.779
 6344SOL     OW20631   5.182   0.735   6.314
 6344SOL    HW120632   5.177   0.670   6.389
 6344SOL    HW220633   5.262   0.794   6.327
 6345SOL     OW20634   4.835   1.776   5.823
 6345SOL    HW120635   4.775   1.714   5.873
 6345SOL    HW220636   4.866   1.732   5.738
 6346SOL     OW20637   5.356   1.377   5.667
 6346SOL    HW120638   5.324   1.471   5.657
 6346SOL    HW220639   5.280   1.314   5.655
 6347SOL     OW20640   4.188   1.743   5.909
 6347SOL    HW120641   4.221   1.782   5.995
 6347SOL    HW220642   4.264   1.736   5.844
 6348SOL     OW20643   5.124   0.107   6.012
 6348SOL    HW120644   5.100   0.070   5.922
 6348SOL    HW220645   5.223   0.123   6.016
 6349SOL     OW20646   3.973   1.785   6.827
 6349SOL    HW120647   4.030   1.720   6.877
 6349SOL    HW220648   3.957   1.752   6.734
 6350SOL     OW20649   4.664   1.698   6.490
 6350SOL    HW120650   4.744   1.641   6.511
 6350SOL    HW220651   4.615   1.658   6.413
 6351SOL     OW20652   4.106   0.700   6.066
 6351SOL    HW120653   4.151   0.610   6.063
 6351SOL    HW220654   4.012   0.689   6.099
 6352SOL     OW20655   4.338   0.122   5.703
 6352SOL    HW120656   4.436   0.100   5.710
 6352SOL    HW220657   4.307   0.105   5.610
 6353SOL     OW20658   4.612   1.514   6.781
 6353SOL    HW120659   4.589   1.489   6.687
 6353SOL    HW220660   4.673   1.445   6.820
 6354SOL     OW20661   4.527   1.402   6.510
 6354SOL    HW120662   4.617   1.416   6.468
 6354SOL    HW220663   4.456   1.404   6.439
 6355SOL     OW20664   4.646   0.503   6.485
 6355SOL    HW120665   4.621   0.494   6.389
 6355SOL    HW220666   4.694   0.421   6.516
 6356SOL     OW20667   4.263   0.064   6.098
 6356SOL    HW120668   4.182   0.065   6.156
 6356SOL    HW220669   4.266   0.147   6.043
 6357SOL     OW20670   5.158   1.188   5.627
 6357SOL    HW120671   5.190   1.112   5.684
 6357SOL    HW220672   5.066   1.215   5.657
 6358SOL     OW20673   4.021   0.035   5.757
 6358SOL    HW120674   4.070   0.119   5.736
 6358SOL    HW220675   4.083  -0.030   5.802
 6359SOL     OW20676   4.659   0.236   6.066
 6359SOL    HW120677   4.611   0.277   5.988
 6359SOL    HW220678   4.758   0.234   6.047
 6360SOL     OW20679   4.951   1.570   6.379
 6360SOL    HW120680   4.972   1.644   6.314
 6360SOL    HW220681   5.019   1.570   6.452
 6361SOL     OW20682   4.183   1.152   6.327
 6361SOL    HW120683   4.112   1.125   6.392
 6361SOL    HW220684   4.157   1.124   6.234
 6362SOL     OW20685   4.995   1.797   6.177
 6362SOL    HW120686   5.039   1.861   6.113
 6362SOL    HW220687   4.945   1.849   6.247
 6363SOL     OW20688   4.756   0.549   5.602
 6363SOL    HW120689   4.715   0.631   5.563
 6363SOL    HW220690   4.820   0.575   5.675
 6364SOL     OW20691   4.285   0.222   6.733
 6364SOL    HW120692   4.323   0.138   6.770
 6364SOL    HW220693   4.197   0.241   6.777
 6365SOL     OW20694   4.590   0.454   6.228
 6365SOL    HW120695   4.558   0.526   6.166
 6365SOL    HW220696   4.614   0.373   6.175
 6366SOL     OW20697   4.741   0.039   6.339
 6366SOL    HW120698   4.669   0.044   6.270
 6366SOL    HW220699   4.717  -0.030   6.408
 6367SOL     OW20700   5.153   1.173   6.453
 6367SOL    HW120701   5.098   1.089   6.446
 6367SOL    HW220702   5.179   1.202   6.361
 6368SOL     OW20703   5.190   0.590   6.578
 6368SOL    HW120704   5.160   0.495   6.585
 6368SOL    HW220705   5.263   0.606   6.644
 6369SOL     OW20706   5.581   0.833   5.963
 6369SOL    HW120707   5.623   0.769   6.027
 6369SOL    HW220708   5.543   0.782   5.885
 6370SOL     OW20709   4.212   1.385   5.760
 6370SOL    HW120710   4.125   1.370   5.807
 6370SOL    HW220711   4.195   1.411   5.665
 6371SOL     OW20712   5.388   1.280   6.243
 6371SOL    HW120713   5.487   1.288   6.257
 6371SOL    HW220714   5.343   1.364   6.274
 6372SOL     OW20715   5.114   0.575   5.664
 6372SOL    HW120716   5.060   0.554   5.745
 6372SOL    HW220717   5.205   0.534   5.673
 6373SOL     OW20718   4.251   0.256   5.914
 6373SOL    HW120719   4.278   0.197   5.839
 6373SOL    HW220720   4.251   0.351   5.883
 6374SOL     OW20721   5.478   1.223   7.174
 6374SOL    HW120722   5.569   1.184   7.161
 6374SOL    HW220723   5.486   1.319   7.198
 6375SOL     OW20724   4.835   1.195   6.686
 6375SOL    HW120725   4.795   1.239   6.767
 6375SOL    HW220726   4.794   1.232   6.603
 6376SOL     OW20727   5.362   1.099   6.665
 6376SOL    HW120728   5.367   1.180   6.724
 6376SOL    HW220729   5.276   1.101   6.614
 6377SOL     OW20730   4.429   1.050   5.954
 6377SOL    HW120731   4.415   1.057   6.053
 6377SOL    HW220732   4.513   0.999   5.936
 6378SOL     OW20733   4.134   0.813   6.837
 6378SOL    HW120734   4.220   0.825   6.887
 6378SOL    HW220735   4.092   0.726   6.864
 6379SOL     OW20736   4.998   0.386   6.848
 6379SOL    HW120737   5.019   0.460   6.912
 6379SOL    HW220738   4.909   0.403   6.805
 6380SOL     OW20739   3.788   1.564   6.917
 6380SOL    HW120740   3.742   1.646   6.883
 6380SOL    HW220741   3.886   1.583   6.926
 6381SOL     OW20742   4.091   1.100   6.087
 6381SOL    HW120743   4.084   1.183   6.031
 6381SOL    HW220744   4.095   1.020   6.027
 6382SOL     OW20745   4.290   0.537   6.451
 6382SOL    HW120746   4.302   0.603   6.377
 6382SOL    HW220747   4.336   0.571   6.534
 6383SOL     OW20748   4.976   1.348   5.974
 6383SOL    HW120749   5.026   1.425   6.014
 6383SOL    HW220750   4.881   1.350   6.006
 6384SOL     OW20751   4.996   1.445   6.728
 6384SOL    HW120752   5.043   1.458   6.815
 6384SOL    HW220753   4.930   1.371   6.737
 6385SOL     OW20754   5.306   0.639   6.058
 6385SOL    HW120755   5.275   0.700   6.131
 6385SOL    HW220756   5.356   0.691   5.989
 6386SOL     OW20757   4.078   1.510   6.915
 6386SOL    HW120758   4.057   1.466   6.828
 6386SOL    HW220759   4.175   1.536   6.918
 6387SOL     OW20760   4.297   0.870   6.615
 6387SOL    HW120761   4.341   0.959   6.606
 6387SOL    HW220762   4.234   0.870   6.692
 6388SOL     OW20763   5.084   0.862   6.631
 6388SOL    HW120764   5.009   0.862   6.565
 6388SOL    HW220765   5.121   0.770   6.640
 6389SOL     OW20766   4.933   0.525   5.861
 6389SOL    HW120767   4.946   0.441   5.915
 6389SOL    HW220768   4.904   0.599   5.921
 6390SOL     OW20769   4.031   0.213   6.817
 6390SOL    HW120770   4.008   0.250   6.907
 6390SOL    HW220771   4.001   0.118   6.811
 6391SOL     OW20772   3.761   1.310   6.868
 6391SOL    HW120773   3.814   1.261   6.936
 6391SOL    HW220774   3.783   1.408   6.873
 6392SOL     OW20775   4.456   0.634   6.650
 6392SOL    HW120776   4.515   0.608   6.574
 6392SOL    HW220777   4.428   0.730   6.639
 6393SOL     OW20778   4.031   0.063   6.204
 6393SOL    HW120779   4.020   0.157   6.237
 6393SOL    HW220780   4.026   0.000   6.281
 6394SOL     OW20781   5.346   0.367   5.960
 6394SOL    HW120782   5.348   0.291   6.024
 6394SOL    HW220783   5.298   0.444   6.000
 6395SOL     OW20784   4.747   0.766   6.552
 6395SOL    HW120785   4.762   0.787   6.648
 6395SOL    HW220786   4.717   0.671   6.543
 6396SOL     OW20787   5.264   0.274   5.711
 6396SOL    HW120788   5.203   0.199   5.734
 6396SOL    HW220789   5.286   0.326   5.794
 6397SOL     OW20790   5.027   0.838   5.628
 6397SOL    HW120791   5.061   0.745   5.643
 6397SOL    HW220792   5.045   0.865   5.533
 6398SOL     OW20793   4.792   1.333   6.435
 6398SOL    HW120794   4.799   1.249   6.380
 6398SOL    HW220795   4.854   1.402   6.399
 6399SOL     OW20796   4.043   0.810   6.535
 6399SOL    HW120797   4.136   0.846   6.540
 6399SOL    HW220798   4.037   0.725   6.587
 6400SOL     OW20799   4.063   0.509   6.592
 6400SOL    HW120800   4.011   0.426   6.575
 6400SOL    HW220801   4.140   0.514   6.528
 6401SOL     OW20802   4.884   0.207   7.063
 6401SOL    HW120803   4.884   0.271   7.140
 6401SOL    HW220804   4.912   0.255   6.980
 6402SOL     OW20805   3.732   1.326   5.786
 6402SOL    HW120806   3.639   1.347   5.755
 6402SOL    HW220807   3.742   1.227   5.799
 6403SOL     OW20808   3.812   1.801   6.513
 6403SOL    HW120809   3.770   1.715   6.486
 6403SOL    HW220810   3.906   1.804   6.479
 6404SOL     OW20811   4.228   1.568   6.496
 6404SOL    HW120812   4.294   1.642   6.505
 6404SOL    HW220813   4.272   1.489   6.454
 6405SOL     OW20814   4.726   0.796   6.824
 6405SOL    HW120815   4.767   0.764   6.910
 6405SOL    HW220816   4.630   0.769   6.821
 6406SOL     OW20817   3.764   0.544   6.700
 6406SOL    HW120818   3.849   0.511   6.659
 6406SOL    HW220819   3.777   0.559   6.798
 6407SOL     OW20820   4.539   0.572   5.911
 6407SOL    HW120821   4.546   0.483   5.865
 6407SOL    HW220822   4.445   0.606   5.903
 6408SOL     OW20823   5.381   0.604   6.792
 6408SOL    HW120824   5.343   0.535   6.854
 6408SOL    HW220825   5.463   0.568   6.748
 6409SOL     OW20826   4.395   0.464   6.855
 6409SOL    HW120827   4.361   0.375   6.825
 6409SOL    HW220828   4.421   0.518   6.775
 6410SOL     OW20829   4.654   1.678   7.051
 6410SOL    HW120830   4.630   1.660   6.956
 6410SOL    HW220831   4.684   1.772   7.061
 6411SOL     OW20832   4.197   0.500   5.777
 6411SOL    HW120833   4.258   0.580   5.781
 6411SOL    HW220834   4.102   0.531   5.784
 6412SOL     OW20835   3.883   1.137   7.052
 6412SOL    HW120836   3.905   1.076   7.128
 6412SOL    HW220837   3.893   1.088   6.966
 6413SOL     OW20838   5.071   1.059   6.820
 6413SOL    HW120839   5.095   0.996   6.746
 6413SOL    HW220840   4.981   1.099   6.802
 6414SOL     OW20841   5.026   0.855   5.895
 6414SOL    HW120842   4.940   0.824   5.937
 6414SOL    HW220843   5.022   0.841   5.796
 6415SOL     OW20844   5.483   1.747   6.740
 6415SOL    HW120845   5.544   1.777   6.667
 6415SOL    HW220846   5.445   1.658   6.718
 6416SOL     OW20847   4.976   1.731   6.714
 6416SOL    HW120848   5.060   1.736   6.660
 6416SOL    HW220849   4.953   1.635   6.732
 6417SOL     OW20850   3.807   1.258   6.608
 6417SOL    HW120851   3.802   1.257   6.708
 6417SOL    HW220852   3.724   1.217   6.570
 6418SOL     OW20853   5.450   0.135   6.109
 6418SOL    HW120854   5.523   0.118   6.042
 6418SOL    HW220855   5.419   0.048   6.147
 6419SOL     OW20856   5.112   1.573   6.063
 6419SOL    HW120857   5.179   1.585   5.989
 6419SOL    HW220858   5.072   1.662   6.086
 6420SOL     OW20859   5.004   0.927   6.258
 6420SOL    HW120860   5.064   0.846   6.260
 6420SOL    HW220861   5.044   0.996   6.198
 6421SOL     OW20862   4.396   1.616   5.740
 6421SOL    HW120863   4.405   1.626   5.641
 6421SOL    HW220864   4.356   1.527   5.761
 6422SOL     OW20865   5.565   0.175   6.549
 6422SOL    HW120866   5.604   0.090   6.513
 6422SOL    HW220867   5.467   0.177   6.530
 6423SOL     OW20868   3.987   0.326   6.306
 6423SOL    HW120869   3.908   0.377   6.272
 6423SOL    HW220870   3.978   0.311   6.404
 6424SOL     OW20871   4.918   1.612   5.617
 6424SOL    HW120872   4.924   1.519   5.654
 6424SOL    HW220873   4.859   1.612   5.537
 6425SOL     OW20874   4.546   1.002   6.958
 6425SOL    HW120875   4.586   1.001   6.866
 6425SOL    HW220876   4.556   1.094   6.998
 6426SOL     OW20877   4.640   0.910   5.877
 6426SOL    HW120878   4.703   0.948   5.809
 6426SOL    HW220879   4.680   0.827   5.916
 6427SOL     OW20880   5.228   1.607   5.630
 6427SOL    HW120881   5.136   1.644   5.637
 6427SOL    HW220882   5.266   1.627   5.540
 6428SOL     OW20883   5.338   1.292   6.875
 6428SOL    HW120884   5.398   1.295   6.955
 6428SOL    HW220885   5.263   1.356   6.888
 6429SOL     OW20886   4.763   1.098   6.282
 6429SOL    HW120887   4.693   1.051   6.336
 6429SOL    HW220888   4.822   1.030   6.239
 6430SOL     OW20889   4.738   0.236   6.557
 6430SOL    HW120890   4.730   0.200   6.464
 6430SOL    HW220891   4.736   0.160   6.622
 6431SOL     OW20892   4.314   1.487   6.077
 6431SOL    HW120893   4.356   1.429   6.007
 6431SOL    HW220894   4.270   1.566   6.033
 6432SOL     OW20895   5.433   0.385   6.967
 6432SOL    HW120896   5.506   0.454   6.971
 6432SOL    HW220897   5.461   0.310   6.908
 6433SOL     OW20898   3.979   1.348   5.876
 6433SOL    HW120899   3.883   1.349   5.849
 6433SOL    HW220900   3.991   1.401   5.960
 6434SOL     OW20901   3.799   0.345   5.619
 6434SOL    HW120902   3.707   0.317   5.590
 6434SOL    HW220903   3.830   0.422   5.563
 6435SOL     OW20904   3.796   0.166   5.904
 6435SOL    HW120905   3.779   0.249   5.850
 6435SOL    HW220906   3.886   0.129   5.882
 6436SOL     OW20907   4.907   1.335   5.705
 6436SOL    HW120908   4.808   1.324   5.707
 6436SOL    HW220909   4.941   1.350   5.798
 6437SOL     OW20910   5.217   1.767   6.545
 6437SOL    HW120911   5.250   1.831   6.476
 6437SOL    HW220912   5.283   1.761   6.620
 6438SOL     OW20913   5.174   1.220   7.219
 6438SOL    HW120914   5.165   1.210   7.318
 6438SOL    HW220915   5.270   1.213   7.193
 6439SOL     OW20916   4.114   1.741   7.146
 6439SOL    HW120917   4.023   1.782   7.144
 6439SOL    HW220918   4.107   1.647   7.178
 6440SOL     OW20919   5.398   0.883   6.840
 6440SOL    HW120920   5.371   0.794   6.803
 6440SOL    HW220921   5.399   0.951   6.767
 6441SOL     OW20922   4.949   0.325   6.035
 6441SOL    HW120923   5.014   0.251   6.024
 6441SOL    HW220924   4.969   0.375   6.119
 6442SOL     OW20925   4.318   0.745   6.238
 6442SOL    HW120926   4.368   0.830   6.219
 6442SOL    HW220927   4.230   0.747   6.190
 6443SOL     OW20928   5.454   0.934   7.103
 6443SOL    HW120929   5.492   1.025   7.118
 6443SOL    HW220930   5.446   0.917   7.004
 6444SOL     OW20931   4.583   1.374   5.602
 6444SOL    HW120932   4.537   1.389   5.690
 6444SOL    HW220933   4.627   1.459   5.572
 6445SOL     OW20934   4.385   1.790   6.539
 6445SOL    HW120935   4.339   1.878   6.526
 6445SOL    HW220936   4.484   1.802   6.532
 6446SOL     OW20937   4.583   0.956   6.447
 6446SOL    HW120938   4.637   0.887   6.495
 6446SOL    HW220939   4.551   1.025   6.513
 6447SOL     OW20940   4.807   0.984   5.673
 6447SOL    HW120941   4.784   1.037   5.591
 6447SOL    HW220942   4.888   0.928   5.654
 6448SOL     OW20943   5.585   1.569   6.437
 6448SOL    HW120944   5.514   1.557   6.367
 6448SOL    HW220945   5.586   1.490   6.497
 6449SOL     OW20946   3.803   1.240   6.239
 6449SOL    HW120947   3.802   1.193   6.327
 6449SOL    HW220948   3.885   1.212   6.188
 6450SOL     OW20949   5.548   0.192   6.813
 6450SOL    HW120950   5.544   0.102   6.857
 6450SOL    HW220951   5.551   0.181   6.714
 6451SOL     OW20952   4.152   0.424   6.106
 6451SOL    HW120953   4.182   0.352   6.044
 6451SOL    HW220954   4.113   0.384   6.189
 6452SOL     OW20955   5.429   1.487   6.690
 6452SOL    HW120956   5.336   1.462   6.663
 6452SOL    HW220957   5.455   1.437   6.772
 6453SOL     OW20958   4.041   0.547   6.866
 6453SOL    HW120959   4.079   0.488   6.938
 6453SOL    HW220960   4.081   0.521   6.778
 6454SOL     OW20961   4.536   1.586   6.273
 6454SOL    HW120962   4.568   1.596   6.179
 6454SOL    HW220963   4.457   1.524   6.275
 6455SOL     OW20964   5.148   0.214   6.698
 6455SOL    HW120965   5.200   0.149   6.753
 6455SOL    HW220966   5.099   0.277   6.759
 6456SOL     OW20967   4.725   0.034   6.740
 6456SOL    HW120968   4.662  -0.038   6.709
 6456SOL    HW220969   4.818  -0.002   6.740
 6457SOL     OW20970   4.494   1.330   5.887
 6457SOL    HW120971   4.448   1.243   5.904
 6457SOL    HW220972   4.585   1.327   5.928
 6458SOL     OW20973   4.342   1.567   6.870
 6458SOL    HW120974   4.337   1.649   6.927
 6458SOL    HW220975   4.431   1.564   6.825
 6459SOL     OW20976   5.076   0.052   5.754
 6459SOL    HW120977   5.111   0.011   5.670
 6459SOL    HW220978   4.986   0.014   5.774
 6460SOL     OW20979   5.024   0.453   6.277
 6460SOL    HW120980   4.965   0.533   6.281
 6460SOL    HW220981   5.039   0.418   6.370
 6461SOL     OW20982   5.317   0.221   6.468
 6461SOL    HW120983   5.233   0.220   6.522
 6461SOL    HW220984   5.319   0.304   6.412
 6462SOL     OW20985   3.763   1.077   5.886
 6462SOL    HW120986   3.862   1.066   5.877
 6462SOL    HW220987   3.723   0.991   5.918
 6463SOL     OW20988   4.599   1.646   5.923
 6463SOL    HW120989   4.522   1.611   5.869
 6463SOL    HW220990   4.567   1.717   5.985
 6464SOL     OW20991   3.954   2.490   0.113
 6464SOL    HW120992   3.861   2.488   0.150
 6464SOL    HW220993   3.955   2.451   0.021
 6465SOL     OW20994   3.949   2.137   0.996
 6465SOL    HW120995   3.984   2.120   1.088
 6465SOL    HW220996   3.861   2.092   0.984
 6466SOL     OW20997   3.743   2.230   0.647
 6466SOL    HW120998   3.661   2.273   0.686
 6466SOL    HW220999   3.715   2.157   0.584
 6467SOL     OW21000   4.293   3.137   1.165
 6467SOL    HW121001   4.200   3.130   1.128
 6467SOL    HW221002   4.304   3.226   1.209
 6468SOL     OW21003   5.279   3.373   0.703
 6468SOL    HW121004   5.222   3.357   0.784
 6468SOL    HW221005   5.220   3.383   0.623
 6469SOL     OW21006   4.859   2.565   0.717
 6469SOL    HW121007   4.916   2.643   0.692
 6469SOL    HW221008   4.799   2.591   0.793
 6470SOL     OW21009   5.479   2.469   0.231
 6470SOL    HW121010   5.467   2.456   0.132
 6470SOL    HW221011   5.449   2.388   0.280
 6471SOL     OW21012   4.492   3.006   1.023
 6471SOL    HW121013   4.414   3.023   1.083
 6471SOL    HW221014   4.526   3.093   0.987
 6472SOL     OW21015   4.574   2.660   1.823
 6472SOL    HW121016   4.570   2.736   1.888
 6472SOL    HW221017   4.596   2.696   1.732
 6473SOL     OW21018   4.409   2.874   0.665
 6473SOL    HW121019   4.478   2.858   0.735
 6473SOL    HW221020   4.336   2.931   0.703
 6474SOL     OW21021   4.410   3.023   1.803
 6474SOL    HW121022   4.470   3.102   1.817
 6474SOL    HW221023   4.324   3.054   1.762
 6475SOL     OW21024   4.059   3.297   1.061
 6475SOL    HW121025   3.981   3.266   1.008
 6475SOL    HW221026   4.117   3.355   1.004
 6476SOL     OW21027   5.184   3.367   1.339
 6476SOL    HW121028   5.208   3.461   1.365
 6476SOL    HW221029   5.168   3.313   1.421
 6477SOL     OW21030   4.162   2.254   1.499
 6477SOL    HW121031   4.244   2.198   1.508
 6477SOL    HW221032   4.081   2.196   1.503
 6478SOL     OW21033   5.327   2.309   0.737
 6478SOL    HW121034   5.253   2.355   0.687
 6478SOL    HW221035   5.378   2.377   0.790
 6479SOL     OW21036   3.955   3.575   0.483
 6479SOL    HW121037   3.989   3.652   0.537
 6479SOL    HW221038   3.999   3.575   0.393
 6480SOL     OW21039   4.851   3.203   1.690
 6480SOL    HW121040   4.898   3.203   1.778
 6480SOL    HW221041   4.803   3.116   1.679
 6481SOL     OW21042   3.954   3.296   0.538
 6481SOL    HW121043   3.928   3.392   0.538
 6481SOL    HW221044   3.883   3.242   0.583
 6482SOL     OW21045   3.964   2.953   0.886
 6482SOL    HW121046   3.978   2.869   0.938
 6482SOL    HW221047   3.909   3.017   0.941
 6483SOL     OW21048   4.344   3.648   1.439
 6483SOL    HW121049   4.252   3.631   1.474
 6483SOL    HW221050   4.372   3.740   1.465
 6484SOL     OW21051   4.330   2.826   0.123
 6484SOL    HW121052   4.337   2.910   0.069
 6484SOL    HW221053   4.376   2.839   0.211
 6485SOL     OW21054   5.318   1.976   1.480
 6485SOL    HW121055   5.300   2.043   1.408
 6485SOL    HW221056   5.315   2.022   1.569
 6486SOL     OW21057   3.846   2.505   0.563
 6486SOL    HW121058   3.801   2.417   0.580
 6486SOL    HW221059   3.845   2.559   0.647
 6487SOL     OW21060   5.566   3.629   0.359
 6487SOL    HW121061   5.620   3.600   0.439
 6487SOL    HW221062   5.596   3.719   0.330
 6488SOL     OW21063   3.751   3.458   0.117
 6488SOL    HW121064   3.732   3.362   0.138
 6488SOL    HW221065   3.718   3.516   0.192
 6489SOL     OW21066   5.413   2.784   0.612
 6489SOL    HW121067   5.508   2.755   0.620
 6489SOL    HW221068   5.405   2.849   0.537
 6490SOL     OW21069   5.365   2.970   0.432
 6490SOL    HW121070   5.451   2.972   0.380
 6490SOL    HW221071   5.379   3.017   0.520
 6491SOL     OW21072   3.837   2.599   1.597
 6491SOL    HW121073   3.925   2.586   1.642
 6491SOL    HW221074   3.824   2.696   1.575
 6492SOL     OW21075   4.337   3.227   0.726
 6492SOL    HW121076   4.288   3.140   0.735
 6492SOL    HW221077   4.314   3.270   0.639
 6493SOL     OW21078   5.017   3.090   1.423
 6493SOL    HW121079   5.054   3.017   1.365
 6493SOL    HW221080   5.069   3.095   1.508
 6494SOL     OW21081   4.533   1.866   0.502
 6494SOL    HW121082   4.573   1.957   0.493
 6494SOL    HW221083   4.433   1.874   0.508
 6495SOL     OW21084   3.921   2.838   1.264
 6495SOL    HW121085   4.010   2.793   1.250
 6495SOL    HW221086   3.848   2.773   1.245
 6496SOL     OW21087   5.249   2.861   0.190
 6496SOL    HW121088   5.186   2.785   0.203
 6496SOL    HW221089   5.297   2.879   0.276
 6497SOL     OW21090   4.911   3.654   1.616
 6497SOL    HW121091   4.935   3.714   1.540
 6497SOL    HW221092   4.918   3.559   1.586
 6498SOL     OW21093   4.041   2.113   1.801
 6498SOL    HW121094   4.112   2.184   1.807
 6498SOL    HW221095   3.953   2.152   1.829
 6499SOL     OW21096   5.190   3.279   0.953
 6499SOL    HW121097   5.131   3.285   1.033
 6499SOL    HW221098   5.175   3.191   0.907
 6500SOL     OW21099   5.391   3.576   0.572
 6500SOL    HW121100   5.350   3.553   0.484
 6500SOL    HW221101   5.373   3.502   0.637
 6501SOL     OW21102   4.322   2.591   0.270
 6501SOL    HW121103   4.346   2.660   0.202
 6501SOL    HW221104   4.244   2.624   0.324
 6502SOL     OW21105   5.005   2.207   0.944
 6502SOL    HW121106   4.919   2.157   0.931
 6502SOL    HW221107   5.067   2.153   1.000
 6503SOL     OW21108   5.300   3.524   0.307
 6503SOL    HW121109   5.389   3.570   0.310
 6503SOL    HW221110   5.279   3.500   0.212
 6504SOL     OW21111   4.531   2.467   1.465
 6504SOL    HW121112   4.484   2.464   1.554
 6504SOL    HW221113   4.480   2.412   1.399
 6505SOL     OW21114   5.118   2.331   1.674
 6505SOL    HW121115   5.098   2.374   1.762
 6505SOL    HW221116   5.196   2.269   1.683
 6506SOL     OW21117   4.697   2.752   1.572
 6506SOL    HW121118   4.743   2.668   1.543
 6506SOL    HW221119   4.641   2.786   1.497
 6507SOL     OW21120   4.715   2.272   1.242
 6507SOL    HW121121   4.638   2.306   1.296
 6507SOL    HW221122   4.681   2.221   1.163
 6508SOL     OW21123   4.765   2.563   0.429
 6508SOL    HW121124   4.791   2.559   0.525
 6508SOL    HW221125   4.680   2.512   0.415
 6509SOL     OW21126   3.800   2.673   0.789
 6509SOL    HW121127   3.899   2.661   0.798
 6509SOL    HW221128   3.776   2.768   0.810
 6510SOL     OW21129   3.854   3.683   1.571
 6510SOL    HW121130   3.844   3.668   1.670
 6510SOL    HW221131   3.768   3.719   1.535
 6511SOL     OW21132   4.589   2.210   0.195
 6511SOL    HW121133   4.648   2.273   0.146
 6511SOL    HW221134   4.608   2.116   0.166
 6512SOL     OW21135   5.443   2.447   1.831
 6512SOL    HW121136   5.417   2.536   1.795
 6512SOL    HW221137   5.441   2.379   1.758
 6513SOL     OW21138   5.086   3.006   0.545
 6513SOL    HW121139   5.169   2.977   0.497
 6513SOL    HW221140   5.037   3.073   0.489
 6514SOL     OW21141   4.274   2.058   0.885
 6514SOL    HW121142   4.269   2.053   0.985
 6514SOL    HW221143   4.276   2.154   0.856
 6515SOL     OW21144   4.732   3.318   0.477
 6515SOL    HW121145   4.686   3.390   0.425
 6515SOL    HW221146   4.728   3.338   0.575
 6516SOL     OW21147   4.075   3.663   0.853
 6516SOL    HW121148   4.125   3.577   0.859
 6516SOL    HW221149   4.140   3.740   0.850
 6517SOL     OW21150   5.519   2.928   0.873
 6517SOL    HW121151   5.457   2.913   0.797
 6517SOL    HW221152   5.467   2.939   0.958
 6518SOL     OW21153   4.951   3.412   1.506
 6518SOL    HW121154   4.957   3.335   1.570
 6518SOL    HW221155   4.899   3.386   1.426
 6519SOL     OW21156   4.045   2.805   0.242
 6519SOL    HW121157   4.127   2.844   0.200
 6519SOL    HW221158   4.018   2.723   0.193
 6520SOL     OW21159   5.182   2.597   0.728
 6520SOL    HW121160   5.177   2.532   0.803
 6520SOL    HW221161   5.262   2.656   0.741
 6521SOL     OW21162   4.185   3.128   1.727
 6521SOL    HW121163   4.135   3.129   1.641
 6521SOL    HW221164   4.122   3.110   1.803
 6522SOL     OW21165   4.835   3.638   0.237
 6522SOL    HW121166   4.775   3.576   0.287
 6522SOL    HW221167   4.866   3.594   0.152
 6523SOL     OW21168   3.926   2.147   1.498
 6523SOL    HW121169   3.846   2.207   1.485
 6523SOL    HW221170   3.916   2.098   1.584
 6524SOL     OW21171   5.356   3.239   0.081
 6524SOL    HW121172   5.324   3.333   0.071
 6524SOL    HW221173   5.280   3.176   0.069
 6525SOL     OW21174   4.188   3.605   0.323
 6525SOL    HW121175   4.221   3.644   0.409
 6525SOL    HW221176   4.264   3.598   0.258
 6526SOL     OW21177   3.973   3.647   1.241
 6526SOL    HW121178   4.030   3.582   1.291
 6526SOL    HW221179   3.957   3.614   1.148
 6527SOL     OW21180   4.664   3.560   0.904
 6527SOL    HW121181   4.744   3.503   0.925
 6527SOL    HW221182   4.615   3.520   0.827
 6528SOL     OW21183   4.106   2.562   0.480
 6528SOL    HW121184   4.151   2.472   0.477
 6528SOL    HW221185   4.012   2.551   0.513
 6529SOL     OW21186   5.271   2.084   1.729
 6529SOL    HW121187   5.266   2.121   1.821
 6529SOL    HW221188   5.199   2.015   1.717
 6530SOL     OW21189   4.505   2.126   1.749
 6530SOL    HW121190   4.572   2.065   1.792
 6530SOL    HW221191   4.432   2.145   1.814
 6531SOL     OW21192   4.612   3.376   1.195
 6531SOL    HW121193   4.589   3.351   1.101
 6531SOL    HW221194   4.673   3.307   1.234
 6532SOL     OW21195   5.075   2.452   1.433
 6532SOL    HW121196   5.103   2.409   1.518
 6532SOL    HW221197   5.100   2.548   1.434
 6533SOL     OW21198   4.527   3.264   0.924
 6533SOL    HW121199   4.617   3.278   0.882
 6533SOL    HW221200   4.456   3.266   0.853
 6534SOL     OW21201   4.646   2.365   0.899
 6534SOL    HW121202   4.621   2.356   0.803
 6534SOL    HW221203   4.694   2.283   0.930
 6535SOL     OW21204   4.263   1.926   0.512
 6535SOL    HW121205   4.182   1.927   0.570
 6535SOL    HW221206   4.266   2.009   0.457
 6536SOL     OW21207   5.158   3.050   0.041
 6536SOL    HW121208   5.190   2.974   0.098
 6536SOL    HW221209   5.066   3.077   0.071
 6537SOL     OW21210   4.659   2.098   0.480
 6537SOL    HW121211   4.611   2.139   0.402
 6537SOL    HW221212   4.758   2.096   0.461
 6538SOL     OW21213   4.800   2.545   1.464
 6538SOL    HW121214   4.720   2.484   1.467
 6538SOL    HW221215   4.881   2.492   1.440
 6539SOL     OW21216   4.951   3.432   0.793
 6539SOL    HW121217   4.972   3.506   0.728
 6539SOL    HW221218   5.019   3.432   0.866
 6540SOL     OW21219   4.183   3.014   0.741
 6540SOL    HW121220   4.112   2.987   0.806
 6540SOL    HW221221   4.157   2.986   0.648
 6541SOL     OW21222   4.995   3.659   0.591
 6541SOL    HW121223   5.039   3.723   0.527
 6541SOL    HW221224   4.945   3.711   0.661
 6542SOL     OW21225   4.756   2.411   0.016
 6542SOL    HW121226   4.715   2.493  -0.023
 6542SOL    HW221227   4.820   2.437   0.089
 6543SOL     OW21228   3.802   2.418   1.386
 6543SOL    HW121229   3.894   2.417   1.345
 6543SOL    HW221230   3.796   2.492   1.453
 6544SOL     OW21231   4.285   2.084   1.147
 6544SOL    HW121232   4.323   2.000   1.184
 6544SOL    HW221233   4.197   2.103   1.191
 6545SOL     OW21234   4.590   2.316   0.642
 6545SOL    HW121235   4.558   2.388   0.580
 6545SOL    HW221236   4.614   2.235   0.589
 6546SOL     OW21237   4.741   1.901   0.753
 6546SOL    HW121238   4.669   1.906   0.684
 6546SOL    HW221239   4.717   1.832   0.822
 6547SOL     OW21240   5.153   3.035   0.867
 6547SOL    HW121241   5.098   2.951   0.860
 6547SOL    HW221242   5.179   3.064   0.775
 6548SOL     OW21243   5.190   2.452   0.992
 6548SOL    HW121244   5.160   2.357   0.999
 6548SOL    HW221245   5.263   2.468   1.058
 6549SOL     OW21246   5.581   2.695   0.377
 6549SOL    HW121247   5.623   2.631   0.441
 6549SOL    HW221248   5.543   2.644   0.299
 6550SOL     OW21249   4.212   3.247   0.174
 6550SOL    HW121250   4.125   3.232   0.221
 6550SOL    HW221251   4.195   3.273   0.079
 6551SOL     OW21252   5.388   3.142   0.657
 6551SOL    HW121253   5.487   3.150   0.671
 6551SOL    HW221254   5.343   3.226   0.688
 6552SOL     OW21255   5.114   2.437   0.078
 6552SOL    HW121256   5.060   2.416   0.159
 6552SOL    HW221257   5.205   2.396   0.087
 6553SOL     OW21258   4.251   2.118   0.328
 6553SOL    HW121259   4.278   2.059   0.253
 6553SOL    HW221260   4.251   2.213   0.297
 6554SOL     OW21261   5.478   3.085   1.588
 6554SOL    HW121262   5.569   3.046   1.575
 6554SOL    HW221263   5.486   3.181   1.612
 6555SOL     OW21264   4.788   3.209   1.340
 6555SOL    HW121265   4.708   3.186   1.395
 6555SOL    HW221266   4.871   3.183   1.389
 6556SOL     OW21267   5.316   3.491   1.625
 6556SOL    HW121268   5.343   3.525   1.535
 6556SOL    HW221269   5.395   3.453   1.671
 6557SOL     OW21270   4.835   3.057   1.100
 6557SOL    HW121271   4.795   3.101   1.181
 6557SOL    HW221272   4.794   3.094   1.017
 6558SOL     OW21273   5.362   2.961   1.079
 6558SOL    HW121274   5.367   3.042   1.138
 6558SOL    HW221275   5.276   2.963   1.028
 6559SOL     OW21276   4.639   1.951   1.402
 6559SOL    HW121277   4.664   1.931   1.307
 6559SOL    HW221278   4.711   2.007   1.444
 6560SOL     OW21279   4.704   2.978   1.719
 6560SOL    HW121280   4.605   2.984   1.729
 6560SOL    HW221281   4.727   2.898   1.663
 6561SOL     OW21282   4.429   2.912   0.368
 6561SOL    HW121283   4.415   2.919   0.467
 6561SOL    HW221284   4.513   2.861   0.350
 6562SOL     OW21285   4.134   2.675   1.251
 6562SOL    HW121286   4.220   2.687   1.301
 6562SOL    HW221287   4.092   2.588   1.278
 6563SOL     OW21288   4.998   2.248   1.262
 6563SOL    HW121289   5.019   2.322   1.326
 6563SOL    HW221290   4.909   2.265   1.219
 6564SOL     OW21291   3.788   3.426   1.331
 6564SOL    HW121292   3.742   3.508   1.297
 6564SOL    HW221293   3.886   3.445   1.340
 6565SOL     OW21294   4.091   2.962   0.501
 6565SOL    HW121295   4.084   3.045   0.445
 6565SOL    HW221296   4.095   2.882   0.441
 6566SOL     OW21297   4.290   2.399   0.865
 6566SOL    HW121298   4.302   2.465   0.791
 6566SOL    HW221299   4.336   2.433   0.948
 6567SOL     OW21300   4.976   3.210   0.388
 6567SOL    HW121301   5.026   3.287   0.428
 6567SOL    HW221302   4.881   3.212   0.420
 6568SOL     OW21303   4.996   3.307   1.142
 6568SOL    HW121304   5.043   3.320   1.229
 6568SOL    HW221305   4.930   3.233   1.151
 6569SOL     OW21306   5.306   2.501   0.472
 6569SOL    HW121307   5.275   2.562   0.545
 6569SOL    HW221308   5.356   2.553   0.403
 6570SOL     OW21309   4.078   3.372   1.329
 6570SOL    HW121310   4.057   3.328   1.242
 6570SOL    HW221311   4.175   3.398   1.332
 6571SOL     OW21312   4.126   2.613   1.598
 6571SOL    HW121313   4.194   2.668   1.551
 6571SOL    HW221314   4.166   2.525   1.625
 6572SOL     OW21315   5.311   2.641   1.670
 6572SOL    HW121316   5.219   2.679   1.665
 6572SOL    HW221317   5.371   2.688   1.605
 6573SOL     OW21318   4.737   1.967   1.770
 6573SOL    HW121319   4.743   2.052   1.718
 6573SOL    HW221320   4.769   1.891   1.713
 6574SOL     OW21321   4.228   1.912   1.740
 6574SOL    HW121322   4.186   1.855   1.670
 6574SOL    HW221323   4.162   1.981   1.772
 6575SOL     OW21324   4.297   2.732   1.029
 6575SOL    HW121325   4.341   2.821   1.020
 6575SOL    HW221326   4.234   2.732   1.106
 6576SOL     OW21327   5.084   2.724   1.045
 6576SOL    HW121328   5.009   2.724   0.979
 6576SOL    HW221329   5.121   2.632   1.054
 6577SOL     OW21330   4.933   2.387   0.275
 6577SOL    HW121331   4.946   2.303   0.329
 6577SOL    HW221332   4.904   2.461   0.335
 6578SOL     OW21333   4.031   2.075   1.231
 6578SOL    HW121334   4.008   2.112   1.321
 6578SOL    HW221335   4.001   1.980   1.225
 6579SOL     OW21336   3.761   3.172   1.282
 6579SOL    HW121337   3.814   3.123   1.350
 6579SOL    HW221338   3.783   3.270   1.287
 6580SOL     OW21339   4.456   2.496   1.064
 6580SOL    HW121340   4.515   2.470   0.988
 6580SOL    HW221341   4.428   2.592   1.053
 6581SOL     OW21342   5.452   2.797   1.854
 6581SOL    HW121343   5.406   2.790   1.765
 6581SOL    HW221344   5.390   2.841   1.920
 6582SOL     OW21345   4.031   1.925   0.618
 6582SOL    HW121346   4.020   2.019   0.651
 6582SOL    HW221347   4.026   1.862   0.695
 6583SOL     OW21348   5.346   2.229   0.374
 6583SOL    HW121349   5.348   2.153   0.438
 6583SOL    HW221350   5.298   2.306   0.414
 6584SOL     OW21351   4.747   2.628   0.966
 6584SOL    HW121352   4.762   2.649   1.062
 6584SOL    HW221353   4.717   2.533   0.957
 6585SOL     OW21354   4.704   3.435   1.700
 6585SOL    HW121355   4.684   3.479   1.612
 6585SOL    HW221356   4.743   3.344   1.684
 6586SOL     OW21357   5.583   3.380   1.605
 6586SOL    HW121358   5.597   3.407   1.510
 6586SOL    HW221359   5.666   3.402   1.658
 6587SOL     OW21360   4.074   2.760   1.804
 6587SOL    HW121361   4.150   2.804   1.852
 6587SOL    HW221362   4.109   2.713   1.722
 6588SOL     OW21363   5.264   2.136   0.125
 6588SOL    HW121364   5.203   2.061   0.148
 6588SOL    HW221365   5.286   2.188   0.208
 6589SOL     OW21366   5.027   2.700   0.042
 6589SOL    HW121367   5.061   2.607   0.057
 6589SOL    HW221368   5.045   2.727  -0.053
 6590SOL     OW21369   4.792   3.195   0.849
 6590SOL    HW121370   4.799   3.111   0.794
 6590SOL    HW221371   4.854   3.264   0.813
 6591SOL     OW21372   4.043   2.672   0.949
 6591SOL    HW121373   4.136   2.708   0.954
 6591SOL    HW221374   4.037   2.587   1.001
 6592SOL     OW21375   4.063   2.371   1.006
 6592SOL    HW121376   4.011   2.288   0.989
 6592SOL    HW221377   4.140   2.376   0.942
 6593SOL     OW21378   4.862   2.242   1.678
 6593SOL    HW121379   4.817   2.305   1.742
 6593SOL    HW221380   4.955   2.273   1.661
 6594SOL     OW21381   4.884   2.069   1.477
 6594SOL    HW121382   4.884   2.133   1.554
 6594SOL    HW221383   4.912   2.117   1.394
 6595SOL     OW21384   3.812   3.663   0.927
 6595SOL    HW121385   3.770   3.577   0.900
 6595SOL    HW221386   3.906   3.666   0.893
 6596SOL     OW21387   4.228   3.430   0.910
 6596SOL    HW121388   4.294   3.504   0.919
 6596SOL    HW221389   4.272   3.351   0.868
 6597SOL     OW21390   4.726   2.658   1.238
 6597SOL    HW121391   4.767   2.626   1.324
 6597SOL    HW221392   4.630   2.631   1.235
 6598SOL     OW21393   3.764   2.406   1.114
 6598SOL    HW121394   3.849   2.373   1.073
 6598SOL    HW221395   3.777   2.421   1.212
 6599SOL     OW21396   3.913   2.382   1.722
 6599SOL    HW121397   3.972   2.342   1.652
 6599SOL    HW221398   3.855   2.453   1.681
 6600SOL     OW21399   5.093   2.812   1.660
 6600SOL    HW121400   5.132   2.901   1.680
 6600SOL    HW221401   5.103   2.792   1.563
 6601SOL     OW21402   4.539   2.434   0.325
 6601SOL    HW121403   4.546   2.345   0.279
 6601SOL    HW221404   4.445   2.468   0.317
 6602SOL     OW21405   5.381   2.466   1.206
 6602SOL    HW121406   5.343   2.397   1.268
 6602SOL    HW221407   5.463   2.430   1.162
 6603SOL     OW21408   3.976   3.426   1.744
 6603SOL    HW121409   3.946   3.483   1.820
 6603SOL    HW221410   3.969   3.329   1.770
 6604SOL     OW21411   4.395   2.326   1.269
 6604SOL    HW121412   4.361   2.237   1.239
 6604SOL    HW221413   4.421   2.380   1.189
 6605SOL     OW21414   4.654   3.540   1.465
 6605SOL    HW121415   4.630   3.522   1.370
 6605SOL    HW221416   4.684   3.634   1.475
 6606SOL     OW21417   4.197   2.362   0.191
 6606SOL    HW121418   4.258   2.442   0.195
 6606SOL    HW221419   4.102   2.393   0.198
 6607SOL     OW21420   3.883   2.999   1.466
 6607SOL    HW121421   3.905   2.938   1.542
 6607SOL    HW221422   3.893   2.950   1.380
 6608SOL     OW21423   5.071   2.921   1.234
 6608SOL    HW121424   5.095   2.858   1.160
 6608SOL    HW221425   4.981   2.961   1.216
 6609SOL     OW21426   5.026   2.717   0.309
 6609SOL    HW121427   4.940   2.686   0.351
 6609SOL    HW221428   5.022   2.703   0.210
 6610SOL     OW21429   5.483   3.609   1.154
 6610SOL    HW121430   5.544   3.639   1.081
 6610SOL    HW221431   5.445   3.520   1.132
 6611SOL     OW21432   4.976   3.593   1.128
 6611SOL    HW121433   5.060   3.598   1.074
 6611SOL    HW221434   4.953   3.497   1.146
 6612SOL     OW21435   3.807   3.120   1.022
 6612SOL    HW121436   3.802   3.119   1.122
 6612SOL    HW221437   3.724   3.079   0.984
 6613SOL     OW21438   4.412   3.524   1.716
 6613SOL    HW121439   4.356   3.605   1.725
 6613SOL    HW221440   4.464   3.528   1.630
 6614SOL     OW21441   4.627   1.948   0.133
 6614SOL    HW121442   4.678   1.949   0.047
 6614SOL    HW221443   4.683   1.906   0.204
 6615SOL     OW21444   5.450   1.997   0.523
 6615SOL    HW121445   5.523   1.980   0.456
 6615SOL    HW221446   5.419   1.910   0.561
 6616SOL     OW21447   5.112   3.435   0.477
 6616SOL    HW121448   5.179   3.447   0.403
 6616SOL    HW221449   5.072   3.524   0.500
 6617SOL     OW21450   3.854   3.656   1.851
 6617SOL    HW121451   3.813   3.582   1.904
 6617SOL    HW221452   3.918   3.707   1.909
 6618SOL     OW21453   5.004   2.789   0.672
 6618SOL    HW121454   5.064   2.708   0.674
 6618SOL    HW221455   5.044   2.858   0.612
 6619SOL     OW21456   4.554   3.135   1.422
 6619SOL    HW121457   4.549   3.168   1.517
 6619SOL    HW221458   4.468   3.154   1.376
 6620SOL     OW21459   4.396   3.478   0.154
 6620SOL    HW121460   4.405   3.488   0.055
 6620SOL    HW221461   4.356   3.389   0.175
 6621SOL     OW21462   5.374   3.582   1.394
 6621SOL    HW121463   5.427   3.592   1.310
 6621SOL    HW221464   5.347   3.672   1.428
 6622SOL     OW21465   5.565   2.037   0.963
 6622SOL    HW121466   5.604   1.952   0.927
 6622SOL    HW221467   5.467   2.039   0.944
 6623SOL     OW21468   3.987   2.188   0.720
 6623SOL    HW121469   3.908   2.239   0.686
 6623SOL    HW221470   3.978   2.173   0.818
 6624SOL     OW21471   4.918   3.474   0.031
 6624SOL    HW121472   4.924   3.381   0.068
 6624SOL    HW221473   4.859   3.474  -0.049
 6625SOL     OW21474   4.546   2.864   1.372
 6625SOL    HW121475   4.586   2.863   1.280
 6625SOL    HW221476   4.556   2.956   1.412
 6626SOL     OW21477   4.640   2.772   0.291
 6626SOL    HW121478   4.703   2.810   0.223
 6626SOL    HW221479   4.680   2.689   0.330
 6627SOL     OW21480   5.228   3.469   0.044
 6627SOL    HW121481   5.136   3.506   0.051
 6627SOL    HW221482   5.266   3.489  -0.046
 6628SOL     OW21483   4.096   3.150   1.490
 6628SOL    HW121484   4.083   3.243   1.456
 6628SOL    HW221485   4.012   3.098   1.477
 6629SOL     OW21486   5.338   3.154   1.289
 6629SOL    HW121487   5.398   3.157   1.369
 6629SOL    HW221488   5.263   3.218   1.302
 6630SOL     OW21489   4.763   2.960   0.696
 6630SOL    HW121490   4.693   2.913   0.750
 6630SOL    HW221491   4.822   2.892   0.653
 6631SOL     OW21492   4.738   2.098   0.971
 6631SOL    HW121493   4.730   2.062   0.878
 6631SOL    HW221494   4.736   2.022   1.036
 6632SOL     OW21495   4.314   3.349   0.491
 6632SOL    HW121496   4.356   3.291   0.421
 6632SOL    HW221497   4.270   3.428   0.447
 6633SOL     OW21498   5.433   2.247   1.381
 6633SOL    HW121499   5.506   2.316   1.385
 6633SOL    HW221500   5.461   2.172   1.322
 6634SOL     OW21501   3.979   3.210   0.290
 6634SOL    HW121502   3.883   3.211   0.263
 6634SOL    HW221503   3.991   3.263   0.374
 6635SOL     OW21504   3.829   2.875   1.726
 6635SOL    HW121505   3.752   2.842   1.780
 6635SOL    HW221506   3.914   2.845   1.768
 6636SOL     OW21507   4.396   2.065   1.489
 6636SOL    HW121508   4.486   2.049   1.449
 6636SOL    HW221509   4.404   2.070   1.588
 6637SOL     OW21510   3.799   2.207   0.033
 6637SOL    HW121511   3.707   2.179   0.004
 6637SOL    HW221512   3.830   2.284  -0.023
 6638SOL     OW21513   5.164   2.718   1.398
 6638SOL    HW121514   5.107   2.770   1.335
 6638SOL    HW221515   5.260   2.730   1.374
 6639SOL     OW21516   3.796   2.028   0.318
 6639SOL    HW121517   3.779   2.111   0.264
 6639SOL    HW221518   3.886   1.991   0.296
 6640SOL     OW21519   4.907   3.197   0.119
 6640SOL    HW121520   4.808   3.186   0.121
 6640SOL    HW221521   4.941   3.212   0.212
 6641SOL     OW21522   4.337   2.704   1.431
 6641SOL    HW121523   4.393   2.785   1.414
 6641SOL    HW221524   4.396   2.624   1.434
 6642SOL     OW21525   5.217   3.629   0.959
 6642SOL    HW121526   5.250   3.693   0.890
 6642SOL    HW221527   5.283   3.623   1.034
 6643SOL     OW21528   4.440   2.427   1.708
 6643SOL    HW121529   4.459   2.492   1.782
 6643SOL    HW221530   4.500   2.347   1.717
 6644SOL     OW21531   5.174   3.082   1.633
 6644SOL    HW121532   5.165   3.072   1.732
 6644SOL    HW221533   5.270   3.075   1.607
 6645SOL     OW21534   4.114   3.603   1.560
 6645SOL    HW121535   4.023   3.644   1.558
 6645SOL    HW221536   4.107   3.509   1.592
 6646SOL     OW21537   5.398   2.745   1.254
 6646SOL    HW121538   5.371   2.656   1.217
 6646SOL    HW221539   5.399   2.813   1.181
 6647SOL     OW21540   4.949   2.187   0.449
 6647SOL    HW121541   5.014   2.113   0.438
 6647SOL    HW221542   4.969   2.237   0.533
 6648SOL     OW21543   4.318   2.607   0.652
 6648SOL    HW121544   4.368   2.692   0.633
 6648SOL    HW221545   4.230   2.609   0.604
 6649SOL     OW21546   5.501   2.204   1.642
 6649SOL    HW121547   5.484   2.235   1.548
 6649SOL    HW221548   5.417   2.167   1.680
 6650SOL     OW21549   5.454   2.796   1.517
 6650SOL    HW121550   5.492   2.887   1.532
 6650SOL    HW221551   5.446   2.779   1.418
 6651SOL     OW21552   4.583   3.236   0.016
 6651SOL    HW121553   4.537   3.251   0.104
 6651SOL    HW221554   4.627   3.321  -0.014
 6652SOL     OW21555   4.385   3.652   0.953
 6652SOL    HW121556   4.339   3.740   0.940
 6652SOL    HW221557   4.484   3.664   0.946
 6653SOL     OW21558   4.583   2.818   0.861
 6653SOL    HW121559   4.637   2.749   0.909
 6653SOL    HW221560   4.551   2.887   0.927
 6654SOL     OW21561   4.807   2.846   0.087
 6654SOL    HW121562   4.784   2.899   0.005
 6654SOL    HW221563   4.888   2.790   0.068
 6655SOL     OW21564   5.585   3.431   0.851
 6655SOL    HW121565   5.514   3.419   0.781
 6655SOL    HW221566   5.586   3.352   0.911
 6656SOL     OW21567   3.945   3.176   1.844
 6656SOL    HW121568   3.880   3.103   1.823
 6656SOL    HW221569   3.949   3.190   1.942
 6657SOL     OW21570   3.803   3.102   0.653
 6657SOL    HW121571   3.802   3.055   0.741
 6657SOL    HW221572   3.885   3.074   0.602
 6658SOL     OW21573   4.396   3.253   1.624
 6658SOL    HW121574   4.318   3.203   1.662
 6658SOL    HW221575   4.393   3.348   1.655
 6659SOL     OW21576   5.548   2.054   1.227
 6659SOL    HW121577   5.544   1.964   1.271
 6659SOL    HW221578   5.551   2.043   1.128
 6660SOL     OW21579   4.152   2.286   0.520
 6660SOL    HW121580   4.182   2.214   0.458
 6660SOL    HW221581   4.113   2.246   0.603
 6661SOL     OW21582   5.429   3.349   1.104
 6661SOL    HW121583   5.336   3.324   1.077
 6661SOL    HW221584   5.455   3.299   1.186
 6662SOL     OW21585   4.041   2.409   1.280
 6662SOL    HW121586   4.079   2.350   1.352
 6662SOL    HW221587   4.081   2.383   1.192
 6663SOL     OW21588   4.536   3.448   0.687
 6663SOL    HW121589   4.568   3.458   0.593
 6663SOL    HW221590   4.457   3.386   0.689
 6664SOL     OW21591   5.148   2.076   1.112
 6664SOL    HW121592   5.200   2.011   1.167
 6664SOL    HW221593   5.099   2.139   1.173
 6665SOL     OW21594   4.725   1.896   1.154
 6665SOL    HW121595   4.662   1.824   1.123
 6665SOL    HW221596   4.818   1.860   1.154
 6666SOL     OW21597   4.494   3.192   0.301
 6666SOL    HW121598   4.448   3.105   0.318
 6666SOL    HW221599   4.585   3.189   0.342
 6667SOL     OW21600   4.342   3.429   1.284
 6667SOL    HW121601   4.337   3.511   1.341
 6667SOL    HW221602   4.431   3.426   1.239
 6668SOL     OW21603   5.076   1.914   0.168
 6668SOL    HW121604   5.111   1.873   0.084
 6668SOL    HW221605   4.986   1.876   0.188
 6669SOL     OW21606   5.024   2.315   0.691
 6669SOL    HW121607   4.965   2.395   0.695
 6669SOL    HW221608   5.039   2.280   0.784
 6670SOL     OW21609   5.317   2.083   0.882
 6670SOL    HW121610   5.233   2.082   0.936
 6670SOL    HW221611   5.319   2.166   0.826
 6671SOL     OW21612   3.763   2.939   0.300
 6671SOL    HW121613   3.862   2.928   0.291
 6671SOL    HW221614   3.723   2.853   0.332
 6672SOL     OW21615   4.599   3.508   0.337
 6672SOL    HW121616   4.522   3.473   0.283
 6672SOL    HW221617   4.567   3.579   0.399
 6673SOL     OW21618   3.954   2.490   1.975
 6673SOL    HW121619   3.861   2.488   2.012
 6673SOL    HW221620   3.955   2.451   1.883
 6674SOL     OW21621   3.949   2.137   2.858
 6674SOL    HW121622   3.984   2.120   2.950
 6674SOL    HW221623   3.861   2.092   2.846
 6675SOL     OW21624   3.743   2.230   2.509
 6675SOL    HW121625   3.661   2.273   2.548
 6675SOL    HW221626   3.715   2.157   2.446
 6676SOL     OW21627   4.293   3.137   3.027
 6676SOL    HW121628   4.200   3.130   2.990
 6676SOL    HW221629   4.304   3.226   3.071
 6677SOL     OW21630   5.279   3.373   2.565
 6677SOL    HW121631   5.222   3.357   2.646
 6677SOL    HW221632   5.220   3.383   2.485
 6678SOL     OW21633   4.859   2.565   2.579
 6678SOL    HW121634   4.916   2.643   2.554
 6678SOL    HW221635   4.799   2.591   2.655
 6679SOL     OW21636   5.479   2.469   2.093
 6679SOL    HW121637   5.467   2.456   1.994
 6679SOL    HW221638   5.449   2.388   2.142
 6680SOL     OW21639   4.492   3.006   2.885
 6680SOL    HW121640   4.414   3.023   2.945
 6680SOL    HW221641   4.526   3.093   2.849
 6681SOL     OW21642   4.574   2.660   3.685
 6681SOL    HW121643   4.570   2.736   3.750
 6681SOL    HW221644   4.596   2.696   3.594
 6682SOL     OW21645   4.410   3.023   3.665
 6682SOL    HW121646   4.470   3.102   3.679
 6682SOL    HW221647   4.324   3.054   3.624
 6683SOL     OW21648   4.059   3.297   2.923
 6683SOL    HW121649   3.981   3.266   2.870
 6683SOL    HW221650   4.117   3.355   2.866
 6684SOL     OW21651   5.184   3.367   3.201
 6684SOL    HW121652   5.208   3.461   3.227
 6684SOL    HW221653   5.168   3.313   3.283
 6685SOL     OW21654   4.162   2.254   3.361
 6685SOL    HW121655   4.244   2.198   3.370
 6685SOL    HW221656   4.081   2.196   3.365
 6686SOL     OW21657   5.327   2.309   2.599
 6686SOL    HW121658   5.253   2.355   2.549
 6686SOL    HW221659   5.378   2.377   2.652
 6687SOL     OW21660   4.851   3.203   3.552
 6687SOL    HW121661   4.898   3.203   3.640
 6687SOL    HW221662   4.803   3.116   3.541
 6688SOL     OW21663   4.344   3.648   3.301
 6688SOL    HW121664   4.252   3.631   3.336
 6688SOL    HW221665   4.372   3.740   3.327
 6689SOL     OW21666   4.330   2.826   1.985
 6689SOL    HW121667   4.337   2.910   1.931
 6689SOL    HW221668   4.376   2.839   2.073
 6690SOL     OW21669   5.318   1.976   3.342
 6690SOL    HW121670   5.300   2.043   3.270
 6690SOL    HW221671   5.315   2.022   3.431
 6691SOL     OW21672   3.846   2.505   2.425
 6691SOL    HW121673   3.801   2.417   2.442
 6691SOL    HW221674   3.845   2.559   2.509
 6692SOL     OW21675   5.566   3.629   2.221
 6692SOL    HW121676   5.620   3.600   2.301
 6692SOL    HW221677   5.596   3.719   2.192
 6693SOL     OW21678   3.751   3.458   1.979
 6693SOL    HW121679   3.732   3.362   2.000
 6693SOL    HW221680   3.718   3.516   2.054
 6694SOL     OW21681   5.413   2.784   2.474
 6694SOL    HW121682   5.508   2.755   2.482
 6694SOL    HW221683   5.405   2.849   2.399
 6695SOL     OW21684   5.365   2.970   2.294
 6695SOL    HW121685   5.451   2.972   2.242
 6695SOL    HW221686   5.379   3.017   2.382
 6696SOL     OW21687   5.017   3.090   3.285
 6696SOL    HW121688   5.054   3.017   3.227
 6696SOL    HW221689   5.069   3.095   3.370
 6697SOL     OW21690   4.533   1.866   2.364
 6697SOL    HW121691   4.573   1.957   2.355
 6697SOL    HW221692   4.433   1.874   2.370
 6698SOL     OW21693   3.921   2.838   3.126
 6698SOL    HW121694   4.010   2.793   3.112
 6698SOL    HW221695   3.848   2.773   3.107
 6699SOL     OW21696   5.249   2.861   2.052
 6699SOL    HW121697   5.186   2.785   2.065
 6699SOL    HW221698   5.297   2.879   2.138
 6700SOL     OW21699   4.911   3.654   3.478
 6700SOL    HW121700   4.935   3.714   3.402
 6700SOL    HW221701   4.918   3.559   3.448
 6701SOL     OW21702   4.041   2.113   3.663
 6701SOL    HW121703   4.112   2.184   3.669
 6701SOL    HW221704   3.953   2.152   3.691
 6702SOL     OW21705   5.190   3.279   2.815
 6702SOL    HW121706   5.131   3.285   2.895
 6702SOL    HW221707   5.175   3.191   2.769
 6703SOL     OW21708   5.391   3.576   2.434
 6703SOL    HW121709   5.350   3.553   2.346
 6703SOL    HW221710   5.373   3.502   2.499
 6704SOL     OW21711   4.322   2.591   2.132
 6704SOL    HW121712   4.346   2.660   2.064
 6704SOL    HW221713   4.244   2.624   2.186
 6705SOL     OW21714   5.005   2.207   2.806
 6705SOL    HW121715   4.919   2.157   2.793
 6705SOL    HW221716   5.067   2.153   2.862
 6706SOL     OW21717   5.300   3.524   2.169
 6706SOL    HW121718   5.389   3.570   2.172
 6706SOL    HW221719   5.279   3.500   2.074
 6707SOL     OW21720   4.697   2.752   3.434
 6707SOL    HW121721   4.743   2.668   3.405
 6707SOL    HW221722   4.641   2.786   3.359
 6708SOL     OW21723   4.715   2.272   3.104
 6708SOL    HW121724   4.638   2.306   3.158
 6708SOL    HW221725   4.681   2.221   3.025
 6709SOL     OW21726   4.765   2.563   2.291
 6709SOL    HW121727   4.791   2.559   2.387
 6709SOL    HW221728   4.680   2.512   2.277
 6710SOL     OW21729   3.854   3.683   3.433
 6710SOL    HW121730   3.844   3.668   3.532
 6710SOL    HW221731   3.768   3.719   3.397
 6711SOL     OW21732   4.589   2.210   2.057
 6711SOL    HW121733   4.648   2.273   2.008
 6711SOL    HW221734   4.608   2.116   2.028
 6712SOL     OW21735   5.443   2.447   3.693
 6712SOL    HW121736   5.417   2.536   3.657
 6712SOL    HW221737   5.441   2.379   3.620
 6713SOL     OW21738   4.274   2.058   2.747
 6713SOL    HW121739   4.269   2.053   2.847
 6713SOL    HW221740   4.276   2.154   2.718
 6714SOL     OW21741   4.075   3.663   2.715
 6714SOL    HW121742   4.125   3.577   2.721
 6714SOL    HW221743   4.140   3.740   2.712
 6715SOL     OW21744   5.519   2.928   2.735
 6715SOL    HW121745   5.457   2.913   2.659
 6715SOL    HW221746   5.467   2.939   2.820
 6716SOL     OW21747   4.951   3.412   3.368
 6716SOL    HW121748   4.957   3.335   3.432
 6716SOL    HW221749   4.899   3.386   3.288
 6717SOL     OW21750   4.045   2.805   2.104
 6717SOL    HW121751   4.127   2.844   2.062
 6717SOL    HW221752   4.018   2.723   2.055
 6718SOL     OW21753   5.182   2.597   2.590
 6718SOL    HW121754   5.177   2.532   2.665
 6718SOL    HW221755   5.262   2.656   2.603
 6719SOL     OW21756   4.185   3.128   3.589
 6719SOL    HW121757   4.135   3.129   3.503
 6719SOL    HW221758   4.122   3.110   3.665
 6720SOL     OW21759   4.835   3.638   2.099
 6720SOL    HW121760   4.775   3.576   2.149
 6720SOL    HW221761   4.866   3.594   2.014
 6721SOL     OW21762   3.926   2.147   3.360
 6721SOL    HW121763   3.846   2.207   3.347
 6721SOL    HW221764   3.916   2.098   3.446
 6722SOL     OW21765   5.356   3.239   1.943
 6722SOL    HW121766   5.324   3.333   1.933
 6722SOL    HW221767   5.280   3.176   1.931
 6723SOL     OW21768   4.188   3.605   2.185
 6723SOL    HW121769   4.221   3.644   2.271
 6723SOL    HW221770   4.264   3.598   2.120
 6724SOL     OW21771   5.124   1.969   2.288
 6724SOL    HW121772   5.100   1.932   2.198
 6724SOL    HW221773   5.223   1.985   2.292
 6725SOL     OW21774   3.973   3.647   3.103
 6725SOL    HW121775   4.030   3.582   3.153
 6725SOL    HW221776   3.957   3.614   3.010
 6726SOL     OW21777   4.664   3.560   2.766
 6726SOL    HW121778   4.744   3.503   2.787
 6726SOL    HW221779   4.615   3.520   2.689
 6727SOL     OW21780   4.106   2.562   2.342
 6727SOL    HW121781   4.151   2.472   2.339
 6727SOL    HW221782   4.012   2.551   2.375
 6728SOL     OW21783   5.271   2.084   3.591
 6728SOL    HW121784   5.266   2.121   3.683
 6728SOL    HW221785   5.199   2.015   3.579
 6729SOL     OW21786   4.338   1.984   1.979
 6729SOL    HW121787   4.436   1.962   1.986
 6729SOL    HW221788   4.307   1.967   1.886
 6730SOL     OW21789   4.505   2.126   3.611
 6730SOL    HW121790   4.572   2.065   3.654
 6730SOL    HW221791   4.432   2.145   3.676
 6731SOL     OW21792   4.612   3.376   3.057
 6731SOL    HW121793   4.589   3.351   2.963
 6731SOL    HW221794   4.673   3.307   3.096
 6732SOL     OW21795   4.527   3.264   2.786
 6732SOL    HW121796   4.617   3.278   2.744
 6732SOL    HW221797   4.456   3.266   2.715
 6733SOL     OW21798   4.646   2.365   2.761
 6733SOL    HW121799   4.621   2.356   2.665
 6733SOL    HW221800   4.694   2.283   2.792
 6734SOL     OW21801   4.263   1.926   2.374
 6734SOL    HW121802   4.182   1.927   2.432
 6734SOL    HW221803   4.266   2.009   2.319
 6735SOL     OW21804   5.158   3.050   1.903
 6735SOL    HW121805   5.190   2.974   1.960
 6735SOL    HW221806   5.066   3.077   1.933
 6736SOL     OW21807   4.021   1.897   2.033
 6736SOL    HW121808   4.070   1.981   2.012
 6736SOL    HW221809   4.083   1.832   2.078
 6737SOL     OW21810   4.659   2.098   2.342
 6737SOL    HW121811   4.611   2.139   2.264
 6737SOL    HW221812   4.758   2.096   2.323
 6738SOL     OW21813   4.756   2.411   1.878
 6738SOL    HW121814   4.715   2.493   1.839
 6738SOL    HW221815   4.820   2.437   1.951
 6739SOL     OW21816   4.285   2.084   3.009
 6739SOL    HW121817   4.323   2.000   3.046
 6739SOL    HW221818   4.197   2.103   3.053
 6740SOL     OW21819   4.590   2.316   2.504
 6740SOL    HW121820   4.558   2.388   2.442
 6740SOL    HW221821   4.614   2.235   2.451
 6741SOL     OW21822   4.741   1.901   2.615
 6741SOL    HW121823   4.669   1.906   2.546
 6741SOL    HW221824   4.717   1.832   2.684
 6742SOL     OW21825   5.581   2.695   2.239
 6742SOL    HW121826   5.623   2.631   2.303
 6742SOL    HW221827   5.543   2.644   2.161
 6743SOL     OW21828   4.212   3.247   2.036
 6743SOL    HW121829   4.125   3.232   2.083
 6743SOL    HW221830   4.195   3.273   1.941
 6744SOL     OW21831   5.388   3.142   2.519
 6744SOL    HW121832   5.487   3.150   2.533
 6744SOL    HW221833   5.343   3.226   2.550
 6745SOL     OW21834   5.114   2.437   1.940
 6745SOL    HW121835   5.060   2.416   2.021
 6745SOL    HW221836   5.205   2.396   1.949
 6746SOL     OW21837   4.251   2.118   2.190
 6746SOL    HW121838   4.278   2.059   2.115
 6746SOL    HW221839   4.251   2.213   2.159
 6747SOL     OW21840   5.478   3.085   3.450
 6747SOL    HW121841   5.569   3.046   3.437
 6747SOL    HW221842   5.486   3.181   3.474
 6748SOL     OW21843   4.788   3.209   3.202
 6748SOL    HW121844   4.708   3.186   3.257
 6748SOL    HW221845   4.871   3.183   3.251
 6749SOL     OW21846   5.316   3.491   3.487
 6749SOL    HW121847   5.343   3.525   3.397
 6749SOL    HW221848   5.395   3.453   3.533
 6750SOL     OW21849   4.835   3.057   2.962
 6750SOL    HW121850   4.795   3.101   3.043
 6750SOL    HW221851   4.794   3.094   2.879
 6751SOL     OW21852   5.362   2.961   2.941
 6751SOL    HW121853   5.367   3.042   3.000
 6751SOL    HW221854   5.276   2.963   2.890
 6752SOL     OW21855   4.639   1.951   3.264
 6752SOL    HW121856   4.664   1.931   3.169
 6752SOL    HW221857   4.711   2.007   3.306
 6753SOL     OW21858   4.704   2.978   3.581
 6753SOL    HW121859   4.605   2.984   3.591
 6753SOL    HW221860   4.727   2.898   3.525
 6754SOL     OW21861   4.429   2.912   2.230
 6754SOL    HW121862   4.415   2.919   2.329
 6754SOL    HW221863   4.513   2.861   2.212
 6755SOL     OW21864   4.998   2.248   3.124
 6755SOL    HW121865   5.019   2.322   3.188
 6755SOL    HW221866   4.909   2.265   3.081
 6756SOL     OW21867   3.788   3.426   3.193
 6756SOL    HW121868   3.742   3.508   3.159
 6756SOL    HW221869   3.886   3.445   3.202
 6757SOL     OW21870   4.091   2.962   2.363
 6757SOL    HW121871   4.084   3.045   2.307
 6757SOL    HW221872   4.095   2.882   2.303
 6758SOL     OW21873   4.290   2.399   2.727
 6758SOL    HW121874   4.302   2.465   2.653
 6758SOL    HW221875   4.336   2.433   2.810
 6759SOL     OW21876   4.996   3.307   3.004
 6759SOL    HW121877   5.043   3.320   3.091
 6759SOL    HW221878   4.930   3.233   3.013
 6760SOL     OW21879   5.306   2.501   2.334
 6760SOL    HW121880   5.275   2.562   2.407
 6760SOL    HW221881   5.356   2.553   2.265
 6761SOL     OW21882   4.078   3.372   3.191
 6761SOL    HW121883   4.057   3.328   3.104
 6761SOL    HW221884   4.175   3.398   3.194
 6762SOL     OW21885   5.311   2.641   3.532
 6762SOL    HW121886   5.219   2.679   3.527
 6762SOL    HW221887   5.371   2.688   3.467
 6763SOL     OW21888   4.737   1.967   3.632
 6763SOL    HW121889   4.743   2.052   3.580
 6763SOL    HW221890   4.769   1.891   3.575
 6764SOL     OW21891   4.228   1.912   3.602
 6764SOL    HW121892   4.186   1.855   3.532
 6764SOL    HW221893   4.162   1.981   3.634
 6765SOL     OW21894   4.933   2.387   2.137
 6765SOL    HW121895   4.946   2.303   2.191
 6765SOL    HW221896   4.904   2.461   2.197
 6766SOL     OW21897   4.031   2.075   3.093
 6766SOL    HW121898   4.008   2.112   3.183
 6766SOL    HW221899   4.001   1.980   3.087
 6767SOL     OW21900   3.761   3.172   3.144
 6767SOL    HW121901   3.814   3.123   3.212
 6767SOL    HW221902   3.783   3.270   3.149
 6768SOL     OW21903   5.452   2.797   3.716
 6768SOL    HW121904   5.406   2.790   3.627
 6768SOL    HW221905   5.390   2.841   3.782
 6769SOL     OW21906   4.031   1.925   2.480
 6769SOL    HW121907   4.020   2.019   2.513
 6769SOL    HW221908   4.026   1.862   2.557
 6770SOL     OW21909   5.346   2.229   2.236
 6770SOL    HW121910   5.348   2.153   2.300
 6770SOL    HW221911   5.298   2.306   2.276
 6771SOL     OW21912   4.704   3.435   3.562
 6771SOL    HW121913   4.684   3.479   3.474
 6771SOL    HW221914   4.743   3.344   3.546
 6772SOL     OW21915   5.583   3.380   3.467
 6772SOL    HW121916   5.597   3.407   3.372
 6772SOL    HW221917   5.666   3.402   3.520
 6773SOL     OW21918   4.074   2.760   3.666
 6773SOL    HW121919   4.150   2.804   3.714
 6773SOL    HW221920   4.109   2.713   3.584
 6774SOL     OW21921   5.264   2.136   1.987
 6774SOL    HW121922   5.203   2.061   2.010
 6774SOL    HW221923   5.286   2.188   2.070
 6775SOL     OW21924   5.027   2.700   1.904
 6775SOL    HW121925   5.061   2.607   1.919
 6775SOL    HW221926   5.045   2.727   1.809
 6776SOL     OW21927   4.063   2.371   2.868
 6776SOL    HW121928   4.011   2.288   2.851
 6776SOL    HW221929   4.140   2.376   2.804
 6777SOL     OW21930   4.862   2.242   3.540
 6777SOL    HW121931   4.817   2.305   3.604
 6777SOL    HW221932   4.955   2.273   3.523
 6778SOL     OW21933   4.884   2.069   3.339
 6778SOL    HW121934   4.884   2.133   3.416
 6778SOL    HW221935   4.912   2.117   3.256
 6779SOL     OW21936   3.732   3.188   2.062
 6779SOL    HW121937   3.639   3.209   2.031
 6779SOL    HW221938   3.742   3.089   2.075
 6780SOL     OW21939   3.812   3.663   2.789
 6780SOL    HW121940   3.770   3.577   2.762
 6780SOL    HW221941   3.906   3.666   2.755
 6781SOL     OW21942   4.228   3.430   2.772
 6781SOL    HW121943   4.294   3.504   2.781
 6781SOL    HW221944   4.272   3.351   2.730
 6782SOL     OW21945   5.093   2.812   3.522
 6782SOL    HW121946   5.132   2.901   3.542
 6782SOL    HW221947   5.103   2.792   3.425
 6783SOL     OW21948   4.539   2.434   2.187
 6783SOL    HW121949   4.546   2.345   2.141
 6783SOL    HW221950   4.445   2.468   2.179
 6784SOL     OW21951   5.381   2.466   3.068
 6784SOL    HW121952   5.343   2.397   3.130
 6784SOL    HW221953   5.463   2.430   3.024
 6785SOL     OW21954   3.976   3.426   3.606
 6785SOL    HW121955   3.946   3.483   3.682
 6785SOL    HW221956   3.969   3.329   3.632
 6786SOL     OW21957   4.395   2.326   3.131
 6786SOL    HW121958   4.361   2.237   3.101
 6786SOL    HW221959   4.421   2.380   3.051
 6787SOL     OW21960   4.654   3.540   3.327
 6787SOL    HW121961   4.630   3.522   3.232
 6787SOL    HW221962   4.684   3.634   3.337
 6788SOL     OW21963   4.197   2.362   2.053
 6788SOL    HW121964   4.258   2.442   2.057
 6788SOL    HW221965   4.102   2.393   2.060
 6789SOL     OW21966   3.883   2.999   3.328
 6789SOL    HW121967   3.905   2.938   3.404
 6789SOL    HW221968   3.893   2.950   3.242
 6790SOL     OW21969   5.071   2.921   3.096
 6790SOL    HW121970   5.095   2.858   3.022
 6790SOL    HW221971   4.981   2.961   3.078
 6791SOL     OW21972   5.026   2.717   2.171
 6791SOL    HW121973   4.940   2.686   2.213
 6791SOL    HW221974   5.022   2.703   2.072
 6792SOL     OW21975   5.483   3.609   3.016
 6792SOL    HW121976   5.544   3.639   2.943
 6792SOL    HW221977   5.445   3.520   2.994
 6793SOL     OW21978   4.976   3.593   2.990
 6793SOL    HW121979   5.060   3.598   2.936
 6793SOL    HW221980   4.953   3.497   3.008
 6794SOL     OW21981   3.807   3.120   2.884
 6794SOL    HW121982   3.802   3.119   2.984
 6794SOL    HW221983   3.724   3.079   2.846
 6795SOL     OW21984   4.412   3.524   3.578
 6795SOL    HW121985   4.356   3.605   3.587
 6795SOL    HW221986   4.464   3.528   3.492
 6796SOL     OW21987   5.450   1.997   2.385
 6796SOL    HW121988   5.523   1.980   2.318
 6796SOL    HW221989   5.419   1.910   2.423
 6797SOL     OW21990   3.854   3.656   3.713
 6797SOL    HW121991   3.813   3.582   3.766
 6797SOL    HW221992   3.918   3.707   3.771
 6798SOL     OW21993   5.004   2.789   2.534
 6798SOL    HW121994   5.064   2.708   2.536
 6798SOL    HW221995   5.044   2.858   2.474
 6799SOL     OW21996   4.554   3.135   3.284
 6799SOL    HW121997   4.549   3.168   3.379
 6799SOL    HW221998   4.468   3.154   3.238
 6800SOL     OW21999   4.396   3.478   2.016
 6800SOL    HW122000   4.405   3.488   1.917
 6800SOL    HW222001   4.356   3.389   2.037
 6801SOL     OW22002   5.374   3.582   3.256
 6801SOL    HW122003   5.427   3.592   3.172
 6801SOL    HW222004   5.347   3.672   3.290
 6802SOL     OW22005   5.565   2.037   2.825
 6802SOL    HW122006   5.604   1.952   2.789
 6802SOL    HW222007   5.467   2.039   2.806
 6803SOL     OW22008   3.987   2.188   2.582
 6803SOL    HW122009   3.908   2.239   2.548
 6803SOL    HW222010   3.978   2.173   2.680
 6804SOL     OW22011   4.918   3.474   1.893
 6804SOL    HW122012   4.924   3.381   1.930
 6804SOL    HW222013   4.859   3.474   1.813
 6805SOL     OW22014   4.546   2.864   3.234
 6805SOL    HW122015   4.586   2.863   3.142
 6805SOL    HW222016   4.556   2.956   3.274
 6806SOL     OW22017   4.640   2.772   2.153
 6806SOL    HW122018   4.703   2.810   2.085
 6806SOL    HW222019   4.680   2.689   2.192
 6807SOL     OW22020   5.228   3.469   1.906
 6807SOL    HW122021   5.136   3.506   1.913
 6807SOL    HW222022   5.266   3.489   1.816
 6808SOL     OW22023   4.096   3.150   3.352
 6808SOL    HW122024   4.083   3.243   3.318
 6808SOL    HW222025   4.012   3.098   3.339
 6809SOL     OW22026   5.338   3.154   3.151
 6809SOL    HW122027   5.398   3.157   3.231
 6809SOL    HW222028   5.263   3.218   3.164
 6810SOL     OW22029   4.738   2.098   2.833
 6810SOL    HW122030   4.730   2.062   2.740
 6810SOL    HW222031   4.736   2.022   2.898
 6811SOL     OW22032   5.433   2.247   3.243
 6811SOL    HW122033   5.506   2.316   3.247
 6811SOL    HW222034   5.461   2.172   3.184
 6812SOL     OW22035   3.979   3.210   2.152
 6812SOL    HW122036   3.883   3.211   2.125
 6812SOL    HW222037   3.991   3.263   2.236
 6813SOL     OW22038   3.829   2.875   3.588
 6813SOL    HW122039   3.752   2.842   3.642
 6813SOL    HW222040   3.914   2.845   3.630
 6814SOL     OW22041   4.396   2.065   3.351
 6814SOL    HW122042   4.486   2.049   3.311
 6814SOL    HW222043   4.404   2.070   3.450
 6815SOL     OW22044   3.799   2.207   1.895
 6815SOL    HW122045   3.707   2.179   1.866
 6815SOL    HW222046   3.830   2.284   1.839
 6816SOL     OW22047   5.164   2.718   3.260
 6816SOL    HW122048   5.107   2.770   3.197
 6816SOL    HW222049   5.260   2.730   3.236
 6817SOL     OW22050   3.796   2.028   2.180
 6817SOL    HW122051   3.779   2.111   2.126
 6817SOL    HW222052   3.886   1.991   2.158
 6818SOL     OW22053   4.907   3.197   1.981
 6818SOL    HW122054   4.808   3.186   1.983
 6818SOL    HW222055   4.941   3.212   2.074
 6819SOL     OW22056   5.217   3.629   2.821
 6819SOL    HW122057   5.250   3.693   2.752
 6819SOL    HW222058   5.283   3.623   2.896
 6820SOL     OW22059   5.174   3.082   3.495
 6820SOL    HW122060   5.165   3.072   3.594
 6820SOL    HW222061   5.270   3.075   3.469
 6821SOL     OW22062   4.114   3.603   3.422
 6821SOL    HW122063   4.023   3.644   3.420
 6821SOL    HW222064   4.107   3.509   3.454
 6822SOL     OW22065   5.398   2.745   3.116
 6822SOL    HW122066   5.371   2.656   3.079
 6822SOL    HW222067   5.399   2.813   3.043
 6823SOL     OW22068   4.949   2.187   2.311
 6823SOL    HW122069   5.014   2.113   2.300
 6823SOL    HW222070   4.969   2.237   2.395
 6824SOL     OW22071   4.318   2.607   2.514
 6824SOL    HW122072   4.368   2.692   2.495
 6824SOL    HW222073   4.230   2.609   2.466
 6825SOL     OW22074   5.501   2.204   3.504
 6825SOL    HW122075   5.484   2.235   3.410
 6825SOL    HW222076   5.417   2.167   3.542
 6826SOL     OW22077   5.454   2.796   3.379
 6826SOL    HW122078   5.492   2.887   3.394
 6826SOL    HW222079   5.446   2.779   3.280
 6827SOL     OW22080   4.583   3.236   1.878
 6827SOL    HW122081   4.537   3.251   1.966
 6827SOL    HW222082   4.627   3.321   1.848
 6828SOL     OW22083   4.385   3.652   2.815
 6828SOL    HW122084   4.339   3.740   2.802
 6828SOL    HW222085   4.484   3.664   2.808
 6829SOL     OW22086   4.807   2.846   1.949
 6829SOL    HW122087   4.784   2.899   1.867
 6829SOL    HW222088   4.888   2.790   1.930
 6830SOL     OW22089   5.585   3.431   2.713
 6830SOL    HW122090   5.514   3.419   2.643
 6830SOL    HW222091   5.586   3.352   2.773
 6831SOL     OW22092   3.945   3.176   3.706
 6831SOL    HW122093   3.880   3.103   3.685
 6831SOL    HW222094   3.949   3.190   3.804
 6832SOL     OW22095   4.396   3.253   3.486
 6832SOL    HW122096   4.318   3.203   3.524
 6832SOL    HW222097   4.393   3.348   3.517
 6833SOL     OW22098   5.548   2.054   3.089
 6833SOL    HW122099   5.544   1.964   3.133
 6833SOL    HW222100   5.551   2.043   2.990
 6834SOL     OW22101   4.152   2.286   2.382
 6834SOL    HW122102   4.182   2.214   2.320
 6834SOL    HW222103   4.113   2.246   2.465
 6835SOL     OW22104   5.429   3.349   2.966
 6835SOL    HW122105   5.336   3.324   2.939
 6835SOL    HW222106   5.455   3.299   3.048
 6836SOL     OW22107   5.148   2.076   2.974
 6836SOL    HW122108   5.200   2.011   3.029
 6836SOL    HW222109   5.099   2.139   3.035
 6837SOL     OW22110   4.725   1.896   3.016
 6837SOL    HW122111   4.662   1.824   2.985
 6837SOL    HW222112   4.818   1.860   3.016
 6838SOL     OW22113   4.494   3.192   2.163
 6838SOL    HW122114   4.448   3.105   2.180
 6838SOL    HW222115   4.585   3.189   2.204
 6839SOL     OW22116   4.342   3.429   3.146
 6839SOL    HW122117   4.337   3.511   3.203
 6839SOL    HW222118   4.431   3.426   3.101
 6840SOL     OW22119   5.076   1.914   2.030
 6840SOL    HW122120   5.111   1.873   1.946
 6840SOL    HW222121   4.986   1.876   2.050
 6841SOL     OW22122   5.024   2.315   2.553
 6841SOL    HW122123   4.965   2.395   2.557
 6841SOL    HW222124   5.039   2.280   2.646
 6842SOL     OW22125   5.317   2.083   2.744
 6842SOL    HW122126   5.233   2.082   2.798
 6842SOL    HW222127   5.319   2.166   2.688
 6843SOL     OW22128   3.763   2.939   2.162
 6843SOL    HW122129   3.862   2.928   2.153
 6843SOL    HW222130   3.723   2.853   2.194
 6844SOL     OW22131   4.599   3.508   2.199
 6844SOL    HW122132   4.522   3.473   2.145
 6844SOL    HW222133   4.567   3.579   2.261
 6845SOL     OW22134   3.949   2.137   4.720
 6845SOL    HW122135   3.984   2.120   4.812
 6845SOL    HW222136   3.861   2.092   4.708
 6846SOL     OW22137   3.743   2.230   4.371
 6846SOL    HW122138   3.661   2.273   4.410
 6846SOL    HW222139   3.715   2.157   4.308
 6847SOL     OW22140   4.293   3.137   4.889
 6847SOL    HW122141   4.200   3.130   4.852
 6847SOL    HW222142   4.304   3.226   4.933
 6848SOL     OW22143   4.859   2.565   4.441
 6848SOL    HW122144   4.916   2.643   4.416
 6848SOL    HW222145   4.799   2.591   4.517
 6849SOL     OW22146   5.479   2.469   3.955
 6849SOL    HW122147   5.467   2.456   3.856
 6849SOL    HW222148   5.449   2.388   4.004
 6850SOL     OW22149   4.492   3.006   4.747
 6850SOL    HW122150   4.414   3.023   4.807
 6850SOL    HW222151   4.526   3.093   4.711
 6851SOL     OW22152   4.574   2.660   5.547
 6851SOL    HW122153   4.570   2.736   5.612
 6851SOL    HW222154   4.596   2.696   5.456
 6852SOL     OW22155   4.410   3.023   5.527
 6852SOL    HW122156   4.470   3.102   5.541
 6852SOL    HW222157   4.324   3.054   5.486
 6853SOL     OW22158   4.059   3.297   4.785
 6853SOL    HW122159   3.981   3.266   4.732
 6853SOL    HW222160   4.117   3.355   4.728
 6854SOL     OW22161   5.184   3.367   5.063
 6854SOL    HW122162   5.208   3.461   5.089
 6854SOL    HW222163   5.168   3.313   5.145
 6855SOL     OW22164   4.162   2.254   5.223
 6855SOL    HW122165   4.244   2.198   5.232
 6855SOL    HW222166   4.081   2.196   5.227
 6856SOL     OW22167   5.327   2.309   4.461
 6856SOL    HW122168   5.253   2.355   4.411
 6856SOL    HW222169   5.378   2.377   4.514
 6857SOL     OW22170   3.955   3.575   4.207
 6857SOL    HW122171   3.989   3.652   4.261
 6857SOL    HW222172   3.999   3.575   4.117
 6858SOL     OW22173   4.851   3.203   5.414
 6858SOL    HW122174   4.898   3.203   5.502
 6858SOL    HW222175   4.803   3.116   5.403
 6859SOL     OW22176   3.954   3.296   4.262
 6859SOL    HW122177   3.928   3.392   4.262
 6859SOL    HW222178   3.883   3.242   4.307
 6860SOL     OW22179   3.964   2.953   4.610
 6860SOL    HW122180   3.978   2.869   4.662
 6860SOL    HW222181   3.909   3.017   4.665
 6861SOL     OW22182   4.344   3.648   5.163
 6861SOL    HW122183   4.252   3.631   5.198
 6861SOL    HW222184   4.372   3.740   5.189
 6862SOL     OW22185   4.330   2.826   3.847
 6862SOL    HW122186   4.337   2.910   3.793
 6862SOL    HW222187   4.376   2.839   3.935
 6863SOL     OW22188   5.318   1.976   5.204
 6863SOL    HW122189   5.300   2.043   5.132
 6863SOL    HW222190   5.315   2.022   5.293
 6864SOL     OW22191   3.846   2.505   4.287
 6864SOL    HW122192   3.801   2.417   4.304
 6864SOL    HW222193   3.845   2.559   4.371
 6865SOL     OW22194   5.566   3.629   4.083
 6865SOL    HW122195   5.620   3.600   4.163
 6865SOL    HW222196   5.596   3.719   4.054
 6866SOL     OW22197   3.751   3.458   3.841
 6866SOL    HW122198   3.732   3.362   3.862
 6866SOL    HW222199   3.718   3.516   3.916
 6867SOL     OW22200   5.413   2.784   4.336
 6867SOL    HW122201   5.508   2.755   4.344
 6867SOL    HW222202   5.405   2.849   4.261
 6868SOL     OW22203   5.365   2.970   4.156
 6868SOL    HW122204   5.451   2.972   4.104
 6868SOL    HW222205   5.379   3.017   4.244
 6869SOL     OW22206   3.837   2.599   5.321
 6869SOL    HW122207   3.925   2.586   5.366
 6869SOL    HW222208   3.824   2.696   5.299
 6870SOL     OW22209   5.017   3.090   5.147
 6870SOL    HW122210   5.054   3.017   5.089
 6870SOL    HW222211   5.069   3.095   5.232
 6871SOL     OW22212   4.533   1.866   4.226
 6871SOL    HW122213   4.573   1.957   4.217
 6871SOL    HW222214   4.433   1.874   4.232
 6872SOL     OW22215   3.921   2.838   4.988
 6872SOL    HW122216   4.010   2.793   4.974
 6872SOL    HW222217   3.848   2.773   4.969
 6873SOL     OW22218   5.249   2.861   3.914
 6873SOL    HW122219   5.186   2.785   3.927
 6873SOL    HW222220   5.297   2.879   4.000
 6874SOL     OW22221   4.911   3.654   5.340
 6874SOL    HW122222   4.935   3.714   5.264
 6874SOL    HW222223   4.918   3.559   5.310
 6875SOL     OW22224   4.041   2.113   5.525
 6875SOL    HW122225   4.112   2.184   5.531
 6875SOL    HW222226   3.953   2.152   5.553
 6876SOL     OW22227   5.391   3.576   4.296
 6876SOL    HW122228   5.350   3.553   4.208
 6876SOL    HW222229   5.373   3.502   4.361
 6877SOL     OW22230   5.005   2.207   4.668
 6877SOL    HW122231   4.919   2.157   4.655
 6877SOL    HW222232   5.067   2.153   4.724
 6878SOL     OW22233   5.300   3.524   4.031
 6878SOL    HW122234   5.389   3.570   4.034
 6878SOL    HW222235   5.279   3.500   3.936
 6879SOL     OW22236   4.531   2.467   5.189
 6879SOL    HW122237   4.484   2.464   5.278
 6879SOL    HW222238   4.480   2.412   5.123
 6880SOL     OW22239   5.118   2.331   5.398
 6880SOL    HW122240   5.098   2.374   5.486
 6880SOL    HW222241   5.196   2.269   5.407
 6881SOL     OW22242   4.697   2.752   5.296
 6881SOL    HW122243   4.743   2.668   5.267
 6881SOL    HW222244   4.641   2.786   5.221
 6882SOL     OW22245   4.715   2.272   4.966
 6882SOL    HW122246   4.638   2.306   5.020
 6882SOL    HW222247   4.681   2.221   4.887
 6883SOL     OW22248   3.800   2.673   4.513
 6883SOL    HW122249   3.899   2.661   4.522
 6883SOL    HW222250   3.776   2.768   4.534
 6884SOL     OW22251   3.854   3.683   5.295
 6884SOL    HW122252   3.844   3.668   5.394
 6884SOL    HW222253   3.768   3.719   5.259
 6885SOL     OW22254   4.589   2.210   3.919
 6885SOL    HW122255   4.648   2.273   3.870
 6885SOL    HW222256   4.608   2.116   3.890
 6886SOL     OW22257   5.443   2.447   5.555
 6886SOL    HW122258   5.417   2.536   5.519
 6886SOL    HW222259   5.441   2.379   5.482
 6887SOL     OW22260   4.274   2.058   4.609
 6887SOL    HW122261   4.269   2.053   4.709
 6887SOL    HW222262   4.276   2.154   4.580
 6888SOL     OW22263   4.732   3.318   4.201
 6888SOL    HW122264   4.686   3.390   4.149
 6888SOL    HW222265   4.728   3.338   4.299
 6889SOL     OW22266   5.519   2.928   4.597
 6889SOL    HW122267   5.457   2.913   4.521
 6889SOL    HW222268   5.467   2.939   4.682
 6890SOL     OW22269   4.951   3.412   5.230
 6890SOL    HW122270   4.957   3.335   5.294
 6890SOL    HW222271   4.899   3.386   5.150
 6891SOL     OW22272   4.045   2.805   3.966
 6891SOL    HW122273   4.127   2.844   3.924
 6891SOL    HW222274   4.018   2.723   3.917
 6892SOL     OW22275   5.182   2.597   4.452
 6892SOL    HW122276   5.177   2.532   4.527
 6892SOL    HW222277   5.262   2.656   4.465
 6893SOL     OW22278   4.185   3.128   5.451
 6893SOL    HW122279   4.135   3.129   5.365
 6893SOL    HW222280   4.122   3.110   5.527
 6894SOL     OW22281   4.835   3.638   3.961
 6894SOL    HW122282   4.775   3.576   4.011
 6894SOL    HW222283   4.866   3.594   3.876
 6895SOL     OW22284   3.926   2.147   5.222
 6895SOL    HW122285   3.846   2.207   5.209
 6895SOL    HW222286   3.916   2.098   5.308
 6896SOL     OW22287   5.356   3.239   3.805
 6896SOL    HW122288   5.324   3.333   3.795
 6896SOL    HW222289   5.280   3.176   3.793
 6897SOL     OW22290   4.188   3.605   4.047
 6897SOL    HW122291   4.221   3.644   4.133
 6897SOL    HW222292   4.264   3.598   3.982
 6898SOL     OW22293   5.124   1.969   4.150
 6898SOL    HW122294   5.100   1.932   4.060
 6898SOL    HW222295   5.223   1.985   4.154
 6899SOL     OW22296   3.973   3.647   4.965
 6899SOL    HW122297   4.030   3.582   5.015
 6899SOL    HW222298   3.957   3.614   4.872
 6900SOL     OW22299   5.271   2.084   5.453
 6900SOL    HW122300   5.266   2.121   5.545
 6900SOL    HW222301   5.199   2.015   5.441
 6901SOL     OW22302   4.338   1.984   3.841
 6901SOL    HW122303   4.436   1.962   3.848
 6901SOL    HW222304   4.307   1.967   3.748
 6902SOL     OW22305   4.505   2.126   5.473
 6902SOL    HW122306   4.572   2.065   5.516
 6902SOL    HW222307   4.432   2.145   5.538
 6903SOL     OW22308   4.612   3.376   4.919
 6903SOL    HW122309   4.589   3.351   4.825
 6903SOL    HW222310   4.673   3.307   4.958
 6904SOL     OW22311   5.075   2.452   5.157
 6904SOL    HW122312   5.103   2.409   5.242
 6904SOL    HW222313   5.100   2.548   5.158
 6905SOL     OW22314   4.646   2.365   4.623
 6905SOL    HW122315   4.621   2.356   4.527
 6905SOL    HW222316   4.694   2.283   4.654
 6906SOL     OW22317   4.263   1.926   4.236
 6906SOL    HW122318   4.182   1.927   4.294
 6906SOL    HW222319   4.266   2.009   4.181
 6907SOL     OW22320   5.158   3.050   3.765
 6907SOL    HW122321   5.190   2.974   3.822
 6907SOL    HW222322   5.066   3.077   3.795
 6908SOL     OW22323   4.021   1.897   3.895
 6908SOL    HW122324   4.070   1.981   3.874
 6908SOL    HW222325   4.083   1.832   3.940
 6909SOL     OW22326   4.659   2.098   4.204
 6909SOL    HW122327   4.611   2.139   4.126
 6909SOL    HW222328   4.758   2.096   4.185
 6910SOL     OW22329   4.800   2.545   5.188
 6910SOL    HW122330   4.720   2.484   5.191
 6910SOL    HW222331   4.881   2.492   5.164
 6911SOL     OW22332   3.802   2.418   5.110
 6911SOL    HW122333   3.894   2.417   5.069
 6911SOL    HW222334   3.796   2.492   5.177
 6912SOL     OW22335   4.285   2.084   4.871
 6912SOL    HW122336   4.323   2.000   4.908
 6912SOL    HW222337   4.197   2.103   4.915
 6913SOL     OW22338   4.590   2.316   4.366
 6913SOL    HW122339   4.558   2.388   4.304
 6913SOL    HW222340   4.614   2.235   4.313
 6914SOL     OW22341   4.741   1.901   4.477
 6914SOL    HW122342   4.669   1.906   4.408
 6914SOL    HW222343   4.717   1.832   4.546
 6915SOL     OW22344   5.190   2.452   4.716
 6915SOL    HW122345   5.160   2.357   4.723
 6915SOL    HW222346   5.263   2.468   4.782
 6916SOL     OW22347   5.581   2.695   4.101
 6916SOL    HW122348   5.623   2.631   4.165
 6916SOL    HW222349   5.543   2.644   4.023
 6917SOL     OW22350   4.212   3.247   3.898
 6917SOL    HW122351   4.125   3.232   3.945
 6917SOL    HW222352   4.195   3.273   3.803
 6918SOL     OW22353   5.388   3.142   4.381
 6918SOL    HW122354   5.487   3.150   4.395
 6918SOL    HW222355   5.343   3.226   4.412
 6919SOL     OW22356   4.251   2.118   4.052
 6919SOL    HW122357   4.278   2.059   3.977
 6919SOL    HW222358   4.251   2.213   4.021
 6920SOL     OW22359   5.478   3.085   5.312
 6920SOL    HW122360   5.569   3.046   5.299
 6920SOL    HW222361   5.486   3.181   5.336
 6921SOL     OW22362   4.788   3.209   5.064
 6921SOL    HW122363   4.708   3.186   5.119
 6921SOL    HW222364   4.871   3.183   5.113
 6922SOL     OW22365   5.316   3.491   5.349
 6922SOL    HW122366   5.343   3.525   5.259
 6922SOL    HW222367   5.395   3.453   5.395
 6923SOL     OW22368   4.835   3.057   4.824
 6923SOL    HW122369   4.795   3.101   4.905
 6923SOL    HW222370   4.794   3.094   4.741
 6924SOL     OW22371   5.362   2.961   4.803
 6924SOL    HW122372   5.367   3.042   4.862
 6924SOL    HW222373   5.276   2.963   4.752
 6925SOL     OW22374   4.639   1.951   5.126
 6925SOL    HW122375   4.664   1.931   5.031
 6925SOL    HW222376   4.711   2.007   5.168
 6926SOL     OW22377   4.704   2.978   5.443
 6926SOL    HW122378   4.605   2.984   5.453
 6926SOL    HW222379   4.727   2.898   5.387
 6927SOL     OW22380   4.134   2.675   4.975
 6927SOL    HW122381   4.220   2.687   5.025
 6927SOL    HW222382   4.092   2.588   5.002
 6928SOL     OW22383   4.998   2.248   4.986
 6928SOL    HW122384   5.019   2.322   5.050
 6928SOL    HW222385   4.909   2.265   4.943
 6929SOL     OW22386   3.788   3.426   5.055
 6929SOL    HW122387   3.742   3.508   5.021
 6929SOL    HW222388   3.886   3.445   5.064
 6930SOL     OW22389   4.290   2.399   4.589
 6930SOL    HW122390   4.302   2.465   4.515
 6930SOL    HW222391   4.336   2.433   4.672
 6931SOL     OW22392   4.976   3.210   4.112
 6931SOL    HW122393   5.026   3.287   4.152
 6931SOL    HW222394   4.881   3.212   4.144
 6932SOL     OW22395   4.996   3.307   4.866
 6932SOL    HW122396   5.043   3.320   4.953
 6932SOL    HW222397   4.930   3.233   4.875
 6933SOL     OW22398   5.306   2.501   4.196
 6933SOL    HW122399   5.275   2.562   4.269
 6933SOL    HW222400   5.356   2.553   4.127
 6934SOL     OW22401   4.078   3.372   5.053
 6934SOL    HW122402   4.057   3.328   4.966
 6934SOL    HW222403   4.175   3.398   5.056
 6935SOL     OW22404   4.126   2.613   5.322
 6935SOL    HW122405   4.194   2.668   5.275
 6935SOL    HW222406   4.166   2.525   5.349
 6936SOL     OW22407   5.311   2.641   5.394
 6936SOL    HW122408   5.219   2.679   5.389
 6936SOL    HW222409   5.371   2.688   5.329
 6937SOL     OW22410   4.737   1.967   5.494
 6937SOL    HW122411   4.743   2.052   5.442
 6937SOL    HW222412   4.769   1.891   5.437
 6938SOL     OW22413   4.228   1.912   5.464
 6938SOL    HW122414   4.186   1.855   5.394
 6938SOL    HW222415   4.162   1.981   5.496
 6939SOL     OW22416   4.297   2.732   4.753
 6939SOL    HW122417   4.341   2.821   4.744
 6939SOL    HW222418   4.234   2.732   4.830
 6940SOL     OW22419   5.084   2.724   4.769
 6940SOL    HW122420   5.009   2.724   4.703
 6940SOL    HW222421   5.121   2.632   4.778
 6941SOL     OW22422   4.031   2.075   4.955
 6941SOL    HW122423   4.008   2.112   5.045
 6941SOL    HW222424   4.001   1.980   4.949
 6942SOL     OW22425   3.761   3.172   5.006
 6942SOL    HW122426   3.814   3.123   5.074
 6942SOL    HW222427   3.783   3.270   5.011
 6943SOL     OW22428   4.456   2.496   4.788
 6943SOL    HW122429   4.515   2.470   4.712
 6943SOL    HW222430   4.428   2.592   4.777
 6944SOL     OW22431   5.452   2.797   5.578
 6944SOL    HW122432   5.406   2.790   5.489
 6944SOL    HW222433   5.390   2.841   5.644
 6945SOL     OW22434   4.031   1.925   4.342
 6945SOL    HW122435   4.020   2.019   4.375
 6945SOL    HW222436   4.026   1.862   4.419
 6946SOL     OW22437   5.346   2.229   4.098
 6946SOL    HW122438   5.348   2.153   4.162
 6946SOL    HW222439   5.298   2.306   4.138
 6947SOL     OW22440   4.747   2.628   4.690
 6947SOL    HW122441   4.762   2.649   4.786
 6947SOL    HW222442   4.717   2.533   4.681
 6948SOL     OW22443   4.704   3.435   5.424
 6948SOL    HW122444   4.684   3.479   5.336
 6948SOL    HW222445   4.743   3.344   5.408
 6949SOL     OW22446   5.583   3.380   5.329
 6949SOL    HW122447   5.597   3.407   5.234
 6949SOL    HW222448   5.666   3.402   5.382
 6950SOL     OW22449   4.074   2.760   5.528
 6950SOL    HW122450   4.150   2.804   5.576
 6950SOL    HW222451   4.109   2.713   5.446
 6951SOL     OW22452   5.264   2.136   3.849
 6951SOL    HW122453   5.203   2.061   3.872
 6951SOL    HW222454   5.286   2.188   3.932
 6952SOL     OW22455   4.043   2.672   4.673
 6952SOL    HW122456   4.136   2.708   4.678
 6952SOL    HW222457   4.037   2.587   4.725
 6953SOL     OW22458   4.063   2.371   4.730
 6953SOL    HW122459   4.011   2.288   4.713
 6953SOL    HW222460   4.140   2.376   4.666
 6954SOL     OW22461   4.862   2.242   5.402
 6954SOL    HW122462   4.817   2.305   5.466
 6954SOL    HW222463   4.955   2.273   5.385
 6955SOL     OW22464   4.884   2.069   5.201
 6955SOL    HW122465   4.884   2.133   5.278
 6955SOL    HW222466   4.912   2.117   5.118
 6956SOL     OW22467   3.732   3.188   3.924
 6956SOL    HW122468   3.639   3.209   3.893
 6956SOL    HW222469   3.742   3.089   3.937
 6957SOL     OW22470   4.726   2.658   4.962
 6957SOL    HW122471   4.767   2.626   5.048
 6957SOL    HW222472   4.630   2.631   4.959
 6958SOL     OW22473   3.764   2.406   4.838
 6958SOL    HW122474   3.849   2.373   4.797
 6958SOL    HW222475   3.777   2.421   4.936
 6959SOL     OW22476   3.913   2.382   5.446
 6959SOL    HW122477   3.972   2.342   5.376
 6959SOL    HW222478   3.855   2.453   5.405
 6960SOL     OW22479   5.093   2.812   5.384
 6960SOL    HW122480   5.132   2.901   5.404
 6960SOL    HW222481   5.103   2.792   5.287
 6961SOL     OW22482   5.381   2.466   4.930
 6961SOL    HW122483   5.343   2.397   4.992
 6961SOL    HW222484   5.463   2.430   4.886
 6962SOL     OW22485   3.976   3.426   5.468
 6962SOL    HW122486   3.946   3.483   5.544
 6962SOL    HW222487   3.969   3.329   5.494
 6963SOL     OW22488   4.395   2.326   4.993
 6963SOL    HW122489   4.361   2.237   4.963
 6963SOL    HW222490   4.421   2.380   4.913
 6964SOL     OW22491   4.654   3.540   5.189
 6964SOL    HW122492   4.630   3.522   5.094
 6964SOL    HW222493   4.684   3.634   5.199
 6965SOL     OW22494   3.883   2.999   5.190
 6965SOL    HW122495   3.905   2.938   5.266
 6965SOL    HW222496   3.893   2.950   5.104
 6966SOL     OW22497   5.071   2.921   4.958
 6966SOL    HW122498   5.095   2.858   4.884
 6966SOL    HW222499   4.981   2.961   4.940
 6967SOL     OW22500   5.483   3.609   4.878
 6967SOL    HW122501   5.544   3.639   4.805
 6967SOL    HW222502   5.445   3.520   4.856
 6968SOL     OW22503   4.976   3.593   4.852
 6968SOL    HW122504   5.060   3.598   4.798
 6968SOL    HW222505   4.953   3.497   4.870
 6969SOL     OW22506   3.807   3.120   4.746
 6969SOL    HW122507   3.802   3.119   4.846
 6969SOL    HW222508   3.724   3.079   4.708
 6970SOL     OW22509   4.412   3.524   5.440
 6970SOL    HW122510   4.356   3.605   5.449
 6970SOL    HW222511   4.464   3.528   5.354
 6971SOL     OW22512   5.450   1.997   4.247
 6971SOL    HW122513   5.523   1.980   4.180
 6971SOL    HW222514   5.419   1.910   4.285
 6972SOL     OW22515   5.112   3.435   4.201
 6972SOL    HW122516   5.179   3.447   4.127
 6972SOL    HW222517   5.072   3.524   4.224
 6973SOL     OW22518   3.854   3.656   5.575
 6973SOL    HW122519   3.813   3.582   5.628
 6973SOL    HW222520   3.918   3.707   5.633
 6974SOL     OW22521   4.554   3.135   5.146
 6974SOL    HW122522   4.549   3.168   5.241
 6974SOL    HW222523   4.468   3.154   5.100
 6975SOL     OW22524   4.396   3.478   3.878
 6975SOL    HW122525   4.405   3.488   3.779
 6975SOL    HW222526   4.356   3.389   3.899
 6976SOL     OW22527   5.374   3.582   5.118
 6976SOL    HW122528   5.427   3.592   5.034
 6976SOL    HW222529   5.347   3.672   5.152
 6977SOL     OW22530   5.565   2.037   4.687
 6977SOL    HW122531   5.604   1.952   4.651
 6977SOL    HW222532   5.467   2.039   4.668
 6978SOL     OW22533   3.987   2.188   4.444
 6978SOL    HW122534   3.908   2.239   4.410
 6978SOL    HW222535   3.978   2.173   4.542
 6979SOL     OW22536   4.918   3.474   3.755
 6979SOL    HW122537   4.924   3.381   3.792
 6979SOL    HW222538   4.859   3.474   3.675
 6980SOL     OW22539   4.546   2.864   5.096
 6980SOL    HW122540   4.586   2.863   5.004
 6980SOL    HW222541   4.556   2.956   5.136
 6981SOL     OW22542   5.228   3.469   3.768
 6981SOL    HW122543   5.136   3.506   3.775
 6981SOL    HW222544   5.266   3.489   3.678
 6982SOL     OW22545   4.096   3.150   5.214
 6982SOL    HW122546   4.083   3.243   5.180
 6982SOL    HW222547   4.012   3.098   5.201
 6983SOL     OW22548   5.338   3.154   5.013
 6983SOL    HW122549   5.398   3.157   5.093
 6983SOL    HW222550   5.263   3.218   5.026
 6984SOL     OW22551   4.738   2.098   4.695
 6984SOL    HW122552   4.730   2.062   4.602
 6984SOL    HW222553   4.736   2.022   4.760
 6985SOL     OW22554   4.314   3.349   4.215
 6985SOL    HW122555   4.356   3.291   4.145
 6985SOL    HW222556   4.270   3.428   4.171
 6986SOL     OW22557   5.433   2.247   5.105
 6986SOL    HW122558   5.506   2.316   5.109
 6986SOL    HW222559   5.461   2.172   5.046
 6987SOL     OW22560   3.979   3.210   4.014
 6987SOL    HW122561   3.883   3.211   3.987
 6987SOL    HW222562   3.991   3.263   4.098
 6988SOL     OW22563   3.829   2.875   5.450
 6988SOL    HW122564   3.752   2.842   5.504
 6988SOL    HW222565   3.914   2.845   5.492
 6989SOL     OW22566   4.396   2.065   5.213
 6989SOL    HW122567   4.486   2.049   5.173
 6989SOL    HW222568   4.404   2.070   5.312
 6990SOL     OW22569   3.799   2.207   3.757
 6990SOL    HW122570   3.707   2.179   3.728
 6990SOL    HW222571   3.830   2.284   3.701
 6991SOL     OW22572   5.164   2.718   5.122
 6991SOL    HW122573   5.107   2.770   5.059
 6991SOL    HW222574   5.260   2.730   5.098
 6992SOL     OW22575   3.796   2.028   4.042
 6992SOL    HW122576   3.779   2.111   3.988
 6992SOL    HW222577   3.886   1.991   4.020
 6993SOL     OW22578   4.907   3.197   3.843
 6993SOL    HW122579   4.808   3.186   3.845
 6993SOL    HW222580   4.941   3.212   3.936
 6994SOL     OW22581   4.337   2.704   5.155
 6994SOL    HW122582   4.393   2.785   5.138
 6994SOL    HW222583   4.396   2.624   5.158
 6995SOL     OW22584   5.217   3.629   4.683
 6995SOL    HW122585   5.250   3.693   4.614
 6995SOL    HW222586   5.283   3.623   4.758
 6996SOL     OW22587   4.440   2.427   5.432
 6996SOL    HW122588   4.459   2.492   5.506
 6996SOL    HW222589   4.500   2.347   5.441
 6997SOL     OW22590   5.174   3.082   5.357
 6997SOL    HW122591   5.165   3.072   5.456
 6997SOL    HW222592   5.270   3.075   5.331
 6998SOL     OW22593   4.114   3.603   5.284
 6998SOL    HW122594   4.023   3.644   5.282
 6998SOL    HW222595   4.107   3.509   5.316
 6999SOL     OW22596   5.398   2.745   4.978
 6999SOL    HW122597   5.371   2.656   4.941
 6999SOL    HW222598   5.399   2.813   4.905
 7000SOL     OW22599   4.949   2.187   4.173
 7000SOL    HW122600   5.014   2.113   4.162
 7000SOL    HW222601   4.969   2.237   4.257
 7001SOL     OW22602   5.501   2.204   5.366
 7001SOL    HW122603   5.484   2.235   5.272
 7001SOL    HW222604   5.417   2.167   5.404
 7002SOL     OW22605   5.454   2.796   5.241
 7002SOL    HW122606   5.492   2.887   5.256
 7002SOL    HW222607   5.446   2.779   5.142
 7003SOL     OW22608   4.583   3.236   3.740
 7003SOL    HW122609   4.537   3.251   3.828
 7003SOL    HW222610   4.627   3.321   3.710
 7004SOL     OW22611   4.583   2.818   4.585
 7004SOL    HW122612   4.637   2.749   4.633
 7004SOL    HW222613   4.551   2.887   4.651
 7005SOL     OW22614   4.807   2.846   3.811
 7005SOL    HW122615   4.784   2.899   3.729
 7005SOL    HW222616   4.888   2.790   3.792
 7006SOL     OW22617   5.585   3.431   4.575
 7006SOL    HW122618   5.514   3.419   4.505
 7006SOL    HW222619   5.586   3.352   4.635
 7007SOL     OW22620   3.945   3.176   5.568
 7007SOL    HW122621   3.880   3.103   5.547
 7007SOL    HW222622   3.949   3.190   5.666
 7008SOL     OW22623   4.396   3.253   5.348
 7008SOL    HW122624   4.318   3.203   5.386
 7008SOL    HW222625   4.393   3.348   5.379
 7009SOL     OW22626   5.548   2.054   4.951
 7009SOL    HW122627   5.544   1.964   4.995
 7009SOL    HW222628   5.551   2.043   4.852
 7010SOL     OW22629   4.152   2.286   4.244
 7010SOL    HW122630   4.182   2.214   4.182
 7010SOL    HW222631   4.113   2.246   4.327
 7011SOL     OW22632   5.429   3.349   4.828
 7011SOL    HW122633   5.336   3.324   4.801
 7011SOL    HW222634   5.455   3.299   4.910
 7012SOL     OW22635   4.041   2.409   5.004
 7012SOL    HW122636   4.079   2.350   5.076
 7012SOL    HW222637   4.081   2.383   4.916
 7013SOL     OW22638   5.148   2.076   4.836
 7013SOL    HW122639   5.200   2.011   4.891
 7013SOL    HW222640   5.099   2.139   4.897
 7014SOL     OW22641   4.725   1.896   4.878
 7014SOL    HW122642   4.662   1.824   4.847
 7014SOL    HW222643   4.818   1.860   4.878
 7015SOL     OW22644   4.494   3.192   4.025
 7015SOL    HW122645   4.448   3.105   4.042
 7015SOL    HW222646   4.585   3.189   4.066
 7016SOL     OW22647   4.342   3.429   5.008
 7016SOL    HW122648   4.337   3.511   5.065
 7016SOL    HW222649   4.431   3.426   4.963
 7017SOL     OW22650   5.076   1.914   3.892
 7017SOL    HW122651   5.111   1.873   3.808
 7017SOL    HW222652   4.986   1.876   3.912
 7018SOL     OW22653   5.024   2.315   4.415
 7018SOL    HW122654   4.965   2.395   4.419
 7018SOL    HW222655   5.039   2.280   4.508
 7019SOL     OW22656   5.317   2.083   4.606
 7019SOL    HW122657   5.233   2.082   4.660
 7019SOL    HW222658   5.319   2.166   4.550
 7020SOL     OW22659   3.763   2.939   4.024
 7020SOL    HW122660   3.862   2.928   4.015
 7020SOL    HW222661   3.723   2.853   4.056
 7021SOL     OW22662   4.599   3.508   4.061
 7021SOL    HW122663   4.522   3.473   4.007
 7021SOL    HW222664   4.567   3.579   4.123
 7022SOL     OW22665   3.954   2.490   5.699
 7022SOL    HW122666   3.861   2.488   5.736
 7022SOL    HW222667   3.955   2.451   5.607
 7023SOL     OW22668   3.949   2.137   6.582
 7023SOL    HW122669   3.984   2.120   6.674
 7023SOL    HW222670   3.861   2.092   6.570
 7024SOL     OW22671   3.743   2.230   6.233
 7024SOL    HW122672   3.661   2.273   6.272
 7024SOL    HW222673   3.715   2.157   6.170
 7025SOL     OW22674   4.293   3.137   6.751
 7025SOL    HW122675   4.200   3.130   6.714
 7025SOL    HW222676   4.304   3.226   6.795
 7026SOL     OW22677   5.279   3.373   6.289
 7026SOL    HW122678   5.222   3.357   6.370
 7026SOL    HW222679   5.220   3.383   6.209
 7027SOL     OW22680   4.859   2.565   6.303
 7027SOL    HW122681   4.916   2.643   6.278
 7027SOL    HW222682   4.799   2.591   6.379
 7028SOL     OW22683   5.479   2.469   5.817
 7028SOL    HW122684   5.467   2.456   5.718
 7028SOL    HW222685   5.449   2.388   5.866
 7029SOL     OW22686   4.492   3.006   6.609
 7029SOL    HW122687   4.414   3.023   6.669
 7029SOL    HW222688   4.526   3.093   6.573
 7030SOL     OW22689   4.409   2.874   6.251
 7030SOL    HW122690   4.478   2.858   6.321
 7030SOL    HW222691   4.336   2.931   6.289
 7031SOL     OW22692   4.059   3.297   6.647
 7031SOL    HW122693   3.981   3.266   6.594
 7031SOL    HW222694   4.117   3.355   6.590
 7032SOL     OW22695   5.327   2.309   6.323
 7032SOL    HW122696   5.253   2.355   6.273
 7032SOL    HW222697   5.378   2.377   6.376
 7033SOL     OW22698   3.955   3.575   6.069
 7033SOL    HW122699   3.989   3.652   6.123
 7033SOL    HW222700   3.999   3.575   5.979
 7034SOL     OW22701   3.954   3.296   6.124
 7034SOL    HW122702   3.928   3.392   6.124
 7034SOL    HW222703   3.883   3.242   6.169
 7035SOL     OW22704   3.964   2.953   6.472
 7035SOL    HW122705   3.978   2.869   6.524
 7035SOL    HW222706   3.909   3.017   6.527
 7036SOL     OW22707   4.344   3.648   7.025
 7036SOL    HW122708   4.252   3.631   7.060
 7036SOL    HW222709   4.372   3.740   7.051
 7037SOL     OW22710   4.330   2.826   5.709
 7037SOL    HW122711   4.337   2.910   5.655
 7037SOL    HW222712   4.376   2.839   5.797
 7038SOL     OW22713   3.846   2.505   6.149
 7038SOL    HW122714   3.801   2.417   6.166
 7038SOL    HW222715   3.845   2.559   6.233
 7039SOL     OW22716   5.566   3.629   5.945
 7039SOL    HW122717   5.620   3.600   6.025
 7039SOL    HW222718   5.596   3.719   5.916
 7040SOL     OW22719   3.751   3.458   5.703
 7040SOL    HW122720   3.732   3.362   5.724
 7040SOL    HW222721   3.718   3.516   5.778
 7041SOL     OW22722   5.413   2.784   6.198
 7041SOL    HW122723   5.508   2.755   6.206
 7041SOL    HW222724   5.405   2.849   6.123
 7042SOL     OW22725   5.365   2.970   6.018
 7042SOL    HW122726   5.451   2.972   5.966
 7042SOL    HW222727   5.379   3.017   6.106
 7043SOL     OW22728   4.337   3.227   6.312
 7043SOL    HW122729   4.288   3.140   6.321
 7043SOL    HW222730   4.314   3.270   6.225
 7044SOL     OW22731   4.533   1.866   6.088
 7044SOL    HW122732   4.573   1.957   6.079
 7044SOL    HW222733   4.433   1.874   6.094
 7045SOL     OW22734   3.921   2.838   6.850
 7045SOL    HW122735   4.010   2.793   6.836
 7045SOL    HW222736   3.848   2.773   6.831
 7046SOL     OW22737   5.249   2.861   5.776
 7046SOL    HW122738   5.186   2.785   5.789
 7046SOL    HW222739   5.297   2.879   5.862
 7047SOL     OW22740   5.190   3.279   6.539
 7047SOL    HW122741   5.131   3.285   6.619
 7047SOL    HW222742   5.175   3.191   6.493
 7048SOL     OW22743   5.391   3.576   6.158
 7048SOL    HW122744   5.350   3.553   6.070
 7048SOL    HW222745   5.373   3.502   6.223
 7049SOL     OW22746   4.322   2.591   5.856
 7049SOL    HW122747   4.346   2.660   5.788
 7049SOL    HW222748   4.244   2.624   5.910
 7050SOL     OW22749   5.005   2.207   6.530
 7050SOL    HW122750   4.919   2.157   6.517
 7050SOL    HW222751   5.067   2.153   6.586
 7051SOL     OW22752   5.300   3.524   5.893
 7051SOL    HW122753   5.389   3.570   5.896
 7051SOL    HW222754   5.279   3.500   5.798
 7052SOL     OW22755   4.531   2.467   7.051
 7052SOL    HW122756   4.484   2.464   7.140
 7052SOL    HW222757   4.480   2.412   6.985
 7053SOL     OW22758   4.715   2.272   6.828
 7053SOL    HW122759   4.638   2.306   6.882
 7053SOL    HW222760   4.681   2.221   6.749
 7054SOL     OW22761   4.765   2.563   6.015
 7054SOL    HW122762   4.791   2.559   6.111
 7054SOL    HW222763   4.680   2.512   6.001
 7055SOL     OW22764   3.800   2.673   6.375
 7055SOL    HW122765   3.899   2.661   6.384
 7055SOL    HW222766   3.776   2.768   6.396
 7056SOL     OW22767   3.854   3.683   7.157
 7056SOL    HW122768   3.844   3.668   7.256
 7056SOL    HW222769   3.768   3.719   7.121
 7057SOL     OW22770   4.589   2.210   5.781
 7057SOL    HW122771   4.648   2.273   5.732
 7057SOL    HW222772   4.608   2.116   5.752
 7058SOL     OW22773   5.086   3.006   6.131
 7058SOL    HW122774   5.169   2.977   6.083
 7058SOL    HW222775   5.037   3.073   6.075
 7059SOL     OW22776   4.274   2.058   6.471
 7059SOL    HW122777   4.269   2.053   6.571
 7059SOL    HW222778   4.276   2.154   6.442
 7060SOL     OW22779   4.732   3.318   6.063
 7060SOL    HW122780   4.686   3.390   6.011
 7060SOL    HW222781   4.728   3.338   6.161
 7061SOL     OW22782   4.075   3.663   6.439
 7061SOL    HW122783   4.125   3.577   6.445
 7061SOL    HW222784   4.140   3.740   6.436
 7062SOL     OW22785   5.519   2.928   6.459
 7062SOL    HW122786   5.457   2.913   6.383
 7062SOL    HW222787   5.467   2.939   6.544
 7063SOL     OW22788   4.045   2.805   5.828
 7063SOL    HW122789   4.127   2.844   5.786
 7063SOL    HW222790   4.018   2.723   5.779
 7064SOL     OW22791   5.182   2.597   6.314
 7064SOL    HW122792   5.177   2.532   6.389
 7064SOL    HW222793   5.262   2.656   6.327
 7065SOL     OW22794   4.835   3.638   5.823
 7065SOL    HW122795   4.775   3.576   5.873
 7065SOL    HW222796   4.866   3.594   5.738
 7066SOL     OW22797   5.356   3.239   5.667
 7066SOL    HW122798   5.324   3.333   5.657
 7066SOL    HW222799   5.280   3.176   5.655
 7067SOL     OW22800   4.188   3.605   5.909
 7067SOL    HW122801   4.221   3.644   5.995
 7067SOL    HW222802   4.264   3.598   5.844
 7068SOL     OW22803   5.124   1.969   6.012
 7068SOL    HW122804   5.100   1.932   5.922
 7068SOL    HW222805   5.223   1.985   6.016
 7069SOL     OW22806   3.973   3.647   6.827
 7069SOL    HW122807   4.030   3.582   6.877
 7069SOL    HW222808   3.957   3.614   6.734
 7070SOL     OW22809   4.664   3.560   6.490
 7070SOL    HW122810   4.744   3.503   6.511
 7070SOL    HW222811   4.615   3.520   6.413
 7071SOL     OW22812   4.106   2.562   6.066
 7071SOL    HW122813   4.151   2.472   6.063
 7071SOL    HW222814   4.012   2.551   6.099
 7072SOL     OW22815   4.338   1.984   5.703
 7072SOL    HW122816   4.436   1.962   5.710
 7072SOL    HW222817   4.307   1.967   5.610
 7073SOL     OW22818   4.612   3.376   6.781
 7073SOL    HW122819   4.589   3.351   6.687
 7073SOL    HW222820   4.673   3.307   6.820
 7074SOL     OW22821   4.527   3.264   6.510
 7074SOL    HW122822   4.617   3.278   6.468
 7074SOL    HW222823   4.456   3.266   6.439
 7075SOL     OW22824   4.646   2.365   6.485
 7075SOL    HW122825   4.621   2.356   6.389
 7075SOL    HW222826   4.694   2.283   6.516
 7076SOL     OW22827   4.263   1.926   6.098
 7076SOL    HW122828   4.182   1.927   6.156
 7076SOL    HW222829   4.266   2.009   6.043
 7077SOL     OW22830   5.158   3.050   5.627
 7077SOL    HW122831   5.190   2.974   5.684
 7077SOL    HW222832   5.066   3.077   5.657
 7078SOL     OW22833   4.021   1.897   5.757
 7078SOL    HW122834   4.070   1.981   5.736
 7078SOL    HW222835   4.083   1.832   5.802
 7079SOL     OW22836   4.659   2.098   6.066
 7079SOL    HW122837   4.611   2.139   5.988
 7079SOL    HW222838   4.758   2.096   6.047
 7080SOL     OW22839   4.951   3.432   6.379
 7080SOL    HW122840   4.972   3.506   6.314
 7080SOL    HW222841   5.019   3.432   6.452
 7081SOL     OW22842   4.183   3.014   6.327
 7081SOL    HW122843   4.112   2.987   6.392
 7081SOL    HW222844   4.157   2.986   6.234
 7082SOL     OW22845   4.995   3.659   6.177
 7082SOL    HW122846   5.039   3.723   6.113
 7082SOL    HW222847   4.945   3.711   6.247
 7083SOL     OW22848   4.756   2.411   5.602
 7083SOL    HW122849   4.715   2.493   5.563
 7083SOL    HW222850   4.820   2.437   5.675
 7084SOL     OW22851   4.285   2.084   6.733
 7084SOL    HW122852   4.323   2.000   6.770
 7084SOL    HW222853   4.197   2.103   6.777
 7085SOL     OW22854   4.590   2.316   6.228
 7085SOL    HW122855   4.558   2.388   6.166
 7085SOL    HW222856   4.614   2.235   6.175
 7086SOL     OW22857   4.741   1.901   6.339
 7086SOL    HW122858   4.669   1.906   6.270
 7086SOL    HW222859   4.717   1.832   6.408
 7087SOL     OW22860   5.153   3.035   6.453
 7087SOL    HW122861   5.098   2.951   6.446
 7087SOL    HW222862   5.179   3.064   6.361
 7088SOL     OW22863   5.190   2.452   6.578
 7088SOL    HW122864   5.160   2.357   6.585
 7088SOL    HW222865   5.263   2.468   6.644
 7089SOL     OW22866   5.581   2.695   5.963
 7089SOL    HW122867   5.623   2.631   6.027
 7089SOL    HW222868   5.543   2.644   5.885
 7090SOL     OW22869   4.212   3.247   5.760
 7090SOL    HW122870   4.125   3.232   5.807
 7090SOL    HW222871   4.195   3.273   5.665
 7091SOL     OW22872   5.388   3.142   6.243
 7091SOL    HW122873   5.487   3.150   6.257
 7091SOL    HW222874   5.343   3.226   6.274
 7092SOL     OW22875   5.114   2.437   5.664
 7092SOL    HW122876   5.060   2.416   5.745
 7092SOL    HW222877   5.205   2.396   5.673
 7093SOL     OW22878   4.251   2.118   5.914
 7093SOL    HW122879   4.278   2.059   5.839
 7093SOL    HW222880   4.251   2.213   5.883
 7094SOL     OW22881   5.478   3.085   7.174
 7094SOL    HW122882   5.569   3.046   7.161
 7094SOL    HW222883   5.486   3.181   7.198
 7095SOL     OW22884   4.835   3.057   6.686
 7095SOL    HW122885   4.795   3.101   6.767
 7095SOL    HW222886   4.794   3.094   6.603
 7096SOL     OW22887   5.362   2.961   6.665
 7096SOL    HW122888   5.367   3.042   6.724
 7096SOL    HW222889   5.276   2.963   6.614
 7097SOL     OW22890   4.429   2.912   5.954
 7097SOL    HW122891   4.415   2.919   6.053
 7097SOL    HW222892   4.513   2.861   5.936
 7098SOL     OW22893   4.134   2.675   6.837
 7098SOL    HW122894   4.220   2.687   6.887
 7098SOL    HW222895   4.092   2.588   6.864
 7099SOL     OW22896   4.998   2.248   6.848
 7099SOL    HW122897   5.019   2.322   6.912
 7099SOL    HW222898   4.909   2.265   6.805
 7100SOL     OW22899   3.788   3.426   6.917
 7100SOL    HW122900   3.742   3.508   6.883
 7100SOL    HW222901   3.886   3.445   6.926
 7101SOL     OW22902   4.091   2.962   6.087
 7101SOL    HW122903   4.084   3.045   6.031
 7101SOL    HW222904   4.095   2.882   6.027
 7102SOL     OW22905   4.290   2.399   6.451
 7102SOL    HW122906   4.302   2.465   6.377
 7102SOL    HW222907   4.336   2.433   6.534
 7103SOL     OW22908   4.976   3.210   5.974
 7103SOL    HW122909   5.026   3.287   6.014
 7103SOL    HW222910   4.881   3.212   6.006
 7104SOL     OW22911   4.996   3.307   6.728
 7104SOL    HW122912   5.043   3.320   6.815
 7104SOL    HW222913   4.930   3.233   6.737
 7105SOL     OW22914   5.306   2.501   6.058
 7105SOL    HW122915   5.275   2.562   6.131
 7105SOL    HW222916   5.356   2.553   5.989
 7106SOL     OW22917   4.078   3.372   6.915
 7106SOL    HW122918   4.057   3.328   6.828
 7106SOL    HW222919   4.175   3.398   6.918
 7107SOL     OW22920   4.297   2.732   6.615
 7107SOL    HW122921   4.341   2.821   6.606
 7107SOL    HW222922   4.234   2.732   6.692
 7108SOL     OW22923   5.084   2.724   6.631
 7108SOL    HW122924   5.009   2.724   6.565
 7108SOL    HW222925   5.121   2.632   6.640
 7109SOL     OW22926   4.933   2.387   5.861
 7109SOL    HW122927   4.946   2.303   5.915
 7109SOL    HW222928   4.904   2.461   5.921
 7110SOL     OW22929   4.031   2.075   6.817
 7110SOL    HW122930   4.008   2.112   6.907
 7110SOL    HW222931   4.001   1.980   6.811
 7111SOL     OW22932   3.761   3.172   6.868
 7111SOL    HW122933   3.814   3.123   6.936
 7111SOL    HW222934   3.783   3.270   6.873
 7112SOL     OW22935   4.456   2.496   6.650
 7112SOL    HW122936   4.515   2.470   6.574
 7112SOL    HW222937   4.428   2.592   6.639
 7113SOL     OW22938   4.031   1.925   6.204
 7113SOL    HW122939   4.020   2.019   6.237
 7113SOL    HW222940   4.026   1.862   6.281
 7114SOL     OW22941   5.346   2.229   5.960
 7114SOL    HW122942   5.348   2.153   6.024
 7114SOL    HW222943   5.298   2.306   6.000
 7115SOL     OW22944   4.747   2.628   6.552
 7115SOL    HW122945   4.762   2.649   6.648
 7115SOL    HW222946   4.717   2.533   6.543
 7116SOL     OW22947   5.264   2.136   5.711
 7116SOL    HW122948   5.203   2.061   5.734
 7116SOL    HW222949   5.286   2.188   5.794
 7117SOL     OW22950   5.027   2.700   5.628
 7117SOL    HW122951   5.061   2.607   5.643
 7117SOL    HW222952   5.045   2.727   5.533
 7118SOL     OW22953   4.792   3.195   6.435
 7118SOL    HW122954   4.799   3.111   6.380
 7118SOL    HW222955   4.854   3.264   6.399
 7119SOL     OW22956   4.043   2.672   6.535
 7119SOL    HW122957   4.136   2.708   6.540
 7119SOL    HW222958   4.037   2.587   6.587
 7120SOL     OW22959   4.063   2.371   6.592
 7120SOL    HW122960   4.011   2.288   6.575
 7120SOL    HW222961   4.140   2.376   6.528
 7121SOL     OW22962   4.884   2.069   7.063
 7121SOL    HW122963   4.884   2.133   7.140
 7121SOL    HW222964   4.912   2.117   6.980
 7122SOL     OW22965   3.732   3.188   5.786
 7122SOL    HW122966   3.639   3.209   5.755
 7122SOL    HW222967   3.742   3.089   5.799
 7123SOL     OW22968   3.812   3.663   6.513
 7123SOL    HW122969   3.770   3.577   6.486
 7123SOL    HW222970   3.906   3.666   6.479
 7124SOL     OW22971   4.228   3.430   6.496
 7124SOL    HW122972   4.294   3.504   6.505
 7124SOL    HW222973   4.272   3.351   6.454
 7125SOL     OW22974   4.726   2.658   6.824
 7125SOL    HW122975   4.767   2.626   6.910
 7125SOL    HW222976   4.630   2.631   6.821
 7126SOL     OW22977   3.764   2.406   6.700
 7126SOL    HW122978   3.849   2.373   6.659
 7126SOL    HW222979   3.777   2.421   6.798
 7127SOL     OW22980   4.539   2.434   5.911
 7127SOL    HW122981   4.546   2.345   5.865
 7127SOL    HW222982   4.445   2.468   5.903
 7128SOL     OW22983   5.381   2.466   6.792
 7128SOL    HW122984   5.343   2.397   6.854
 7128SOL    HW222985   5.463   2.430   6.748
 7129SOL     OW22986   4.395   2.326   6.855
 7129SOL    HW122987   4.361   2.237   6.825
 7129SOL    HW222988   4.421   2.380   6.775
 7130SOL     OW22989   4.654   3.540   7.051
 7130SOL    HW122990   4.630   3.522   6.956
 7130SOL    HW222991   4.684   3.634   7.061
 7131SOL     OW22992   4.197   2.362   5.777
 7131SOL    HW122993   4.258   2.442   5.781
 7131SOL    HW222994   4.102   2.393   5.784
 7132SOL     OW22995   3.883   2.999   7.052
 7132SOL    HW122996   3.905   2.938   7.128
 7132SOL    HW222997   3.893   2.950   6.966
 7133SOL     OW22998   5.071   2.921   6.820
 7133SOL    HW122999   5.095   2.858   6.746
 7133SOL    HW223000   4.981   2.961   6.802
 7134SOL     OW23001   5.026   2.717   5.895
 7134SOL    HW123002   4.940   2.686   5.937
 7134SOL    HW223003   5.022   2.703   5.796
 7135SOL     OW23004   5.483   3.609   6.740
 7135SOL    HW123005   5.544   3.639   6.667
 7135SOL    HW223006   5.445   3.520   6.718
 7136SOL     OW23007   4.976   3.593   6.714
 7136SOL    HW123008   5.060   3.598   6.660
 7136SOL    HW223009   4.953   3.497   6.732
 7137SOL     OW23010   3.807   3.120   6.608
 7137SOL    HW123011   3.802   3.119   6.708
 7137SOL    HW223012   3.724   3.079   6.570
 7138SOL     OW23013   5.450   1.997   6.109
 7138SOL    HW123014   5.523   1.980   6.042
 7138SOL    HW223015   5.419   1.910   6.147
 7139SOL     OW23016   5.112   3.435   6.063
 7139SOL    HW123017   5.179   3.447   5.989
 7139SOL    HW223018   5.072   3.524   6.086
 7140SOL     OW23019   5.004   2.789   6.258
 7140SOL    HW123020   5.064   2.708   6.260
 7140SOL    HW223021   5.044   2.858   6.198
 7141SOL     OW23022   4.396   3.478   5.740
 7141SOL    HW123023   4.405   3.488   5.641
 7141SOL    HW223024   4.356   3.389   5.761
 7142SOL     OW23025   5.565   2.037   6.549
 7142SOL    HW123026   5.604   1.952   6.513
 7142SOL    HW223027   5.467   2.039   6.530
 7143SOL     OW23028   3.987   2.188   6.306
 7143SOL    HW123029   3.908   2.239   6.272
 7143SOL    HW223030   3.978   2.173   6.404
 7144SOL     OW23031   4.918   3.474   5.617
 7144SOL    HW123032   4.924   3.381   5.654
 7144SOL    HW223033   4.859   3.474   5.537
 7145SOL     OW23034   4.546   2.864   6.958
 7145SOL    HW123035   4.586   2.863   6.866
 7145SOL    HW223036   4.556   2.956   6.998
 7146SOL     OW23037   4.640   2.772   5.877
 7146SOL    HW123038   4.703   2.810   5.809
 7146SOL    HW223039   4.680   2.689   5.916
 7147SOL     OW23040   5.228   3.469   5.630
 7147SOL    HW123041   5.136   3.506   5.637
 7147SOL    HW223042   5.266   3.489   5.540
 7148SOL     OW23043   5.338   3.154   6.875
 7148SOL    HW123044   5.398   3.157   6.955
 7148SOL    HW223045   5.263   3.218   6.888
 7149SOL     OW23046   4.763   2.960   6.282
 7149SOL    HW123047   4.693   2.913   6.336
 7149SOL    HW223048   4.822   2.892   6.239
 7150SOL     OW23049   4.738   2.098   6.557
 7150SOL    HW123050   4.730   2.062   6.464
 7150SOL    HW223051   4.736   2.022   6.622
 7151SOL     OW23052   4.314   3.349   6.077
 7151SOL    HW123053   4.356   3.291   6.007
 7151SOL    HW223054   4.270   3.428   6.033
 7152SOL     OW23055   5.433   2.247   6.967
 7152SOL    HW123056   5.506   2.316   6.971
 7152SOL    HW223057   5.461   2.172   6.908
 7153SOL     OW23058   3.979   3.210   5.876
 7153SOL    HW123059   3.883   3.211   5.849
 7153SOL    HW223060   3.991   3.263   5.960
 7154SOL     OW23061   4.396   2.065   7.075
 7154SOL    HW123062   4.486   2.049   7.035
 7154SOL    HW223063   4.404   2.070   7.174
 7155SOL     OW23064   3.799   2.207   5.619
 7155SOL    HW123065   3.707   2.179   5.590
 7155SOL    HW223066   3.830   2.284   5.563
 7156SOL     OW23067   3.796   2.028   5.904
 7156SOL    HW123068   3.779   2.111   5.850
 7156SOL    HW223069   3.886   1.991   5.882
 7157SOL     OW23070   4.907   3.197   5.705
 7157SOL    HW123071   4.808   3.186   5.707
 7157SOL    HW223072   4.941   3.212   5.798
 7158SOL     OW23073   5.217   3.629   6.545
 7158SOL    HW123074   5.250   3.693   6.476
 7158SOL    HW223075   5.283   3.623   6.620
 7159SOL     OW23076   5.174   3.082   7.219
 7159SOL    HW123077   5.165   3.072   7.318
 7159SOL    HW223078   5.270   3.075   7.193
 7160SOL     OW23079   4.114   3.603   7.146
 7160SOL    HW123080   4.023   3.644   7.144
 7160SOL    HW223081   4.107   3.509   7.178
 7161SOL     OW23082   5.398   2.745   6.840
 7161SOL    HW123083   5.371   2.656   6.803
 7161SOL    HW223084   5.399   2.813   6.767
 7162SOL     OW23085   4.949   2.187   6.035
 7162SOL    HW123086   5.014   2.113   6.024
 7162SOL    HW223087   4.969   2.237   6.119
 7163SOL     OW23088   4.318   2.607   6.238
 7163SOL    HW123089   4.368   2.692   6.219
 7163SOL    HW223090   4.230   2.609   6.190
 7164SOL     OW23091   5.454   2.796   7.103
 7164SOL    HW123092   5.492   2.887   7.118
 7164SOL    HW223093   5.446   2.779   7.004
 7165SOL     OW23094   4.583   3.236   5.602
 7165SOL    HW123095   4.537   3.251   5.690
 7165SOL    HW223096   4.627   3.321   5.572
 7166SOL     OW23097   4.385   3.652   6.539
 7166SOL    HW123098   4.339   3.740   6.526
 7166SOL    HW223099   4.484   3.664   6.532
 7167SOL     OW23100   4.583   2.818   6.447
 7167SOL    HW123101   4.637   2.749   6.495
 7167SOL    HW223102   4.551   2.887   6.513
 7168SOL     OW23103   4.807   2.846   5.673
 7168SOL    HW123104   4.784   2.899   5.591
 7168SOL    HW223105   4.888   2.790   5.654
 7169SOL     OW23106   5.585   3.431   6.437
 7169SOL    HW123107   5.514   3.419   6.367
 7169SOL    HW223108   5.586   3.352   6.497
 7170SOL     OW23109   3.803   3.102   6.239
 7170SOL    HW123110   3.802   3.055   6.327
 7170SOL    HW223111   3.885   3.074   6.188
 7171SOL     OW23112   5.548   2.054   6.813
 7171SOL    HW123113   5.544   1.964   6.857
 7171SOL    HW223114   5.551   2.043   6.714
 7172SOL     OW23115   4.152   2.286   6.106
 7172SOL    HW123116   4.182   2.214   6.044
 7172SOL    HW223117   4.113   2.246   6.189
 7173SOL     OW23118   5.429   3.349   6.690
 7173SOL    HW123119   5.336   3.324   6.663
 7173SOL    HW223120   5.455   3.299   6.772
 7174SOL     OW23121   4.041   2.409   6.866
 7174SOL    HW123122   4.079   2.350   6.938
 7174SOL    HW223123   4.081   2.383   6.778
 7175SOL     OW23124   4.536   3.448   6.273
 7175SOL    HW123125   4.568   3.458   6.179
 7175SOL    HW223126   4.457   3.386   6.275
 7176SOL     OW23127   5.148   2.076   6.698
 7176SOL    HW123128   5.200   2.011   6.753
 7176SOL    HW223129   5.099   2.139   6.759
 7177SOL     OW23130   4.725   1.896   6.740
 7177SOL    HW123131   4.662   1.824   6.709
 7177SOL    HW223132   4.818   1.860   6.740
 7178SOL     OW23133   4.494   3.192   5.887
 7178SOL    HW123134   4.448   3.105   5.904
 7178SOL    HW223135   4.585   3.189   5.928
 7179SOL     OW23136   4.342   3.429   6.870
 7179SOL    HW123137   4.337   3.511   6.927
 7179SOL    HW223138   4.431   3.426   6.825
 7180SOL     OW23139   5.076   1.914   5.754
 7180SOL    HW123140   5.111   1.873   5.670
 7180SOL    HW223141   4.986   1.876   5.774
 7181SOL     OW23142   5.024   2.315   6.277
 7181SOL    HW123143   4.965   2.395   6.281
 7181SOL    HW223144   5.039   2.280   6.370
 7182SOL     OW23145   5.317   2.083   6.468
 7182SOL    HW123146   5.233   2.082   6.522
 7182SOL    HW223147   5.319   2.166   6.412
 7183SOL     OW23148   3.763   2.939   5.886
 7183SOL    HW123149   3.862   2.928   5.877
 7183SOL    HW223150   3.723   2.853   5.918
 7184SOL     OW23151   4.599   3.508   5.923
 7184SOL    HW123152   4.522   3.473   5.869
 7184SOL    HW223153   4.567   3.579   5.985
 7185SOL     OW23154   3.954   4.352   0.113
 7185SOL    HW123155   3.861   4.350   0.150
 7185SOL    HW223156   3.955   4.313   0.021
 7186SOL     OW23157   3.949   3.999   0.996
 7186SOL    HW123158   3.984   3.982   1.088
 7186SOL    HW223159   3.861   3.954   0.984
 7187SOL     OW23160   3.743   4.092   0.647
 7187SOL    HW123161   3.661   4.135   0.686
 7187SOL    HW223162   3.715   4.019   0.584
 7188SOL     OW23163   4.293   4.999   1.165
 7188SOL    HW123164   4.200   4.992   1.128
 7188SOL    HW223165   4.304   5.088   1.209
 7189SOL     OW23166   5.279   5.235   0.703
 7189SOL    HW123167   5.222   5.219   0.784
 7189SOL    HW223168   5.220   5.245   0.623
 7190SOL     OW23169   4.859   4.427   0.717
 7190SOL    HW123170   4.916   4.505   0.692
 7190SOL    HW223171   4.799   4.453   0.793
 7191SOL     OW23172   5.479   4.331   0.231
 7191SOL    HW123173   5.467   4.318   0.132
 7191SOL    HW223174   5.449   4.250   0.280
 7192SOL     OW23175   4.492   4.868   1.023
 7192SOL    HW123176   4.414   4.885   1.083
 7192SOL    HW223177   4.526   4.955   0.987
 7193SOL     OW23178   4.574   4.522   1.823
 7193SOL    HW123179   4.570   4.598   1.888
 7193SOL    HW223180   4.596   4.558   1.732
 7194SOL     OW23181   4.409   4.736   0.665
 7194SOL    HW123182   4.478   4.720   0.735
 7194SOL    HW223183   4.336   4.793   0.703
 7195SOL     OW23184   4.410   4.885   1.803
 7195SOL    HW123185   4.470   4.964   1.817
 7195SOL    HW223186   4.324   4.916   1.762
 7196SOL     OW23187   4.059   5.159   1.061
 7196SOL    HW123188   3.981   5.128   1.008
 7196SOL    HW223189   4.117   5.217   1.004
 7197SOL     OW23190   5.184   5.229   1.339
 7197SOL    HW123191   5.208   5.323   1.365
 7197SOL    HW223192   5.168   5.175   1.421
 7198SOL     OW23193   4.162   4.116   1.499
 7198SOL    HW123194   4.244   4.060   1.508
 7198SOL    HW223195   4.081   4.058   1.503
 7199SOL     OW23196   3.955   5.437   0.483
 7199SOL    HW123197   3.989   5.514   0.537
 7199SOL    HW223198   3.999   5.437   0.393
 7200SOL     OW23199   4.851   5.065   1.690
 7200SOL    HW123200   4.898   5.065   1.778
 7200SOL    HW223201   4.803   4.978   1.679
 7201SOL     OW23202   3.954   5.158   0.538
 7201SOL    HW123203   3.928   5.254   0.538
 7201SOL    HW223204   3.883   5.104   0.583
 7202SOL     OW23205   3.964   4.815   0.886
 7202SOL    HW123206   3.978   4.731   0.938
 7202SOL    HW223207   3.909   4.879   0.941
 7203SOL     OW23208   4.344   5.510   1.439
 7203SOL    HW123209   4.252   5.493   1.474
 7203SOL    HW223210   4.372   5.602   1.465
 7204SOL     OW23211   4.330   4.688   0.123
 7204SOL    HW123212   4.337   4.772   0.069
 7204SOL    HW223213   4.376   4.701   0.211
 7205SOL     OW23214   5.318   3.838   1.480
 7205SOL    HW123215   5.300   3.905   1.408
 7205SOL    HW223216   5.315   3.884   1.569
 7206SOL     OW23217   3.846   4.367   0.563
 7206SOL    HW123218   3.801   4.279   0.580
 7206SOL    HW223219   3.845   4.421   0.647
 7207SOL     OW23220   5.566   5.491   0.359
 7207SOL    HW123221   5.620   5.462   0.439
 7207SOL    HW223222   5.596   5.581   0.330
 7208SOL     OW23223   3.751   5.320   0.117
 7208SOL    HW123224   3.732   5.224   0.138
 7208SOL    HW223225   3.718   5.378   0.192
 7209SOL     OW23226   3.837   4.461   1.597
 7209SOL    HW123227   3.925   4.448   1.642
 7209SOL    HW223228   3.824   4.558   1.575
 7210SOL     OW23229   4.337   5.089   0.726
 7210SOL    HW123230   4.288   5.002   0.735
 7210SOL    HW223231   4.314   5.132   0.639
 7211SOL     OW23232   5.017   4.952   1.423
 7211SOL    HW123233   5.054   4.879   1.365
 7211SOL    HW223234   5.069   4.957   1.508
 7212SOL     OW23235   4.533   3.728   0.502
 7212SOL    HW123236   4.573   3.819   0.493
 7212SOL    HW223237   4.433   3.736   0.508
 7213SOL     OW23238   3.921   4.700   1.264
 7213SOL    HW123239   4.010   4.655   1.250
 7213SOL    HW223240   3.848   4.635   1.245
 7214SOL     OW23241   4.911   5.516   1.616
 7214SOL    HW123242   4.935   5.576   1.540
 7214SOL    HW223243   4.918   5.421   1.586
 7215SOL     OW23244   4.041   3.975   1.801
 7215SOL    HW123245   4.112   4.046   1.807
 7215SOL    HW223246   3.953   4.014   1.829
 7216SOL     OW23247   5.190   5.141   0.953
 7216SOL    HW123248   5.131   5.147   1.033
 7216SOL    HW223249   5.175   5.053   0.907
 7217SOL     OW23250   5.391   5.438   0.572
 7217SOL    HW123251   5.350   5.415   0.484
 7217SOL    HW223252   5.373   5.364   0.637
 7218SOL     OW23253   4.322   4.453   0.270
 7218SOL    HW123254   4.346   4.522   0.202
 7218SOL    HW223255   4.244   4.486   0.324
 7219SOL     OW23256   5.005   4.069   0.944
 7219SOL    HW123257   4.919   4.019   0.931
 7219SOL    HW223258   5.067   4.015   1.000
 7220SOL     OW23259   5.300   5.386   0.307
 7220SOL    HW123260   5.389   5.432   0.310
 7220SOL    HW223261   5.279   5.362   0.212
 7221SOL     OW23262   4.531   4.329   1.465
 7221SOL    HW123263   4.484   4.326   1.554
 7221SOL    HW223264   4.480   4.274   1.399
 7222SOL     OW23265   5.118   4.193   1.674
 7222SOL    HW123266   5.098   4.236   1.762
 7222SOL    HW223267   5.196   4.131   1.683
 7223SOL     OW23268   4.697   4.614   1.572
 7223SOL    HW123269   4.743   4.530   1.543
 7223SOL    HW223270   4.641   4.648   1.497
 7224SOL     OW23271   4.715   4.134   1.242
 7224SOL    HW123272   4.638   4.168   1.296
 7224SOL    HW223273   4.681   4.083   1.163
 7225SOL     OW23274   3.800   4.535   0.789
 7225SOL    HW123275   3.899   4.523   0.798
 7225SOL    HW223276   3.776   4.630   0.810
 7226SOL     OW23277   3.854   5.545   1.571
 7226SOL    HW123278   3.844   5.530   1.670
 7226SOL    HW223279   3.768   5.581   1.535
 7227SOL     OW23280   4.589   4.072   0.195
 7227SOL    HW123281   4.648   4.135   0.146
 7227SOL    HW223282   4.608   3.978   0.166
 7228SOL     OW23283   5.443   4.309   1.831
 7228SOL    HW123284   5.417   4.398   1.795
 7228SOL    HW223285   5.441   4.241   1.758
 7229SOL     OW23286   5.086   4.868   0.545
 7229SOL    HW123287   5.169   4.839   0.497
 7229SOL    HW223288   5.037   4.935   0.489
 7230SOL     OW23289   4.274   3.920   0.885
 7230SOL    HW123290   4.269   3.915   0.985
 7230SOL    HW223291   4.276   4.016   0.856
 7231SOL     OW23292   4.732   5.180   0.477
 7231SOL    HW123293   4.686   5.252   0.425
 7231SOL    HW223294   4.728   5.200   0.575
 7232SOL     OW23295   4.075   5.525   0.853
 7232SOL    HW123296   4.125   5.439   0.859
 7232SOL    HW223297   4.140   5.602   0.850
 7233SOL     OW23298   5.519   4.790   0.873
 7233SOL    HW123299   5.457   4.775   0.797
 7233SOL    HW223300   5.467   4.801   0.958
 7234SOL     OW23301   4.951   5.274   1.506
 7234SOL    HW123302   4.957   5.197   1.570
 7234SOL    HW223303   4.899   5.248   1.426
 7235SOL     OW23304   4.045   4.667   0.242
 7235SOL    HW123305   4.127   4.706   0.200
 7235SOL    HW223306   4.018   4.585   0.193
 7236SOL     OW23307   4.185   4.990   1.727
 7236SOL    HW123308   4.135   4.991   1.641
 7236SOL    HW223309   4.122   4.972   1.803
 7237SOL     OW23310   4.835   5.500   0.237
 7237SOL    HW123311   4.775   5.438   0.287
 7237SOL    HW223312   4.866   5.456   0.152
 7238SOL     OW23313   3.926   4.009   1.498
 7238SOL    HW123314   3.846   4.069   1.485
 7238SOL    HW223315   3.916   3.960   1.584
 7239SOL     OW23316   5.356   5.101   0.081
 7239SOL    HW123317   5.324   5.195   0.071
 7239SOL    HW223318   5.280   5.038   0.069
 7240SOL     OW23319   4.188   5.467   0.323
 7240SOL    HW123320   4.221   5.506   0.409
 7240SOL    HW223321   4.264   5.460   0.258
 7241SOL     OW23322   3.973   5.509   1.241
 7241SOL    HW123323   4.030   5.444   1.291
 7241SOL    HW223324   3.957   5.476   1.148
 7242SOL     OW23325   4.664   5.422   0.904
 7242SOL    HW123326   4.744   5.365   0.925
 7242SOL    HW223327   4.615   5.382   0.827
 7243SOL     OW23328   4.106   4.424   0.480
 7243SOL    HW123329   4.151   4.334   0.477
 7243SOL    HW223330   4.012   4.413   0.513
 7244SOL     OW23331   5.271   3.946   1.729
 7244SOL    HW123332   5.266   3.983   1.821
 7244SOL    HW223333   5.199   3.877   1.717
 7245SOL     OW23334   4.505   3.988   1.749
 7245SOL    HW123335   4.572   3.927   1.792
 7245SOL    HW223336   4.432   4.007   1.814
 7246SOL     OW23337   4.612   5.238   1.195
 7246SOL    HW123338   4.589   5.213   1.101
 7246SOL    HW223339   4.673   5.169   1.234
 7247SOL     OW23340   5.075   4.314   1.433
 7247SOL    HW123341   5.103   4.271   1.518
 7247SOL    HW223342   5.100   4.410   1.434
 7248SOL     OW23343   4.527   5.126   0.924
 7248SOL    HW123344   4.617   5.140   0.882
 7248SOL    HW223345   4.456   5.128   0.853
 7249SOL     OW23346   4.646   4.227   0.899
 7249SOL    HW123347   4.621   4.218   0.803
 7249SOL    HW223348   4.694   4.145   0.930
 7250SOL     OW23349   4.263   3.788   0.512
 7250SOL    HW123350   4.182   3.789   0.570
 7250SOL    HW223351   4.266   3.871   0.457
 7251SOL     OW23352   5.158   4.912   0.041
 7251SOL    HW123353   5.190   4.836   0.098
 7251SOL    HW223354   5.066   4.939   0.071
 7252SOL     OW23355   4.659   3.960   0.480
 7252SOL    HW123356   4.611   4.001   0.402
 7252SOL    HW223357   4.758   3.958   0.461
 7253SOL     OW23358   4.800   4.407   1.464
 7253SOL    HW123359   4.720   4.346   1.467
 7253SOL    HW223360   4.881   4.354   1.440
 7254SOL     OW23361   4.951   5.294   0.793
 7254SOL    HW123362   4.972   5.368   0.728
 7254SOL    HW223363   5.019   5.294   0.866
 7255SOL     OW23364   4.183   4.876   0.741
 7255SOL    HW123365   4.112   4.849   0.806
 7255SOL    HW223366   4.157   4.848   0.648
 7256SOL     OW23367   4.995   5.521   0.591
 7256SOL    HW123368   5.039   5.585   0.527
 7256SOL    HW223369   4.945   5.573   0.661
 7257SOL     OW23370   4.756   4.273   0.016
 7257SOL    HW123371   4.715   4.355  -0.023
 7257SOL    HW223372   4.820   4.299   0.089
 7258SOL     OW23373   3.802   4.280   1.386
 7258SOL    HW123374   3.894   4.279   1.345
 7258SOL    HW223375   3.796   4.354   1.453
 7259SOL     OW23376   4.285   3.946   1.147
 7259SOL    HW123377   4.323   3.862   1.184
 7259SOL    HW223378   4.197   3.965   1.191
 7260SOL     OW23379   4.590   4.178   0.642
 7260SOL    HW123380   4.558   4.250   0.580
 7260SOL    HW223381   4.614   4.097   0.589
 7261SOL     OW23382   4.741   3.763   0.753
 7261SOL    HW123383   4.669   3.768   0.684
 7261SOL    HW223384   4.717   3.694   0.822
 7262SOL     OW23385   5.153   4.897   0.867
 7262SOL    HW123386   5.098   4.813   0.860
 7262SOL    HW223387   5.179   4.926   0.775
 7263SOL     OW23388   5.190   4.314   0.992
 7263SOL    HW123389   5.160   4.219   0.999
 7263SOL    HW223390   5.263   4.330   1.058
 7264SOL     OW23391   4.212   5.109   0.174
 7264SOL    HW123392   4.125   5.094   0.221
 7264SOL    HW223393   4.195   5.135   0.079
 7265SOL     OW23394   5.114   4.299   0.078
 7265SOL    HW123395   5.060   4.278   0.159
 7265SOL    HW223396   5.205   4.258   0.087
 7266SOL     OW23397   4.251   3.980   0.328
 7266SOL    HW123398   4.278   3.921   0.253
 7266SOL    HW223399   4.251   4.075   0.297
 7267SOL     OW23400   5.478   4.947   1.588
 7267SOL    HW123401   5.569   4.908   1.575
 7267SOL    HW223402   5.486   5.043   1.612
 7268SOL     OW23403   4.788   5.071   1.340
 7268SOL    HW123404   4.708   5.048   1.395
 7268SOL    HW223405   4.871   5.045   1.389
 7269SOL     OW23406   5.316   5.353   1.625
 7269SOL    HW123407   5.343   5.387   1.535
 7269SOL    HW223408   5.395   5.315   1.671
 7270SOL     OW23409   4.835   4.919   1.100
 7270SOL    HW123410   4.795   4.963   1.181
 7270SOL    HW223411   4.794   4.956   1.017
 7271SOL     OW23412   5.362   4.823   1.079
 7271SOL    HW123413   5.367   4.904   1.138
 7271SOL    HW223414   5.276   4.825   1.028
 7272SOL     OW23415   4.639   3.813   1.402
 7272SOL    HW123416   4.664   3.793   1.307
 7272SOL    HW223417   4.711   3.869   1.444
 7273SOL     OW23418   4.704   4.840   1.719
 7273SOL    HW123419   4.605   4.846   1.729
 7273SOL    HW223420   4.727   4.760   1.663
 7274SOL     OW23421   4.429   4.774   0.368
 7274SOL    HW123422   4.415   4.781   0.467
 7274SOL    HW223423   4.513   4.723   0.350
 7275SOL     OW23424   4.134   4.537   1.251
 7275SOL    HW123425   4.220   4.549   1.301
 7275SOL    HW223426   4.092   4.450   1.278
 7276SOL     OW23427   4.998   4.110   1.262
 7276SOL    HW123428   5.019   4.184   1.326
 7276SOL    HW223429   4.909   4.127   1.219
 7277SOL     OW23430   3.788   5.288   1.331
 7277SOL    HW123431   3.742   5.370   1.297
 7277SOL    HW223432   3.886   5.307   1.340
 7278SOL     OW23433   4.091   4.824   0.501
 7278SOL    HW123434   4.084   4.907   0.445
 7278SOL    HW223435   4.095   4.744   0.441
 7279SOL     OW23436   4.290   4.261   0.865
 7279SOL    HW123437   4.302   4.327   0.791
 7279SOL    HW223438   4.336   4.295   0.948
 7280SOL     OW23439   4.976   5.072   0.388
 7280SOL    HW123440   5.026   5.149   0.428
 7280SOL    HW223441   4.881   5.074   0.420
 7281SOL     OW23442   4.996   5.169   1.142
 7281SOL    HW123443   5.043   5.182   1.229
 7281SOL    HW223444   4.930   5.095   1.151
 7282SOL     OW23445   4.078   5.234   1.329
 7282SOL    HW123446   4.057   5.190   1.242
 7282SOL    HW223447   4.175   5.260   1.332
 7283SOL     OW23448   4.126   4.475   1.598
 7283SOL    HW123449   4.194   4.530   1.551
 7283SOL    HW223450   4.166   4.387   1.625
 7284SOL     OW23451   5.311   4.503   1.670
 7284SOL    HW123452   5.219   4.541   1.665
 7284SOL    HW223453   5.371   4.550   1.605
 7285SOL     OW23454   4.737   3.829   1.770
 7285SOL    HW123455   4.743   3.914   1.718
 7285SOL    HW223456   4.769   3.753   1.713
 7286SOL     OW23457   4.228   3.774   1.740
 7286SOL    HW123458   4.186   3.717   1.670
 7286SOL    HW223459   4.162   3.843   1.772
 7287SOL     OW23460   4.297   4.594   1.029
 7287SOL    HW123461   4.341   4.683   1.020
 7287SOL    HW223462   4.234   4.594   1.106
 7288SOL     OW23463   5.084   4.586   1.045
 7288SOL    HW123464   5.009   4.586   0.979
 7288SOL    HW223465   5.121   4.494   1.054
 7289SOL     OW23466   4.031   3.937   1.231
 7289SOL    HW123467   4.008   3.974   1.321
 7289SOL    HW223468   4.001   3.842   1.225
 7290SOL     OW23469   3.761   5.034   1.282
 7290SOL    HW123470   3.814   4.985   1.350
 7290SOL    HW223471   3.783   5.132   1.287
 7291SOL     OW23472   4.456   4.358   1.064
 7291SOL    HW123473   4.515   4.332   0.988
 7291SOL    HW223474   4.428   4.454   1.053
 7292SOL     OW23475   5.452   4.659   1.854
 7292SOL    HW123476   5.406   4.652   1.765
 7292SOL    HW223477   5.390   4.703   1.920
 7293SOL     OW23478   4.031   3.787   0.618
 7293SOL    HW123479   4.020   3.881   0.651
 7293SOL    HW223480   4.026   3.724   0.695
 7294SOL     OW23481   5.346   4.091   0.374
 7294SOL    HW123482   5.348   4.015   0.438
 7294SOL    HW223483   5.298   4.168   0.414
 7295SOL     OW23484   4.747   4.490   0.966
 7295SOL    HW123485   4.762   4.511   1.062
 7295SOL    HW223486   4.717   4.395   0.957
 7296SOL     OW23487   4.704   5.297   1.700
 7296SOL    HW123488   4.684   5.341   1.612
 7296SOL    HW223489   4.743   5.206   1.684
 7297SOL     OW23490   5.583   5.242   1.605
 7297SOL    HW123491   5.597   5.269   1.510
 7297SOL    HW223492   5.666   5.264   1.658
 7298SOL     OW23493   4.074   4.622   1.804
 7298SOL    HW123494   4.150   4.666   1.852
 7298SOL    HW223495   4.109   4.575   1.722
 7299SOL     OW23496   5.264   3.998   0.125
 7299SOL    HW123497   5.203   3.923   0.148
 7299SOL    HW223498   5.286   4.050   0.208
 7300SOL     OW23499   5.027   4.562   0.042
 7300SOL    HW123500   5.061   4.469   0.057
 7300SOL    HW223501   5.045   4.589  -0.053
 7301SOL     OW23502   4.792   5.057   0.849
 7301SOL    HW123503   4.799   4.973   0.794
 7301SOL    HW223504   4.854   5.126   0.813
 7302SOL     OW23505   4.043   4.534   0.949
 7302SOL    HW123506   4.136   4.570   0.954
 7302SOL    HW223507   4.037   4.449   1.001
 7303SOL     OW23508   4.063   4.233   1.006
 7303SOL    HW123509   4.011   4.150   0.989
 7303SOL    HW223510   4.140   4.238   0.942
 7304SOL     OW23511   4.862   4.104   1.678
 7304SOL    HW123512   4.817   4.167   1.742
 7304SOL    HW223513   4.955   4.135   1.661
 7305SOL     OW23514   4.884   3.931   1.477
 7305SOL    HW123515   4.884   3.995   1.554
 7305SOL    HW223516   4.912   3.979   1.394
 7306SOL     OW23517   3.812   5.525   0.927
 7306SOL    HW123518   3.770   5.439   0.900
 7306SOL    HW223519   3.906   5.528   0.893
 7307SOL     OW23520   4.228   5.292   0.910
 7307SOL    HW123521   4.294   5.366   0.919
 7307SOL    HW223522   4.272   5.213   0.868
 7308SOL     OW23523   4.726   4.520   1.238
 7308SOL    HW123524   4.767   4.488   1.324
 7308SOL    HW223525   4.630   4.493   1.235
 7309SOL     OW23526   3.764   4.268   1.114
 7309SOL    HW123527   3.849   4.235   1.073
 7309SOL    HW223528   3.777   4.283   1.212
 7310SOL     OW23529   3.913   4.244   1.722
 7310SOL    HW123530   3.972   4.204   1.652
 7310SOL    HW223531   3.855   4.315   1.681
 7311SOL     OW23532   5.093   4.674   1.660
 7311SOL    HW123533   5.132   4.763   1.680
 7311SOL    HW223534   5.103   4.654   1.563
 7312SOL     OW23535   5.381   4.328   1.206
 7312SOL    HW123536   5.343   4.259   1.268
 7312SOL    HW223537   5.463   4.292   1.162
 7313SOL     OW23538   3.976   5.288   1.744
 7313SOL    HW123539   3.946   5.345   1.820
 7313SOL    HW223540   3.969   5.191   1.770
 7314SOL     OW23541   4.395   4.188   1.269
 7314SOL    HW123542   4.361   4.099   1.239
 7314SOL    HW223543   4.421   4.242   1.189
 7315SOL     OW23544   4.654   5.402   1.465
 7315SOL    HW123545   4.630   5.384   1.370
 7315SOL    HW223546   4.684   5.496   1.475
 7316SOL     OW23547   4.197   4.224   0.191
 7316SOL    HW123548   4.258   4.304   0.195
 7316SOL    HW223549   4.102   4.255   0.198
 7317SOL     OW23550   3.883   4.861   1.466
 7317SOL    HW123551   3.905   4.800   1.542
 7317SOL    HW223552   3.893   4.812   1.380
 7318SOL     OW23553   5.071   4.783   1.234
 7318SOL    HW123554   5.095   4.720   1.160
 7318SOL    HW223555   4.981   4.823   1.216
 7319SOL     OW23556   5.483   5.471   1.154
 7319SOL    HW123557   5.544   5.501   1.081
 7319SOL    HW223558   5.445   5.382   1.132
 7320SOL     OW23559   4.976   5.455   1.128
 7320SOL    HW123560   5.060   5.460   1.074
 7320SOL    HW223561   4.953   5.359   1.146
 7321SOL     OW23562   3.807   4.982   1.022
 7321SOL    HW123563   3.802   4.981   1.122
 7321SOL    HW223564   3.724   4.941   0.984
 7322SOL     OW23565   4.412   5.386   1.716
 7322SOL    HW123566   4.356   5.467   1.725
 7322SOL    HW223567   4.464   5.390   1.630
 7323SOL     OW23568   4.627   3.810   0.133
 7323SOL    HW123569   4.678   3.811   0.047
 7323SOL    HW223570   4.683   3.768   0.204
 7324SOL     OW23571   5.450   3.859   0.523
 7324SOL    HW123572   5.523   3.842   0.456
 7324SOL    HW223573   5.419   3.772   0.561
 7325SOL     OW23574   5.112   5.297   0.477
 7325SOL    HW123575   5.179   5.309   0.403
 7325SOL    HW223576   5.072   5.386   0.500
 7326SOL     OW23577   3.854   5.518   1.851
 7326SOL    HW123578   3.813   5.444   1.904
 7326SOL    HW223579   3.918   5.569   1.909
 7327SOL     OW23580   5.004   4.651   0.672
 7327SOL    HW123581   5.064   4.570   0.674
 7327SOL    HW223582   5.044   4.720   0.612
 7328SOL     OW23583   4.554   4.997   1.422
 7328SOL    HW123584   4.549   5.030   1.517
 7328SOL    HW223585   4.468   5.016   1.376
 7329SOL     OW23586   4.396   5.340   0.154
 7329SOL    HW123587   4.405   5.350   0.055
 7329SOL    HW223588   4.356   5.251   0.175
 7330SOL     OW23589   5.374   5.444   1.394
 7330SOL    HW123590   5.427   5.454   1.310
 7330SOL    HW223591   5.347   5.534   1.428
 7331SOL     OW23592   5.565   3.899   0.963
 7331SOL    HW123593   5.604   3.814   0.927
 7331SOL    HW223594   5.467   3.901   0.944
 7332SOL     OW23595   3.987   4.050   0.720
 7332SOL    HW123596   3.908   4.101   0.686
 7332SOL    HW223597   3.978   4.035   0.818
 7333SOL     OW23598   4.918   5.336   0.031
 7333SOL    HW123599   4.924   5.243   0.068
 7333SOL    HW223600   4.859   5.336  -0.049
 7334SOL     OW23601   4.546   4.726   1.372
 7334SOL    HW123602   4.586   4.725   1.280
 7334SOL    HW223603   4.556   4.818   1.412
 7335SOL     OW23604   5.228   5.331   0.044
 7335SOL    HW123605   5.136   5.368   0.051
 7335SOL    HW223606   5.266   5.351  -0.046
 7336SOL     OW23607   4.096   5.012   1.490
 7336SOL    HW123608   4.083   5.105   1.456
 7336SOL    HW223609   4.012   4.960   1.477
 7337SOL     OW23610   5.338   5.016   1.289
 7337SOL    HW123611   5.398   5.019   1.369
 7337SOL    HW223612   5.263   5.080   1.302
 7338SOL     OW23613   4.763   4.822   0.696
 7338SOL    HW123614   4.693   4.775   0.750
 7338SOL    HW223615   4.822   4.754   0.653
 7339SOL     OW23616   4.738   3.960   0.971
 7339SOL    HW123617   4.730   3.924   0.878
 7339SOL    HW223618   4.736   3.884   1.036
 7340SOL     OW23619   4.314   5.211   0.491
 7340SOL    HW123620   4.356   5.153   0.421
 7340SOL    HW223621   4.270   5.290   0.447
 7341SOL     OW23622   5.433   4.109   1.381
 7341SOL    HW123623   5.506   4.178   1.385
 7341SOL    HW223624   5.461   4.034   1.322
 7342SOL     OW23625   3.979   5.072   0.290
 7342SOL    HW123626   3.883   5.073   0.263
 7342SOL    HW223627   3.991   5.125   0.374
 7343SOL     OW23628   3.829   4.737   1.726
 7343SOL    HW123629   3.752   4.704   1.780
 7343SOL    HW223630   3.914   4.707   1.768
 7344SOL     OW23631   4.396   3.927   1.489
 7344SOL    HW123632   4.486   3.911   1.449
 7344SOL    HW223633   4.404   3.932   1.588
 7345SOL     OW23634   3.799   4.069   0.033
 7345SOL    HW123635   3.707   4.041   0.004
 7345SOL    HW223636   3.830   4.146  -0.023
 7346SOL     OW23637   5.164   4.580   1.398
 7346SOL    HW123638   5.107   4.632   1.335
 7346SOL    HW223639   5.260   4.592   1.374
 7347SOL     OW23640   3.796   3.890   0.318
 7347SOL    HW123641   3.779   3.973   0.264
 7347SOL    HW223642   3.886   3.853   0.296
 7348SOL     OW23643   4.907   5.059   0.119
 7348SOL    HW123644   4.808   5.048   0.121
 7348SOL    HW223645   4.941   5.074   0.212
 7349SOL     OW23646   4.337   4.566   1.431
 7349SOL    HW123647   4.393   4.647   1.414
 7349SOL    HW223648   4.396   4.486   1.434
 7350SOL     OW23649   5.217   5.491   0.959
 7350SOL    HW123650   5.250   5.555   0.890
 7350SOL    HW223651   5.283   5.485   1.034
 7351SOL     OW23652   4.440   4.289   1.708
 7351SOL    HW123653   4.459   4.354   1.782
 7351SOL    HW223654   4.500   4.209   1.717
 7352SOL     OW23655   5.174   4.944   1.633
 7352SOL    HW123656   5.165   4.934   1.732
 7352SOL    HW223657   5.270   4.937   1.607
 7353SOL     OW23658   4.114   5.465   1.560
 7353SOL    HW123659   4.023   5.506   1.558
 7353SOL    HW223660   4.107   5.371   1.592
 7354SOL     OW23661   5.398   4.607   1.254
 7354SOL    HW123662   5.371   4.518   1.217
 7354SOL    HW223663   5.399   4.675   1.181
 7355SOL     OW23664   4.949   4.049   0.449
 7355SOL    HW123665   5.014   3.975   0.438
 7355SOL    HW223666   4.969   4.099   0.533
 7356SOL     OW23667   4.318   4.469   0.652
 7356SOL    HW123668   4.368   4.554   0.633
 7356SOL    HW223669   4.230   4.471   0.604
 7357SOL     OW23670   5.501   4.066   1.642
 7357SOL    HW123671   5.484   4.097   1.548
 7357SOL    HW223672   5.417   4.029   1.680
 7358SOL     OW23673   5.454   4.658   1.517
 7358SOL    HW123674   5.492   4.749   1.532
 7358SOL    HW223675   5.446   4.641   1.418
 7359SOL     OW23676   4.583   5.098   0.016
 7359SOL    HW123677   4.537   5.113   0.104
 7359SOL    HW223678   4.627   5.183  -0.014
 7360SOL     OW23679   4.385   5.514   0.953
 7360SOL    HW123680   4.339   5.602   0.940
 7360SOL    HW223681   4.484   5.526   0.946
 7361SOL     OW23682   4.583   4.680   0.861
 7361SOL    HW123683   4.637   4.611   0.909
 7361SOL    HW223684   4.551   4.749   0.927
 7362SOL     OW23685   5.585   5.293   0.851
 7362SOL    HW123686   5.514   5.281   0.781
 7362SOL    HW223687   5.586   5.214   0.911
 7363SOL     OW23688   3.945   5.038   1.844
 7363SOL    HW123689   3.880   4.965   1.823
 7363SOL    HW223690   3.949   5.052   1.942
 7364SOL     OW23691   3.803   4.964   0.653
 7364SOL    HW123692   3.802   4.917   0.741
 7364SOL    HW223693   3.885   4.936   0.602
 7365SOL     OW23694   4.396   5.115   1.624
 7365SOL    HW123695   4.318   5.065   1.662
 7365SOL    HW223696   4.393   5.210   1.655
 7366SOL     OW23697   5.548   3.916   1.227
 7366SOL    HW123698   5.544   3.826   1.271
 7366SOL    HW223699   5.551   3.905   1.128
 7367SOL     OW23700   4.152   4.148   0.520
 7367SOL    HW123701   4.182   4.076   0.458
 7367SOL    HW223702   4.113   4.108   0.603
 7368SOL     OW23703   5.429   5.211   1.104
 7368SOL    HW123704   5.336   5.186   1.077
 7368SOL    HW223705   5.455   5.161   1.186
 7369SOL     OW23706   4.041   4.271   1.280
 7369SOL    HW123707   4.079   4.212   1.352
 7369SOL    HW223708   4.081   4.245   1.192
 7370SOL     OW23709   4.536   5.310   0.687
 7370SOL    HW123710   4.568   5.320   0.593
 7370SOL    HW223711   4.457   5.248   0.689
 7371SOL     OW23712   5.148   3.938   1.112
 7371SOL    HW123713   5.200   3.873   1.167
 7371SOL    HW223714   5.099   4.001   1.173
 7372SOL     OW23715   4.725   3.758   1.154
 7372SOL    HW123716   4.662   3.686   1.123
 7372SOL    HW223717   4.818   3.722   1.154
 7373SOL     OW23718   4.494   5.054   0.301
 7373SOL    HW123719   4.448   4.967   0.318
 7373SOL    HW223720   4.585   5.051   0.342
 7374SOL     OW23721   4.342   5.291   1.284
 7374SOL    HW123722   4.337   5.373   1.341
 7374SOL    HW223723   4.431   5.288   1.239
 7375SOL     OW23724   5.076   3.776   0.168
 7375SOL    HW123725   5.111   3.735   0.084
 7375SOL    HW223726   4.986   3.738   0.188
 7376SOL     OW23727   5.317   3.945   0.882
 7376SOL    HW123728   5.233   3.944   0.936
 7376SOL    HW223729   5.319   4.028   0.826
 7377SOL     OW23730   3.763   4.801   0.300
 7377SOL    HW123731   3.862   4.790   0.291
 7377SOL    HW223732   3.723   4.715   0.332
 7378SOL     OW23733   4.599   5.370   0.337
 7378SOL    HW123734   4.522   5.335   0.283
 7378SOL    HW223735   4.567   5.441   0.399
 7379SOL     OW23736   3.954   4.352   1.975
 7379SOL    HW123737   3.861   4.350   2.012
 7379SOL    HW223738   3.955   4.313   1.883
 7380SOL     OW23739   3.949   3.999   2.858
 7380SOL    HW123740   3.984   3.982   2.950
 7380SOL    HW223741   3.861   3.954   2.846
 7381SOL     OW23742   5.279   5.235   2.565
 7381SOL    HW123743   5.222   5.219   2.646
 7381SOL    HW223744   5.220   5.245   2.485
 7382SOL     OW23745   4.859   4.427   2.579
 7382SOL    HW123746   4.916   4.505   2.554
 7382SOL    HW223747   4.799   4.453   2.655
 7383SOL     OW23748   5.479   4.331   2.093
 7383SOL    HW123749   5.467   4.318   1.994
 7383SOL    HW223750   5.449   4.250   2.142
 7384SOL     OW23751   4.492   4.868   2.885
 7384SOL    HW123752   4.414   4.885   2.945
 7384SOL    HW223753   4.526   4.955   2.849
 7385SOL     OW23754   4.409   4.736   2.527
 7385SOL    HW123755   4.478   4.720   2.597
 7385SOL    HW223756   4.336   4.793   2.565
 7386SOL     OW23757   4.059   5.159   2.923
 7386SOL    HW123758   3.981   5.128   2.870
 7386SOL    HW223759   4.117   5.217   2.866
 7387SOL     OW23760   5.184   5.229   3.201
 7387SOL    HW123761   5.208   5.323   3.227
 7387SOL    HW223762   5.168   5.175   3.283
 7388SOL     OW23763   4.162   4.116   3.361
 7388SOL    HW123764   4.244   4.060   3.370
 7388SOL    HW223765   4.081   4.058   3.365
 7389SOL     OW23766   3.955   5.437   2.345
 7389SOL    HW123767   3.989   5.514   2.399
 7389SOL    HW223768   3.999   5.437   2.255
 7390SOL     OW23769   4.851   5.065   3.552
 7390SOL    HW123770   4.898   5.065   3.640
 7390SOL    HW223771   4.803   4.978   3.541
 7391SOL     OW23772   3.954   5.158   2.400
 7391SOL    HW123773   3.928   5.254   2.400
 7391SOL    HW223774   3.883   5.104   2.445
 7392SOL     OW23775   3.964   4.815   2.748
 7392SOL    HW123776   3.978   4.731   2.800
 7392SOL    HW223777   3.909   4.879   2.803
 7393SOL     OW23778   4.344   5.510   3.301
 7393SOL    HW123779   4.252   5.493   3.336
 7393SOL    HW223780   4.372   5.602   3.327
 7394SOL     OW23781   4.330   4.688   1.985
 7394SOL    HW123782   4.337   4.772   1.931
 7394SOL    HW223783   4.376   4.701   2.073
 7395SOL     OW23784   5.318   3.838   3.342
 7395SOL    HW123785   5.300   3.905   3.270
 7395SOL    HW223786   5.315   3.884   3.431
 7396SOL     OW23787   3.846   4.367   2.425
 7396SOL    HW123788   3.801   4.279   2.442
 7396SOL    HW223789   3.845   4.421   2.509
 7397SOL     OW23790   5.566   5.491   2.221
 7397SOL    HW123791   5.620   5.462   2.301
 7397SOL    HW223792   5.596   5.581   2.192
 7398SOL     OW23793   5.413   4.646   2.474
 7398SOL    HW123794   5.508   4.617   2.482
 7398SOL    HW223795   5.405   4.711   2.399
 7399SOL     OW23796   5.365   4.832   2.294
 7399SOL    HW123797   5.451   4.834   2.242
 7399SOL    HW223798   5.379   4.879   2.382
 7400SOL     OW23799   4.337   5.089   2.588
 7400SOL    HW123800   4.288   5.002   2.597
 7400SOL    HW223801   4.314   5.132   2.501
 7401SOL     OW23802   5.017   4.952   3.285
 7401SOL    HW123803   5.054   4.879   3.227
 7401SOL    HW223804   5.069   4.957   3.370
 7402SOL     OW23805   3.921   4.700   3.126
 7402SOL    HW123806   4.010   4.655   3.112
 7402SOL    HW223807   3.848   4.635   3.107
 7403SOL     OW23808   5.249   4.723   2.052
 7403SOL    HW123809   5.186   4.647   2.065
 7403SOL    HW223810   5.297   4.741   2.138
 7404SOL     OW23811   4.911   5.516   3.478
 7404SOL    HW123812   4.935   5.576   3.402
 7404SOL    HW223813   4.918   5.421   3.448
 7405SOL     OW23814   4.041   3.975   3.663
 7405SOL    HW123815   4.112   4.046   3.669
 7405SOL    HW223816   3.953   4.014   3.691
 7406SOL     OW23817   5.190   5.141   2.815
 7406SOL    HW123818   5.131   5.147   2.895
 7406SOL    HW223819   5.175   5.053   2.769
 7407SOL     OW23820   5.391   5.438   2.434
 7407SOL    HW123821   5.350   5.415   2.346
 7407SOL    HW223822   5.373   5.364   2.499
 7408SOL     OW23823   4.322   4.453   2.132
 7408SOL    HW123824   4.346   4.522   2.064
 7408SOL    HW223825   4.244   4.486   2.186
 7409SOL     OW23826   5.300   5.386   2.169
 7409SOL    HW123827   5.389   5.432   2.172
 7409SOL    HW223828   5.279   5.362   2.074
 7410SOL     OW23829   4.531   4.329   3.327
 7410SOL    HW123830   4.484   4.326   3.416
 7410SOL    HW223831   4.480   4.274   3.261
 7411SOL     OW23832   5.118   4.193   3.536
 7411SOL    HW123833   5.098   4.236   3.624
 7411SOL    HW223834   5.196   4.131   3.545
 7412SOL     OW23835   4.715   4.134   3.104
 7412SOL    HW123836   4.638   4.168   3.158
 7412SOL    HW223837   4.681   4.083   3.025
 7413SOL     OW23838   4.765   4.425   2.291
 7413SOL    HW123839   4.791   4.421   2.387
 7413SOL    HW223840   4.680   4.374   2.277
 7414SOL     OW23841   3.800   4.535   2.651
 7414SOL    HW123842   3.899   4.523   2.660
 7414SOL    HW223843   3.776   4.630   2.672
 7415SOL     OW23844   3.854   5.545   3.433
 7415SOL    HW123845   3.844   5.530   3.532
 7415SOL    HW223846   3.768   5.581   3.397
 7416SOL     OW23847   4.589   4.072   2.057
 7416SOL    HW123848   4.648   4.135   2.008
 7416SOL    HW223849   4.608   3.978   2.028
 7417SOL     OW23850   5.443   4.309   3.693
 7417SOL    HW123851   5.417   4.398   3.657
 7417SOL    HW223852   5.441   4.241   3.620
 7418SOL     OW23853   5.086   4.868   2.407
 7418SOL    HW123854   5.169   4.839   2.359
 7418SOL    HW223855   5.037   4.935   2.351
 7419SOL     OW23856   4.732   5.180   2.339
 7419SOL    HW123857   4.686   5.252   2.287
 7419SOL    HW223858   4.728   5.200   2.437
 7420SOL     OW23859   4.075   5.525   2.715
 7420SOL    HW123860   4.125   5.439   2.721
 7420SOL    HW223861   4.140   5.602   2.712
 7421SOL     OW23862   5.519   4.790   2.735
 7421SOL    HW123863   5.457   4.775   2.659
 7421SOL    HW223864   5.467   4.801   2.820
 7422SOL     OW23865   4.951   5.274   3.368
 7422SOL    HW123866   4.957   5.197   3.432
 7422SOL    HW223867   4.899   5.248   3.288
 7423SOL     OW23868   4.045   4.667   2.104
 7423SOL    HW123869   4.127   4.706   2.062
 7423SOL    HW223870   4.018   4.585   2.055
 7424SOL     OW23871   5.182   4.459   2.590
 7424SOL    HW123872   5.177   4.394   2.665
 7424SOL    HW223873   5.262   4.518   2.603
 7425SOL     OW23874   4.835   5.500   2.099
 7425SOL    HW123875   4.775   5.438   2.149
 7425SOL    HW223876   4.866   5.456   2.014
 7426SOL     OW23877   3.926   4.009   3.360
 7426SOL    HW123878   3.846   4.069   3.347
 7426SOL    HW223879   3.916   3.960   3.446
 7427SOL     OW23880   5.356   5.101   1.943
 7427SOL    HW123881   5.324   5.195   1.933
 7427SOL    HW223882   5.280   5.038   1.931
 7428SOL     OW23883   4.188   5.467   2.185
 7428SOL    HW123884   4.221   5.506   2.271
 7428SOL    HW223885   4.264   5.460   2.120
 7429SOL     OW23886   5.124   3.831   2.288
 7429SOL    HW123887   5.100   3.794   2.198
 7429SOL    HW223888   5.223   3.847   2.292
 7430SOL     OW23889   4.664   5.422   2.766
 7430SOL    HW123890   4.744   5.365   2.787
 7430SOL    HW223891   4.615   5.382   2.689
 7431SOL     OW23892   4.106   4.424   2.342
 7431SOL    HW123893   4.151   4.334   2.339
 7431SOL    HW223894   4.012   4.413   2.375
 7432SOL     OW23895   5.271   3.946   3.591
 7432SOL    HW123896   5.266   3.983   3.683
 7432SOL    HW223897   5.199   3.877   3.579
 7433SOL     OW23898   4.338   3.846   1.979
 7433SOL    HW123899   4.436   3.824   1.986
 7433SOL    HW223900   4.307   3.829   1.886
 7434SOL     OW23901   4.505   3.988   3.611
 7434SOL    HW123902   4.572   3.927   3.654
 7434SOL    HW223903   4.432   4.007   3.676
 7435SOL     OW23904   4.612   5.238   3.057
 7435SOL    HW123905   4.589   5.213   2.963
 7435SOL    HW223906   4.673   5.169   3.096
 7436SOL     OW23907   5.075   4.314   3.295
 7436SOL    HW123908   5.103   4.271   3.380
 7436SOL    HW223909   5.100   4.410   3.296
 7437SOL     OW23910   4.527   5.126   2.786
 7437SOL    HW123911   4.617   5.140   2.744
 7437SOL    HW223912   4.456   5.128   2.715
 7438SOL     OW23913   5.158   4.912   1.903
 7438SOL    HW123914   5.190   4.836   1.960
 7438SOL    HW223915   5.066   4.939   1.933
 7439SOL     OW23916   4.021   3.759   2.033
 7439SOL    HW123917   4.070   3.843   2.012
 7439SOL    HW223918   4.083   3.694   2.078
 7440SOL     OW23919   4.659   3.960   2.342
 7440SOL    HW123920   4.611   4.001   2.264
 7440SOL    HW223921   4.758   3.958   2.323
 7441SOL     OW23922   4.951   5.294   2.655
 7441SOL    HW123923   4.972   5.368   2.590
 7441SOL    HW223924   5.019   5.294   2.728
 7442SOL     OW23925   4.183   4.876   2.603
 7442SOL    HW123926   4.112   4.849   2.668
 7442SOL    HW223927   4.157   4.848   2.510
 7443SOL     OW23928   4.995   5.521   2.453
 7443SOL    HW123929   5.039   5.585   2.389
 7443SOL    HW223930   4.945   5.573   2.523
 7444SOL     OW23931   4.756   4.273   1.878
 7444SOL    HW123932   4.715   4.355   1.839
 7444SOL    HW223933   4.820   4.299   1.951
 7445SOL     OW23934   3.802   4.280   3.248
 7445SOL    HW123935   3.894   4.279   3.207
 7445SOL    HW223936   3.796   4.354   3.315
 7446SOL     OW23937   4.285   3.946   3.009
 7446SOL    HW123938   4.323   3.862   3.046
 7446SOL    HW223939   4.197   3.965   3.053
 7447SOL     OW23940   4.590   4.178   2.504
 7447SOL    HW123941   4.558   4.250   2.442
 7447SOL    HW223942   4.614   4.097   2.451
 7448SOL     OW23943   5.153   4.897   2.729
 7448SOL    HW123944   5.098   4.813   2.722
 7448SOL    HW223945   5.179   4.926   2.637
 7449SOL     OW23946   5.581   4.557   2.239
 7449SOL    HW123947   5.623   4.493   2.303
 7449SOL    HW223948   5.543   4.506   2.161
 7450SOL     OW23949   4.212   5.109   2.036
 7450SOL    HW123950   4.125   5.094   2.083
 7450SOL    HW223951   4.195   5.135   1.941
 7451SOL     OW23952   5.388   5.004   2.519
 7451SOL    HW123953   5.487   5.012   2.533
 7451SOL    HW223954   5.343   5.088   2.550
 7452SOL     OW23955   5.114   4.299   1.940
 7452SOL    HW123956   5.060   4.278   2.021
 7452SOL    HW223957   5.205   4.258   1.949
 7453SOL     OW23958   4.251   3.980   2.190
 7453SOL    HW123959   4.278   3.921   2.115
 7453SOL    HW223960   4.251   4.075   2.159
 7454SOL     OW23961   5.478   4.947   3.450
 7454SOL    HW123962   5.569   4.908   3.437
 7454SOL    HW223963   5.486   5.043   3.474
 7455SOL     OW23964   4.788   5.071   3.202
 7455SOL    HW123965   4.708   5.048   3.257
 7455SOL    HW223966   4.871   5.045   3.251
 7456SOL     OW23967   5.316   5.353   3.487
 7456SOL    HW123968   5.343   5.387   3.397
 7456SOL    HW223969   5.395   5.315   3.533
 7457SOL     OW23970   4.835   4.919   2.962
 7457SOL    HW123971   4.795   4.963   3.043
 7457SOL    HW223972   4.794   4.956   2.879
 7458SOL     OW23973   5.362   4.823   2.941
 7458SOL    HW123974   5.367   4.904   3.000
 7458SOL    HW223975   5.276   4.825   2.890
 7459SOL     OW23976   4.639   3.813   3.264
 7459SOL    HW123977   4.664   3.793   3.169
 7459SOL    HW223978   4.711   3.869   3.306
 7460SOL     OW23979   4.704   4.840   3.581
 7460SOL    HW123980   4.605   4.846   3.591
 7460SOL    HW223981   4.727   4.760   3.525
 7461SOL     OW23982   4.429   4.774   2.230
 7461SOL    HW123983   4.415   4.781   2.329
 7461SOL    HW223984   4.513   4.723   2.212
 7462SOL     OW23985   4.998   4.110   3.124
 7462SOL    HW123986   5.019   4.184   3.188
 7462SOL    HW223987   4.909   4.127   3.081
 7463SOL     OW23988   3.788   5.288   3.193
 7463SOL    HW123989   3.742   5.370   3.159
 7463SOL    HW223990   3.886   5.307   3.202
 7464SOL     OW23991   4.091   4.824   2.363
 7464SOL    HW123992   4.084   4.907   2.307
 7464SOL    HW223993   4.095   4.744   2.303
 7465SOL     OW23994   4.976   5.072   2.250
 7465SOL    HW123995   5.026   5.149   2.290
 7465SOL    HW223996   4.881   5.074   2.282
 7466SOL     OW23997   4.996   5.169   3.004
 7466SOL    HW123998   5.043   5.182   3.091
 7466SOL    HW223999   4.930   5.095   3.013
 7467SOL     OW24000   5.306   4.363   2.334
 7467SOL    HW124001   5.275   4.424   2.407
 7467SOL    HW224002   5.356   4.415   2.265
 7468SOL     OW24003   5.311   4.503   3.532
 7468SOL    HW124004   5.219   4.541   3.527
 7468SOL    HW224005   5.371   4.550   3.467
 7469SOL     OW24006   4.737   3.829   3.632
 7469SOL    HW124007   4.743   3.914   3.580
 7469SOL    HW224008   4.769   3.753   3.575
 7470SOL     OW24009   4.228   3.774   3.602
 7470SOL    HW124010   4.186   3.717   3.532
 7470SOL    HW224011   4.162   3.843   3.634
 7471SOL     OW24012   4.297   4.594   2.891
 7471SOL    HW124013   4.341   4.683   2.882
 7471SOL    HW224014   4.234   4.594   2.968
 7472SOL     OW24015   5.084   4.586   2.907
 7472SOL    HW124016   5.009   4.586   2.841
 7472SOL    HW224017   5.121   4.494   2.916
 7473SOL     OW24018   4.933   4.249   2.137
 7473SOL    HW124019   4.946   4.165   2.191
 7473SOL    HW224020   4.904   4.323   2.197
 7474SOL     OW24021   4.031   3.937   3.093
 7474SOL    HW124022   4.008   3.974   3.183
 7474SOL    HW224023   4.001   3.842   3.087
 7475SOL     OW24024   3.761   5.034   3.144
 7475SOL    HW124025   3.814   4.985   3.212
 7475SOL    HW224026   3.783   5.132   3.149
 7476SOL     OW24027   5.452   4.659   3.716
 7476SOL    HW124028   5.406   4.652   3.627
 7476SOL    HW224029   5.390   4.703   3.782
 7477SOL     OW24030   5.346   4.091   2.236
 7477SOL    HW124031   5.348   4.015   2.300
 7477SOL    HW224032   5.298   4.168   2.276
 7478SOL     OW24033   4.704   5.297   3.562
 7478SOL    HW124034   4.684   5.341   3.474
 7478SOL    HW224035   4.743   5.206   3.546
 7479SOL     OW24036   5.583   5.242   3.467
 7479SOL    HW124037   5.597   5.269   3.372
 7479SOL    HW224038   5.666   5.264   3.520
 7480SOL     OW24039   5.264   3.998   1.987
 7480SOL    HW124040   5.203   3.923   2.010
 7480SOL    HW224041   5.286   4.050   2.070
 7481SOL     OW24042   5.027   4.562   1.904
 7481SOL    HW124043   5.061   4.469   1.919
 7481SOL    HW224044   5.045   4.589   1.809
 7482SOL     OW24045   4.792   5.057   2.711
 7482SOL    HW124046   4.799   4.973   2.656
 7482SOL    HW224047   4.854   5.126   2.675
 7483SOL     OW24048   4.862   4.104   3.540
 7483SOL    HW124049   4.817   4.167   3.604
 7483SOL    HW224050   4.955   4.135   3.523
 7484SOL     OW24051   4.884   3.931   3.339
 7484SOL    HW124052   4.884   3.995   3.416
 7484SOL    HW224053   4.912   3.979   3.256
 7485SOL     OW24054   3.812   5.525   2.789
 7485SOL    HW124055   3.770   5.439   2.762
 7485SOL    HW224056   3.906   5.528   2.755
 7486SOL     OW24057   4.228   5.292   2.772
 7486SOL    HW124058   4.294   5.366   2.781
 7486SOL    HW224059   4.272   5.213   2.730
 7487SOL     OW24060   3.913   4.244   3.584
 7487SOL    HW124061   3.972   4.204   3.514
 7487SOL    HW224062   3.855   4.315   3.543
 7488SOL     OW24063   4.539   4.296   2.187
 7488SOL    HW124064   4.546   4.207   2.141
 7488SOL    HW224065   4.445   4.330   2.179
 7489SOL     OW24066   5.381   4.328   3.068
 7489SOL    HW124067   5.343   4.259   3.130
 7489SOL    HW224068   5.463   4.292   3.024
 7490SOL     OW24069   4.395   4.188   3.131
 7490SOL    HW124070   4.361   4.099   3.101
 7490SOL    HW224071   4.421   4.242   3.051
 7491SOL     OW24072   4.654   5.402   3.327
 7491SOL    HW124073   4.630   5.384   3.232
 7491SOL    HW224074   4.684   5.496   3.337
 7492SOL     OW24075   4.197   4.224   2.053
 7492SOL    HW124076   4.258   4.304   2.057
 7492SOL    HW224077   4.102   4.255   2.060
 7493SOL     OW24078   3.883   4.861   3.328
 7493SOL    HW124079   3.905   4.800   3.404
 7493SOL    HW224080   3.893   4.812   3.242
 7494SOL     OW24081   5.071   4.783   3.096
 7494SOL    HW124082   5.095   4.720   3.022
 7494SOL    HW224083   4.981   4.823   3.078
 7495SOL     OW24084   5.026   4.579   2.171
 7495SOL    HW124085   4.940   4.548   2.213
 7495SOL    HW224086   5.022   4.565   2.072
 7496SOL     OW24087   5.483   5.471   3.016
 7496SOL    HW124088   5.544   5.501   2.943
 7496SOL    HW224089   5.445   5.382   2.994
 7497SOL     OW24090   4.976   5.455   2.990
 7497SOL    HW124091   5.060   5.460   2.936
 7497SOL    HW224092   4.953   5.359   3.008
 7498SOL     OW24093   3.807   4.982   2.884
 7498SOL    HW124094   3.802   4.981   2.984
 7498SOL    HW224095   3.724   4.941   2.846
 7499SOL     OW24096   4.412   5.386   3.578
 7499SOL    HW124097   4.356   5.467   3.587
 7499SOL    HW224098   4.464   5.390   3.492
 7500SOL     OW24099   5.450   3.859   2.385
 7500SOL    HW124100   5.523   3.842   2.318
 7500SOL    HW224101   5.419   3.772   2.423
 7501SOL     OW24102   5.112   5.297   2.339
 7501SOL    HW124103   5.179   5.309   2.265
 7501SOL    HW224104   5.072   5.386   2.362
 7502SOL     OW24105   3.854   5.518   3.713
 7502SOL    HW124106   3.813   5.444   3.766
 7502SOL    HW224107   3.918   5.569   3.771
 7503SOL     OW24108   5.004   4.651   2.534
 7503SOL    HW124109   5.064   4.570   2.536
 7503SOL    HW224110   5.044   4.720   2.474
 7504SOL     OW24111   4.396   5.340   2.016
 7504SOL    HW124112   4.405   5.350   1.917
 7504SOL    HW224113   4.356   5.251   2.037
 7505SOL     OW24114   5.374   5.444   3.256
 7505SOL    HW124115   5.427   5.454   3.172
 7505SOL    HW224116   5.347   5.534   3.290
 7506SOL     OW24117   5.565   3.899   2.825
 7506SOL    HW124118   5.604   3.814   2.789
 7506SOL    HW224119   5.467   3.901   2.806
 7507SOL     OW24120   4.918   5.336   1.893
 7507SOL    HW124121   4.924   5.243   1.930
 7507SOL    HW224122   4.859   5.336   1.813
 7508SOL     OW24123   4.546   4.726   3.234
 7508SOL    HW124124   4.586   4.725   3.142
 7508SOL    HW224125   4.556   4.818   3.274
 7509SOL     OW24126   4.640   4.634   2.153
 7509SOL    HW124127   4.703   4.672   2.085
 7509SOL    HW224128   4.680   4.551   2.192
 7510SOL     OW24129   5.228   5.331   1.906
 7510SOL    HW124130   5.136   5.368   1.913
 7510SOL    HW224131   5.266   5.351   1.816
 7511SOL     OW24132   5.338   5.016   3.151
 7511SOL    HW124133   5.398   5.019   3.231
 7511SOL    HW224134   5.263   5.080   3.164
 7512SOL     OW24135   4.763   4.822   2.558
 7512SOL    HW124136   4.693   4.775   2.612
 7512SOL    HW224137   4.822   4.754   2.515
 7513SOL     OW24138   4.738   3.960   2.833
 7513SOL    HW124139   4.730   3.924   2.740
 7513SOL    HW224140   4.736   3.884   2.898
 7514SOL     OW24141   4.314   5.211   2.353
 7514SOL    HW124142   4.356   5.153   2.283
 7514SOL    HW224143   4.270   5.290   2.309
 7515SOL     OW24144   5.433   4.109   3.243
 7515SOL    HW124145   5.506   4.178   3.247
 7515SOL    HW224146   5.461   4.034   3.184
 7516SOL     OW24147   3.979   5.072   2.152
 7516SOL    HW124148   3.883   5.073   2.125
 7516SOL    HW224149   3.991   5.125   2.236
 7517SOL     OW24150   3.829   4.737   3.588
 7517SOL    HW124151   3.752   4.704   3.642
 7517SOL    HW224152   3.914   4.707   3.630
 7518SOL     OW24153   4.396   3.927   3.351
 7518SOL    HW124154   4.486   3.911   3.311
 7518SOL    HW224155   4.404   3.932   3.450
 7519SOL     OW24156   3.799   4.069   1.895
 7519SOL    HW124157   3.707   4.041   1.866
 7519SOL    HW224158   3.830   4.146   1.839
 7520SOL     OW24159   3.796   3.890   2.180
 7520SOL    HW124160   3.779   3.973   2.126
 7520SOL    HW224161   3.886   3.853   2.158
 7521SOL     OW24162   4.907   5.059   1.981
 7521SOL    HW124163   4.808   5.048   1.983
 7521SOL    HW224164   4.941   5.074   2.074
 7522SOL     OW24165   5.217   5.491   2.821
 7522SOL    HW124166   5.250   5.555   2.752
 7522SOL    HW224167   5.283   5.485   2.896
 7523SOL     OW24168   4.440   4.289   3.570
 7523SOL    HW124169   4.459   4.354   3.644
 7523SOL    HW224170   4.500   4.209   3.579
 7524SOL     OW24171   5.174   4.944   3.495
 7524SOL    HW124172   5.165   4.934   3.594
 7524SOL    HW224173   5.270   4.937   3.469
 7525SOL     OW24174   4.114   5.465   3.422
 7525SOL    HW124175   4.023   5.506   3.420
 7525SOL    HW224176   4.107   5.371   3.454
 7526SOL     OW24177   5.398   4.607   3.116
 7526SOL    HW124178   5.371   4.518   3.079
 7526SOL    HW224179   5.399   4.675   3.043
 7527SOL     OW24180   4.949   4.049   2.311
 7527SOL    HW124181   5.014   3.975   2.300
 7527SOL    HW224182   4.969   4.099   2.395
 7528SOL     OW24183   4.318   4.469   2.514
 7528SOL    HW124184   4.368   4.554   2.495
 7528SOL    HW224185   4.230   4.471   2.466
 7529SOL     OW24186   5.501   4.066   3.504
 7529SOL    HW124187   5.484   4.097   3.410
 7529SOL    HW224188   5.417   4.029   3.542
 7530SOL     OW24189   5.454   4.658   3.379
 7530SOL    HW124190   5.492   4.749   3.394
 7530SOL    HW224191   5.446   4.641   3.280
 7531SOL     OW24192   4.583   5.098   1.878
 7531SOL    HW124193   4.537   5.113   1.966
 7531SOL    HW224194   4.627   5.183   1.848
 7532SOL     OW24195   4.385   5.514   2.815
 7532SOL    HW124196   4.339   5.602   2.802
 7532SOL    HW224197   4.484   5.526   2.808
 7533SOL     OW24198   4.583   4.680   2.723
 7533SOL    HW124199   4.637   4.611   2.771
 7533SOL    HW224200   4.551   4.749   2.789
 7534SOL     OW24201   4.807   4.708   1.949
 7534SOL    HW124202   4.784   4.761   1.867
 7534SOL    HW224203   4.888   4.652   1.930
 7535SOL     OW24204   5.585   5.293   2.713
 7535SOL    HW124205   5.514   5.281   2.643
 7535SOL    HW224206   5.586   5.214   2.773
 7536SOL     OW24207   3.945   5.038   3.706
 7536SOL    HW124208   3.880   4.965   3.685
 7536SOL    HW224209   3.949   5.052   3.804
 7537SOL     OW24210   3.803   4.964   2.515
 7537SOL    HW124211   3.802   4.917   2.603
 7537SOL    HW224212   3.885   4.936   2.464
 7538SOL     OW24213   5.548   3.916   3.089
 7538SOL    HW124214   5.544   3.826   3.133
 7538SOL    HW224215   5.551   3.905   2.990
 7539SOL     OW24216   4.152   4.148   2.382
 7539SOL    HW124217   4.182   4.076   2.320
 7539SOL    HW224218   4.113   4.108   2.465
 7540SOL     OW24219   5.429   5.211   2.966
 7540SOL    HW124220   5.336   5.186   2.939
 7540SOL    HW224221   5.455   5.161   3.048
 7541SOL     OW24222   4.041   4.271   3.142
 7541SOL    HW124223   4.079   4.212   3.214
 7541SOL    HW224224   4.081   4.245   3.054
 7542SOL     OW24225   4.536   5.310   2.549
 7542SOL    HW124226   4.568   5.320   2.455
 7542SOL    HW224227   4.457   5.248   2.551
 7543SOL     OW24228   5.148   3.938   2.974
 7543SOL    HW124229   5.200   3.873   3.029
 7543SOL    HW224230   5.099   4.001   3.035
 7544SOL     OW24231   4.725   3.758   3.016
 7544SOL    HW124232   4.662   3.686   2.985
 7544SOL    HW224233   4.818   3.722   3.016
 7545SOL     OW24234   4.494   5.054   2.163
 7545SOL    HW124235   4.448   4.967   2.180
 7545SOL    HW224236   4.585   5.051   2.204
 7546SOL     OW24237   5.076   3.776   2.030
 7546SOL    HW124238   5.111   3.735   1.946
 7546SOL    HW224239   4.986   3.738   2.050
 7547SOL     OW24240   5.317   3.945   2.744
 7547SOL    HW124241   5.233   3.944   2.798
 7547SOL    HW224242   5.319   4.028   2.688
 7548SOL     OW24243   3.763   4.801   2.162
 7548SOL    HW124244   3.862   4.790   2.153
 7548SOL    HW224245   3.723   4.715   2.194
 7549SOL     OW24246   4.599   5.370   2.199
 7549SOL    HW124247   4.522   5.335   2.145
 7549SOL    HW224248   4.567   5.441   2.261
 7550SOL     OW24249   3.949   3.999   4.720
 7550SOL    HW124250   3.984   3.982   4.812
 7550SOL    HW224251   3.861   3.954   4.708
 7551SOL     OW24252   4.293   4.999   4.889
 7551SOL    HW124253   4.200   4.992   4.852
 7551SOL    HW224254   4.304   5.088   4.933
 7552SOL     OW24255   5.279   5.235   4.427
 7552SOL    HW124256   5.222   5.219   4.508
 7552SOL    HW224257   5.220   5.245   4.347
 7553SOL     OW24258   4.859   4.427   4.441
 7553SOL    HW124259   4.916   4.505   4.416
 7553SOL    HW224260   4.799   4.453   4.517
 7554SOL     OW24261   5.479   4.331   3.955
 7554SOL    HW124262   5.467   4.318   3.856
 7554SOL    HW224263   5.449   4.250   4.004
 7555SOL     OW24264   4.492   4.868   4.747
 7555SOL    HW124265   4.414   4.885   4.807
 7555SOL    HW224266   4.526   4.955   4.711
 7556SOL     OW24267   4.574   4.522   5.547
 7556SOL    HW124268   4.570   4.598   5.612
 7556SOL    HW224269   4.596   4.558   5.456
 7557SOL     OW24270   4.409   4.736   4.389
 7557SOL    HW124271   4.478   4.720   4.459
 7557SOL    HW224272   4.336   4.793   4.427
 7558SOL     OW24273   4.410   4.885   5.527
 7558SOL    HW124274   4.470   4.964   5.541
 7558SOL    HW224275   4.324   4.916   5.486
 7559SOL     OW24276   4.059   5.159   4.785
 7559SOL    HW124277   3.981   5.128   4.732
 7559SOL    HW224278   4.117   5.217   4.728
 7560SOL     OW24279   5.184   5.229   5.063
 7560SOL    HW124280   5.208   5.323   5.089
 7560SOL    HW224281   5.168   5.175   5.145
 7561SOL     OW24282   4.162   4.116   5.223
 7561SOL    HW124283   4.244   4.060   5.232
 7561SOL    HW224284   4.081   4.058   5.227
 7562SOL     OW24285   5.327   4.171   4.461
 7562SOL    HW124286   5.253   4.217   4.411
 7562SOL    HW224287   5.378   4.239   4.514
 7563SOL     OW24288   4.851   5.065   5.414
 7563SOL    HW124289   4.898   5.065   5.502
 7563SOL    HW224290   4.803   4.978   5.403
 7564SOL     OW24291   3.964   4.815   4.610
 7564SOL    HW124292   3.978   4.731   4.662
 7564SOL    HW224293   3.909   4.879   4.665
 7565SOL     OW24294   4.344   5.510   5.163
 7565SOL    HW124295   4.252   5.493   5.198
 7565SOL    HW224296   4.372   5.602   5.189
 7566SOL     OW24297   4.330   4.688   3.847
 7566SOL    HW124298   4.337   4.772   3.793
 7566SOL    HW224299   4.376   4.701   3.935
 7567SOL     OW24300   5.318   3.838   5.204
 7567SOL    HW124301   5.300   3.905   5.132
 7567SOL    HW224302   5.315   3.884   5.293
 7568SOL     OW24303   5.566   5.491   4.083
 7568SOL    HW124304   5.620   5.462   4.163
 7568SOL    HW224305   5.596   5.581   4.054
 7569SOL     OW24306   3.751   5.320   3.841
 7569SOL    HW124307   3.732   5.224   3.862
 7569SOL    HW224308   3.718   5.378   3.916
 7570SOL     OW24309   5.413   4.646   4.336
 7570SOL    HW124310   5.508   4.617   4.344
 7570SOL    HW224311   5.405   4.711   4.261
 7571SOL     OW24312   5.365   4.832   4.156
 7571SOL    HW124313   5.451   4.834   4.104
 7571SOL    HW224314   5.379   4.879   4.244
 7572SOL     OW24315   3.837   4.461   5.321
 7572SOL    HW124316   3.925   4.448   5.366
 7572SOL    HW224317   3.824   4.558   5.299
 7573SOL     OW24318   5.017   4.952   5.147
 7573SOL    HW124319   5.054   4.879   5.089
 7573SOL    HW224320   5.069   4.957   5.232
 7574SOL     OW24321   4.533   3.728   4.226
 7574SOL    HW124322   4.573   3.819   4.217
 7574SOL    HW224323   4.433   3.736   4.232
 7575SOL     OW24324   3.921   4.700   4.988
 7575SOL    HW124325   4.010   4.655   4.974
 7575SOL    HW224326   3.848   4.635   4.969
 7576SOL     OW24327   5.249   4.723   3.914
 7576SOL    HW124328   5.186   4.647   3.927
 7576SOL    HW224329   5.297   4.741   4.000
 7577SOL     OW24330   4.911   5.516   5.340
 7577SOL    HW124331   4.935   5.576   5.264
 7577SOL    HW224332   4.918   5.421   5.310
 7578SOL     OW24333   4.041   3.975   5.525
 7578SOL    HW124334   4.112   4.046   5.531
 7578SOL    HW224335   3.953   4.014   5.553
 7579SOL     OW24336   5.190   5.141   4.677
 7579SOL    HW124337   5.131   5.147   4.757
 7579SOL    HW224338   5.175   5.053   4.631
 7580SOL     OW24339   5.391   5.438   4.296
 7580SOL    HW124340   5.350   5.415   4.208
 7580SOL    HW224341   5.373   5.364   4.361
 7581SOL     OW24342   5.005   4.069   4.668
 7581SOL    HW124343   4.919   4.019   4.655
 7581SOL    HW224344   5.067   4.015   4.724
 7582SOL     OW24345   5.300   5.386   4.031
 7582SOL    HW124346   5.389   5.432   4.034
 7582SOL    HW224347   5.279   5.362   3.936
 7583SOL     OW24348   4.531   4.329   5.189
 7583SOL    HW124349   4.484   4.326   5.278
 7583SOL    HW224350   4.480   4.274   5.123
 7584SOL     OW24351   5.118   4.193   5.398
 7584SOL    HW124352   5.098   4.236   5.486
 7584SOL    HW224353   5.196   4.131   5.407
 7585SOL     OW24354   4.697   4.614   5.296
 7585SOL    HW124355   4.743   4.530   5.267
 7585SOL    HW224356   4.641   4.648   5.221
 7586SOL     OW24357   4.715   4.134   4.966
 7586SOL    HW124358   4.638   4.168   5.020
 7586SOL    HW224359   4.681   4.083   4.887
 7587SOL     OW24360   3.800   4.535   4.513
 7587SOL    HW124361   3.899   4.523   4.522
 7587SOL    HW224362   3.776   4.630   4.534
 7588SOL     OW24363   3.854   5.545   5.295
 7588SOL    HW124364   3.844   5.530   5.394
 7588SOL    HW224365   3.768   5.581   5.259
 7589SOL     OW24366   4.589   4.072   3.919
 7589SOL    HW124367   4.648   4.135   3.870
 7589SOL    HW224368   4.608   3.978   3.890
 7590SOL     OW24369   5.443   4.309   5.555
 7590SOL    HW124370   5.417   4.398   5.519
 7590SOL    HW224371   5.441   4.241   5.482
 7591SOL     OW24372   5.086   4.868   4.269
 7591SOL    HW124373   5.169   4.839   4.221
 7591SOL    HW224374   5.037   4.935   4.213
 7592SOL     OW24375   5.519   4.790   4.597
 7592SOL    HW124376   5.457   4.775   4.521
 7592SOL    HW224377   5.467   4.801   4.682
 7593SOL     OW24378   4.951   5.274   5.230
 7593SOL    HW124379   4.957   5.197   5.294
 7593SOL    HW224380   4.899   5.248   5.150
 7594SOL     OW24381   5.182   4.459   4.452
 7594SOL    HW124382   5.177   4.394   4.527
 7594SOL    HW224383   5.262   4.518   4.465
 7595SOL     OW24384   4.185   4.990   5.451
 7595SOL    HW124385   4.135   4.991   5.365
 7595SOL    HW224386   4.122   4.972   5.527
 7596SOL     OW24387   4.835   5.500   3.961
 7596SOL    HW124388   4.775   5.438   4.011
 7596SOL    HW224389   4.866   5.456   3.876
 7597SOL     OW24390   3.926   4.009   5.222
 7597SOL    HW124391   3.846   4.069   5.209
 7597SOL    HW224392   3.916   3.960   5.308
 7598SOL     OW24393   5.356   5.101   3.805
 7598SOL    HW124394   5.324   5.195   3.795
 7598SOL    HW224395   5.280   5.038   3.793
 7599SOL     OW24396   5.124   3.831   4.150
 7599SOL    HW124397   5.100   3.794   4.060
 7599SOL    HW224398   5.223   3.847   4.154
 7600SOL     OW24399   3.973   5.509   4.965
 7600SOL    HW124400   4.030   5.444   5.015
 7600SOL    HW224401   3.957   5.476   4.872
 7601SOL     OW24402   5.271   3.946   5.453
 7601SOL    HW124403   5.266   3.983   5.545
 7601SOL    HW224404   5.199   3.877   5.441
 7602SOL     OW24405   4.338   3.846   3.841
 7602SOL    HW124406   4.436   3.824   3.848
 7602SOL    HW224407   4.307   3.829   3.748
 7603SOL     OW24408   4.505   3.988   5.473
 7603SOL    HW124409   4.572   3.927   5.516
 7603SOL    HW224410   4.432   4.007   5.538
 7604SOL     OW24411   4.612   5.238   4.919
 7604SOL    HW124412   4.589   5.213   4.825
 7604SOL    HW224413   4.673   5.169   4.958
 7605SOL     OW24414   5.075   4.314   5.157
 7605SOL    HW124415   5.103   4.271   5.242
 7605SOL    HW224416   5.100   4.410   5.158
 7606SOL     OW24417   4.527   5.126   4.648
 7606SOL    HW124418   4.617   5.140   4.606
 7606SOL    HW224419   4.456   5.128   4.577
 7607SOL     OW24420   4.646   4.227   4.623
 7607SOL    HW124421   4.621   4.218   4.527
 7607SOL    HW224422   4.694   4.145   4.654
 7608SOL     OW24423   4.263   3.788   4.236
 7608SOL    HW124424   4.182   3.789   4.294
 7608SOL    HW224425   4.266   3.871   4.181
 7609SOL     OW24426   5.158   4.912   3.765
 7609SOL    HW124427   5.190   4.836   3.822
 7609SOL    HW224428   5.066   4.939   3.795
 7610SOL     OW24429   4.021   3.759   3.895
 7610SOL    HW124430   4.070   3.843   3.874
 7610SOL    HW224431   4.083   3.694   3.940
 7611SOL     OW24432   4.659   3.960   4.204
 7611SOL    HW124433   4.611   4.001   4.126
 7611SOL    HW224434   4.758   3.958   4.185
 7612SOL     OW24435   4.800   4.407   5.188
 7612SOL    HW124436   4.720   4.346   5.191
 7612SOL    HW224437   4.881   4.354   5.164
 7613SOL     OW24438   4.951   5.294   4.517
 7613SOL    HW124439   4.972   5.368   4.452
 7613SOL    HW224440   5.019   5.294   4.590
 7614SOL     OW24441   4.183   4.876   4.465
 7614SOL    HW124442   4.112   4.849   4.530
 7614SOL    HW224443   4.157   4.848   4.372
 7615SOL     OW24444   4.995   5.521   4.315
 7615SOL    HW124445   5.039   5.585   4.251
 7615SOL    HW224446   4.945   5.573   4.385
 7616SOL     OW24447   4.756   4.273   3.740
 7616SOL    HW124448   4.715   4.355   3.701
 7616SOL    HW224449   4.820   4.299   3.813
 7617SOL     OW24450   3.802   4.280   5.110
 7617SOL    HW124451   3.894   4.279   5.069
 7617SOL    HW224452   3.796   4.354   5.177
 7618SOL     OW24453   4.285   3.946   4.871
 7618SOL    HW124454   4.323   3.862   4.908
 7618SOL    HW224455   4.197   3.965   4.915
 7619SOL     OW24456   5.153   4.897   4.591
 7619SOL    HW124457   5.098   4.813   4.584
 7619SOL    HW224458   5.179   4.926   4.499
 7620SOL     OW24459   5.190   4.314   4.716
 7620SOL    HW124460   5.160   4.219   4.723
 7620SOL    HW224461   5.263   4.330   4.782
 7621SOL     OW24462   5.581   4.557   4.101
 7621SOL    HW124463   5.623   4.493   4.165
 7621SOL    HW224464   5.543   4.506   4.023
 7622SOL     OW24465   5.388   5.004   4.381
 7622SOL    HW124466   5.487   5.012   4.395
 7622SOL    HW224467   5.343   5.088   4.412
 7623SOL     OW24468   5.114   4.299   3.802
 7623SOL    HW124469   5.060   4.278   3.883
 7623SOL    HW224470   5.205   4.258   3.811
 7624SOL     OW24471   4.251   3.980   4.052
 7624SOL    HW124472   4.278   3.921   3.977
 7624SOL    HW224473   4.251   4.075   4.021
 7625SOL     OW24474   5.478   4.947   5.312
 7625SOL    HW124475   5.569   4.908   5.299
 7625SOL    HW224476   5.486   5.043   5.336
 7626SOL     OW24477   4.788   5.071   5.064
 7626SOL    HW124478   4.708   5.048   5.119
 7626SOL    HW224479   4.871   5.045   5.113
 7627SOL     OW24480   5.316   5.353   5.349
 7627SOL    HW124481   5.343   5.387   5.259
 7627SOL    HW224482   5.395   5.315   5.395
 7628SOL     OW24483   4.835   4.919   4.824
 7628SOL    HW124484   4.795   4.963   4.905
 7628SOL    HW224485   4.794   4.956   4.741
 7629SOL     OW24486   5.362   4.823   4.803
 7629SOL    HW124487   5.367   4.904   4.862
 7629SOL    HW224488   5.276   4.825   4.752
 7630SOL     OW24489   4.639   3.813   5.126
 7630SOL    HW124490   4.664   3.793   5.031
 7630SOL    HW224491   4.711   3.869   5.168
 7631SOL     OW24492   4.704   4.840   5.443
 7631SOL    HW124493   4.605   4.846   5.453
 7631SOL    HW224494   4.727   4.760   5.387
 7632SOL     OW24495   4.429   4.774   4.092
 7632SOL    HW124496   4.415   4.781   4.191
 7632SOL    HW224497   4.513   4.723   4.074
 7633SOL     OW24498   4.134   4.537   4.975
 7633SOL    HW124499   4.220   4.549   5.025
 7633SOL    HW224500   4.092   4.450   5.002
 7634SOL     OW24501   4.998   4.110   4.986
 7634SOL    HW124502   5.019   4.184   5.050
 7634SOL    HW224503   4.909   4.127   4.943
 7635SOL     OW24504   3.788   5.288   5.055
 7635SOL    HW124505   3.742   5.370   5.021
 7635SOL    HW224506   3.886   5.307   5.064
 7636SOL     OW24507   4.091   4.824   4.225
 7636SOL    HW124508   4.084   4.907   4.169
 7636SOL    HW224509   4.095   4.744   4.165
 7637SOL     OW24510   4.290   4.261   4.589
 7637SOL    HW124511   4.302   4.327   4.515
 7637SOL    HW224512   4.336   4.295   4.672
 7638SOL     OW24513   4.976   5.072   4.112
 7638SOL    HW124514   5.026   5.149   4.152
 7638SOL    HW224515   4.881   5.074   4.144
 7639SOL     OW24516   4.996   5.169   4.866
 7639SOL    HW124517   5.043   5.182   4.953
 7639SOL    HW224518   4.930   5.095   4.875
 7640SOL     OW24519   4.078   5.234   5.053
 7640SOL    HW124520   4.057   5.190   4.966
 7640SOL    HW224521   4.175   5.260   5.056
 7641SOL     OW24522   4.126   4.475   5.322
 7641SOL    HW124523   4.194   4.530   5.275
 7641SOL    HW224524   4.166   4.387   5.349
 7642SOL     OW24525   5.311   4.503   5.394
 7642SOL    HW124526   5.219   4.541   5.389
 7642SOL    HW224527   5.371   4.550   5.329
 7643SOL     OW24528   4.737   3.829   5.494
 7643SOL    HW124529   4.743   3.914   5.442
 7643SOL    HW224530   4.769   3.753   5.437
 7644SOL     OW24531   4.228   3.774   5.464
 7644SOL    HW124532   4.186   3.717   5.394
 7644SOL    HW224533   4.162   3.843   5.496
 7645SOL     OW24534   4.297   4.594   4.753
 7645SOL    HW124535   4.341   4.683   4.744
 7645SOL    HW224536   4.234   4.594   4.830
 7646SOL     OW24537   5.084   4.586   4.769
 7646SOL    HW124538   5.009   4.586   4.703
 7646SOL    HW224539   5.121   4.494   4.778
 7647SOL     OW24540   4.031   3.937   4.955
 7647SOL    HW124541   4.008   3.974   5.045
 7647SOL    HW224542   4.001   3.842   4.949
 7648SOL     OW24543   3.761   5.034   5.006
 7648SOL    HW124544   3.814   4.985   5.074
 7648SOL    HW224545   3.783   5.132   5.011
 7649SOL     OW24546   4.456   4.358   4.788
 7649SOL    HW124547   4.515   4.332   4.712
 7649SOL    HW224548   4.428   4.454   4.777
 7650SOL     OW24549   5.346   4.091   4.098
 7650SOL    HW124550   5.348   4.015   4.162
 7650SOL    HW224551   5.298   4.168   4.138
 7651SOL     OW24552   4.747   4.490   4.690
 7651SOL    HW124553   4.762   4.511   4.786
 7651SOL    HW224554   4.717   4.395   4.681
 7652SOL     OW24555   4.704   5.297   5.424
 7652SOL    HW124556   4.684   5.341   5.336
 7652SOL    HW224557   4.743   5.206   5.408
 7653SOL     OW24558   5.583   5.242   5.329
 7653SOL    HW124559   5.597   5.269   5.234
 7653SOL    HW224560   5.666   5.264   5.382
 7654SOL     OW24561   4.074   4.622   5.528
 7654SOL    HW124562   4.150   4.666   5.576
 7654SOL    HW224563   4.109   4.575   5.446
 7655SOL     OW24564   5.264   3.998   3.849
 7655SOL    HW124565   5.203   3.923   3.872
 7655SOL    HW224566   5.286   4.050   3.932
 7656SOL     OW24567   4.792   5.057   4.573
 7656SOL    HW124568   4.799   4.973   4.518
 7656SOL    HW224569   4.854   5.126   4.537
 7657SOL     OW24570   4.043   4.534   4.673
 7657SOL    HW124571   4.136   4.570   4.678
 7657SOL    HW224572   4.037   4.449   4.725
 7658SOL     OW24573   4.063   4.233   4.730
 7658SOL    HW124574   4.011   4.150   4.713
 7658SOL    HW224575   4.140   4.238   4.666
 7659SOL     OW24576   4.862   4.104   5.402
 7659SOL    HW124577   4.817   4.167   5.466
 7659SOL    HW224578   4.955   4.135   5.385
 7660SOL     OW24579   4.884   3.931   5.201
 7660SOL    HW124580   4.884   3.995   5.278
 7660SOL    HW224581   4.912   3.979   5.118
 7661SOL     OW24582   3.732   5.050   3.924
 7661SOL    HW124583   3.639   5.071   3.893
 7661SOL    HW224584   3.742   4.951   3.937
 7662SOL     OW24585   3.812   5.525   4.651
 7662SOL    HW124586   3.770   5.439   4.624
 7662SOL    HW224587   3.906   5.528   4.617
 7663SOL     OW24588   4.228   5.292   4.634
 7663SOL    HW124589   4.294   5.366   4.643
 7663SOL    HW224590   4.272   5.213   4.592
 7664SOL     OW24591   4.726   4.520   4.962
 7664SOL    HW124592   4.767   4.488   5.048
 7664SOL    HW224593   4.630   4.493   4.959
 7665SOL     OW24594   3.764   4.268   4.838
 7665SOL    HW124595   3.849   4.235   4.797
 7665SOL    HW224596   3.777   4.283   4.936
 7666SOL     OW24597   3.913   4.244   5.446
 7666SOL    HW124598   3.972   4.204   5.376
 7666SOL    HW224599   3.855   4.315   5.405
 7667SOL     OW24600   5.093   4.674   5.384
 7667SOL    HW124601   5.132   4.763   5.404
 7667SOL    HW224602   5.103   4.654   5.287
 7668SOL     OW24603   5.381   4.328   4.930
 7668SOL    HW124604   5.343   4.259   4.992
 7668SOL    HW224605   5.463   4.292   4.886
 7669SOL     OW24606   3.976   5.288   5.468
 7669SOL    HW124607   3.946   5.345   5.544
 7669SOL    HW224608   3.969   5.191   5.494
 7670SOL     OW24609   4.395   4.188   4.993
 7670SOL    HW124610   4.361   4.099   4.963
 7670SOL    HW224611   4.421   4.242   4.913
 7671SOL     OW24612   4.654   5.402   5.189
 7671SOL    HW124613   4.630   5.384   5.094
 7671SOL    HW224614   4.684   5.496   5.199
 7672SOL     OW24615   4.197   4.224   3.915
 7672SOL    HW124616   4.258   4.304   3.919
 7672SOL    HW224617   4.102   4.255   3.922
 7673SOL     OW24618   3.883   4.861   5.190
 7673SOL    HW124619   3.905   4.800   5.266
 7673SOL    HW224620   3.893   4.812   5.104
 7674SOL     OW24621   5.071   4.783   4.958
 7674SOL    HW124622   5.095   4.720   4.884
 7674SOL    HW224623   4.981   4.823   4.940
 7675SOL     OW24624   5.483   5.471   4.878
 7675SOL    HW124625   5.544   5.501   4.805
 7675SOL    HW224626   5.445   5.382   4.856
 7676SOL     OW24627   4.976   5.455   4.852
 7676SOL    HW124628   5.060   5.460   4.798
 7676SOL    HW224629   4.953   5.359   4.870
 7677SOL     OW24630   3.807   4.982   4.746
 7677SOL    HW124631   3.802   4.981   4.846
 7677SOL    HW224632   3.724   4.941   4.708
 7678SOL     OW24633   4.412   5.386   5.440
 7678SOL    HW124634   4.356   5.467   5.449
 7678SOL    HW224635   4.464   5.390   5.354
 7679SOL     OW24636   5.450   3.859   4.247
 7679SOL    HW124637   5.523   3.842   4.180
 7679SOL    HW224638   5.419   3.772   4.285
 7680SOL     OW24639   5.112   5.297   4.201
 7680SOL    HW124640   5.179   5.309   4.127
 7680SOL    HW224641   5.072   5.386   4.224
 7681SOL     OW24642   3.854   5.518   5.575
 7681SOL    HW124643   3.813   5.444   5.628
 7681SOL    HW224644   3.918   5.569   5.633
 7682SOL     OW24645   5.004   4.651   4.396
 7682SOL    HW124646   5.064   4.570   4.398
 7682SOL    HW224647   5.044   4.720   4.336
 7683SOL     OW24648   4.554   4.997   5.146
 7683SOL    HW124649   4.549   5.030   5.241
 7683SOL    HW224650   4.468   5.016   5.100
 7684SOL     OW24651   5.374   5.444   5.118
 7684SOL    HW124652   5.427   5.454   5.034
 7684SOL    HW224653   5.347   5.534   5.152
 7685SOL     OW24654   5.565   3.899   4.687
 7685SOL    HW124655   5.604   3.814   4.651
 7685SOL    HW224656   5.467   3.901   4.668
 7686SOL     OW24657   4.918   5.336   3.755
 7686SOL    HW124658   4.924   5.243   3.792
 7686SOL    HW224659   4.859   5.336   3.675
 7687SOL     OW24660   4.546   4.726   5.096
 7687SOL    HW124661   4.586   4.725   5.004
 7687SOL    HW224662   4.556   4.818   5.136
 7688SOL     OW24663   5.228   5.331   3.768
 7688SOL    HW124664   5.136   5.368   3.775
 7688SOL    HW224665   5.266   5.351   3.678
 7689SOL     OW24666   4.096   5.012   5.214
 7689SOL    HW124667   4.083   5.105   5.180
 7689SOL    HW224668   4.012   4.960   5.201
 7690SOL     OW24669   5.338   5.016   5.013
 7690SOL    HW124670   5.398   5.019   5.093
 7690SOL    HW224671   5.263   5.080   5.026
 7691SOL     OW24672   4.763   4.822   4.420
 7691SOL    HW124673   4.693   4.775   4.474
 7691SOL    HW224674   4.822   4.754   4.377
 7692SOL     OW24675   5.433   4.109   5.105
 7692SOL    HW124676   5.506   4.178   5.109
 7692SOL    HW224677   5.461   4.034   5.046
 7693SOL     OW24678   3.979   5.072   4.014
 7693SOL    HW124679   3.883   5.073   3.987
 7693SOL    HW224680   3.991   5.125   4.098
 7694SOL     OW24681   3.829   4.737   5.450
 7694SOL    HW124682   3.752   4.704   5.504
 7694SOL    HW224683   3.914   4.707   5.492
 7695SOL     OW24684   4.396   3.927   5.213
 7695SOL    HW124685   4.486   3.911   5.173
 7695SOL    HW224686   4.404   3.932   5.312
 7696SOL     OW24687   3.799   4.069   3.757
 7696SOL    HW124688   3.707   4.041   3.728
 7696SOL    HW224689   3.830   4.146   3.701
 7697SOL     OW24690   5.164   4.580   5.122
 7697SOL    HW124691   5.107   4.632   5.059
 7697SOL    HW224692   5.260   4.592   5.098
 7698SOL     OW24693   3.796   3.890   4.042
 7698SOL    HW124694   3.779   3.973   3.988
 7698SOL    HW224695   3.886   3.853   4.020
 7699SOL     OW24696   4.907   5.059   3.843
 7699SOL    HW124697   4.808   5.048   3.845
 7699SOL    HW224698   4.941   5.074   3.936
 7700SOL     OW24699   4.337   4.566   5.155
 7700SOL    HW124700   4.393   4.647   5.138
 7700SOL    HW224701   4.396   4.486   5.158
 7701SOL     OW24702   5.217   5.491   4.683
 7701SOL    HW124703   5.250   5.555   4.614
 7701SOL    HW224704   5.283   5.485   4.758
 7702SOL     OW24705   4.440   4.289   5.432
 7702SOL    HW124706   4.459   4.354   5.506
 7702SOL    HW224707   4.500   4.209   5.441
 7703SOL     OW24708   5.174   4.944   5.357
 7703SOL    HW124709   5.165   4.934   5.456
 7703SOL    HW224710   5.270   4.937   5.331
 7704SOL     OW24711   4.114   5.465   5.284
 7704SOL    HW124712   4.023   5.506   5.282
 7704SOL    HW224713   4.107   5.371   5.316
 7705SOL     OW24714   5.398   4.607   4.978
 7705SOL    HW124715   5.371   4.518   4.941
 7705SOL    HW224716   5.399   4.675   4.905
 7706SOL     OW24717   4.318   4.469   4.376
 7706SOL    HW124718   4.368   4.554   4.357
 7706SOL    HW224719   4.230   4.471   4.328
 7707SOL     OW24720   5.501   4.066   5.366
 7707SOL    HW124721   5.484   4.097   5.272
 7707SOL    HW224722   5.417   4.029   5.404
 7708SOL     OW24723   5.454   4.658   5.241
 7708SOL    HW124724   5.492   4.749   5.256
 7708SOL    HW224725   5.446   4.641   5.142
 7709SOL     OW24726   4.385   5.514   4.677
 7709SOL    HW124727   4.339   5.602   4.664
 7709SOL    HW224728   4.484   5.526   4.670
 7710SOL     OW24729   4.583   4.680   4.585
 7710SOL    HW124730   4.637   4.611   4.633
 7710SOL    HW224731   4.551   4.749   4.651
 7711SOL     OW24732   4.807   4.708   3.811
 7711SOL    HW124733   4.784   4.761   3.729
 7711SOL    HW224734   4.888   4.652   3.792
 7712SOL     OW24735   5.585   5.293   4.575
 7712SOL    HW124736   5.514   5.281   4.505
 7712SOL    HW224737   5.586   5.214   4.635
 7713SOL     OW24738   3.945   5.038   5.568
 7713SOL    HW124739   3.880   4.965   5.547
 7713SOL    HW224740   3.949   5.052   5.666
 7714SOL     OW24741   3.803   4.964   4.377
 7714SOL    HW124742   3.802   4.917   4.465
 7714SOL    HW224743   3.885   4.936   4.326
 7715SOL     OW24744   4.396   5.115   5.348
 7715SOL    HW124745   4.318   5.065   5.386
 7715SOL    HW224746   4.393   5.210   5.379
 7716SOL     OW24747   5.548   3.916   4.951
 7716SOL    HW124748   5.544   3.826   4.995
 7716SOL    HW224749   5.551   3.905   4.852
 7717SOL     OW24750   5.429   5.211   4.828
 7717SOL    HW124751   5.336   5.186   4.801
 7717SOL    HW224752   5.455   5.161   4.910
 7718SOL     OW24753   4.041   4.271   5.004
 7718SOL    HW124754   4.079   4.212   5.076
 7718SOL    HW224755   4.081   4.245   4.916
 7719SOL     OW24756   5.148   3.938   4.836
 7719SOL    HW124757   5.200   3.873   4.891
 7719SOL    HW224758   5.099   4.001   4.897
 7720SOL     OW24759   4.725   3.758   4.878
 7720SOL    HW124760   4.662   3.686   4.847
 7720SOL    HW224761   4.818   3.722   4.878
 7721SOL     OW24762   4.342   5.291   5.008
 7721SOL    HW124763   4.337   5.373   5.065
 7721SOL    HW224764   4.431   5.288   4.963
 7722SOL     OW24765   5.076   3.776   3.892
 7722SOL    HW124766   5.111   3.735   3.808
 7722SOL    HW224767   4.986   3.738   3.912
 7723SOL     OW24768   5.317   3.945   4.606
 7723SOL    HW124769   5.233   3.944   4.660
 7723SOL    HW224770   5.319   4.028   4.550
 7724SOL     OW24771   3.763   4.801   4.024
 7724SOL    HW124772   3.862   4.790   4.015
 7724SOL    HW224773   3.723   4.715   4.056
 7725SOL     OW24774   3.954   4.352   5.699
 7725SOL    HW124775   3.861   4.350   5.736
 7725SOL    HW224776   3.955   4.313   5.607
 7726SOL     OW24777   3.949   3.999   6.582
 7726SOL    HW124778   3.984   3.982   6.674
 7726SOL    HW224779   3.861   3.954   6.570
 7727SOL     OW24780   3.743   4.092   6.233
 7727SOL    HW124781   3.661   4.135   6.272
 7727SOL    HW224782   3.715   4.019   6.170
 7728SOL     OW24783   4.293   4.999   6.751
 7728SOL    HW124784   4.200   4.992   6.714
 7728SOL    HW224785   4.304   5.088   6.795
 7729SOL     OW24786   5.279   5.235   6.289
 7729SOL    HW124787   5.222   5.219   6.370
 7729SOL    HW224788   5.220   5.245   6.209
 7730SOL     OW24789   4.859   4.427   6.303
 7730SOL    HW124790   4.916   4.505   6.278
 7730SOL    HW224791   4.799   4.453   6.379
 7731SOL     OW24792   5.479   4.331   5.817
 7731SOL    HW124793   5.467   4.318   5.718
 7731SOL    HW224794   5.449   4.250   5.866
 7732SOL     OW24795   4.492   4.868   6.609
 7732SOL    HW124796   4.414   4.885   6.669
 7732SOL    HW224797   4.526   4.955   6.573
 7733SOL     OW24798   4.409   4.736   6.251
 7733SOL    HW124799   4.478   4.720   6.321
 7733SOL    HW224800   4.336   4.793   6.289
 7734SOL     OW24801   4.059   5.159   6.647
 7734SOL    HW124802   3.981   5.128   6.594
 7734SOL    HW224803   4.117   5.217   6.590
 7735SOL     OW24804   3.955   5.437   6.069
 7735SOL    HW124805   3.989   5.514   6.123
 7735SOL    HW224806   3.999   5.437   5.979
 7736SOL     OW24807   3.954   5.158   6.124
 7736SOL    HW124808   3.928   5.254   6.124
 7736SOL    HW224809   3.883   5.104   6.169
 7737SOL     OW24810   3.964   4.815   6.472
 7737SOL    HW124811   3.978   4.731   6.524
 7737SOL    HW224812   3.909   4.879   6.527
 7738SOL     OW24813   4.344   5.510   7.025
 7738SOL    HW124814   4.252   5.493   7.060
 7738SOL    HW224815   4.372   5.602   7.051
 7739SOL     OW24816   4.330   4.688   5.709
 7739SOL    HW124817   4.337   4.772   5.655
 7739SOL    HW224818   4.376   4.701   5.797
 7740SOL     OW24819   3.846   4.367   6.149
 7740SOL    HW124820   3.801   4.279   6.166
 7740SOL    HW224821   3.845   4.421   6.233
 7741SOL     OW24822   5.566   5.491   5.945
 7741SOL    HW124823   5.620   5.462   6.025
 7741SOL    HW224824   5.596   5.581   5.916
 7742SOL     OW24825   3.751   5.320   5.703
 7742SOL    HW124826   3.732   5.224   5.724
 7742SOL    HW224827   3.718   5.378   5.778
 7743SOL     OW24828   4.337   5.089   6.312
 7743SOL    HW124829   4.288   5.002   6.321
 7743SOL    HW224830   4.314   5.132   6.225
 7744SOL     OW24831   4.533   3.728   6.088
 7744SOL    HW124832   4.573   3.819   6.079
 7744SOL    HW224833   4.433   3.736   6.094
 7745SOL     OW24834   3.921   4.700   6.850
 7745SOL    HW124835   4.010   4.655   6.836
 7745SOL    HW224836   3.848   4.635   6.831
 7746SOL     OW24837   5.190   5.141   6.539
 7746SOL    HW124838   5.131   5.147   6.619
 7746SOL    HW224839   5.175   5.053   6.493
 7747SOL     OW24840   5.391   5.438   6.158
 7747SOL    HW124841   5.350   5.415   6.070
 7747SOL    HW224842   5.373   5.364   6.223
 7748SOL     OW24843   4.322   4.453   5.856
 7748SOL    HW124844   4.346   4.522   5.788
 7748SOL    HW224845   4.244   4.486   5.910
 7749SOL     OW24846   5.300   5.386   5.893
 7749SOL    HW124847   5.389   5.432   5.896
 7749SOL    HW224848   5.279   5.362   5.798
 7750SOL     OW24849   4.531   4.329   7.051
 7750SOL    HW124850   4.484   4.326   7.140
 7750SOL    HW224851   4.480   4.274   6.985
 7751SOL     OW24852   4.715   4.134   6.828
 7751SOL    HW124853   4.638   4.168   6.882
 7751SOL    HW224854   4.681   4.083   6.749
 7752SOL     OW24855   4.765   4.425   6.015
 7752SOL    HW124856   4.791   4.421   6.111
 7752SOL    HW224857   4.680   4.374   6.001
 7753SOL     OW24858   3.800   4.535   6.375
 7753SOL    HW124859   3.899   4.523   6.384
 7753SOL    HW224860   3.776   4.630   6.396
 7754SOL     OW24861   3.854   5.545   7.157
 7754SOL    HW124862   3.844   5.530   7.256
 7754SOL    HW224863   3.768   5.581   7.121
 7755SOL     OW24864   4.589   4.072   5.781
 7755SOL    HW124865   4.648   4.135   5.732
 7755SOL    HW224866   4.608   3.978   5.752
 7756SOL     OW24867   5.086   4.868   6.131
 7756SOL    HW124868   5.169   4.839   6.083
 7756SOL    HW224869   5.037   4.935   6.075
 7757SOL     OW24870   4.274   3.920   6.471
 7757SOL    HW124871   4.269   3.915   6.571
 7757SOL    HW224872   4.276   4.016   6.442
 7758SOL     OW24873   4.732   5.180   6.063
 7758SOL    HW124874   4.686   5.252   6.011
 7758SOL    HW224875   4.728   5.200   6.161
 7759SOL     OW24876   4.075   5.525   6.439
 7759SOL    HW124877   4.125   5.439   6.445
 7759SOL    HW224878   4.140   5.602   6.436
 7760SOL     OW24879   5.519   4.790   6.459
 7760SOL    HW124880   5.457   4.775   6.383
 7760SOL    HW224881   5.467   4.801   6.544
 7761SOL     OW24882   4.045   4.667   5.828
 7761SOL    HW124883   4.127   4.706   5.786
 7761SOL    HW224884   4.018   4.585   5.779
 7762SOL     OW24885   4.835   5.500   5.823
 7762SOL    HW124886   4.775   5.438   5.873
 7762SOL    HW224887   4.866   5.456   5.738
 7763SOL     OW24888   5.356   5.101   5.667
 7763SOL    HW124889   5.324   5.195   5.657
 7763SOL    HW224890   5.280   5.038   5.655
 7764SOL     OW24891   4.188   5.467   5.909
 7764SOL    HW124892   4.221   5.506   5.995
 7764SOL    HW224893   4.264   5.460   5.844
 7765SOL     OW24894   5.124   3.831   6.012
 7765SOL    HW124895   5.100   3.794   5.922
 7765SOL    HW224896   5.223   3.847   6.016
 7766SOL     OW24897   3.973   5.509   6.827
 7766SOL    HW124898   4.030   5.444   6.877
 7766SOL    HW224899   3.957   5.476   6.734
 7767SOL     OW24900   4.664   5.422   6.490
 7767SOL    HW124901   4.744   5.365   6.511
 7767SOL    HW224902   4.615   5.382   6.413
 7768SOL     OW24903   4.106   4.424   6.066
 7768SOL    HW124904   4.151   4.334   6.063
 7768SOL    HW224905   4.012   4.413   6.099
 7769SOL     OW24906   4.338   3.846   5.703
 7769SOL    HW124907   4.436   3.824   5.710
 7769SOL    HW224908   4.307   3.829   5.610
 7770SOL     OW24909   4.612   5.238   6.781
 7770SOL    HW124910   4.589   5.213   6.687
 7770SOL    HW224911   4.673   5.169   6.820
 7771SOL     OW24912   4.527   5.126   6.510
 7771SOL    HW124913   4.617   5.140   6.468
 7771SOL    HW224914   4.456   5.128   6.439
 7772SOL     OW24915   4.646   4.227   6.485
 7772SOL    HW124916   4.621   4.218   6.389
 7772SOL    HW224917   4.694   4.145   6.516
 7773SOL     OW24918   4.263   3.788   6.098
 7773SOL    HW124919   4.182   3.789   6.156
 7773SOL    HW224920   4.266   3.871   6.043
 7774SOL     OW24921   5.158   4.912   5.627
 7774SOL    HW124922   5.190   4.836   5.684
 7774SOL    HW224923   5.066   4.939   5.657
 7775SOL     OW24924   4.021   3.759   5.757
 7775SOL    HW124925   4.070   3.843   5.736
 7775SOL    HW224926   4.083   3.694   5.802
 7776SOL     OW24927   4.659   3.960   6.066
 7776SOL    HW124928   4.611   4.001   5.988
 7776SOL    HW224929   4.758   3.958   6.047
 7777SOL     OW24930   4.951   5.294   6.379
 7777SOL    HW124931   4.972   5.368   6.314
 7777SOL    HW224932   5.019   5.294   6.452
 7778SOL     OW24933   4.183   4.876   6.327
 7778SOL    HW124934   4.112   4.849   6.392
 7778SOL    HW224935   4.157   4.848   6.234
 7779SOL     OW24936   4.995   5.521   6.177
 7779SOL    HW124937   5.039   5.585   6.113
 7779SOL    HW224938   4.945   5.573   6.247
 7780SOL     OW24939   4.756   4.273   5.602
 7780SOL    HW124940   4.715   4.355   5.563
 7780SOL    HW224941   4.820   4.299   5.675
 7781SOL     OW24942   4.285   3.946   6.733
 7781SOL    HW124943   4.323   3.862   6.770
 7781SOL    HW224944   4.197   3.965   6.777
 7782SOL     OW24945   4.590   4.178   6.228
 7782SOL    HW124946   4.558   4.250   6.166
 7782SOL    HW224947   4.614   4.097   6.175
 7783SOL     OW24948   4.741   3.763   6.339
 7783SOL    HW124949   4.669   3.768   6.270
 7783SOL    HW224950   4.717   3.694   6.408
 7784SOL     OW24951   5.153   4.897   6.453
 7784SOL    HW124952   5.098   4.813   6.446
 7784SOL    HW224953   5.179   4.926   6.361
 7785SOL     OW24954   4.212   5.109   5.760
 7785SOL    HW124955   4.125   5.094   5.807
 7785SOL    HW224956   4.195   5.135   5.665
 7786SOL     OW24957   5.388   5.004   6.243
 7786SOL    HW124958   5.487   5.012   6.257
 7786SOL    HW224959   5.343   5.088   6.274
 7787SOL     OW24960   5.114   4.299   5.664
 7787SOL    HW124961   5.060   4.278   5.745
 7787SOL    HW224962   5.205   4.258   5.673
 7788SOL     OW24963   4.251   3.980   5.914
 7788SOL    HW124964   4.278   3.921   5.839
 7788SOL    HW224965   4.251   4.075   5.883
 7789SOL     OW24966   5.478   4.947   7.174
 7789SOL    HW124967   5.569   4.908   7.161
 7789SOL    HW224968   5.486   5.043   7.198
 7790SOL     OW24969   4.835   4.919   6.686
 7790SOL    HW124970   4.795   4.963   6.767
 7790SOL    HW224971   4.794   4.956   6.603
 7791SOL     OW24972   5.362   4.823   6.665
 7791SOL    HW124973   5.367   4.904   6.724
 7791SOL    HW224974   5.276   4.825   6.614
 7792SOL     OW24975   4.429   4.774   5.954
 7792SOL    HW124976   4.415   4.781   6.053
 7792SOL    HW224977   4.513   4.723   5.936
 7793SOL     OW24978   4.134   4.537   6.837
 7793SOL    HW124979   4.220   4.549   6.887
 7793SOL    HW224980   4.092   4.450   6.864
 7794SOL     OW24981   4.998   4.110   6.848
 7794SOL    HW124982   5.019   4.184   6.912
 7794SOL    HW224983   4.909   4.127   6.805
 7795SOL     OW24984   3.788   5.288   6.917
 7795SOL    HW124985   3.742   5.370   6.883
 7795SOL    HW224986   3.886   5.307   6.926
 7796SOL     OW24987   4.091   4.824   6.087
 7796SOL    HW124988   4.084   4.907   6.031
 7796SOL    HW224989   4.095   4.744   6.027
 7797SOL     OW24990   4.290   4.261   6.451
 7797SOL    HW124991   4.302   4.327   6.377
 7797SOL    HW224992   4.336   4.295   6.534
 7798SOL     OW24993   4.976   5.072   5.974
 7798SOL    HW124994   5.026   5.149   6.014
 7798SOL    HW224995   4.881   5.074   6.006
 7799SOL     OW24996   4.996   5.169   6.728
 7799SOL    HW124997   5.043   5.182   6.815
 7799SOL    HW224998   4.930   5.095   6.737
 7800SOL     OW24999   4.078   5.234   6.915
 7800SOL    HW125000   4.057   5.190   6.828
 7800SOL    HW225001   4.175   5.260   6.918
 7801SOL     OW25002   4.297   4.594   6.615
 7801SOL    HW125003   4.341   4.683   6.606
 7801SOL    HW225004   4.234   4.594   6.692
 7802SOL     OW25005   5.084   4.586   6.631
 7802SOL    HW125006   5.009   4.586   6.565
 7802SOL    HW225007   5.121   4.494   6.640
 7803SOL     OW25008   4.933   4.249   5.861
 7803SOL    HW125009   4.946   4.165   5.915
 7803SOL    HW225010   4.904   4.323   5.921
 7804SOL     OW25011   4.031   3.937   6.817
 7804SOL    HW125012   4.008   3.974   6.907
 7804SOL    HW225013   4.001   3.842   6.811
 7805SOL     OW25014   3.761   5.034   6.868
 7805SOL    HW125015   3.814   4.985   6.936
 7805SOL    HW225016   3.783   5.132   6.873
 7806SOL     OW25017   4.456   4.358   6.650
 7806SOL    HW125018   4.515   4.332   6.574
 7806SOL    HW225019   4.428   4.454   6.639
 7807SOL     OW25020   4.031   3.787   6.204
 7807SOL    HW125021   4.020   3.881   6.237
 7807SOL    HW225022   4.026   3.724   6.281
 7808SOL     OW25023   5.346   4.091   5.960
 7808SOL    HW125024   5.348   4.015   6.024
 7808SOL    HW225025   5.298   4.168   6.000
 7809SOL     OW25026   4.747   4.490   6.552
 7809SOL    HW125027   4.762   4.511   6.648
 7809SOL    HW225028   4.717   4.395   6.543
 7810SOL     OW25029   5.264   3.998   5.711
 7810SOL    HW125030   5.203   3.923   5.734
 7810SOL    HW225031   5.286   4.050   5.794
 7811SOL     OW25032   5.027   4.562   5.628
 7811SOL    HW125033   5.061   4.469   5.643
 7811SOL    HW225034   5.045   4.589   5.533
 7812SOL     OW25035   4.792   5.057   6.435
 7812SOL    HW125036   4.799   4.973   6.380
 7812SOL    HW225037   4.854   5.126   6.399
 7813SOL     OW25038   4.043   4.534   6.535
 7813SOL    HW125039   4.136   4.570   6.540
 7813SOL    HW225040   4.037   4.449   6.587
 7814SOL     OW25041   4.063   4.233   6.592
 7814SOL    HW125042   4.011   4.150   6.575
 7814SOL    HW225043   4.140   4.238   6.528
 7815SOL     OW25044   4.884   3.931   7.063
 7815SOL    HW125045   4.884   3.995   7.140
 7815SOL    HW225046   4.912   3.979   6.980
 7816SOL     OW25047   3.732   5.050   5.786
 7816SOL    HW125048   3.639   5.071   5.755
 7816SOL    HW225049   3.742   4.951   5.799
 7817SOL     OW25050   3.812   5.525   6.513
 7817SOL    HW125051   3.770   5.439   6.486
 7817SOL    HW225052   3.906   5.528   6.479
 7818SOL     OW25053   4.228   5.292   6.496
 7818SOL    HW125054   4.294   5.366   6.505
 7818SOL    HW225055   4.272   5.213   6.454
 7819SOL     OW25056   4.726   4.520   6.824
 7819SOL    HW125057   4.767   4.488   6.910
 7819SOL    HW225058   4.630   4.493   6.821
 7820SOL     OW25059   3.764   4.268   6.700
 7820SOL    HW125060   3.849   4.235   6.659
 7820SOL    HW225061   3.777   4.283   6.798
 7821SOL     OW25062   4.539   4.296   5.911
 7821SOL    HW125063   4.546   4.207   5.865
 7821SOL    HW225064   4.445   4.330   5.903
 7822SOL     OW25065   5.381   4.328   6.792
 7822SOL    HW125066   5.343   4.259   6.854
 7822SOL    HW225067   5.463   4.292   6.748
 7823SOL     OW25068   4.395   4.188   6.855
 7823SOL    HW125069   4.361   4.099   6.825
 7823SOL    HW225070   4.421   4.242   6.775
 7824SOL     OW25071   4.654   5.402   7.051
 7824SOL    HW125072   4.630   5.384   6.956
 7824SOL    HW225073   4.684   5.496   7.061
 7825SOL     OW25074   4.197   4.224   5.777
 7825SOL    HW125075   4.258   4.304   5.781
 7825SOL    HW225076   4.102   4.255   5.784
 7826SOL     OW25077   3.883   4.861   7.052
 7826SOL    HW125078   3.905   4.800   7.128
 7826SOL    HW225079   3.893   4.812   6.966
 7827SOL     OW25080   5.071   4.783   6.820
 7827SOL    HW125081   5.095   4.720   6.746
 7827SOL    HW225082   4.981   4.823   6.802
 7828SOL     OW25083   5.026   4.579   5.895
 7828SOL    HW125084   4.940   4.548   5.937
 7828SOL    HW225085   5.022   4.565   5.796
 7829SOL     OW25086   5.483   5.471   6.740
 7829SOL    HW125087   5.544   5.501   6.667
 7829SOL    HW225088   5.445   5.382   6.718
 7830SOL     OW25089   4.976   5.455   6.714
 7830SOL    HW125090   5.060   5.460   6.660
 7830SOL    HW225091   4.953   5.359   6.732
 7831SOL     OW25092   3.807   4.982   6.608
 7831SOL    HW125093   3.802   4.981   6.708
 7831SOL    HW225094   3.724   4.941   6.570
 7832SOL     OW25095   5.450   3.859   6.109
 7832SOL    HW125096   5.523   3.842   6.042
 7832SOL    HW225097   5.419   3.772   6.147
 7833SOL     OW25098   5.112   5.297   6.063
 7833SOL    HW125099   5.179   5.309   5.989
 7833SOL    HW225100   5.072   5.386   6.086
 7834SOL     OW25101   5.004   4.651   6.258
 7834SOL    HW125102   5.064   4.570   6.260
 7834SOL    HW225103   5.044   4.720   6.198
 7835SOL     OW25104   4.396   5.340   5.740
 7835SOL    HW125105   4.405   5.350   5.641
 7835SOL    HW225106   4.356   5.251   5.761
 7836SOL     OW25107   5.565   3.899   6.549
 7836SOL    HW125108   5.604   3.814   6.513
 7836SOL    HW225109   5.467   3.901   6.530
 7837SOL     OW25110   3.987   4.050   6.306
 7837SOL    HW125111   3.908   4.101   6.272
 7837SOL    HW225112   3.978   4.035   6.404
 7838SOL     OW25113   4.918   5.336   5.617
 7838SOL    HW125114   4.924   5.243   5.654
 7838SOL    HW225115   4.859   5.336   5.537
 7839SOL     OW25116   4.546   4.726   6.958
 7839SOL    HW125117   4.586   4.725   6.866
 7839SOL    HW225118   4.556   4.818   6.998
 7840SOL     OW25119   4.640   4.634   5.877
 7840SOL    HW125120   4.703   4.672   5.809
 7840SOL    HW225121   4.680   4.551   5.916
 7841SOL     OW25122   5.228   5.331   5.630
 7841SOL    HW125123   5.136   5.368   5.637
 7841SOL    HW225124   5.266   5.351   5.540
 7842SOL     OW25125   5.338   5.016   6.875
 7842SOL    HW125126   5.398   5.019   6.955
 7842SOL    HW225127   5.263   5.080   6.888
 7843SOL     OW25128   4.763   4.822   6.282
 7843SOL    HW125129   4.693   4.775   6.336
 7843SOL    HW225130   4.822   4.754   6.239
 7844SOL     OW25131   4.738   3.960   6.557
 7844SOL    HW125132   4.730   3.924   6.464
 7844SOL    HW225133   4.736   3.884   6.622
 7845SOL     OW25134   4.314   5.211   6.077
 7845SOL    HW125135   4.356   5.153   6.007
 7845SOL    HW225136   4.270   5.290   6.033
 7846SOL     OW25137   5.433   4.109   6.967
 7846SOL    HW125138   5.506   4.178   6.971
 7846SOL    HW225139   5.461   4.034   6.908
 7847SOL     OW25140   3.979   5.072   5.876
 7847SOL    HW125141   3.883   5.073   5.849
 7847SOL    HW225142   3.991   5.125   5.960
 7848SOL     OW25143   4.396   3.927   7.075
 7848SOL    HW125144   4.486   3.911   7.035
 7848SOL    HW225145   4.404   3.932   7.174
 7849SOL     OW25146   3.799   4.069   5.619
 7849SOL    HW125147   3.707   4.041   5.590
 7849SOL    HW225148   3.830   4.146   5.563
 7850SOL     OW25149   3.796   3.890   5.904
 7850SOL    HW125150   3.779   3.973   5.850
 7850SOL    HW225151   3.886   3.853   5.882
 7851SOL     OW25152   4.907   5.059   5.705
 7851SOL    HW125153   4.808   5.048   5.707
 7851SOL    HW225154   4.941   5.074   5.798
 7852SOL     OW25155   5.217   5.491   6.545
 7852SOL    HW125156   5.250   5.555   6.476
 7852SOL    HW225157   5.283   5.485   6.620
 7853SOL     OW25158   5.174   4.944   7.219
 7853SOL    HW125159   5.165   4.934   7.318
 7853SOL    HW225160   5.270   4.937   7.193
 7854SOL     OW25161   4.114   5.465   7.146
 7854SOL    HW125162   4.023   5.506   7.144
 7854SOL    HW225163   4.107   5.371   7.178
 7855SOL     OW25164   5.398   4.607   6.840
 7855SOL    HW125165   5.371   4.518   6.803
 7855SOL    HW225166   5.399   4.675   6.767
 7856SOL     OW25167   4.318   4.469   6.238
 7856SOL    HW125168   4.368   4.554   6.219
 7856SOL    HW225169   4.230   4.471   6.190
 7857SOL     OW25170   5.454   4.658   7.103
 7857SOL    HW125171   5.492   4.749   7.118
 7857SOL    HW225172   5.446   4.641   7.004
 7858SOL     OW25173   4.583   5.098   5.602
 7858SOL    HW125174   4.537   5.113   5.690
 7858SOL    HW225175   4.627   5.183   5.572
 7859SOL     OW25176   4.385   5.514   6.539
 7859SOL    HW125177   4.339   5.602   6.526
 7859SOL    HW225178   4.484   5.526   6.532
 7860SOL     OW25179   4.583   4.680   6.447
 7860SOL    HW125180   4.637   4.611   6.495
 7860SOL    HW225181   4.551   4.749   6.513
 7861SOL     OW25182   4.807   4.708   5.673
 7861SOL    HW125183   4.784   4.761   5.591
 7861SOL    HW225184   4.888   4.652   5.654
 7862SOL     OW25185   5.585   5.293   6.437
 7862SOL    HW125186   5.514   5.281   6.367
 7862SOL    HW225187   5.586   5.214   6.497
 7863SOL     OW25188   3.803   4.964   6.239
 7863SOL    HW125189   3.802   4.917   6.327
 7863SOL    HW225190   3.885   4.936   6.188
 7864SOL     OW25191   5.548   3.916   6.813
 7864SOL    HW125192   5.544   3.826   6.857
 7864SOL    HW225193   5.551   3.905   6.714
 7865SOL     OW25194   4.152   4.148   6.106
 7865SOL    HW125195   4.182   4.076   6.044
 7865SOL    HW225196   4.113   4.108   6.189
 7866SOL     OW25197   5.429   5.211   6.690
 7866SOL    HW125198   5.336   5.186   6.663
 7866SOL    HW225199   5.455   5.161   6.772
 7867SOL     OW25200   4.041   4.271   6.866
 7867SOL    HW125201   4.079   4.212   6.938
 7867SOL    HW225202   4.081   4.245   6.778
 7868SOL     OW25203   4.536   5.310   6.273
 7868SOL    HW125204   4.568   5.320   6.179
 7868SOL    HW225205   4.457   5.248   6.275
 7869SOL     OW25206   5.148   3.938   6.698
 7869SOL    HW125207   5.200   3.873   6.753
 7869SOL    HW225208   5.099   4.001   6.759
 7870SOL     OW25209   4.725   3.758   6.740
 7870SOL    HW125210   4.662   3.686   6.709
 7870SOL    HW225211   4.818   3.722   6.740
 7871SOL     OW25212   4.494   5.054   5.887
 7871SOL    HW125213   4.448   4.967   5.904
 7871SOL    HW225214   4.585   5.051   5.928
 7872SOL     OW25215   4.342   5.291   6.870
 7872SOL    HW125216   4.337   5.373   6.927
 7872SOL    HW225217   4.431   5.288   6.825
 7873SOL     OW25218   5.076   3.776   5.754
 7873SOL    HW125219   5.111   3.735   5.670
 7873SOL    HW225220   4.986   3.738   5.774
 7874SOL     OW25221   5.317   3.945   6.468
 7874SOL    HW125222   5.233   3.944   6.522
 7874SOL    HW225223   5.319   4.028   6.412
 7875SOL     OW25224   3.763   4.801   5.886
 7875SOL    HW125225   3.862   4.790   5.877
 7875SOL    HW225226   3.723   4.715   5.918
 7876SOL     OW25227   4.599   5.370   5.923
 7876SOL    HW125228   4.522   5.335   5.869
 7876SOL    HW225229   4.567   5.441   5.985
 7877SOL     OW25230   3.954   6.214   0.113
 7877SOL    HW125231   3.861   6.212   0.150
 7877SOL    HW225232   3.955   6.175   0.021
 7878SOL     OW25233   3.949   5.861   0.996
 7878SOL    HW125234   3.984   5.844   1.088
 7878SOL    HW225235   3.861   5.816   0.984
 7879SOL     OW25236   3.743   5.954   0.647
 7879SOL    HW125237   3.661   5.997   0.686
 7879SOL    HW225238   3.715   5.881   0.584
 7880SOL     OW25239   4.293   6.861   1.165
 7880SOL    HW125240   4.200   6.854   1.128
 7880SOL    HW225241   4.304   6.950   1.209
 7881SOL     OW25242   5.279   7.097   0.703
 7881SOL    HW125243   5.222   7.081   0.784
 7881SOL    HW225244   5.220   7.107   0.623
 7882SOL     OW25245   4.859   6.289   0.717
 7882SOL    HW125246   4.916   6.367   0.692
 7882SOL    HW225247   4.799   6.315   0.793
 7883SOL     OW25248   5.479   6.193   0.231
 7883SOL    HW125249   5.467   6.180   0.132
 7883SOL    HW225250   5.449   6.112   0.280
 7884SOL     OW25251   4.492   6.730   1.023
 7884SOL    HW125252   4.414   6.747   1.083
 7884SOL    HW225253   4.526   6.817   0.987
 7885SOL     OW25254   4.574   6.384   1.823
 7885SOL    HW125255   4.570   6.460   1.888
 7885SOL    HW225256   4.596   6.420   1.732
 7886SOL     OW25257   4.409   6.598   0.665
 7886SOL    HW125258   4.478   6.582   0.735
 7886SOL    HW225259   4.336   6.655   0.703
 7887SOL     OW25260   4.410   6.747   1.803
 7887SOL    HW125261   4.470   6.826   1.817
 7887SOL    HW225262   4.324   6.778   1.762
 7888SOL     OW25263   4.059   7.021   1.061
 7888SOL    HW125264   3.981   6.990   1.008
 7888SOL    HW225265   4.117   7.079   1.004
 7889SOL     OW25266   4.162   5.978   1.499
 7889SOL    HW125267   4.244   5.922   1.508
 7889SOL    HW225268   4.081   5.920   1.503
 7890SOL     OW25269   5.327   6.033   0.737
 7890SOL    HW125270   5.253   6.079   0.687
 7890SOL    HW225271   5.378   6.101   0.790
 7891SOL     OW25272   3.964   6.677   0.886
 7891SOL    HW125273   3.978   6.593   0.938
 7891SOL    HW225274   3.909   6.741   0.941
 7892SOL     OW25275   4.330   6.550   0.123
 7892SOL    HW125276   4.337   6.634   0.069
 7892SOL    HW225277   4.376   6.563   0.211
 7893SOL     OW25278   5.318   5.700   1.480
 7893SOL    HW125279   5.300   5.767   1.408
 7893SOL    HW225280   5.315   5.746   1.569
 7894SOL     OW25281   3.846   6.229   0.563
 7894SOL    HW125282   3.801   6.141   0.580
 7894SOL    HW225283   3.845   6.283   0.647
 7895SOL     OW25284   5.413   6.508   0.612
 7895SOL    HW125285   5.508   6.479   0.620
 7895SOL    HW225286   5.405   6.573   0.537
 7896SOL     OW25287   5.365   6.694   0.432
 7896SOL    HW125288   5.451   6.696   0.380
 7896SOL    HW225289   5.379   6.741   0.520
 7897SOL     OW25290   3.837   6.323   1.597
 7897SOL    HW125291   3.925   6.310   1.642
 7897SOL    HW225292   3.824   6.420   1.575
 7898SOL     OW25293   5.017   6.814   1.423
 7898SOL    HW125294   5.054   6.741   1.365
 7898SOL    HW225295   5.069   6.819   1.508
 7899SOL     OW25296   4.533   5.590   0.502
 7899SOL    HW125297   4.573   5.681   0.493
 7899SOL    HW225298   4.433   5.598   0.508
 7900SOL     OW25299   3.921   6.562   1.264
 7900SOL    HW125300   4.010   6.517   1.250
 7900SOL    HW225301   3.848   6.497   1.245
 7901SOL     OW25302   5.249   6.585   0.190
 7901SOL    HW125303   5.186   6.509   0.203
 7901SOL    HW225304   5.297   6.603   0.276
 7902SOL     OW25305   4.041   5.837   1.801
 7902SOL    HW125306   4.112   5.908   1.807
 7902SOL    HW225307   3.953   5.876   1.829
 7903SOL     OW25308   5.190   7.003   0.953
 7903SOL    HW125309   5.131   7.009   1.033
 7903SOL    HW225310   5.175   6.915   0.907
 7904SOL     OW25311   4.322   6.315   0.270
 7904SOL    HW125312   4.346   6.384   0.202
 7904SOL    HW225313   4.244   6.348   0.324
 7905SOL     OW25314   5.005   5.931   0.944
 7905SOL    HW125315   4.919   5.881   0.931
 7905SOL    HW225316   5.067   5.877   1.000
 7906SOL     OW25317   4.531   6.191   1.465
 7906SOL    HW125318   4.484   6.188   1.554
 7906SOL    HW225319   4.480   6.136   1.399
 7907SOL     OW25320   5.118   6.055   1.674
 7907SOL    HW125321   5.098   6.098   1.762
 7907SOL    HW225322   5.196   5.993   1.683
 7908SOL     OW25323   4.697   6.476   1.572
 7908SOL    HW125324   4.743   6.392   1.543
 7908SOL    HW225325   4.641   6.510   1.497
 7909SOL     OW25326   4.715   5.996   1.242
 7909SOL    HW125327   4.638   6.030   1.296
 7909SOL    HW225328   4.681   5.945   1.163
 7910SOL     OW25329   4.765   6.287   0.429
 7910SOL    HW125330   4.791   6.283   0.525
 7910SOL    HW225331   4.680   6.236   0.415
 7911SOL     OW25332   3.800   6.397   0.789
 7911SOL    HW125333   3.899   6.385   0.798
 7911SOL    HW225334   3.776   6.492   0.810
 7912SOL     OW25335   4.589   5.934   0.195
 7912SOL    HW125336   4.648   5.997   0.146
 7912SOL    HW225337   4.608   5.840   0.166
 7913SOL     OW25338   5.443   6.171   1.831
 7913SOL    HW125339   5.417   6.260   1.795
 7913SOL    HW225340   5.441   6.103   1.758
 7914SOL     OW25341   5.086   6.730   0.545
 7914SOL    HW125342   5.169   6.701   0.497
 7914SOL    HW225343   5.037   6.797   0.489
 7915SOL     OW25344   4.274   5.782   0.885
 7915SOL    HW125345   4.269   5.777   0.985
 7915SOL    HW225346   4.276   5.878   0.856
 7916SOL     OW25347   5.519   6.652   0.873
 7916SOL    HW125348   5.457   6.637   0.797
 7916SOL    HW225349   5.467   6.663   0.958
 7917SOL     OW25350   4.045   6.529   0.242
 7917SOL    HW125351   4.127   6.568   0.200
 7917SOL    HW225352   4.018   6.447   0.193
 7918SOL     OW25353   5.182   6.321   0.728
 7918SOL    HW125354   5.177   6.256   0.803
 7918SOL    HW225355   5.262   6.380   0.741
 7919SOL     OW25356   3.926   5.871   1.498
 7919SOL    HW125357   3.846   5.931   1.485
 7919SOL    HW225358   3.916   5.822   1.584
 7920SOL     OW25359   5.356   6.963   0.081
 7920SOL    HW125360   5.324   7.057   0.071
 7920SOL    HW225361   5.280   6.900   0.069
 7921SOL     OW25362   4.106   6.286   0.480
 7921SOL    HW125363   4.151   6.196   0.477
 7921SOL    HW225364   4.012   6.275   0.513
 7922SOL     OW25365   5.271   5.808   1.729
 7922SOL    HW125366   5.266   5.845   1.821
 7922SOL    HW225367   5.199   5.739   1.717
 7923SOL     OW25368   4.505   5.850   1.749
 7923SOL    HW125369   4.572   5.789   1.792
 7923SOL    HW225370   4.432   5.869   1.814
 7924SOL     OW25371   5.075   6.176   1.433
 7924SOL    HW125372   5.103   6.133   1.518
 7924SOL    HW225373   5.100   6.272   1.434
 7925SOL     OW25374   4.646   6.089   0.899
 7925SOL    HW125375   4.621   6.080   0.803
 7925SOL    HW225376   4.694   6.007   0.930
 7926SOL     OW25377   4.263   5.650   0.512
 7926SOL    HW125378   4.182   5.651   0.570
 7926SOL    HW225379   4.266   5.733   0.457
 7927SOL     OW25380   5.158   6.774   0.041
 7927SOL    HW125381   5.190   6.698   0.098
 7927SOL    HW225382   5.066   6.801   0.071
 7928SOL     OW25383   4.659   5.822   0.480
 7928SOL    HW125384   4.611   5.863   0.402
 7928SOL    HW225385   4.758   5.820   0.461
 7929SOL     OW25386   4.800   6.269   1.464
 7929SOL    HW125387   4.720   6.208   1.467
 7929SOL    HW225388   4.881   6.216   1.440
 7930SOL     OW25389   4.951   7.156   0.793
 7930SOL    HW125390   4.972   7.230   0.728
 7930SOL    HW225391   5.019   7.156   0.866
 7931SOL     OW25392   4.183   6.738   0.741
 7931SOL    HW125393   4.112   6.711   0.806
 7931SOL    HW225394   4.157   6.710   0.648
 7932SOL     OW25395   4.756   6.135   0.016
 7932SOL    HW125396   4.715   6.217  -0.023
 7932SOL    HW225397   4.820   6.161   0.089
 7933SOL     OW25398   3.802   6.142   1.386
 7933SOL    HW125399   3.894   6.141   1.345
 7933SOL    HW225400   3.796   6.216   1.453
 7934SOL     OW25401   4.285   5.808   1.147
 7934SOL    HW125402   4.323   5.724   1.184
 7934SOL    HW225403   4.197   5.827   1.191
 7935SOL     OW25404   4.590   6.040   0.642
 7935SOL    HW125405   4.558   6.112   0.580
 7935SOL    HW225406   4.614   5.959   0.589
 7936SOL     OW25407   4.741   5.625   0.753
 7936SOL    HW125408   4.669   5.630   0.684
 7936SOL    HW225409   4.717   5.556   0.822
 7937SOL     OW25410   5.153   6.759   0.867
 7937SOL    HW125411   5.098   6.675   0.860
 7937SOL    HW225412   5.179   6.788   0.775
 7938SOL     OW25413   5.190   6.176   0.992
 7938SOL    HW125414   5.160   6.081   0.999
 7938SOL    HW225415   5.263   6.192   1.058
 7939SOL     OW25416   5.581   6.419   0.377
 7939SOL    HW125417   5.623   6.355   0.441
 7939SOL    HW225418   5.543   6.368   0.299
 7940SOL     OW25419   5.388   6.866   0.657
 7940SOL    HW125420   5.487   6.874   0.671
 7940SOL    HW225421   5.343   6.950   0.688
 7941SOL     OW25422   5.114   6.161   0.078
 7941SOL    HW125423   5.060   6.140   0.159
 7941SOL    HW225424   5.205   6.120   0.087
 7942SOL     OW25425   4.251   5.842   0.328
 7942SOL    HW125426   4.278   5.783   0.253
 7942SOL    HW225427   4.251   5.937   0.297
 7943SOL     OW25428   5.478   6.809   1.588
 7943SOL    HW125429   5.569   6.770   1.575
 7943SOL    HW225430   5.486   6.905   1.612
 7944SOL     OW25431   4.788   6.933   1.340
 7944SOL    HW125432   4.708   6.910   1.395
 7944SOL    HW225433   4.871   6.907   1.389
 7945SOL     OW25434   4.835   6.781   1.100
 7945SOL    HW125435   4.795   6.825   1.181
 7945SOL    HW225436   4.794   6.818   1.017
 7946SOL     OW25437   5.362   6.685   1.079
 7946SOL    HW125438   5.367   6.766   1.138
 7946SOL    HW225439   5.276   6.687   1.028
 7947SOL     OW25440   4.639   5.675   1.402
 7947SOL    HW125441   4.664   5.655   1.307
 7947SOL    HW225442   4.711   5.731   1.444
 7948SOL     OW25443   4.704   6.702   1.719
 7948SOL    HW125444   4.605   6.708   1.729
 7948SOL    HW225445   4.727   6.622   1.663
 7949SOL     OW25446   4.429   6.636   0.368
 7949SOL    HW125447   4.415   6.643   0.467
 7949SOL    HW225448   4.513   6.585   0.350
 7950SOL     OW25449   4.134   6.399   1.251
 7950SOL    HW125450   4.220   6.411   1.301
 7950SOL    HW225451   4.092   6.312   1.278
 7951SOL     OW25452   4.998   5.972   1.262
 7951SOL    HW125453   5.019   6.046   1.326
 7951SOL    HW225454   4.909   5.989   1.219
 7952SOL     OW25455   4.091   6.686   0.501
 7952SOL    HW125456   4.084   6.769   0.445
 7952SOL    HW225457   4.095   6.606   0.441
 7953SOL     OW25458   4.290   6.123   0.865
 7953SOL    HW125459   4.302   6.189   0.791
 7953SOL    HW225460   4.336   6.157   0.948
 7954SOL     OW25461   5.306   6.225   0.472
 7954SOL    HW125462   5.275   6.286   0.545
 7954SOL    HW225463   5.356   6.277   0.403
 7955SOL     OW25464   4.126   6.337   1.598
 7955SOL    HW125465   4.194   6.392   1.551
 7955SOL    HW225466   4.166   6.249   1.625
 7956SOL     OW25467   5.311   6.365   1.670
 7956SOL    HW125468   5.219   6.403   1.665
 7956SOL    HW225469   5.371   6.412   1.605
 7957SOL     OW25470   4.737   5.691   1.770
 7957SOL    HW125471   4.743   5.776   1.718
 7957SOL    HW225472   4.769   5.615   1.713
 7958SOL     OW25473   4.228   5.636   1.740
 7958SOL    HW125474   4.186   5.579   1.670
 7958SOL    HW225475   4.162   5.705   1.772
 7959SOL     OW25476   4.297   6.456   1.029
 7959SOL    HW125477   4.341   6.545   1.020
 7959SOL    HW225478   4.234   6.456   1.106
 7960SOL     OW25479   5.084   6.448   1.045
 7960SOL    HW125480   5.009   6.448   0.979
 7960SOL    HW225481   5.121   6.356   1.054
 7961SOL     OW25482   4.933   6.111   0.275
 7961SOL    HW125483   4.946   6.027   0.329
 7961SOL    HW225484   4.904   6.185   0.335
 7962SOL     OW25485   4.031   5.799   1.231
 7962SOL    HW125486   4.008   5.836   1.321
 7962SOL    HW225487   4.001   5.704   1.225
 7963SOL     OW25488   3.761   6.896   1.282
 7963SOL    HW125489   3.814   6.847   1.350
 7963SOL    HW225490   3.783   6.994   1.287
 7964SOL     OW25491   4.456   6.220   1.064
 7964SOL    HW125492   4.515   6.194   0.988
 7964SOL    HW225493   4.428   6.316   1.053
 7965SOL     OW25494   5.452   6.521   1.854
 7965SOL    HW125495   5.406   6.514   1.765
 7965SOL    HW225496   5.390   6.565   1.920
 7966SOL     OW25497   4.031   5.649   0.618
 7966SOL    HW125498   4.020   5.743   0.651
 7966SOL    HW225499   4.026   5.586   0.695
 7967SOL     OW25500   5.346   5.953   0.374
 7967SOL    HW125501   5.348   5.877   0.438
 7967SOL    HW225502   5.298   6.030   0.414
 7968SOL     OW25503   4.747   6.352   0.966
 7968SOL    HW125504   4.762   6.373   1.062
 7968SOL    HW225505   4.717   6.257   0.957
 7969SOL     OW25506   5.583   7.104   1.605
 7969SOL    HW125507   5.597   7.131   1.510
 7969SOL    HW225508   5.666   7.126   1.658
 7970SOL     OW25509   4.074   6.484   1.804
 7970SOL    HW125510   4.150   6.528   1.852
 7970SOL    HW225511   4.109   6.437   1.722
 7971SOL     OW25512   5.264   5.860   0.125
 7971SOL    HW125513   5.203   5.785   0.148
 7971SOL    HW225514   5.286   5.912   0.208
 7972SOL     OW25515   5.027   6.424   0.042
 7972SOL    HW125516   5.061   6.331   0.057
 7972SOL    HW225517   5.045   6.451  -0.053
 7973SOL     OW25518   4.043   6.396   0.949
 7973SOL    HW125519   4.136   6.432   0.954
 7973SOL    HW225520   4.037   6.311   1.001
 7974SOL     OW25521   4.063   6.095   1.006
 7974SOL    HW125522   4.011   6.012   0.989
 7974SOL    HW225523   4.140   6.100   0.942
 7975SOL     OW25524   4.862   5.966   1.678
 7975SOL    HW125525   4.817   6.029   1.742
 7975SOL    HW225526   4.955   5.997   1.661
 7976SOL     OW25527   4.884   5.793   1.477
 7976SOL    HW125528   4.884   5.857   1.554
 7976SOL    HW225529   4.912   5.841   1.394
 7977SOL     OW25530   4.726   6.382   1.238
 7977SOL    HW125531   4.767   6.350   1.324
 7977SOL    HW225532   4.630   6.355   1.235
 7978SOL     OW25533   3.764   6.130   1.114
 7978SOL    HW125534   3.849   6.097   1.073
 7978SOL    HW225535   3.777   6.145   1.212
 7979SOL     OW25536   3.913   6.106   1.722
 7979SOL    HW125537   3.972   6.066   1.652
 7979SOL    HW225538   3.855   6.177   1.681
 7980SOL     OW25539   5.093   6.536   1.660
 7980SOL    HW125540   5.132   6.625   1.680
 7980SOL    HW225541   5.103   6.516   1.563
 7981SOL     OW25542   4.539   6.158   0.325
 7981SOL    HW125543   4.546   6.069   0.279
 7981SOL    HW225544   4.445   6.192   0.317
 7982SOL     OW25545   5.381   6.190   1.206
 7982SOL    HW125546   5.343   6.121   1.268
 7982SOL    HW225547   5.463   6.154   1.162
 7983SOL     OW25548   4.395   6.050   1.269
 7983SOL    HW125549   4.361   5.961   1.239
 7983SOL    HW225550   4.421   6.104   1.189
 7984SOL     OW25551   4.197   6.086   0.191
 7984SOL    HW125552   4.258   6.166   0.195
 7984SOL    HW225553   4.102   6.117   0.198
 7985SOL     OW25554   3.883   6.723   1.466
 7985SOL    HW125555   3.905   6.662   1.542
 7985SOL    HW225556   3.893   6.674   1.380
 7986SOL     OW25557   5.071   6.645   1.234
 7986SOL    HW125558   5.095   6.582   1.160
 7986SOL    HW225559   4.981   6.685   1.216
 7987SOL     OW25560   5.026   6.441   0.309
 7987SOL    HW125561   4.940   6.410   0.351
 7987SOL    HW225562   5.022   6.427   0.210
 7988SOL     OW25563   3.807   6.844   1.022
 7988SOL    HW125564   3.802   6.843   1.122
 7988SOL    HW225565   3.724   6.803   0.984
 7989SOL     OW25566   4.627   5.672   0.133
 7989SOL    HW125567   4.678   5.673   0.047
 7989SOL    HW225568   4.683   5.630   0.204
 7990SOL     OW25569   5.450   5.721   0.523
 7990SOL    HW125570   5.523   5.704   0.456
 7990SOL    HW225571   5.419   5.634   0.561
 7991SOL     OW25572   5.004   6.513   0.672
 7991SOL    HW125573   5.064   6.432   0.674
 7991SOL    HW225574   5.044   6.582   0.612
 7992SOL     OW25575   4.554   6.859   1.422
 7992SOL    HW125576   4.549   6.892   1.517
 7992SOL    HW225577   4.468   6.878   1.376
 7993SOL     OW25578   5.565   5.761   0.963
 7993SOL    HW125579   5.604   5.676   0.927
 7993SOL    HW225580   5.467   5.763   0.944
 7994SOL     OW25581   3.987   5.912   0.720
 7994SOL    HW125582   3.908   5.963   0.686
 7994SOL    HW225583   3.978   5.897   0.818
 7995SOL     OW25584   4.546   6.588   1.372
 7995SOL    HW125585   4.586   6.587   1.280
 7995SOL    HW225586   4.556   6.680   1.412
 7996SOL     OW25587   4.640   6.496   0.291
 7996SOL    HW125588   4.703   6.534   0.223
 7996SOL    HW225589   4.680   6.413   0.330
 7997SOL     OW25590   4.096   6.874   1.490
 7997SOL    HW125591   4.083   6.967   1.456
 7997SOL    HW225592   4.012   6.822   1.477
 7998SOL     OW25593   5.338   6.878   1.289
 7998SOL    HW125594   5.398   6.881   1.369
 7998SOL    HW225595   5.263   6.942   1.302
 7999SOL     OW25596   4.763   6.684   0.696
 7999SOL    HW125597   4.693   6.637   0.750
 7999SOL    HW225598   4.822   6.616   0.653
 8000SOL     OW25599   4.738   5.822   0.971
 8000SOL    HW125600   4.730   5.786   0.878
 8000SOL    HW225601   4.736   5.746   1.036
 8001SOL     OW25602   5.433   5.971   1.381
 8001SOL    HW125603   5.506   6.040   1.385
 8001SOL    HW225604   5.461   5.896   1.322
 8002SOL     OW25605   3.829   6.599   1.726
 8002SOL    HW125606   3.752   6.566   1.780
 8002SOL    HW225607   3.914   6.569   1.768
 8003SOL     OW25608   4.396   5.789   1.489
 8003SOL    HW125609   4.486   5.773   1.449
 8003SOL    HW225610   4.404   5.794   1.588
 8004SOL     OW25611   3.799   5.931   0.033
 8004SOL    HW125612   3.707   5.903   0.004
 8004SOL    HW225613   3.830   6.008  -0.023
 8005SOL     OW25614   5.164   6.442   1.398
 8005SOL    HW125615   5.107   6.494   1.335
 8005SOL    HW225616   5.260   6.454   1.374
 8006SOL     OW25617   3.796   5.752   0.318
 8006SOL    HW125618   3.779   5.835   0.264
 8006SOL    HW225619   3.886   5.715   0.296
 8007SOL     OW25620   4.337   6.428   1.431
 8007SOL    HW125621   4.393   6.509   1.414
 8007SOL    HW225622   4.396   6.348   1.434
 8008SOL     OW25623   4.440   6.151   1.708
 8008SOL    HW125624   4.459   6.216   1.782
 8008SOL    HW225625   4.500   6.071   1.717
 8009SOL     OW25626   5.174   6.806   1.633
 8009SOL    HW125627   5.165   6.796   1.732
 8009SOL    HW225628   5.270   6.799   1.607
 8010SOL     OW25629   5.398   6.469   1.254
 8010SOL    HW125630   5.371   6.380   1.217
 8010SOL    HW225631   5.399   6.537   1.181
 8011SOL     OW25632   4.949   5.911   0.449
 8011SOL    HW125633   5.014   5.837   0.438
 8011SOL    HW225634   4.969   5.961   0.533
 8012SOL     OW25635   4.318   6.331   0.652
 8012SOL    HW125636   4.368   6.416   0.633
 8012SOL    HW225637   4.230   6.333   0.604
 8013SOL     OW25638   5.501   5.928   1.642
 8013SOL    HW125639   5.484   5.959   1.548
 8013SOL    HW225640   5.417   5.891   1.680
 8014SOL     OW25641   5.454   6.520   1.517
 8014SOL    HW125642   5.492   6.611   1.532
 8014SOL    HW225643   5.446   6.503   1.418
 8015SOL     OW25644   4.583   6.542   0.861
 8015SOL    HW125645   4.637   6.473   0.909
 8015SOL    HW225646   4.551   6.611   0.927
 8016SOL     OW25647   4.807   6.570   0.087
 8016SOL    HW125648   4.784   6.623   0.005
 8016SOL    HW225649   4.888   6.514   0.068
 8017SOL     OW25650   3.945   6.900   1.844
 8017SOL    HW125651   3.880   6.827   1.823
 8017SOL    HW225652   3.949   6.914   1.942
 8018SOL     OW25653   3.803   6.826   0.653
 8018SOL    HW125654   3.802   6.779   0.741
 8018SOL    HW225655   3.885   6.798   0.602
 8019SOL     OW25656   4.396   6.977   1.624
 8019SOL    HW125657   4.318   6.927   1.662
 8019SOL    HW225658   4.393   7.072   1.655
 8020SOL     OW25659   5.548   5.778   1.227
 8020SOL    HW125660   5.544   5.688   1.271
 8020SOL    HW225661   5.551   5.767   1.128
 8021SOL     OW25662   4.152   6.010   0.520
 8021SOL    HW125663   4.182   5.938   0.458
 8021SOL    HW225664   4.113   5.970   0.603
 8022SOL     OW25665   5.429   7.073   1.104
 8022SOL    HW125666   5.336   7.048   1.077
 8022SOL    HW225667   5.455   7.023   1.186
 8023SOL     OW25668   4.041   6.133   1.280
 8023SOL    HW125669   4.079   6.074   1.352
 8023SOL    HW225670   4.081   6.107   1.192
 8024SOL     OW25671   5.148   5.800   1.112
 8024SOL    HW125672   5.200   5.735   1.167
 8024SOL    HW225673   5.099   5.863   1.173
 8025SOL     OW25674   4.725   5.620   1.154
 8025SOL    HW125675   4.662   5.548   1.123
 8025SOL    HW225676   4.818   5.584   1.154
 8026SOL     OW25677   4.494   6.916   0.301
 8026SOL    HW125678   4.448   6.829   0.318
 8026SOL    HW225679   4.585   6.913   0.342
 8027SOL     OW25680   5.076   5.638   0.168
 8027SOL    HW125681   5.111   5.597   0.084
 8027SOL    HW225682   4.986   5.600   0.188
 8028SOL     OW25683   5.024   6.039   0.691
 8028SOL    HW125684   4.965   6.119   0.695
 8028SOL    HW225685   5.039   6.004   0.784
 8029SOL     OW25686   5.317   5.807   0.882
 8029SOL    HW125687   5.233   5.806   0.936
 8029SOL    HW225688   5.319   5.890   0.826
 8030SOL     OW25689   3.763   6.663   0.300
 8030SOL    HW125690   3.862   6.652   0.291
 8030SOL    HW225691   3.723   6.577   0.332
 8031SOL     OW25692   3.954   6.214   1.975
 8031SOL    HW125693   3.861   6.212   2.012
 8031SOL    HW225694   3.955   6.175   1.883
 8032SOL     OW25695   3.949   5.861   2.858
 8032SOL    HW125696   3.984   5.844   2.950
 8032SOL    HW225697   3.861   5.816   2.846
 8033SOL     OW25698   3.743   5.954   2.509
 8033SOL    HW125699   3.661   5.997   2.548
 8033SOL    HW225700   3.715   5.881   2.446
 8034SOL     OW25701   4.293   6.861   3.027
 8034SOL    HW125702   4.200   6.854   2.990
 8034SOL    HW225703   4.304   6.950   3.071
 8035SOL     OW25704   5.279   7.097   2.565
 8035SOL    HW125705   5.222   7.081   2.646
 8035SOL    HW225706   5.220   7.107   2.485
 8036SOL     OW25707   4.859   6.289   2.579
 8036SOL    HW125708   4.916   6.367   2.554
 8036SOL    HW225709   4.799   6.315   2.655
 8037SOL     OW25710   5.479   6.193   2.093
 8037SOL    HW125711   5.467   6.180   1.994
 8037SOL    HW225712   5.449   6.112   2.142
 8038SOL     OW25713   4.492   6.730   2.885
 8038SOL    HW125714   4.414   6.747   2.945
 8038SOL    HW225715   4.526   6.817   2.849
 8039SOL     OW25716   4.574   6.384   3.685
 8039SOL    HW125717   4.570   6.460   3.750
 8039SOL    HW225718   4.596   6.420   3.594
 8040SOL     OW25719   4.409   6.598   2.527
 8040SOL    HW125720   4.478   6.582   2.597
 8040SOL    HW225721   4.336   6.655   2.565
 8041SOL     OW25722   4.410   6.747   3.665
 8041SOL    HW125723   4.470   6.826   3.679
 8041SOL    HW225724   4.324   6.778   3.624
 8042SOL     OW25725   4.059   7.021   2.923
 8042SOL    HW125726   3.981   6.990   2.870
 8042SOL    HW225727   4.117   7.079   2.866
 8043SOL     OW25728   4.162   5.978   3.361
 8043SOL    HW125729   4.244   5.922   3.370
 8043SOL    HW225730   4.081   5.920   3.365
 8044SOL     OW25731   5.327   6.033   2.599
 8044SOL    HW125732   5.253   6.079   2.549
 8044SOL    HW225733   5.378   6.101   2.652
 8045SOL     OW25734   3.964   6.677   2.748
 8045SOL    HW125735   3.978   6.593   2.800
 8045SOL    HW225736   3.909   6.741   2.803
 8046SOL     OW25737   4.330   6.550   1.985
 8046SOL    HW125738   4.337   6.634   1.931
 8046SOL    HW225739   4.376   6.563   2.073
 8047SOL     OW25740   5.318   5.700   3.342
 8047SOL    HW125741   5.300   5.767   3.270
 8047SOL    HW225742   5.315   5.746   3.431
 8048SOL     OW25743   3.846   6.229   2.425
 8048SOL    HW125744   3.801   6.141   2.442
 8048SOL    HW225745   3.845   6.283   2.509
 8049SOL     OW25746   5.413   6.508   2.474
 8049SOL    HW125747   5.508   6.479   2.482
 8049SOL    HW225748   5.405   6.573   2.399
 8050SOL     OW25749   5.365   6.694   2.294
 8050SOL    HW125750   5.451   6.696   2.242
 8050SOL    HW225751   5.379   6.741   2.382
 8051SOL     OW25752   3.837   6.323   3.459
 8051SOL    HW125753   3.925   6.310   3.504
 8051SOL    HW225754   3.824   6.420   3.437
 8052SOL     OW25755   5.017   6.814   3.285
 8052SOL    HW125756   5.054   6.741   3.227
 8052SOL    HW225757   5.069   6.819   3.370
 8053SOL     OW25758   4.533   5.590   2.364
 8053SOL    HW125759   4.573   5.681   2.355
 8053SOL    HW225760   4.433   5.598   2.370
 8054SOL     OW25761   3.921   6.562   3.126
 8054SOL    HW125762   4.010   6.517   3.112
 8054SOL    HW225763   3.848   6.497   3.107
 8055SOL     OW25764   5.249   6.585   2.052
 8055SOL    HW125765   5.186   6.509   2.065
 8055SOL    HW225766   5.297   6.603   2.138
 8056SOL     OW25767   4.041   5.837   3.663
 8056SOL    HW125768   4.112   5.908   3.669
 8056SOL    HW225769   3.953   5.876   3.691
 8057SOL     OW25770   5.190   7.003   2.815
 8057SOL    HW125771   5.131   7.009   2.895
 8057SOL    HW225772   5.175   6.915   2.769
 8058SOL     OW25773   4.322   6.315   2.132
 8058SOL    HW125774   4.346   6.384   2.064
 8058SOL    HW225775   4.244   6.348   2.186
 8059SOL     OW25776   5.005   5.931   2.806
 8059SOL    HW125777   4.919   5.881   2.793
 8059SOL    HW225778   5.067   5.877   2.862
 8060SOL     OW25779   4.531   6.191   3.327
 8060SOL    HW125780   4.484   6.188   3.416
 8060SOL    HW225781   4.480   6.136   3.261
 8061SOL     OW25782   5.118   6.055   3.536
 8061SOL    HW125783   5.098   6.098   3.624
 8061SOL    HW225784   5.196   5.993   3.545
 8062SOL     OW25785   4.697   6.476   3.434
 8062SOL    HW125786   4.743   6.392   3.405
 8062SOL    HW225787   4.641   6.510   3.359
 8063SOL     OW25788   4.715   5.996   3.104
 8063SOL    HW125789   4.638   6.030   3.158
 8063SOL    HW225790   4.681   5.945   3.025
 8064SOL     OW25791   4.765   6.287   2.291
 8064SOL    HW125792   4.791   6.283   2.387
 8064SOL    HW225793   4.680   6.236   2.277
 8065SOL     OW25794   3.800   6.397   2.651
 8065SOL    HW125795   3.899   6.385   2.660
 8065SOL    HW225796   3.776   6.492   2.672
 8066SOL     OW25797   4.589   5.934   2.057
 8066SOL    HW125798   4.648   5.997   2.008
 8066SOL    HW225799   4.608   5.840   2.028
 8067SOL     OW25800   5.443   6.171   3.693
 8067SOL    HW125801   5.417   6.260   3.657
 8067SOL    HW225802   5.441   6.103   3.620
 8068SOL     OW25803   5.086   6.730   2.407
 8068SOL    HW125804   5.169   6.701   2.359
 8068SOL    HW225805   5.037   6.797   2.351
 8069SOL     OW25806   4.274   5.782   2.747
 8069SOL    HW125807   4.269   5.777   2.847
 8069SOL    HW225808   4.276   5.878   2.718
 8070SOL     OW25809   5.519   6.652   2.735
 8070SOL    HW125810   5.457   6.637   2.659
 8070SOL    HW225811   5.467   6.663   2.820
 8071SOL     OW25812   4.045   6.529   2.104
 8071SOL    HW125813   4.127   6.568   2.062
 8071SOL    HW225814   4.018   6.447   2.055
 8072SOL     OW25815   5.182   6.321   2.590
 8072SOL    HW125816   5.177   6.256   2.665
 8072SOL    HW225817   5.262   6.380   2.603
 8073SOL     OW25818   3.926   5.871   3.360
 8073SOL    HW125819   3.846   5.931   3.347
 8073SOL    HW225820   3.916   5.822   3.446
 8074SOL     OW25821   5.356   6.963   1.943
 8074SOL    HW125822   5.324   7.057   1.933
 8074SOL    HW225823   5.280   6.900   1.931
 8075SOL     OW25824   5.124   5.693   2.288
 8075SOL    HW125825   5.100   5.656   2.198
 8075SOL    HW225826   5.223   5.709   2.292
 8076SOL     OW25827   4.106   6.286   2.342
 8076SOL    HW125828   4.151   6.196   2.339
 8076SOL    HW225829   4.012   6.275   2.375
 8077SOL     OW25830   5.271   5.808   3.591
 8077SOL    HW125831   5.266   5.845   3.683
 8077SOL    HW225832   5.199   5.739   3.579
 8078SOL     OW25833   4.338   5.708   1.979
 8078SOL    HW125834   4.436   5.686   1.986
 8078SOL    HW225835   4.307   5.691   1.886
 8079SOL     OW25836   4.505   5.850   3.611
 8079SOL    HW125837   4.572   5.789   3.654
 8079SOL    HW225838   4.432   5.869   3.676
 8080SOL     OW25839   5.075   6.176   3.295
 8080SOL    HW125840   5.103   6.133   3.380
 8080SOL    HW225841   5.100   6.272   3.296
 8081SOL     OW25842   4.646   6.089   2.761
 8081SOL    HW125843   4.621   6.080   2.665
 8081SOL    HW225844   4.694   6.007   2.792
 8082SOL     OW25845   4.263   5.650   2.374
 8082SOL    HW125846   4.182   5.651   2.432
 8082SOL    HW225847   4.266   5.733   2.319
 8083SOL     OW25848   5.158   6.774   1.903
 8083SOL    HW125849   5.190   6.698   1.960
 8083SOL    HW225850   5.066   6.801   1.933
 8084SOL     OW25851   4.021   5.621   2.033
 8084SOL    HW125852   4.070   5.705   2.012
 8084SOL    HW225853   4.083   5.556   2.078
 8085SOL     OW25854   4.659   5.822   2.342
 8085SOL    HW125855   4.611   5.863   2.264
 8085SOL    HW225856   4.758   5.820   2.323
 8086SOL     OW25857   4.800   6.269   3.326
 8086SOL    HW125858   4.720   6.208   3.329
 8086SOL    HW225859   4.881   6.216   3.302
 8087SOL     OW25860   4.951   7.156   2.655
 8087SOL    HW125861   4.972   7.230   2.590
 8087SOL    HW225862   5.019   7.156   2.728
 8088SOL     OW25863   4.183   6.738   2.603
 8088SOL    HW125864   4.112   6.711   2.668
 8088SOL    HW225865   4.157   6.710   2.510
 8089SOL     OW25866   4.756   6.135   1.878
 8089SOL    HW125867   4.715   6.217   1.839
 8089SOL    HW225868   4.820   6.161   1.951
 8090SOL     OW25869   3.802   6.142   3.248
 8090SOL    HW125870   3.894   6.141   3.207
 8090SOL    HW225871   3.796   6.216   3.315
 8091SOL     OW25872   4.285   5.808   3.009
 8091SOL    HW125873   4.323   5.724   3.046
 8091SOL    HW225874   4.197   5.827   3.053
 8092SOL     OW25875   4.590   6.040   2.504
 8092SOL    HW125876   4.558   6.112   2.442
 8092SOL    HW225877   4.614   5.959   2.451
 8093SOL     OW25878   4.741   5.625   2.615
 8093SOL    HW125879   4.669   5.630   2.546
 8093SOL    HW225880   4.717   5.556   2.684
 8094SOL     OW25881   5.153   6.759   2.729
 8094SOL    HW125882   5.098   6.675   2.722
 8094SOL    HW225883   5.179   6.788   2.637
 8095SOL     OW25884   5.190   6.176   2.854
 8095SOL    HW125885   5.160   6.081   2.861
 8095SOL    HW225886   5.263   6.192   2.920
 8096SOL     OW25887   5.581   6.419   2.239
 8096SOL    HW125888   5.623   6.355   2.303
 8096SOL    HW225889   5.543   6.368   2.161
 8097SOL     OW25890   5.388   6.866   2.519
 8097SOL    HW125891   5.487   6.874   2.533
 8097SOL    HW225892   5.343   6.950   2.550
 8098SOL     OW25893   5.114   6.161   1.940
 8098SOL    HW125894   5.060   6.140   2.021
 8098SOL    HW225895   5.205   6.120   1.949
 8099SOL     OW25896   4.251   5.842   2.190
 8099SOL    HW125897   4.278   5.783   2.115
 8099SOL    HW225898   4.251   5.937   2.159
 8100SOL     OW25899   5.478   6.809   3.450
 8100SOL    HW125900   5.569   6.770   3.437
 8100SOL    HW225901   5.486   6.905   3.474
 8101SOL     OW25902   4.788   6.933   3.202
 8101SOL    HW125903   4.708   6.910   3.257
 8101SOL    HW225904   4.871   6.907   3.251
 8102SOL     OW25905   4.835   6.781   2.962
 8102SOL    HW125906   4.795   6.825   3.043
 8102SOL    HW225907   4.794   6.818   2.879
 8103SOL     OW25908   5.362   6.685   2.941
 8103SOL    HW125909   5.367   6.766   3.000
 8103SOL    HW225910   5.276   6.687   2.890
 8104SOL     OW25911   4.639   5.675   3.264
 8104SOL    HW125912   4.664   5.655   3.169
 8104SOL    HW225913   4.711   5.731   3.306
 8105SOL     OW25914   4.704   6.702   3.581
 8105SOL    HW125915   4.605   6.708   3.591
 8105SOL    HW225916   4.727   6.622   3.525
 8106SOL     OW25917   4.429   6.636   2.230
 8106SOL    HW125918   4.415   6.643   2.329
 8106SOL    HW225919   4.513   6.585   2.212
 8107SOL     OW25920   4.134   6.399   3.113
 8107SOL    HW125921   4.220   6.411   3.163
 8107SOL    HW225922   4.092   6.312   3.140
 8108SOL     OW25923   4.998   5.972   3.124
 8108SOL    HW125924   5.019   6.046   3.188
 8108SOL    HW225925   4.909   5.989   3.081
 8109SOL     OW25926   4.091   6.686   2.363
 8109SOL    HW125927   4.084   6.769   2.307
 8109SOL    HW225928   4.095   6.606   2.303
 8110SOL     OW25929   4.290   6.123   2.727
 8110SOL    HW125930   4.302   6.189   2.653
 8110SOL    HW225931   4.336   6.157   2.810
 8111SOL     OW25932   5.306   6.225   2.334
 8111SOL    HW125933   5.275   6.286   2.407
 8111SOL    HW225934   5.356   6.277   2.265
 8112SOL     OW25935   4.126   6.337   3.460
 8112SOL    HW125936   4.194   6.392   3.413
 8112SOL    HW225937   4.166   6.249   3.487
 8113SOL     OW25938   5.311   6.365   3.532
 8113SOL    HW125939   5.219   6.403   3.527
 8113SOL    HW225940   5.371   6.412   3.467
 8114SOL     OW25941   4.737   5.691   3.632
 8114SOL    HW125942   4.743   5.776   3.580
 8114SOL    HW225943   4.769   5.615   3.575
 8115SOL     OW25944   4.228   5.636   3.602
 8115SOL    HW125945   4.186   5.579   3.532
 8115SOL    HW225946   4.162   5.705   3.634
 8116SOL     OW25947   4.297   6.456   2.891
 8116SOL    HW125948   4.341   6.545   2.882
 8116SOL    HW225949   4.234   6.456   2.968
 8117SOL     OW25950   5.084   6.448   2.907
 8117SOL    HW125951   5.009   6.448   2.841
 8117SOL    HW225952   5.121   6.356   2.916
 8118SOL     OW25953   4.933   6.111   2.137
 8118SOL    HW125954   4.946   6.027   2.191
 8118SOL    HW225955   4.904   6.185   2.197
 8119SOL     OW25956   4.031   5.799   3.093
 8119SOL    HW125957   4.008   5.836   3.183
 8119SOL    HW225958   4.001   5.704   3.087
 8120SOL     OW25959   3.761   6.896   3.144
 8120SOL    HW125960   3.814   6.847   3.212
 8120SOL    HW225961   3.783   6.994   3.149
 8121SOL     OW25962   4.456   6.220   2.926
 8121SOL    HW125963   4.515   6.194   2.850
 8121SOL    HW225964   4.428   6.316   2.915
 8122SOL     OW25965   5.452   6.521   3.716
 8122SOL    HW125966   5.406   6.514   3.627
 8122SOL    HW225967   5.390   6.565   3.782
 8123SOL     OW25968   4.031   5.649   2.480
 8123SOL    HW125969   4.020   5.743   2.513
 8123SOL    HW225970   4.026   5.586   2.557
 8124SOL     OW25971   5.346   5.953   2.236
 8124SOL    HW125972   5.348   5.877   2.300
 8124SOL    HW225973   5.298   6.030   2.276
 8125SOL     OW25974   4.747   6.352   2.828
 8125SOL    HW125975   4.762   6.373   2.924
 8125SOL    HW225976   4.717   6.257   2.819
 8126SOL     OW25977   5.583   7.104   3.467
 8126SOL    HW125978   5.597   7.131   3.372
 8126SOL    HW225979   5.666   7.126   3.520
 8127SOL     OW25980   4.074   6.484   3.666
 8127SOL    HW125981   4.150   6.528   3.714
 8127SOL    HW225982   4.109   6.437   3.584
 8128SOL     OW25983   5.264   5.860   1.987
 8128SOL    HW125984   5.203   5.785   2.010
 8128SOL    HW225985   5.286   5.912   2.070
 8129SOL     OW25986   5.027   6.424   1.904
 8129SOL    HW125987   5.061   6.331   1.919
 8129SOL    HW225988   5.045   6.451   1.809
 8130SOL     OW25989   4.043   6.396   2.811
 8130SOL    HW125990   4.136   6.432   2.816
 8130SOL    HW225991   4.037   6.311   2.863
 8131SOL     OW25992   4.063   6.095   2.868
 8131SOL    HW125993   4.011   6.012   2.851
 8131SOL    HW225994   4.140   6.100   2.804
 8132SOL     OW25995   4.862   5.966   3.540
 8132SOL    HW125996   4.817   6.029   3.604
 8132SOL    HW225997   4.955   5.997   3.523
 8133SOL     OW25998   4.884   5.793   3.339
 8133SOL    HW125999   4.884   5.857   3.416
 8133SOL    HW226000   4.912   5.841   3.256
 8134SOL     OW26001   3.732   6.912   2.062
 8134SOL    HW126002   3.639   6.933   2.031
 8134SOL    HW226003   3.742   6.813   2.075
 8135SOL     OW26004   4.726   6.382   3.100
 8135SOL    HW126005   4.767   6.350   3.186
 8135SOL    HW226006   4.630   6.355   3.097
 8136SOL     OW26007   3.764   6.130   2.976
 8136SOL    HW126008   3.849   6.097   2.935
 8136SOL    HW226009   3.777   6.145   3.074
 8137SOL     OW26010   3.913   6.106   3.584
 8137SOL    HW126011   3.972   6.066   3.514
 8137SOL    HW226012   3.855   6.177   3.543
 8138SOL     OW26013   5.093   6.536   3.522
 8138SOL    HW126014   5.132   6.625   3.542
 8138SOL    HW226015   5.103   6.516   3.425
 8139SOL     OW26016   4.539   6.158   2.187
 8139SOL    HW126017   4.546   6.069   2.141
 8139SOL    HW226018   4.445   6.192   2.179
 8140SOL     OW26019   5.381   6.190   3.068
 8140SOL    HW126020   5.343   6.121   3.130
 8140SOL    HW226021   5.463   6.154   3.024
 8141SOL     OW26022   4.395   6.050   3.131
 8141SOL    HW126023   4.361   5.961   3.101
 8141SOL    HW226024   4.421   6.104   3.051
 8142SOL     OW26025   4.197   6.086   2.053
 8142SOL    HW126026   4.258   6.166   2.057
 8142SOL    HW226027   4.102   6.117   2.060
 8143SOL     OW26028   3.883   6.723   3.328
 8143SOL    HW126029   3.905   6.662   3.404
 8143SOL    HW226030   3.893   6.674   3.242
 8144SOL     OW26031   5.071   6.645   3.096
 8144SOL    HW126032   5.095   6.582   3.022
 8144SOL    HW226033   4.981   6.685   3.078
 8145SOL     OW26034   5.026   6.441   2.171
 8145SOL    HW126035   4.940   6.410   2.213
 8145SOL    HW226036   5.022   6.427   2.072
 8146SOL     OW26037   3.807   6.844   2.884
 8146SOL    HW126038   3.802   6.843   2.984
 8146SOL    HW226039   3.724   6.803   2.846
 8147SOL     OW26040   5.450   5.721   2.385
 8147SOL    HW126041   5.523   5.704   2.318
 8147SOL    HW226042   5.419   5.634   2.423
 8148SOL     OW26043   5.004   6.513   2.534
 8148SOL    HW126044   5.064   6.432   2.536
 8148SOL    HW226045   5.044   6.582   2.474
 8149SOL     OW26046   4.554   6.859   3.284
 8149SOL    HW126047   4.549   6.892   3.379
 8149SOL    HW226048   4.468   6.878   3.238
 8150SOL     OW26049   5.565   5.761   2.825
 8150SOL    HW126050   5.604   5.676   2.789
 8150SOL    HW226051   5.467   5.763   2.806
 8151SOL     OW26052   3.987   5.912   2.582
 8151SOL    HW126053   3.908   5.963   2.548
 8151SOL    HW226054   3.978   5.897   2.680
 8152SOL     OW26055   4.918   7.198   1.893
 8152SOL    HW126056   4.924   7.105   1.930
 8152SOL    HW226057   4.859   7.198   1.813
 8153SOL     OW26058   4.546   6.588   3.234
 8153SOL    HW126059   4.586   6.587   3.142
 8153SOL    HW226060   4.556   6.680   3.274
 8154SOL     OW26061   4.640   6.496   2.153
 8154SOL    HW126062   4.703   6.534   2.085
 8154SOL    HW226063   4.680   6.413   2.192
 8155SOL     OW26064   4.096   6.874   3.352
 8155SOL    HW126065   4.083   6.967   3.318
 8155SOL    HW226066   4.012   6.822   3.339
 8156SOL     OW26067   5.338   6.878   3.151
 8156SOL    HW126068   5.398   6.881   3.231
 8156SOL    HW226069   5.263   6.942   3.164
 8157SOL     OW26070   4.763   6.684   2.558
 8157SOL    HW126071   4.693   6.637   2.612
 8157SOL    HW226072   4.822   6.616   2.515
 8158SOL     OW26073   4.738   5.822   2.833
 8158SOL    HW126074   4.730   5.786   2.740
 8158SOL    HW226075   4.736   5.746   2.898
 8159SOL     OW26076   5.433   5.971   3.243
 8159SOL    HW126077   5.506   6.040   3.247
 8159SOL    HW226078   5.461   5.896   3.184
 8160SOL     OW26079   3.829   6.599   3.588
 8160SOL    HW126080   3.752   6.566   3.642
 8160SOL    HW226081   3.914   6.569   3.630
 8161SOL     OW26082   4.396   5.789   3.351
 8161SOL    HW126083   4.486   5.773   3.311
 8161SOL    HW226084   4.404   5.794   3.450
 8162SOL     OW26085   3.799   5.931   1.895
 8162SOL    HW126086   3.707   5.903   1.866
 8162SOL    HW226087   3.830   6.008   1.839
 8163SOL     OW26088   5.164   6.442   3.260
 8163SOL    HW126089   5.107   6.494   3.197
 8163SOL    HW226090   5.260   6.454   3.236
 8164SOL     OW26091   3.796   5.752   2.180
 8164SOL    HW126092   3.779   5.835   2.126
 8164SOL    HW226093   3.886   5.715   2.158
 8165SOL     OW26094   4.337   6.428   3.293
 8165SOL    HW126095   4.393   6.509   3.276
 8165SOL    HW226096   4.396   6.348   3.296
 8166SOL     OW26097   4.440   6.151   3.570
 8166SOL    HW126098   4.459   6.216   3.644
 8166SOL    HW226099   4.500   6.071   3.579
 8167SOL     OW26100   5.174   6.806   3.495
 8167SOL    HW126101   5.165   6.796   3.594
 8167SOL    HW226102   5.270   6.799   3.469
 8168SOL     OW26103   5.398   6.469   3.116
 8168SOL    HW126104   5.371   6.380   3.079
 8168SOL    HW226105   5.399   6.537   3.043
 8169SOL     OW26106   4.949   5.911   2.311
 8169SOL    HW126107   5.014   5.837   2.300
 8169SOL    HW226108   4.969   5.961   2.395
 8170SOL     OW26109   4.318   6.331   2.514
 8170SOL    HW126110   4.368   6.416   2.495
 8170SOL    HW226111   4.230   6.333   2.466
 8171SOL     OW26112   5.501   5.928   3.504
 8171SOL    HW126113   5.484   5.959   3.410
 8171SOL    HW226114   5.417   5.891   3.542
 8172SOL     OW26115   5.454   6.520   3.379
 8172SOL    HW126116   5.492   6.611   3.394
 8172SOL    HW226117   5.446   6.503   3.280
 8173SOL     OW26118   4.583   6.542   2.723
 8173SOL    HW126119   4.637   6.473   2.771
 8173SOL    HW226120   4.551   6.611   2.789
 8174SOL     OW26121   4.807   6.570   1.949
 8174SOL    HW126122   4.784   6.623   1.867
 8174SOL    HW226123   4.888   6.514   1.930
 8175SOL     OW26124   3.803   6.826   2.515
 8175SOL    HW126125   3.802   6.779   2.603
 8175SOL    HW226126   3.885   6.798   2.464
 8176SOL     OW26127   4.396   6.977   3.486
 8176SOL    HW126128   4.318   6.927   3.524
 8176SOL    HW226129   4.393   7.072   3.517
 8177SOL     OW26130   5.548   5.778   3.089
 8177SOL    HW126131   5.544   5.688   3.133
 8177SOL    HW226132   5.551   5.767   2.990
 8178SOL     OW26133   4.152   6.010   2.382
 8178SOL    HW126134   4.182   5.938   2.320
 8178SOL    HW226135   4.113   5.970   2.465
 8179SOL     OW26136   5.429   7.073   2.966
 8179SOL    HW126137   5.336   7.048   2.939
 8179SOL    HW226138   5.455   7.023   3.048
 8180SOL     OW26139   4.041   6.133   3.142
 8180SOL    HW126140   4.079   6.074   3.214
 8180SOL    HW226141   4.081   6.107   3.054
 8181SOL     OW26142   5.148   5.800   2.974
 8181SOL    HW126143   5.200   5.735   3.029
 8181SOL    HW226144   5.099   5.863   3.035
 8182SOL     OW26145   4.725   5.620   3.016
 8182SOL    HW126146   4.662   5.548   2.985
 8182SOL    HW226147   4.818   5.584   3.016
 8183SOL     OW26148   4.494   6.916   2.163
 8183SOL    HW126149   4.448   6.829   2.180
 8183SOL    HW226150   4.585   6.913   2.204
 8184SOL     OW26151   5.076   5.638   2.030
 8184SOL    HW126152   5.111   5.597   1.946
 8184SOL    HW226153   4.986   5.600   2.050
 8185SOL     OW26154   5.024   6.039   2.553
 8185SOL    HW126155   4.965   6.119   2.557
 8185SOL    HW226156   5.039   6.004   2.646
 8186SOL     OW26157   5.317   5.807   2.744
 8186SOL    HW126158   5.233   5.806   2.798
 8186SOL    HW226159   5.319   5.890   2.688
 8187SOL     OW26160   3.763   6.663   2.162
 8187SOL    HW126161   3.862   6.652   2.153
 8187SOL    HW226162   3.723   6.577   2.194
 8188SOL     OW26163   3.954   6.214   3.837
 8188SOL    HW126164   3.861   6.212   3.874
 8188SOL    HW226165   3.955   6.175   3.745
 8189SOL     OW26166   3.949   5.861   4.720
 8189SOL    HW126167   3.984   5.844   4.812
 8189SOL    HW226168   3.861   5.816   4.708
 8190SOL     OW26169   3.743   5.954   4.371
 8190SOL    HW126170   3.661   5.997   4.410
 8190SOL    HW226171   3.715   5.881   4.308
 8191SOL     OW26172   4.293   6.861   4.889
 8191SOL    HW126173   4.200   6.854   4.852
 8191SOL    HW226174   4.304   6.950   4.933
 8192SOL     OW26175   5.279   7.097   4.427
 8192SOL    HW126176   5.222   7.081   4.508
 8192SOL    HW226177   5.220   7.107   4.347
 8193SOL     OW26178   4.859   6.289   4.441
 8193SOL    HW126179   4.916   6.367   4.416
 8193SOL    HW226180   4.799   6.315   4.517
 8194SOL     OW26181   5.479   6.193   3.955
 8194SOL    HW126182   5.467   6.180   3.856
 8194SOL    HW226183   5.449   6.112   4.004
 8195SOL     OW26184   4.492   6.730   4.747
 8195SOL    HW126185   4.414   6.747   4.807
 8195SOL    HW226186   4.526   6.817   4.711
 8196SOL     OW26187   4.574   6.384   5.547
 8196SOL    HW126188   4.570   6.460   5.612
 8196SOL    HW226189   4.596   6.420   5.456
 8197SOL     OW26190   4.409   6.598   4.389
 8197SOL    HW126191   4.478   6.582   4.459
 8197SOL    HW226192   4.336   6.655   4.427
 8198SOL     OW26193   4.410   6.747   5.527
 8198SOL    HW126194   4.470   6.826   5.541
 8198SOL    HW226195   4.324   6.778   5.486
 8199SOL     OW26196   4.059   7.021   4.785
 8199SOL    HW126197   3.981   6.990   4.732
 8199SOL    HW226198   4.117   7.079   4.728
 8200SOL     OW26199   4.162   5.978   5.223
 8200SOL    HW126200   4.244   5.922   5.232
 8200SOL    HW226201   4.081   5.920   5.227
 8201SOL     OW26202   5.327   6.033   4.461
 8201SOL    HW126203   5.253   6.079   4.411
 8201SOL    HW226204   5.378   6.101   4.514
 8202SOL     OW26205   3.964   6.677   4.610
 8202SOL    HW126206   3.978   6.593   4.662
 8202SOL    HW226207   3.909   6.741   4.665
 8203SOL     OW26208   4.330   6.550   3.847
 8203SOL    HW126209   4.337   6.634   3.793
 8203SOL    HW226210   4.376   6.563   3.935
 8204SOL     OW26211   5.318   5.700   5.204
 8204SOL    HW126212   5.300   5.767   5.132
 8204SOL    HW226213   5.315   5.746   5.293
 8205SOL     OW26214   3.846   6.229   4.287
 8205SOL    HW126215   3.801   6.141   4.304
 8205SOL    HW226216   3.845   6.283   4.371
 8206SOL     OW26217   5.413   6.508   4.336
 8206SOL    HW126218   5.508   6.479   4.344
 8206SOL    HW226219   5.405   6.573   4.261
 8207SOL     OW26220   5.365   6.694   4.156
 8207SOL    HW126221   5.451   6.696   4.104
 8207SOL    HW226222   5.379   6.741   4.244
 8208SOL     OW26223   3.837   6.323   5.321
 8208SOL    HW126224   3.925   6.310   5.366
 8208SOL    HW226225   3.824   6.420   5.299
 8209SOL     OW26226   5.017   6.814   5.147
 8209SOL    HW126227   5.054   6.741   5.089
 8209SOL    HW226228   5.069   6.819   5.232
 8210SOL     OW26229   3.921   6.562   4.988
 8210SOL    HW126230   4.010   6.517   4.974
 8210SOL    HW226231   3.848   6.497   4.969
 8211SOL     OW26232   5.249   6.585   3.914
 8211SOL    HW126233   5.186   6.509   3.927
 8211SOL    HW226234   5.297   6.603   4.000
 8212SOL     OW26235   5.190   7.003   4.677
 8212SOL    HW126236   5.131   7.009   4.757
 8212SOL    HW226237   5.175   6.915   4.631
 8213SOL     OW26238   4.322   6.315   3.994
 8213SOL    HW126239   4.346   6.384   3.926
 8213SOL    HW226240   4.244   6.348   4.048
 8214SOL     OW26241   5.005   5.931   4.668
 8214SOL    HW126242   4.919   5.881   4.655
 8214SOL    HW226243   5.067   5.877   4.724
 8215SOL     OW26244   4.531   6.191   5.189
 8215SOL    HW126245   4.484   6.188   5.278
 8215SOL    HW226246   4.480   6.136   5.123
 8216SOL     OW26247   5.118   6.055   5.398
 8216SOL    HW126248   5.098   6.098   5.486
 8216SOL    HW226249   5.196   5.993   5.407
 8217SOL     OW26250   4.697   6.476   5.296
 8217SOL    HW126251   4.743   6.392   5.267
 8217SOL    HW226252   4.641   6.510   5.221
 8218SOL     OW26253   4.715   5.996   4.966
 8218SOL    HW126254   4.638   6.030   5.020
 8218SOL    HW226255   4.681   5.945   4.887
 8219SOL     OW26256   4.765   6.287   4.153
 8219SOL    HW126257   4.791   6.283   4.249
 8219SOL    HW226258   4.680   6.236   4.139
 8220SOL     OW26259   3.800   6.397   4.513
 8220SOL    HW126260   3.899   6.385   4.522
 8220SOL    HW226261   3.776   6.492   4.534
 8221SOL     OW26262   4.589   5.934   3.919
 8221SOL    HW126263   4.648   5.997   3.870
 8221SOL    HW226264   4.608   5.840   3.890
 8222SOL     OW26265   5.443   6.171   5.555
 8222SOL    HW126266   5.417   6.260   5.519
 8222SOL    HW226267   5.441   6.103   5.482
 8223SOL     OW26268   5.086   6.730   4.269
 8223SOL    HW126269   5.169   6.701   4.221
 8223SOL    HW226270   5.037   6.797   4.213
 8224SOL     OW26271   4.274   5.782   4.609
 8224SOL    HW126272   4.269   5.777   4.709
 8224SOL    HW226273   4.276   5.878   4.580
 8225SOL     OW26274   5.519   6.652   4.597
 8225SOL    HW126275   5.457   6.637   4.521
 8225SOL    HW226276   5.467   6.663   4.682
 8226SOL     OW26277   4.045   6.529   3.966
 8226SOL    HW126278   4.127   6.568   3.924
 8226SOL    HW226279   4.018   6.447   3.917
 8227SOL     OW26280   5.182   6.321   4.452
 8227SOL    HW126281   5.177   6.256   4.527
 8227SOL    HW226282   5.262   6.380   4.465
 8228SOL     OW26283   5.356   6.963   3.805
 8228SOL    HW126284   5.324   7.057   3.795
 8228SOL    HW226285   5.280   6.900   3.793
 8229SOL     OW26286   5.124   5.693   4.150
 8229SOL    HW126287   5.100   5.656   4.060
 8229SOL    HW226288   5.223   5.709   4.154
 8230SOL     OW26289   4.106   6.286   4.204
 8230SOL    HW126290   4.151   6.196   4.201
 8230SOL    HW226291   4.012   6.275   4.237
 8231SOL     OW26292   5.271   5.808   5.453
 8231SOL    HW126293   5.266   5.845   5.545
 8231SOL    HW226294   5.199   5.739   5.441
 8232SOL     OW26295   4.338   5.708   3.841
 8232SOL    HW126296   4.436   5.686   3.848
 8232SOL    HW226297   4.307   5.691   3.748
 8233SOL     OW26298   4.505   5.850   5.473
 8233SOL    HW126299   4.572   5.789   5.516
 8233SOL    HW226300   4.432   5.869   5.538
 8234SOL     OW26301   5.075   6.176   5.157
 8234SOL    HW126302   5.103   6.133   5.242
 8234SOL    HW226303   5.100   6.272   5.158
 8235SOL     OW26304   4.646   6.089   4.623
 8235SOL    HW126305   4.621   6.080   4.527
 8235SOL    HW226306   4.694   6.007   4.654
 8236SOL     OW26307   5.158   6.774   3.765
 8236SOL    HW126308   5.190   6.698   3.822
 8236SOL    HW226309   5.066   6.801   3.795
 8237SOL     OW26310   4.659   5.822   4.204
 8237SOL    HW126311   4.611   5.863   4.126
 8237SOL    HW226312   4.758   5.820   4.185
 8238SOL     OW26313   4.800   6.269   5.188
 8238SOL    HW126314   4.720   6.208   5.191
 8238SOL    HW226315   4.881   6.216   5.164
 8239SOL     OW26316   4.951   7.156   4.517
 8239SOL    HW126317   4.972   7.230   4.452
 8239SOL    HW226318   5.019   7.156   4.590
 8240SOL     OW26319   4.183   6.738   4.465
 8240SOL    HW126320   4.112   6.711   4.530
 8240SOL    HW226321   4.157   6.710   4.372
 8241SOL     OW26322   4.756   6.135   3.740
 8241SOL    HW126323   4.715   6.217   3.701
 8241SOL    HW226324   4.820   6.161   3.813
 8242SOL     OW26325   4.285   5.808   4.871
 8242SOL    HW126326   4.323   5.724   4.908
 8242SOL    HW226327   4.197   5.827   4.915
 8243SOL     OW26328   4.590   6.040   4.366
 8243SOL    HW126329   4.558   6.112   4.304
 8243SOL    HW226330   4.614   5.959   4.313
 8244SOL     OW26331   4.741   5.625   4.477
 8244SOL    HW126332   4.669   5.630   4.408
 8244SOL    HW226333   4.717   5.556   4.546
 8245SOL     OW26334   5.153   6.759   4.591
 8245SOL    HW126335   5.098   6.675   4.584
 8245SOL    HW226336   5.179   6.788   4.499
 8246SOL     OW26337   5.190   6.176   4.716
 8246SOL    HW126338   5.160   6.081   4.723
 8246SOL    HW226339   5.263   6.192   4.782
 8247SOL     OW26340   5.581   6.419   4.101
 8247SOL    HW126341   5.623   6.355   4.165
 8247SOL    HW226342   5.543   6.368   4.023
 8248SOL     OW26343   5.388   6.866   4.381
 8248SOL    HW126344   5.487   6.874   4.395
 8248SOL    HW226345   5.343   6.950   4.412
 8249SOL     OW26346   5.114   6.161   3.802
 8249SOL    HW126347   5.060   6.140   3.883
 8249SOL    HW226348   5.205   6.120   3.811
 8250SOL     OW26349   4.251   5.842   4.052
 8250SOL    HW126350   4.278   5.783   3.977
 8250SOL    HW226351   4.251   5.937   4.021
 8251SOL     OW26352   5.478   6.809   5.312
 8251SOL    HW126353   5.569   6.770   5.299
 8251SOL    HW226354   5.486   6.905   5.336
 8252SOL     OW26355   4.788   6.933   5.064
 8252SOL    HW126356   4.708   6.910   5.119
 8252SOL    HW226357   4.871   6.907   5.113
 8253SOL     OW26358   4.835   6.781   4.824
 8253SOL    HW126359   4.795   6.825   4.905
 8253SOL    HW226360   4.794   6.818   4.741
 8254SOL     OW26361   5.362   6.685   4.803
 8254SOL    HW126362   5.367   6.766   4.862
 8254SOL    HW226363   5.276   6.687   4.752
 8255SOL     OW26364   4.639   5.675   5.126
 8255SOL    HW126365   4.664   5.655   5.031
 8255SOL    HW226366   4.711   5.731   5.168
 8256SOL     OW26367   4.704   6.702   5.443
 8256SOL    HW126368   4.605   6.708   5.453
 8256SOL    HW226369   4.727   6.622   5.387
 8257SOL     OW26370   4.429   6.636   4.092
 8257SOL    HW126371   4.415   6.643   4.191
 8257SOL    HW226372   4.513   6.585   4.074
 8258SOL     OW26373   4.134   6.399   4.975
 8258SOL    HW126374   4.220   6.411   5.025
 8258SOL    HW226375   4.092   6.312   5.002
 8259SOL     OW26376   4.998   5.972   4.986
 8259SOL    HW126377   5.019   6.046   5.050
 8259SOL    HW226378   4.909   5.989   4.943
 8260SOL     OW26379   4.091   6.686   4.225
 8260SOL    HW126380   4.084   6.769   4.169
 8260SOL    HW226381   4.095   6.606   4.165
 8261SOL     OW26382   4.290   6.123   4.589
 8261SOL    HW126383   4.302   6.189   4.515
 8261SOL    HW226384   4.336   6.157   4.672
 8262SOL     OW26385   5.306   6.225   4.196
 8262SOL    HW126386   5.275   6.286   4.269
 8262SOL    HW226387   5.356   6.277   4.127
 8263SOL     OW26388   4.126   6.337   5.322
 8263SOL    HW126389   4.194   6.392   5.275
 8263SOL    HW226390   4.166   6.249   5.349
 8264SOL     OW26391   5.311   6.365   5.394
 8264SOL    HW126392   5.219   6.403   5.389
 8264SOL    HW226393   5.371   6.412   5.329
 8265SOL     OW26394   4.737   5.691   5.494
 8265SOL    HW126395   4.743   5.776   5.442
 8265SOL    HW226396   4.769   5.615   5.437
 8266SOL     OW26397   4.228   5.636   5.464
 8266SOL    HW126398   4.186   5.579   5.394
 8266SOL    HW226399   4.162   5.705   5.496
 8267SOL     OW26400   4.297   6.456   4.753
 8267SOL    HW126401   4.341   6.545   4.744
 8267SOL    HW226402   4.234   6.456   4.830
 8268SOL     OW26403   5.084   6.448   4.769
 8268SOL    HW126404   5.009   6.448   4.703
 8268SOL    HW226405   5.121   6.356   4.778
 8269SOL     OW26406   4.933   6.111   3.999
 8269SOL    HW126407   4.946   6.027   4.053
 8269SOL    HW226408   4.904   6.185   4.059
 8270SOL     OW26409   3.761   6.896   5.006
 8270SOL    HW126410   3.814   6.847   5.074
 8270SOL    HW226411   3.783   6.994   5.011
 8271SOL     OW26412   4.456   6.220   4.788
 8271SOL    HW126413   4.515   6.194   4.712
 8271SOL    HW226414   4.428   6.316   4.777
 8272SOL     OW26415   5.452   6.521   5.578
 8272SOL    HW126416   5.406   6.514   5.489
 8272SOL    HW226417   5.390   6.565   5.644
 8273SOL     OW26418   5.346   5.953   4.098
 8273SOL    HW126419   5.348   5.877   4.162
 8273SOL    HW226420   5.298   6.030   4.138
 8274SOL     OW26421   4.747   6.352   4.690
 8274SOL    HW126422   4.762   6.373   4.786
 8274SOL    HW226423   4.717   6.257   4.681
 8275SOL     OW26424   5.583   7.104   5.329
 8275SOL    HW126425   5.597   7.131   5.234
 8275SOL    HW226426   5.666   7.126   5.382
 8276SOL     OW26427   4.074   6.484   5.528
 8276SOL    HW126428   4.150   6.528   5.576
 8276SOL    HW226429   4.109   6.437   5.446
 8277SOL     OW26430   5.264   5.860   3.849
 8277SOL    HW126431   5.203   5.785   3.872
 8277SOL    HW226432   5.286   5.912   3.932
 8278SOL     OW26433   5.027   6.424   3.766
 8278SOL    HW126434   5.061   6.331   3.781
 8278SOL    HW226435   5.045   6.451   3.671
 8279SOL     OW26436   4.862   5.966   5.402
 8279SOL    HW126437   4.817   6.029   5.466
 8279SOL    HW226438   4.955   5.997   5.385
 8280SOL     OW26439   4.884   5.793   5.201
 8280SOL    HW126440   4.884   5.857   5.278
 8280SOL    HW226441   4.912   5.841   5.118
 8281SOL     OW26442   4.726   6.382   4.962
 8281SOL    HW126443   4.767   6.350   5.048
 8281SOL    HW226444   4.630   6.355   4.959
 8282SOL     OW26445   3.913   6.106   5.446
 8282SOL    HW126446   3.972   6.066   5.376
 8282SOL    HW226447   3.855   6.177   5.405
 8283SOL     OW26448   5.093   6.536   5.384
 8283SOL    HW126449   5.132   6.625   5.404
 8283SOL    HW226450   5.103   6.516   5.287
 8284SOL     OW26451   4.539   6.158   4.049
 8284SOL    HW126452   4.546   6.069   4.003
 8284SOL    HW226453   4.445   6.192   4.041
 8285SOL     OW26454   5.381   6.190   4.930
 8285SOL    HW126455   5.343   6.121   4.992
 8285SOL    HW226456   5.463   6.154   4.886
 8286SOL     OW26457   4.395   6.050   4.993
 8286SOL    HW126458   4.361   5.961   4.963
 8286SOL    HW226459   4.421   6.104   4.913
 8287SOL     OW26460   4.197   6.086   3.915
 8287SOL    HW126461   4.258   6.166   3.919
 8287SOL    HW226462   4.102   6.117   3.922
 8288SOL     OW26463   3.883   6.723   5.190
 8288SOL    HW126464   3.905   6.662   5.266
 8288SOL    HW226465   3.893   6.674   5.104
 8289SOL     OW26466   5.071   6.645   4.958
 8289SOL    HW126467   5.095   6.582   4.884
 8289SOL    HW226468   4.981   6.685   4.940
 8290SOL     OW26469   5.026   6.441   4.033
 8290SOL    HW126470   4.940   6.410   4.075
 8290SOL    HW226471   5.022   6.427   3.934
 8291SOL     OW26472   3.807   6.844   4.746
 8291SOL    HW126473   3.802   6.843   4.846
 8291SOL    HW226474   3.724   6.803   4.708
 8292SOL     OW26475   5.450   5.721   4.247
 8292SOL    HW126476   5.523   5.704   4.180
 8292SOL    HW226477   5.419   5.634   4.285
 8293SOL     OW26478   5.004   6.513   4.396
 8293SOL    HW126479   5.064   6.432   4.398
 8293SOL    HW226480   5.044   6.582   4.336
 8294SOL     OW26481   4.554   6.859   5.146
 8294SOL    HW126482   4.549   6.892   5.241
 8294SOL    HW226483   4.468   6.878   5.100
 8295SOL     OW26484   5.565   5.761   4.687
 8295SOL    HW126485   5.604   5.676   4.651
 8295SOL    HW226486   5.467   5.763   4.668
 8296SOL     OW26487   3.987   5.912   4.444
 8296SOL    HW126488   3.908   5.963   4.410
 8296SOL    HW226489   3.978   5.897   4.542
 8297SOL     OW26490   4.918   7.198   3.755
 8297SOL    HW126491   4.924   7.105   3.792
 8297SOL    HW226492   4.859   7.198   3.675
 8298SOL     OW26493   4.546   6.588   5.096
 8298SOL    HW126494   4.586   6.587   5.004
 8298SOL    HW226495   4.556   6.680   5.136
 8299SOL     OW26496   4.640   6.496   4.015
 8299SOL    HW126497   4.703   6.534   3.947
 8299SOL    HW226498   4.680   6.413   4.054
 8300SOL     OW26499   4.096   6.874   5.214
 8300SOL    HW126500   4.083   6.967   5.180
 8300SOL    HW226501   4.012   6.822   5.201
 8301SOL     OW26502   5.338   6.878   5.013
 8301SOL    HW126503   5.398   6.881   5.093
 8301SOL    HW226504   5.263   6.942   5.026
 8302SOL     OW26505   4.763   6.684   4.420
 8302SOL    HW126506   4.693   6.637   4.474
 8302SOL    HW226507   4.822   6.616   4.377
 8303SOL     OW26508   4.738   5.822   4.695
 8303SOL    HW126509   4.730   5.786   4.602
 8303SOL    HW226510   4.736   5.746   4.760
 8304SOL     OW26511   5.433   5.971   5.105
 8304SOL    HW126512   5.506   6.040   5.109
 8304SOL    HW226513   5.461   5.896   5.046
 8305SOL     OW26514   3.829   6.599   5.450
 8305SOL    HW126515   3.752   6.566   5.504
 8305SOL    HW226516   3.914   6.569   5.492
 8306SOL     OW26517   4.396   5.789   5.213
 8306SOL    HW126518   4.486   5.773   5.173
 8306SOL    HW226519   4.404   5.794   5.312
 8307SOL     OW26520   3.799   5.931   3.757
 8307SOL    HW126521   3.707   5.903   3.728
 8307SOL    HW226522   3.830   6.008   3.701
 8308SOL     OW26523   5.164   6.442   5.122
 8308SOL    HW126524   5.107   6.494   5.059
 8308SOL    HW226525   5.260   6.454   5.098
 8309SOL     OW26526   3.796   5.752   4.042
 8309SOL    HW126527   3.779   5.835   3.988
 8309SOL    HW226528   3.886   5.715   4.020
 8310SOL     OW26529   4.337   6.428   5.155
 8310SOL    HW126530   4.393   6.509   5.138
 8310SOL    HW226531   4.396   6.348   5.158
 8311SOL     OW26532   4.440   6.151   5.432
 8311SOL    HW126533   4.459   6.216   5.506
 8311SOL    HW226534   4.500   6.071   5.441
 8312SOL     OW26535   5.174   6.806   5.357
 8312SOL    HW126536   5.165   6.796   5.456
 8312SOL    HW226537   5.270   6.799   5.331
 8313SOL     OW26538   5.398   6.469   4.978
 8313SOL    HW126539   5.371   6.380   4.941
 8313SOL    HW226540   5.399   6.537   4.905
 8314SOL     OW26541   4.949   5.911   4.173
 8314SOL    HW126542   5.014   5.837   4.162
 8314SOL    HW226543   4.969   5.961   4.257
 8315SOL     OW26544   4.318   6.331   4.376
 8315SOL    HW126545   4.368   6.416   4.357
 8315SOL    HW226546   4.230   6.333   4.328
 8316SOL     OW26547   5.501   5.928   5.366
 8316SOL    HW126548   5.484   5.959   5.272
 8316SOL    HW226549   5.417   5.891   5.404
 8317SOL     OW26550   5.454   6.520   5.241
 8317SOL    HW126551   5.492   6.611   5.256
 8317SOL    HW226552   5.446   6.503   5.142
 8318SOL     OW26553   4.583   6.542   4.585
 8318SOL    HW126554   4.637   6.473   4.633
 8318SOL    HW226555   4.551   6.611   4.651
 8319SOL     OW26556   4.807   6.570   3.811
 8319SOL    HW126557   4.784   6.623   3.729
 8319SOL    HW226558   4.888   6.514   3.792
 8320SOL     OW26559   3.945   6.900   5.568
 8320SOL    HW126560   3.880   6.827   5.547
 8320SOL    HW226561   3.949   6.914   5.666
 8321SOL     OW26562   3.803   6.826   4.377
 8321SOL    HW126563   3.802   6.779   4.465
 8321SOL    HW226564   3.885   6.798   4.326
 8322SOL     OW26565   4.396   6.977   5.348
 8322SOL    HW126566   4.318   6.927   5.386
 8322SOL    HW226567   4.393   7.072   5.379
 8323SOL     OW26568   5.548   5.778   4.951
 8323SOL    HW126569   5.544   5.688   4.995
 8323SOL    HW226570   5.551   5.767   4.852
 8324SOL     OW26571   4.152   6.010   4.244
 8324SOL    HW126572   4.182   5.938   4.182
 8324SOL    HW226573   4.113   5.970   4.327
 8325SOL     OW26574   5.429   7.073   4.828
 8325SOL    HW126575   5.336   7.048   4.801
 8325SOL    HW226576   5.455   7.023   4.910
 8326SOL     OW26577   5.148   5.800   4.836
 8326SOL    HW126578   5.200   5.735   4.891
 8326SOL    HW226579   5.099   5.863   4.897
 8327SOL     OW26580   4.725   5.620   4.878
 8327SOL    HW126581   4.662   5.548   4.847
 8327SOL    HW226582   4.818   5.584   4.878
 8328SOL     OW26583   4.494   6.916   4.025
 8328SOL    HW126584   4.448   6.829   4.042
 8328SOL    HW226585   4.585   6.913   4.066
 8329SOL     OW26586   5.076   5.638   3.892
 8329SOL    HW126587   5.111   5.597   3.808
 8329SOL    HW226588   4.986   5.600   3.912
 8330SOL     OW26589   5.024   6.039   4.415
 8330SOL    HW126590   4.965   6.119   4.419
 8330SOL    HW226591   5.039   6.004   4.508
 8331SOL     OW26592   5.317   5.807   4.606
 8331SOL    HW126593   5.233   5.806   4.660
 8331SOL    HW226594   5.319   5.890   4.550
 8332SOL     OW26595   3.763   6.663   4.024
 8332SOL    HW126596   3.862   6.652   4.015
 8332SOL    HW226597   3.723   6.577   4.056
 8333SOL     OW26598   3.954   6.214   5.699
 8333SOL    HW126599   3.861   6.212   5.736
 8333SOL    HW226600   3.955   6.175   5.607
 8334SOL     OW26601   3.949   5.861   6.582
 8334SOL    HW126602   3.984   5.844   6.674
 8334SOL    HW226603   3.861   5.816   6.570
 8335SOL     OW26604   3.743   5.954   6.233
 8335SOL    HW126605   3.661   5.997   6.272
 8335SOL    HW226606   3.715   5.881   6.170
 8336SOL     OW26607   4.293   6.861   6.751
 8336SOL    HW126608   4.200   6.854   6.714
 8336SOL    HW226609   4.304   6.950   6.795
 8337SOL     OW26610   5.279   7.097   6.289
 8337SOL    HW126611   5.222   7.081   6.370
 8337SOL    HW226612   5.220   7.107   6.209
 8338SOL     OW26613   4.859   6.289   6.303
 8338SOL    HW126614   4.916   6.367   6.278
 8338SOL    HW226615   4.799   6.315   6.379
 8339SOL     OW26616   5.479   6.193   5.817
 8339SOL    HW126617   5.467   6.180   5.718
 8339SOL    HW226618   5.449   6.112   5.866
 8340SOL     OW26619   4.492   6.730   6.609
 8340SOL    HW126620   4.414   6.747   6.669
 8340SOL    HW226621   4.526   6.817   6.573
 8341SOL     OW26622   4.409   6.598   6.251
 8341SOL    HW126623   4.478   6.582   6.321
 8341SOL    HW226624   4.336   6.655   6.289
 8342SOL     OW26625   4.059   7.021   6.647
 8342SOL    HW126626   3.981   6.990   6.594
 8342SOL    HW226627   4.117   7.079   6.590
 8343SOL     OW26628   5.327   6.033   6.323
 8343SOL    HW126629   5.253   6.079   6.273
 8343SOL    HW226630   5.378   6.101   6.376
 8344SOL     OW26631   3.964   6.677   6.472
 8344SOL    HW126632   3.978   6.593   6.524
 8344SOL    HW226633   3.909   6.741   6.527
 8345SOL     OW26634   4.330   6.550   5.709
 8345SOL    HW126635   4.337   6.634   5.655
 8345SOL    HW226636   4.376   6.563   5.797
 8346SOL     OW26637   3.846   6.229   6.149
 8346SOL    HW126638   3.801   6.141   6.166
 8346SOL    HW226639   3.845   6.283   6.233
 8347SOL     OW26640   5.413   6.508   6.198
 8347SOL    HW126641   5.508   6.479   6.206
 8347SOL    HW226642   5.405   6.573   6.123
 8348SOL     OW26643   5.365   6.694   6.018
 8348SOL    HW126644   5.451   6.696   5.966
 8348SOL    HW226645   5.379   6.741   6.106
 8349SOL     OW26646   4.533   5.590   6.088
 8349SOL    HW126647   4.573   5.681   6.079
 8349SOL    HW226648   4.433   5.598   6.094
 8350SOL     OW26649   3.921   6.562   6.850
 8350SOL    HW126650   4.010   6.517   6.836
 8350SOL    HW226651   3.848   6.497   6.831
 8351SOL     OW26652   5.249   6.585   5.776
 8351SOL    HW126653   5.186   6.509   5.789
 8351SOL    HW226654   5.297   6.603   5.862
 8352SOL     OW26655   5.190   7.003   6.539
 8352SOL    HW126656   5.131   7.009   6.619
 8352SOL    HW226657   5.175   6.915   6.493
 8353SOL     OW26658   4.322   6.315   5.856
 8353SOL    HW126659   4.346   6.384   5.788
 8353SOL    HW226660   4.244   6.348   5.910
 8354SOL     OW26661   5.005   5.931   6.530
 8354SOL    HW126662   4.919   5.881   6.517
 8354SOL    HW226663   5.067   5.877   6.586
 8355SOL     OW26664   4.531   6.191   7.051
 8355SOL    HW126665   4.484   6.188   7.140
 8355SOL    HW226666   4.480   6.136   6.985
 8356SOL     OW26667   4.715   5.996   6.828
 8356SOL    HW126668   4.638   6.030   6.882
 8356SOL    HW226669   4.681   5.945   6.749
 8357SOL     OW26670   4.765   6.287   6.015
 8357SOL    HW126671   4.791   6.283   6.111
 8357SOL    HW226672   4.680   6.236   6.001
 8358SOL     OW26673   3.800   6.397   6.375
 8358SOL    HW126674   3.899   6.385   6.384
 8358SOL    HW226675   3.776   6.492   6.396
 8359SOL     OW26676   4.589   5.934   5.781
 8359SOL    HW126677   4.648   5.997   5.732
 8359SOL    HW226678   4.608   5.840   5.752
 8360SOL     OW26679   5.086   6.730   6.131
 8360SOL    HW126680   5.169   6.701   6.083
 8360SOL    HW226681   5.037   6.797   6.075
 8361SOL     OW26682   4.274   5.782   6.471
 8361SOL    HW126683   4.269   5.777   6.571
 8361SOL    HW226684   4.276   5.878   6.442
 8362SOL     OW26685   5.519   6.652   6.459
 8362SOL    HW126686   5.457   6.637   6.383
 8362SOL    HW226687   5.467   6.663   6.544
 8363SOL     OW26688   4.045   6.529   5.828
 8363SOL    HW126689   4.127   6.568   5.786
 8363SOL    HW226690   4.018   6.447   5.779
 8364SOL     OW26691   5.182   6.321   6.314
 8364SOL    HW126692   5.177   6.256   6.389
 8364SOL    HW226693   5.262   6.380   6.327
 8365SOL     OW26694   5.356   6.963   5.667
 8365SOL    HW126695   5.324   7.057   5.657
 8365SOL    HW226696   5.280   6.900   5.655
 8366SOL     OW26697   5.124   5.693   6.012
 8366SOL    HW126698   5.100   5.656   5.922
 8366SOL    HW226699   5.223   5.709   6.016
 8367SOL     OW26700   4.106   6.286   6.066
 8367SOL    HW126701   4.151   6.196   6.063
 8367SOL    HW226702   4.012   6.275   6.099
 8368SOL     OW26703   4.338   5.708   5.703
 8368SOL    HW126704   4.436   5.686   5.710
 8368SOL    HW226705   4.307   5.691   5.610
 8369SOL     OW26706   4.646   6.089   6.485
 8369SOL    HW126707   4.621   6.080   6.389
 8369SOL    HW226708   4.694   6.007   6.516
 8370SOL     OW26709   4.263   5.650   6.098
 8370SOL    HW126710   4.182   5.651   6.156
 8370SOL    HW226711   4.266   5.733   6.043
 8371SOL     OW26712   5.158   6.774   5.627
 8371SOL    HW126713   5.190   6.698   5.684
 8371SOL    HW226714   5.066   6.801   5.657
 8372SOL     OW26715   4.659   5.822   6.066
 8372SOL    HW126716   4.611   5.863   5.988
 8372SOL    HW226717   4.758   5.820   6.047
 8373SOL     OW26718   4.951   7.156   6.379
 8373SOL    HW126719   4.972   7.230   6.314
 8373SOL    HW226720   5.019   7.156   6.452
 8374SOL     OW26721   4.183   6.738   6.327
 8374SOL    HW126722   4.112   6.711   6.392
 8374SOL    HW226723   4.157   6.710   6.234
 8375SOL     OW26724   4.756   6.135   5.602
 8375SOL    HW126725   4.715   6.217   5.563
 8375SOL    HW226726   4.820   6.161   5.675
 8376SOL     OW26727   4.285   5.808   6.733
 8376SOL    HW126728   4.323   5.724   6.770
 8376SOL    HW226729   4.197   5.827   6.777
 8377SOL     OW26730   4.590   6.040   6.228
 8377SOL    HW126731   4.558   6.112   6.166
 8377SOL    HW226732   4.614   5.959   6.175
 8378SOL     OW26733   4.741   5.625   6.339
 8378SOL    HW126734   4.669   5.630   6.270
 8378SOL    HW226735   4.717   5.556   6.408
 8379SOL     OW26736   5.153   6.759   6.453
 8379SOL    HW126737   5.098   6.675   6.446
 8379SOL    HW226738   5.179   6.788   6.361
 8380SOL     OW26739   5.190   6.176   6.578
 8380SOL    HW126740   5.160   6.081   6.585
 8380SOL    HW226741   5.263   6.192   6.644
 8381SOL     OW26742   5.581   6.419   5.963
 8381SOL    HW126743   5.623   6.355   6.027
 8381SOL    HW226744   5.543   6.368   5.885
 8382SOL     OW26745   5.388   6.866   6.243
 8382SOL    HW126746   5.487   6.874   6.257
 8382SOL    HW226747   5.343   6.950   6.274
 8383SOL     OW26748   5.114   6.161   5.664
 8383SOL    HW126749   5.060   6.140   5.745
 8383SOL    HW226750   5.205   6.120   5.673
 8384SOL     OW26751   4.251   5.842   5.914
 8384SOL    HW126752   4.278   5.783   5.839
 8384SOL    HW226753   4.251   5.937   5.883
 8385SOL     OW26754   5.478   6.809   7.174
 8385SOL    HW126755   5.569   6.770   7.161
 8385SOL    HW226756   5.486   6.905   7.198
 8386SOL     OW26757   4.788   6.933   6.926
 8386SOL    HW126758   4.708   6.910   6.981
 8386SOL    HW226759   4.871   6.907   6.975
 8387SOL     OW26760   4.835   6.781   6.686
 8387SOL    HW126761   4.795   6.825   6.767
 8387SOL    HW226762   4.794   6.818   6.603
 8388SOL     OW26763   5.362   6.685   6.665
 8388SOL    HW126764   5.367   6.766   6.724
 8388SOL    HW226765   5.276   6.687   6.614
 8389SOL     OW26766   4.429   6.636   5.954
 8389SOL    HW126767   4.415   6.643   6.053
 8389SOL    HW226768   4.513   6.585   5.936
 8390SOL     OW26769   4.134   6.399   6.837
 8390SOL    HW126770   4.220   6.411   6.887
 8390SOL    HW226771   4.092   6.312   6.864
 8391SOL     OW26772   4.998   5.972   6.848
 8391SOL    HW126773   5.019   6.046   6.912
 8391SOL    HW226774   4.909   5.989   6.805
 8392SOL     OW26775   4.091   6.686   6.087
 8392SOL    HW126776   4.084   6.769   6.031
 8392SOL    HW226777   4.095   6.606   6.027
 8393SOL     OW26778   4.290   6.123   6.451
 8393SOL    HW126779   4.302   6.189   6.377
 8393SOL    HW226780   4.336   6.157   6.534
 8394SOL     OW26781   5.306   6.225   6.058
 8394SOL    HW126782   5.275   6.286   6.131
 8394SOL    HW226783   5.356   6.277   5.989
 8395SOL     OW26784   4.297   6.456   6.615
 8395SOL    HW126785   4.341   6.545   6.606
 8395SOL    HW226786   4.234   6.456   6.692
 8396SOL     OW26787   5.084   6.448   6.631
 8396SOL    HW126788   5.009   6.448   6.565
 8396SOL    HW226789   5.121   6.356   6.640
 8397SOL     OW26790   4.933   6.111   5.861
 8397SOL    HW126791   4.946   6.027   5.915
 8397SOL    HW226792   4.904   6.185   5.921
 8398SOL     OW26793   4.031   5.799   6.817
 8398SOL    HW126794   4.008   5.836   6.907
 8398SOL    HW226795   4.001   5.704   6.811
 8399SOL     OW26796   3.761   6.896   6.868
 8399SOL    HW126797   3.814   6.847   6.936
 8399SOL    HW226798   3.783   6.994   6.873
 8400SOL     OW26799   4.456   6.220   6.650
 8400SOL    HW126800   4.515   6.194   6.574
 8400SOL    HW226801   4.428   6.316   6.639
 8401SOL     OW26802   4.031   5.649   6.204
 8401SOL    HW126803   4.020   5.743   6.237
 8401SOL    HW226804   4.026   5.586   6.281
 8402SOL     OW26805   5.346   5.953   5.960
 8402SOL    HW126806   5.348   5.877   6.024
 8402SOL    HW226807   5.298   6.030   6.000
 8403SOL     OW26808   4.747   6.352   6.552
 8403SOL    HW126809   4.762   6.373   6.648
 8403SOL    HW226810   4.717   6.257   6.543
 8404SOL     OW26811   5.264   5.860   5.711
 8404SOL    HW126812   5.203   5.785   5.734
 8404SOL    HW226813   5.286   5.912   5.794
 8405SOL     OW26814   5.027   6.424   5.628
 8405SOL    HW126815   5.061   6.331   5.643
 8405SOL    HW226816   5.045   6.451   5.533
 8406SOL     OW26817   4.043   6.396   6.535
 8406SOL    HW126818   4.136   6.432   6.540
 8406SOL    HW226819   4.037   6.311   6.587
 8407SOL     OW26820   4.063   6.095   6.592
 8407SOL    HW126821   4.011   6.012   6.575
 8407SOL    HW226822   4.140   6.100   6.528
 8408SOL     OW26823   4.884   5.793   7.063
 8408SOL    HW126824   4.884   5.857   7.140
 8408SOL    HW226825   4.912   5.841   6.980
 8409SOL     OW26826   3.732   6.912   5.786
 8409SOL    HW126827   3.639   6.933   5.755
 8409SOL    HW226828   3.742   6.813   5.799
 8410SOL     OW26829   4.726   6.382   6.824
 8410SOL    HW126830   4.767   6.350   6.910
 8410SOL    HW226831   4.630   6.355   6.821
 8411SOL     OW26832   3.764   6.130   6.700
 8411SOL    HW126833   3.849   6.097   6.659
 8411SOL    HW226834   3.777   6.145   6.798
 8412SOL     OW26835   4.539   6.158   5.911
 8412SOL    HW126836   4.546   6.069   5.865
 8412SOL    HW226837   4.445   6.192   5.903
 8413SOL     OW26838   5.381   6.190   6.792
 8413SOL    HW126839   5.343   6.121   6.854
 8413SOL    HW226840   5.463   6.154   6.748
 8414SOL     OW26841   4.395   6.050   6.855
 8414SOL    HW126842   4.361   5.961   6.825
 8414SOL    HW226843   4.421   6.104   6.775
 8415SOL     OW26844   4.197   6.086   5.777
 8415SOL    HW126845   4.258   6.166   5.781
 8415SOL    HW226846   4.102   6.117   5.784
 8416SOL     OW26847   3.883   6.723   7.052
 8416SOL    HW126848   3.905   6.662   7.128
 8416SOL    HW226849   3.893   6.674   6.966
 8417SOL     OW26850   5.071   6.645   6.820
 8417SOL    HW126851   5.095   6.582   6.746
 8417SOL    HW226852   4.981   6.685   6.802
 8418SOL     OW26853   5.026   6.441   5.895
 8418SOL    HW126854   4.940   6.410   5.937
 8418SOL    HW226855   5.022   6.427   5.796
 8419SOL     OW26856   3.807   6.844   6.608
 8419SOL    HW126857   3.802   6.843   6.708
 8419SOL    HW226858   3.724   6.803   6.570
 8420SOL     OW26859   5.450   5.721   6.109
 8420SOL    HW126860   5.523   5.704   6.042
 8420SOL    HW226861   5.419   5.634   6.147
 8421SOL     OW26862   5.004   6.513   6.258
 8421SOL    HW126863   5.064   6.432   6.260
 8421SOL    HW226864   5.044   6.582   6.198
 8422SOL     OW26865   4.554   6.859   7.008
 8422SOL    HW126866   4.549   6.892   7.103
 8422SOL    HW226867   4.468   6.878   6.962
 8423SOL     OW26868   5.565   5.761   6.549
 8423SOL    HW126869   5.604   5.676   6.513
 8423SOL    HW226870   5.467   5.763   6.530
 8424SOL     OW26871   3.987   5.912   6.306
 8424SOL    HW126872   3.908   5.963   6.272
 8424SOL    HW226873   3.978   5.897   6.404
 8425SOL     OW26874   4.918   7.198   5.617
 8425SOL    HW126875   4.924   7.105   5.654
 8425SOL    HW226876   4.859   7.198   5.537
 8426SOL     OW26877   4.546   6.588   6.958
 8426SOL    HW126878   4.586   6.587   6.866
 8426SOL    HW226879   4.556   6.680   6.998
 8427SOL     OW26880   4.640   6.496   5.877
 8427SOL    HW126881   4.703   6.534   5.809
 8427SOL    HW226882   4.680   6.413   5.916
 8428SOL     OW26883   4.096   6.874   7.076
 8428SOL    HW126884   4.083   6.967   7.042
 8428SOL    HW226885   4.012   6.822   7.063
 8429SOL     OW26886   5.338   6.878   6.875
 8429SOL    HW126887   5.398   6.881   6.955
 8429SOL    HW226888   5.263   6.942   6.888
 8430SOL     OW26889   4.763   6.684   6.282
 8430SOL    HW126890   4.693   6.637   6.336
 8430SOL    HW226891   4.822   6.616   6.239
 8431SOL     OW26892   4.738   5.822   6.557
 8431SOL    HW126893   4.730   5.786   6.464
 8431SOL    HW226894   4.736   5.746   6.622
 8432SOL     OW26895   5.433   5.971   6.967
 8432SOL    HW126896   5.506   6.040   6.971
 8432SOL    HW226897   5.461   5.896   6.908
 8433SOL     OW26898   4.396   5.789   7.075
 8433SOL    HW126899   4.486   5.773   7.035
 8433SOL    HW226900   4.404   5.794   7.174
 8434SOL     OW26901   5.174   6.806   7.219
 8434SOL    HW126902   5.165   6.796   7.318
 8434SOL    HW226903   5.270   6.799   7.193
 8435SOL     OW26904   5.398   6.469   6.840
 8435SOL    HW126905   5.371   6.380   6.803
 8435SOL    HW226906   5.399   6.537   6.767
 8436SOL     OW26907   4.949   5.911   6.035
 8436SOL    HW126908   5.014   5.837   6.024
 8436SOL    HW226909   4.969   5.961   6.119
 8437SOL     OW26910   4.318   6.331   6.238
 8437SOL    HW126911   4.368   6.416   6.219
 8437SOL    HW226912   4.230   6.333   6.190
 8438SOL     OW26913   5.454   6.520   7.103
 8438SOL    HW126914   5.492   6.611   7.118
 8438SOL    HW226915   5.446   6.503   7.004
 8439SOL     OW26916   4.583   6.542   6.447
 8439SOL    HW126917   4.637   6.473   6.495
 8439SOL    HW226918   4.551   6.611   6.513
 8440SOL     OW26919   4.807   6.570   5.673
 8440SOL    HW126920   4.784   6.623   5.591
 8440SOL    HW226921   4.888   6.514   5.654
 8441SOL     OW26922   3.803   6.826   6.239
 8441SOL    HW126923   3.802   6.779   6.327
 8441SOL    HW226924   3.885   6.798   6.188
 8442SOL     OW26925   5.548   5.778   6.813
 8442SOL    HW126926   5.544   5.688   6.857
 8442SOL    HW226927   5.551   5.767   6.714
 8443SOL     OW26928   4.152   6.010   6.106
 8443SOL    HW126929   4.182   5.938   6.044
 8443SOL    HW226930   4.113   5.970   6.189
 8444SOL     OW26931   5.429   7.073   6.690
 8444SOL    HW126932   5.336   7.048   6.663
 8444SOL    HW226933   5.455   7.023   6.772
 8445SOL     OW26934   4.041   6.133   6.866
 8445SOL    HW126935   4.079   6.074   6.938
 8445SOL    HW226936   4.081   6.107   6.778
 8446SOL     OW26937   5.148   5.800   6.698
 8446SOL    HW126938   5.200   5.735   6.753
 8446SOL    HW226939   5.099   5.863   6.759
 8447SOL     OW26940   4.725   5.620   6.740
 8447SOL    HW126941   4.662   5.548   6.709
 8447SOL    HW226942   4.818   5.584   6.740
 8448SOL     OW26943   4.494   6.916   5.887
 8448SOL    HW126944   4.448   6.829   5.904
 8448SOL    HW226945   4.585   6.913   5.928
 8449SOL     OW26946   5.076   5.638   5.754
 8449SOL    HW126947   5.111   5.597   5.670
 8449SOL    HW226948   4.986   5.600   5.774
 8450SOL     OW26949   5.024   6.039   6.277
 8450SOL    HW126950   4.965   6.119   6.281
 8450SOL    HW226951   5.039   6.004   6.370
 8451SOL     OW26952   5.317   5.807   6.468
 8451SOL    HW126953   5.233   5.806   6.522
 8451SOL    HW226954   5.319   5.890   6.412
 8452SOL     OW26955   3.763   6.663   5.886
 8452SOL    HW126956   3.862   6.652   5.877
 8452SOL    HW226957   3.723   6.577   5.918
 8453SOL     OW26958   5.816   0.628   0.113
 8453SOL    HW126959   5.723   0.626   0.150
 8453SOL    HW226960   5.817   0.589   0.021
 8454SOL     OW26961   5.811   0.275   0.996
 8454SOL    HW126962   5.846   0.258   1.088
 8454SOL    HW226963   5.723   0.230   0.984
 8455SOL     OW26964   5.605   0.368   0.647
 8455SOL    HW126965   5.523   0.411   0.686
 8455SOL    HW226966   5.577   0.295   0.584
 8456SOL     OW26967   6.155   1.275   1.165
 8456SOL    HW126968   6.062   1.268   1.128
 8456SOL    HW226969   6.166   1.364   1.209
 8457SOL     OW26970   7.141   1.511   0.703
 8457SOL    HW126971   7.084   1.495   0.784
 8457SOL    HW226972   7.082   1.521   0.623
 8458SOL     OW26973   6.721   0.703   0.717
 8458SOL    HW126974   6.778   0.781   0.692
 8458SOL    HW226975   6.661   0.729   0.793
 8459SOL     OW26976   6.354   1.144   1.023
 8459SOL    HW126977   6.276   1.161   1.083
 8459SOL    HW226978   6.388   1.231   0.987
 8460SOL     OW26979   6.436   0.798   1.823
 8460SOL    HW126980   6.432   0.874   1.888
 8460SOL    HW226981   6.458   0.834   1.732
 8461SOL     OW26982   6.271   1.012   0.665
 8461SOL    HW126983   6.340   0.996   0.735
 8461SOL    HW226984   6.198   1.069   0.703
 8462SOL     OW26985   6.272   1.161   1.803
 8462SOL    HW126986   6.332   1.240   1.817
 8462SOL    HW226987   6.186   1.192   1.762
 8463SOL     OW26988   5.921   1.435   1.061
 8463SOL    HW126989   5.843   1.404   1.008
 8463SOL    HW226990   5.979   1.493   1.004
 8464SOL     OW26991   6.024   0.392   1.499
 8464SOL    HW126992   6.106   0.336   1.508
 8464SOL    HW226993   5.943   0.334   1.503
 8465SOL     OW26994   5.817   1.713   0.483
 8465SOL    HW126995   5.851   1.790   0.537
 8465SOL    HW226996   5.861   1.713   0.393
 8466SOL     OW26997   5.816   1.434   0.538
 8466SOL    HW126998   5.790   1.530   0.538
 8466SOL    HW226999   5.745   1.380   0.583
 8467SOL     OW27000   5.826   1.091   0.886
 8467SOL    HW127001   5.840   1.007   0.938
 8467SOL    HW227002   5.771   1.155   0.941
 8468SOL     OW27003   6.206   1.786   1.439
 8468SOL    HW127004   6.114   1.769   1.474
 8468SOL    HW227005   6.234   1.878   1.465
 8469SOL     OW27006   6.192   0.964   0.123
 8469SOL    HW127007   6.199   1.048   0.069
 8469SOL    HW227008   6.238   0.977   0.211
 8470SOL     OW27009   5.708   0.643   0.563
 8470SOL    HW127010   5.663   0.555   0.580
 8470SOL    HW227011   5.707   0.697   0.647
 8471SOL     OW27012   5.613   1.596   0.117
 8471SOL    HW127013   5.594   1.500   0.138
 8471SOL    HW227014   5.580   1.654   0.192
 8472SOL     OW27015   5.699   0.737   1.597
 8472SOL    HW127016   5.787   0.724   1.642
 8472SOL    HW227017   5.686   0.834   1.575
 8473SOL     OW27018   6.199   1.365   0.726
 8473SOL    HW127019   6.150   1.278   0.735
 8473SOL    HW227020   6.176   1.408   0.639
 8474SOL     OW27021   6.395   0.004   0.502
 8474SOL    HW127022   6.435   0.095   0.493
 8474SOL    HW227023   6.295   0.012   0.508
 8475SOL     OW27024   5.783   0.976   1.264
 8475SOL    HW127025   5.872   0.931   1.250
 8475SOL    HW227026   5.710   0.911   1.245
 8476SOL     OW27027   5.903   0.251   1.801
 8476SOL    HW127028   5.974   0.322   1.807
 8476SOL    HW227029   5.815   0.290   1.829
 8477SOL     OW27030   6.184   0.729   0.270
 8477SOL    HW127031   6.208   0.798   0.202
 8477SOL    HW227032   6.106   0.762   0.324
 8478SOL     OW27033   6.867   0.345   0.944
 8478SOL    HW127034   6.781   0.295   0.931
 8478SOL    HW227035   6.929   0.291   1.000
 8479SOL     OW27036   6.393   0.605   1.465
 8479SOL    HW127037   6.346   0.602   1.554
 8479SOL    HW227038   6.342   0.550   1.399
 8480SOL     OW27039   6.980   0.469   1.674
 8480SOL    HW127040   6.960   0.512   1.762
 8480SOL    HW227041   7.058   0.407   1.683
 8481SOL     OW27042   6.559   0.890   1.572
 8481SOL    HW127043   6.605   0.806   1.543
 8481SOL    HW227044   6.503   0.924   1.497
 8482SOL     OW27045   6.577   0.410   1.242
 8482SOL    HW127046   6.500   0.444   1.296
 8482SOL    HW227047   6.543   0.359   1.163
 8483SOL     OW27048   6.627   0.701   0.429
 8483SOL    HW127049   6.653   0.697   0.525
 8483SOL    HW227050   6.542   0.650   0.415
 8484SOL     OW27051   5.662   0.811   0.789
 8484SOL    HW127052   5.761   0.799   0.798
 8484SOL    HW227053   5.638   0.906   0.810
 8485SOL     OW27054   5.716   1.821   1.571
 8485SOL    HW127055   5.706   1.806   1.670
 8485SOL    HW227056   5.630   1.857   1.535
 8486SOL     OW27057   6.451   0.348   0.195
 8486SOL    HW127058   6.510   0.411   0.146
 8486SOL    HW227059   6.470   0.254   0.166
 8487SOL     OW27060   6.948   1.144   0.545
 8487SOL    HW127061   7.031   1.115   0.497
 8487SOL    HW227062   6.899   1.211   0.489
 8488SOL     OW27063   6.136   0.196   0.885
 8488SOL    HW127064   6.131   0.191   0.985
 8488SOL    HW227065   6.138   0.292   0.856
 8489SOL     OW27066   6.594   1.456   0.477
 8489SOL    HW127067   6.548   1.528   0.425
 8489SOL    HW227068   6.590   1.476   0.575
 8490SOL     OW27069   5.937   1.801   0.853
 8490SOL    HW127070   5.987   1.715   0.859
 8490SOL    HW227071   6.002   1.878   0.850
 8491SOL     OW27072   5.907   0.943   0.242
 8491SOL    HW127073   5.989   0.982   0.200
 8491SOL    HW227074   5.880   0.861   0.193
 8492SOL     OW27075   6.047   1.266   1.727
 8492SOL    HW127076   5.997   1.267   1.641
 8492SOL    HW227077   5.984   1.248   1.803
 8493SOL     OW27078   6.697   1.776   0.237
 8493SOL    HW127079   6.637   1.714   0.287
 8493SOL    HW227080   6.728   1.732   0.152
 8494SOL     OW27081   5.788   0.285   1.498
 8494SOL    HW127082   5.708   0.345   1.485
 8494SOL    HW227083   5.778   0.236   1.584
 8495SOL     OW27084   7.218   1.377   0.081
 8495SOL    HW127085   7.186   1.471   0.071
 8495SOL    HW227086   7.142   1.314   0.069
 8496SOL     OW27087   6.050   1.743   0.323
 8496SOL    HW127088   6.083   1.782   0.409
 8496SOL    HW227089   6.126   1.736   0.258
 8497SOL     OW27090   5.835   1.785   1.241
 8497SOL    HW127091   5.892   1.720   1.291
 8497SOL    HW227092   5.819   1.752   1.148
 8498SOL     OW27093   5.968   0.700   0.480
 8498SOL    HW127094   6.013   0.610   0.477
 8498SOL    HW227095   5.874   0.689   0.513
 8499SOL     OW27096   6.200   0.122   0.117
 8499SOL    HW127097   6.298   0.100   0.124
 8499SOL    HW227098   6.169   0.105   0.024
 8500SOL     OW27099   6.367   0.264   1.749
 8500SOL    HW127100   6.434   0.203   1.792
 8500SOL    HW227101   6.294   0.283   1.814
 8501SOL     OW27102   6.474   1.514   1.195
 8501SOL    HW127103   6.451   1.489   1.101
 8501SOL    HW227104   6.535   1.445   1.234
 8502SOL     OW27105   6.389   1.402   0.924
 8502SOL    HW127106   6.479   1.416   0.882
 8502SOL    HW227107   6.318   1.404   0.853
 8503SOL     OW27108   6.508   0.503   0.899
 8503SOL    HW127109   6.483   0.494   0.803
 8503SOL    HW227110   6.556   0.421   0.930
 8504SOL     OW27111   6.125   0.064   0.512
 8504SOL    HW127112   6.044   0.065   0.570
 8504SOL    HW227113   6.128   0.147   0.457
 8505SOL     OW27114   5.883   0.035   0.171
 8505SOL    HW127115   5.932   0.119   0.150
 8505SOL    HW227116   5.945  -0.030   0.216
 8506SOL     OW27117   6.521   0.236   0.480
 8506SOL    HW127118   6.473   0.277   0.402
 8506SOL    HW227119   6.620   0.234   0.461
 8507SOL     OW27120   6.662   0.683   1.464
 8507SOL    HW127121   6.582   0.622   1.467
 8507SOL    HW227122   6.743   0.630   1.440
 8508SOL     OW27123   6.813   1.570   0.793
 8508SOL    HW127124   6.834   1.644   0.728
 8508SOL    HW227125   6.881   1.570   0.866
 8509SOL     OW27126   6.045   1.152   0.741
 8509SOL    HW127127   5.974   1.125   0.806
 8509SOL    HW227128   6.019   1.124   0.648
 8510SOL     OW27129   6.857   1.797   0.591
 8510SOL    HW127130   6.901   1.861   0.527
 8510SOL    HW227131   6.807   1.849   0.661
 8511SOL     OW27132   6.618   0.549   0.016
 8511SOL    HW127133   6.577   0.631  -0.023
 8511SOL    HW227134   6.682   0.575   0.089
 8512SOL     OW27135   5.664   0.556   1.386
 8512SOL    HW127136   5.756   0.555   1.345
 8512SOL    HW227137   5.658   0.630   1.453
 8513SOL     OW27138   6.147   0.222   1.147
 8513SOL    HW127139   6.185   0.138   1.184
 8513SOL    HW227140   6.059   0.241   1.191
 8514SOL     OW27141   6.452   0.454   0.642
 8514SOL    HW127142   6.420   0.526   0.580
 8514SOL    HW227143   6.476   0.373   0.589
 8515SOL     OW27144   6.603   0.039   0.753
 8515SOL    HW127145   6.531   0.044   0.684
 8515SOL    HW227146   6.579  -0.030   0.822
 8516SOL     OW27147   6.074   1.385   0.174
 8516SOL    HW127148   5.987   1.370   0.221
 8516SOL    HW227149   6.057   1.411   0.079
 8517SOL     OW27150   6.113   0.256   0.328
 8517SOL    HW127151   6.140   0.197   0.253
 8517SOL    HW227152   6.113   0.351   0.297
 8518SOL     OW27153   6.697   1.195   1.100
 8518SOL    HW127154   6.657   1.239   1.181
 8518SOL    HW227155   6.656   1.232   1.017
 8519SOL     OW27156   6.501   0.089   1.402
 8519SOL    HW127157   6.526   0.069   1.307
 8519SOL    HW227158   6.573   0.145   1.444
 8520SOL     OW27159   6.566   1.116   1.719
 8520SOL    HW127160   6.467   1.122   1.729
 8520SOL    HW227161   6.589   1.036   1.663
 8521SOL     OW27162   6.291   1.050   0.368
 8521SOL    HW127163   6.277   1.057   0.467
 8521SOL    HW227164   6.375   0.999   0.350
 8522SOL     OW27165   5.996   0.813   1.251
 8522SOL    HW127166   6.082   0.825   1.301
 8522SOL    HW227167   5.954   0.726   1.278
 8523SOL     OW27168   6.860   0.386   1.262
 8523SOL    HW127169   6.881   0.460   1.326
 8523SOL    HW227170   6.771   0.403   1.219
 8524SOL     OW27171   5.650   1.564   1.331
 8524SOL    HW127172   5.604   1.646   1.297
 8524SOL    HW227173   5.748   1.583   1.340
 8525SOL     OW27174   5.953   1.100   0.501
 8525SOL    HW127175   5.946   1.183   0.445
 8525SOL    HW227176   5.957   1.020   0.441
 8526SOL     OW27177   6.152   0.537   0.865
 8526SOL    HW127178   6.164   0.603   0.791
 8526SOL    HW227179   6.198   0.571   0.948
 8527SOL     OW27180   6.838   1.348   0.388
 8527SOL    HW127181   6.888   1.425   0.428
 8527SOL    HW227182   6.743   1.350   0.420
 8528SOL     OW27183   6.858   1.445   1.142
 8528SOL    HW127184   6.905   1.458   1.229
 8528SOL    HW227185   6.792   1.371   1.151
 8529SOL     OW27186   5.940   1.510   1.329
 8529SOL    HW127187   5.919   1.466   1.242
 8529SOL    HW227188   6.037   1.536   1.332
 8530SOL     OW27189   5.988   0.751   1.598
 8530SOL    HW127190   6.056   0.806   1.551
 8530SOL    HW227191   6.028   0.663   1.625
 8531SOL     OW27192   6.599   0.105   1.770
 8531SOL    HW127193   6.605   0.190   1.718
 8531SOL    HW227194   6.631   0.029   1.713
 8532SOL     OW27195   6.090   0.050   1.740
 8532SOL    HW127196   6.048  -0.007   1.670
 8532SOL    HW227197   6.024   0.119   1.772
 8533SOL     OW27198   6.159   0.870   1.029
 8533SOL    HW127199   6.203   0.959   1.020
 8533SOL    HW227200   6.096   0.870   1.106
 8534SOL     OW27201   6.946   0.862   1.045
 8534SOL    HW127202   6.871   0.862   0.979
 8534SOL    HW227203   6.983   0.770   1.054
 8535SOL     OW27204   6.795   0.525   0.275
 8535SOL    HW127205   6.808   0.441   0.329
 8535SOL    HW227206   6.766   0.599   0.335
 8536SOL     OW27207   5.893   0.213   1.231
 8536SOL    HW127208   5.870   0.250   1.321
 8536SOL    HW227209   5.863   0.118   1.225
 8537SOL     OW27210   5.623   1.310   1.282
 8537SOL    HW127211   5.676   1.261   1.350
 8537SOL    HW227212   5.645   1.408   1.287
 8538SOL     OW27213   6.318   0.634   1.064
 8538SOL    HW127214   6.377   0.608   0.988
 8538SOL    HW227215   6.290   0.730   1.053
 8539SOL     OW27216   5.893   0.063   0.618
 8539SOL    HW127217   5.882   0.157   0.651
 8539SOL    HW227218   5.888   0.000   0.695
 8540SOL     OW27219   7.208   0.367   0.374
 8540SOL    HW127220   7.210   0.291   0.438
 8540SOL    HW227221   7.160   0.444   0.414
 8541SOL     OW27222   6.609   0.766   0.966
 8541SOL    HW127223   6.624   0.787   1.062
 8541SOL    HW227224   6.579   0.671   0.957
 8542SOL     OW27225   5.936   0.898   1.804
 8542SOL    HW127226   6.012   0.942   1.852
 8542SOL    HW227227   5.971   0.851   1.722
 8543SOL     OW27228   6.889   0.838   0.042
 8543SOL    HW127229   6.923   0.745   0.057
 8543SOL    HW227230   6.907   0.865  -0.053
 8544SOL     OW27231   6.654   1.333   0.849
 8544SOL    HW127232   6.661   1.249   0.794
 8544SOL    HW227233   6.716   1.402   0.813
 8545SOL     OW27234   5.905   0.810   0.949
 8545SOL    HW127235   5.998   0.846   0.954
 8545SOL    HW227236   5.899   0.725   1.001
 8546SOL     OW27237   5.925   0.509   1.006
 8546SOL    HW127238   5.873   0.426   0.989
 8546SOL    HW227239   6.002   0.514   0.942
 8547SOL     OW27240   6.724   0.380   1.678
 8547SOL    HW127241   6.679   0.443   1.742
 8547SOL    HW227242   6.817   0.411   1.661
 8548SOL     OW27243   6.746   0.207   1.477
 8548SOL    HW127244   6.746   0.271   1.554
 8548SOL    HW227245   6.774   0.255   1.394
 8549SOL     OW27246   5.674   1.801   0.927
 8549SOL    HW127247   5.632   1.715   0.900
 8549SOL    HW227248   5.768   1.804   0.893
 8550SOL     OW27249   6.090   1.568   0.910
 8550SOL    HW127250   6.156   1.642   0.919
 8550SOL    HW227251   6.134   1.489   0.868
 8551SOL     OW27252   6.588   0.796   1.238
 8551SOL    HW127253   6.629   0.764   1.324
 8551SOL    HW227254   6.492   0.769   1.235
 8552SOL     OW27255   5.626   0.544   1.114
 8552SOL    HW127256   5.711   0.511   1.073
 8552SOL    HW227257   5.639   0.559   1.212
 8553SOL     OW27258   5.775   0.520   1.722
 8553SOL    HW127259   5.834   0.480   1.652
 8553SOL    HW227260   5.717   0.591   1.681
 8554SOL     OW27261   6.401   0.572   0.325
 8554SOL    HW127262   6.408   0.483   0.279
 8554SOL    HW227263   6.307   0.606   0.317
 8555SOL     OW27264   5.838   1.564   1.744
 8555SOL    HW127265   5.808   1.621   1.820
 8555SOL    HW227266   5.831   1.467   1.770
 8556SOL     OW27267   6.257   0.464   1.269
 8556SOL    HW127268   6.223   0.375   1.239
 8556SOL    HW227269   6.283   0.518   1.189
 8557SOL     OW27270   6.059   0.500   0.191
 8557SOL    HW127271   6.120   0.580   0.195
 8557SOL    HW227272   5.964   0.531   0.198
 8558SOL     OW27273   5.745   1.137   1.466
 8558SOL    HW127274   5.767   1.076   1.542
 8558SOL    HW227275   5.755   1.088   1.380
 8559SOL     OW27276   6.933   1.059   1.234
 8559SOL    HW127277   6.957   0.996   1.160
 8559SOL    HW227278   6.843   1.099   1.216
 8560SOL     OW27279   6.888   0.855   0.309
 8560SOL    HW127280   6.802   0.824   0.351
 8560SOL    HW227281   6.884   0.841   0.210
 8561SOL     OW27282   5.669   1.258   1.022
 8561SOL    HW127283   5.664   1.257   1.122
 8561SOL    HW227284   5.586   1.217   0.984
 8562SOL     OW27285   6.274   1.662   1.716
 8562SOL    HW127286   6.218   1.743   1.725
 8562SOL    HW227287   6.326   1.666   1.630
 8563SOL     OW27288   6.489   0.086   0.133
 8563SOL    HW127289   6.540   0.087   0.047
 8563SOL    HW227290   6.545   0.044   0.204
 8564SOL     OW27291   6.974   1.573   0.477
 8564SOL    HW127292   7.041   1.585   0.403
 8564SOL    HW227293   6.934   1.662   0.500
 8565SOL     OW27294   5.716   1.794   1.851
 8565SOL    HW127295   5.675   1.720   1.904
 8565SOL    HW227296   5.780   1.845   1.909
 8566SOL     OW27297   6.866   0.927   0.672
 8566SOL    HW127298   6.926   0.846   0.674
 8566SOL    HW227299   6.906   0.996   0.612
 8567SOL     OW27300   6.416   1.273   1.422
 8567SOL    HW127301   6.411   1.306   1.517
 8567SOL    HW227302   6.330   1.292   1.376
 8568SOL     OW27303   6.258   1.616   0.154
 8568SOL    HW127304   6.267   1.626   0.055
 8568SOL    HW227305   6.218   1.527   0.175
 8569SOL     OW27306   5.849   0.326   0.720
 8569SOL    HW127307   5.770   0.377   0.686
 8569SOL    HW227308   5.840   0.311   0.818
 8570SOL     OW27309   6.780   1.612   0.031
 8570SOL    HW127310   6.786   1.519   0.068
 8570SOL    HW227311   6.721   1.612  -0.049
 8571SOL     OW27312   6.408   1.002   1.372
 8571SOL    HW127313   6.448   1.001   1.280
 8571SOL    HW227314   6.418   1.094   1.412
 8572SOL     OW27315   6.502   0.910   0.291
 8572SOL    HW127316   6.565   0.948   0.223
 8572SOL    HW227317   6.542   0.827   0.330
 8573SOL     OW27318   5.958   1.288   1.490
 8573SOL    HW127319   5.945   1.381   1.456
 8573SOL    HW227320   5.874   1.236   1.477
 8574SOL     OW27321   6.625   1.098   0.696
 8574SOL    HW127322   6.555   1.051   0.750
 8574SOL    HW227323   6.684   1.030   0.653
 8575SOL     OW27324   6.600   0.236   0.971
 8575SOL    HW127325   6.592   0.200   0.878
 8575SOL    HW227326   6.598   0.160   1.036
 8576SOL     OW27327   6.176   1.487   0.491
 8576SOL    HW127328   6.218   1.429   0.421
 8576SOL    HW227329   6.132   1.566   0.447
 8577SOL     OW27330   5.841   1.348   0.290
 8577SOL    HW127331   5.745   1.349   0.263
 8577SOL    HW227332   5.853   1.401   0.374
 8578SOL     OW27333   5.691   1.013   1.726
 8578SOL    HW127334   5.614   0.980   1.780
 8578SOL    HW227335   5.776   0.983   1.768
 8579SOL     OW27336   6.258   0.203   1.489
 8579SOL    HW127337   6.348   0.187   1.449
 8579SOL    HW227338   6.266   0.208   1.588
 8580SOL     OW27339   5.661   0.345   0.033
 8580SOL    HW127340   5.569   0.317   0.004
 8580SOL    HW227341   5.692   0.422  -0.023
 8581SOL     OW27342   5.658   0.166   0.318
 8581SOL    HW127343   5.641   0.249   0.264
 8581SOL    HW227344   5.748   0.129   0.296
 8582SOL     OW27345   6.199   0.842   1.431
 8582SOL    HW127346   6.255   0.923   1.414
 8582SOL    HW227347   6.258   0.762   1.434
 8583SOL     OW27348   6.302   0.565   1.708
 8583SOL    HW127349   6.321   0.630   1.782
 8583SOL    HW227350   6.362   0.485   1.717
 8584SOL     OW27351   7.036   1.220   1.633
 8584SOL    HW127352   7.027   1.210   1.732
 8584SOL    HW227353   7.132   1.213   1.607
 8585SOL     OW27354   5.976   1.741   1.560
 8585SOL    HW127355   5.885   1.782   1.558
 8585SOL    HW227356   5.969   1.647   1.592
 8586SOL     OW27357   6.811   0.325   0.449
 8586SOL    HW127358   6.876   0.251   0.438
 8586SOL    HW227359   6.831   0.375   0.533
 8587SOL     OW27360   6.180   0.745   0.652
 8587SOL    HW127361   6.230   0.830   0.633
 8587SOL    HW227362   6.092   0.747   0.604
 8588SOL     OW27363   6.445   1.374   0.016
 8588SOL    HW127364   6.399   1.389   0.104
 8588SOL    HW227365   6.489   1.459  -0.014
 8589SOL     OW27366   6.247   1.790   0.953
 8589SOL    HW127367   6.201   1.878   0.940
 8589SOL    HW227368   6.346   1.802   0.946
 8590SOL     OW27369   6.445   0.956   0.861
 8590SOL    HW127370   6.499   0.887   0.909
 8590SOL    HW227371   6.413   1.025   0.927
 8591SOL     OW27372   6.669   0.984   0.087
 8591SOL    HW127373   6.646   1.037   0.005
 8591SOL    HW227374   6.750   0.928   0.068
 8592SOL     OW27375   5.807   1.314   1.844
 8592SOL    HW127376   5.742   1.241   1.823
 8592SOL    HW227377   5.811   1.328   1.942
 8593SOL     OW27378   5.665   1.240   0.653
 8593SOL    HW127379   5.664   1.193   0.741
 8593SOL    HW227380   5.747   1.212   0.602
 8594SOL     OW27381   6.258   1.391   1.624
 8594SOL    HW127382   6.180   1.341   1.662
 8594SOL    HW227383   6.255   1.486   1.655
 8595SOL     OW27384   6.014   0.424   0.520
 8595SOL    HW127385   6.044   0.352   0.458
 8595SOL    HW227386   5.975   0.384   0.603
 8596SOL     OW27387   5.903   0.547   1.280
 8596SOL    HW127388   5.941   0.488   1.352
 8596SOL    HW227389   5.943   0.521   1.192
 8597SOL     OW27390   6.398   1.586   0.687
 8597SOL    HW127391   6.430   1.596   0.593
 8597SOL    HW227392   6.319   1.524   0.689
 8598SOL     OW27393   7.010   0.214   1.112
 8598SOL    HW127394   7.062   0.149   1.167
 8598SOL    HW227395   6.961   0.277   1.173
 8599SOL     OW27396   6.587   0.034   1.154
 8599SOL    HW127397   6.524  -0.038   1.123
 8599SOL    HW227398   6.680  -0.002   1.154
 8600SOL     OW27399   6.356   1.330   0.301
 8600SOL    HW127400   6.310   1.243   0.318
 8600SOL    HW227401   6.447   1.327   0.342
 8601SOL     OW27402   6.204   1.567   1.284
 8601SOL    HW127403   6.199   1.649   1.341
 8601SOL    HW227404   6.293   1.564   1.239
 8602SOL     OW27405   5.625   1.077   0.300
 8602SOL    HW127406   5.724   1.066   0.291
 8602SOL    HW227407   5.585   0.991   0.332
 8603SOL     OW27408   6.461   1.646   0.337
 8603SOL    HW127409   6.384   1.611   0.283
 8603SOL    HW227410   6.429   1.717   0.399
 8604SOL     OW27411   5.816   0.628   1.975
 8604SOL    HW127412   5.723   0.626   2.012
 8604SOL    HW227413   5.817   0.589   1.883
 8605SOL     OW27414   5.811   0.275   2.858
 8605SOL    HW127415   5.846   0.258   2.950
 8605SOL    HW227416   5.723   0.230   2.846
 8606SOL     OW27417   5.605   0.368   2.509
 8606SOL    HW127418   5.523   0.411   2.548
 8606SOL    HW227419   5.577   0.295   2.446
 8607SOL     OW27420   6.155   1.275   3.027
 8607SOL    HW127421   6.062   1.268   2.990
 8607SOL    HW227422   6.166   1.364   3.071
 8608SOL     OW27423   7.141   1.511   2.565
 8608SOL    HW127424   7.084   1.495   2.646
 8608SOL    HW227425   7.082   1.521   2.485
 8609SOL     OW27426   6.721   0.703   2.579
 8609SOL    HW127427   6.778   0.781   2.554
 8609SOL    HW227428   6.661   0.729   2.655
 8610SOL     OW27429   6.354   1.144   2.885
 8610SOL    HW127430   6.276   1.161   2.945
 8610SOL    HW227431   6.388   1.231   2.849
 8611SOL     OW27432   6.436   0.798   3.685
 8611SOL    HW127433   6.432   0.874   3.750
 8611SOL    HW227434   6.458   0.834   3.594
 8612SOL     OW27435   6.271   1.012   2.527
 8612SOL    HW127436   6.340   0.996   2.597
 8612SOL    HW227437   6.198   1.069   2.565
 8613SOL     OW27438   6.272   1.161   3.665
 8613SOL    HW127439   6.332   1.240   3.679
 8613SOL    HW227440   6.186   1.192   3.624
 8614SOL     OW27441   5.921   1.435   2.923
 8614SOL    HW127442   5.843   1.404   2.870
 8614SOL    HW227443   5.979   1.493   2.866
 8615SOL     OW27444   6.024   0.392   3.361
 8615SOL    HW127445   6.106   0.336   3.370
 8615SOL    HW227446   5.943   0.334   3.365
 8616SOL     OW27447   5.817   1.713   2.345
 8616SOL    HW127448   5.851   1.790   2.399
 8616SOL    HW227449   5.861   1.713   2.255
 8617SOL     OW27450   6.713   1.341   3.552
 8617SOL    HW127451   6.760   1.341   3.640
 8617SOL    HW227452   6.665   1.254   3.541
 8618SOL     OW27453   5.816   1.434   2.400
 8618SOL    HW127454   5.790   1.530   2.400
 8618SOL    HW227455   5.745   1.380   2.445
 8619SOL     OW27456   5.826   1.091   2.748
 8619SOL    HW127457   5.840   1.007   2.800
 8619SOL    HW227458   5.771   1.155   2.803
 8620SOL     OW27459   6.206   1.786   3.301
 8620SOL    HW127460   6.114   1.769   3.336
 8620SOL    HW227461   6.234   1.878   3.327
 8621SOL     OW27462   6.192   0.964   1.985
 8621SOL    HW127463   6.199   1.048   1.931
 8621SOL    HW227464   6.238   0.977   2.073
 8622SOL     OW27465   5.708   0.643   2.425
 8622SOL    HW127466   5.663   0.555   2.442
 8622SOL    HW227467   5.707   0.697   2.509
 8623SOL     OW27468   5.613   1.596   1.979
 8623SOL    HW127469   5.594   1.500   2.000
 8623SOL    HW227470   5.580   1.654   2.054
 8624SOL     OW27471   5.699   0.737   3.459
 8624SOL    HW127472   5.787   0.724   3.504
 8624SOL    HW227473   5.686   0.834   3.437
 8625SOL     OW27474   6.199   1.365   2.588
 8625SOL    HW127475   6.150   1.278   2.597
 8625SOL    HW227476   6.176   1.408   2.501
 8626SOL     OW27477   6.879   1.228   3.285
 8626SOL    HW127478   6.916   1.155   3.227
 8626SOL    HW227479   6.931   1.233   3.370
 8627SOL     OW27480   6.395   0.004   2.364
 8627SOL    HW127481   6.435   0.095   2.355
 8627SOL    HW227482   6.295   0.012   2.370
 8628SOL     OW27483   5.783   0.976   3.126
 8628SOL    HW127484   5.872   0.931   3.112
 8628SOL    HW227485   5.710   0.911   3.107
 8629SOL     OW27486   6.773   1.792   3.478
 8629SOL    HW127487   6.797   1.852   3.402
 8629SOL    HW227488   6.780   1.697   3.448
 8630SOL     OW27489   5.903   0.251   3.663
 8630SOL    HW127490   5.974   0.322   3.669
 8630SOL    HW227491   5.815   0.290   3.691
 8631SOL     OW27492   6.184   0.729   2.132
 8631SOL    HW127493   6.208   0.798   2.064
 8631SOL    HW227494   6.106   0.762   2.186
 8632SOL     OW27495   6.867   0.345   2.806
 8632SOL    HW127496   6.781   0.295   2.793
 8632SOL    HW227497   6.929   0.291   2.862
 8633SOL     OW27498   6.393   0.605   3.327
 8633SOL    HW127499   6.346   0.602   3.416
 8633SOL    HW227500   6.342   0.550   3.261
 8634SOL     OW27501   6.980   0.469   3.536
 8634SOL    HW127502   6.960   0.512   3.624
 8634SOL    HW227503   7.058   0.407   3.545
 8635SOL     OW27504   6.559   0.890   3.434
 8635SOL    HW127505   6.605   0.806   3.405
 8635SOL    HW227506   6.503   0.924   3.359
 8636SOL     OW27507   6.577   0.410   3.104
 8636SOL    HW127508   6.500   0.444   3.158
 8636SOL    HW227509   6.543   0.359   3.025
 8637SOL     OW27510   6.627   0.701   2.291
 8637SOL    HW127511   6.653   0.697   2.387
 8637SOL    HW227512   6.542   0.650   2.277
 8638SOL     OW27513   5.662   0.811   2.651
 8638SOL    HW127514   5.761   0.799   2.660
 8638SOL    HW227515   5.638   0.906   2.672
 8639SOL     OW27516   5.716   1.821   3.433
 8639SOL    HW127517   5.706   1.806   3.532
 8639SOL    HW227518   5.630   1.857   3.397
 8640SOL     OW27519   6.451   0.348   2.057
 8640SOL    HW127520   6.510   0.411   2.008
 8640SOL    HW227521   6.470   0.254   2.028
 8641SOL     OW27522   6.948   1.144   2.407
 8641SOL    HW127523   7.031   1.115   2.359
 8641SOL    HW227524   6.899   1.211   2.351
 8642SOL     OW27525   6.136   0.196   2.747
 8642SOL    HW127526   6.131   0.191   2.847
 8642SOL    HW227527   6.138   0.292   2.718
 8643SOL     OW27528   6.594   1.456   2.339
 8643SOL    HW127529   6.548   1.528   2.287
 8643SOL    HW227530   6.590   1.476   2.437
 8644SOL     OW27531   5.937   1.801   2.715
 8644SOL    HW127532   5.987   1.715   2.721
 8644SOL    HW227533   6.002   1.878   2.712
 8645SOL     OW27534   6.813   1.550   3.368
 8645SOL    HW127535   6.819   1.473   3.432
 8645SOL    HW227536   6.761   1.524   3.288
 8646SOL     OW27537   5.907   0.943   2.104
 8646SOL    HW127538   5.989   0.982   2.062
 8646SOL    HW227539   5.880   0.861   2.055
 8647SOL     OW27540   6.047   1.266   3.589
 8647SOL    HW127541   5.997   1.267   3.503
 8647SOL    HW227542   5.984   1.248   3.665
 8648SOL     OW27543   6.697   1.776   2.099
 8648SOL    HW127544   6.637   1.714   2.149
 8648SOL    HW227545   6.728   1.732   2.014
 8649SOL     OW27546   5.788   0.285   3.360
 8649SOL    HW127547   5.708   0.345   3.347
 8649SOL    HW227548   5.778   0.236   3.446
 8650SOL     OW27549   6.050   1.743   2.185
 8650SOL    HW127550   6.083   1.782   2.271
 8650SOL    HW227551   6.126   1.736   2.120
 8651SOL     OW27552   5.835   1.785   3.103
 8651SOL    HW127553   5.892   1.720   3.153
 8651SOL    HW227554   5.819   1.752   3.010
 8652SOL     OW27555   6.526   1.698   2.766
 8652SOL    HW127556   6.606   1.641   2.787
 8652SOL    HW227557   6.477   1.658   2.689
 8653SOL     OW27558   5.968   0.700   2.342
 8653SOL    HW127559   6.013   0.610   2.339
 8653SOL    HW227560   5.874   0.689   2.375
 8654SOL     OW27561   6.200   0.122   1.979
 8654SOL    HW127562   6.298   0.100   1.986
 8654SOL    HW227563   6.169   0.105   1.886
 8655SOL     OW27564   6.367   0.264   3.611
 8655SOL    HW127565   6.434   0.203   3.654
 8655SOL    HW227566   6.294   0.283   3.676
 8656SOL     OW27567   6.474   1.514   3.057
 8656SOL    HW127568   6.451   1.489   2.963
 8656SOL    HW227569   6.535   1.445   3.096
 8657SOL     OW27570   6.389   1.402   2.786
 8657SOL    HW127571   6.479   1.416   2.744
 8657SOL    HW227572   6.318   1.404   2.715
 8658SOL     OW27573   6.508   0.503   2.761
 8658SOL    HW127574   6.483   0.494   2.665
 8658SOL    HW227575   6.556   0.421   2.792
 8659SOL     OW27576   6.125   0.064   2.374
 8659SOL    HW127577   6.044   0.065   2.432
 8659SOL    HW227578   6.128   0.147   2.319
 8660SOL     OW27579   7.020   1.188   1.903
 8660SOL    HW127580   7.052   1.112   1.960
 8660SOL    HW227581   6.928   1.215   1.933
 8661SOL     OW27582   5.883   0.035   2.033
 8661SOL    HW127583   5.932   0.119   2.012
 8661SOL    HW227584   5.945  -0.030   2.078
 8662SOL     OW27585   6.521   0.236   2.342
 8662SOL    HW127586   6.473   0.277   2.264
 8662SOL    HW227587   6.620   0.234   2.323
 8663SOL     OW27588   6.662   0.683   3.326
 8663SOL    HW127589   6.582   0.622   3.329
 8663SOL    HW227590   6.743   0.630   3.302
 8664SOL     OW27591   6.813   1.570   2.655
 8664SOL    HW127592   6.834   1.644   2.590
 8664SOL    HW227593   6.881   1.570   2.728
 8665SOL     OW27594   6.045   1.152   2.603
 8665SOL    HW127595   5.974   1.125   2.668
 8665SOL    HW227596   6.019   1.124   2.510
 8666SOL     OW27597   6.857   1.797   2.453
 8666SOL    HW127598   6.901   1.861   2.389
 8666SOL    HW227599   6.807   1.849   2.523
 8667SOL     OW27600   6.618   0.549   1.878
 8667SOL    HW127601   6.577   0.631   1.839
 8667SOL    HW227602   6.682   0.575   1.951
 8668SOL     OW27603   5.664   0.556   3.248
 8668SOL    HW127604   5.756   0.555   3.207
 8668SOL    HW227605   5.658   0.630   3.315
 8669SOL     OW27606   6.147   0.222   3.009
 8669SOL    HW127607   6.185   0.138   3.046
 8669SOL    HW227608   6.059   0.241   3.053
 8670SOL     OW27609   6.452   0.454   2.504
 8670SOL    HW127610   6.420   0.526   2.442
 8670SOL    HW227611   6.476   0.373   2.451
 8671SOL     OW27612   6.603   0.039   2.615
 8671SOL    HW127613   6.531   0.044   2.546
 8671SOL    HW227614   6.579  -0.030   2.684
 8672SOL     OW27615   6.074   1.385   2.036
 8672SOL    HW127616   5.987   1.370   2.083
 8672SOL    HW227617   6.057   1.411   1.941
 8673SOL     OW27618   6.113   0.256   2.190
 8673SOL    HW127619   6.140   0.197   2.115
 8673SOL    HW227620   6.113   0.351   2.159
 8674SOL     OW27621   6.650   1.347   3.202
 8674SOL    HW127622   6.570   1.324   3.257
 8674SOL    HW227623   6.733   1.321   3.251
 8675SOL     OW27624   6.697   1.195   2.962
 8675SOL    HW127625   6.657   1.239   3.043
 8675SOL    HW227626   6.656   1.232   2.879
 8676SOL     OW27627   6.501   0.089   3.264
 8676SOL    HW127628   6.526   0.069   3.169
 8676SOL    HW227629   6.573   0.145   3.306
 8677SOL     OW27630   6.566   1.116   3.581
 8677SOL    HW127631   6.467   1.122   3.591
 8677SOL    HW227632   6.589   1.036   3.525
 8678SOL     OW27633   6.291   1.050   2.230
 8678SOL    HW127634   6.277   1.057   2.329
 8678SOL    HW227635   6.375   0.999   2.212
 8679SOL     OW27636   5.996   0.813   3.113
 8679SOL    HW127637   6.082   0.825   3.163
 8679SOL    HW227638   5.954   0.726   3.140
 8680SOL     OW27639   6.860   0.386   3.124
 8680SOL    HW127640   6.881   0.460   3.188
 8680SOL    HW227641   6.771   0.403   3.081
 8681SOL     OW27642   5.650   1.564   3.193
 8681SOL    HW127643   5.604   1.646   3.159
 8681SOL    HW227644   5.748   1.583   3.202
 8682SOL     OW27645   5.953   1.100   2.363
 8682SOL    HW127646   5.946   1.183   2.307
 8682SOL    HW227647   5.957   1.020   2.303
 8683SOL     OW27648   6.152   0.537   2.727
 8683SOL    HW127649   6.164   0.603   2.653
 8683SOL    HW227650   6.198   0.571   2.810
 8684SOL     OW27651   6.838   1.348   2.250
 8684SOL    HW127652   6.888   1.425   2.290
 8684SOL    HW227653   6.743   1.350   2.282
 8685SOL     OW27654   6.858   1.445   3.004
 8685SOL    HW127655   6.905   1.458   3.091
 8685SOL    HW227656   6.792   1.371   3.013
 8686SOL     OW27657   5.940   1.510   3.191
 8686SOL    HW127658   5.919   1.466   3.104
 8686SOL    HW227659   6.037   1.536   3.194
 8687SOL     OW27660   5.988   0.751   3.460
 8687SOL    HW127661   6.056   0.806   3.413
 8687SOL    HW227662   6.028   0.663   3.487
 8688SOL     OW27663   6.599   0.105   3.632
 8688SOL    HW127664   6.605   0.190   3.580
 8688SOL    HW227665   6.631   0.029   3.575
 8689SOL     OW27666   6.090   0.050   3.602
 8689SOL    HW127667   6.048  -0.007   3.532
 8689SOL    HW227668   6.024   0.119   3.634
 8690SOL     OW27669   6.159   0.870   2.891
 8690SOL    HW127670   6.203   0.959   2.882
 8690SOL    HW227671   6.096   0.870   2.968
 8691SOL     OW27672   6.946   0.862   2.907
 8691SOL    HW127673   6.871   0.862   2.841
 8691SOL    HW227674   6.983   0.770   2.916
 8692SOL     OW27675   6.795   0.525   2.137
 8692SOL    HW127676   6.808   0.441   2.191
 8692SOL    HW227677   6.766   0.599   2.197
 8693SOL     OW27678   5.893   0.213   3.093
 8693SOL    HW127679   5.870   0.250   3.183
 8693SOL    HW227680   5.863   0.118   3.087
 8694SOL     OW27681   5.623   1.310   3.144
 8694SOL    HW127682   5.676   1.261   3.212
 8694SOL    HW227683   5.645   1.408   3.149
 8695SOL     OW27684   6.318   0.634   2.926
 8695SOL    HW127685   6.377   0.608   2.850
 8695SOL    HW227686   6.290   0.730   2.915
 8696SOL     OW27687   5.893   0.063   2.480
 8696SOL    HW127688   5.882   0.157   2.513
 8696SOL    HW227689   5.888   0.000   2.557
 8697SOL     OW27690   7.208   0.367   2.236
 8697SOL    HW127691   7.210   0.291   2.300
 8697SOL    HW227692   7.160   0.444   2.276
 8698SOL     OW27693   6.609   0.766   2.828
 8698SOL    HW127694   6.624   0.787   2.924
 8698SOL    HW227695   6.579   0.671   2.819
 8699SOL     OW27696   6.566   1.573   3.562
 8699SOL    HW127697   6.546   1.617   3.474
 8699SOL    HW227698   6.605   1.482   3.546
 8700SOL     OW27699   5.936   0.898   3.666
 8700SOL    HW127700   6.012   0.942   3.714
 8700SOL    HW227701   5.971   0.851   3.584
 8701SOL     OW27702   6.889   0.838   1.904
 8701SOL    HW127703   6.923   0.745   1.919
 8701SOL    HW227704   6.907   0.865   1.809
 8702SOL     OW27705   6.654   1.333   2.711
 8702SOL    HW127706   6.661   1.249   2.656
 8702SOL    HW227707   6.716   1.402   2.675
 8703SOL     OW27708   5.905   0.810   2.811
 8703SOL    HW127709   5.998   0.846   2.816
 8703SOL    HW227710   5.899   0.725   2.863
 8704SOL     OW27711   5.925   0.509   2.868
 8704SOL    HW127712   5.873   0.426   2.851
 8704SOL    HW227713   6.002   0.514   2.804
 8705SOL     OW27714   6.724   0.380   3.540
 8705SOL    HW127715   6.679   0.443   3.604
 8705SOL    HW227716   6.817   0.411   3.523
 8706SOL     OW27717   6.746   0.207   3.339
 8706SOL    HW127718   6.746   0.271   3.416
 8706SOL    HW227719   6.774   0.255   3.256
 8707SOL     OW27720   5.594   1.326   2.062
 8707SOL    HW127721   5.501   1.347   2.031
 8707SOL    HW227722   5.604   1.227   2.075
 8708SOL     OW27723   5.674   1.801   2.789
 8708SOL    HW127724   5.632   1.715   2.762
 8708SOL    HW227725   5.768   1.804   2.755
 8709SOL     OW27726   6.090   1.568   2.772
 8709SOL    HW127727   6.156   1.642   2.781
 8709SOL    HW227728   6.134   1.489   2.730
 8710SOL     OW27729   6.588   0.796   3.100
 8710SOL    HW127730   6.629   0.764   3.186
 8710SOL    HW227731   6.492   0.769   3.097
 8711SOL     OW27732   5.626   0.544   2.976
 8711SOL    HW127733   5.711   0.511   2.935
 8711SOL    HW227734   5.639   0.559   3.074
 8712SOL     OW27735   5.775   0.520   3.584
 8712SOL    HW127736   5.834   0.480   3.514
 8712SOL    HW227737   5.717   0.591   3.543
 8713SOL     OW27738   6.401   0.572   2.187
 8713SOL    HW127739   6.408   0.483   2.141
 8713SOL    HW227740   6.307   0.606   2.179
 8714SOL     OW27741   5.838   1.564   3.606
 8714SOL    HW127742   5.808   1.621   3.682
 8714SOL    HW227743   5.831   1.467   3.632
 8715SOL     OW27744   6.257   0.464   3.131
 8715SOL    HW127745   6.223   0.375   3.101
 8715SOL    HW227746   6.283   0.518   3.051
 8716SOL     OW27747   6.516   1.678   3.327
 8716SOL    HW127748   6.492   1.660   3.232
 8716SOL    HW227749   6.546   1.772   3.337
 8717SOL     OW27750   6.059   0.500   2.053
 8717SOL    HW127751   6.120   0.580   2.057
 8717SOL    HW227752   5.964   0.531   2.060
 8718SOL     OW27753   5.745   1.137   3.328
 8718SOL    HW127754   5.767   1.076   3.404
 8718SOL    HW227755   5.755   1.088   3.242
 8719SOL     OW27756   6.933   1.059   3.096
 8719SOL    HW127757   6.957   0.996   3.022
 8719SOL    HW227758   6.843   1.099   3.078
 8720SOL     OW27759   6.888   0.855   2.171
 8720SOL    HW127760   6.802   0.824   2.213
 8720SOL    HW227761   6.884   0.841   2.072
 8721SOL     OW27762   6.838   1.731   2.990
 8721SOL    HW127763   6.922   1.736   2.936
 8721SOL    HW227764   6.815   1.635   3.008
 8722SOL     OW27765   5.669   1.258   2.884
 8722SOL    HW127766   5.664   1.257   2.984
 8722SOL    HW227767   5.586   1.217   2.846
 8723SOL     OW27768   6.274   1.662   3.578
 8723SOL    HW127769   6.218   1.743   3.587
 8723SOL    HW227770   6.326   1.666   3.492
 8724SOL     OW27771   6.974   1.573   2.339
 8724SOL    HW127772   7.041   1.585   2.265
 8724SOL    HW227773   6.934   1.662   2.362
 8725SOL     OW27774   5.716   1.794   3.713
 8725SOL    HW127775   5.675   1.720   3.766
 8725SOL    HW227776   5.780   1.845   3.771
 8726SOL     OW27777   6.866   0.927   2.534
 8726SOL    HW127778   6.926   0.846   2.536
 8726SOL    HW227779   6.906   0.996   2.474
 8727SOL     OW27780   6.416   1.273   3.284
 8727SOL    HW127781   6.411   1.306   3.379
 8727SOL    HW227782   6.330   1.292   3.238
 8728SOL     OW27783   6.258   1.616   2.016
 8728SOL    HW127784   6.267   1.626   1.917
 8728SOL    HW227785   6.218   1.527   2.037
 8729SOL     OW27786   5.849   0.326   2.582
 8729SOL    HW127787   5.770   0.377   2.548
 8729SOL    HW227788   5.840   0.311   2.680
 8730SOL     OW27789   6.780   1.612   1.893
 8730SOL    HW127790   6.786   1.519   1.930
 8730SOL    HW227791   6.721   1.612   1.813
 8731SOL     OW27792   6.408   1.002   3.234
 8731SOL    HW127793   6.448   1.001   3.142
 8731SOL    HW227794   6.418   1.094   3.274
 8732SOL     OW27795   6.502   0.910   2.153
 8732SOL    HW127796   6.565   0.948   2.085
 8732SOL    HW227797   6.542   0.827   2.192
 8733SOL     OW27798   5.958   1.288   3.352
 8733SOL    HW127799   5.945   1.381   3.318
 8733SOL    HW227800   5.874   1.236   3.339
 8734SOL     OW27801   6.625   1.098   2.558
 8734SOL    HW127802   6.555   1.051   2.612
 8734SOL    HW227803   6.684   1.030   2.515
 8735SOL     OW27804   6.600   0.236   2.833
 8735SOL    HW127805   6.592   0.200   2.740
 8735SOL    HW227806   6.598   0.160   2.898
 8736SOL     OW27807   6.176   1.487   2.353
 8736SOL    HW127808   6.218   1.429   2.283
 8736SOL    HW227809   6.132   1.566   2.309
 8737SOL     OW27810   5.841   1.348   2.152
 8737SOL    HW127811   5.745   1.349   2.125
 8737SOL    HW227812   5.853   1.401   2.236
 8738SOL     OW27813   5.691   1.013   3.588
 8738SOL    HW127814   5.614   0.980   3.642
 8738SOL    HW227815   5.776   0.983   3.630
 8739SOL     OW27816   6.258   0.203   3.351
 8739SOL    HW127817   6.348   0.187   3.311
 8739SOL    HW227818   6.266   0.208   3.450
 8740SOL     OW27819   5.661   0.345   1.895
 8740SOL    HW127820   5.569   0.317   1.866
 8740SOL    HW227821   5.692   0.422   1.839
 8741SOL     OW27822   5.658   0.166   2.180
 8741SOL    HW127823   5.641   0.249   2.126
 8741SOL    HW227824   5.748   0.129   2.158
 8742SOL     OW27825   6.199   0.842   3.293
 8742SOL    HW127826   6.255   0.923   3.276
 8742SOL    HW227827   6.258   0.762   3.296
 8743SOL     OW27828   6.302   0.565   3.570
 8743SOL    HW127829   6.321   0.630   3.644
 8743SOL    HW227830   6.362   0.485   3.579
 8744SOL     OW27831   7.036   1.220   3.495
 8744SOL    HW127832   7.027   1.210   3.594
 8744SOL    HW227833   7.132   1.213   3.469
 8745SOL     OW27834   5.976   1.741   3.422
 8745SOL    HW127835   5.885   1.782   3.420
 8745SOL    HW227836   5.969   1.647   3.454
 8746SOL     OW27837   6.811   0.325   2.311
 8746SOL    HW127838   6.876   0.251   2.300
 8746SOL    HW227839   6.831   0.375   2.395
 8747SOL     OW27840   6.180   0.745   2.514
 8747SOL    HW127841   6.230   0.830   2.495
 8747SOL    HW227842   6.092   0.747   2.466
 8748SOL     OW27843   6.445   1.374   1.878
 8748SOL    HW127844   6.399   1.389   1.966
 8748SOL    HW227845   6.489   1.459   1.848
 8749SOL     OW27846   6.247   1.790   2.815
 8749SOL    HW127847   6.201   1.878   2.802
 8749SOL    HW227848   6.346   1.802   2.808
 8750SOL     OW27849   6.445   0.956   2.723
 8750SOL    HW127850   6.499   0.887   2.771
 8750SOL    HW227851   6.413   1.025   2.789
 8751SOL     OW27852   6.669   0.984   1.949
 8751SOL    HW127853   6.646   1.037   1.867
 8751SOL    HW227854   6.750   0.928   1.930
 8752SOL     OW27855   5.807   1.314   3.706
 8752SOL    HW127856   5.742   1.241   3.685
 8752SOL    HW227857   5.811   1.328   3.804
 8753SOL     OW27858   5.665   1.240   2.515
 8753SOL    HW127859   5.664   1.193   2.603
 8753SOL    HW227860   5.747   1.212   2.464
 8754SOL     OW27861   6.258   1.391   3.486
 8754SOL    HW127862   6.180   1.341   3.524
 8754SOL    HW227863   6.255   1.486   3.517
 8755SOL     OW27864   6.014   0.424   2.382
 8755SOL    HW127865   6.044   0.352   2.320
 8755SOL    HW227866   5.975   0.384   2.465
 8756SOL     OW27867   5.903   0.547   3.142
 8756SOL    HW127868   5.941   0.488   3.214
 8756SOL    HW227869   5.943   0.521   3.054
 8757SOL     OW27870   6.398   1.586   2.549
 8757SOL    HW127871   6.430   1.596   2.455
 8757SOL    HW227872   6.319   1.524   2.551
 8758SOL     OW27873   7.010   0.214   2.974
 8758SOL    HW127874   7.062   0.149   3.029
 8758SOL    HW227875   6.961   0.277   3.035
 8759SOL     OW27876   6.587   0.034   3.016
 8759SOL    HW127877   6.524  -0.038   2.985
 8759SOL    HW227878   6.680  -0.002   3.016
 8760SOL     OW27879   6.356   1.330   2.163
 8760SOL    HW127880   6.310   1.243   2.180
 8760SOL    HW227881   6.447   1.327   2.204
 8761SOL     OW27882   6.204   1.567   3.146
 8761SOL    HW127883   6.199   1.649   3.203
 8761SOL    HW227884   6.293   1.564   3.101
 8762SOL     OW27885   5.625   1.077   2.162
 8762SOL    HW127886   5.724   1.066   2.153
 8762SOL    HW227887   5.585   0.991   2.194
 8763SOL     OW27888   6.461   1.646   2.199
 8763SOL    HW127889   6.384   1.611   2.145
 8763SOL    HW227890   6.429   1.717   2.261
 8764SOL     OW27891   5.816   0.628   3.837
 8764SOL    HW127892   5.723   0.626   3.874
 8764SOL    HW227893   5.817   0.589   3.745
 8765SOL     OW27894   5.811   0.275   4.720
 8765SOL    HW127895   5.846   0.258   4.812
 8765SOL    HW227896   5.723   0.230   4.708
 8766SOL     OW27897   5.605   0.368   4.371
 8766SOL    HW127898   5.523   0.411   4.410
 8766SOL    HW227899   5.577   0.295   4.308
 8767SOL     OW27900   6.155   1.275   4.889
 8767SOL    HW127901   6.062   1.268   4.852
 8767SOL    HW227902   6.166   1.364   4.933
 8768SOL     OW27903   7.141   1.511   4.427
 8768SOL    HW127904   7.084   1.495   4.508
 8768SOL    HW227905   7.082   1.521   4.347
 8769SOL     OW27906   6.721   0.703   4.441
 8769SOL    HW127907   6.778   0.781   4.416
 8769SOL    HW227908   6.661   0.729   4.517
 8770SOL     OW27909   6.354   1.144   4.747
 8770SOL    HW127910   6.276   1.161   4.807
 8770SOL    HW227911   6.388   1.231   4.711
 8771SOL     OW27912   6.436   0.798   5.547
 8771SOL    HW127913   6.432   0.874   5.612
 8771SOL    HW227914   6.458   0.834   5.456
 8772SOL     OW27915   6.271   1.012   4.389
 8772SOL    HW127916   6.340   0.996   4.459
 8772SOL    HW227917   6.198   1.069   4.427
 8773SOL     OW27918   6.272   1.161   5.527
 8773SOL    HW127919   6.332   1.240   5.541
 8773SOL    HW227920   6.186   1.192   5.486
 8774SOL     OW27921   5.921   1.435   4.785
 8774SOL    HW127922   5.843   1.404   4.732
 8774SOL    HW227923   5.979   1.493   4.728
 8775SOL     OW27924   6.024   0.392   5.223
 8775SOL    HW127925   6.106   0.336   5.232
 8775SOL    HW227926   5.943   0.334   5.227
 8776SOL     OW27927   5.817   1.713   4.207
 8776SOL    HW127928   5.851   1.790   4.261
 8776SOL    HW227929   5.861   1.713   4.117
 8777SOL     OW27930   6.713   1.341   5.414
 8777SOL    HW127931   6.760   1.341   5.502
 8777SOL    HW227932   6.665   1.254   5.403
 8778SOL     OW27933   5.816   1.434   4.262
 8778SOL    HW127934   5.790   1.530   4.262
 8778SOL    HW227935   5.745   1.380   4.307
 8779SOL     OW27936   5.826   1.091   4.610
 8779SOL    HW127937   5.840   1.007   4.662
 8779SOL    HW227938   5.771   1.155   4.665
 8780SOL     OW27939   6.206   1.786   5.163
 8780SOL    HW127940   6.114   1.769   5.198
 8780SOL    HW227941   6.234   1.878   5.189
 8781SOL     OW27942   6.192   0.964   3.847
 8781SOL    HW127943   6.199   1.048   3.793
 8781SOL    HW227944   6.238   0.977   3.935
 8782SOL     OW27945   5.708   0.643   4.287
 8782SOL    HW127946   5.663   0.555   4.304
 8782SOL    HW227947   5.707   0.697   4.371
 8783SOL     OW27948   5.613   1.596   3.841
 8783SOL    HW127949   5.594   1.500   3.862
 8783SOL    HW227950   5.580   1.654   3.916
 8784SOL     OW27951   5.699   0.737   5.321
 8784SOL    HW127952   5.787   0.724   5.366
 8784SOL    HW227953   5.686   0.834   5.299
 8785SOL     OW27954   6.199   1.365   4.450
 8785SOL    HW127955   6.150   1.278   4.459
 8785SOL    HW227956   6.176   1.408   4.363
 8786SOL     OW27957   6.879   1.228   5.147
 8786SOL    HW127958   6.916   1.155   5.089
 8786SOL    HW227959   6.931   1.233   5.232
 8787SOL     OW27960   6.395   0.004   4.226
 8787SOL    HW127961   6.435   0.095   4.217
 8787SOL    HW227962   6.295   0.012   4.232
 8788SOL     OW27963   5.783   0.976   4.988
 8788SOL    HW127964   5.872   0.931   4.974
 8788SOL    HW227965   5.710   0.911   4.969
 8789SOL     OW27966   6.773   1.792   5.340
 8789SOL    HW127967   6.797   1.852   5.264
 8789SOL    HW227968   6.780   1.697   5.310
 8790SOL     OW27969   5.903   0.251   5.525
 8790SOL    HW127970   5.974   0.322   5.531
 8790SOL    HW227971   5.815   0.290   5.553
 8791SOL     OW27972   6.184   0.729   3.994
 8791SOL    HW127973   6.208   0.798   3.926
 8791SOL    HW227974   6.106   0.762   4.048
 8792SOL     OW27975   6.867   0.345   4.668
 8792SOL    HW127976   6.781   0.295   4.655
 8792SOL    HW227977   6.929   0.291   4.724
 8793SOL     OW27978   6.393   0.605   5.189
 8793SOL    HW127979   6.346   0.602   5.278
 8793SOL    HW227980   6.342   0.550   5.123
 8794SOL     OW27981   6.980   0.469   5.398
 8794SOL    HW127982   6.960   0.512   5.486
 8794SOL    HW227983   7.058   0.407   5.407
 8795SOL     OW27984   6.559   0.890   5.296
 8795SOL    HW127985   6.605   0.806   5.267
 8795SOL    HW227986   6.503   0.924   5.221
 8796SOL     OW27987   6.577   0.410   4.966
 8796SOL    HW127988   6.500   0.444   5.020
 8796SOL    HW227989   6.543   0.359   4.887
 8797SOL     OW27990   6.627   0.701   4.153
 8797SOL    HW127991   6.653   0.697   4.249
 8797SOL    HW227992   6.542   0.650   4.139
 8798SOL     OW27993   5.662   0.811   4.513
 8798SOL    HW127994   5.761   0.799   4.522
 8798SOL    HW227995   5.638   0.906   4.534
 8799SOL     OW27996   5.716   1.821   5.295
 8799SOL    HW127997   5.706   1.806   5.394
 8799SOL    HW227998   5.630   1.857   5.259
 8800SOL     OW27999   6.451   0.348   3.919
 8800SOL    HW128000   6.510   0.411   3.870
 8800SOL    HW228001   6.470   0.254   3.890
 8801SOL     OW28002   6.948   1.144   4.269
 8801SOL    HW128003   7.031   1.115   4.221
 8801SOL    HW228004   6.899   1.211   4.213
 8802SOL     OW28005   6.136   0.196   4.609
 8802SOL    HW128006   6.131   0.191   4.709
 8802SOL    HW228007   6.138   0.292   4.580
 8803SOL     OW28008   6.594   1.456   4.201
 8803SOL    HW128009   6.548   1.528   4.149
 8803SOL    HW228010   6.590   1.476   4.299
 8804SOL     OW28011   5.937   1.801   4.577
 8804SOL    HW128012   5.987   1.715   4.583
 8804SOL    HW228013   6.002   1.878   4.574
 8805SOL     OW28014   6.813   1.550   5.230
 8805SOL    HW128015   6.819   1.473   5.294
 8805SOL    HW228016   6.761   1.524   5.150
 8806SOL     OW28017   5.907   0.943   3.966
 8806SOL    HW128018   5.989   0.982   3.924
 8806SOL    HW228019   5.880   0.861   3.917
 8807SOL     OW28020   6.047   1.266   5.451
 8807SOL    HW128021   5.997   1.267   5.365
 8807SOL    HW228022   5.984   1.248   5.527
 8808SOL     OW28023   6.697   1.776   3.961
 8808SOL    HW128024   6.637   1.714   4.011
 8808SOL    HW228025   6.728   1.732   3.876
 8809SOL     OW28026   5.788   0.285   5.222
 8809SOL    HW128027   5.708   0.345   5.209
 8809SOL    HW228028   5.778   0.236   5.308
 8810SOL     OW28029   6.050   1.743   4.047
 8810SOL    HW128030   6.083   1.782   4.133
 8810SOL    HW228031   6.126   1.736   3.982
 8811SOL     OW28032   5.835   1.785   4.965
 8811SOL    HW128033   5.892   1.720   5.015
 8811SOL    HW228034   5.819   1.752   4.872
 8812SOL     OW28035   6.526   1.698   4.628
 8812SOL    HW128036   6.606   1.641   4.649
 8812SOL    HW228037   6.477   1.658   4.551
 8813SOL     OW28038   5.968   0.700   4.204
 8813SOL    HW128039   6.013   0.610   4.201
 8813SOL    HW228040   5.874   0.689   4.237
 8814SOL     OW28041   6.200   0.122   3.841
 8814SOL    HW128042   6.298   0.100   3.848
 8814SOL    HW228043   6.169   0.105   3.748
 8815SOL     OW28044   6.367   0.264   5.473
 8815SOL    HW128045   6.434   0.203   5.516
 8815SOL    HW228046   6.294   0.283   5.538
 8816SOL     OW28047   6.474   1.514   4.919
 8816SOL    HW128048   6.451   1.489   4.825
 8816SOL    HW228049   6.535   1.445   4.958
 8817SOL     OW28050   6.389   1.402   4.648
 8817SOL    HW128051   6.479   1.416   4.606
 8817SOL    HW228052   6.318   1.404   4.577
 8818SOL     OW28053   6.508   0.503   4.623
 8818SOL    HW128054   6.483   0.494   4.527
 8818SOL    HW228055   6.556   0.421   4.654
 8819SOL     OW28056   6.125   0.064   4.236
 8819SOL    HW128057   6.044   0.065   4.294
 8819SOL    HW228058   6.128   0.147   4.181
 8820SOL     OW28059   7.020   1.188   3.765
 8820SOL    HW128060   7.052   1.112   3.822
 8820SOL    HW228061   6.928   1.215   3.795
 8821SOL     OW28062   5.883   0.035   3.895
 8821SOL    HW128063   5.932   0.119   3.874
 8821SOL    HW228064   5.945  -0.030   3.940
 8822SOL     OW28065   6.521   0.236   4.204
 8822SOL    HW128066   6.473   0.277   4.126
 8822SOL    HW228067   6.620   0.234   4.185
 8823SOL     OW28068   6.662   0.683   5.188
 8823SOL    HW128069   6.582   0.622   5.191
 8823SOL    HW228070   6.743   0.630   5.164
 8824SOL     OW28071   6.813   1.570   4.517
 8824SOL    HW128072   6.834   1.644   4.452
 8824SOL    HW228073   6.881   1.570   4.590
 8825SOL     OW28074   6.045   1.152   4.465
 8825SOL    HW128075   5.974   1.125   4.530
 8825SOL    HW228076   6.019   1.124   4.372
 8826SOL     OW28077   6.857   1.797   4.315
 8826SOL    HW128078   6.901   1.861   4.251
 8826SOL    HW228079   6.807   1.849   4.385
 8827SOL     OW28080   6.618   0.549   3.740
 8827SOL    HW128081   6.577   0.631   3.701
 8827SOL    HW228082   6.682   0.575   3.813
 8828SOL     OW28083   5.664   0.556   5.110
 8828SOL    HW128084   5.756   0.555   5.069
 8828SOL    HW228085   5.658   0.630   5.177
 8829SOL     OW28086   6.147   0.222   4.871
 8829SOL    HW128087   6.185   0.138   4.908
 8829SOL    HW228088   6.059   0.241   4.915
 8830SOL     OW28089   6.452   0.454   4.366
 8830SOL    HW128090   6.420   0.526   4.304
 8830SOL    HW228091   6.476   0.373   4.313
 8831SOL     OW28092   6.603   0.039   4.477
 8831SOL    HW128093   6.531   0.044   4.408
 8831SOL    HW228094   6.579  -0.030   4.546
 8832SOL     OW28095   6.074   1.385   3.898
 8832SOL    HW128096   5.987   1.370   3.945
 8832SOL    HW228097   6.057   1.411   3.803
 8833SOL     OW28098   6.113   0.256   4.052
 8833SOL    HW128099   6.140   0.197   3.977
 8833SOL    HW228100   6.113   0.351   4.021
 8834SOL     OW28101   6.650   1.347   5.064
 8834SOL    HW128102   6.570   1.324   5.119
 8834SOL    HW228103   6.733   1.321   5.113
 8835SOL     OW28104   6.697   1.195   4.824
 8835SOL    HW128105   6.657   1.239   4.905
 8835SOL    HW228106   6.656   1.232   4.741
 8836SOL     OW28107   6.501   0.089   5.126
 8836SOL    HW128108   6.526   0.069   5.031
 8836SOL    HW228109   6.573   0.145   5.168
 8837SOL     OW28110   6.566   1.116   5.443
 8837SOL    HW128111   6.467   1.122   5.453
 8837SOL    HW228112   6.589   1.036   5.387
 8838SOL     OW28113   6.291   1.050   4.092
 8838SOL    HW128114   6.277   1.057   4.191
 8838SOL    HW228115   6.375   0.999   4.074
 8839SOL     OW28116   5.996   0.813   4.975
 8839SOL    HW128117   6.082   0.825   5.025
 8839SOL    HW228118   5.954   0.726   5.002
 8840SOL     OW28119   6.860   0.386   4.986
 8840SOL    HW128120   6.881   0.460   5.050
 8840SOL    HW228121   6.771   0.403   4.943
 8841SOL     OW28122   5.650   1.564   5.055
 8841SOL    HW128123   5.604   1.646   5.021
 8841SOL    HW228124   5.748   1.583   5.064
 8842SOL     OW28125   5.953   1.100   4.225
 8842SOL    HW128126   5.946   1.183   4.169
 8842SOL    HW228127   5.957   1.020   4.165
 8843SOL     OW28128   6.152   0.537   4.589
 8843SOL    HW128129   6.164   0.603   4.515
 8843SOL    HW228130   6.198   0.571   4.672
 8844SOL     OW28131   6.838   1.348   4.112
 8844SOL    HW128132   6.888   1.425   4.152
 8844SOL    HW228133   6.743   1.350   4.144
 8845SOL     OW28134   6.858   1.445   4.866
 8845SOL    HW128135   6.905   1.458   4.953
 8845SOL    HW228136   6.792   1.371   4.875
 8846SOL     OW28137   5.940   1.510   5.053
 8846SOL    HW128138   5.919   1.466   4.966
 8846SOL    HW228139   6.037   1.536   5.056
 8847SOL     OW28140   5.988   0.751   5.322
 8847SOL    HW128141   6.056   0.806   5.275
 8847SOL    HW228142   6.028   0.663   5.349
 8848SOL     OW28143   6.599   0.105   5.494
 8848SOL    HW128144   6.605   0.190   5.442
 8848SOL    HW228145   6.631   0.029   5.437
 8849SOL     OW28146   6.090   0.050   5.464
 8849SOL    HW128147   6.048  -0.007   5.394
 8849SOL    HW228148   6.024   0.119   5.496
 8850SOL     OW28149   6.159   0.870   4.753
 8850SOL    HW128150   6.203   0.959   4.744
 8850SOL    HW228151   6.096   0.870   4.830
 8851SOL     OW28152   6.946   0.862   4.769
 8851SOL    HW128153   6.871   0.862   4.703
 8851SOL    HW228154   6.983   0.770   4.778
 8852SOL     OW28155   6.795   0.525   3.999
 8852SOL    HW128156   6.808   0.441   4.053
 8852SOL    HW228157   6.766   0.599   4.059
 8853SOL     OW28158   5.893   0.213   4.955
 8853SOL    HW128159   5.870   0.250   5.045
 8853SOL    HW228160   5.863   0.118   4.949
 8854SOL     OW28161   5.623   1.310   5.006
 8854SOL    HW128162   5.676   1.261   5.074
 8854SOL    HW228163   5.645   1.408   5.011
 8855SOL     OW28164   6.318   0.634   4.788
 8855SOL    HW128165   6.377   0.608   4.712
 8855SOL    HW228166   6.290   0.730   4.777
 8856SOL     OW28167   5.893   0.063   4.342
 8856SOL    HW128168   5.882   0.157   4.375
 8856SOL    HW228169   5.888   0.000   4.419
 8857SOL     OW28170   7.208   0.367   4.098
 8857SOL    HW128171   7.210   0.291   4.162
 8857SOL    HW228172   7.160   0.444   4.138
 8858SOL     OW28173   6.609   0.766   4.690
 8858SOL    HW128174   6.624   0.787   4.786
 8858SOL    HW228175   6.579   0.671   4.681
 8859SOL     OW28176   6.566   1.573   5.424
 8859SOL    HW128177   6.546   1.617   5.336
 8859SOL    HW228178   6.605   1.482   5.408
 8860SOL     OW28179   5.936   0.898   5.528
 8860SOL    HW128180   6.012   0.942   5.576
 8860SOL    HW228181   5.971   0.851   5.446
 8861SOL     OW28182   6.889   0.838   3.766
 8861SOL    HW128183   6.923   0.745   3.781
 8861SOL    HW228184   6.907   0.865   3.671
 8862SOL     OW28185   6.654   1.333   4.573
 8862SOL    HW128186   6.661   1.249   4.518
 8862SOL    HW228187   6.716   1.402   4.537
 8863SOL     OW28188   5.905   0.810   4.673
 8863SOL    HW128189   5.998   0.846   4.678
 8863SOL    HW228190   5.899   0.725   4.725
 8864SOL     OW28191   5.925   0.509   4.730
 8864SOL    HW128192   5.873   0.426   4.713
 8864SOL    HW228193   6.002   0.514   4.666
 8865SOL     OW28194   6.724   0.380   5.402
 8865SOL    HW128195   6.679   0.443   5.466
 8865SOL    HW228196   6.817   0.411   5.385
 8866SOL     OW28197   6.746   0.207   5.201
 8866SOL    HW128198   6.746   0.271   5.278
 8866SOL    HW228199   6.774   0.255   5.118
 8867SOL     OW28200   5.594   1.326   3.924
 8867SOL    HW128201   5.501   1.347   3.893
 8867SOL    HW228202   5.604   1.227   3.937
 8868SOL     OW28203   5.674   1.801   4.651
 8868SOL    HW128204   5.632   1.715   4.624
 8868SOL    HW228205   5.768   1.804   4.617
 8869SOL     OW28206   6.090   1.568   4.634
 8869SOL    HW128207   6.156   1.642   4.643
 8869SOL    HW228208   6.134   1.489   4.592
 8870SOL     OW28209   6.588   0.796   4.962
 8870SOL    HW128210   6.629   0.764   5.048
 8870SOL    HW228211   6.492   0.769   4.959
 8871SOL     OW28212   5.626   0.544   4.838
 8871SOL    HW128213   5.711   0.511   4.797
 8871SOL    HW228214   5.639   0.559   4.936
 8872SOL     OW28215   5.775   0.520   5.446
 8872SOL    HW128216   5.834   0.480   5.376
 8872SOL    HW228217   5.717   0.591   5.405
 8873SOL     OW28218   6.401   0.572   4.049
 8873SOL    HW128219   6.408   0.483   4.003
 8873SOL    HW228220   6.307   0.606   4.041
 8874SOL     OW28221   5.838   1.564   5.468
 8874SOL    HW128222   5.808   1.621   5.544
 8874SOL    HW228223   5.831   1.467   5.494
 8875SOL     OW28224   6.257   0.464   4.993
 8875SOL    HW128225   6.223   0.375   4.963
 8875SOL    HW228226   6.283   0.518   4.913
 8876SOL     OW28227   6.516   1.678   5.189
 8876SOL    HW128228   6.492   1.660   5.094
 8876SOL    HW228229   6.546   1.772   5.199
 8877SOL     OW28230   6.059   0.500   3.915
 8877SOL    HW128231   6.120   0.580   3.919
 8877SOL    HW228232   5.964   0.531   3.922
 8878SOL     OW28233   5.745   1.137   5.190
 8878SOL    HW128234   5.767   1.076   5.266
 8878SOL    HW228235   5.755   1.088   5.104
 8879SOL     OW28236   6.933   1.059   4.958
 8879SOL    HW128237   6.957   0.996   4.884
 8879SOL    HW228238   6.843   1.099   4.940
 8880SOL     OW28239   6.888   0.855   4.033
 8880SOL    HW128240   6.802   0.824   4.075
 8880SOL    HW228241   6.884   0.841   3.934
 8881SOL     OW28242   6.838   1.731   4.852
 8881SOL    HW128243   6.922   1.736   4.798
 8881SOL    HW228244   6.815   1.635   4.870
 8882SOL     OW28245   5.669   1.258   4.746
 8882SOL    HW128246   5.664   1.257   4.846
 8882SOL    HW228247   5.586   1.217   4.708
 8883SOL     OW28248   6.274   1.662   5.440
 8883SOL    HW128249   6.218   1.743   5.449
 8883SOL    HW228250   6.326   1.666   5.354
 8884SOL     OW28251   6.974   1.573   4.201
 8884SOL    HW128252   7.041   1.585   4.127
 8884SOL    HW228253   6.934   1.662   4.224
 8885SOL     OW28254   5.716   1.794   5.575
 8885SOL    HW128255   5.675   1.720   5.628
 8885SOL    HW228256   5.780   1.845   5.633
 8886SOL     OW28257   6.866   0.927   4.396
 8886SOL    HW128258   6.926   0.846   4.398
 8886SOL    HW228259   6.906   0.996   4.336
 8887SOL     OW28260   6.416   1.273   5.146
 8887SOL    HW128261   6.411   1.306   5.241
 8887SOL    HW228262   6.330   1.292   5.100
 8888SOL     OW28263   6.258   1.616   3.878
 8888SOL    HW128264   6.267   1.626   3.779
 8888SOL    HW228265   6.218   1.527   3.899
 8889SOL     OW28266   5.849   0.326   4.444
 8889SOL    HW128267   5.770   0.377   4.410
 8889SOL    HW228268   5.840   0.311   4.542
 8890SOL     OW28269   6.780   1.612   3.755
 8890SOL    HW128270   6.786   1.519   3.792
 8890SOL    HW228271   6.721   1.612   3.675
 8891SOL     OW28272   6.408   1.002   5.096
 8891SOL    HW128273   6.448   1.001   5.004
 8891SOL    HW228274   6.418   1.094   5.136
 8892SOL     OW28275   6.502   0.910   4.015
 8892SOL    HW128276   6.565   0.948   3.947
 8892SOL    HW228277   6.542   0.827   4.054
 8893SOL     OW28278   5.958   1.288   5.214
 8893SOL    HW128279   5.945   1.381   5.180
 8893SOL    HW228280   5.874   1.236   5.201
 8894SOL     OW28281   6.625   1.098   4.420
 8894SOL    HW128282   6.555   1.051   4.474
 8894SOL    HW228283   6.684   1.030   4.377
 8895SOL     OW28284   6.600   0.236   4.695
 8895SOL    HW128285   6.592   0.200   4.602
 8895SOL    HW228286   6.598   0.160   4.760
 8896SOL     OW28287   6.176   1.487   4.215
 8896SOL    HW128288   6.218   1.429   4.145
 8896SOL    HW228289   6.132   1.566   4.171
 8897SOL     OW28290   5.841   1.348   4.014
 8897SOL    HW128291   5.745   1.349   3.987
 8897SOL    HW228292   5.853   1.401   4.098
 8898SOL     OW28293   5.691   1.013   5.450
 8898SOL    HW128294   5.614   0.980   5.504
 8898SOL    HW228295   5.776   0.983   5.492
 8899SOL     OW28296   6.258   0.203   5.213
 8899SOL    HW128297   6.348   0.187   5.173
 8899SOL    HW228298   6.266   0.208   5.312
 8900SOL     OW28299   5.661   0.345   3.757
 8900SOL    HW128300   5.569   0.317   3.728
 8900SOL    HW228301   5.692   0.422   3.701
 8901SOL     OW28302   5.658   0.166   4.042
 8901SOL    HW128303   5.641   0.249   3.988
 8901SOL    HW228304   5.748   0.129   4.020
 8902SOL     OW28305   6.199   0.842   5.155
 8902SOL    HW128306   6.255   0.923   5.138
 8902SOL    HW228307   6.258   0.762   5.158
 8903SOL     OW28308   6.302   0.565   5.432
 8903SOL    HW128309   6.321   0.630   5.506
 8903SOL    HW228310   6.362   0.485   5.441
 8904SOL     OW28311   7.036   1.220   5.357
 8904SOL    HW128312   7.027   1.210   5.456
 8904SOL    HW228313   7.132   1.213   5.331
 8905SOL     OW28314   5.976   1.741   5.284
 8905SOL    HW128315   5.885   1.782   5.282
 8905SOL    HW228316   5.969   1.647   5.316
 8906SOL     OW28317   6.811   0.325   4.173
 8906SOL    HW128318   6.876   0.251   4.162
 8906SOL    HW228319   6.831   0.375   4.257
 8907SOL     OW28320   6.180   0.745   4.376
 8907SOL    HW128321   6.230   0.830   4.357
 8907SOL    HW228322   6.092   0.747   4.328
 8908SOL     OW28323   6.445   1.374   3.740
 8908SOL    HW128324   6.399   1.389   3.828
 8908SOL    HW228325   6.489   1.459   3.710
 8909SOL     OW28326   6.247   1.790   4.677
 8909SOL    HW128327   6.201   1.878   4.664
 8909SOL    HW228328   6.346   1.802   4.670
 8910SOL     OW28329   6.445   0.956   4.585
 8910SOL    HW128330   6.499   0.887   4.633
 8910SOL    HW228331   6.413   1.025   4.651
 8911SOL     OW28332   6.669   0.984   3.811
 8911SOL    HW128333   6.646   1.037   3.729
 8911SOL    HW228334   6.750   0.928   3.792
 8912SOL     OW28335   5.807   1.314   5.568
 8912SOL    HW128336   5.742   1.241   5.547
 8912SOL    HW228337   5.811   1.328   5.666
 8913SOL     OW28338   5.665   1.240   4.377
 8913SOL    HW128339   5.664   1.193   4.465
 8913SOL    HW228340   5.747   1.212   4.326
 8914SOL     OW28341   6.258   1.391   5.348
 8914SOL    HW128342   6.180   1.341   5.386
 8914SOL    HW228343   6.255   1.486   5.379
 8915SOL     OW28344   6.014   0.424   4.244
 8915SOL    HW128345   6.044   0.352   4.182
 8915SOL    HW228346   5.975   0.384   4.327
 8916SOL     OW28347   5.903   0.547   5.004
 8916SOL    HW128348   5.941   0.488   5.076
 8916SOL    HW228349   5.943   0.521   4.916
 8917SOL     OW28350   6.398   1.586   4.411
 8917SOL    HW128351   6.430   1.596   4.317
 8917SOL    HW228352   6.319   1.524   4.413
 8918SOL     OW28353   7.010   0.214   4.836
 8918SOL    HW128354   7.062   0.149   4.891
 8918SOL    HW228355   6.961   0.277   4.897
 8919SOL     OW28356   6.587   0.034   4.878
 8919SOL    HW128357   6.524  -0.038   4.847
 8919SOL    HW228358   6.680  -0.002   4.878
 8920SOL     OW28359   6.356   1.330   4.025
 8920SOL    HW128360   6.310   1.243   4.042
 8920SOL    HW228361   6.447   1.327   4.066
 8921SOL     OW28362   6.204   1.567   5.008
 8921SOL    HW128363   6.199   1.649   5.065
 8921SOL    HW228364   6.293   1.564   4.963
 8922SOL     OW28365   5.625   1.077   4.024
 8922SOL    HW128366   5.724   1.066   4.015
 8922SOL    HW228367   5.585   0.991   4.056
 8923SOL     OW28368   6.461   1.646   4.061
 8923SOL    HW128369   6.384   1.611   4.007
 8923SOL    HW228370   6.429   1.717   4.123
 8924SOL     OW28371   5.816   0.628   5.699
 8924SOL    HW128372   5.723   0.626   5.736
 8924SOL    HW228373   5.817   0.589   5.607
 8925SOL     OW28374   5.811   0.275   6.582
 8925SOL    HW128375   5.846   0.258   6.674
 8925SOL    HW228376   5.723   0.230   6.570
 8926SOL     OW28377   5.605   0.368   6.233
 8926SOL    HW128378   5.523   0.411   6.272
 8926SOL    HW228379   5.577   0.295   6.170
 8927SOL     OW28380   6.155   1.275   6.751
 8927SOL    HW128381   6.062   1.268   6.714
 8927SOL    HW228382   6.166   1.364   6.795
 8928SOL     OW28383   7.141   1.511   6.289
 8928SOL    HW128384   7.084   1.495   6.370
 8928SOL    HW228385   7.082   1.521   6.209
 8929SOL     OW28386   6.721   0.703   6.303
 8929SOL    HW128387   6.778   0.781   6.278
 8929SOL    HW228388   6.661   0.729   6.379
 8930SOL     OW28389   6.354   1.144   6.609
 8930SOL    HW128390   6.276   1.161   6.669
 8930SOL    HW228391   6.388   1.231   6.573
 8931SOL     OW28392   6.271   1.012   6.251
 8931SOL    HW128393   6.340   0.996   6.321
 8931SOL    HW228394   6.198   1.069   6.289
 8932SOL     OW28395   5.921   1.435   6.647
 8932SOL    HW128396   5.843   1.404   6.594
 8932SOL    HW228397   5.979   1.493   6.590
 8933SOL     OW28398   5.817   1.713   6.069
 8933SOL    HW128399   5.851   1.790   6.123
 8933SOL    HW228400   5.861   1.713   5.979
 8934SOL     OW28401   5.816   1.434   6.124
 8934SOL    HW128402   5.790   1.530   6.124
 8934SOL    HW228403   5.745   1.380   6.169
 8935SOL     OW28404   5.826   1.091   6.472
 8935SOL    HW128405   5.840   1.007   6.524
 8935SOL    HW228406   5.771   1.155   6.527
 8936SOL     OW28407   6.206   1.786   7.025
 8936SOL    HW128408   6.114   1.769   7.060
 8936SOL    HW228409   6.234   1.878   7.051
 8937SOL     OW28410   6.192   0.964   5.709
 8937SOL    HW128411   6.199   1.048   5.655
 8937SOL    HW228412   6.238   0.977   5.797
 8938SOL     OW28413   5.708   0.643   6.149
 8938SOL    HW128414   5.663   0.555   6.166
 8938SOL    HW228415   5.707   0.697   6.233
 8939SOL     OW28416   5.613   1.596   5.703
 8939SOL    HW128417   5.594   1.500   5.724
 8939SOL    HW228418   5.580   1.654   5.778
 8940SOL     OW28419   6.199   1.365   6.312
 8940SOL    HW128420   6.150   1.278   6.321
 8940SOL    HW228421   6.176   1.408   6.225
 8941SOL     OW28422   6.879   1.228   7.009
 8941SOL    HW128423   6.916   1.155   6.951
 8941SOL    HW228424   6.931   1.233   7.094
 8942SOL     OW28425   6.395   0.004   6.088
 8942SOL    HW128426   6.435   0.095   6.079
 8942SOL    HW228427   6.295   0.012   6.094
 8943SOL     OW28428   5.783   0.976   6.850
 8943SOL    HW128429   5.872   0.931   6.836
 8943SOL    HW228430   5.710   0.911   6.831
 8944SOL     OW28431   6.184   0.729   5.856
 8944SOL    HW128432   6.208   0.798   5.788
 8944SOL    HW228433   6.106   0.762   5.910
 8945SOL     OW28434   6.867   0.345   6.530
 8945SOL    HW128435   6.781   0.295   6.517
 8945SOL    HW228436   6.929   0.291   6.586
 8946SOL     OW28437   6.393   0.605   7.051
 8946SOL    HW128438   6.346   0.602   7.140
 8946SOL    HW228439   6.342   0.550   6.985
 8947SOL     OW28440   6.577   0.410   6.828
 8947SOL    HW128441   6.500   0.444   6.882
 8947SOL    HW228442   6.543   0.359   6.749
 8948SOL     OW28443   6.627   0.701   6.015
 8948SOL    HW128444   6.653   0.697   6.111
 8948SOL    HW228445   6.542   0.650   6.001
 8949SOL     OW28446   5.662   0.811   6.375
 8949SOL    HW128447   5.761   0.799   6.384
 8949SOL    HW228448   5.638   0.906   6.396
 8950SOL     OW28449   5.716   1.821   7.157
 8950SOL    HW128450   5.706   1.806   7.256
 8950SOL    HW228451   5.630   1.857   7.121
 8951SOL     OW28452   6.451   0.348   5.781
 8951SOL    HW128453   6.510   0.411   5.732
 8951SOL    HW228454   6.470   0.254   5.752
 8952SOL     OW28455   6.948   1.144   6.131
 8952SOL    HW128456   7.031   1.115   6.083
 8952SOL    HW228457   6.899   1.211   6.075
 8953SOL     OW28458   6.136   0.196   6.471
 8953SOL    HW128459   6.131   0.191   6.571
 8953SOL    HW228460   6.138   0.292   6.442
 8954SOL     OW28461   6.594   1.456   6.063
 8954SOL    HW128462   6.548   1.528   6.011
 8954SOL    HW228463   6.590   1.476   6.161
 8955SOL     OW28464   5.937   1.801   6.439
 8955SOL    HW128465   5.987   1.715   6.445
 8955SOL    HW228466   6.002   1.878   6.436
 8956SOL     OW28467   5.907   0.943   5.828
 8956SOL    HW128468   5.989   0.982   5.786
 8956SOL    HW228469   5.880   0.861   5.779
 8957SOL     OW28470   6.697   1.776   5.823
 8957SOL    HW128471   6.637   1.714   5.873
 8957SOL    HW228472   6.728   1.732   5.738
 8958SOL     OW28473   6.050   1.743   5.909
 8958SOL    HW128474   6.083   1.782   5.995
 8958SOL    HW228475   6.126   1.736   5.844
 8959SOL     OW28476   5.835   1.785   6.827
 8959SOL    HW128477   5.892   1.720   6.877
 8959SOL    HW228478   5.819   1.752   6.734
 8960SOL     OW28479   6.526   1.698   6.490
 8960SOL    HW128480   6.606   1.641   6.511
 8960SOL    HW228481   6.477   1.658   6.413
 8961SOL     OW28482   5.968   0.700   6.066
 8961SOL    HW128483   6.013   0.610   6.063
 8961SOL    HW228484   5.874   0.689   6.099
 8962SOL     OW28485   6.200   0.122   5.703
 8962SOL    HW128486   6.298   0.100   5.710
 8962SOL    HW228487   6.169   0.105   5.610
 8963SOL     OW28488   6.474   1.514   6.781
 8963SOL    HW128489   6.451   1.489   6.687
 8963SOL    HW228490   6.535   1.445   6.820
 8964SOL     OW28491   6.389   1.402   6.510
 8964SOL    HW128492   6.479   1.416   6.468
 8964SOL    HW228493   6.318   1.404   6.439
 8965SOL     OW28494   6.508   0.503   6.485
 8965SOL    HW128495   6.483   0.494   6.389
 8965SOL    HW228496   6.556   0.421   6.516
 8966SOL     OW28497   6.125   0.064   6.098
 8966SOL    HW128498   6.044   0.065   6.156
 8966SOL    HW228499   6.128   0.147   6.043
 8967SOL     OW28500   7.020   1.188   5.627
 8967SOL    HW128501   7.052   1.112   5.684
 8967SOL    HW228502   6.928   1.215   5.657
 8968SOL     OW28503   5.883   0.035   5.757
 8968SOL    HW128504   5.932   0.119   5.736
 8968SOL    HW228505   5.945  -0.030   5.802
 8969SOL     OW28506   6.521   0.236   6.066
 8969SOL    HW128507   6.473   0.277   5.988
 8969SOL    HW228508   6.620   0.234   6.047
 8970SOL     OW28509   6.813   1.570   6.379
 8970SOL    HW128510   6.834   1.644   6.314
 8970SOL    HW228511   6.881   1.570   6.452
 8971SOL     OW28512   6.045   1.152   6.327
 8971SOL    HW128513   5.974   1.125   6.392
 8971SOL    HW228514   6.019   1.124   6.234
 8972SOL     OW28515   6.857   1.797   6.177
 8972SOL    HW128516   6.901   1.861   6.113
 8972SOL    HW228517   6.807   1.849   6.247
 8973SOL     OW28518   6.618   0.549   5.602
 8973SOL    HW128519   6.577   0.631   5.563
 8973SOL    HW228520   6.682   0.575   5.675
 8974SOL     OW28521   6.147   0.222   6.733
 8974SOL    HW128522   6.185   0.138   6.770
 8974SOL    HW228523   6.059   0.241   6.777
 8975SOL     OW28524   6.452   0.454   6.228
 8975SOL    HW128525   6.420   0.526   6.166
 8975SOL    HW228526   6.476   0.373   6.175
 8976SOL     OW28527   6.603   0.039   6.339
 8976SOL    HW128528   6.531   0.044   6.270
 8976SOL    HW228529   6.579  -0.030   6.408
 8977SOL     OW28530   6.074   1.385   5.760
 8977SOL    HW128531   5.987   1.370   5.807
 8977SOL    HW228532   6.057   1.411   5.665
 8978SOL     OW28533   6.113   0.256   5.914
 8978SOL    HW128534   6.140   0.197   5.839
 8978SOL    HW228535   6.113   0.351   5.883
 8979SOL     OW28536   7.178   1.629   7.211
 8979SOL    HW128537   7.205   1.663   7.121
 8979SOL    HW228538   7.257   1.591   7.257
 8980SOL     OW28539   6.697   1.195   6.686
 8980SOL    HW128540   6.657   1.239   6.767
 8980SOL    HW228541   6.656   1.232   6.603
 8981SOL     OW28542   6.291   1.050   5.954
 8981SOL    HW128543   6.277   1.057   6.053
 8981SOL    HW228544   6.375   0.999   5.936
 8982SOL     OW28545   5.996   0.813   6.837
 8982SOL    HW128546   6.082   0.825   6.887
 8982SOL    HW228547   5.954   0.726   6.864
 8983SOL     OW28548   6.860   0.386   6.848
 8983SOL    HW128549   6.881   0.460   6.912
 8983SOL    HW228550   6.771   0.403   6.805
 8984SOL     OW28551   5.650   1.564   6.917
 8984SOL    HW128552   5.604   1.646   6.883
 8984SOL    HW228553   5.748   1.583   6.926
 8985SOL     OW28554   5.953   1.100   6.087
 8985SOL    HW128555   5.946   1.183   6.031
 8985SOL    HW228556   5.957   1.020   6.027
 8986SOL     OW28557   6.152   0.537   6.451
 8986SOL    HW128558   6.164   0.603   6.377
 8986SOL    HW228559   6.198   0.571   6.534
 8987SOL     OW28560   6.838   1.348   5.974
 8987SOL    HW128561   6.888   1.425   6.014
 8987SOL    HW228562   6.743   1.350   6.006
 8988SOL     OW28563   6.858   1.445   6.728
 8988SOL    HW128564   6.905   1.458   6.815
 8988SOL    HW228565   6.792   1.371   6.737
 8989SOL     OW28566   5.940   1.510   6.915
 8989SOL    HW128567   5.919   1.466   6.828
 8989SOL    HW228568   6.037   1.536   6.918
 8990SOL     OW28569   6.159   0.870   6.615
 8990SOL    HW128570   6.203   0.959   6.606
 8990SOL    HW228571   6.096   0.870   6.692
 8991SOL     OW28572   6.946   0.862   6.631
 8991SOL    HW128573   6.871   0.862   6.565
 8991SOL    HW228574   6.983   0.770   6.640
 8992SOL     OW28575   6.795   0.525   5.861
 8992SOL    HW128576   6.808   0.441   5.915
 8992SOL    HW228577   6.766   0.599   5.921
 8993SOL     OW28578   5.893   0.213   6.817
 8993SOL    HW128579   5.870   0.250   6.907
 8993SOL    HW228580   5.863   0.118   6.811
 8994SOL     OW28581   5.623   1.310   6.868
 8994SOL    HW128582   5.676   1.261   6.936
 8994SOL    HW228583   5.645   1.408   6.873
 8995SOL     OW28584   6.318   0.634   6.650
 8995SOL    HW128585   6.377   0.608   6.574
 8995SOL    HW228586   6.290   0.730   6.639
 8996SOL     OW28587   5.893   0.063   6.204
 8996SOL    HW128588   5.882   0.157   6.237
 8996SOL    HW228589   5.888   0.000   6.281
 8997SOL     OW28590   7.208   0.367   5.960
 8997SOL    HW128591   7.210   0.291   6.024
 8997SOL    HW228592   7.160   0.444   6.000
 8998SOL     OW28593   6.609   0.766   6.552
 8998SOL    HW128594   6.624   0.787   6.648
 8998SOL    HW228595   6.579   0.671   6.543
 8999SOL     OW28596   6.889   0.838   5.628
 8999SOL    HW128597   6.923   0.745   5.643
 8999SOL    HW228598   6.907   0.865   5.533
 9000SOL     OW28599   6.654   1.333   6.435
 9000SOL    HW128600   6.661   1.249   6.380
 9000SOL    HW228601   6.716   1.402   6.399
 9001SOL     OW28602   5.905   0.810   6.535
 9001SOL    HW128603   5.998   0.846   6.540
 9001SOL    HW228604   5.899   0.725   6.587
 9002SOL     OW28605   5.925   0.509   6.592
 9002SOL    HW128606   5.873   0.426   6.575
 9002SOL    HW228607   6.002   0.514   6.528
 9003SOL     OW28608   6.746   0.207   7.063
 9003SOL    HW128609   6.746   0.271   7.140
 9003SOL    HW228610   6.774   0.255   6.980
 9004SOL     OW28611   5.594   1.326   5.786
 9004SOL    HW128612   5.501   1.347   5.755
 9004SOL    HW228613   5.604   1.227   5.799
 9005SOL     OW28614   5.674   1.801   6.513
 9005SOL    HW128615   5.632   1.715   6.486
 9005SOL    HW228616   5.768   1.804   6.479
 9006SOL     OW28617   6.090   1.568   6.496
 9006SOL    HW128618   6.156   1.642   6.505
 9006SOL    HW228619   6.134   1.489   6.454
 9007SOL     OW28620   6.588   0.796   6.824
 9007SOL    HW128621   6.629   0.764   6.910
 9007SOL    HW228622   6.492   0.769   6.821
 9008SOL     OW28623   5.626   0.544   6.700
 9008SOL    HW128624   5.711   0.511   6.659
 9008SOL    HW228625   5.639   0.559   6.798
 9009SOL     OW28626   6.401   0.572   5.911
 9009SOL    HW128627   6.408   0.483   5.865
 9009SOL    HW228628   6.307   0.606   5.903
 9010SOL     OW28629   6.257   0.464   6.855
 9010SOL    HW128630   6.223   0.375   6.825
 9010SOL    HW228631   6.283   0.518   6.775
 9011SOL     OW28632   6.516   1.678   7.051
 9011SOL    HW128633   6.492   1.660   6.956
 9011SOL    HW228634   6.546   1.772   7.061
 9012SOL     OW28635   6.059   0.500   5.777
 9012SOL    HW128636   6.120   0.580   5.781
 9012SOL    HW228637   5.964   0.531   5.784
 9013SOL     OW28638   5.745   1.137   7.052
 9013SOL    HW128639   5.767   1.076   7.128
 9013SOL    HW228640   5.755   1.088   6.966
 9014SOL     OW28641   6.933   1.059   6.820
 9014SOL    HW128642   6.957   0.996   6.746
 9014SOL    HW228643   6.843   1.099   6.802
 9015SOL     OW28644   6.888   0.855   5.895
 9015SOL    HW128645   6.802   0.824   5.937
 9015SOL    HW228646   6.884   0.841   5.796
 9016SOL     OW28647   6.838   1.731   6.714
 9016SOL    HW128648   6.922   1.736   6.660
 9016SOL    HW228649   6.815   1.635   6.732
 9017SOL     OW28650   5.669   1.258   6.608
 9017SOL    HW128651   5.664   1.257   6.708
 9017SOL    HW228652   5.586   1.217   6.570
 9018SOL     OW28653   6.974   1.573   6.063
 9018SOL    HW128654   7.041   1.585   5.989
 9018SOL    HW228655   6.934   1.662   6.086
 9019SOL     OW28656   6.866   0.927   6.258
 9019SOL    HW128657   6.926   0.846   6.260
 9019SOL    HW228658   6.906   0.996   6.198
 9020SOL     OW28659   6.258   1.616   5.740
 9020SOL    HW128660   6.267   1.626   5.641
 9020SOL    HW228661   6.218   1.527   5.761
 9021SOL     OW28662   5.849   0.326   6.306
 9021SOL    HW128663   5.770   0.377   6.272
 9021SOL    HW228664   5.840   0.311   6.404
 9022SOL     OW28665   6.780   1.612   5.617
 9022SOL    HW128666   6.786   1.519   5.654
 9022SOL    HW228667   6.721   1.612   5.537
 9023SOL     OW28668   6.408   1.002   6.958
 9023SOL    HW128669   6.448   1.001   6.866
 9023SOL    HW228670   6.418   1.094   6.998
 9024SOL     OW28671   6.502   0.910   5.877
 9024SOL    HW128672   6.565   0.948   5.809
 9024SOL    HW228673   6.542   0.827   5.916
 9025SOL     OW28674   6.625   1.098   6.282
 9025SOL    HW128675   6.555   1.051   6.336
 9025SOL    HW228676   6.684   1.030   6.239
 9026SOL     OW28677   6.600   0.236   6.557
 9026SOL    HW128678   6.592   0.200   6.464
 9026SOL    HW228679   6.598   0.160   6.622
 9027SOL     OW28680   6.176   1.487   6.077
 9027SOL    HW128681   6.218   1.429   6.007
 9027SOL    HW228682   6.132   1.566   6.033
 9028SOL     OW28683   5.841   1.348   5.876
 9028SOL    HW128684   5.745   1.349   5.849
 9028SOL    HW228685   5.853   1.401   5.960
 9029SOL     OW28686   5.661   0.345   5.619
 9029SOL    HW128687   5.569   0.317   5.590
 9029SOL    HW228688   5.692   0.422   5.563
 9030SOL     OW28689   5.658   0.166   5.904
 9030SOL    HW128690   5.641   0.249   5.850
 9030SOL    HW228691   5.748   0.129   5.882
 9031SOL     OW28692   5.976   1.741   7.146
 9031SOL    HW128693   5.885   1.782   7.144
 9031SOL    HW228694   5.969   1.647   7.178
 9032SOL     OW28695   6.811   0.325   6.035
 9032SOL    HW128696   6.876   0.251   6.024
 9032SOL    HW228697   6.831   0.375   6.119
 9033SOL     OW28698   6.180   0.745   6.238
 9033SOL    HW128699   6.230   0.830   6.219
 9033SOL    HW228700   6.092   0.747   6.190
 9034SOL     OW28701   6.445   1.374   5.602
 9034SOL    HW128702   6.399   1.389   5.690
 9034SOL    HW228703   6.489   1.459   5.572
 9035SOL     OW28704   6.247   1.790   6.539
 9035SOL    HW128705   6.201   1.878   6.526
 9035SOL    HW228706   6.346   1.802   6.532
 9036SOL     OW28707   6.445   0.956   6.447
 9036SOL    HW128708   6.499   0.887   6.495
 9036SOL    HW228709   6.413   1.025   6.513
 9037SOL     OW28710   6.669   0.984   5.673
 9037SOL    HW128711   6.646   1.037   5.591
 9037SOL    HW228712   6.750   0.928   5.654
 9038SOL     OW28713   5.665   1.240   6.239
 9038SOL    HW128714   5.664   1.193   6.327
 9038SOL    HW228715   5.747   1.212   6.188
 9039SOL     OW28716   6.014   0.424   6.106
 9039SOL    HW128717   6.044   0.352   6.044
 9039SOL    HW228718   5.975   0.384   6.189
 9040SOL     OW28719   5.903   0.547   6.866
 9040SOL    HW128720   5.941   0.488   6.938
 9040SOL    HW228721   5.943   0.521   6.778
 9041SOL     OW28722   6.398   1.586   6.273
 9041SOL    HW128723   6.430   1.596   6.179
 9041SOL    HW228724   6.319   1.524   6.275
 9042SOL     OW28725   7.010   0.214   6.698
 9042SOL    HW128726   7.062   0.149   6.753
 9042SOL    HW228727   6.961   0.277   6.759
 9043SOL     OW28728   6.587   0.034   6.740
 9043SOL    HW128729   6.524  -0.038   6.709
 9043SOL    HW228730   6.680  -0.002   6.740
 9044SOL     OW28731   6.356   1.330   5.887
 9044SOL    HW128732   6.310   1.243   5.904
 9044SOL    HW228733   6.447   1.327   5.928
 9045SOL     OW28734   6.204   1.567   6.870
 9045SOL    HW128735   6.199   1.649   6.927
 9045SOL    HW228736   6.293   1.564   6.825
 9046SOL     OW28737   5.625   1.077   5.886
 9046SOL    HW128738   5.724   1.066   5.877
 9046SOL    HW228739   5.585   0.991   5.918
 9047SOL     OW28740   6.461   1.646   5.923
 9047SOL    HW128741   6.384   1.611   5.869
 9047SOL    HW228742   6.429   1.717   5.985
 9048SOL     OW28743   5.816   2.490   0.113
 9048SOL    HW128744   5.723   2.488   0.150
 9048SOL    HW228745   5.817   2.451   0.021
 9049SOL     OW28746   5.811   2.137   0.996
 9049SOL    HW128747   5.846   2.120   1.088
 9049SOL    HW228748   5.723   2.092   0.984
 9050SOL     OW28749   5.605   2.230   0.647
 9050SOL    HW128750   5.523   2.273   0.686
 9050SOL    HW228751   5.577   2.157   0.584
 9051SOL     OW28752   6.155   3.137   1.165
 9051SOL    HW128753   6.062   3.130   1.128
 9051SOL    HW228754   6.166   3.226   1.209
 9052SOL     OW28755   7.141   3.373   0.703
 9052SOL    HW128756   7.084   3.357   0.784
 9052SOL    HW228757   7.082   3.383   0.623
 9053SOL     OW28758   6.721   2.565   0.717
 9053SOL    HW128759   6.778   2.643   0.692
 9053SOL    HW228760   6.661   2.591   0.793
 9054SOL     OW28761   6.354   3.006   1.023
 9054SOL    HW128762   6.276   3.023   1.083
 9054SOL    HW228763   6.388   3.093   0.987
 9055SOL     OW28764   6.436   2.660   1.823
 9055SOL    HW128765   6.432   2.736   1.888
 9055SOL    HW228766   6.458   2.696   1.732
 9056SOL     OW28767   6.271   2.874   0.665
 9056SOL    HW128768   6.340   2.858   0.735
 9056SOL    HW228769   6.198   2.931   0.703
 9057SOL     OW28770   6.272   3.023   1.803
 9057SOL    HW128771   6.332   3.102   1.817
 9057SOL    HW228772   6.186   3.054   1.762
 9058SOL     OW28773   5.921   3.297   1.061
 9058SOL    HW128774   5.843   3.266   1.008
 9058SOL    HW228775   5.979   3.355   1.004
 9059SOL     OW28776   6.024   2.254   1.499
 9059SOL    HW128777   6.106   2.198   1.508
 9059SOL    HW228778   5.943   2.196   1.503
 9060SOL     OW28779   5.817   3.575   0.483
 9060SOL    HW128780   5.851   3.652   0.537
 9060SOL    HW228781   5.861   3.575   0.393
 9061SOL     OW28782   6.713   3.203   1.690
 9061SOL    HW128783   6.760   3.203   1.778
 9061SOL    HW228784   6.665   3.116   1.679
 9062SOL     OW28785   5.816   3.296   0.538
 9062SOL    HW128786   5.790   3.392   0.538
 9062SOL    HW228787   5.745   3.242   0.583
 9063SOL     OW28788   5.826   2.953   0.886
 9063SOL    HW128789   5.840   2.869   0.938
 9063SOL    HW228790   5.771   3.017   0.941
 9064SOL     OW28791   6.206   3.648   1.439
 9064SOL    HW128792   6.114   3.631   1.474
 9064SOL    HW228793   6.234   3.740   1.465
 9065SOL     OW28794   6.192   2.826   0.123
 9065SOL    HW128795   6.199   2.910   0.069
 9065SOL    HW228796   6.238   2.839   0.211
 9066SOL     OW28797   5.708   2.505   0.563
 9066SOL    HW128798   5.663   2.417   0.580
 9066SOL    HW228799   5.707   2.559   0.647
 9067SOL     OW28800   5.613   3.458   0.117
 9067SOL    HW128801   5.594   3.362   0.138
 9067SOL    HW228802   5.580   3.516   0.192
 9068SOL     OW28803   5.699   2.599   1.597
 9068SOL    HW128804   5.787   2.586   1.642
 9068SOL    HW228805   5.686   2.696   1.575
 9069SOL     OW28806   6.199   3.227   0.726
 9069SOL    HW128807   6.150   3.140   0.735
 9069SOL    HW228808   6.176   3.270   0.639
 9070SOL     OW28809   6.879   3.090   1.423
 9070SOL    HW128810   6.916   3.017   1.365
 9070SOL    HW228811   6.931   3.095   1.508
 9071SOL     OW28812   6.395   1.866   0.502
 9071SOL    HW128813   6.435   1.957   0.493
 9071SOL    HW228814   6.295   1.874   0.508
 9072SOL     OW28815   5.783   2.838   1.264
 9072SOL    HW128816   5.872   2.793   1.250
 9072SOL    HW228817   5.710   2.773   1.245
 9073SOL     OW28818   6.773   3.654   1.616
 9073SOL    HW128819   6.797   3.714   1.540
 9073SOL    HW228820   6.780   3.559   1.586
 9074SOL     OW28821   5.903   2.113   1.801
 9074SOL    HW128822   5.974   2.184   1.807
 9074SOL    HW228823   5.815   2.152   1.829
 9075SOL     OW28824   6.184   2.591   0.270
 9075SOL    HW128825   6.208   2.660   0.202
 9075SOL    HW228826   6.106   2.624   0.324
 9076SOL     OW28827   6.393   2.467   1.465
 9076SOL    HW128828   6.346   2.464   1.554
 9076SOL    HW228829   6.342   2.412   1.399
 9077SOL     OW28830   6.559   2.752   1.572
 9077SOL    HW128831   6.605   2.668   1.543
 9077SOL    HW228832   6.503   2.786   1.497
 9078SOL     OW28833   6.577   2.272   1.242
 9078SOL    HW128834   6.500   2.306   1.296
 9078SOL    HW228835   6.543   2.221   1.163
 9079SOL     OW28836   6.627   2.563   0.429
 9079SOL    HW128837   6.653   2.559   0.525
 9079SOL    HW228838   6.542   2.512   0.415
 9080SOL     OW28839   5.662   2.673   0.789
 9080SOL    HW128840   5.761   2.661   0.798
 9080SOL    HW228841   5.638   2.768   0.810
 9081SOL     OW28842   5.716   3.683   1.571
 9081SOL    HW128843   5.706   3.668   1.670
 9081SOL    HW228844   5.630   3.719   1.535
 9082SOL     OW28845   6.451   2.210   0.195
 9082SOL    HW128846   6.510   2.273   0.146
 9082SOL    HW228847   6.470   2.116   0.166
 9083SOL     OW28848   6.948   3.006   0.545
 9083SOL    HW128849   7.031   2.977   0.497
 9083SOL    HW228850   6.899   3.073   0.489
 9084SOL     OW28851   6.136   2.058   0.885
 9084SOL    HW128852   6.131   2.053   0.985
 9084SOL    HW228853   6.138   2.154   0.856
 9085SOL     OW28854   6.594   3.318   0.477
 9085SOL    HW128855   6.548   3.390   0.425
 9085SOL    HW228856   6.590   3.338   0.575
 9086SOL     OW28857   5.937   3.663   0.853
 9086SOL    HW128858   5.987   3.577   0.859
 9086SOL    HW228859   6.002   3.740   0.850
 9087SOL     OW28860   6.813   3.412   1.506
 9087SOL    HW128861   6.819   3.335   1.570
 9087SOL    HW228862   6.761   3.386   1.426
 9088SOL     OW28863   5.907   2.805   0.242
 9088SOL    HW128864   5.989   2.844   0.200
 9088SOL    HW228865   5.880   2.723   0.193
 9089SOL     OW28866   6.047   3.128   1.727
 9089SOL    HW128867   5.997   3.129   1.641
 9089SOL    HW228868   5.984   3.110   1.803
 9090SOL     OW28869   6.697   3.638   0.237
 9090SOL    HW128870   6.637   3.576   0.287
 9090SOL    HW228871   6.728   3.594   0.152
 9091SOL     OW28872   5.788   2.147   1.498
 9091SOL    HW128873   5.708   2.207   1.485
 9091SOL    HW228874   5.778   2.098   1.584
 9092SOL     OW28875   7.218   3.239   0.081
 9092SOL    HW128876   7.186   3.333   0.071
 9092SOL    HW228877   7.142   3.176   0.069
 9093SOL     OW28878   6.050   3.605   0.323
 9093SOL    HW128879   6.083   3.644   0.409
 9093SOL    HW228880   6.126   3.598   0.258
 9094SOL     OW28881   5.835   3.647   1.241
 9094SOL    HW128882   5.892   3.582   1.291
 9094SOL    HW228883   5.819   3.614   1.148
 9095SOL     OW28884   6.526   3.560   0.904
 9095SOL    HW128885   6.606   3.503   0.925
 9095SOL    HW228886   6.477   3.520   0.827
 9096SOL     OW28887   5.968   2.562   0.480
 9096SOL    HW128888   6.013   2.472   0.477
 9096SOL    HW228889   5.874   2.551   0.513
 9097SOL     OW28890   6.367   2.126   1.749
 9097SOL    HW128891   6.434   2.065   1.792
 9097SOL    HW228892   6.294   2.145   1.814
 9098SOL     OW28893   6.474   3.376   1.195
 9098SOL    HW128894   6.451   3.351   1.101
 9098SOL    HW228895   6.535   3.307   1.234
 9099SOL     OW28896   6.389   3.264   0.924
 9099SOL    HW128897   6.479   3.278   0.882
 9099SOL    HW228898   6.318   3.266   0.853
 9100SOL     OW28899   6.508   2.365   0.899
 9100SOL    HW128900   6.483   2.356   0.803
 9100SOL    HW228901   6.556   2.283   0.930
 9101SOL     OW28902   6.125   1.926   0.512
 9101SOL    HW128903   6.044   1.927   0.570
 9101SOL    HW228904   6.128   2.009   0.457
 9102SOL     OW28905   6.521   2.098   0.480
 9102SOL    HW128906   6.473   2.139   0.402
 9102SOL    HW228907   6.620   2.096   0.461
 9103SOL     OW28908   6.662   2.545   1.464
 9103SOL    HW128909   6.582   2.484   1.467
 9103SOL    HW228910   6.743   2.492   1.440
 9104SOL     OW28911   6.813   3.432   0.793
 9104SOL    HW128912   6.834   3.506   0.728
 9104SOL    HW228913   6.881   3.432   0.866
 9105SOL     OW28914   6.045   3.014   0.741
 9105SOL    HW128915   5.974   2.987   0.806
 9105SOL    HW228916   6.019   2.986   0.648
 9106SOL     OW28917   6.857   3.659   0.591
 9106SOL    HW128918   6.901   3.723   0.527
 9106SOL    HW228919   6.807   3.711   0.661
 9107SOL     OW28920   6.618   2.411   0.016
 9107SOL    HW128921   6.577   2.493  -0.023
 9107SOL    HW228922   6.682   2.437   0.089
 9108SOL     OW28923   5.664   2.418   1.386
 9108SOL    HW128924   5.756   2.417   1.345
 9108SOL    HW228925   5.658   2.492   1.453
 9109SOL     OW28926   6.147   2.084   1.147
 9109SOL    HW128927   6.185   2.000   1.184
 9109SOL    HW228928   6.059   2.103   1.191
 9110SOL     OW28929   6.452   2.316   0.642
 9110SOL    HW128930   6.420   2.388   0.580
 9110SOL    HW228931   6.476   2.235   0.589
 9111SOL     OW28932   6.603   1.901   0.753
 9111SOL    HW128933   6.531   1.906   0.684
 9111SOL    HW228934   6.579   1.832   0.822
 9112SOL     OW28935   6.074   3.247   0.174
 9112SOL    HW128936   5.987   3.232   0.221
 9112SOL    HW228937   6.057   3.273   0.079
 9113SOL     OW28938   6.113   2.118   0.328
 9113SOL    HW128939   6.140   2.059   0.253
 9113SOL    HW228940   6.113   2.213   0.297
 9114SOL     OW28941   6.650   3.209   1.340
 9114SOL    HW128942   6.570   3.186   1.395
 9114SOL    HW228943   6.733   3.183   1.389
 9115SOL     OW28944   6.697   3.057   1.100
 9115SOL    HW128945   6.657   3.101   1.181
 9115SOL    HW228946   6.656   3.094   1.017
 9116SOL     OW28947   6.566   2.978   1.719
 9116SOL    HW128948   6.467   2.984   1.729
 9116SOL    HW228949   6.589   2.898   1.663
 9117SOL     OW28950   6.291   2.912   0.368
 9117SOL    HW128951   6.277   2.919   0.467
 9117SOL    HW228952   6.375   2.861   0.350
 9118SOL     OW28953   5.996   2.675   1.251
 9118SOL    HW128954   6.082   2.687   1.301
 9118SOL    HW228955   5.954   2.588   1.278
 9119SOL     OW28956   6.860   2.248   1.262
 9119SOL    HW128957   6.881   2.322   1.326
 9119SOL    HW228958   6.771   2.265   1.219
 9120SOL     OW28959   5.650   3.426   1.331
 9120SOL    HW128960   5.604   3.508   1.297
 9120SOL    HW228961   5.748   3.445   1.340
 9121SOL     OW28962   5.953   2.962   0.501
 9121SOL    HW128963   5.946   3.045   0.445
 9121SOL    HW228964   5.957   2.882   0.441
 9122SOL     OW28965   6.152   2.399   0.865
 9122SOL    HW128966   6.164   2.465   0.791
 9122SOL    HW228967   6.198   2.433   0.948
 9123SOL     OW28968   6.838   3.210   0.388
 9123SOL    HW128969   6.888   3.287   0.428
 9123SOL    HW228970   6.743   3.212   0.420
 9124SOL     OW28971   6.858   3.307   1.142
 9124SOL    HW128972   6.905   3.320   1.229
 9124SOL    HW228973   6.792   3.233   1.151
 9125SOL     OW28974   5.940   3.372   1.329
 9125SOL    HW128975   5.919   3.328   1.242
 9125SOL    HW228976   6.037   3.398   1.332
 9126SOL     OW28977   5.988   2.613   1.598
 9126SOL    HW128978   6.056   2.668   1.551
 9126SOL    HW228979   6.028   2.525   1.625
 9127SOL     OW28980   6.599   1.967   1.770
 9127SOL    HW128981   6.605   2.052   1.718
 9127SOL    HW228982   6.631   1.891   1.713
 9128SOL     OW28983   6.090   1.912   1.740
 9128SOL    HW128984   6.048   1.855   1.670
 9128SOL    HW228985   6.024   1.981   1.772
 9129SOL     OW28986   6.159   2.732   1.029
 9129SOL    HW128987   6.203   2.821   1.020
 9129SOL    HW228988   6.096   2.732   1.106
 9130SOL     OW28989   6.946   2.724   1.045
 9130SOL    HW128990   6.871   2.724   0.979
 9130SOL    HW228991   6.983   2.632   1.054
 9131SOL     OW28992   6.795   2.387   0.275
 9131SOL    HW128993   6.808   2.303   0.329
 9131SOL    HW228994   6.766   2.461   0.335
 9132SOL     OW28995   5.893   2.075   1.231
 9132SOL    HW128996   5.870   2.112   1.321
 9132SOL    HW228997   5.863   1.980   1.225
 9133SOL     OW28998   5.623   3.172   1.282
 9133SOL    HW128999   5.676   3.123   1.350
 9133SOL    HW229000   5.645   3.270   1.287
 9134SOL     OW29001   6.318   2.496   1.064
 9134SOL    HW129002   6.377   2.470   0.988
 9134SOL    HW229003   6.290   2.592   1.053
 9135SOL     OW29004   5.893   1.925   0.618
 9135SOL    HW129005   5.882   2.019   0.651
 9135SOL    HW229006   5.888   1.862   0.695
 9136SOL     OW29007   7.208   2.229   0.374
 9136SOL    HW129008   7.210   2.153   0.438
 9136SOL    HW229009   7.160   2.306   0.414
 9137SOL     OW29010   6.609   2.628   0.966
 9137SOL    HW129011   6.624   2.649   1.062
 9137SOL    HW229012   6.579   2.533   0.957
 9138SOL     OW29013   6.566   3.435   1.700
 9138SOL    HW129014   6.546   3.479   1.612
 9138SOL    HW229015   6.605   3.344   1.684
 9139SOL     OW29016   5.936   2.760   1.804
 9139SOL    HW129017   6.012   2.804   1.852
 9139SOL    HW229018   5.971   2.713   1.722
 9140SOL     OW29019   6.889   2.700   0.042
 9140SOL    HW129020   6.923   2.607   0.057
 9140SOL    HW229021   6.907   2.727  -0.053
 9141SOL     OW29022   6.654   3.195   0.849
 9141SOL    HW129023   6.661   3.111   0.794
 9141SOL    HW229024   6.716   3.264   0.813
 9142SOL     OW29025   5.905   2.672   0.949
 9142SOL    HW129026   5.998   2.708   0.954
 9142SOL    HW229027   5.899   2.587   1.001
 9143SOL     OW29028   5.925   2.371   1.006
 9143SOL    HW129029   5.873   2.288   0.989
 9143SOL    HW229030   6.002   2.376   0.942
 9144SOL     OW29031   5.674   3.663   0.927
 9144SOL    HW129032   5.632   3.577   0.900
 9144SOL    HW229033   5.768   3.666   0.893
 9145SOL     OW29034   6.090   3.430   0.910
 9145SOL    HW129035   6.156   3.504   0.919
 9145SOL    HW229036   6.134   3.351   0.868
 9146SOL     OW29037   6.588   2.658   1.238
 9146SOL    HW129038   6.629   2.626   1.324
 9146SOL    HW229039   6.492   2.631   1.235
 9147SOL     OW29040   5.626   2.406   1.114
 9147SOL    HW129041   5.711   2.373   1.073
 9147SOL    HW229042   5.639   2.421   1.212
 9148SOL     OW29043   5.775   2.382   1.722
 9148SOL    HW129044   5.834   2.342   1.652
 9148SOL    HW229045   5.717   2.453   1.681
 9149SOL     OW29046   6.401   2.434   0.325
 9149SOL    HW129047   6.408   2.345   0.279
 9149SOL    HW229048   6.307   2.468   0.317
 9150SOL     OW29049   5.838   3.426   1.744
 9150SOL    HW129050   5.808   3.483   1.820
 9150SOL    HW229051   5.831   3.329   1.770
 9151SOL     OW29052   6.257   2.326   1.269
 9151SOL    HW129053   6.223   2.237   1.239
 9151SOL    HW229054   6.283   2.380   1.189
 9152SOL     OW29055   6.516   3.540   1.465
 9152SOL    HW129056   6.492   3.522   1.370
 9152SOL    HW229057   6.546   3.634   1.475
 9153SOL     OW29058   6.059   2.362   0.191
 9153SOL    HW129059   6.120   2.442   0.195
 9153SOL    HW229060   5.964   2.393   0.198
 9154SOL     OW29061   5.745   2.999   1.466
 9154SOL    HW129062   5.767   2.938   1.542
 9154SOL    HW229063   5.755   2.950   1.380
 9155SOL     OW29064   6.933   2.921   1.234
 9155SOL    HW129065   6.957   2.858   1.160
 9155SOL    HW229066   6.843   2.961   1.216
 9156SOL     OW29067   6.888   2.717   0.309
 9156SOL    HW129068   6.802   2.686   0.351
 9156SOL    HW229069   6.884   2.703   0.210
 9157SOL     OW29070   6.838   3.593   1.128
 9157SOL    HW129071   6.922   3.598   1.074
 9157SOL    HW229072   6.815   3.497   1.146
 9158SOL     OW29073   5.669   3.120   1.022
 9158SOL    HW129074   5.664   3.119   1.122
 9158SOL    HW229075   5.586   3.079   0.984
 9159SOL     OW29076   6.274   3.524   1.716
 9159SOL    HW129077   6.218   3.605   1.725
 9159SOL    HW229078   6.326   3.528   1.630
 9160SOL     OW29079   6.489   1.948   0.133
 9160SOL    HW129080   6.540   1.949   0.047
 9160SOL    HW229081   6.545   1.906   0.204
 9161SOL     OW29082   6.974   3.435   0.477
 9161SOL    HW129083   7.041   3.447   0.403
 9161SOL    HW229084   6.934   3.524   0.500
 9162SOL     OW29085   5.716   3.656   1.851
 9162SOL    HW129086   5.675   3.582   1.904
 9162SOL    HW229087   5.780   3.707   1.909
 9163SOL     OW29088   6.866   2.789   0.672
 9163SOL    HW129089   6.926   2.708   0.674
 9163SOL    HW229090   6.906   2.858   0.612
 9164SOL     OW29091   6.416   3.135   1.422
 9164SOL    HW129092   6.411   3.168   1.517
 9164SOL    HW229093   6.330   3.154   1.376
 9165SOL     OW29094   6.258   3.478   0.154
 9165SOL    HW129095   6.267   3.488   0.055
 9165SOL    HW229096   6.218   3.389   0.175
 9166SOL     OW29097   5.849   2.188   0.720
 9166SOL    HW129098   5.770   2.239   0.686
 9166SOL    HW229099   5.840   2.173   0.818
 9167SOL     OW29100   6.780   3.474   0.031
 9167SOL    HW129101   6.786   3.381   0.068
 9167SOL    HW229102   6.721   3.474  -0.049
 9168SOL     OW29103   6.408   2.864   1.372
 9168SOL    HW129104   6.448   2.863   1.280
 9168SOL    HW229105   6.418   2.956   1.412
 9169SOL     OW29106   6.502   2.772   0.291
 9169SOL    HW129107   6.565   2.810   0.223
 9169SOL    HW229108   6.542   2.689   0.330
 9170SOL     OW29109   5.958   3.150   1.490
 9170SOL    HW129110   5.945   3.243   1.456
 9170SOL    HW229111   5.874   3.098   1.477
 9171SOL     OW29112   6.625   2.960   0.696
 9171SOL    HW129113   6.555   2.913   0.750
 9171SOL    HW229114   6.684   2.892   0.653
 9172SOL     OW29115   6.176   3.349   0.491
 9172SOL    HW129116   6.218   3.291   0.421
 9172SOL    HW229117   6.132   3.428   0.447
 9173SOL     OW29118   5.841   3.210   0.290
 9173SOL    HW129119   5.745   3.211   0.263
 9173SOL    HW229120   5.853   3.263   0.374
 9174SOL     OW29121   5.691   2.875   1.726
 9174SOL    HW129122   5.614   2.842   1.780
 9174SOL    HW229123   5.776   2.845   1.768
 9175SOL     OW29124   6.258   2.065   1.489
 9175SOL    HW129125   6.348   2.049   1.449
 9175SOL    HW229126   6.266   2.070   1.588
 9176SOL     OW29127   5.661   2.207   0.033
 9176SOL    HW129128   5.569   2.179   0.004
 9176SOL    HW229129   5.692   2.284  -0.023
 9177SOL     OW29130   5.658   2.028   0.318
 9177SOL    HW129131   5.641   2.111   0.264
 9177SOL    HW229132   5.748   1.991   0.296
 9178SOL     OW29133   6.199   2.704   1.431
 9178SOL    HW129134   6.255   2.785   1.414
 9178SOL    HW229135   6.258   2.624   1.434
 9179SOL     OW29136   6.302   2.427   1.708
 9179SOL    HW129137   6.321   2.492   1.782
 9179SOL    HW229138   6.362   2.347   1.717
 9180SOL     OW29139   7.036   3.082   1.633
 9180SOL    HW129140   7.027   3.072   1.732
 9180SOL    HW229141   7.132   3.075   1.607
 9181SOL     OW29142   5.976   3.603   1.560
 9181SOL    HW129143   5.885   3.644   1.558
 9181SOL    HW229144   5.969   3.509   1.592
 9182SOL     OW29145   6.811   2.187   0.449
 9182SOL    HW129146   6.876   2.113   0.438
 9182SOL    HW229147   6.831   2.237   0.533
 9183SOL     OW29148   6.180   2.607   0.652
 9183SOL    HW129149   6.230   2.692   0.633
 9183SOL    HW229150   6.092   2.609   0.604
 9184SOL     OW29151   6.445   3.236   0.016
 9184SOL    HW129152   6.399   3.251   0.104
 9184SOL    HW229153   6.489   3.321  -0.014
 9185SOL     OW29154   6.247   3.652   0.953
 9185SOL    HW129155   6.201   3.740   0.940
 9185SOL    HW229156   6.346   3.664   0.946
 9186SOL     OW29157   6.445   2.818   0.861
 9186SOL    HW129158   6.499   2.749   0.909
 9186SOL    HW229159   6.413   2.887   0.927
 9187SOL     OW29160   6.669   2.846   0.087
 9187SOL    HW129161   6.646   2.899   0.005
 9187SOL    HW229162   6.750   2.790   0.068
 9188SOL     OW29163   5.807   3.176   1.844
 9188SOL    HW129164   5.742   3.103   1.823
 9188SOL    HW229165   5.811   3.190   1.942
 9189SOL     OW29166   5.665   3.102   0.653
 9189SOL    HW129167   5.664   3.055   0.741
 9189SOL    HW229168   5.747   3.074   0.602
 9190SOL     OW29169   6.258   3.253   1.624
 9190SOL    HW129170   6.180   3.203   1.662
 9190SOL    HW229171   6.255   3.348   1.655
 9191SOL     OW29172   6.014   2.286   0.520
 9191SOL    HW129173   6.044   2.214   0.458
 9191SOL    HW229174   5.975   2.246   0.603
 9192SOL     OW29175   5.903   2.409   1.280
 9192SOL    HW129176   5.941   2.350   1.352
 9192SOL    HW229177   5.943   2.383   1.192
 9193SOL     OW29178   6.398   3.448   0.687
 9193SOL    HW129179   6.430   3.458   0.593
 9193SOL    HW229180   6.319   3.386   0.689
 9194SOL     OW29181   7.010   2.076   1.112
 9194SOL    HW129182   7.062   2.011   1.167
 9194SOL    HW229183   6.961   2.139   1.173
 9195SOL     OW29184   6.356   3.192   0.301
 9195SOL    HW129185   6.310   3.105   0.318
 9195SOL    HW229186   6.447   3.189   0.342
 9196SOL     OW29187   6.204   3.429   1.284
 9196SOL    HW129188   6.199   3.511   1.341
 9196SOL    HW229189   6.293   3.426   1.239
 9197SOL     OW29190   5.625   2.939   0.300
 9197SOL    HW129191   5.724   2.928   0.291
 9197SOL    HW229192   5.585   2.853   0.332
 9198SOL     OW29193   6.461   3.508   0.337
 9198SOL    HW129194   6.384   3.473   0.283
 9198SOL    HW229195   6.429   3.579   0.399
 9199SOL     OW29196   5.816   2.490   1.975
 9199SOL    HW129197   5.723   2.488   2.012
 9199SOL    HW229198   5.817   2.451   1.883
 9200SOL     OW29199   5.811   2.137   2.858
 9200SOL    HW129200   5.846   2.120   2.950
 9200SOL    HW229201   5.723   2.092   2.846
 9201SOL     OW29202   5.605   2.230   2.509
 9201SOL    HW129203   5.523   2.273   2.548
 9201SOL    HW229204   5.577   2.157   2.446
 9202SOL     OW29205   6.155   3.137   3.027
 9202SOL    HW129206   6.062   3.130   2.990
 9202SOL    HW229207   6.166   3.226   3.071
 9203SOL     OW29208   7.141   3.373   2.565
 9203SOL    HW129209   7.084   3.357   2.646
 9203SOL    HW229210   7.082   3.383   2.485
 9204SOL     OW29211   6.721   2.565   2.579
 9204SOL    HW129212   6.778   2.643   2.554
 9204SOL    HW229213   6.661   2.591   2.655
 9205SOL     OW29214   6.354   3.006   2.885
 9205SOL    HW129215   6.276   3.023   2.945
 9205SOL    HW229216   6.388   3.093   2.849
 9206SOL     OW29217   6.436   2.660   3.685
 9206SOL    HW129218   6.432   2.736   3.750
 9206SOL    HW229219   6.458   2.696   3.594
 9207SOL     OW29220   6.271   2.874   2.527
 9207SOL    HW129221   6.340   2.858   2.597
 9207SOL    HW229222   6.198   2.931   2.565
 9208SOL     OW29223   6.272   3.023   3.665
 9208SOL    HW129224   6.332   3.102   3.679
 9208SOL    HW229225   6.186   3.054   3.624
 9209SOL     OW29226   5.921   3.297   2.923
 9209SOL    HW129227   5.843   3.266   2.870
 9209SOL    HW229228   5.979   3.355   2.866
 9210SOL     OW29229   6.024   2.254   3.361
 9210SOL    HW129230   6.106   2.198   3.370
 9210SOL    HW229231   5.943   2.196   3.365
 9211SOL     OW29232   5.817   3.575   2.345
 9211SOL    HW129233   5.851   3.652   2.399
 9211SOL    HW229234   5.861   3.575   2.255
 9212SOL     OW29235   6.713   3.203   3.552
 9212SOL    HW129236   6.760   3.203   3.640
 9212SOL    HW229237   6.665   3.116   3.541
 9213SOL     OW29238   5.816   3.296   2.400
 9213SOL    HW129239   5.790   3.392   2.400
 9213SOL    HW229240   5.745   3.242   2.445
 9214SOL     OW29241   5.826   2.953   2.748
 9214SOL    HW129242   5.840   2.869   2.800
 9214SOL    HW229243   5.771   3.017   2.803
 9215SOL     OW29244   6.206   3.648   3.301
 9215SOL    HW129245   6.114   3.631   3.336
 9215SOL    HW229246   6.234   3.740   3.327
 9216SOL     OW29247   6.192   2.826   1.985
 9216SOL    HW129248   6.199   2.910   1.931
 9216SOL    HW229249   6.238   2.839   2.073
 9217SOL     OW29250   5.708   2.505   2.425
 9217SOL    HW129251   5.663   2.417   2.442
 9217SOL    HW229252   5.707   2.559   2.509
 9218SOL     OW29253   5.613   3.458   1.979
 9218SOL    HW129254   5.594   3.362   2.000
 9218SOL    HW229255   5.580   3.516   2.054
 9219SOL     OW29256   5.699   2.599   3.459
 9219SOL    HW129257   5.787   2.586   3.504
 9219SOL    HW229258   5.686   2.696   3.437
 9220SOL     OW29259   6.199   3.227   2.588
 9220SOL    HW129260   6.150   3.140   2.597
 9220SOL    HW229261   6.176   3.270   2.501
 9221SOL     OW29262   6.879   3.090   3.285
 9221SOL    HW129263   6.916   3.017   3.227
 9221SOL    HW229264   6.931   3.095   3.370
 9222SOL     OW29265   6.395   1.866   2.364
 9222SOL    HW129266   6.435   1.957   2.355
 9222SOL    HW229267   6.295   1.874   2.370
 9223SOL     OW29268   5.783   2.838   3.126
 9223SOL    HW129269   5.872   2.793   3.112
 9223SOL    HW229270   5.710   2.773   3.107
 9224SOL     OW29271   6.773   3.654   3.478
 9224SOL    HW129272   6.797   3.714   3.402
 9224SOL    HW229273   6.780   3.559   3.448
 9225SOL     OW29274   5.903   2.113   3.663
 9225SOL    HW129275   5.974   2.184   3.669
 9225SOL    HW229276   5.815   2.152   3.691
 9226SOL     OW29277   6.184   2.591   2.132
 9226SOL    HW129278   6.208   2.660   2.064
 9226SOL    HW229279   6.106   2.624   2.186
 9227SOL     OW29280   6.867   2.207   2.806
 9227SOL    HW129281   6.781   2.157   2.793
 9227SOL    HW229282   6.929   2.153   2.862
 9228SOL     OW29283   6.393   2.467   3.327
 9228SOL    HW129284   6.346   2.464   3.416
 9228SOL    HW229285   6.342   2.412   3.261
 9229SOL     OW29286   6.980   2.331   3.536
 9229SOL    HW129287   6.960   2.374   3.624
 9229SOL    HW229288   7.058   2.269   3.545
 9230SOL     OW29289   6.559   2.752   3.434
 9230SOL    HW129290   6.605   2.668   3.405
 9230SOL    HW229291   6.503   2.786   3.359
 9231SOL     OW29292   6.577   2.272   3.104
 9231SOL    HW129293   6.500   2.306   3.158
 9231SOL    HW229294   6.543   2.221   3.025
 9232SOL     OW29295   6.627   2.563   2.291
 9232SOL    HW129296   6.653   2.559   2.387
 9232SOL    HW229297   6.542   2.512   2.277
 9233SOL     OW29298   5.662   2.673   2.651
 9233SOL    HW129299   5.761   2.661   2.660
 9233SOL    HW229300   5.638   2.768   2.672
 9234SOL     OW29301   5.716   3.683   3.433
 9234SOL    HW129302   5.706   3.668   3.532
 9234SOL    HW229303   5.630   3.719   3.397
 9235SOL     OW29304   6.451   2.210   2.057
 9235SOL    HW129305   6.510   2.273   2.008
 9235SOL    HW229306   6.470   2.116   2.028
 9236SOL     OW29307   6.948   3.006   2.407
 9236SOL    HW129308   7.031   2.977   2.359
 9236SOL    HW229309   6.899   3.073   2.351
 9237SOL     OW29310   6.136   2.058   2.747
 9237SOL    HW129311   6.131   2.053   2.847
 9237SOL    HW229312   6.138   2.154   2.718
 9238SOL     OW29313   6.594   3.318   2.339
 9238SOL    HW129314   6.548   3.390   2.287
 9238SOL    HW229315   6.590   3.338   2.437
 9239SOL     OW29316   5.937   3.663   2.715
 9239SOL    HW129317   5.987   3.577   2.721
 9239SOL    HW229318   6.002   3.740   2.712
 9240SOL     OW29319   6.813   3.412   3.368
 9240SOL    HW129320   6.819   3.335   3.432
 9240SOL    HW229321   6.761   3.386   3.288
 9241SOL     OW29322   5.907   2.805   2.104
 9241SOL    HW129323   5.989   2.844   2.062
 9241SOL    HW229324   5.880   2.723   2.055
 9242SOL     OW29325   6.047   3.128   3.589
 9242SOL    HW129326   5.997   3.129   3.503
 9242SOL    HW229327   5.984   3.110   3.665
 9243SOL     OW29328   6.697   3.638   2.099
 9243SOL    HW129329   6.637   3.576   2.149
 9243SOL    HW229330   6.728   3.594   2.014
 9244SOL     OW29331   5.788   2.147   3.360
 9244SOL    HW129332   5.708   2.207   3.347
 9244SOL    HW229333   5.778   2.098   3.446
 9245SOL     OW29334   6.050   3.605   2.185
 9245SOL    HW129335   6.083   3.644   2.271
 9245SOL    HW229336   6.126   3.598   2.120
 9246SOL     OW29337   5.835   3.647   3.103
 9246SOL    HW129338   5.892   3.582   3.153
 9246SOL    HW229339   5.819   3.614   3.010
 9247SOL     OW29340   6.526   3.560   2.766
 9247SOL    HW129341   6.606   3.503   2.787
 9247SOL    HW229342   6.477   3.520   2.689
 9248SOL     OW29343   5.968   2.562   2.342
 9248SOL    HW129344   6.013   2.472   2.339
 9248SOL    HW229345   5.874   2.551   2.375
 9249SOL     OW29346   6.200   1.984   1.979
 9249SOL    HW129347   6.298   1.962   1.986
 9249SOL    HW229348   6.169   1.967   1.886
 9250SOL     OW29349   6.367   2.126   3.611
 9250SOL    HW129350   6.434   2.065   3.654
 9250SOL    HW229351   6.294   2.145   3.676
 9251SOL     OW29352   6.474   3.376   3.057
 9251SOL    HW129353   6.451   3.351   2.963
 9251SOL    HW229354   6.535   3.307   3.096
 9252SOL     OW29355   6.389   3.264   2.786
 9252SOL    HW129356   6.479   3.278   2.744
 9252SOL    HW229357   6.318   3.266   2.715
 9253SOL     OW29358   6.508   2.365   2.761
 9253SOL    HW129359   6.483   2.356   2.665
 9253SOL    HW229360   6.556   2.283   2.792
 9254SOL     OW29361   6.125   1.926   2.374
 9254SOL    HW129362   6.044   1.927   2.432
 9254SOL    HW229363   6.128   2.009   2.319
 9255SOL     OW29364   7.020   3.050   1.903
 9255SOL    HW129365   7.052   2.974   1.960
 9255SOL    HW229366   6.928   3.077   1.933
 9256SOL     OW29367   5.883   1.897   2.033
 9256SOL    HW129368   5.932   1.981   2.012
 9256SOL    HW229369   5.945   1.832   2.078
 9257SOL     OW29370   6.521   2.098   2.342
 9257SOL    HW129371   6.473   2.139   2.264
 9257SOL    HW229372   6.620   2.096   2.323
 9258SOL     OW29373   6.662   2.545   3.326
 9258SOL    HW129374   6.582   2.484   3.329
 9258SOL    HW229375   6.743   2.492   3.302
 9259SOL     OW29376   6.813   3.432   2.655
 9259SOL    HW129377   6.834   3.506   2.590
 9259SOL    HW229378   6.881   3.432   2.728
 9260SOL     OW29379   6.045   3.014   2.603
 9260SOL    HW129380   5.974   2.987   2.668
 9260SOL    HW229381   6.019   2.986   2.510
 9261SOL     OW29382   6.857   3.659   2.453
 9261SOL    HW129383   6.901   3.723   2.389
 9261SOL    HW229384   6.807   3.711   2.523
 9262SOL     OW29385   6.618   2.411   1.878
 9262SOL    HW129386   6.577   2.493   1.839
 9262SOL    HW229387   6.682   2.437   1.951
 9263SOL     OW29388   5.664   2.418   3.248
 9263SOL    HW129389   5.756   2.417   3.207
 9263SOL    HW229390   5.658   2.492   3.315
 9264SOL     OW29391   6.147   2.084   3.009
 9264SOL    HW129392   6.185   2.000   3.046
 9264SOL    HW229393   6.059   2.103   3.053
 9265SOL     OW29394   6.452   2.316   2.504
 9265SOL    HW129395   6.420   2.388   2.442
 9265SOL    HW229396   6.476   2.235   2.451
 9266SOL     OW29397   6.603   1.901   2.615
 9266SOL    HW129398   6.531   1.906   2.546
 9266SOL    HW229399   6.579   1.832   2.684
 9267SOL     OW29400   6.074   3.247   2.036
 9267SOL    HW129401   5.987   3.232   2.083
 9267SOL    HW229402   6.057   3.273   1.941
 9268SOL     OW29403   6.113   2.118   2.190
 9268SOL    HW129404   6.140   2.059   2.115
 9268SOL    HW229405   6.113   2.213   2.159
 9269SOL     OW29406   6.650   3.209   3.202
 9269SOL    HW129407   6.570   3.186   3.257
 9269SOL    HW229408   6.733   3.183   3.251
 9270SOL     OW29409   6.697   3.057   2.962
 9270SOL    HW129410   6.657   3.101   3.043
 9270SOL    HW229411   6.656   3.094   2.879
 9271SOL     OW29412   6.501   1.951   3.264
 9271SOL    HW129413   6.526   1.931   3.169
 9271SOL    HW229414   6.573   2.007   3.306
 9272SOL     OW29415   6.566   2.978   3.581
 9272SOL    HW129416   6.467   2.984   3.591
 9272SOL    HW229417   6.589   2.898   3.525
 9273SOL     OW29418   6.291   2.912   2.230
 9273SOL    HW129419   6.277   2.919   2.329
 9273SOL    HW229420   6.375   2.861   2.212
 9274SOL     OW29421   5.996   2.675   3.113
 9274SOL    HW129422   6.082   2.687   3.163
 9274SOL    HW229423   5.954   2.588   3.140
 9275SOL     OW29424   6.860   2.248   3.124
 9275SOL    HW129425   6.881   2.322   3.188
 9275SOL    HW229426   6.771   2.265   3.081
 9276SOL     OW29427   5.650   3.426   3.193
 9276SOL    HW129428   5.604   3.508   3.159
 9276SOL    HW229429   5.748   3.445   3.202
 9277SOL     OW29430   5.953   2.962   2.363
 9277SOL    HW129431   5.946   3.045   2.307
 9277SOL    HW229432   5.957   2.882   2.303
 9278SOL     OW29433   6.152   2.399   2.727
 9278SOL    HW129434   6.164   2.465   2.653
 9278SOL    HW229435   6.198   2.433   2.810
 9279SOL     OW29436   6.838   3.210   2.250
 9279SOL    HW129437   6.888   3.287   2.290
 9279SOL    HW229438   6.743   3.212   2.282
 9280SOL     OW29439   6.858   3.307   3.004
 9280SOL    HW129440   6.905   3.320   3.091
 9280SOL    HW229441   6.792   3.233   3.013
 9281SOL     OW29442   5.940   3.372   3.191
 9281SOL    HW129443   5.919   3.328   3.104
 9281SOL    HW229444   6.037   3.398   3.194
 9282SOL     OW29445   5.988   2.613   3.460
 9282SOL    HW129446   6.056   2.668   3.413
 9282SOL    HW229447   6.028   2.525   3.487
 9283SOL     OW29448   6.599   1.967   3.632
 9283SOL    HW129449   6.605   2.052   3.580
 9283SOL    HW229450   6.631   1.891   3.575
 9284SOL     OW29451   6.090   1.912   3.602
 9284SOL    HW129452   6.048   1.855   3.532
 9284SOL    HW229453   6.024   1.981   3.634
 9285SOL     OW29454   6.159   2.732   2.891
 9285SOL    HW129455   6.203   2.821   2.882
 9285SOL    HW229456   6.096   2.732   2.968
 9286SOL     OW29457   6.946   2.724   2.907
 9286SOL    HW129458   6.871   2.724   2.841
 9286SOL    HW229459   6.983   2.632   2.916
 9287SOL     OW29460   6.795   2.387   2.137
 9287SOL    HW129461   6.808   2.303   2.191
 9287SOL    HW229462   6.766   2.461   2.197
 9288SOL     OW29463   5.893   2.075   3.093
 9288SOL    HW129464   5.870   2.112   3.183
 9288SOL    HW229465   5.863   1.980   3.087
 9289SOL     OW29466   5.623   3.172   3.144
 9289SOL    HW129467   5.676   3.123   3.212
 9289SOL    HW229468   5.645   3.270   3.149
 9290SOL     OW29469   6.318   2.496   2.926
 9290SOL    HW129470   6.377   2.470   2.850
 9290SOL    HW229471   6.290   2.592   2.915
 9291SOL     OW29472   5.893   1.925   2.480
 9291SOL    HW129473   5.882   2.019   2.513
 9291SOL    HW229474   5.888   1.862   2.557
 9292SOL     OW29475   6.609   2.628   2.828
 9292SOL    HW129476   6.624   2.649   2.924
 9292SOL    HW229477   6.579   2.533   2.819
 9293SOL     OW29478   6.566   3.435   3.562
 9293SOL    HW129479   6.546   3.479   3.474
 9293SOL    HW229480   6.605   3.344   3.546
 9294SOL     OW29481   5.936   2.760   3.666
 9294SOL    HW129482   6.012   2.804   3.714
 9294SOL    HW229483   5.971   2.713   3.584
 9295SOL     OW29484   6.654   3.195   2.711
 9295SOL    HW129485   6.661   3.111   2.656
 9295SOL    HW229486   6.716   3.264   2.675
 9296SOL     OW29487   5.905   2.672   2.811
 9296SOL    HW129488   5.998   2.708   2.816
 9296SOL    HW229489   5.899   2.587   2.863
 9297SOL     OW29490   5.925   2.371   2.868
 9297SOL    HW129491   5.873   2.288   2.851
 9297SOL    HW229492   6.002   2.376   2.804
 9298SOL     OW29493   6.724   2.242   3.540
 9298SOL    HW129494   6.679   2.305   3.604
 9298SOL    HW229495   6.817   2.273   3.523
 9299SOL     OW29496   6.746   2.069   3.339
 9299SOL    HW129497   6.746   2.133   3.416
 9299SOL    HW229498   6.774   2.117   3.256
 9300SOL     OW29499   5.594   3.188   2.062
 9300SOL    HW129500   5.501   3.209   2.031
 9300SOL    HW229501   5.604   3.089   2.075
 9301SOL     OW29502   5.674   3.663   2.789
 9301SOL    HW129503   5.632   3.577   2.762
 9301SOL    HW229504   5.768   3.666   2.755
 9302SOL     OW29505   6.090   3.430   2.772
 9302SOL    HW129506   6.156   3.504   2.781
 9302SOL    HW229507   6.134   3.351   2.730
 9303SOL     OW29508   6.588   2.658   3.100
 9303SOL    HW129509   6.629   2.626   3.186
 9303SOL    HW229510   6.492   2.631   3.097
 9304SOL     OW29511   5.626   2.406   2.976
 9304SOL    HW129512   5.711   2.373   2.935
 9304SOL    HW229513   5.639   2.421   3.074
 9305SOL     OW29514   5.775   2.382   3.584
 9305SOL    HW129515   5.834   2.342   3.514
 9305SOL    HW229516   5.717   2.453   3.543
 9306SOL     OW29517   6.401   2.434   2.187
 9306SOL    HW129518   6.408   2.345   2.141
 9306SOL    HW229519   6.307   2.468   2.179
 9307SOL     OW29520   5.838   3.426   3.606
 9307SOL    HW129521   5.808   3.483   3.682
 9307SOL    HW229522   5.831   3.329   3.632
 9308SOL     OW29523   6.257   2.326   3.131
 9308SOL    HW129524   6.223   2.237   3.101
 9308SOL    HW229525   6.283   2.380   3.051
 9309SOL     OW29526   6.516   3.540   3.327
 9309SOL    HW129527   6.492   3.522   3.232
 9309SOL    HW229528   6.546   3.634   3.337
 9310SOL     OW29529   6.059   2.362   2.053
 9310SOL    HW129530   6.120   2.442   2.057
 9310SOL    HW229531   5.964   2.393   2.060
 9311SOL     OW29532   5.745   2.999   3.328
 9311SOL    HW129533   5.767   2.938   3.404
 9311SOL    HW229534   5.755   2.950   3.242
 9312SOL     OW29535   6.933   2.921   3.096
 9312SOL    HW129536   6.957   2.858   3.022
 9312SOL    HW229537   6.843   2.961   3.078
 9313SOL     OW29538   6.838   3.593   2.990
 9313SOL    HW129539   6.922   3.598   2.936
 9313SOL    HW229540   6.815   3.497   3.008
 9314SOL     OW29541   5.669   3.120   2.884
 9314SOL    HW129542   5.664   3.119   2.984
 9314SOL    HW229543   5.586   3.079   2.846
 9315SOL     OW29544   6.274   3.524   3.578
 9315SOL    HW129545   6.218   3.605   3.587
 9315SOL    HW229546   6.326   3.528   3.492
 9316SOL     OW29547   6.974   3.435   2.339
 9316SOL    HW129548   7.041   3.447   2.265
 9316SOL    HW229549   6.934   3.524   2.362
 9317SOL     OW29550   5.716   3.656   3.713
 9317SOL    HW129551   5.675   3.582   3.766
 9317SOL    HW229552   5.780   3.707   3.771
 9318SOL     OW29553   6.866   2.789   2.534
 9318SOL    HW129554   6.926   2.708   2.536
 9318SOL    HW229555   6.906   2.858   2.474
 9319SOL     OW29556   6.416   3.135   3.284
 9319SOL    HW129557   6.411   3.168   3.379
 9319SOL    HW229558   6.330   3.154   3.238
 9320SOL     OW29559   6.258   3.478   2.016
 9320SOL    HW129560   6.267   3.488   1.917
 9320SOL    HW229561   6.218   3.389   2.037
 9321SOL     OW29562   5.849   2.188   2.582
 9321SOL    HW129563   5.770   2.239   2.548
 9321SOL    HW229564   5.840   2.173   2.680
 9322SOL     OW29565   6.780   3.474   1.893
 9322SOL    HW129566   6.786   3.381   1.930
 9322SOL    HW229567   6.721   3.474   1.813
 9323SOL     OW29568   6.408   2.864   3.234
 9323SOL    HW129569   6.448   2.863   3.142
 9323SOL    HW229570   6.418   2.956   3.274
 9324SOL     OW29571   6.502   2.772   2.153
 9324SOL    HW129572   6.565   2.810   2.085
 9324SOL    HW229573   6.542   2.689   2.192
 9325SOL     OW29574   5.958   3.150   3.352
 9325SOL    HW129575   5.945   3.243   3.318
 9325SOL    HW229576   5.874   3.098   3.339
 9326SOL     OW29577   6.625   2.960   2.558
 9326SOL    HW129578   6.555   2.913   2.612
 9326SOL    HW229579   6.684   2.892   2.515
 9327SOL     OW29580   6.600   2.098   2.833
 9327SOL    HW129581   6.592   2.062   2.740
 9327SOL    HW229582   6.598   2.022   2.898
 9328SOL     OW29583   6.176   3.349   2.353
 9328SOL    HW129584   6.218   3.291   2.283
 9328SOL    HW229585   6.132   3.428   2.309
 9329SOL     OW29586   5.841   3.210   2.152
 9329SOL    HW129587   5.745   3.211   2.125
 9329SOL    HW229588   5.853   3.263   2.236
 9330SOL     OW29589   5.691   2.875   3.588
 9330SOL    HW129590   5.614   2.842   3.642
 9330SOL    HW229591   5.776   2.845   3.630
 9331SOL     OW29592   6.258   2.065   3.351
 9331SOL    HW129593   6.348   2.049   3.311
 9331SOL    HW229594   6.266   2.070   3.450
 9332SOL     OW29595   5.661   2.207   1.895
 9332SOL    HW129596   5.569   2.179   1.866
 9332SOL    HW229597   5.692   2.284   1.839
 9333SOL     OW29598   5.658   2.028   2.180
 9333SOL    HW129599   5.641   2.111   2.126
 9333SOL    HW229600   5.748   1.991   2.158
 9334SOL     OW29601   6.199   2.704   3.293
 9334SOL    HW129602   6.255   2.785   3.276
 9334SOL    HW229603   6.258   2.624   3.296
 9335SOL     OW29604   6.302   2.427   3.570
 9335SOL    HW129605   6.321   2.492   3.644
 9335SOL    HW229606   6.362   2.347   3.579
 9336SOL     OW29607   7.036   3.082   3.495
 9336SOL    HW129608   7.027   3.072   3.594
 9336SOL    HW229609   7.132   3.075   3.469
 9337SOL     OW29610   5.976   3.603   3.422
 9337SOL    HW129611   5.885   3.644   3.420
 9337SOL    HW229612   5.969   3.509   3.454
 9338SOL     OW29613   6.811   2.187   2.311
 9338SOL    HW129614   6.876   2.113   2.300
 9338SOL    HW229615   6.831   2.237   2.395
 9339SOL     OW29616   6.180   2.607   2.514
 9339SOL    HW129617   6.230   2.692   2.495
 9339SOL    HW229618   6.092   2.609   2.466
 9340SOL     OW29619   6.445   3.236   1.878
 9340SOL    HW129620   6.399   3.251   1.966
 9340SOL    HW229621   6.489   3.321   1.848
 9341SOL     OW29622   6.247   3.652   2.815
 9341SOL    HW129623   6.201   3.740   2.802
 9341SOL    HW229624   6.346   3.664   2.808
 9342SOL     OW29625   6.445   2.818   2.723
 9342SOL    HW129626   6.499   2.749   2.771
 9342SOL    HW229627   6.413   2.887   2.789
 9343SOL     OW29628   5.807   3.176   3.706
 9343SOL    HW129629   5.742   3.103   3.685
 9343SOL    HW229630   5.811   3.190   3.804
 9344SOL     OW29631   5.665   3.102   2.515
 9344SOL    HW129632   5.664   3.055   2.603
 9344SOL    HW229633   5.747   3.074   2.464
 9345SOL     OW29634   6.258   3.253   3.486
 9345SOL    HW129635   6.180   3.203   3.524
 9345SOL    HW229636   6.255   3.348   3.517
 9346SOL     OW29637   6.014   2.286   2.382
 9346SOL    HW129638   6.044   2.214   2.320
 9346SOL    HW229639   5.975   2.246   2.465
 9347SOL     OW29640   5.903   2.409   3.142
 9347SOL    HW129641   5.941   2.350   3.214
 9347SOL    HW229642   5.943   2.383   3.054
 9348SOL     OW29643   6.398   3.448   2.549
 9348SOL    HW129644   6.430   3.458   2.455
 9348SOL    HW229645   6.319   3.386   2.551
 9349SOL     OW29646   7.010   2.076   2.974
 9349SOL    HW129647   7.062   2.011   3.029
 9349SOL    HW229648   6.961   2.139   3.035
 9350SOL     OW29649   6.587   1.896   3.016
 9350SOL    HW129650   6.524   1.824   2.985
 9350SOL    HW229651   6.680   1.860   3.016
 9351SOL     OW29652   6.356   3.192   2.163
 9351SOL    HW129653   6.310   3.105   2.180
 9351SOL    HW229654   6.447   3.189   2.204
 9352SOL     OW29655   6.204   3.429   3.146
 9352SOL    HW129656   6.199   3.511   3.203
 9352SOL    HW229657   6.293   3.426   3.101
 9353SOL     OW29658   6.938   1.914   2.030
 9353SOL    HW129659   6.973   1.873   1.946
 9353SOL    HW229660   6.848   1.876   2.050
 9354SOL     OW29661   5.625   2.939   2.162
 9354SOL    HW129662   5.724   2.928   2.153
 9354SOL    HW229663   5.585   2.853   2.194
 9355SOL     OW29664   6.461   3.508   2.199
 9355SOL    HW129665   6.384   3.473   2.145
 9355SOL    HW229666   6.429   3.579   2.261
 9356SOL     OW29667   5.816   2.490   3.837
 9356SOL    HW129668   5.723   2.488   3.874
 9356SOL    HW229669   5.817   2.451   3.745
 9357SOL     OW29670   5.811   2.137   4.720
 9357SOL    HW129671   5.846   2.120   4.812
 9357SOL    HW229672   5.723   2.092   4.708
 9358SOL     OW29673   5.605   2.230   4.371
 9358SOL    HW129674   5.523   2.273   4.410
 9358SOL    HW229675   5.577   2.157   4.308
 9359SOL     OW29676   6.155   3.137   4.889
 9359SOL    HW129677   6.062   3.130   4.852
 9359SOL    HW229678   6.166   3.226   4.933
 9360SOL     OW29679   7.141   3.373   4.427
 9360SOL    HW129680   7.084   3.357   4.508
 9360SOL    HW229681   7.082   3.383   4.347
 9361SOL     OW29682   6.721   2.565   4.441
 9361SOL    HW129683   6.778   2.643   4.416
 9361SOL    HW229684   6.661   2.591   4.517
 9362SOL     OW29685   6.354   3.006   4.747
 9362SOL    HW129686   6.276   3.023   4.807
 9362SOL    HW229687   6.388   3.093   4.711
 9363SOL     OW29688   6.436   2.660   5.547
 9363SOL    HW129689   6.432   2.736   5.612
 9363SOL    HW229690   6.458   2.696   5.456
 9364SOL     OW29691   6.271   2.874   4.389
 9364SOL    HW129692   6.340   2.858   4.459
 9364SOL    HW229693   6.198   2.931   4.427
 9365SOL     OW29694   6.272   3.023   5.527
 9365SOL    HW129695   6.332   3.102   5.541
 9365SOL    HW229696   6.186   3.054   5.486
 9366SOL     OW29697   5.921   3.297   4.785
 9366SOL    HW129698   5.843   3.266   4.732
 9366SOL    HW229699   5.979   3.355   4.728
 9367SOL     OW29700   6.024   2.254   5.223
 9367SOL    HW129701   6.106   2.198   5.232
 9367SOL    HW229702   5.943   2.196   5.227
 9368SOL     OW29703   5.817   3.575   4.207
 9368SOL    HW129704   5.851   3.652   4.261
 9368SOL    HW229705   5.861   3.575   4.117
 9369SOL     OW29706   6.713   3.203   5.414
 9369SOL    HW129707   6.760   3.203   5.502
 9369SOL    HW229708   6.665   3.116   5.403
 9370SOL     OW29709   5.816   3.296   4.262
 9370SOL    HW129710   5.790   3.392   4.262
 9370SOL    HW229711   5.745   3.242   4.307
 9371SOL     OW29712   5.826   2.953   4.610
 9371SOL    HW129713   5.840   2.869   4.662
 9371SOL    HW229714   5.771   3.017   4.665
 9372SOL     OW29715   6.206   3.648   5.163
 9372SOL    HW129716   6.114   3.631   5.198
 9372SOL    HW229717   6.234   3.740   5.189
 9373SOL     OW29718   6.192   2.826   3.847
 9373SOL    HW129719   6.199   2.910   3.793
 9373SOL    HW229720   6.238   2.839   3.935
 9374SOL     OW29721   5.708   2.505   4.287
 9374SOL    HW129722   5.663   2.417   4.304
 9374SOL    HW229723   5.707   2.559   4.371
 9375SOL     OW29724   5.613   3.458   3.841
 9375SOL    HW129725   5.594   3.362   3.862
 9375SOL    HW229726   5.580   3.516   3.916
 9376SOL     OW29727   5.699   2.599   5.321
 9376SOL    HW129728   5.787   2.586   5.366
 9376SOL    HW229729   5.686   2.696   5.299
 9377SOL     OW29730   6.199   3.227   4.450
 9377SOL    HW129731   6.150   3.140   4.459
 9377SOL    HW229732   6.176   3.270   4.363
 9378SOL     OW29733   6.879   3.090   5.147
 9378SOL    HW129734   6.916   3.017   5.089
 9378SOL    HW229735   6.931   3.095   5.232
 9379SOL     OW29736   6.395   1.866   4.226
 9379SOL    HW129737   6.435   1.957   4.217
 9379SOL    HW229738   6.295   1.874   4.232
 9380SOL     OW29739   5.783   2.838   4.988
 9380SOL    HW129740   5.872   2.793   4.974
 9380SOL    HW229741   5.710   2.773   4.969
 9381SOL     OW29742   6.773   3.654   5.340
 9381SOL    HW129743   6.797   3.714   5.264
 9381SOL    HW229744   6.780   3.559   5.310
 9382SOL     OW29745   5.903   2.113   5.525
 9382SOL    HW129746   5.974   2.184   5.531
 9382SOL    HW229747   5.815   2.152   5.553
 9383SOL     OW29748   6.184   2.591   3.994
 9383SOL    HW129749   6.208   2.660   3.926
 9383SOL    HW229750   6.106   2.624   4.048
 9384SOL     OW29751   6.867   2.207   4.668
 9384SOL    HW129752   6.781   2.157   4.655
 9384SOL    HW229753   6.929   2.153   4.724
 9385SOL     OW29754   6.393   2.467   5.189
 9385SOL    HW129755   6.346   2.464   5.278
 9385SOL    HW229756   6.342   2.412   5.123
 9386SOL     OW29757   6.980   2.331   5.398
 9386SOL    HW129758   6.960   2.374   5.486
 9386SOL    HW229759   7.058   2.269   5.407
 9387SOL     OW29760   6.559   2.752   5.296
 9387SOL    HW129761   6.605   2.668   5.267
 9387SOL    HW229762   6.503   2.786   5.221
 9388SOL     OW29763   6.577   2.272   4.966
 9388SOL    HW129764   6.500   2.306   5.020
 9388SOL    HW229765   6.543   2.221   4.887
 9389SOL     OW29766   6.627   2.563   4.153
 9389SOL    HW129767   6.653   2.559   4.249
 9389SOL    HW229768   6.542   2.512   4.139
 9390SOL     OW29769   5.662   2.673   4.513
 9390SOL    HW129770   5.761   2.661   4.522
 9390SOL    HW229771   5.638   2.768   4.534
 9391SOL     OW29772   5.716   3.683   5.295
 9391SOL    HW129773   5.706   3.668   5.394
 9391SOL    HW229774   5.630   3.719   5.259
 9392SOL     OW29775   6.451   2.210   3.919
 9392SOL    HW129776   6.510   2.273   3.870
 9392SOL    HW229777   6.470   2.116   3.890
 9393SOL     OW29778   6.948   3.006   4.269
 9393SOL    HW129779   7.031   2.977   4.221
 9393SOL    HW229780   6.899   3.073   4.213
 9394SOL     OW29781   6.136   2.058   4.609
 9394SOL    HW129782   6.131   2.053   4.709
 9394SOL    HW229783   6.138   2.154   4.580
 9395SOL     OW29784   6.594   3.318   4.201
 9395SOL    HW129785   6.548   3.390   4.149
 9395SOL    HW229786   6.590   3.338   4.299
 9396SOL     OW29787   5.937   3.663   4.577
 9396SOL    HW129788   5.987   3.577   4.583
 9396SOL    HW229789   6.002   3.740   4.574
 9397SOL     OW29790   6.813   3.412   5.230
 9397SOL    HW129791   6.819   3.335   5.294
 9397SOL    HW229792   6.761   3.386   5.150
 9398SOL     OW29793   5.907   2.805   3.966
 9398SOL    HW129794   5.989   2.844   3.924
 9398SOL    HW229795   5.880   2.723   3.917
 9399SOL     OW29796   6.047   3.128   5.451
 9399SOL    HW129797   5.997   3.129   5.365
 9399SOL    HW229798   5.984   3.110   5.527
 9400SOL     OW29799   6.697   3.638   3.961
 9400SOL    HW129800   6.637   3.576   4.011
 9400SOL    HW229801   6.728   3.594   3.876
 9401SOL     OW29802   5.788   2.147   5.222
 9401SOL    HW129803   5.708   2.207   5.209
 9401SOL    HW229804   5.778   2.098   5.308
 9402SOL     OW29805   6.050   3.605   4.047
 9402SOL    HW129806   6.083   3.644   4.133
 9402SOL    HW229807   6.126   3.598   3.982
 9403SOL     OW29808   5.835   3.647   4.965
 9403SOL    HW129809   5.892   3.582   5.015
 9403SOL    HW229810   5.819   3.614   4.872
 9404SOL     OW29811   6.526   3.560   4.628
 9404SOL    HW129812   6.606   3.503   4.649
 9404SOL    HW229813   6.477   3.520   4.551
 9405SOL     OW29814   5.968   2.562   4.204
 9405SOL    HW129815   6.013   2.472   4.201
 9405SOL    HW229816   5.874   2.551   4.237
 9406SOL     OW29817   6.200   1.984   3.841
 9406SOL    HW129818   6.298   1.962   3.848
 9406SOL    HW229819   6.169   1.967   3.748
 9407SOL     OW29820   6.367   2.126   5.473
 9407SOL    HW129821   6.434   2.065   5.516
 9407SOL    HW229822   6.294   2.145   5.538
 9408SOL     OW29823   6.474   3.376   4.919
 9408SOL    HW129824   6.451   3.351   4.825
 9408SOL    HW229825   6.535   3.307   4.958
 9409SOL     OW29826   6.389   3.264   4.648
 9409SOL    HW129827   6.479   3.278   4.606
 9409SOL    HW229828   6.318   3.266   4.577
 9410SOL     OW29829   6.508   2.365   4.623
 9410SOL    HW129830   6.483   2.356   4.527
 9410SOL    HW229831   6.556   2.283   4.654
 9411SOL     OW29832   6.125   1.926   4.236
 9411SOL    HW129833   6.044   1.927   4.294
 9411SOL    HW229834   6.128   2.009   4.181
 9412SOL     OW29835   7.020   3.050   3.765
 9412SOL    HW129836   7.052   2.974   3.822
 9412SOL    HW229837   6.928   3.077   3.795
 9413SOL     OW29838   5.883   1.897   3.895
 9413SOL    HW129839   5.932   1.981   3.874
 9413SOL    HW229840   5.945   1.832   3.940
 9414SOL     OW29841   6.521   2.098   4.204
 9414SOL    HW129842   6.473   2.139   4.126
 9414SOL    HW229843   6.620   2.096   4.185
 9415SOL     OW29844   6.662   2.545   5.188
 9415SOL    HW129845   6.582   2.484   5.191
 9415SOL    HW229846   6.743   2.492   5.164
 9416SOL     OW29847   6.813   3.432   4.517
 9416SOL    HW129848   6.834   3.506   4.452
 9416SOL    HW229849   6.881   3.432   4.590
 9417SOL     OW29850   6.045   3.014   4.465
 9417SOL    HW129851   5.974   2.987   4.530
 9417SOL    HW229852   6.019   2.986   4.372
 9418SOL     OW29853   6.857   3.659   4.315
 9418SOL    HW129854   6.901   3.723   4.251
 9418SOL    HW229855   6.807   3.711   4.385
 9419SOL     OW29856   6.618   2.411   3.740
 9419SOL    HW129857   6.577   2.493   3.701
 9419SOL    HW229858   6.682   2.437   3.813
 9420SOL     OW29859   5.664   2.418   5.110
 9420SOL    HW129860   5.756   2.417   5.069
 9420SOL    HW229861   5.658   2.492   5.177
 9421SOL     OW29862   6.147   2.084   4.871
 9421SOL    HW129863   6.185   2.000   4.908
 9421SOL    HW229864   6.059   2.103   4.915
 9422SOL     OW29865   6.452   2.316   4.366
 9422SOL    HW129866   6.420   2.388   4.304
 9422SOL    HW229867   6.476   2.235   4.313
 9423SOL     OW29868   6.603   1.901   4.477
 9423SOL    HW129869   6.531   1.906   4.408
 9423SOL    HW229870   6.579   1.832   4.546
 9424SOL     OW29871   6.074   3.247   3.898
 9424SOL    HW129872   5.987   3.232   3.945
 9424SOL    HW229873   6.057   3.273   3.803
 9425SOL     OW29874   6.113   2.118   4.052
 9425SOL    HW129875   6.140   2.059   3.977
 9425SOL    HW229876   6.113   2.213   4.021
 9426SOL     OW29877   6.650   3.209   5.064
 9426SOL    HW129878   6.570   3.186   5.119
 9426SOL    HW229879   6.733   3.183   5.113
 9427SOL     OW29880   6.697   3.057   4.824
 9427SOL    HW129881   6.657   3.101   4.905
 9427SOL    HW229882   6.656   3.094   4.741
 9428SOL     OW29883   6.501   1.951   5.126
 9428SOL    HW129884   6.526   1.931   5.031
 9428SOL    HW229885   6.573   2.007   5.168
 9429SOL     OW29886   6.566   2.978   5.443
 9429SOL    HW129887   6.467   2.984   5.453
 9429SOL    HW229888   6.589   2.898   5.387
 9430SOL     OW29889   6.291   2.912   4.092
 9430SOL    HW129890   6.277   2.919   4.191
 9430SOL    HW229891   6.375   2.861   4.074
 9431SOL     OW29892   5.996   2.675   4.975
 9431SOL    HW129893   6.082   2.687   5.025
 9431SOL    HW229894   5.954   2.588   5.002
 9432SOL     OW29895   6.860   2.248   4.986
 9432SOL    HW129896   6.881   2.322   5.050
 9432SOL    HW229897   6.771   2.265   4.943
 9433SOL     OW29898   5.650   3.426   5.055
 9433SOL    HW129899   5.604   3.508   5.021
 9433SOL    HW229900   5.748   3.445   5.064
 9434SOL     OW29901   5.953   2.962   4.225
 9434SOL    HW129902   5.946   3.045   4.169
 9434SOL    HW229903   5.957   2.882   4.165
 9435SOL     OW29904   6.152   2.399   4.589
 9435SOL    HW129905   6.164   2.465   4.515
 9435SOL    HW229906   6.198   2.433   4.672
 9436SOL     OW29907   6.838   3.210   4.112
 9436SOL    HW129908   6.888   3.287   4.152
 9436SOL    HW229909   6.743   3.212   4.144
 9437SOL     OW29910   6.858   3.307   4.866
 9437SOL    HW129911   6.905   3.320   4.953
 9437SOL    HW229912   6.792   3.233   4.875
 9438SOL     OW29913   5.940   3.372   5.053
 9438SOL    HW129914   5.919   3.328   4.966
 9438SOL    HW229915   6.037   3.398   5.056
 9439SOL     OW29916   5.988   2.613   5.322
 9439SOL    HW129917   6.056   2.668   5.275
 9439SOL    HW229918   6.028   2.525   5.349
 9440SOL     OW29919   6.599   1.967   5.494
 9440SOL    HW129920   6.605   2.052   5.442
 9440SOL    HW229921   6.631   1.891   5.437
 9441SOL     OW29922   6.090   1.912   5.464
 9441SOL    HW129923   6.048   1.855   5.394
 9441SOL    HW229924   6.024   1.981   5.496
 9442SOL     OW29925   6.159   2.732   4.753
 9442SOL    HW129926   6.203   2.821   4.744
 9442SOL    HW229927   6.096   2.732   4.830
 9443SOL     OW29928   6.946   2.724   4.769
 9443SOL    HW129929   6.871   2.724   4.703
 9443SOL    HW229930   6.983   2.632   4.778
 9444SOL     OW29931   6.795   2.387   3.999
 9444SOL    HW129932   6.808   2.303   4.053
 9444SOL    HW229933   6.766   2.461   4.059
 9445SOL     OW29934   5.893   2.075   4.955
 9445SOL    HW129935   5.870   2.112   5.045
 9445SOL    HW229936   5.863   1.980   4.949
 9446SOL     OW29937   5.623   3.172   5.006
 9446SOL    HW129938   5.676   3.123   5.074
 9446SOL    HW229939   5.645   3.270   5.011
 9447SOL     OW29940   6.318   2.496   4.788
 9447SOL    HW129941   6.377   2.470   4.712
 9447SOL    HW229942   6.290   2.592   4.777
 9448SOL     OW29943   5.893   1.925   4.342
 9448SOL    HW129944   5.882   2.019   4.375
 9448SOL    HW229945   5.888   1.862   4.419
 9449SOL     OW29946   7.208   2.229   4.098
 9449SOL    HW129947   7.210   2.153   4.162
 9449SOL    HW229948   7.160   2.306   4.138
 9450SOL     OW29949   6.609   2.628   4.690
 9450SOL    HW129950   6.624   2.649   4.786
 9450SOL    HW229951   6.579   2.533   4.681
 9451SOL     OW29952   6.566   3.435   5.424
 9451SOL    HW129953   6.546   3.479   5.336
 9451SOL    HW229954   6.605   3.344   5.408
 9452SOL     OW29955   5.936   2.760   5.528
 9452SOL    HW129956   6.012   2.804   5.576
 9452SOL    HW229957   5.971   2.713   5.446
 9453SOL     OW29958   6.889   2.700   3.766
 9453SOL    HW129959   6.923   2.607   3.781
 9453SOL    HW229960   6.907   2.727   3.671
 9454SOL     OW29961   6.654   3.195   4.573
 9454SOL    HW129962   6.661   3.111   4.518
 9454SOL    HW229963   6.716   3.264   4.537
 9455SOL     OW29964   5.905   2.672   4.673
 9455SOL    HW129965   5.998   2.708   4.678
 9455SOL    HW229966   5.899   2.587   4.725
 9456SOL     OW29967   5.925   2.371   4.730
 9456SOL    HW129968   5.873   2.288   4.713
 9456SOL    HW229969   6.002   2.376   4.666
 9457SOL     OW29970   6.724   2.242   5.402
 9457SOL    HW129971   6.679   2.305   5.466
 9457SOL    HW229972   6.817   2.273   5.385
 9458SOL     OW29973   6.746   2.069   5.201
 9458SOL    HW129974   6.746   2.133   5.278
 9458SOL    HW229975   6.774   2.117   5.118
 9459SOL     OW29976   5.594   3.188   3.924
 9459SOL    HW129977   5.501   3.209   3.893
 9459SOL    HW229978   5.604   3.089   3.937
 9460SOL     OW29979   5.674   3.663   4.651
 9460SOL    HW129980   5.632   3.577   4.624
 9460SOL    HW229981   5.768   3.666   4.617
 9461SOL     OW29982   6.090   3.430   4.634
 9461SOL    HW129983   6.156   3.504   4.643
 9461SOL    HW229984   6.134   3.351   4.592
 9462SOL     OW29985   6.588   2.658   4.962
 9462SOL    HW129986   6.629   2.626   5.048
 9462SOL    HW229987   6.492   2.631   4.959
 9463SOL     OW29988   5.626   2.406   4.838
 9463SOL    HW129989   5.711   2.373   4.797
 9463SOL    HW229990   5.639   2.421   4.936
 9464SOL     OW29991   5.775   2.382   5.446
 9464SOL    HW129992   5.834   2.342   5.376
 9464SOL    HW229993   5.717   2.453   5.405
 9465SOL     OW29994   6.401   2.434   4.049
 9465SOL    HW129995   6.408   2.345   4.003
 9465SOL    HW229996   6.307   2.468   4.041
 9466SOL     OW29997   5.838   3.426   5.468
 9466SOL    HW129998   5.808   3.483   5.544
 9466SOL    HW229999   5.831   3.329   5.494
 9467SOL     OW30000   6.257   2.326   4.993
 9467SOL    HW130001   6.223   2.237   4.963
 9467SOL    HW230002   6.283   2.380   4.913
 9468SOL     OW30003   6.516   3.540   5.189
 9468SOL    HW130004   6.492   3.522   5.094
 9468SOL    HW230005   6.546   3.634   5.199
 9469SOL     OW30006   6.059   2.362   3.915
 9469SOL    HW130007   6.120   2.442   3.919
 9469SOL    HW230008   5.964   2.393   3.922
 9470SOL     OW30009   5.745   2.999   5.190
 9470SOL    HW130010   5.767   2.938   5.266
 9470SOL    HW230011   5.755   2.950   5.104
 9471SOL     OW30012   6.933   2.921   4.958
 9471SOL    HW130013   6.957   2.858   4.884
 9471SOL    HW230014   6.843   2.961   4.940
 9472SOL     OW30015   6.888   2.717   4.033
 9472SOL    HW130016   6.802   2.686   4.075
 9472SOL    HW230017   6.884   2.703   3.934
 9473SOL     OW30018   6.838   3.593   4.852
 9473SOL    HW130019   6.922   3.598   4.798
 9473SOL    HW230020   6.815   3.497   4.870
 9474SOL     OW30021   5.669   3.120   4.746
 9474SOL    HW130022   5.664   3.119   4.846
 9474SOL    HW230023   5.586   3.079   4.708
 9475SOL     OW30024   6.274   3.524   5.440
 9475SOL    HW130025   6.218   3.605   5.449
 9475SOL    HW230026   6.326   3.528   5.354
 9476SOL     OW30027   6.974   3.435   4.201
 9476SOL    HW130028   7.041   3.447   4.127
 9476SOL    HW230029   6.934   3.524   4.224
 9477SOL     OW30030   5.716   3.656   5.575
 9477SOL    HW130031   5.675   3.582   5.628
 9477SOL    HW230032   5.780   3.707   5.633
 9478SOL     OW30033   6.866   2.789   4.396
 9478SOL    HW130034   6.926   2.708   4.398
 9478SOL    HW230035   6.906   2.858   4.336
 9479SOL     OW30036   6.416   3.135   5.146
 9479SOL    HW130037   6.411   3.168   5.241
 9479SOL    HW230038   6.330   3.154   5.100
 9480SOL     OW30039   6.258   3.478   3.878
 9480SOL    HW130040   6.267   3.488   3.779
 9480SOL    HW230041   6.218   3.389   3.899
 9481SOL     OW30042   5.849   2.188   4.444
 9481SOL    HW130043   5.770   2.239   4.410
 9481SOL    HW230044   5.840   2.173   4.542
 9482SOL     OW30045   6.780   3.474   3.755
 9482SOL    HW130046   6.786   3.381   3.792
 9482SOL    HW230047   6.721   3.474   3.675
 9483SOL     OW30048   6.408   2.864   5.096
 9483SOL    HW130049   6.448   2.863   5.004
 9483SOL    HW230050   6.418   2.956   5.136
 9484SOL     OW30051   6.502   2.772   4.015
 9484SOL    HW130052   6.565   2.810   3.947
 9484SOL    HW230053   6.542   2.689   4.054
 9485SOL     OW30054   5.958   3.150   5.214
 9485SOL    HW130055   5.945   3.243   5.180
 9485SOL    HW230056   5.874   3.098   5.201
 9486SOL     OW30057   6.625   2.960   4.420
 9486SOL    HW130058   6.555   2.913   4.474
 9486SOL    HW230059   6.684   2.892   4.377
 9487SOL     OW30060   6.600   2.098   4.695
 9487SOL    HW130061   6.592   2.062   4.602
 9487SOL    HW230062   6.598   2.022   4.760
 9488SOL     OW30063   6.176   3.349   4.215
 9488SOL    HW130064   6.218   3.291   4.145
 9488SOL    HW230065   6.132   3.428   4.171
 9489SOL     OW30066   5.841   3.210   4.014
 9489SOL    HW130067   5.745   3.211   3.987
 9489SOL    HW230068   5.853   3.263   4.098
 9490SOL     OW30069   5.691   2.875   5.450
 9490SOL    HW130070   5.614   2.842   5.504
 9490SOL    HW230071   5.776   2.845   5.492
 9491SOL     OW30072   6.258   2.065   5.213
 9491SOL    HW130073   6.348   2.049   5.173
 9491SOL    HW230074   6.266   2.070   5.312
 9492SOL     OW30075   5.661   2.207   3.757
 9492SOL    HW130076   5.569   2.179   3.728
 9492SOL    HW230077   5.692   2.284   3.701
 9493SOL     OW30078   5.658   2.028   4.042
 9493SOL    HW130079   5.641   2.111   3.988
 9493SOL    HW230080   5.748   1.991   4.020
 9494SOL     OW30081   6.199   2.704   5.155
 9494SOL    HW130082   6.255   2.785   5.138
 9494SOL    HW230083   6.258   2.624   5.158
 9495SOL     OW30084   6.302   2.427   5.432
 9495SOL    HW130085   6.321   2.492   5.506
 9495SOL    HW230086   6.362   2.347   5.441
 9496SOL     OW30087   7.036   3.082   5.357
 9496SOL    HW130088   7.027   3.072   5.456
 9496SOL    HW230089   7.132   3.075   5.331
 9497SOL     OW30090   5.976   3.603   5.284
 9497SOL    HW130091   5.885   3.644   5.282
 9497SOL    HW230092   5.969   3.509   5.316
 9498SOL     OW30093   6.811   2.187   4.173
 9498SOL    HW130094   6.876   2.113   4.162
 9498SOL    HW230095   6.831   2.237   4.257
 9499SOL     OW30096   6.180   2.607   4.376
 9499SOL    HW130097   6.230   2.692   4.357
 9499SOL    HW230098   6.092   2.609   4.328
 9500SOL     OW30099   6.445   3.236   3.740
 9500SOL    HW130100   6.399   3.251   3.828
 9500SOL    HW230101   6.489   3.321   3.710
 9501SOL     OW30102   6.247   3.652   4.677
 9501SOL    HW130103   6.201   3.740   4.664
 9501SOL    HW230104   6.346   3.664   4.670
 9502SOL     OW30105   6.445   2.818   4.585
 9502SOL    HW130106   6.499   2.749   4.633
 9502SOL    HW230107   6.413   2.887   4.651
 9503SOL     OW30108   6.669   2.846   3.811
 9503SOL    HW130109   6.646   2.899   3.729
 9503SOL    HW230110   6.750   2.790   3.792
 9504SOL     OW30111   5.807   3.176   5.568
 9504SOL    HW130112   5.742   3.103   5.547
 9504SOL    HW230113   5.811   3.190   5.666
 9505SOL     OW30114   5.665   3.102   4.377
 9505SOL    HW130115   5.664   3.055   4.465
 9505SOL    HW230116   5.747   3.074   4.326
 9506SOL     OW30117   6.258   3.253   5.348
 9506SOL    HW130118   6.180   3.203   5.386
 9506SOL    HW230119   6.255   3.348   5.379
 9507SOL     OW30120   6.014   2.286   4.244
 9507SOL    HW130121   6.044   2.214   4.182
 9507SOL    HW230122   5.975   2.246   4.327
 9508SOL     OW30123   5.903   2.409   5.004
 9508SOL    HW130124   5.941   2.350   5.076
 9508SOL    HW230125   5.943   2.383   4.916
 9509SOL     OW30126   6.398   3.448   4.411
 9509SOL    HW130127   6.430   3.458   4.317
 9509SOL    HW230128   6.319   3.386   4.413
 9510SOL     OW30129   7.010   2.076   4.836
 9510SOL    HW130130   7.062   2.011   4.891
 9510SOL    HW230131   6.961   2.139   4.897
 9511SOL     OW30132   6.587   1.896   4.878
 9511SOL    HW130133   6.524   1.824   4.847
 9511SOL    HW230134   6.680   1.860   4.878
 9512SOL     OW30135   6.356   3.192   4.025
 9512SOL    HW130136   6.310   3.105   4.042
 9512SOL    HW230137   6.447   3.189   4.066
 9513SOL     OW30138   6.204   3.429   5.008
 9513SOL    HW130139   6.199   3.511   5.065
 9513SOL    HW230140   6.293   3.426   4.963
 9514SOL     OW30141   6.938   1.914   3.892
 9514SOL    HW130142   6.973   1.873   3.808
 9514SOL    HW230143   6.848   1.876   3.912
 9515SOL     OW30144   5.625   2.939   4.024
 9515SOL    HW130145   5.724   2.928   4.015
 9515SOL    HW230146   5.585   2.853   4.056
 9516SOL     OW30147   6.461   3.508   4.061
 9516SOL    HW130148   6.384   3.473   4.007
 9516SOL    HW230149   6.429   3.579   4.123
 9517SOL     OW30150   5.816   2.490   5.699
 9517SOL    HW130151   5.723   2.488   5.736
 9517SOL    HW230152   5.817   2.451   5.607
 9518SOL     OW30153   5.811   2.137   6.582
 9518SOL    HW130154   5.846   2.120   6.674
 9518SOL    HW230155   5.723   2.092   6.570
 9519SOL     OW30156   5.605   2.230   6.233
 9519SOL    HW130157   5.523   2.273   6.272
 9519SOL    HW230158   5.577   2.157   6.170
 9520SOL     OW30159   6.155   3.137   6.751
 9520SOL    HW130160   6.062   3.130   6.714
 9520SOL    HW230161   6.166   3.226   6.795
 9521SOL     OW30162   7.141   3.373   6.289
 9521SOL    HW130163   7.084   3.357   6.370
 9521SOL    HW230164   7.082   3.383   6.209
 9522SOL     OW30165   6.721   2.565   6.303
 9522SOL    HW130166   6.778   2.643   6.278
 9522SOL    HW230167   6.661   2.591   6.379
 9523SOL     OW30168   6.354   3.006   6.609
 9523SOL    HW130169   6.276   3.023   6.669
 9523SOL    HW230170   6.388   3.093   6.573
 9524SOL     OW30171   6.271   2.874   6.251
 9524SOL    HW130172   6.340   2.858   6.321
 9524SOL    HW230173   6.198   2.931   6.289
 9525SOL     OW30174   5.921   3.297   6.647
 9525SOL    HW130175   5.843   3.266   6.594
 9525SOL    HW230176   5.979   3.355   6.590
 9526SOL     OW30177   5.817   3.575   6.069
 9526SOL    HW130178   5.851   3.652   6.123
 9526SOL    HW230179   5.861   3.575   5.979
 9527SOL     OW30180   5.816   3.296   6.124
 9527SOL    HW130181   5.790   3.392   6.124
 9527SOL    HW230182   5.745   3.242   6.169
 9528SOL     OW30183   5.826   2.953   6.472
 9528SOL    HW130184   5.840   2.869   6.524
 9528SOL    HW230185   5.771   3.017   6.527
 9529SOL     OW30186   6.206   3.648   7.025
 9529SOL    HW130187   6.114   3.631   7.060
 9529SOL    HW230188   6.234   3.740   7.051
 9530SOL     OW30189   6.192   2.826   5.709
 9530SOL    HW130190   6.199   2.910   5.655
 9530SOL    HW230191   6.238   2.839   5.797
 9531SOL     OW30192   7.180   1.976   7.066
 9531SOL    HW130193   7.162   2.043   6.994
 9531SOL    HW230194   7.177   2.022   7.155
 9532SOL     OW30195   5.708   2.505   6.149
 9532SOL    HW130196   5.663   2.417   6.166
 9532SOL    HW230197   5.707   2.559   6.233
 9533SOL     OW30198   5.613   3.458   5.703
 9533SOL    HW130199   5.594   3.362   5.724
 9533SOL    HW230200   5.580   3.516   5.778
 9534SOL     OW30201   6.199   3.227   6.312
 9534SOL    HW130202   6.150   3.140   6.321
 9534SOL    HW230203   6.176   3.270   6.225
 9535SOL     OW30204   6.879   3.090   7.009
 9535SOL    HW130205   6.916   3.017   6.951
 9535SOL    HW230206   6.931   3.095   7.094
 9536SOL     OW30207   6.395   1.866   6.088
 9536SOL    HW130208   6.435   1.957   6.079
 9536SOL    HW230209   6.295   1.874   6.094
 9537SOL     OW30210   5.783   2.838   6.850
 9537SOL    HW130211   5.872   2.793   6.836
 9537SOL    HW230212   5.710   2.773   6.831
 9538SOL     OW30213   6.184   2.591   5.856
 9538SOL    HW130214   6.208   2.660   5.788
 9538SOL    HW230215   6.106   2.624   5.910
 9539SOL     OW30216   6.867   2.207   6.530
 9539SOL    HW130217   6.781   2.157   6.517
 9539SOL    HW230218   6.929   2.153   6.586
 9540SOL     OW30219   6.393   2.467   7.051
 9540SOL    HW130220   6.346   2.464   7.140
 9540SOL    HW230221   6.342   2.412   6.985
 9541SOL     OW30222   6.577   2.272   6.828
 9541SOL    HW130223   6.500   2.306   6.882
 9541SOL    HW230224   6.543   2.221   6.749
 9542SOL     OW30225   6.627   2.563   6.015
 9542SOL    HW130226   6.653   2.559   6.111
 9542SOL    HW230227   6.542   2.512   6.001
 9543SOL     OW30228   5.662   2.673   6.375
 9543SOL    HW130229   5.761   2.661   6.384
 9543SOL    HW230230   5.638   2.768   6.396
 9544SOL     OW30231   5.716   3.683   7.157
 9544SOL    HW130232   5.706   3.668   7.256
 9544SOL    HW230233   5.630   3.719   7.121
 9545SOL     OW30234   6.451   2.210   5.781
 9545SOL    HW130235   6.510   2.273   5.732
 9545SOL    HW230236   6.470   2.116   5.752
 9546SOL     OW30237   6.948   3.006   6.131
 9546SOL    HW130238   7.031   2.977   6.083
 9546SOL    HW230239   6.899   3.073   6.075
 9547SOL     OW30240   6.136   2.058   6.471
 9547SOL    HW130241   6.131   2.053   6.571
 9547SOL    HW230242   6.138   2.154   6.442
 9548SOL     OW30243   6.594   3.318   6.063
 9548SOL    HW130244   6.548   3.390   6.011
 9548SOL    HW230245   6.590   3.338   6.161
 9549SOL     OW30246   5.937   3.663   6.439
 9549SOL    HW130247   5.987   3.577   6.445
 9549SOL    HW230248   6.002   3.740   6.436
 9550SOL     OW30249   5.907   2.805   5.828
 9550SOL    HW130250   5.989   2.844   5.786
 9550SOL    HW230251   5.880   2.723   5.779
 9551SOL     OW30252   6.697   3.638   5.823
 9551SOL    HW130253   6.637   3.576   5.873
 9551SOL    HW230254   6.728   3.594   5.738
 9552SOL     OW30255   6.050   3.605   5.909
 9552SOL    HW130256   6.083   3.644   5.995
 9552SOL    HW230257   6.126   3.598   5.844
 9553SOL     OW30258   5.835   3.647   6.827
 9553SOL    HW130259   5.892   3.582   6.877
 9553SOL    HW230260   5.819   3.614   6.734
 9554SOL     OW30261   6.526   3.560   6.490
 9554SOL    HW130262   6.606   3.503   6.511
 9554SOL    HW230263   6.477   3.520   6.413
 9555SOL     OW30264   5.968   2.562   6.066
 9555SOL    HW130265   6.013   2.472   6.063
 9555SOL    HW230266   5.874   2.551   6.099
 9556SOL     OW30267   6.200   1.984   5.703
 9556SOL    HW130268   6.298   1.962   5.710
 9556SOL    HW230269   6.169   1.967   5.610
 9557SOL     OW30270   6.474   3.376   6.781
 9557SOL    HW130271   6.451   3.351   6.687
 9557SOL    HW230272   6.535   3.307   6.820
 9558SOL     OW30273   6.389   3.264   6.510
 9558SOL    HW130274   6.479   3.278   6.468
 9558SOL    HW230275   6.318   3.266   6.439
 9559SOL     OW30276   6.508   2.365   6.485
 9559SOL    HW130277   6.483   2.356   6.389
 9559SOL    HW230278   6.556   2.283   6.516
 9560SOL     OW30279   6.125   1.926   6.098
 9560SOL    HW130280   6.044   1.927   6.156
 9560SOL    HW230281   6.128   2.009   6.043
 9561SOL     OW30282   7.020   3.050   5.627
 9561SOL    HW130283   7.052   2.974   5.684
 9561SOL    HW230284   6.928   3.077   5.657
 9562SOL     OW30285   5.883   1.897   5.757
 9562SOL    HW130286   5.932   1.981   5.736
 9562SOL    HW230287   5.945   1.832   5.802
 9563SOL     OW30288   6.521   2.098   6.066
 9563SOL    HW130289   6.473   2.139   5.988
 9563SOL    HW230290   6.620   2.096   6.047
 9564SOL     OW30291   6.813   3.432   6.379
 9564SOL    HW130292   6.834   3.506   6.314
 9564SOL    HW230293   6.881   3.432   6.452
 9565SOL     OW30294   6.045   3.014   6.327
 9565SOL    HW130295   5.974   2.987   6.392
 9565SOL    HW230296   6.019   2.986   6.234
 9566SOL     OW30297   6.618   2.411   5.602
 9566SOL    HW130298   6.577   2.493   5.563
 9566SOL    HW230299   6.682   2.437   5.675
 9567SOL     OW30300   6.147   2.084   6.733
 9567SOL    HW130301   6.185   2.000   6.770
 9567SOL    HW230302   6.059   2.103   6.777
 9568SOL     OW30303   6.452   2.316   6.228
 9568SOL    HW130304   6.420   2.388   6.166
 9568SOL    HW230305   6.476   2.235   6.175
 9569SOL     OW30306   6.603   1.901   6.339
 9569SOL    HW130307   6.531   1.906   6.270
 9569SOL    HW230308   6.579   1.832   6.408
 9570SOL     OW30309   6.074   3.247   5.760
 9570SOL    HW130310   5.987   3.232   5.807
 9570SOL    HW230311   6.057   3.273   5.665
 9571SOL     OW30312   6.113   2.118   5.914
 9571SOL    HW130313   6.140   2.059   5.839
 9571SOL    HW230314   6.113   2.213   5.883
 9572SOL     OW30315   7.178   3.491   7.211
 9572SOL    HW130316   7.205   3.525   7.121
 9572SOL    HW230317   7.257   3.453   7.257
 9573SOL     OW30318   6.697   3.057   6.686
 9573SOL    HW130319   6.657   3.101   6.767
 9573SOL    HW230320   6.656   3.094   6.603
 9574SOL     OW30321   6.291   2.912   5.954
 9574SOL    HW130322   6.277   2.919   6.053
 9574SOL    HW230323   6.375   2.861   5.936
 9575SOL     OW30324   5.996   2.675   6.837
 9575SOL    HW130325   6.082   2.687   6.887
 9575SOL    HW230326   5.954   2.588   6.864
 9576SOL     OW30327   6.860   2.248   6.848
 9576SOL    HW130328   6.881   2.322   6.912
 9576SOL    HW230329   6.771   2.265   6.805
 9577SOL     OW30330   5.650   3.426   6.917
 9577SOL    HW130331   5.604   3.508   6.883
 9577SOL    HW230332   5.748   3.445   6.926
 9578SOL     OW30333   5.953   2.962   6.087
 9578SOL    HW130334   5.946   3.045   6.031
 9578SOL    HW230335   5.957   2.882   6.027
 9579SOL     OW30336   6.152   2.399   6.451
 9579SOL    HW130337   6.164   2.465   6.377
 9579SOL    HW230338   6.198   2.433   6.534
 9580SOL     OW30339   6.838   3.210   5.974
 9580SOL    HW130340   6.888   3.287   6.014
 9580SOL    HW230341   6.743   3.212   6.006
 9581SOL     OW30342   6.858   3.307   6.728
 9581SOL    HW130343   6.905   3.320   6.815
 9581SOL    HW230344   6.792   3.233   6.737
 9582SOL     OW30345   5.940   3.372   6.915
 9582SOL    HW130346   5.919   3.328   6.828
 9582SOL    HW230347   6.037   3.398   6.918
 9583SOL     OW30348   6.159   2.732   6.615
 9583SOL    HW130349   6.203   2.821   6.606
 9583SOL    HW230350   6.096   2.732   6.692
 9584SOL     OW30351   6.946   2.724   6.631
 9584SOL    HW130352   6.871   2.724   6.565
 9584SOL    HW230353   6.983   2.632   6.640
 9585SOL     OW30354   6.795   2.387   5.861
 9585SOL    HW130355   6.808   2.303   5.915
 9585SOL    HW230356   6.766   2.461   5.921
 9586SOL     OW30357   5.893   2.075   6.817
 9586SOL    HW130358   5.870   2.112   6.907
 9586SOL    HW230359   5.863   1.980   6.811
 9587SOL     OW30360   5.623   3.172   6.868
 9587SOL    HW130361   5.676   3.123   6.936
 9587SOL    HW230362   5.645   3.270   6.873
 9588SOL     OW30363   6.318   2.496   6.650
 9588SOL    HW130364   6.377   2.470   6.574
 9588SOL    HW230365   6.290   2.592   6.639
 9589SOL     OW30366   5.893   1.925   6.204
 9589SOL    HW130367   5.882   2.019   6.237
 9589SOL    HW230368   5.888   1.862   6.281
 9590SOL     OW30369   7.208   2.229   5.960
 9590SOL    HW130370   7.210   2.153   6.024
 9590SOL    HW230371   7.160   2.306   6.000
 9591SOL     OW30372   6.609   2.628   6.552
 9591SOL    HW130373   6.624   2.649   6.648
 9591SOL    HW230374   6.579   2.533   6.543
 9592SOL     OW30375   6.889   2.700   5.628
 9592SOL    HW130376   6.923   2.607   5.643
 9592SOL    HW230377   6.907   2.727   5.533
 9593SOL     OW30378   6.654   3.195   6.435
 9593SOL    HW130379   6.661   3.111   6.380
 9593SOL    HW230380   6.716   3.264   6.399
 9594SOL     OW30381   5.905   2.672   6.535
 9594SOL    HW130382   5.998   2.708   6.540
 9594SOL    HW230383   5.899   2.587   6.587
 9595SOL     OW30384   5.925   2.371   6.592
 9595SOL    HW130385   5.873   2.288   6.575
 9595SOL    HW230386   6.002   2.376   6.528
 9596SOL     OW30387   6.746   2.069   7.063
 9596SOL    HW130388   6.746   2.133   7.140
 9596SOL    HW230389   6.774   2.117   6.980
 9597SOL     OW30390   5.594   3.188   5.786
 9597SOL    HW130391   5.501   3.209   5.755
 9597SOL    HW230392   5.604   3.089   5.799
 9598SOL     OW30393   5.674   3.663   6.513
 9598SOL    HW130394   5.632   3.577   6.486
 9598SOL    HW230395   5.768   3.666   6.479
 9599SOL     OW30396   6.090   3.430   6.496
 9599SOL    HW130397   6.156   3.504   6.505
 9599SOL    HW230398   6.134   3.351   6.454
 9600SOL     OW30399   6.588   2.658   6.824
 9600SOL    HW130400   6.629   2.626   6.910
 9600SOL    HW230401   6.492   2.631   6.821
 9601SOL     OW30402   5.626   2.406   6.700
 9601SOL    HW130403   5.711   2.373   6.659
 9601SOL    HW230404   5.639   2.421   6.798
 9602SOL     OW30405   6.401   2.434   5.911
 9602SOL    HW130406   6.408   2.345   5.865
 9602SOL    HW230407   6.307   2.468   5.903
 9603SOL     OW30408   6.257   2.326   6.855
 9603SOL    HW130409   6.223   2.237   6.825
 9603SOL    HW230410   6.283   2.380   6.775
 9604SOL     OW30411   6.516   3.540   7.051
 9604SOL    HW130412   6.492   3.522   6.956
 9604SOL    HW230413   6.546   3.634   7.061
 9605SOL     OW30414   6.059   2.362   5.777
 9605SOL    HW130415   6.120   2.442   5.781
 9605SOL    HW230416   5.964   2.393   5.784
 9606SOL     OW30417   5.745   2.999   7.052
 9606SOL    HW130418   5.767   2.938   7.128
 9606SOL    HW230419   5.755   2.950   6.966
 9607SOL     OW30420   6.933   2.921   6.820
 9607SOL    HW130421   6.957   2.858   6.746
 9607SOL    HW230422   6.843   2.961   6.802
 9608SOL     OW30423   6.888   2.717   5.895
 9608SOL    HW130424   6.802   2.686   5.937
 9608SOL    HW230425   6.884   2.703   5.796
 9609SOL     OW30426   6.838   3.593   6.714
 9609SOL    HW130427   6.922   3.598   6.660
 9609SOL    HW230428   6.815   3.497   6.732
 9610SOL     OW30429   5.669   3.120   6.608
 9610SOL    HW130430   5.664   3.119   6.708
 9610SOL    HW230431   5.586   3.079   6.570
 9611SOL     OW30432   6.974   3.435   6.063
 9611SOL    HW130433   7.041   3.447   5.989
 9611SOL    HW230434   6.934   3.524   6.086
 9612SOL     OW30435   6.866   2.789   6.258
 9612SOL    HW130436   6.926   2.708   6.260
 9612SOL    HW230437   6.906   2.858   6.198
 9613SOL     OW30438   6.258   3.478   5.740
 9613SOL    HW130439   6.267   3.488   5.641
 9613SOL    HW230440   6.218   3.389   5.761
 9614SOL     OW30441   5.849   2.188   6.306
 9614SOL    HW130442   5.770   2.239   6.272
 9614SOL    HW230443   5.840   2.173   6.404
 9615SOL     OW30444   6.780   3.474   5.617
 9615SOL    HW130445   6.786   3.381   5.654
 9615SOL    HW230446   6.721   3.474   5.537
 9616SOL     OW30447   6.408   2.864   6.958
 9616SOL    HW130448   6.448   2.863   6.866
 9616SOL    HW230449   6.418   2.956   6.998
 9617SOL     OW30450   6.502   2.772   5.877
 9617SOL    HW130451   6.565   2.810   5.809
 9617SOL    HW230452   6.542   2.689   5.916
 9618SOL     OW30453   6.625   2.960   6.282
 9618SOL    HW130454   6.555   2.913   6.336
 9618SOL    HW230455   6.684   2.892   6.239
 9619SOL     OW30456   6.600   2.098   6.557
 9619SOL    HW130457   6.592   2.062   6.464
 9619SOL    HW230458   6.598   2.022   6.622
 9620SOL     OW30459   6.176   3.349   6.077
 9620SOL    HW130460   6.218   3.291   6.007
 9620SOL    HW230461   6.132   3.428   6.033
 9621SOL     OW30462   5.841   3.210   5.876
 9621SOL    HW130463   5.745   3.211   5.849
 9621SOL    HW230464   5.853   3.263   5.960
 9622SOL     OW30465   6.258   2.065   7.075
 9622SOL    HW130466   6.348   2.049   7.035
 9622SOL    HW230467   6.266   2.070   7.174
 9623SOL     OW30468   5.661   2.207   5.619
 9623SOL    HW130469   5.569   2.179   5.590
 9623SOL    HW230470   5.692   2.284   5.563
 9624SOL     OW30471   5.658   2.028   5.904
 9624SOL    HW130472   5.641   2.111   5.850
 9624SOL    HW230473   5.748   1.991   5.882
 9625SOL     OW30474   5.976   3.603   7.146
 9625SOL    HW130475   5.885   3.644   7.144
 9625SOL    HW230476   5.969   3.509   7.178
 9626SOL     OW30477   6.811   2.187   6.035
 9626SOL    HW130478   6.876   2.113   6.024
 9626SOL    HW230479   6.831   2.237   6.119
 9627SOL     OW30480   6.180   2.607   6.238
 9627SOL    HW130481   6.230   2.692   6.219
 9627SOL    HW230482   6.092   2.609   6.190
 9628SOL     OW30483   6.445   3.236   5.602
 9628SOL    HW130484   6.399   3.251   5.690
 9628SOL    HW230485   6.489   3.321   5.572
 9629SOL     OW30486   6.247   3.652   6.539
 9629SOL    HW130487   6.201   3.740   6.526
 9629SOL    HW230488   6.346   3.664   6.532
 9630SOL     OW30489   6.445   2.818   6.447
 9630SOL    HW130490   6.499   2.749   6.495
 9630SOL    HW230491   6.413   2.887   6.513
 9631SOL     OW30492   6.669   2.846   5.673
 9631SOL    HW130493   6.646   2.899   5.591
 9631SOL    HW230494   6.750   2.790   5.654
 9632SOL     OW30495   5.665   3.102   6.239
 9632SOL    HW130496   5.664   3.055   6.327
 9632SOL    HW230497   5.747   3.074   6.188
 9633SOL     OW30498   6.014   2.286   6.106
 9633SOL    HW130499   6.044   2.214   6.044
 9633SOL    HW230500   5.975   2.246   6.189
 9634SOL     OW30501   5.903   2.409   6.866
 9634SOL    HW130502   5.941   2.350   6.938
 9634SOL    HW230503   5.943   2.383   6.778
 9635SOL     OW30504   6.398   3.448   6.273
 9635SOL    HW130505   6.430   3.458   6.179
 9635SOL    HW230506   6.319   3.386   6.275
 9636SOL     OW30507   7.010   2.076   6.698
 9636SOL    HW130508   7.062   2.011   6.753
 9636SOL    HW230509   6.961   2.139   6.759
 9637SOL     OW30510   6.587   1.896   6.740
 9637SOL    HW130511   6.524   1.824   6.709
 9637SOL    HW230512   6.680   1.860   6.740
 9638SOL     OW30513   6.356   3.192   5.887
 9638SOL    HW130514   6.310   3.105   5.904
 9638SOL    HW230515   6.447   3.189   5.928
 9639SOL     OW30516   6.204   3.429   6.870
 9639SOL    HW130517   6.199   3.511   6.927
 9639SOL    HW230518   6.293   3.426   6.825
 9640SOL     OW30519   6.938   1.914   5.754
 9640SOL    HW130520   6.973   1.873   5.670
 9640SOL    HW230521   6.848   1.876   5.774
 9641SOL     OW30522   5.625   2.939   5.886
 9641SOL    HW130523   5.724   2.928   5.877
 9641SOL    HW230524   5.585   2.853   5.918
 9642SOL     OW30525   6.461   3.508   5.923
 9642SOL    HW130526   6.384   3.473   5.869
 9642SOL    HW230527   6.429   3.579   5.985
 9643SOL     OW30528   5.816   4.352   0.113
 9643SOL    HW130529   5.723   4.350   0.150
 9643SOL    HW230530   5.817   4.313   0.021
 9644SOL     OW30531   5.811   3.999   0.996
 9644SOL    HW130532   5.846   3.982   1.088
 9644SOL    HW230533   5.723   3.954   0.984
 9645SOL     OW30534   5.605   4.092   0.647
 9645SOL    HW130535   5.523   4.135   0.686
 9645SOL    HW230536   5.577   4.019   0.584
 9646SOL     OW30537   6.155   4.999   1.165
 9646SOL    HW130538   6.062   4.992   1.128
 9646SOL    HW230539   6.166   5.088   1.209
 9647SOL     OW30540   7.141   5.235   0.703
 9647SOL    HW130541   7.084   5.219   0.784
 9647SOL    HW230542   7.082   5.245   0.623
 9648SOL     OW30543   6.721   4.427   0.717
 9648SOL    HW130544   6.778   4.505   0.692
 9648SOL    HW230545   6.661   4.453   0.793
 9649SOL     OW30546   6.354   4.868   1.023
 9649SOL    HW130547   6.276   4.885   1.083
 9649SOL    HW230548   6.388   4.955   0.987
 9650SOL     OW30549   6.436   4.522   1.823
 9650SOL    HW130550   6.432   4.598   1.888
 9650SOL    HW230551   6.458   4.558   1.732
 9651SOL     OW30552   6.271   4.736   0.665
 9651SOL    HW130553   6.340   4.720   0.735
 9651SOL    HW230554   6.198   4.793   0.703
 9652SOL     OW30555   6.272   4.885   1.803
 9652SOL    HW130556   6.332   4.964   1.817
 9652SOL    HW230557   6.186   4.916   1.762
 9653SOL     OW30558   5.921   5.159   1.061
 9653SOL    HW130559   5.843   5.128   1.008
 9653SOL    HW230560   5.979   5.217   1.004
 9654SOL     OW30561   6.024   4.116   1.499
 9654SOL    HW130562   6.106   4.060   1.508
 9654SOL    HW230563   5.943   4.058   1.503
 9655SOL     OW30564   5.817   5.437   0.483
 9655SOL    HW130565   5.851   5.514   0.537
 9655SOL    HW230566   5.861   5.437   0.393
 9656SOL     OW30567   6.713   5.065   1.690
 9656SOL    HW130568   6.760   5.065   1.778
 9656SOL    HW230569   6.665   4.978   1.679
 9657SOL     OW30570   5.826   4.815   0.886
 9657SOL    HW130571   5.840   4.731   0.938
 9657SOL    HW230572   5.771   4.879   0.941
 9658SOL     OW30573   6.206   5.510   1.439
 9658SOL    HW130574   6.114   5.493   1.474
 9658SOL    HW230575   6.234   5.602   1.465
 9659SOL     OW30576   6.192   4.688   0.123
 9659SOL    HW130577   6.199   4.772   0.069
 9659SOL    HW230578   6.238   4.701   0.211
 9660SOL     OW30579   5.613   5.320   0.117
 9660SOL    HW130580   5.594   5.224   0.138
 9660SOL    HW230581   5.580   5.378   0.192
 9661SOL     OW30582   5.699   4.461   1.597
 9661SOL    HW130583   5.787   4.448   1.642
 9661SOL    HW230584   5.686   4.558   1.575
 9662SOL     OW30585   6.199   5.089   0.726
 9662SOL    HW130586   6.150   5.002   0.735
 9662SOL    HW230587   6.176   5.132   0.639
 9663SOL     OW30588   6.879   4.952   1.423
 9663SOL    HW130589   6.916   4.879   1.365
 9663SOL    HW230590   6.931   4.957   1.508
 9664SOL     OW30591   6.395   3.728   0.502
 9664SOL    HW130592   6.435   3.819   0.493
 9664SOL    HW230593   6.295   3.736   0.508
 9665SOL     OW30594   5.783   4.700   1.264
 9665SOL    HW130595   5.872   4.655   1.250
 9665SOL    HW230596   5.710   4.635   1.245
 9666SOL     OW30597   6.773   5.516   1.616
 9666SOL    HW130598   6.797   5.576   1.540
 9666SOL    HW230599   6.780   5.421   1.586
 9667SOL     OW30600   5.903   3.975   1.801
 9667SOL    HW130601   5.974   4.046   1.807
 9667SOL    HW230602   5.815   4.014   1.829
 9668SOL     OW30603   6.184   4.453   0.270
 9668SOL    HW130604   6.208   4.522   0.202
 9668SOL    HW230605   6.106   4.486   0.324
 9669SOL     OW30606   6.867   4.069   0.944
 9669SOL    HW130607   6.781   4.019   0.931
 9669SOL    HW230608   6.929   4.015   1.000
 9670SOL     OW30609   6.393   4.329   1.465
 9670SOL    HW130610   6.346   4.326   1.554
 9670SOL    HW230611   6.342   4.274   1.399
 9671SOL     OW30612   6.980   4.193   1.674
 9671SOL    HW130613   6.960   4.236   1.762
 9671SOL    HW230614   7.058   4.131   1.683
 9672SOL     OW30615   6.559   4.614   1.572
 9672SOL    HW130616   6.605   4.530   1.543
 9672SOL    HW230617   6.503   4.648   1.497
 9673SOL     OW30618   6.577   4.134   1.242
 9673SOL    HW130619   6.500   4.168   1.296
 9673SOL    HW230620   6.543   4.083   1.163
 9674SOL     OW30621   6.627   4.425   0.429
 9674SOL    HW130622   6.653   4.421   0.525
 9674SOL    HW230623   6.542   4.374   0.415
 9675SOL     OW30624   5.716   5.545   1.571
 9675SOL    HW130625   5.706   5.530   1.670
 9675SOL    HW230626   5.630   5.581   1.535
 9676SOL     OW30627   6.451   4.072   0.195
 9676SOL    HW130628   6.510   4.135   0.146
 9676SOL    HW230629   6.470   3.978   0.166
 9677SOL     OW30630   6.948   4.868   0.545
 9677SOL    HW130631   7.031   4.839   0.497
 9677SOL    HW230632   6.899   4.935   0.489
 9678SOL     OW30633   6.136   3.920   0.885
 9678SOL    HW130634   6.131   3.915   0.985
 9678SOL    HW230635   6.138   4.016   0.856
 9679SOL     OW30636   6.594   5.180   0.477
 9679SOL    HW130637   6.548   5.252   0.425
 9679SOL    HW230638   6.590   5.200   0.575
 9680SOL     OW30639   5.937   5.525   0.853
 9680SOL    HW130640   5.987   5.439   0.859
 9680SOL    HW230641   6.002   5.602   0.850
 9681SOL     OW30642   6.813   5.274   1.506
 9681SOL    HW130643   6.819   5.197   1.570
 9681SOL    HW230644   6.761   5.248   1.426
 9682SOL     OW30645   5.907   4.667   0.242
 9682SOL    HW130646   5.989   4.706   0.200
 9682SOL    HW230647   5.880   4.585   0.193
 9683SOL     OW30648   6.047   4.990   1.727
 9683SOL    HW130649   5.997   4.991   1.641
 9683SOL    HW230650   5.984   4.972   1.803
 9684SOL     OW30651   6.697   5.500   0.237
 9684SOL    HW130652   6.637   5.438   0.287
 9684SOL    HW230653   6.728   5.456   0.152
 9685SOL     OW30654   5.788   4.009   1.498
 9685SOL    HW130655   5.708   4.069   1.485
 9685SOL    HW230656   5.778   3.960   1.584
 9686SOL     OW30657   7.218   5.101   0.081
 9686SOL    HW130658   7.186   5.195   0.071
 9686SOL    HW230659   7.142   5.038   0.069
 9687SOL     OW30660   6.050   5.467   0.323
 9687SOL    HW130661   6.083   5.506   0.409
 9687SOL    HW230662   6.126   5.460   0.258
 9688SOL     OW30663   5.835   5.509   1.241
 9688SOL    HW130664   5.892   5.444   1.291
 9688SOL    HW230665   5.819   5.476   1.148
 9689SOL     OW30666   6.526   5.422   0.904
 9689SOL    HW130667   6.606   5.365   0.925
 9689SOL    HW230668   6.477   5.382   0.827
 9690SOL     OW30669   6.367   3.988   1.749
 9690SOL    HW130670   6.434   3.927   1.792
 9690SOL    HW230671   6.294   4.007   1.814
 9691SOL     OW30672   6.474   5.238   1.195
 9691SOL    HW130673   6.451   5.213   1.101
 9691SOL    HW230674   6.535   5.169   1.234
 9692SOL     OW30675   6.389   5.126   0.924
 9692SOL    HW130676   6.479   5.140   0.882
 9692SOL    HW230677   6.318   5.128   0.853
 9693SOL     OW30678   6.508   4.227   0.899
 9693SOL    HW130679   6.483   4.218   0.803
 9693SOL    HW230680   6.556   4.145   0.930
 9694SOL     OW30681   6.125   3.788   0.512
 9694SOL    HW130682   6.044   3.789   0.570
 9694SOL    HW230683   6.128   3.871   0.457
 9695SOL     OW30684   6.521   3.960   0.480
 9695SOL    HW130685   6.473   4.001   0.402
 9695SOL    HW230686   6.620   3.958   0.461
 9696SOL     OW30687   6.662   4.407   1.464
 9696SOL    HW130688   6.582   4.346   1.467
 9696SOL    HW230689   6.743   4.354   1.440
 9697SOL     OW30690   6.813   5.294   0.793
 9697SOL    HW130691   6.834   5.368   0.728
 9697SOL    HW230692   6.881   5.294   0.866
 9698SOL     OW30693   6.045   4.876   0.741
 9698SOL    HW130694   5.974   4.849   0.806
 9698SOL    HW230695   6.019   4.848   0.648
 9699SOL     OW30696   6.857   5.521   0.591
 9699SOL    HW130697   6.901   5.585   0.527
 9699SOL    HW230698   6.807   5.573   0.661
 9700SOL     OW30699   6.618   4.273   0.016
 9700SOL    HW130700   6.577   4.355  -0.023
 9700SOL    HW230701   6.682   4.299   0.089
 9701SOL     OW30702   5.664   4.280   1.386
 9701SOL    HW130703   5.756   4.279   1.345
 9701SOL    HW230704   5.658   4.354   1.453
 9702SOL     OW30705   6.147   3.946   1.147
 9702SOL    HW130706   6.185   3.862   1.184
 9702SOL    HW230707   6.059   3.965   1.191
 9703SOL     OW30708   6.452   4.178   0.642
 9703SOL    HW130709   6.420   4.250   0.580
 9703SOL    HW230710   6.476   4.097   0.589
 9704SOL     OW30711   6.603   3.763   0.753
 9704SOL    HW130712   6.531   3.768   0.684
 9704SOL    HW230713   6.579   3.694   0.822
 9705SOL     OW30714   6.074   5.109   0.174
 9705SOL    HW130715   5.987   5.094   0.221
 9705SOL    HW230716   6.057   5.135   0.079
 9706SOL     OW30717   6.113   3.980   0.328
 9706SOL    HW130718   6.140   3.921   0.253
 9706SOL    HW230719   6.113   4.075   0.297
 9707SOL     OW30720   6.650   5.071   1.340
 9707SOL    HW130721   6.570   5.048   1.395
 9707SOL    HW230722   6.733   5.045   1.389
 9708SOL     OW30723   6.697   4.919   1.100
 9708SOL    HW130724   6.657   4.963   1.181
 9708SOL    HW230725   6.656   4.956   1.017
 9709SOL     OW30726   6.501   3.813   1.402
 9709SOL    HW130727   6.526   3.793   1.307
 9709SOL    HW230728   6.573   3.869   1.444
 9710SOL     OW30729   6.566   4.840   1.719
 9710SOL    HW130730   6.467   4.846   1.729
 9710SOL    HW230731   6.589   4.760   1.663
 9711SOL     OW30732   6.291   4.774   0.368
 9711SOL    HW130733   6.277   4.781   0.467
 9711SOL    HW230734   6.375   4.723   0.350
 9712SOL     OW30735   5.996   4.537   1.251
 9712SOL    HW130736   6.082   4.549   1.301
 9712SOL    HW230737   5.954   4.450   1.278
 9713SOL     OW30738   6.860   4.110   1.262
 9713SOL    HW130739   6.881   4.184   1.326
 9713SOL    HW230740   6.771   4.127   1.219
 9714SOL     OW30741   5.650   5.288   1.331
 9714SOL    HW130742   5.604   5.370   1.297
 9714SOL    HW230743   5.748   5.307   1.340
 9715SOL     OW30744   6.152   4.261   0.865
 9715SOL    HW130745   6.164   4.327   0.791
 9715SOL    HW230746   6.198   4.295   0.948
 9716SOL     OW30747   6.838   5.072   0.388
 9716SOL    HW130748   6.888   5.149   0.428
 9716SOL    HW230749   6.743   5.074   0.420
 9717SOL     OW30750   6.858   5.169   1.142
 9717SOL    HW130751   6.905   5.182   1.229
 9717SOL    HW230752   6.792   5.095   1.151
 9718SOL     OW30753   5.940   5.234   1.329
 9718SOL    HW130754   5.919   5.190   1.242
 9718SOL    HW230755   6.037   5.260   1.332
 9719SOL     OW30756   5.988   4.475   1.598
 9719SOL    HW130757   6.056   4.530   1.551
 9719SOL    HW230758   6.028   4.387   1.625
 9720SOL     OW30759   6.599   3.829   1.770
 9720SOL    HW130760   6.605   3.914   1.718
 9720SOL    HW230761   6.631   3.753   1.713
 9721SOL     OW30762   6.090   3.774   1.740
 9721SOL    HW130763   6.048   3.717   1.670
 9721SOL    HW230764   6.024   3.843   1.772
 9722SOL     OW30765   6.159   4.594   1.029
 9722SOL    HW130766   6.203   4.683   1.020
 9722SOL    HW230767   6.096   4.594   1.106
 9723SOL     OW30768   6.946   4.586   1.045
 9723SOL    HW130769   6.871   4.586   0.979
 9723SOL    HW230770   6.983   4.494   1.054
 9724SOL     OW30771   6.795   4.249   0.275
 9724SOL    HW130772   6.808   4.165   0.329
 9724SOL    HW230773   6.766   4.323   0.335
 9725SOL     OW30774   5.893   3.937   1.231
 9725SOL    HW130775   5.870   3.974   1.321
 9725SOL    HW230776   5.863   3.842   1.225
 9726SOL     OW30777   5.623   5.034   1.282
 9726SOL    HW130778   5.676   4.985   1.350
 9726SOL    HW230779   5.645   5.132   1.287
 9727SOL     OW30780   6.318   4.358   1.064
 9727SOL    HW130781   6.377   4.332   0.988
 9727SOL    HW230782   6.290   4.454   1.053
 9728SOL     OW30783   5.893   3.787   0.618
 9728SOL    HW130784   5.882   3.881   0.651
 9728SOL    HW230785   5.888   3.724   0.695
 9729SOL     OW30786   7.208   4.091   0.374
 9729SOL    HW130787   7.210   4.015   0.438
 9729SOL    HW230788   7.160   4.168   0.414
 9730SOL     OW30789   6.609   4.490   0.966
 9730SOL    HW130790   6.624   4.511   1.062
 9730SOL    HW230791   6.579   4.395   0.957
 9731SOL     OW30792   6.566   5.297   1.700
 9731SOL    HW130793   6.546   5.341   1.612
 9731SOL    HW230794   6.605   5.206   1.684
 9732SOL     OW30795   5.936   4.622   1.804
 9732SOL    HW130796   6.012   4.666   1.852
 9732SOL    HW230797   5.971   4.575   1.722
 9733SOL     OW30798   6.889   4.562   0.042
 9733SOL    HW130799   6.923   4.469   0.057
 9733SOL    HW230800   6.907   4.589  -0.053
 9734SOL     OW30801   6.654   5.057   0.849
 9734SOL    HW130802   6.661   4.973   0.794
 9734SOL    HW230803   6.716   5.126   0.813
 9735SOL     OW30804   5.925   4.233   1.006
 9735SOL    HW130805   5.873   4.150   0.989
 9735SOL    HW230806   6.002   4.238   0.942
 9736SOL     OW30807   6.724   4.104   1.678
 9736SOL    HW130808   6.679   4.167   1.742
 9736SOL    HW230809   6.817   4.135   1.661
 9737SOL     OW30810   6.746   3.931   1.477
 9737SOL    HW130811   6.746   3.995   1.554
 9737SOL    HW230812   6.774   3.979   1.394
 9738SOL     OW30813   5.674   5.525   0.927
 9738SOL    HW130814   5.632   5.439   0.900
 9738SOL    HW230815   5.768   5.528   0.893
 9739SOL     OW30816   6.090   5.292   0.910
 9739SOL    HW130817   6.156   5.366   0.919
 9739SOL    HW230818   6.134   5.213   0.868
 9740SOL     OW30819   6.588   4.520   1.238
 9740SOL    HW130820   6.629   4.488   1.324
 9740SOL    HW230821   6.492   4.493   1.235
 9741SOL     OW30822   5.626   4.268   1.114
 9741SOL    HW130823   5.711   4.235   1.073
 9741SOL    HW230824   5.639   4.283   1.212
 9742SOL     OW30825   5.775   4.244   1.722
 9742SOL    HW130826   5.834   4.204   1.652
 9742SOL    HW230827   5.717   4.315   1.681
 9743SOL     OW30828   6.401   4.296   0.325
 9743SOL    HW130829   6.408   4.207   0.279
 9743SOL    HW230830   6.307   4.330   0.317
 9744SOL     OW30831   5.838   5.288   1.744
 9744SOL    HW130832   5.808   5.345   1.820
 9744SOL    HW230833   5.831   5.191   1.770
 9745SOL     OW30834   6.257   4.188   1.269
 9745SOL    HW130835   6.223   4.099   1.239
 9745SOL    HW230836   6.283   4.242   1.189
 9746SOL     OW30837   6.516   5.402   1.465
 9746SOL    HW130838   6.492   5.384   1.370
 9746SOL    HW230839   6.546   5.496   1.475
 9747SOL     OW30840   6.059   4.224   0.191
 9747SOL    HW130841   6.120   4.304   0.195
 9747SOL    HW230842   5.964   4.255   0.198
 9748SOL     OW30843   5.745   4.861   1.466
 9748SOL    HW130844   5.767   4.800   1.542
 9748SOL    HW230845   5.755   4.812   1.380
 9749SOL     OW30846   6.933   4.783   1.234
 9749SOL    HW130847   6.957   4.720   1.160
 9749SOL    HW230848   6.843   4.823   1.216
 9750SOL     OW30849   6.888   4.579   0.309
 9750SOL    HW130850   6.802   4.548   0.351
 9750SOL    HW230851   6.884   4.565   0.210
 9751SOL     OW30852   6.838   5.455   1.128
 9751SOL    HW130853   6.922   5.460   1.074
 9751SOL    HW230854   6.815   5.359   1.146
 9752SOL     OW30855   5.669   4.982   1.022
 9752SOL    HW130856   5.664   4.981   1.122
 9752SOL    HW230857   5.586   4.941   0.984
 9753SOL     OW30858   6.274   5.386   1.716
 9753SOL    HW130859   6.218   5.467   1.725
 9753SOL    HW230860   6.326   5.390   1.630
 9754SOL     OW30861   6.489   3.810   0.133
 9754SOL    HW130862   6.540   3.811   0.047
 9754SOL    HW230863   6.545   3.768   0.204
 9755SOL     OW30864   6.974   5.297   0.477
 9755SOL    HW130865   7.041   5.309   0.403
 9755SOL    HW230866   6.934   5.386   0.500
 9756SOL     OW30867   5.716   5.518   1.851
 9756SOL    HW130868   5.675   5.444   1.904
 9756SOL    HW230869   5.780   5.569   1.909
 9757SOL     OW30870   6.866   4.651   0.672
 9757SOL    HW130871   6.926   4.570   0.674
 9757SOL    HW230872   6.906   4.720   0.612
 9758SOL     OW30873   6.416   4.997   1.422
 9758SOL    HW130874   6.411   5.030   1.517
 9758SOL    HW230875   6.330   5.016   1.376
 9759SOL     OW30876   6.258   5.340   0.154
 9759SOL    HW130877   6.267   5.350   0.055
 9759SOL    HW230878   6.218   5.251   0.175
 9760SOL     OW30879   5.849   4.050   0.720
 9760SOL    HW130880   5.770   4.101   0.686
 9760SOL    HW230881   5.840   4.035   0.818
 9761SOL     OW30882   6.780   5.336   0.031
 9761SOL    HW130883   6.786   5.243   0.068
 9761SOL    HW230884   6.721   5.336  -0.049
 9762SOL     OW30885   6.408   4.726   1.372
 9762SOL    HW130886   6.448   4.725   1.280
 9762SOL    HW230887   6.418   4.818   1.412
 9763SOL     OW30888   6.502   4.634   0.291
 9763SOL    HW130889   6.565   4.672   0.223
 9763SOL    HW230890   6.542   4.551   0.330
 9764SOL     OW30891   5.958   5.012   1.490
 9764SOL    HW130892   5.945   5.105   1.456
 9764SOL    HW230893   5.874   4.960   1.477
 9765SOL     OW30894   6.625   4.822   0.696
 9765SOL    HW130895   6.555   4.775   0.750
 9765SOL    HW230896   6.684   4.754   0.653
 9766SOL     OW30897   6.600   3.960   0.971
 9766SOL    HW130898   6.592   3.924   0.878
 9766SOL    HW230899   6.598   3.884   1.036
 9767SOL     OW30900   6.176   5.211   0.491
 9767SOL    HW130901   6.218   5.153   0.421
 9767SOL    HW230902   6.132   5.290   0.447
 9768SOL     OW30903   5.691   4.737   1.726
 9768SOL    HW130904   5.614   4.704   1.780
 9768SOL    HW230905   5.776   4.707   1.768
 9769SOL     OW30906   6.258   3.927   1.489
 9769SOL    HW130907   6.348   3.911   1.449
 9769SOL    HW230908   6.266   3.932   1.588
 9770SOL     OW30909   5.661   4.069   0.033
 9770SOL    HW130910   5.569   4.041   0.004
 9770SOL    HW230911   5.692   4.146  -0.023
 9771SOL     OW30912   5.658   3.890   0.318
 9771SOL    HW130913   5.641   3.973   0.264
 9771SOL    HW230914   5.748   3.853   0.296
 9772SOL     OW30915   6.199   4.566   1.431
 9772SOL    HW130916   6.255   4.647   1.414
 9772SOL    HW230917   6.258   4.486   1.434
 9773SOL     OW30918   6.302   4.289   1.708
 9773SOL    HW130919   6.321   4.354   1.782
 9773SOL    HW230920   6.362   4.209   1.717
 9774SOL     OW30921   7.036   4.944   1.633
 9774SOL    HW130922   7.027   4.934   1.732
 9774SOL    HW230923   7.132   4.937   1.607
 9775SOL     OW30924   5.976   5.465   1.560
 9775SOL    HW130925   5.885   5.506   1.558
 9775SOL    HW230926   5.969   5.371   1.592
 9776SOL     OW30927   6.811   4.049   0.449
 9776SOL    HW130928   6.876   3.975   0.438
 9776SOL    HW230929   6.831   4.099   0.533
 9777SOL     OW30930   6.180   4.469   0.652
 9777SOL    HW130931   6.230   4.554   0.633
 9777SOL    HW230932   6.092   4.471   0.604
 9778SOL     OW30933   6.445   5.098   0.016
 9778SOL    HW130934   6.399   5.113   0.104
 9778SOL    HW230935   6.489   5.183  -0.014
 9779SOL     OW30936   6.247   5.514   0.953
 9779SOL    HW130937   6.201   5.602   0.940
 9779SOL    HW230938   6.346   5.526   0.946
 9780SOL     OW30939   6.445   4.680   0.861
 9780SOL    HW130940   6.499   4.611   0.909
 9780SOL    HW230941   6.413   4.749   0.927
 9781SOL     OW30942   6.669   4.708   0.087
 9781SOL    HW130943   6.646   4.761   0.005
 9781SOL    HW230944   6.750   4.652   0.068
 9782SOL     OW30945   5.807   5.038   1.844
 9782SOL    HW130946   5.742   4.965   1.823
 9782SOL    HW230947   5.811   5.052   1.942
 9783SOL     OW30948   6.258   5.115   1.624
 9783SOL    HW130949   6.180   5.065   1.662
 9783SOL    HW230950   6.255   5.210   1.655
 9784SOL     OW30951   6.014   4.148   0.520
 9784SOL    HW130952   6.044   4.076   0.458
 9784SOL    HW230953   5.975   4.108   0.603
 9785SOL     OW30954   5.903   4.271   1.280
 9785SOL    HW130955   5.941   4.212   1.352
 9785SOL    HW230956   5.943   4.245   1.192
 9786SOL     OW30957   6.398   5.310   0.687
 9786SOL    HW130958   6.430   5.320   0.593
 9786SOL    HW230959   6.319   5.248   0.689
 9787SOL     OW30960   7.010   3.938   1.112
 9787SOL    HW130961   7.062   3.873   1.167
 9787SOL    HW230962   6.961   4.001   1.173
 9788SOL     OW30963   6.587   3.758   1.154
 9788SOL    HW130964   6.524   3.686   1.123
 9788SOL    HW230965   6.680   3.722   1.154
 9789SOL     OW30966   6.356   5.054   0.301
 9789SOL    HW130967   6.310   4.967   0.318
 9789SOL    HW230968   6.447   5.051   0.342
 9790SOL     OW30969   6.204   5.291   1.284
 9790SOL    HW130970   6.199   5.373   1.341
 9790SOL    HW230971   6.293   5.288   1.239
 9791SOL     OW30972   6.461   5.370   0.337
 9791SOL    HW130973   6.384   5.335   0.283
 9791SOL    HW230974   6.429   5.441   0.399
 9792SOL     OW30975   5.816   4.352   1.975
 9792SOL    HW130976   5.723   4.350   2.012
 9792SOL    HW230977   5.817   4.313   1.883
 9793SOL     OW30978   5.811   3.999   2.858
 9793SOL    HW130979   5.846   3.982   2.950
 9793SOL    HW230980   5.723   3.954   2.846
 9794SOL     OW30981   5.605   4.092   2.509
 9794SOL    HW130982   5.523   4.135   2.548
 9794SOL    HW230983   5.577   4.019   2.446
 9795SOL     OW30984   6.155   4.999   3.027
 9795SOL    HW130985   6.062   4.992   2.990
 9795SOL    HW230986   6.166   5.088   3.071
 9796SOL     OW30987   7.141   5.235   2.565
 9796SOL    HW130988   7.084   5.219   2.646
 9796SOL    HW230989   7.082   5.245   2.485
 9797SOL     OW30990   6.721   4.427   2.579
 9797SOL    HW130991   6.778   4.505   2.554
 9797SOL    HW230992   6.661   4.453   2.655
 9798SOL     OW30993   6.354   4.868   2.885
 9798SOL    HW130994   6.276   4.885   2.945
 9798SOL    HW230995   6.388   4.955   2.849
 9799SOL     OW30996   6.436   4.522   3.685
 9799SOL    HW130997   6.432   4.598   3.750
 9799SOL    HW230998   6.458   4.558   3.594
 9800SOL     OW30999   6.271   4.736   2.527
 9800SOL    HW131000   6.340   4.720   2.597
 9800SOL    HW231001   6.198   4.793   2.565
 9801SOL     OW31002   6.272   4.885   3.665
 9801SOL    HW131003   6.332   4.964   3.679
 9801SOL    HW231004   6.186   4.916   3.624
 9802SOL     OW31005   5.921   5.159   2.923
 9802SOL    HW131006   5.843   5.128   2.870
 9802SOL    HW231007   5.979   5.217   2.866
 9803SOL     OW31008   6.024   4.116   3.361
 9803SOL    HW131009   6.106   4.060   3.370
 9803SOL    HW231010   5.943   4.058   3.365
 9804SOL     OW31011   5.817   5.437   2.345
 9804SOL    HW131012   5.851   5.514   2.399
 9804SOL    HW231013   5.861   5.437   2.255
 9805SOL     OW31014   6.713   5.065   3.552
 9805SOL    HW131015   6.760   5.065   3.640
 9805SOL    HW231016   6.665   4.978   3.541
 9806SOL     OW31017   5.816   5.158   2.400
 9806SOL    HW131018   5.790   5.254   2.400
 9806SOL    HW231019   5.745   5.104   2.445
 9807SOL     OW31020   5.826   4.815   2.748
 9807SOL    HW131021   5.840   4.731   2.800
 9807SOL    HW231022   5.771   4.879   2.803
 9808SOL     OW31023   6.206   5.510   3.301
 9808SOL    HW131024   6.114   5.493   3.336
 9808SOL    HW231025   6.234   5.602   3.327
 9809SOL     OW31026   6.192   4.688   1.985
 9809SOL    HW131027   6.199   4.772   1.931
 9809SOL    HW231028   6.238   4.701   2.073
 9810SOL     OW31029   5.708   4.367   2.425
 9810SOL    HW131030   5.663   4.279   2.442
 9810SOL    HW231031   5.707   4.421   2.509
 9811SOL     OW31032   5.613   5.320   1.979
 9811SOL    HW131033   5.594   5.224   2.000
 9811SOL    HW231034   5.580   5.378   2.054
 9812SOL     OW31035   5.699   4.461   3.459
 9812SOL    HW131036   5.787   4.448   3.504
 9812SOL    HW231037   5.686   4.558   3.437
 9813SOL     OW31038   6.199   5.089   2.588
 9813SOL    HW131039   6.150   5.002   2.597
 9813SOL    HW231040   6.176   5.132   2.501
 9814SOL     OW31041   6.879   4.952   3.285
 9814SOL    HW131042   6.916   4.879   3.227
 9814SOL    HW231043   6.931   4.957   3.370
 9815SOL     OW31044   6.395   3.728   2.364
 9815SOL    HW131045   6.435   3.819   2.355
 9815SOL    HW231046   6.295   3.736   2.370
 9816SOL     OW31047   5.783   4.700   3.126
 9816SOL    HW131048   5.872   4.655   3.112
 9816SOL    HW231049   5.710   4.635   3.107
 9817SOL     OW31050   6.773   5.516   3.478
 9817SOL    HW131051   6.797   5.576   3.402
 9817SOL    HW231052   6.780   5.421   3.448
 9818SOL     OW31053   5.903   3.975   3.663
 9818SOL    HW131054   5.974   4.046   3.669
 9818SOL    HW231055   5.815   4.014   3.691
 9819SOL     OW31056   6.184   4.453   2.132
 9819SOL    HW131057   6.208   4.522   2.064
 9819SOL    HW231058   6.106   4.486   2.186
 9820SOL     OW31059   6.867   4.069   2.806
 9820SOL    HW131060   6.781   4.019   2.793
 9820SOL    HW231061   6.929   4.015   2.862
 9821SOL     OW31062   6.393   4.329   3.327
 9821SOL    HW131063   6.346   4.326   3.416
 9821SOL    HW231064   6.342   4.274   3.261
 9822SOL     OW31065   6.980   4.193   3.536
 9822SOL    HW131066   6.960   4.236   3.624
 9822SOL    HW231067   7.058   4.131   3.545
 9823SOL     OW31068   6.559   4.614   3.434
 9823SOL    HW131069   6.605   4.530   3.405
 9823SOL    HW231070   6.503   4.648   3.359
 9824SOL     OW31071   6.577   4.134   3.104
 9824SOL    HW131072   6.500   4.168   3.158
 9824SOL    HW231073   6.543   4.083   3.025
 9825SOL     OW31074   6.627   4.425   2.291
 9825SOL    HW131075   6.653   4.421   2.387
 9825SOL    HW231076   6.542   4.374   2.277
 9826SOL     OW31077   5.662   4.535   2.651
 9826SOL    HW131078   5.761   4.523   2.660
 9826SOL    HW231079   5.638   4.630   2.672
 9827SOL     OW31080   5.716   5.545   3.433
 9827SOL    HW131081   5.706   5.530   3.532
 9827SOL    HW231082   5.630   5.581   3.397
 9828SOL     OW31083   6.451   4.072   2.057
 9828SOL    HW131084   6.510   4.135   2.008
 9828SOL    HW231085   6.470   3.978   2.028
 9829SOL     OW31086   6.948   4.868   2.407
 9829SOL    HW131087   7.031   4.839   2.359
 9829SOL    HW231088   6.899   4.935   2.351
 9830SOL     OW31089   6.136   3.920   2.747
 9830SOL    HW131090   6.131   3.915   2.847
 9830SOL    HW231091   6.138   4.016   2.718
 9831SOL     OW31092   6.594   5.180   2.339
 9831SOL    HW131093   6.548   5.252   2.287
 9831SOL    HW231094   6.590   5.200   2.437
 9832SOL     OW31095   5.937   5.525   2.715
 9832SOL    HW131096   5.987   5.439   2.721
 9832SOL    HW231097   6.002   5.602   2.712
 9833SOL     OW31098   6.813   5.274   3.368
 9833SOL    HW131099   6.819   5.197   3.432
 9833SOL    HW231100   6.761   5.248   3.288
 9834SOL     OW31101   5.907   4.667   2.104
 9834SOL    HW131102   5.989   4.706   2.062
 9834SOL    HW231103   5.880   4.585   2.055
 9835SOL     OW31104   6.047   4.990   3.589
 9835SOL    HW131105   5.997   4.991   3.503
 9835SOL    HW231106   5.984   4.972   3.665
 9836SOL     OW31107   6.697   5.500   2.099
 9836SOL    HW131108   6.637   5.438   2.149
 9836SOL    HW231109   6.728   5.456   2.014
 9837SOL     OW31110   5.788   4.009   3.360
 9837SOL    HW131111   5.708   4.069   3.347
 9837SOL    HW231112   5.778   3.960   3.446
 9838SOL     OW31113   6.050   5.467   2.185
 9838SOL    HW131114   6.083   5.506   2.271
 9838SOL    HW231115   6.126   5.460   2.120
 9839SOL     OW31116   5.835   5.509   3.103
 9839SOL    HW131117   5.892   5.444   3.153
 9839SOL    HW231118   5.819   5.476   3.010
 9840SOL     OW31119   6.526   5.422   2.766
 9840SOL    HW131120   6.606   5.365   2.787
 9840SOL    HW231121   6.477   5.382   2.689
 9841SOL     OW31122   5.968   4.424   2.342
 9841SOL    HW131123   6.013   4.334   2.339
 9841SOL    HW231124   5.874   4.413   2.375
 9842SOL     OW31125   6.200   3.846   1.979
 9842SOL    HW131126   6.298   3.824   1.986
 9842SOL    HW231127   6.169   3.829   1.886
 9843SOL     OW31128   6.367   3.988   3.611
 9843SOL    HW131129   6.434   3.927   3.654
 9843SOL    HW231130   6.294   4.007   3.676
 9844SOL     OW31131   6.474   5.238   3.057
 9844SOL    HW131132   6.451   5.213   2.963
 9844SOL    HW231133   6.535   5.169   3.096
 9845SOL     OW31134   6.389   5.126   2.786
 9845SOL    HW131135   6.479   5.140   2.744
 9845SOL    HW231136   6.318   5.128   2.715
 9846SOL     OW31137   6.508   4.227   2.761
 9846SOL    HW131138   6.483   4.218   2.665
 9846SOL    HW231139   6.556   4.145   2.792
 9847SOL     OW31140   6.125   3.788   2.374
 9847SOL    HW131141   6.044   3.789   2.432
 9847SOL    HW231142   6.128   3.871   2.319
 9848SOL     OW31143   7.020   4.912   1.903
 9848SOL    HW131144   7.052   4.836   1.960
 9848SOL    HW231145   6.928   4.939   1.933
 9849SOL     OW31146   5.883   3.759   2.033
 9849SOL    HW131147   5.932   3.843   2.012
 9849SOL    HW231148   5.945   3.694   2.078
 9850SOL     OW31149   6.521   3.960   2.342
 9850SOL    HW131150   6.473   4.001   2.264
 9850SOL    HW231151   6.620   3.958   2.323
 9851SOL     OW31152   6.662   4.407   3.326
 9851SOL    HW131153   6.582   4.346   3.329
 9851SOL    HW231154   6.743   4.354   3.302
 9852SOL     OW31155   6.813   5.294   2.655
 9852SOL    HW131156   6.834   5.368   2.590
 9852SOL    HW231157   6.881   5.294   2.728
 9853SOL     OW31158   6.045   4.876   2.603
 9853SOL    HW131159   5.974   4.849   2.668
 9853SOL    HW231160   6.019   4.848   2.510
 9854SOL     OW31161   6.857   5.521   2.453
 9854SOL    HW131162   6.901   5.585   2.389
 9854SOL    HW231163   6.807   5.573   2.523
 9855SOL     OW31164   6.618   4.273   1.878
 9855SOL    HW131165   6.577   4.355   1.839
 9855SOL    HW231166   6.682   4.299   1.951
 9856SOL     OW31167   5.664   4.280   3.248
 9856SOL    HW131168   5.756   4.279   3.207
 9856SOL    HW231169   5.658   4.354   3.315
 9857SOL     OW31170   6.147   3.946   3.009
 9857SOL    HW131171   6.185   3.862   3.046
 9857SOL    HW231172   6.059   3.965   3.053
 9858SOL     OW31173   6.452   4.178   2.504
 9858SOL    HW131174   6.420   4.250   2.442
 9858SOL    HW231175   6.476   4.097   2.451
 9859SOL     OW31176   6.603   3.763   2.615
 9859SOL    HW131177   6.531   3.768   2.546
 9859SOL    HW231178   6.579   3.694   2.684
 9860SOL     OW31179   6.074   5.109   2.036
 9860SOL    HW131180   5.987   5.094   2.083
 9860SOL    HW231181   6.057   5.135   1.941
 9861SOL     OW31182   6.113   3.980   2.190
 9861SOL    HW131183   6.140   3.921   2.115
 9861SOL    HW231184   6.113   4.075   2.159
 9862SOL     OW31185   6.650   5.071   3.202
 9862SOL    HW131186   6.570   5.048   3.257
 9862SOL    HW231187   6.733   5.045   3.251
 9863SOL     OW31188   6.697   4.919   2.962
 9863SOL    HW131189   6.657   4.963   3.043
 9863SOL    HW231190   6.656   4.956   2.879
 9864SOL     OW31191   6.501   3.813   3.264
 9864SOL    HW131192   6.526   3.793   3.169
 9864SOL    HW231193   6.573   3.869   3.306
 9865SOL     OW31194   6.566   4.840   3.581
 9865SOL    HW131195   6.467   4.846   3.591
 9865SOL    HW231196   6.589   4.760   3.525
 9866SOL     OW31197   6.291   4.774   2.230
 9866SOL    HW131198   6.277   4.781   2.329
 9866SOL    HW231199   6.375   4.723   2.212
 9867SOL     OW31200   5.996   4.537   3.113
 9867SOL    HW131201   6.082   4.549   3.163
 9867SOL    HW231202   5.954   4.450   3.140
 9868SOL     OW31203   6.860   4.110   3.124
 9868SOL    HW131204   6.881   4.184   3.188
 9868SOL    HW231205   6.771   4.127   3.081
 9869SOL     OW31206   5.650   5.288   3.193
 9869SOL    HW131207   5.604   5.370   3.159
 9869SOL    HW231208   5.748   5.307   3.202
 9870SOL     OW31209   5.953   4.824   2.363
 9870SOL    HW131210   5.946   4.907   2.307
 9870SOL    HW231211   5.957   4.744   2.303
 9871SOL     OW31212   6.152   4.261   2.727
 9871SOL    HW131213   6.164   4.327   2.653
 9871SOL    HW231214   6.198   4.295   2.810
 9872SOL     OW31215   6.838   5.072   2.250
 9872SOL    HW131216   6.888   5.149   2.290
 9872SOL    HW231217   6.743   5.074   2.282
 9873SOL     OW31218   6.858   5.169   3.004
 9873SOL    HW131219   6.905   5.182   3.091
 9873SOL    HW231220   6.792   5.095   3.013
 9874SOL     OW31221   5.940   5.234   3.191
 9874SOL    HW131222   5.919   5.190   3.104
 9874SOL    HW231223   6.037   5.260   3.194
 9875SOL     OW31224   5.988   4.475   3.460
 9875SOL    HW131225   6.056   4.530   3.413
 9875SOL    HW231226   6.028   4.387   3.487
 9876SOL     OW31227   6.599   3.829   3.632
 9876SOL    HW131228   6.605   3.914   3.580
 9876SOL    HW231229   6.631   3.753   3.575
 9877SOL     OW31230   6.090   3.774   3.602
 9877SOL    HW131231   6.048   3.717   3.532
 9877SOL    HW231232   6.024   3.843   3.634
 9878SOL     OW31233   6.159   4.594   2.891
 9878SOL    HW131234   6.203   4.683   2.882
 9878SOL    HW231235   6.096   4.594   2.968
 9879SOL     OW31236   6.946   4.586   2.907
 9879SOL    HW131237   6.871   4.586   2.841
 9879SOL    HW231238   6.983   4.494   2.916
 9880SOL     OW31239   6.795   4.249   2.137
 9880SOL    HW131240   6.808   4.165   2.191
 9880SOL    HW231241   6.766   4.323   2.197
 9881SOL     OW31242   5.893   3.937   3.093
 9881SOL    HW131243   5.870   3.974   3.183
 9881SOL    HW231244   5.863   3.842   3.087
 9882SOL     OW31245   5.623   5.034   3.144
 9882SOL    HW131246   5.676   4.985   3.212
 9882SOL    HW231247   5.645   5.132   3.149
 9883SOL     OW31248   6.318   4.358   2.926
 9883SOL    HW131249   6.377   4.332   2.850
 9883SOL    HW231250   6.290   4.454   2.915
 9884SOL     OW31251   5.893   3.787   2.480
 9884SOL    HW131252   5.882   3.881   2.513
 9884SOL    HW231253   5.888   3.724   2.557
 9885SOL     OW31254   7.208   4.091   2.236
 9885SOL    HW131255   7.210   4.015   2.300
 9885SOL    HW231256   7.160   4.168   2.276
 9886SOL     OW31257   6.609   4.490   2.828
 9886SOL    HW131258   6.624   4.511   2.924
 9886SOL    HW231259   6.579   4.395   2.819
 9887SOL     OW31260   6.566   5.297   3.562
 9887SOL    HW131261   6.546   5.341   3.474
 9887SOL    HW231262   6.605   5.206   3.546
 9888SOL     OW31263   5.936   4.622   3.666
 9888SOL    HW131264   6.012   4.666   3.714
 9888SOL    HW231265   5.971   4.575   3.584
 9889SOL     OW31266   6.889   4.562   1.904
 9889SOL    HW131267   6.923   4.469   1.919
 9889SOL    HW231268   6.907   4.589   1.809
 9890SOL     OW31269   6.654   5.057   2.711
 9890SOL    HW131270   6.661   4.973   2.656
 9890SOL    HW231271   6.716   5.126   2.675
 9891SOL     OW31272   5.905   4.534   2.811
 9891SOL    HW131273   5.998   4.570   2.816
 9891SOL    HW231274   5.899   4.449   2.863
 9892SOL     OW31275   5.925   4.233   2.868
 9892SOL    HW131276   5.873   4.150   2.851
 9892SOL    HW231277   6.002   4.238   2.804
 9893SOL     OW31278   6.724   4.104   3.540
 9893SOL    HW131279   6.679   4.167   3.604
 9893SOL    HW231280   6.817   4.135   3.523
 9894SOL     OW31281   6.746   3.931   3.339
 9894SOL    HW131282   6.746   3.995   3.416
 9894SOL    HW231283   6.774   3.979   3.256
 9895SOL     OW31284   5.594   5.050   2.062
 9895SOL    HW131285   5.501   5.071   2.031
 9895SOL    HW231286   5.604   4.951   2.075
 9896SOL     OW31287   5.674   5.525   2.789
 9896SOL    HW131288   5.632   5.439   2.762
 9896SOL    HW231289   5.768   5.528   2.755
 9897SOL     OW31290   6.090   5.292   2.772
 9897SOL    HW131291   6.156   5.366   2.781
 9897SOL    HW231292   6.134   5.213   2.730
 9898SOL     OW31293   6.588   4.520   3.100
 9898SOL    HW131294   6.629   4.488   3.186
 9898SOL    HW231295   6.492   4.493   3.097
 9899SOL     OW31296   5.626   4.268   2.976
 9899SOL    HW131297   5.711   4.235   2.935
 9899SOL    HW231298   5.639   4.283   3.074
 9900SOL     OW31299   5.775   4.244   3.584
 9900SOL    HW131300   5.834   4.204   3.514
 9900SOL    HW231301   5.717   4.315   3.543
 9901SOL     OW31302   6.401   4.296   2.187
 9901SOL    HW131303   6.408   4.207   2.141
 9901SOL    HW231304   6.307   4.330   2.179
 9902SOL     OW31305   5.838   5.288   3.606
 9902SOL    HW131306   5.808   5.345   3.682
 9902SOL    HW231307   5.831   5.191   3.632
 9903SOL     OW31308   6.257   4.188   3.131
 9903SOL    HW131309   6.223   4.099   3.101
 9903SOL    HW231310   6.283   4.242   3.051
 9904SOL     OW31311   6.516   5.402   3.327
 9904SOL    HW131312   6.492   5.384   3.232
 9904SOL    HW231313   6.546   5.496   3.337
 9905SOL     OW31314   6.059   4.224   2.053
 9905SOL    HW131315   6.120   4.304   2.057
 9905SOL    HW231316   5.964   4.255   2.060
 9906SOL     OW31317   5.745   4.861   3.328
 9906SOL    HW131318   5.767   4.800   3.404
 9906SOL    HW231319   5.755   4.812   3.242
 9907SOL     OW31320   6.933   4.783   3.096
 9907SOL    HW131321   6.957   4.720   3.022
 9907SOL    HW231322   6.843   4.823   3.078
 9908SOL     OW31323   6.888   4.579   2.171
 9908SOL    HW131324   6.802   4.548   2.213
 9908SOL    HW231325   6.884   4.565   2.072
 9909SOL     OW31326   6.838   5.455   2.990
 9909SOL    HW131327   6.922   5.460   2.936
 9909SOL    HW231328   6.815   5.359   3.008
 9910SOL     OW31329   5.669   4.982   2.884
 9910SOL    HW131330   5.664   4.981   2.984
 9910SOL    HW231331   5.586   4.941   2.846
 9911SOL     OW31332   6.274   5.386   3.578
 9911SOL    HW131333   6.218   5.467   3.587
 9911SOL    HW231334   6.326   5.390   3.492
 9912SOL     OW31335   6.974   5.297   2.339
 9912SOL    HW131336   7.041   5.309   2.265
 9912SOL    HW231337   6.934   5.386   2.362
 9913SOL     OW31338   5.716   5.518   3.713
 9913SOL    HW131339   5.675   5.444   3.766
 9913SOL    HW231340   5.780   5.569   3.771
 9914SOL     OW31341   6.866   4.651   2.534
 9914SOL    HW131342   6.926   4.570   2.536
 9914SOL    HW231343   6.906   4.720   2.474
 9915SOL     OW31344   6.416   4.997   3.284
 9915SOL    HW131345   6.411   5.030   3.379
 9915SOL    HW231346   6.330   5.016   3.238
 9916SOL     OW31347   6.258   5.340   2.016
 9916SOL    HW131348   6.267   5.350   1.917
 9916SOL    HW231349   6.218   5.251   2.037
 9917SOL     OW31350   5.849   4.050   2.582
 9917SOL    HW131351   5.770   4.101   2.548
 9917SOL    HW231352   5.840   4.035   2.680
 9918SOL     OW31353   6.780   5.336   1.893
 9918SOL    HW131354   6.786   5.243   1.930
 9918SOL    HW231355   6.721   5.336   1.813
 9919SOL     OW31356   6.408   4.726   3.234
 9919SOL    HW131357   6.448   4.725   3.142
 9919SOL    HW231358   6.418   4.818   3.274
 9920SOL     OW31359   6.502   4.634   2.153
 9920SOL    HW131360   6.565   4.672   2.085
 9920SOL    HW231361   6.542   4.551   2.192
 9921SOL     OW31362   5.958   5.012   3.352
 9921SOL    HW131363   5.945   5.105   3.318
 9921SOL    HW231364   5.874   4.960   3.339
 9922SOL     OW31365   6.625   4.822   2.558
 9922SOL    HW131366   6.555   4.775   2.612
 9922SOL    HW231367   6.684   4.754   2.515
 9923SOL     OW31368   6.600   3.960   2.833
 9923SOL    HW131369   6.592   3.924   2.740
 9923SOL    HW231370   6.598   3.884   2.898
 9924SOL     OW31371   6.176   5.211   2.353
 9924SOL    HW131372   6.218   5.153   2.283
 9924SOL    HW231373   6.132   5.290   2.309
 9925SOL     OW31374   5.841   5.072   2.152
 9925SOL    HW131375   5.745   5.073   2.125
 9925SOL    HW231376   5.853   5.125   2.236
 9926SOL     OW31377   5.691   4.737   3.588
 9926SOL    HW131378   5.614   4.704   3.642
 9926SOL    HW231379   5.776   4.707   3.630
 9927SOL     OW31380   6.258   3.927   3.351
 9927SOL    HW131381   6.348   3.911   3.311
 9927SOL    HW231382   6.266   3.932   3.450
 9928SOL     OW31383   5.661   4.069   1.895
 9928SOL    HW131384   5.569   4.041   1.866
 9928SOL    HW231385   5.692   4.146   1.839
 9929SOL     OW31386   5.658   3.890   2.180
 9929SOL    HW131387   5.641   3.973   2.126
 9929SOL    HW231388   5.748   3.853   2.158
 9930SOL     OW31389   6.199   4.566   3.293
 9930SOL    HW131390   6.255   4.647   3.276
 9930SOL    HW231391   6.258   4.486   3.296
 9931SOL     OW31392   6.302   4.289   3.570
 9931SOL    HW131393   6.321   4.354   3.644
 9931SOL    HW231394   6.362   4.209   3.579
 9932SOL     OW31395   7.036   4.944   3.495
 9932SOL    HW131396   7.027   4.934   3.594
 9932SOL    HW231397   7.132   4.937   3.469
 9933SOL     OW31398   5.976   5.465   3.422
 9933SOL    HW131399   5.885   5.506   3.420
 9933SOL    HW231400   5.969   5.371   3.454
 9934SOL     OW31401   6.811   4.049   2.311
 9934SOL    HW131402   6.876   3.975   2.300
 9934SOL    HW231403   6.831   4.099   2.395
 9935SOL     OW31404   6.180   4.469   2.514
 9935SOL    HW131405   6.230   4.554   2.495
 9935SOL    HW231406   6.092   4.471   2.466
 9936SOL     OW31407   6.445   5.098   1.878
 9936SOL    HW131408   6.399   5.113   1.966
 9936SOL    HW231409   6.489   5.183   1.848
 9937SOL     OW31410   6.247   5.514   2.815
 9937SOL    HW131411   6.201   5.602   2.802
 9937SOL    HW231412   6.346   5.526   2.808
 9938SOL     OW31413   6.445   4.680   2.723
 9938SOL    HW131414   6.499   4.611   2.771
 9938SOL    HW231415   6.413   4.749   2.789
 9939SOL     OW31416   6.669   4.708   1.949
 9939SOL    HW131417   6.646   4.761   1.867
 9939SOL    HW231418   6.750   4.652   1.930
 9940SOL     OW31419   5.807   5.038   3.706
 9940SOL    HW131420   5.742   4.965   3.685
 9940SOL    HW231421   5.811   5.052   3.804
 9941SOL     OW31422   5.665   4.964   2.515
 9941SOL    HW131423   5.664   4.917   2.603
 9941SOL    HW231424   5.747   4.936   2.464
 9942SOL     OW31425   6.258   5.115   3.486
 9942SOL    HW131426   6.180   5.065   3.524
 9942SOL    HW231427   6.255   5.210   3.517
 9943SOL     OW31428   6.014   4.148   2.382
 9943SOL    HW131429   6.044   4.076   2.320
 9943SOL    HW231430   5.975   4.108   2.465
 9944SOL     OW31431   5.903   4.271   3.142
 9944SOL    HW131432   5.941   4.212   3.214
 9944SOL    HW231433   5.943   4.245   3.054
 9945SOL     OW31434   6.398   5.310   2.549
 9945SOL    HW131435   6.430   5.320   2.455
 9945SOL    HW231436   6.319   5.248   2.551
 9946SOL     OW31437   7.010   3.938   2.974
 9946SOL    HW131438   7.062   3.873   3.029
 9946SOL    HW231439   6.961   4.001   3.035
 9947SOL     OW31440   6.587   3.758   3.016
 9947SOL    HW131441   6.524   3.686   2.985
 9947SOL    HW231442   6.680   3.722   3.016
 9948SOL     OW31443   6.356   5.054   2.163
 9948SOL    HW131444   6.310   4.967   2.180
 9948SOL    HW231445   6.447   5.051   2.204
 9949SOL     OW31446   6.204   5.291   3.146
 9949SOL    HW131447   6.199   5.373   3.203
 9949SOL    HW231448   6.293   5.288   3.101
 9950SOL     OW31449   6.938   3.776   2.030
 9950SOL    HW131450   6.973   3.735   1.946
 9950SOL    HW231451   6.848   3.738   2.050
 9951SOL     OW31452   5.625   4.801   2.162
 9951SOL    HW131453   5.724   4.790   2.153
 9951SOL    HW231454   5.585   4.715   2.194
 9952SOL     OW31455   6.461   5.370   2.199
 9952SOL    HW131456   6.384   5.335   2.145
 9952SOL    HW231457   6.429   5.441   2.261
 9953SOL     OW31458   5.816   4.352   3.837
 9953SOL    HW131459   5.723   4.350   3.874
 9953SOL    HW231460   5.817   4.313   3.745
 9954SOL     OW31461   5.811   3.999   4.720
 9954SOL    HW131462   5.846   3.982   4.812
 9954SOL    HW231463   5.723   3.954   4.708
 9955SOL     OW31464   5.605   4.092   4.371
 9955SOL    HW131465   5.523   4.135   4.410
 9955SOL    HW231466   5.577   4.019   4.308
 9956SOL     OW31467   6.155   4.999   4.889
 9956SOL    HW131468   6.062   4.992   4.852
 9956SOL    HW231469   6.166   5.088   4.933
 9957SOL     OW31470   7.141   5.235   4.427
 9957SOL    HW131471   7.084   5.219   4.508
 9957SOL    HW231472   7.082   5.245   4.347
 9958SOL     OW31473   6.721   4.427   4.441
 9958SOL    HW131474   6.778   4.505   4.416
 9958SOL    HW231475   6.661   4.453   4.517
 9959SOL     OW31476   6.354   4.868   4.747
 9959SOL    HW131477   6.276   4.885   4.807
 9959SOL    HW231478   6.388   4.955   4.711
 9960SOL     OW31479   6.271   4.736   4.389
 9960SOL    HW131480   6.340   4.720   4.459
 9960SOL    HW231481   6.198   4.793   4.427
 9961SOL     OW31482   6.272   4.885   5.527
 9961SOL    HW131483   6.332   4.964   5.541
 9961SOL    HW231484   6.186   4.916   5.486
 9962SOL     OW31485   5.921   5.159   4.785
 9962SOL    HW131486   5.843   5.128   4.732
 9962SOL    HW231487   5.979   5.217   4.728
 9963SOL     OW31488   6.024   4.116   5.223
 9963SOL    HW131489   6.106   4.060   5.232
 9963SOL    HW231490   5.943   4.058   5.227
 9964SOL     OW31491   5.817   5.437   4.207
 9964SOL    HW131492   5.851   5.514   4.261
 9964SOL    HW231493   5.861   5.437   4.117
 9965SOL     OW31494   6.713   5.065   5.414
 9965SOL    HW131495   6.760   5.065   5.502
 9965SOL    HW231496   6.665   4.978   5.403
 9966SOL     OW31497   5.816   5.158   4.262
 9966SOL    HW131498   5.790   5.254   4.262
 9966SOL    HW231499   5.745   5.104   4.307
 9967SOL     OW31500   5.826   4.815   4.610
 9967SOL    HW131501   5.840   4.731   4.662
 9967SOL    HW231502   5.771   4.879   4.665
 9968SOL     OW31503   6.206   5.510   5.163
 9968SOL    HW131504   6.114   5.493   5.198
 9968SOL    HW231505   6.234   5.602   5.189
 9969SOL     OW31506   6.192   4.688   3.847
 9969SOL    HW131507   6.199   4.772   3.793
 9969SOL    HW231508   6.238   4.701   3.935
 9970SOL     OW31509   5.708   4.367   4.287
 9970SOL    HW131510   5.663   4.279   4.304
 9970SOL    HW231511   5.707   4.421   4.371
 9971SOL     OW31512   5.613   5.320   3.841
 9971SOL    HW131513   5.594   5.224   3.862
 9971SOL    HW231514   5.580   5.378   3.916
 9972SOL     OW31515   5.699   4.461   5.321
 9972SOL    HW131516   5.787   4.448   5.366
 9972SOL    HW231517   5.686   4.558   5.299
 9973SOL     OW31518   6.199   5.089   4.450
 9973SOL    HW131519   6.150   5.002   4.459
 9973SOL    HW231520   6.176   5.132   4.363
 9974SOL     OW31521   6.879   4.952   5.147
 9974SOL    HW131522   6.916   4.879   5.089
 9974SOL    HW231523   6.931   4.957   5.232
 9975SOL     OW31524   6.395   3.728   4.226
 9975SOL    HW131525   6.435   3.819   4.217
 9975SOL    HW231526   6.295   3.736   4.232
 9976SOL     OW31527   5.783   4.700   4.988
 9976SOL    HW131528   5.872   4.655   4.974
 9976SOL    HW231529   5.710   4.635   4.969
 9977SOL     OW31530   6.773   5.516   5.340
 9977SOL    HW131531   6.797   5.576   5.264
 9977SOL    HW231532   6.780   5.421   5.310
 9978SOL     OW31533   5.903   3.975   5.525
 9978SOL    HW131534   5.974   4.046   5.531
 9978SOL    HW231535   5.815   4.014   5.553
 9979SOL     OW31536   6.184   4.453   3.994
 9979SOL    HW131537   6.208   4.522   3.926
 9979SOL    HW231538   6.106   4.486   4.048
 9980SOL     OW31539   6.867   4.069   4.668
 9980SOL    HW131540   6.781   4.019   4.655
 9980SOL    HW231541   6.929   4.015   4.724
 9981SOL     OW31542   6.393   4.329   5.189
 9981SOL    HW131543   6.346   4.326   5.278
 9981SOL    HW231544   6.342   4.274   5.123
 9982SOL     OW31545   6.577   4.134   4.966
 9982SOL    HW131546   6.500   4.168   5.020
 9982SOL    HW231547   6.543   4.083   4.887
 9983SOL     OW31548   6.627   4.425   4.153
 9983SOL    HW131549   6.653   4.421   4.249
 9983SOL    HW231550   6.542   4.374   4.139
 9984SOL     OW31551   5.662   4.535   4.513
 9984SOL    HW131552   5.761   4.523   4.522
 9984SOL    HW231553   5.638   4.630   4.534
 9985SOL     OW31554   5.716   5.545   5.295
 9985SOL    HW131555   5.706   5.530   5.394
 9985SOL    HW231556   5.630   5.581   5.259
 9986SOL     OW31557   6.451   4.072   3.919
 9986SOL    HW131558   6.510   4.135   3.870
 9986SOL    HW231559   6.470   3.978   3.890
 9987SOL     OW31560   6.948   4.868   4.269
 9987SOL    HW131561   7.031   4.839   4.221
 9987SOL    HW231562   6.899   4.935   4.213
 9988SOL     OW31563   6.136   3.920   4.609
 9988SOL    HW131564   6.131   3.915   4.709
 9988SOL    HW231565   6.138   4.016   4.580
 9989SOL     OW31566   6.594   5.180   4.201
 9989SOL    HW131567   6.548   5.252   4.149
 9989SOL    HW231568   6.590   5.200   4.299
 9990SOL     OW31569   5.937   5.525   4.577
 9990SOL    HW131570   5.987   5.439   4.583
 9990SOL    HW231571   6.002   5.602   4.574
 9991SOL     OW31572   6.813   5.274   5.230
 9991SOL    HW131573   6.819   5.197   5.294
 9991SOL    HW231574   6.761   5.248   5.150
 9992SOL     OW31575   5.907   4.667   3.966
 9992SOL    HW131576   5.989   4.706   3.924
 9992SOL    HW231577   5.880   4.585   3.917
 9993SOL     OW31578   6.047   4.990   5.451
 9993SOL    HW131579   5.997   4.991   5.365
 9993SOL    HW231580   5.984   4.972   5.527
 9994SOL     OW31581   6.697   5.500   3.961
 9994SOL    HW131582   6.637   5.438   4.011
 9994SOL    HW231583   6.728   5.456   3.876
 9995SOL     OW31584   5.788   4.009   5.222
 9995SOL    HW131585   5.708   4.069   5.209
 9995SOL    HW231586   5.778   3.960   5.308
 9996SOL     OW31587   6.050   5.467   4.047
 9996SOL    HW131588   6.083   5.506   4.133
 9996SOL    HW231589   6.126   5.460   3.982
 9997SOL     OW31590   5.835   5.509   4.965
 9997SOL    HW131591   5.892   5.444   5.015
 9997SOL    HW231592   5.819   5.476   4.872
 9998SOL     OW31593   6.526   5.422   4.628
 9998SOL    HW131594   6.606   5.365   4.649
 9998SOL    HW231595   6.477   5.382   4.551
 9999SOL     OW31596   5.968   4.424   4.204
 9999SOL    HW131597   6.013   4.334   4.201
 9999SOL    HW231598   5.874   4.413   4.237
10000SOL     OW31599   6.200   3.846   3.841
10000SOL    HW131600   6.298   3.824   3.848
10000SOL    HW231601   6.169   3.829   3.748
10001SOL     OW31602   6.367   3.988   5.473
10001SOL    HW131603   6.434   3.927   5.516
10001SOL    HW231604   6.294   4.007   5.538
10002SOL     OW31605   6.474   5.238   4.919
10002SOL    HW131606   6.451   5.213   4.825
10002SOL    HW231607   6.535   5.169   4.958
10003SOL     OW31608   6.389   5.126   4.648
10003SOL    HW131609   6.479   5.140   4.606
10003SOL    HW231610   6.318   5.128   4.577
10004SOL     OW31611   6.508   4.227   4.623
10004SOL    HW131612   6.483   4.218   4.527
10004SOL    HW231613   6.556   4.145   4.654
10005SOL     OW31614   6.125   3.788   4.236
10005SOL    HW131615   6.044   3.789   4.294
10005SOL    HW231616   6.128   3.871   4.181
10006SOL     OW31617   7.020   4.912   3.765
10006SOL    HW131618   7.052   4.836   3.822
10006SOL    HW231619   6.928   4.939   3.795
10007SOL     OW31620   5.883   3.759   3.895
10007SOL    HW131621   5.932   3.843   3.874
10007SOL    HW231622   5.945   3.694   3.940
10008SOL     OW31623   6.521   3.960   4.204
10008SOL    HW131624   6.473   4.001   4.126
10008SOL    HW231625   6.620   3.958   4.185
10009SOL     OW31626   6.813   5.294   4.517
10009SOL    HW131627   6.834   5.368   4.452
10009SOL    HW231628   6.881   5.294   4.590
10010SOL     OW31629   6.045   4.876   4.465
10010SOL    HW131630   5.974   4.849   4.530
10010SOL    HW231631   6.019   4.848   4.372
10011SOL     OW31632   6.857   5.521   4.315
10011SOL    HW131633   6.901   5.585   4.251
10011SOL    HW231634   6.807   5.573   4.385
10012SOL     OW31635   6.618   4.273   3.740
10012SOL    HW131636   6.577   4.355   3.701
10012SOL    HW231637   6.682   4.299   3.813
10013SOL     OW31638   5.664   4.280   5.110
10013SOL    HW131639   5.756   4.279   5.069
10013SOL    HW231640   5.658   4.354   5.177
10014SOL     OW31641   6.147   3.946   4.871
10014SOL    HW131642   6.185   3.862   4.908
10014SOL    HW231643   6.059   3.965   4.915
10015SOL     OW31644   6.452   4.178   4.366
10015SOL    HW131645   6.420   4.250   4.304
10015SOL    HW231646   6.476   4.097   4.313
10016SOL     OW31647   6.603   3.763   4.477
10016SOL    HW131648   6.531   3.768   4.408
10016SOL    HW231649   6.579   3.694   4.546
10017SOL     OW31650   6.074   5.109   3.898
10017SOL    HW131651   5.987   5.094   3.945
10017SOL    HW231652   6.057   5.135   3.803
10018SOL     OW31653   6.113   3.980   4.052
10018SOL    HW131654   6.140   3.921   3.977
10018SOL    HW231655   6.113   4.075   4.021
10019SOL     OW31656   6.650   5.071   5.064
10019SOL    HW131657   6.570   5.048   5.119
10019SOL    HW231658   6.733   5.045   5.113
10020SOL     OW31659   6.697   4.919   4.824
10020SOL    HW131660   6.657   4.963   4.905
10020SOL    HW231661   6.656   4.956   4.741
10021SOL     OW31662   6.501   3.813   5.126
10021SOL    HW131663   6.526   3.793   5.031
10021SOL    HW231664   6.573   3.869   5.168
10022SOL     OW31665   6.566   4.840   5.443
10022SOL    HW131666   6.467   4.846   5.453
10022SOL    HW231667   6.589   4.760   5.387
10023SOL     OW31668   6.291   4.774   4.092
10023SOL    HW131669   6.277   4.781   4.191
10023SOL    HW231670   6.375   4.723   4.074
10024SOL     OW31671   5.996   4.537   4.975
10024SOL    HW131672   6.082   4.549   5.025
10024SOL    HW231673   5.954   4.450   5.002
10025SOL     OW31674   6.860   4.110   4.986
10025SOL    HW131675   6.881   4.184   5.050
10025SOL    HW231676   6.771   4.127   4.943
10026SOL     OW31677   5.650   5.288   5.055
10026SOL    HW131678   5.604   5.370   5.021
10026SOL    HW231679   5.748   5.307   5.064
10027SOL     OW31680   5.953   4.824   4.225
10027SOL    HW131681   5.946   4.907   4.169
10027SOL    HW231682   5.957   4.744   4.165
10028SOL     OW31683   6.152   4.261   4.589
10028SOL    HW131684   6.164   4.327   4.515
10028SOL    HW231685   6.198   4.295   4.672
10029SOL     OW31686   6.838   5.072   4.112
10029SOL    HW131687   6.888   5.149   4.152
10029SOL    HW231688   6.743   5.074   4.144
10030SOL     OW31689   6.858   5.169   4.866
10030SOL    HW131690   6.905   5.182   4.953
10030SOL    HW231691   6.792   5.095   4.875
10031SOL     OW31692   5.940   5.234   5.053
10031SOL    HW131693   5.919   5.190   4.966
10031SOL    HW231694   6.037   5.260   5.056
10032SOL     OW31695   5.988   4.475   5.322
10032SOL    HW131696   6.056   4.530   5.275
10032SOL    HW231697   6.028   4.387   5.349
10033SOL     OW31698   6.599   3.829   5.494
10033SOL    HW131699   6.605   3.914   5.442
10033SOL    HW231700   6.631   3.753   5.437
10034SOL     OW31701   6.090   3.774   5.464
10034SOL    HW131702   6.048   3.717   5.394
10034SOL    HW231703   6.024   3.843   5.496
10035SOL     OW31704   6.159   4.594   4.753
10035SOL    HW131705   6.203   4.683   4.744
10035SOL    HW231706   6.096   4.594   4.830
10036SOL     OW31707   6.946   4.586   4.769
10036SOL    HW131708   6.871   4.586   4.703
10036SOL    HW231709   6.983   4.494   4.778
10037SOL     OW31710   6.795   4.249   3.999
10037SOL    HW131711   6.808   4.165   4.053
10037SOL    HW231712   6.766   4.323   4.059
10038SOL     OW31713   5.893   3.937   4.955
10038SOL    HW131714   5.870   3.974   5.045
10038SOL    HW231715   5.863   3.842   4.949
10039SOL     OW31716   5.623   5.034   5.006
10039SOL    HW131717   5.676   4.985   5.074
10039SOL    HW231718   5.645   5.132   5.011
10040SOL     OW31719   6.318   4.358   4.788
10040SOL    HW131720   6.377   4.332   4.712
10040SOL    HW231721   6.290   4.454   4.777
10041SOL     OW31722   5.893   3.787   4.342
10041SOL    HW131723   5.882   3.881   4.375
10041SOL    HW231724   5.888   3.724   4.419
10042SOL     OW31725   7.208   4.091   4.098
10042SOL    HW131726   7.210   4.015   4.162
10042SOL    HW231727   7.160   4.168   4.138
10043SOL     OW31728   6.609   4.490   4.690
10043SOL    HW131729   6.624   4.511   4.786
10043SOL    HW231730   6.579   4.395   4.681
10044SOL     OW31731   6.566   5.297   5.424
10044SOL    HW131732   6.546   5.341   5.336
10044SOL    HW231733   6.605   5.206   5.408
10045SOL     OW31734   5.936   4.622   5.528
10045SOL    HW131735   6.012   4.666   5.576
10045SOL    HW231736   5.971   4.575   5.446
10046SOL     OW31737   6.889   4.562   3.766
10046SOL    HW131738   6.923   4.469   3.781
10046SOL    HW231739   6.907   4.589   3.671
10047SOL     OW31740   6.654   5.057   4.573
10047SOL    HW131741   6.661   4.973   4.518
10047SOL    HW231742   6.716   5.126   4.537
10048SOL     OW31743   5.905   4.534   4.673
10048SOL    HW131744   5.998   4.570   4.678
10048SOL    HW231745   5.899   4.449   4.725
10049SOL     OW31746   5.925   4.233   4.730
10049SOL    HW131747   5.873   4.150   4.713
10049SOL    HW231748   6.002   4.238   4.666
10050SOL     OW31749   6.746   3.931   5.201
10050SOL    HW131750   6.746   3.995   5.278
10050SOL    HW231751   6.774   3.979   5.118
10051SOL     OW31752   5.594   5.050   3.924
10051SOL    HW131753   5.501   5.071   3.893
10051SOL    HW231754   5.604   4.951   3.937
10052SOL     OW31755   5.674   5.525   4.651
10052SOL    HW131756   5.632   5.439   4.624
10052SOL    HW231757   5.768   5.528   4.617
10053SOL     OW31758   6.090   5.292   4.634
10053SOL    HW131759   6.156   5.366   4.643
10053SOL    HW231760   6.134   5.213   4.592
10054SOL     OW31761   5.626   4.268   4.838
10054SOL    HW131762   5.711   4.235   4.797
10054SOL    HW231763   5.639   4.283   4.936
10055SOL     OW31764   5.775   4.244   5.446
10055SOL    HW131765   5.834   4.204   5.376
10055SOL    HW231766   5.717   4.315   5.405
10056SOL     OW31767   6.401   4.296   4.049
10056SOL    HW131768   6.408   4.207   4.003
10056SOL    HW231769   6.307   4.330   4.041
10057SOL     OW31770   5.838   5.288   5.468
10057SOL    HW131771   5.808   5.345   5.544
10057SOL    HW231772   5.831   5.191   5.494
10058SOL     OW31773   6.257   4.188   4.993
10058SOL    HW131774   6.223   4.099   4.963
10058SOL    HW231775   6.283   4.242   4.913
10059SOL     OW31776   6.516   5.402   5.189
10059SOL    HW131777   6.492   5.384   5.094
10059SOL    HW231778   6.546   5.496   5.199
10060SOL     OW31779   6.059   4.224   3.915
10060SOL    HW131780   6.120   4.304   3.919
10060SOL    HW231781   5.964   4.255   3.922
10061SOL     OW31782   5.745   4.861   5.190
10061SOL    HW131783   5.767   4.800   5.266
10061SOL    HW231784   5.755   4.812   5.104
10062SOL     OW31785   6.933   4.783   4.958
10062SOL    HW131786   6.957   4.720   4.884
10062SOL    HW231787   6.843   4.823   4.940
10063SOL     OW31788   6.888   4.579   4.033
10063SOL    HW131789   6.802   4.548   4.075
10063SOL    HW231790   6.884   4.565   3.934
10064SOL     OW31791   6.838   5.455   4.852
10064SOL    HW131792   6.922   5.460   4.798
10064SOL    HW231793   6.815   5.359   4.870
10065SOL     OW31794   5.669   4.982   4.746
10065SOL    HW131795   5.664   4.981   4.846
10065SOL    HW231796   5.586   4.941   4.708
10066SOL     OW31797   6.274   5.386   5.440
10066SOL    HW131798   6.218   5.467   5.449
10066SOL    HW231799   6.326   5.390   5.354
10067SOL     OW31800   6.974   5.297   4.201
10067SOL    HW131801   7.041   5.309   4.127
10067SOL    HW231802   6.934   5.386   4.224
10068SOL     OW31803   5.716   5.518   5.575
10068SOL    HW131804   5.675   5.444   5.628
10068SOL    HW231805   5.780   5.569   5.633
10069SOL     OW31806   6.866   4.651   4.396
10069SOL    HW131807   6.926   4.570   4.398
10069SOL    HW231808   6.906   4.720   4.336
10070SOL     OW31809   6.416   4.997   5.146
10070SOL    HW131810   6.411   5.030   5.241
10070SOL    HW231811   6.330   5.016   5.100
10071SOL     OW31812   6.258   5.340   3.878
10071SOL    HW131813   6.267   5.350   3.779
10071SOL    HW231814   6.218   5.251   3.899
10072SOL     OW31815   5.849   4.050   4.444
10072SOL    HW131816   5.770   4.101   4.410
10072SOL    HW231817   5.840   4.035   4.542
10073SOL     OW31818   6.780   5.336   3.755
10073SOL    HW131819   6.786   5.243   3.792
10073SOL    HW231820   6.721   5.336   3.675
10074SOL     OW31821   6.408   4.726   5.096
10074SOL    HW131822   6.448   4.725   5.004
10074SOL    HW231823   6.418   4.818   5.136
10075SOL     OW31824   6.502   4.634   4.015
10075SOL    HW131825   6.565   4.672   3.947
10075SOL    HW231826   6.542   4.551   4.054
10076SOL     OW31827   5.958   5.012   5.214
10076SOL    HW131828   5.945   5.105   5.180
10076SOL    HW231829   5.874   4.960   5.201
10077SOL     OW31830   6.625   4.822   4.420
10077SOL    HW131831   6.555   4.775   4.474
10077SOL    HW231832   6.684   4.754   4.377
10078SOL     OW31833   6.600   3.960   4.695
10078SOL    HW131834   6.592   3.924   4.602
10078SOL    HW231835   6.598   3.884   4.760
10079SOL     OW31836   6.176   5.211   4.215
10079SOL    HW131837   6.218   5.153   4.145
10079SOL    HW231838   6.132   5.290   4.171
10080SOL     OW31839   5.841   5.072   4.014
10080SOL    HW131840   5.745   5.073   3.987
10080SOL    HW231841   5.853   5.125   4.098
10081SOL     OW31842   6.258   3.927   5.213
10081SOL    HW131843   6.348   3.911   5.173
10081SOL    HW231844   6.266   3.932   5.312
10082SOL     OW31845   5.661   4.069   3.757
10082SOL    HW131846   5.569   4.041   3.728
10082SOL    HW231847   5.692   4.146   3.701
10083SOL     OW31848   5.658   3.890   4.042
10083SOL    HW131849   5.641   3.973   3.988
10083SOL    HW231850   5.748   3.853   4.020
10084SOL     OW31851   6.199   4.566   5.155
10084SOL    HW131852   6.255   4.647   5.138
10084SOL    HW231853   6.258   4.486   5.158
10085SOL     OW31854   6.302   4.289   5.432
10085SOL    HW131855   6.321   4.354   5.506
10085SOL    HW231856   6.362   4.209   5.441
10086SOL     OW31857   7.036   4.944   5.357
10086SOL    HW131858   7.027   4.934   5.456
10086SOL    HW231859   7.132   4.937   5.331
10087SOL     OW31860   5.976   5.465   5.284
10087SOL    HW131861   5.885   5.506   5.282
10087SOL    HW231862   5.969   5.371   5.316
10088SOL     OW31863   6.811   4.049   4.173
10088SOL    HW131864   6.876   3.975   4.162
10088SOL    HW231865   6.831   4.099   4.257
10089SOL     OW31866   6.180   4.469   4.376
10089SOL    HW131867   6.230   4.554   4.357
10089SOL    HW231868   6.092   4.471   4.328
10090SOL     OW31869   6.445   5.098   3.740
10090SOL    HW131870   6.399   5.113   3.828
10090SOL    HW231871   6.489   5.183   3.710
10091SOL     OW31872   6.247   5.514   4.677
10091SOL    HW131873   6.201   5.602   4.664
10091SOL    HW231874   6.346   5.526   4.670
10092SOL     OW31875   6.445   4.680   4.585
10092SOL    HW131876   6.499   4.611   4.633
10092SOL    HW231877   6.413   4.749   4.651
10093SOL     OW31878   6.669   4.708   3.811
10093SOL    HW131879   6.646   4.761   3.729
10093SOL    HW231880   6.750   4.652   3.792
10094SOL     OW31881   5.807   5.038   5.568
10094SOL    HW131882   5.742   4.965   5.547
10094SOL    HW231883   5.811   5.052   5.666
10095SOL     OW31884   5.665   4.964   4.377
10095SOL    HW131885   5.664   4.917   4.465
10095SOL    HW231886   5.747   4.936   4.326
10096SOL     OW31887   6.258   5.115   5.348
10096SOL    HW131888   6.180   5.065   5.386
10096SOL    HW231889   6.255   5.210   5.379
10097SOL     OW31890   6.014   4.148   4.244
10097SOL    HW131891   6.044   4.076   4.182
10097SOL    HW231892   5.975   4.108   4.327
10098SOL     OW31893   5.903   4.271   5.004
10098SOL    HW131894   5.941   4.212   5.076
10098SOL    HW231895   5.943   4.245   4.916
10099SOL     OW31896   6.398   5.310   4.411
10099SOL    HW131897   6.430   5.320   4.317
10099SOL    HW231898   6.319   5.248   4.413
10100SOL     OW31899   7.010   3.938   4.836
10100SOL    HW131900   7.062   3.873   4.891
10100SOL    HW231901   6.961   4.001   4.897
10101SOL     OW31902   6.587   3.758   4.878
10101SOL    HW131903   6.524   3.686   4.847
10101SOL    HW231904   6.680   3.722   4.878
10102SOL     OW31905   6.356   5.054   4.025
10102SOL    HW131906   6.310   4.967   4.042
10102SOL    HW231907   6.447   5.051   4.066
10103SOL     OW31908   6.204   5.291   5.008
10103SOL    HW131909   6.199   5.373   5.065
10103SOL    HW231910   6.293   5.288   4.963
10104SOL     OW31911   6.938   3.776   3.892
10104SOL    HW131912   6.973   3.735   3.808
10104SOL    HW231913   6.848   3.738   3.912
10105SOL     OW31914   5.625   4.801   4.024
10105SOL    HW131915   5.724   4.790   4.015
10105SOL    HW231916   5.585   4.715   4.056
10106SOL     OW31917   6.461   5.370   4.061
10106SOL    HW131918   6.384   5.335   4.007
10106SOL    HW231919   6.429   5.441   4.123
10107SOL     OW31920   5.816   4.352   5.699
10107SOL    HW131921   5.723   4.350   5.736
10107SOL    HW231922   5.817   4.313   5.607
10108SOL     OW31923   5.811   3.999   6.582
10108SOL    HW131924   5.846   3.982   6.674
10108SOL    HW231925   5.723   3.954   6.570
10109SOL     OW31926   5.605   4.092   6.233
10109SOL    HW131927   5.523   4.135   6.272
10109SOL    HW231928   5.577   4.019   6.170
10110SOL     OW31929   6.155   4.999   6.751
10110SOL    HW131930   6.062   4.992   6.714
10110SOL    HW231931   6.166   5.088   6.795
10111SOL     OW31932   7.141   5.235   6.289
10111SOL    HW131933   7.084   5.219   6.370
10111SOL    HW231934   7.082   5.245   6.209
10112SOL     OW31935   6.721   4.427   6.303
10112SOL    HW131936   6.778   4.505   6.278
10112SOL    HW231937   6.661   4.453   6.379
10113SOL     OW31938   6.354   4.868   6.609
10113SOL    HW131939   6.276   4.885   6.669
10113SOL    HW231940   6.388   4.955   6.573
10114SOL     OW31941   5.921   5.159   6.647
10114SOL    HW131942   5.843   5.128   6.594
10114SOL    HW231943   5.979   5.217   6.590
10115SOL     OW31944   5.817   5.437   6.069
10115SOL    HW131945   5.851   5.514   6.123
10115SOL    HW231946   5.861   5.437   5.979
10116SOL     OW31947   5.826   4.815   6.472
10116SOL    HW131948   5.840   4.731   6.524
10116SOL    HW231949   5.771   4.879   6.527
10117SOL     OW31950   6.206   5.510   7.025
10117SOL    HW131951   6.114   5.493   7.060
10117SOL    HW231952   6.234   5.602   7.051
10118SOL     OW31953   6.192   4.688   5.709
10118SOL    HW131954   6.199   4.772   5.655
10118SOL    HW231955   6.238   4.701   5.797
10119SOL     OW31956   7.180   3.838   7.066
10119SOL    HW131957   7.162   3.905   6.994
10119SOL    HW231958   7.177   3.884   7.155
10120SOL     OW31959   5.708   4.367   6.149
10120SOL    HW131960   5.663   4.279   6.166
10120SOL    HW231961   5.707   4.421   6.233
10121SOL     OW31962   5.613   5.320   5.703
10121SOL    HW131963   5.594   5.224   5.724
10121SOL    HW231964   5.580   5.378   5.778
10122SOL     OW31965   6.199   5.089   6.312
10122SOL    HW131966   6.150   5.002   6.321
10122SOL    HW231967   6.176   5.132   6.225
10123SOL     OW31968   6.879   4.952   7.009
10123SOL    HW131969   6.916   4.879   6.951
10123SOL    HW231970   6.931   4.957   7.094
10124SOL     OW31971   6.395   3.728   6.088
10124SOL    HW131972   6.435   3.819   6.079
10124SOL    HW231973   6.295   3.736   6.094
10125SOL     OW31974   5.783   4.700   6.850
10125SOL    HW131975   5.872   4.655   6.836
10125SOL    HW231976   5.710   4.635   6.831
10126SOL     OW31977   6.867   4.069   6.530
10126SOL    HW131978   6.781   4.019   6.517
10126SOL    HW231979   6.929   4.015   6.586
10127SOL     OW31980   6.393   4.329   7.051
10127SOL    HW131981   6.346   4.326   7.140
10127SOL    HW231982   6.342   4.274   6.985
10128SOL     OW31983   6.577   4.134   6.828
10128SOL    HW131984   6.500   4.168   6.882
10128SOL    HW231985   6.543   4.083   6.749
10129SOL     OW31986   6.627   4.425   6.015
10129SOL    HW131987   6.653   4.421   6.111
10129SOL    HW231988   6.542   4.374   6.001
10130SOL     OW31989   5.716   5.545   7.157
10130SOL    HW131990   5.706   5.530   7.256
10130SOL    HW231991   5.630   5.581   7.121
10131SOL     OW31992   6.451   4.072   5.781
10131SOL    HW131993   6.510   4.135   5.732
10131SOL    HW231994   6.470   3.978   5.752
10132SOL     OW31995   6.948   4.868   6.131
10132SOL    HW131996   7.031   4.839   6.083
10132SOL    HW231997   6.899   4.935   6.075
10133SOL     OW31998   6.136   3.920   6.471
10133SOL    HW131999   6.131   3.915   6.571
10133SOL    HW232000   6.138   4.016   6.442
10134SOL     OW32001   6.594   5.180   6.063
10134SOL    HW132002   6.548   5.252   6.011
10134SOL    HW232003   6.590   5.200   6.161
10135SOL     OW32004   5.937   5.525   6.439
10135SOL    HW132005   5.987   5.439   6.445
10135SOL    HW232006   6.002   5.602   6.436
10136SOL     OW32007   5.907   4.667   5.828
10136SOL    HW132008   5.989   4.706   5.786
10136SOL    HW232009   5.880   4.585   5.779
10137SOL     OW32010   6.697   5.500   5.823
10137SOL    HW132011   6.637   5.438   5.873
10137SOL    HW232012   6.728   5.456   5.738
10138SOL     OW32013   6.050   5.467   5.909
10138SOL    HW132014   6.083   5.506   5.995
10138SOL    HW232015   6.126   5.460   5.844
10139SOL     OW32016   5.835   5.509   6.827
10139SOL    HW132017   5.892   5.444   6.877
10139SOL    HW232018   5.819   5.476   6.734
10140SOL     OW32019   6.526   5.422   6.490
10140SOL    HW132020   6.606   5.365   6.511
10140SOL    HW232021   6.477   5.382   6.413
10141SOL     OW32022   6.200   3.846   5.703
10141SOL    HW132023   6.298   3.824   5.710
10141SOL    HW232024   6.169   3.829   5.610
10142SOL     OW32025   6.474   5.238   6.781
10142SOL    HW132026   6.451   5.213   6.687
10142SOL    HW232027   6.535   5.169   6.820
10143SOL     OW32028   6.389   5.126   6.510
10143SOL    HW132029   6.479   5.140   6.468
10143SOL    HW232030   6.318   5.128   6.439
10144SOL     OW32031   6.508   4.227   6.485
10144SOL    HW132032   6.483   4.218   6.389
10144SOL    HW232033   6.556   4.145   6.516
10145SOL     OW32034   6.125   3.788   6.098
10145SOL    HW132035   6.044   3.789   6.156
10145SOL    HW232036   6.128   3.871   6.043
10146SOL     OW32037   7.020   4.912   5.627
10146SOL    HW132038   7.052   4.836   5.684
10146SOL    HW232039   6.928   4.939   5.657
10147SOL     OW32040   5.883   3.759   5.757
10147SOL    HW132041   5.932   3.843   5.736
10147SOL    HW232042   5.945   3.694   5.802
10148SOL     OW32043   6.521   3.960   6.066
10148SOL    HW132044   6.473   4.001   5.988
10148SOL    HW232045   6.620   3.958   6.047
10149SOL     OW32046   6.813   5.294   6.379
10149SOL    HW132047   6.834   5.368   6.314
10149SOL    HW232048   6.881   5.294   6.452
10150SOL     OW32049   6.857   5.521   6.177
10150SOL    HW132050   6.901   5.585   6.113
10150SOL    HW232051   6.807   5.573   6.247
10151SOL     OW32052   6.147   3.946   6.733
10151SOL    HW132053   6.185   3.862   6.770
10151SOL    HW232054   6.059   3.965   6.777
10152SOL     OW32055   6.452   4.178   6.228
10152SOL    HW132056   6.420   4.250   6.166
10152SOL    HW232057   6.476   4.097   6.175
10153SOL     OW32058   6.603   3.763   6.339
10153SOL    HW132059   6.531   3.768   6.270
10153SOL    HW232060   6.579   3.694   6.408
10154SOL     OW32061   6.074   5.109   5.760
10154SOL    HW132062   5.987   5.094   5.807
10154SOL    HW232063   6.057   5.135   5.665
10155SOL     OW32064   6.113   3.980   5.914
10155SOL    HW132065   6.140   3.921   5.839
10155SOL    HW232066   6.113   4.075   5.883
10156SOL     OW32067   7.178   5.353   7.211
10156SOL    HW132068   7.205   5.387   7.121
10156SOL    HW232069   7.257   5.315   7.257
10157SOL     OW32070   6.697   4.919   6.686
10157SOL    HW132071   6.657   4.963   6.767
10157SOL    HW232072   6.656   4.956   6.603
10158SOL     OW32073   6.291   4.774   5.954
10158SOL    HW132074   6.277   4.781   6.053
10158SOL    HW232075   6.375   4.723   5.936
10159SOL     OW32076   5.996   4.537   6.837
10159SOL    HW132077   6.082   4.549   6.887
10159SOL    HW232078   5.954   4.450   6.864
10160SOL     OW32079   6.860   4.110   6.848
10160SOL    HW132080   6.881   4.184   6.912
10160SOL    HW232081   6.771   4.127   6.805
10161SOL     OW32082   5.650   5.288   6.917
10161SOL    HW132083   5.604   5.370   6.883
10161SOL    HW232084   5.748   5.307   6.926
10162SOL     OW32085   6.152   4.261   6.451
10162SOL    HW132086   6.164   4.327   6.377
10162SOL    HW232087   6.198   4.295   6.534
10163SOL     OW32088   6.838   5.072   5.974
10163SOL    HW132089   6.888   5.149   6.014
10163SOL    HW232090   6.743   5.074   6.006
10164SOL     OW32091   6.858   5.169   6.728
10164SOL    HW132092   6.905   5.182   6.815
10164SOL    HW232093   6.792   5.095   6.737
10165SOL     OW32094   5.940   5.234   6.915
10165SOL    HW132095   5.919   5.190   6.828
10165SOL    HW232096   6.037   5.260   6.918
10166SOL     OW32097   6.159   4.594   6.615
10166SOL    HW132098   6.203   4.683   6.606
10166SOL    HW232099   6.096   4.594   6.692
10167SOL     OW32100   6.946   4.586   6.631
10167SOL    HW132101   6.871   4.586   6.565
10167SOL    HW232102   6.983   4.494   6.640
10168SOL     OW32103   5.893   3.937   6.817
10168SOL    HW132104   5.870   3.974   6.907
10168SOL    HW232105   5.863   3.842   6.811
10169SOL     OW32106   5.623   5.034   6.868
10169SOL    HW132107   5.676   4.985   6.936
10169SOL    HW232108   5.645   5.132   6.873
10170SOL     OW32109   6.318   4.358   6.650
10170SOL    HW132110   6.377   4.332   6.574
10170SOL    HW232111   6.290   4.454   6.639
10171SOL     OW32112   5.893   3.787   6.204
10171SOL    HW132113   5.882   3.881   6.237
10171SOL    HW232114   5.888   3.724   6.281
10172SOL     OW32115   7.208   4.091   5.960
10172SOL    HW132116   7.210   4.015   6.024
10172SOL    HW232117   7.160   4.168   6.000
10173SOL     OW32118   6.609   4.490   6.552
10173SOL    HW132119   6.624   4.511   6.648
10173SOL    HW232120   6.579   4.395   6.543
10174SOL     OW32121   6.889   4.562   5.628
10174SOL    HW132122   6.923   4.469   5.643
10174SOL    HW232123   6.907   4.589   5.533
10175SOL     OW32124   6.654   5.057   6.435
10175SOL    HW132125   6.661   4.973   6.380
10175SOL    HW232126   6.716   5.126   6.399
10176SOL     OW32127   5.905   4.534   6.535
10176SOL    HW132128   5.998   4.570   6.540
10176SOL    HW232129   5.899   4.449   6.587
10177SOL     OW32130   5.925   4.233   6.592
10177SOL    HW132131   5.873   4.150   6.575
10177SOL    HW232132   6.002   4.238   6.528
10178SOL     OW32133   6.746   3.931   7.063
10178SOL    HW132134   6.746   3.995   7.140
10178SOL    HW232135   6.774   3.979   6.980
10179SOL     OW32136   5.674   5.525   6.513
10179SOL    HW132137   5.632   5.439   6.486
10179SOL    HW232138   5.768   5.528   6.479
10180SOL     OW32139   6.090   5.292   6.496
10180SOL    HW132140   6.156   5.366   6.505
10180SOL    HW232141   6.134   5.213   6.454
10181SOL     OW32142   6.588   4.520   6.824
10181SOL    HW132143   6.629   4.488   6.910
10181SOL    HW232144   6.492   4.493   6.821
10182SOL     OW32145   5.626   4.268   6.700
10182SOL    HW132146   5.711   4.235   6.659
10182SOL    HW232147   5.639   4.283   6.798
10183SOL     OW32148   6.401   4.296   5.911
10183SOL    HW132149   6.408   4.207   5.865
10183SOL    HW232150   6.307   4.330   5.903
10184SOL     OW32151   6.257   4.188   6.855
10184SOL    HW132152   6.223   4.099   6.825
10184SOL    HW232153   6.283   4.242   6.775
10185SOL     OW32154   6.516   5.402   7.051
10185SOL    HW132155   6.492   5.384   6.956
10185SOL    HW232156   6.546   5.496   7.061
10186SOL     OW32157   6.059   4.224   5.777
10186SOL    HW132158   6.120   4.304   5.781
10186SOL    HW232159   5.964   4.255   5.784
10187SOL     OW32160   5.745   4.861   7.052
10187SOL    HW132161   5.767   4.800   7.128
10187SOL    HW232162   5.755   4.812   6.966
10188SOL     OW32163   6.933   4.783   6.820
10188SOL    HW132164   6.957   4.720   6.746
10188SOL    HW232165   6.843   4.823   6.802
10189SOL     OW32166   6.888   4.579   5.895
10189SOL    HW132167   6.802   4.548   5.937
10189SOL    HW232168   6.884   4.565   5.796
10190SOL     OW32169   5.669   4.982   6.608
10190SOL    HW132170   5.664   4.981   6.708
10190SOL    HW232171   5.586   4.941   6.570
10191SOL     OW32172   6.974   5.297   6.063
10191SOL    HW132173   7.041   5.309   5.989
10191SOL    HW232174   6.934   5.386   6.086
10192SOL     OW32175   6.866   4.651   6.258
10192SOL    HW132176   6.926   4.570   6.260
10192SOL    HW232177   6.906   4.720   6.198
10193SOL     OW32178   6.258   5.340   5.740
10193SOL    HW132179   6.267   5.350   5.641
10193SOL    HW232180   6.218   5.251   5.761
10194SOL     OW32181   5.849   4.050   6.306
10194SOL    HW132182   5.770   4.101   6.272
10194SOL    HW232183   5.840   4.035   6.404
10195SOL     OW32184   6.780   5.336   5.617
10195SOL    HW132185   6.786   5.243   5.654
10195SOL    HW232186   6.721   5.336   5.537
10196SOL     OW32187   6.408   4.726   6.958
10196SOL    HW132188   6.448   4.725   6.866
10196SOL    HW232189   6.418   4.818   6.998
10197SOL     OW32190   6.502   4.634   5.877
10197SOL    HW132191   6.565   4.672   5.809
10197SOL    HW232192   6.542   4.551   5.916
10198SOL     OW32193   6.625   4.822   6.282
10198SOL    HW132194   6.555   4.775   6.336
10198SOL    HW232195   6.684   4.754   6.239
10199SOL     OW32196   6.600   3.960   6.557
10199SOL    HW132197   6.592   3.924   6.464
10199SOL    HW232198   6.598   3.884   6.622
10200SOL     OW32199   6.176   5.211   6.077
10200SOL    HW132200   6.218   5.153   6.007
10200SOL    HW232201   6.132   5.290   6.033
10201SOL     OW32202   5.841   5.072   5.876
10201SOL    HW132203   5.745   5.073   5.849
10201SOL    HW232204   5.853   5.125   5.960
10202SOL     OW32205   6.258   3.927   7.075
10202SOL    HW132206   6.348   3.911   7.035
10202SOL    HW232207   6.266   3.932   7.174
10203SOL     OW32208   5.661   4.069   5.619
10203SOL    HW132209   5.569   4.041   5.590
10203SOL    HW232210   5.692   4.146   5.563
10204SOL     OW32211   5.658   3.890   5.904
10204SOL    HW132212   5.641   3.973   5.850
10204SOL    HW232213   5.748   3.853   5.882
10205SOL     OW32214   5.976   5.465   7.146
10205SOL    HW132215   5.885   5.506   7.144
10205SOL    HW232216   5.969   5.371   7.178
10206SOL     OW32217   6.445   5.098   5.602
10206SOL    HW132218   6.399   5.113   5.690
10206SOL    HW232219   6.489   5.183   5.572
10207SOL     OW32220   6.247   5.514   6.539
10207SOL    HW132221   6.201   5.602   6.526
10207SOL    HW232222   6.346   5.526   6.532
10208SOL     OW32223   6.445   4.680   6.447
10208SOL    HW132224   6.499   4.611   6.495
10208SOL    HW232225   6.413   4.749   6.513
10209SOL     OW32226   6.669   4.708   5.673
10209SOL    HW132227   6.646   4.761   5.591
10209SOL    HW232228   6.750   4.652   5.654
10210SOL     OW32229   6.014   4.148   6.106
10210SOL    HW132230   6.044   4.076   6.044
10210SOL    HW232231   5.975   4.108   6.189
10211SOL     OW32232   5.903   4.271   6.866
10211SOL    HW132233   5.941   4.212   6.938
10211SOL    HW232234   5.943   4.245   6.778
10212SOL     OW32235   6.398   5.310   6.273
10212SOL    HW132236   6.430   5.320   6.179
10212SOL    HW232237   6.319   5.248   6.275
10213SOL     OW32238   7.010   3.938   6.698
10213SOL    HW132239   7.062   3.873   6.753
10213SOL    HW232240   6.961   4.001   6.759
10214SOL     OW32241   6.587   3.758   6.740
10214SOL    HW132242   6.524   3.686   6.709
10214SOL    HW232243   6.680   3.722   6.740
10215SOL     OW32244   6.356   5.054   5.887
10215SOL    HW132245   6.310   4.967   5.904
10215SOL    HW232246   6.447   5.051   5.928
10216SOL     OW32247   6.204   5.291   6.870
10216SOL    HW132248   6.199   5.373   6.927
10216SOL    HW232249   6.293   5.288   6.825
10217SOL     OW32250   6.461   5.370   5.923
10217SOL    HW132251   6.384   5.335   5.869
10217SOL    HW232252   6.429   5.441   5.985
10218SOL     OW32253   5.816   6.214   0.113
10218SOL    HW132254   5.723   6.212   0.150
10218SOL    HW232255   5.817   6.175   0.021
10219SOL     OW32256   5.811   5.861   0.996
10219SOL    HW132257   5.846   5.844   1.088
10219SOL    HW232258   5.723   5.816   0.984
10220SOL     OW32259   5.605   5.954   0.647
10220SOL    HW132260   5.523   5.997   0.686
10220SOL    HW232261   5.577   5.881   0.584
10221SOL     OW32262   6.155   6.861   1.165
10221SOL    HW132263   6.062   6.854   1.128
10221SOL    HW232264   6.166   6.950   1.209
10222SOL     OW32265   7.141   7.097   0.703
10222SOL    HW132266   7.084   7.081   0.784
10222SOL    HW232267   7.082   7.107   0.623
10223SOL     OW32268   6.721   6.289   0.717
10223SOL    HW132269   6.778   6.367   0.692
10223SOL    HW232270   6.661   6.315   0.793
10224SOL     OW32271   6.354   6.730   1.023
10224SOL    HW132272   6.276   6.747   1.083
10224SOL    HW232273   6.388   6.817   0.987
10225SOL     OW32274   6.436   6.384   1.823
10225SOL    HW132275   6.432   6.460   1.888
10225SOL    HW232276   6.458   6.420   1.732
10226SOL     OW32277   6.271   6.598   0.665
10226SOL    HW132278   6.340   6.582   0.735
10226SOL    HW232279   6.198   6.655   0.703
10227SOL     OW32280   6.272   6.747   1.803
10227SOL    HW132281   6.332   6.826   1.817
10227SOL    HW232282   6.186   6.778   1.762
10228SOL     OW32283   5.921   7.021   1.061
10228SOL    HW132284   5.843   6.990   1.008
10228SOL    HW232285   5.979   7.079   1.004
10229SOL     OW32286   6.024   5.978   1.499
10229SOL    HW132287   6.106   5.922   1.508
10229SOL    HW232288   5.943   5.920   1.503
10230SOL     OW32289   5.826   6.677   0.886
10230SOL    HW132290   5.840   6.593   0.938
10230SOL    HW232291   5.771   6.741   0.941
10231SOL     OW32292   6.192   6.550   0.123
10231SOL    HW132293   6.199   6.634   0.069
10231SOL    HW232294   6.238   6.563   0.211
10232SOL     OW32295   5.708   6.229   0.563
10232SOL    HW132296   5.663   6.141   0.580
10232SOL    HW232297   5.707   6.283   0.647
10233SOL     OW32298   5.699   6.323   1.597
10233SOL    HW132299   5.787   6.310   1.642
10233SOL    HW232300   5.686   6.420   1.575
10234SOL     OW32301   6.879   6.814   1.423
10234SOL    HW132302   6.916   6.741   1.365
10234SOL    HW232303   6.931   6.819   1.508
10235SOL     OW32304   5.783   6.562   1.264
10235SOL    HW132305   5.872   6.517   1.250
10235SOL    HW232306   5.710   6.497   1.245
10236SOL     OW32307   5.903   5.837   1.801
10236SOL    HW132308   5.974   5.908   1.807
10236SOL    HW232309   5.815   5.876   1.829
10237SOL     OW32310   6.184   6.315   0.270
10237SOL    HW132311   6.208   6.384   0.202
10237SOL    HW232312   6.106   6.348   0.324
10238SOL     OW32313   6.867   5.931   0.944
10238SOL    HW132314   6.781   5.881   0.931
10238SOL    HW232315   6.929   5.877   1.000
10239SOL     OW32316   6.393   6.191   1.465
10239SOL    HW132317   6.346   6.188   1.554
10239SOL    HW232318   6.342   6.136   1.399
10240SOL     OW32319   6.980   6.055   1.674
10240SOL    HW132320   6.960   6.098   1.762
10240SOL    HW232321   7.058   5.993   1.683
10241SOL     OW32322   6.559   6.476   1.572
10241SOL    HW132323   6.605   6.392   1.543
10241SOL    HW232324   6.503   6.510   1.497
10242SOL     OW32325   6.577   5.996   1.242
10242SOL    HW132326   6.500   6.030   1.296
10242SOL    HW232327   6.543   5.945   1.163
10243SOL     OW32328   6.627   6.287   0.429
10243SOL    HW132329   6.653   6.283   0.525
10243SOL    HW232330   6.542   6.236   0.415
10244SOL     OW32331   5.662   6.397   0.789
10244SOL    HW132332   5.761   6.385   0.798
10244SOL    HW232333   5.638   6.492   0.810
10245SOL     OW32334   6.948   6.730   0.545
10245SOL    HW132335   7.031   6.701   0.497
10245SOL    HW232336   6.899   6.797   0.489
10246SOL     OW32337   6.136   5.782   0.885
10246SOL    HW132338   6.131   5.777   0.985
10246SOL    HW232339   6.138   5.878   0.856
10247SOL     OW32340   5.907   6.529   0.242
10247SOL    HW132341   5.989   6.568   0.200
10247SOL    HW232342   5.880   6.447   0.193
10248SOL     OW32343   5.788   5.871   1.498
10248SOL    HW132344   5.708   5.931   1.485
10248SOL    HW232345   5.778   5.822   1.584
10249SOL     OW32346   5.968   6.286   0.480
10249SOL    HW132347   6.013   6.196   0.477
10249SOL    HW232348   5.874   6.275   0.513
10250SOL     OW32349   6.367   5.850   1.749
10250SOL    HW132350   6.434   5.789   1.792
10250SOL    HW232351   6.294   5.869   1.814
10251SOL     OW32352   6.508   6.089   0.899
10251SOL    HW132353   6.483   6.080   0.803
10251SOL    HW232354   6.556   6.007   0.930
10252SOL     OW32355   6.521   5.822   0.480
10252SOL    HW132356   6.473   5.863   0.402
10252SOL    HW232357   6.620   5.820   0.461
10253SOL     OW32358   6.662   6.269   1.464
10253SOL    HW132359   6.582   6.208   1.467
10253SOL    HW232360   6.743   6.216   1.440
10254SOL     OW32361   6.813   7.156   0.793
10254SOL    HW132362   6.834   7.230   0.728
10254SOL    HW232363   6.881   7.156   0.866
10255SOL     OW32364   6.045   6.738   0.741
10255SOL    HW132365   5.974   6.711   0.806
10255SOL    HW232366   6.019   6.710   0.648
10256SOL     OW32367   5.664   6.142   1.386
10256SOL    HW132368   5.756   6.141   1.345
10256SOL    HW232369   5.658   6.216   1.453
10257SOL     OW32370   6.147   5.808   1.147
10257SOL    HW132371   6.185   5.724   1.184
10257SOL    HW232372   6.059   5.827   1.191
10258SOL     OW32373   6.452   6.040   0.642
10258SOL    HW132374   6.420   6.112   0.580
10258SOL    HW232375   6.476   5.959   0.589
10259SOL     OW32376   6.603   5.625   0.753
10259SOL    HW132377   6.531   5.630   0.684
10259SOL    HW232378   6.579   5.556   0.822
10260SOL     OW32379   6.650   6.933   1.340
10260SOL    HW132380   6.570   6.910   1.395
10260SOL    HW232381   6.733   6.907   1.389
10261SOL     OW32382   6.697   6.781   1.100
10261SOL    HW132383   6.657   6.825   1.181
10261SOL    HW232384   6.656   6.818   1.017
10262SOL     OW32385   6.501   5.675   1.402
10262SOL    HW132386   6.526   5.655   1.307
10262SOL    HW232387   6.573   5.731   1.444
10263SOL     OW32388   6.566   6.702   1.719
10263SOL    HW132389   6.467   6.708   1.729
10263SOL    HW232390   6.589   6.622   1.663
10264SOL     OW32391   6.291   6.636   0.368
10264SOL    HW132392   6.277   6.643   0.467
10264SOL    HW232393   6.375   6.585   0.350
10265SOL     OW32394   5.996   6.399   1.251
10265SOL    HW132395   6.082   6.411   1.301
10265SOL    HW232396   5.954   6.312   1.278
10266SOL     OW32397   6.860   5.972   1.262
10266SOL    HW132398   6.881   6.046   1.326
10266SOL    HW232399   6.771   5.989   1.219
10267SOL     OW32400   5.953   6.686   0.501
10267SOL    HW132401   5.946   6.769   0.445
10267SOL    HW232402   5.957   6.606   0.441
10268SOL     OW32403   6.152   6.123   0.865
10268SOL    HW132404   6.164   6.189   0.791
10268SOL    HW232405   6.198   6.157   0.948
10269SOL     OW32406   6.838   6.934   0.388
10269SOL    HW132407   6.888   7.011   0.428
10269SOL    HW232408   6.743   6.936   0.420
10270SOL     OW32409   5.988   6.337   1.598
10270SOL    HW132410   6.056   6.392   1.551
10270SOL    HW232411   6.028   6.249   1.625
10271SOL     OW32412   6.599   5.691   1.770
10271SOL    HW132413   6.605   5.776   1.718
10271SOL    HW232414   6.631   5.615   1.713
10272SOL     OW32415   6.090   5.636   1.740
10272SOL    HW132416   6.048   5.579   1.670
10272SOL    HW232417   6.024   5.705   1.772
10273SOL     OW32418   6.159   6.456   1.029
10273SOL    HW132419   6.203   6.545   1.020
10273SOL    HW232420   6.096   6.456   1.106
10274SOL     OW32421   6.946   6.448   1.045
10274SOL    HW132422   6.871   6.448   0.979
10274SOL    HW232423   6.983   6.356   1.054
10275SOL     OW32424   6.795   6.111   0.275
10275SOL    HW132425   6.808   6.027   0.329
10275SOL    HW232426   6.766   6.185   0.335
10276SOL     OW32427   5.893   5.799   1.231
10276SOL    HW132428   5.870   5.836   1.321
10276SOL    HW232429   5.863   5.704   1.225
10277SOL     OW32430   5.623   6.896   1.282
10277SOL    HW132431   5.676   6.847   1.350
10277SOL    HW232432   5.645   6.994   1.287
10278SOL     OW32433   6.318   6.220   1.064
10278SOL    HW132434   6.377   6.194   0.988
10278SOL    HW232435   6.290   6.316   1.053
10279SOL     OW32436   5.893   5.649   0.618
10279SOL    HW132437   5.882   5.743   0.651
10279SOL    HW232438   5.888   5.586   0.695
10280SOL     OW32439   7.208   5.953   0.374
10280SOL    HW132440   7.210   5.877   0.438
10280SOL    HW232441   7.160   6.030   0.414
10281SOL     OW32442   6.609   6.352   0.966
10281SOL    HW132443   6.624   6.373   1.062
10281SOL    HW232444   6.579   6.257   0.957
10282SOL     OW32445   5.936   6.484   1.804
10282SOL    HW132446   6.012   6.528   1.852
10282SOL    HW232447   5.971   6.437   1.722
10283SOL     OW32448   6.889   6.424   0.042
10283SOL    HW132449   6.923   6.331   0.057
10283SOL    HW232450   6.907   6.451  -0.053
10284SOL     OW32451   5.905   6.396   0.949
10284SOL    HW132452   5.998   6.432   0.954
10284SOL    HW232453   5.899   6.311   1.001
10285SOL     OW32454   5.925   6.095   1.006
10285SOL    HW132455   5.873   6.012   0.989
10285SOL    HW232456   6.002   6.100   0.942
10286SOL     OW32457   6.724   5.966   1.678
10286SOL    HW132458   6.679   6.029   1.742
10286SOL    HW232459   6.817   5.997   1.661
10287SOL     OW32460   6.746   5.793   1.477
10287SOL    HW132461   6.746   5.857   1.554
10287SOL    HW232462   6.774   5.841   1.394
10288SOL     OW32463   6.588   6.382   1.238
10288SOL    HW132464   6.629   6.350   1.324
10288SOL    HW232465   6.492   6.355   1.235
10289SOL     OW32466   5.626   6.130   1.114
10289SOL    HW132467   5.711   6.097   1.073
10289SOL    HW232468   5.639   6.145   1.212
10290SOL     OW32469   5.775   6.106   1.722
10290SOL    HW132470   5.834   6.066   1.652
10290SOL    HW232471   5.717   6.177   1.681
10291SOL     OW32472   6.401   6.158   0.325
10291SOL    HW132473   6.408   6.069   0.279
10291SOL    HW232474   6.307   6.192   0.317
10292SOL     OW32475   6.257   6.050   1.269
10292SOL    HW132476   6.223   5.961   1.239
10292SOL    HW232477   6.283   6.104   1.189
10293SOL     OW32478   5.745   6.723   1.466
10293SOL    HW132479   5.767   6.662   1.542
10293SOL    HW232480   5.755   6.674   1.380
10294SOL     OW32481   6.933   6.645   1.234
10294SOL    HW132482   6.957   6.582   1.160
10294SOL    HW232483   6.843   6.685   1.216
10295SOL     OW32484   6.888   6.441   0.309
10295SOL    HW132485   6.802   6.410   0.351
10295SOL    HW232486   6.884   6.427   0.210
10296SOL     OW32487   5.669   6.844   1.022
10296SOL    HW132488   5.664   6.843   1.122
10296SOL    HW232489   5.586   6.803   0.984
10297SOL     OW32490   6.866   6.513   0.672
10297SOL    HW132491   6.926   6.432   0.674
10297SOL    HW232492   6.906   6.582   0.612
10298SOL     OW32493   6.416   6.859   1.422
10298SOL    HW132494   6.411   6.892   1.517
10298SOL    HW232495   6.330   6.878   1.376
10299SOL     OW32496   5.849   5.912   0.720
10299SOL    HW132497   5.770   5.963   0.686
10299SOL    HW232498   5.840   5.897   0.818
10300SOL     OW32499   6.408   6.588   1.372
10300SOL    HW132500   6.448   6.587   1.280
10300SOL    HW232501   6.418   6.680   1.412
10301SOL     OW32502   6.502   6.496   0.291
10301SOL    HW132503   6.565   6.534   0.223
10301SOL    HW232504   6.542   6.413   0.330
10302SOL     OW32505   5.958   6.874   1.490
10302SOL    HW132506   5.945   6.967   1.456
10302SOL    HW232507   5.874   6.822   1.477
10303SOL     OW32508   6.625   6.684   0.696
10303SOL    HW132509   6.555   6.637   0.750
10303SOL    HW232510   6.684   6.616   0.653
10304SOL     OW32511   6.600   5.822   0.971
10304SOL    HW132512   6.592   5.786   0.878
10304SOL    HW232513   6.598   5.746   1.036
10305SOL     OW32514   5.691   6.599   1.726
10305SOL    HW132515   5.614   6.566   1.780
10305SOL    HW232516   5.776   6.569   1.768
10306SOL     OW32517   6.258   5.789   1.489
10306SOL    HW132518   6.348   5.773   1.449
10306SOL    HW232519   6.266   5.794   1.588
10307SOL     OW32520   5.661   5.931   0.033
10307SOL    HW132521   5.569   5.903   0.004
10307SOL    HW232522   5.692   6.008  -0.023
10308SOL     OW32523   5.658   5.752   0.318
10308SOL    HW132524   5.641   5.835   0.264
10308SOL    HW232525   5.748   5.715   0.296
10309SOL     OW32526   6.199   6.428   1.431
10309SOL    HW132527   6.255   6.509   1.414
10309SOL    HW232528   6.258   6.348   1.434
10310SOL     OW32529   6.302   6.151   1.708
10310SOL    HW132530   6.321   6.216   1.782
10310SOL    HW232531   6.362   6.071   1.717
10311SOL     OW32532   7.036   6.806   1.633
10311SOL    HW132533   7.027   6.796   1.732
10311SOL    HW232534   7.132   6.799   1.607
10312SOL     OW32535   6.811   5.911   0.449
10312SOL    HW132536   6.876   5.837   0.438
10312SOL    HW232537   6.831   5.961   0.533
10313SOL     OW32538   6.180   6.331   0.652
10313SOL    HW132539   6.230   6.416   0.633
10313SOL    HW232540   6.092   6.333   0.604
10314SOL     OW32541   6.445   6.542   0.861
10314SOL    HW132542   6.499   6.473   0.909
10314SOL    HW232543   6.413   6.611   0.927
10315SOL     OW32544   6.669   6.570   0.087
10315SOL    HW132545   6.646   6.623   0.005
10315SOL    HW232546   6.750   6.514   0.068
10316SOL     OW32547   5.807   6.900   1.844
10316SOL    HW132548   5.742   6.827   1.823
10316SOL    HW232549   5.811   6.914   1.942
10317SOL     OW32550   5.665   6.826   0.653
10317SOL    HW132551   5.664   6.779   0.741
10317SOL    HW232552   5.747   6.798   0.602
10318SOL     OW32553   6.258   6.977   1.624
10318SOL    HW132554   6.180   6.927   1.662
10318SOL    HW232555   6.255   7.072   1.655
10319SOL     OW32556   6.014   6.010   0.520
10319SOL    HW132557   6.044   5.938   0.458
10319SOL    HW232558   5.975   5.970   0.603
10320SOL     OW32559   5.903   6.133   1.280
10320SOL    HW132560   5.941   6.074   1.352
10320SOL    HW232561   5.943   6.107   1.192
10321SOL     OW32562   7.010   5.800   1.112
10321SOL    HW132563   7.062   5.735   1.167
10321SOL    HW232564   6.961   5.863   1.173
10322SOL     OW32565   6.587   5.620   1.154
10322SOL    HW132566   6.524   5.548   1.123
10322SOL    HW232567   6.680   5.584   1.154
10323SOL     OW32568   6.356   6.916   0.301
10323SOL    HW132569   6.310   6.829   0.318
10323SOL    HW232570   6.447   6.913   0.342
10324SOL     OW32571   5.625   6.663   0.300
10324SOL    HW132572   5.724   6.652   0.291
10324SOL    HW232573   5.585   6.577   0.332
10325SOL     OW32574   5.816   6.214   1.975
10325SOL    HW132575   5.723   6.212   2.012
10325SOL    HW232576   5.817   6.175   1.883
10326SOL     OW32577   5.811   5.861   2.858
10326SOL    HW132578   5.846   5.844   2.950
10326SOL    HW232579   5.723   5.816   2.846
10327SOL     OW32580   5.605   5.954   2.509
10327SOL    HW132581   5.523   5.997   2.548
10327SOL    HW232582   5.577   5.881   2.446
10328SOL     OW32583   6.155   6.861   3.027
10328SOL    HW132584   6.062   6.854   2.990
10328SOL    HW232585   6.166   6.950   3.071
10329SOL     OW32586   7.141   7.097   2.565
10329SOL    HW132587   7.084   7.081   2.646
10329SOL    HW232588   7.082   7.107   2.485
10330SOL     OW32589   6.721   6.289   2.579
10330SOL    HW132590   6.778   6.367   2.554
10330SOL    HW232591   6.661   6.315   2.655
10331SOL     OW32592   6.354   6.730   2.885
10331SOL    HW132593   6.276   6.747   2.945
10331SOL    HW232594   6.388   6.817   2.849
10332SOL     OW32595   6.436   6.384   3.685
10332SOL    HW132596   6.432   6.460   3.750
10332SOL    HW232597   6.458   6.420   3.594
10333SOL     OW32598   6.271   6.598   2.527
10333SOL    HW132599   6.340   6.582   2.597
10333SOL    HW232600   6.198   6.655   2.565
10334SOL     OW32601   6.272   6.747   3.665
10334SOL    HW132602   6.332   6.826   3.679
10334SOL    HW232603   6.186   6.778   3.624
10335SOL     OW32604   5.921   7.021   2.923
10335SOL    HW132605   5.843   6.990   2.870
10335SOL    HW232606   5.979   7.079   2.866
10336SOL     OW32607   6.024   5.978   3.361
10336SOL    HW132608   6.106   5.922   3.370
10336SOL    HW232609   5.943   5.920   3.365
10337SOL     OW32610   5.826   6.677   2.748
10337SOL    HW132611   5.840   6.593   2.800
10337SOL    HW232612   5.771   6.741   2.803
10338SOL     OW32613   6.192   6.550   1.985
10338SOL    HW132614   6.199   6.634   1.931
10338SOL    HW232615   6.238   6.563   2.073
10339SOL     OW32616   5.708   6.229   2.425
10339SOL    HW132617   5.663   6.141   2.442
10339SOL    HW232618   5.707   6.283   2.509
10340SOL     OW32619   5.699   6.323   3.459
10340SOL    HW132620   5.787   6.310   3.504
10340SOL    HW232621   5.686   6.420   3.437
10341SOL     OW32622   6.879   6.814   3.285
10341SOL    HW132623   6.916   6.741   3.227
10341SOL    HW232624   6.931   6.819   3.370
10342SOL     OW32625   6.395   5.590   2.364
10342SOL    HW132626   6.435   5.681   2.355
10342SOL    HW232627   6.295   5.598   2.370
10343SOL     OW32628   5.783   6.562   3.126
10343SOL    HW132629   5.872   6.517   3.112
10343SOL    HW232630   5.710   6.497   3.107
10344SOL     OW32631   5.903   5.837   3.663
10344SOL    HW132632   5.974   5.908   3.669
10344SOL    HW232633   5.815   5.876   3.691
10345SOL     OW32634   6.184   6.315   2.132
10345SOL    HW132635   6.208   6.384   2.064
10345SOL    HW232636   6.106   6.348   2.186
10346SOL     OW32637   6.867   5.931   2.806
10346SOL    HW132638   6.781   5.881   2.793
10346SOL    HW232639   6.929   5.877   2.862
10347SOL     OW32640   6.393   6.191   3.327
10347SOL    HW132641   6.346   6.188   3.416
10347SOL    HW232642   6.342   6.136   3.261
10348SOL     OW32643   6.980   6.055   3.536
10348SOL    HW132644   6.960   6.098   3.624
10348SOL    HW232645   7.058   5.993   3.545
10349SOL     OW32646   6.559   6.476   3.434
10349SOL    HW132647   6.605   6.392   3.405
10349SOL    HW232648   6.503   6.510   3.359
10350SOL     OW32649   6.577   5.996   3.104
10350SOL    HW132650   6.500   6.030   3.158
10350SOL    HW232651   6.543   5.945   3.025
10351SOL     OW32652   6.627   6.287   2.291
10351SOL    HW132653   6.653   6.283   2.387
10351SOL    HW232654   6.542   6.236   2.277
10352SOL     OW32655   5.662   6.397   2.651
10352SOL    HW132656   5.761   6.385   2.660
10352SOL    HW232657   5.638   6.492   2.672
10353SOL     OW32658   6.451   5.934   2.057
10353SOL    HW132659   6.510   5.997   2.008
10353SOL    HW232660   6.470   5.840   2.028
10354SOL     OW32661   6.948   6.730   2.407
10354SOL    HW132662   7.031   6.701   2.359
10354SOL    HW232663   6.899   6.797   2.351
10355SOL     OW32664   6.136   5.782   2.747
10355SOL    HW132665   6.131   5.777   2.847
10355SOL    HW232666   6.138   5.878   2.718
10356SOL     OW32667   5.907   6.529   2.104
10356SOL    HW132668   5.989   6.568   2.062
10356SOL    HW232669   5.880   6.447   2.055
10357SOL     OW32670   5.788   5.871   3.360
10357SOL    HW132671   5.708   5.931   3.347
10357SOL    HW232672   5.778   5.822   3.446
10358SOL     OW32673   5.968   6.286   2.342
10358SOL    HW132674   6.013   6.196   2.339
10358SOL    HW232675   5.874   6.275   2.375
10359SOL     OW32676   6.200   5.708   1.979
10359SOL    HW132677   6.298   5.686   1.986
10359SOL    HW232678   6.169   5.691   1.886
10360SOL     OW32679   6.367   5.850   3.611
10360SOL    HW132680   6.434   5.789   3.654
10360SOL    HW232681   6.294   5.869   3.676
10361SOL     OW32682   6.508   6.089   2.761
10361SOL    HW132683   6.483   6.080   2.665
10361SOL    HW232684   6.556   6.007   2.792
10362SOL     OW32685   6.125   5.650   2.374
10362SOL    HW132686   6.044   5.651   2.432
10362SOL    HW232687   6.128   5.733   2.319
10363SOL     OW32688   7.020   6.774   1.903
10363SOL    HW132689   7.052   6.698   1.960
10363SOL    HW232690   6.928   6.801   1.933
10364SOL     OW32691   5.883   5.621   2.033
10364SOL    HW132692   5.932   5.705   2.012
10364SOL    HW232693   5.945   5.556   2.078
10365SOL     OW32694   6.521   5.822   2.342
10365SOL    HW132695   6.473   5.863   2.264
10365SOL    HW232696   6.620   5.820   2.323
10366SOL     OW32697   6.662   6.269   3.326
10366SOL    HW132698   6.582   6.208   3.329
10366SOL    HW232699   6.743   6.216   3.302
10367SOL     OW32700   6.813   7.156   2.655
10367SOL    HW132701   6.834   7.230   2.590
10367SOL    HW232702   6.881   7.156   2.728
10368SOL     OW32703   6.045   6.738   2.603
10368SOL    HW132704   5.974   6.711   2.668
10368SOL    HW232705   6.019   6.710   2.510
10369SOL     OW32706   6.618   6.135   1.878
10369SOL    HW132707   6.577   6.217   1.839
10369SOL    HW232708   6.682   6.161   1.951
10370SOL     OW32709   5.664   6.142   3.248
10370SOL    HW132710   5.756   6.141   3.207
10370SOL    HW232711   5.658   6.216   3.315
10371SOL     OW32712   6.147   5.808   3.009
10371SOL    HW132713   6.185   5.724   3.046
10371SOL    HW232714   6.059   5.827   3.053
10372SOL     OW32715   6.452   6.040   2.504
10372SOL    HW132716   6.420   6.112   2.442
10372SOL    HW232717   6.476   5.959   2.451
10373SOL     OW32718   6.603   5.625   2.615
10373SOL    HW132719   6.531   5.630   2.546
10373SOL    HW232720   6.579   5.556   2.684
10374SOL     OW32721   6.113   5.842   2.190
10374SOL    HW132722   6.140   5.783   2.115
10374SOL    HW232723   6.113   5.937   2.159
10375SOL     OW32724   6.650   6.933   3.202
10375SOL    HW132725   6.570   6.910   3.257
10375SOL    HW232726   6.733   6.907   3.251
10376SOL     OW32727   6.697   6.781   2.962
10376SOL    HW132728   6.657   6.825   3.043
10376SOL    HW232729   6.656   6.818   2.879
10377SOL     OW32730   6.501   5.675   3.264
10377SOL    HW132731   6.526   5.655   3.169
10377SOL    HW232732   6.573   5.731   3.306
10378SOL     OW32733   6.566   6.702   3.581
10378SOL    HW132734   6.467   6.708   3.591
10378SOL    HW232735   6.589   6.622   3.525
10379SOL     OW32736   6.291   6.636   2.230
10379SOL    HW132737   6.277   6.643   2.329
10379SOL    HW232738   6.375   6.585   2.212
10380SOL     OW32739   5.996   6.399   3.113
10380SOL    HW132740   6.082   6.411   3.163
10380SOL    HW232741   5.954   6.312   3.140
10381SOL     OW32742   6.860   5.972   3.124
10381SOL    HW132743   6.881   6.046   3.188
10381SOL    HW232744   6.771   5.989   3.081
10382SOL     OW32745   5.953   6.686   2.363
10382SOL    HW132746   5.946   6.769   2.307
10382SOL    HW232747   5.957   6.606   2.303
10383SOL     OW32748   6.152   6.123   2.727
10383SOL    HW132749   6.164   6.189   2.653
10383SOL    HW232750   6.198   6.157   2.810
10384SOL     OW32751   6.838   6.934   2.250
10384SOL    HW132752   6.888   7.011   2.290
10384SOL    HW232753   6.743   6.936   2.282
10385SOL     OW32754   5.988   6.337   3.460
10385SOL    HW132755   6.056   6.392   3.413
10385SOL    HW232756   6.028   6.249   3.487
10386SOL     OW32757   6.599   5.691   3.632
10386SOL    HW132758   6.605   5.776   3.580
10386SOL    HW232759   6.631   5.615   3.575
10387SOL     OW32760   6.090   5.636   3.602
10387SOL    HW132761   6.048   5.579   3.532
10387SOL    HW232762   6.024   5.705   3.634
10388SOL     OW32763   6.159   6.456   2.891
10388SOL    HW132764   6.203   6.545   2.882
10388SOL    HW232765   6.096   6.456   2.968
10389SOL     OW32766   6.946   6.448   2.907
10389SOL    HW132767   6.871   6.448   2.841
10389SOL    HW232768   6.983   6.356   2.916
10390SOL     OW32769   6.795   6.111   2.137
10390SOL    HW132770   6.808   6.027   2.191
10390SOL    HW232771   6.766   6.185   2.197
10391SOL     OW32772   5.893   5.799   3.093
10391SOL    HW132773   5.870   5.836   3.183
10391SOL    HW232774   5.863   5.704   3.087
10392SOL     OW32775   5.623   6.896   3.144
10392SOL    HW132776   5.676   6.847   3.212
10392SOL    HW232777   5.645   6.994   3.149
10393SOL     OW32778   6.318   6.220   2.926
10393SOL    HW132779   6.377   6.194   2.850
10393SOL    HW232780   6.290   6.316   2.915
10394SOL     OW32781   5.893   5.649   2.480
10394SOL    HW132782   5.882   5.743   2.513
10394SOL    HW232783   5.888   5.586   2.557
10395SOL     OW32784   7.208   5.953   2.236
10395SOL    HW132785   7.210   5.877   2.300
10395SOL    HW232786   7.160   6.030   2.276
10396SOL     OW32787   6.609   6.352   2.828
10396SOL    HW132788   6.624   6.373   2.924
10396SOL    HW232789   6.579   6.257   2.819
10397SOL     OW32790   5.936   6.484   3.666
10397SOL    HW132791   6.012   6.528   3.714
10397SOL    HW232792   5.971   6.437   3.584
10398SOL     OW32793   6.889   6.424   1.904
10398SOL    HW132794   6.923   6.331   1.919
10398SOL    HW232795   6.907   6.451   1.809
10399SOL     OW32796   5.905   6.396   2.811
10399SOL    HW132797   5.998   6.432   2.816
10399SOL    HW232798   5.899   6.311   2.863
10400SOL     OW32799   5.925   6.095   2.868
10400SOL    HW132800   5.873   6.012   2.851
10400SOL    HW232801   6.002   6.100   2.804
10401SOL     OW32802   6.724   5.966   3.540
10401SOL    HW132803   6.679   6.029   3.604
10401SOL    HW232804   6.817   5.997   3.523
10402SOL     OW32805   6.746   5.793   3.339
10402SOL    HW132806   6.746   5.857   3.416
10402SOL    HW232807   6.774   5.841   3.256
10403SOL     OW32808   5.594   6.912   2.062
10403SOL    HW132809   5.501   6.933   2.031
10403SOL    HW232810   5.604   6.813   2.075
10404SOL     OW32811   6.588   6.382   3.100
10404SOL    HW132812   6.629   6.350   3.186
10404SOL    HW232813   6.492   6.355   3.097
10405SOL     OW32814   5.626   6.130   2.976
10405SOL    HW132815   5.711   6.097   2.935
10405SOL    HW232816   5.639   6.145   3.074
10406SOL     OW32817   5.775   6.106   3.584
10406SOL    HW132818   5.834   6.066   3.514
10406SOL    HW232819   5.717   6.177   3.543
10407SOL     OW32820   6.401   6.158   2.187
10407SOL    HW132821   6.408   6.069   2.141
10407SOL    HW232822   6.307   6.192   2.179
10408SOL     OW32823   6.257   6.050   3.131
10408SOL    HW132824   6.223   5.961   3.101
10408SOL    HW232825   6.283   6.104   3.051
10409SOL     OW32826   6.059   6.086   2.053
10409SOL    HW132827   6.120   6.166   2.057
10409SOL    HW232828   5.964   6.117   2.060
10410SOL     OW32829   5.745   6.723   3.328
10410SOL    HW132830   5.767   6.662   3.404
10410SOL    HW232831   5.755   6.674   3.242
10411SOL     OW32832   6.933   6.645   3.096
10411SOL    HW132833   6.957   6.582   3.022
10411SOL    HW232834   6.843   6.685   3.078
10412SOL     OW32835   6.888   6.441   2.171
10412SOL    HW132836   6.802   6.410   2.213
10412SOL    HW232837   6.884   6.427   2.072
10413SOL     OW32838   5.669   6.844   2.884
10413SOL    HW132839   5.664   6.843   2.984
10413SOL    HW232840   5.586   6.803   2.846
10414SOL     OW32841   6.866   6.513   2.534
10414SOL    HW132842   6.926   6.432   2.536
10414SOL    HW232843   6.906   6.582   2.474
10415SOL     OW32844   6.416   6.859   3.284
10415SOL    HW132845   6.411   6.892   3.379
10415SOL    HW232846   6.330   6.878   3.238
10416SOL     OW32847   5.849   5.912   2.582
10416SOL    HW132848   5.770   5.963   2.548
10416SOL    HW232849   5.840   5.897   2.680
10417SOL     OW32850   6.780   7.198   1.893
10417SOL    HW132851   6.786   7.105   1.930
10417SOL    HW232852   6.721   7.198   1.813
10418SOL     OW32853   6.408   6.588   3.234
10418SOL    HW132854   6.448   6.587   3.142
10418SOL    HW232855   6.418   6.680   3.274
10419SOL     OW32856   6.502   6.496   2.153
10419SOL    HW132857   6.565   6.534   2.085
10419SOL    HW232858   6.542   6.413   2.192
10420SOL     OW32859   5.958   6.874   3.352
10420SOL    HW132860   5.945   6.967   3.318
10420SOL    HW232861   5.874   6.822   3.339
10421SOL     OW32862   6.625   6.684   2.558
10421SOL    HW132863   6.555   6.637   2.612
10421SOL    HW232864   6.684   6.616   2.515
10422SOL     OW32865   6.600   5.822   2.833
10422SOL    HW132866   6.592   5.786   2.740
10422SOL    HW232867   6.598   5.746   2.898
10423SOL     OW32868   5.691   6.599   3.588
10423SOL    HW132869   5.614   6.566   3.642
10423SOL    HW232870   5.776   6.569   3.630
10424SOL     OW32871   6.258   5.789   3.351
10424SOL    HW132872   6.348   5.773   3.311
10424SOL    HW232873   6.266   5.794   3.450
10425SOL     OW32874   5.661   5.931   1.895
10425SOL    HW132875   5.569   5.903   1.866
10425SOL    HW232876   5.692   6.008   1.839
10426SOL     OW32877   5.658   5.752   2.180
10426SOL    HW132878   5.641   5.835   2.126
10426SOL    HW232879   5.748   5.715   2.158
10427SOL     OW32880   6.199   6.428   3.293
10427SOL    HW132881   6.255   6.509   3.276
10427SOL    HW232882   6.258   6.348   3.296
10428SOL     OW32883   6.302   6.151   3.570
10428SOL    HW132884   6.321   6.216   3.644
10428SOL    HW232885   6.362   6.071   3.579
10429SOL     OW32886   7.036   6.806   3.495
10429SOL    HW132887   7.027   6.796   3.594
10429SOL    HW232888   7.132   6.799   3.469
10430SOL     OW32889   6.811   5.911   2.311
10430SOL    HW132890   6.876   5.837   2.300
10430SOL    HW232891   6.831   5.961   2.395
10431SOL     OW32892   6.180   6.331   2.514
10431SOL    HW132893   6.230   6.416   2.495
10431SOL    HW232894   6.092   6.333   2.466
10432SOL     OW32895   6.445   6.542   2.723
10432SOL    HW132896   6.499   6.473   2.771
10432SOL    HW232897   6.413   6.611   2.789
10433SOL     OW32898   6.669   6.570   1.949
10433SOL    HW132899   6.646   6.623   1.867
10433SOL    HW232900   6.750   6.514   1.930
10434SOL     OW32901   5.807   6.900   3.706
10434SOL    HW132902   5.742   6.827   3.685
10434SOL    HW232903   5.811   6.914   3.804
10435SOL     OW32904   5.665   6.826   2.515
10435SOL    HW132905   5.664   6.779   2.603
10435SOL    HW232906   5.747   6.798   2.464
10436SOL     OW32907   6.258   6.977   3.486
10436SOL    HW132908   6.180   6.927   3.524
10436SOL    HW232909   6.255   7.072   3.517
10437SOL     OW32910   6.014   6.010   2.382
10437SOL    HW132911   6.044   5.938   2.320
10437SOL    HW232912   5.975   5.970   2.465
10438SOL     OW32913   5.903   6.133   3.142
10438SOL    HW132914   5.941   6.074   3.214
10438SOL    HW232915   5.943   6.107   3.054
10439SOL     OW32916   7.010   5.800   2.974
10439SOL    HW132917   7.062   5.735   3.029
10439SOL    HW232918   6.961   5.863   3.035
10440SOL     OW32919   6.587   5.620   3.016
10440SOL    HW132920   6.524   5.548   2.985
10440SOL    HW232921   6.680   5.584   3.016
10441SOL     OW32922   6.356   6.916   2.163
10441SOL    HW132923   6.310   6.829   2.180
10441SOL    HW232924   6.447   6.913   2.204
10442SOL     OW32925   6.938   5.638   2.030
10442SOL    HW132926   6.973   5.597   1.946
10442SOL    HW232927   6.848   5.600   2.050
10443SOL     OW32928   5.625   6.663   2.162
10443SOL    HW132929   5.724   6.652   2.153
10443SOL    HW232930   5.585   6.577   2.194
10444SOL     OW32931   5.816   6.214   3.837
10444SOL    HW132932   5.723   6.212   3.874
10444SOL    HW232933   5.817   6.175   3.745
10445SOL     OW32934   5.811   5.861   4.720
10445SOL    HW132935   5.846   5.844   4.812
10445SOL    HW232936   5.723   5.816   4.708
10446SOL     OW32937   5.605   5.954   4.371
10446SOL    HW132938   5.523   5.997   4.410
10446SOL    HW232939   5.577   5.881   4.308
10447SOL     OW32940   6.155   6.861   4.889
10447SOL    HW132941   6.062   6.854   4.852
10447SOL    HW232942   6.166   6.950   4.933
10448SOL     OW32943   7.141   7.097   4.427
10448SOL    HW132944   7.084   7.081   4.508
10448SOL    HW232945   7.082   7.107   4.347
10449SOL     OW32946   6.721   6.289   4.441
10449SOL    HW132947   6.778   6.367   4.416
10449SOL    HW232948   6.661   6.315   4.517
10450SOL     OW32949   6.354   6.730   4.747
10450SOL    HW132950   6.276   6.747   4.807
10450SOL    HW232951   6.388   6.817   4.711
10451SOL     OW32952   6.436   6.384   5.547
10451SOL    HW132953   6.432   6.460   5.612
10451SOL    HW232954   6.458   6.420   5.456
10452SOL     OW32955   6.271   6.598   4.389
10452SOL    HW132956   6.340   6.582   4.459
10452SOL    HW232957   6.198   6.655   4.427
10453SOL     OW32958   6.272   6.747   5.527
10453SOL    HW132959   6.332   6.826   5.541
10453SOL    HW232960   6.186   6.778   5.486
10454SOL     OW32961   5.921   7.021   4.785
10454SOL    HW132962   5.843   6.990   4.732
10454SOL    HW232963   5.979   7.079   4.728
10455SOL     OW32964   6.024   5.978   5.223
10455SOL    HW132965   6.106   5.922   5.232
10455SOL    HW232966   5.943   5.920   5.227
10456SOL     OW32967   5.826   6.677   4.610
10456SOL    HW132968   5.840   6.593   4.662
10456SOL    HW232969   5.771   6.741   4.665
10457SOL     OW32970   6.192   6.550   3.847
10457SOL    HW132971   6.199   6.634   3.793
10457SOL    HW232972   6.238   6.563   3.935
10458SOL     OW32973   5.708   6.229   4.287
10458SOL    HW132974   5.663   6.141   4.304
10458SOL    HW232975   5.707   6.283   4.371
10459SOL     OW32976   5.699   6.323   5.321
10459SOL    HW132977   5.787   6.310   5.366
10459SOL    HW232978   5.686   6.420   5.299
10460SOL     OW32979   6.879   6.814   5.147
10460SOL    HW132980   6.916   6.741   5.089
10460SOL    HW232981   6.931   6.819   5.232
10461SOL     OW32982   6.395   5.590   4.226
10461SOL    HW132983   6.435   5.681   4.217
10461SOL    HW232984   6.295   5.598   4.232
10462SOL     OW32985   5.783   6.562   4.988
10462SOL    HW132986   5.872   6.517   4.974
10462SOL    HW232987   5.710   6.497   4.969
10463SOL     OW32988   5.903   5.837   5.525
10463SOL    HW132989   5.974   5.908   5.531
10463SOL    HW232990   5.815   5.876   5.553
10464SOL     OW32991   6.184   6.315   3.994
10464SOL    HW132992   6.208   6.384   3.926
10464SOL    HW232993   6.106   6.348   4.048
10465SOL     OW32994   6.867   5.931   4.668
10465SOL    HW132995   6.781   5.881   4.655
10465SOL    HW232996   6.929   5.877   4.724
10466SOL     OW32997   6.393   6.191   5.189
10466SOL    HW132998   6.346   6.188   5.278
10466SOL    HW232999   6.342   6.136   5.123
10467SOL     OW33000   6.980   6.055   5.398
10467SOL    HW133001   6.960   6.098   5.486
10467SOL    HW233002   7.058   5.993   5.407
10468SOL     OW33003   6.559   6.476   5.296
10468SOL    HW133004   6.605   6.392   5.267
10468SOL    HW233005   6.503   6.510   5.221
10469SOL     OW33006   6.577   5.996   4.966
10469SOL    HW133007   6.500   6.030   5.020
10469SOL    HW233008   6.543   5.945   4.887
10470SOL     OW33009   6.627   6.287   4.153
10470SOL    HW133010   6.653   6.283   4.249
10470SOL    HW233011   6.542   6.236   4.139
10471SOL     OW33012   5.662   6.397   4.513
10471SOL    HW133013   5.761   6.385   4.522
10471SOL    HW233014   5.638   6.492   4.534
10472SOL     OW33015   6.451   5.934   3.919
10472SOL    HW133016   6.510   5.997   3.870
10472SOL    HW233017   6.470   5.840   3.890
10473SOL     OW33018   6.948   6.730   4.269
10473SOL    HW133019   7.031   6.701   4.221
10473SOL    HW233020   6.899   6.797   4.213
10474SOL     OW33021   6.136   5.782   4.609
10474SOL    HW133022   6.131   5.777   4.709
10474SOL    HW233023   6.138   5.878   4.580
10475SOL     OW33024   5.907   6.529   3.966
10475SOL    HW133025   5.989   6.568   3.924
10475SOL    HW233026   5.880   6.447   3.917
10476SOL     OW33027   5.788   5.871   5.222
10476SOL    HW133028   5.708   5.931   5.209
10476SOL    HW233029   5.778   5.822   5.308
10477SOL     OW33030   5.968   6.286   4.204
10477SOL    HW133031   6.013   6.196   4.201
10477SOL    HW233032   5.874   6.275   4.237
10478SOL     OW33033   6.200   5.708   3.841
10478SOL    HW133034   6.298   5.686   3.848
10478SOL    HW233035   6.169   5.691   3.748
10479SOL     OW33036   6.367   5.850   5.473
10479SOL    HW133037   6.434   5.789   5.516
10479SOL    HW233038   6.294   5.869   5.538
10480SOL     OW33039   6.508   6.089   4.623
10480SOL    HW133040   6.483   6.080   4.527
10480SOL    HW233041   6.556   6.007   4.654
10481SOL     OW33042   6.125   5.650   4.236
10481SOL    HW133043   6.044   5.651   4.294
10481SOL    HW233044   6.128   5.733   4.181
10482SOL     OW33045   7.020   6.774   3.765
10482SOL    HW133046   7.052   6.698   3.822
10482SOL    HW233047   6.928   6.801   3.795
10483SOL     OW33048   5.883   5.621   3.895
10483SOL    HW133049   5.932   5.705   3.874
10483SOL    HW233050   5.945   5.556   3.940
10484SOL     OW33051   6.521   5.822   4.204
10484SOL    HW133052   6.473   5.863   4.126
10484SOL    HW233053   6.620   5.820   4.185
10485SOL     OW33054   6.662   6.269   5.188
10485SOL    HW133055   6.582   6.208   5.191
10485SOL    HW233056   6.743   6.216   5.164
10486SOL     OW33057   6.813   7.156   4.517
10486SOL    HW133058   6.834   7.230   4.452
10486SOL    HW233059   6.881   7.156   4.590
10487SOL     OW33060   6.045   6.738   4.465
10487SOL    HW133061   5.974   6.711   4.530
10487SOL    HW233062   6.019   6.710   4.372
10488SOL     OW33063   6.618   6.135   3.740
10488SOL    HW133064   6.577   6.217   3.701
10488SOL    HW233065   6.682   6.161   3.813
10489SOL     OW33066   5.664   6.142   5.110
10489SOL    HW133067   5.756   6.141   5.069
10489SOL    HW233068   5.658   6.216   5.177
10490SOL     OW33069   6.147   5.808   4.871
10490SOL    HW133070   6.185   5.724   4.908
10490SOL    HW233071   6.059   5.827   4.915
10491SOL     OW33072   6.452   6.040   4.366
10491SOL    HW133073   6.420   6.112   4.304
10491SOL    HW233074   6.476   5.959   4.313
10492SOL     OW33075   6.603   5.625   4.477
10492SOL    HW133076   6.531   5.630   4.408
10492SOL    HW233077   6.579   5.556   4.546
10493SOL     OW33078   6.113   5.842   4.052
10493SOL    HW133079   6.140   5.783   3.977
10493SOL    HW233080   6.113   5.937   4.021
10494SOL     OW33081   6.650   6.933   5.064
10494SOL    HW133082   6.570   6.910   5.119
10494SOL    HW233083   6.733   6.907   5.113
10495SOL     OW33084   6.697   6.781   4.824
10495SOL    HW133085   6.657   6.825   4.905
10495SOL    HW233086   6.656   6.818   4.741
10496SOL     OW33087   6.501   5.675   5.126
10496SOL    HW133088   6.526   5.655   5.031
10496SOL    HW233089   6.573   5.731   5.168
10497SOL     OW33090   6.566   6.702   5.443
10497SOL    HW133091   6.467   6.708   5.453
10497SOL    HW233092   6.589   6.622   5.387
10498SOL     OW33093   6.291   6.636   4.092
10498SOL    HW133094   6.277   6.643   4.191
10498SOL    HW233095   6.375   6.585   4.074
10499SOL     OW33096   5.996   6.399   4.975
10499SOL    HW133097   6.082   6.411   5.025
10499SOL    HW233098   5.954   6.312   5.002
10500SOL     OW33099   6.860   5.972   4.986
10500SOL    HW133100   6.881   6.046   5.050
10500SOL    HW233101   6.771   5.989   4.943
10501SOL     OW33102   5.953   6.686   4.225
10501SOL    HW133103   5.946   6.769   4.169
10501SOL    HW233104   5.957   6.606   4.165
10502SOL     OW33105   6.152   6.123   4.589
10502SOL    HW133106   6.164   6.189   4.515
10502SOL    HW233107   6.198   6.157   4.672
10503SOL     OW33108   6.838   6.934   4.112
10503SOL    HW133109   6.888   7.011   4.152
10503SOL    HW233110   6.743   6.936   4.144
10504SOL     OW33111   5.988   6.337   5.322
10504SOL    HW133112   6.056   6.392   5.275
10504SOL    HW233113   6.028   6.249   5.349
10505SOL     OW33114   6.599   5.691   5.494
10505SOL    HW133115   6.605   5.776   5.442
10505SOL    HW233116   6.631   5.615   5.437
10506SOL     OW33117   6.090   5.636   5.464
10506SOL    HW133118   6.048   5.579   5.394
10506SOL    HW233119   6.024   5.705   5.496
10507SOL     OW33120   6.159   6.456   4.753
10507SOL    HW133121   6.203   6.545   4.744
10507SOL    HW233122   6.096   6.456   4.830
10508SOL     OW33123   6.946   6.448   4.769
10508SOL    HW133124   6.871   6.448   4.703
10508SOL    HW233125   6.983   6.356   4.778
10509SOL     OW33126   6.795   6.111   3.999
10509SOL    HW133127   6.808   6.027   4.053
10509SOL    HW233128   6.766   6.185   4.059
10510SOL     OW33129   5.893   5.799   4.955
10510SOL    HW133130   5.870   5.836   5.045
10510SOL    HW233131   5.863   5.704   4.949
10511SOL     OW33132   5.623   6.896   5.006
10511SOL    HW133133   5.676   6.847   5.074
10511SOL    HW233134   5.645   6.994   5.011
10512SOL     OW33135   6.318   6.220   4.788
10512SOL    HW133136   6.377   6.194   4.712
10512SOL    HW233137   6.290   6.316   4.777
10513SOL     OW33138   5.893   5.649   4.342
10513SOL    HW133139   5.882   5.743   4.375
10513SOL    HW233140   5.888   5.586   4.419
10514SOL     OW33141   7.208   5.953   4.098
10514SOL    HW133142   7.210   5.877   4.162
10514SOL    HW233143   7.160   6.030   4.138
10515SOL     OW33144   6.609   6.352   4.690
10515SOL    HW133145   6.624   6.373   4.786
10515SOL    HW233146   6.579   6.257   4.681
10516SOL     OW33147   5.936   6.484   5.528
10516SOL    HW133148   6.012   6.528   5.576
10516SOL    HW233149   5.971   6.437   5.446
10517SOL     OW33150   6.889   6.424   3.766
10517SOL    HW133151   6.923   6.331   3.781
10517SOL    HW233152   6.907   6.451   3.671
10518SOL     OW33153   5.905   6.396   4.673
10518SOL    HW133154   5.998   6.432   4.678
10518SOL    HW233155   5.899   6.311   4.725
10519SOL     OW33156   5.925   6.095   4.730
10519SOL    HW133157   5.873   6.012   4.713
10519SOL    HW233158   6.002   6.100   4.666
10520SOL     OW33159   6.724   5.966   5.402
10520SOL    HW133160   6.679   6.029   5.466
10520SOL    HW233161   6.817   5.997   5.385
10521SOL     OW33162   6.746   5.793   5.201
10521SOL    HW133163   6.746   5.857   5.278
10521SOL    HW233164   6.774   5.841   5.118
10522SOL     OW33165   5.594   6.912   3.924
10522SOL    HW133166   5.501   6.933   3.893
10522SOL    HW233167   5.604   6.813   3.937
10523SOL     OW33168   6.588   6.382   4.962
10523SOL    HW133169   6.629   6.350   5.048
10523SOL    HW233170   6.492   6.355   4.959
10524SOL     OW33171   5.626   6.130   4.838
10524SOL    HW133172   5.711   6.097   4.797
10524SOL    HW233173   5.639   6.145   4.936
10525SOL     OW33174   5.775   6.106   5.446
10525SOL    HW133175   5.834   6.066   5.376
10525SOL    HW233176   5.717   6.177   5.405
10526SOL     OW33177   6.401   6.158   4.049
10526SOL    HW133178   6.408   6.069   4.003
10526SOL    HW233179   6.307   6.192   4.041
10527SOL     OW33180   6.257   6.050   4.993
10527SOL    HW133181   6.223   5.961   4.963
10527SOL    HW233182   6.283   6.104   4.913
10528SOL     OW33183   6.059   6.086   3.915
10528SOL    HW133184   6.120   6.166   3.919
10528SOL    HW233185   5.964   6.117   3.922
10529SOL     OW33186   5.745   6.723   5.190
10529SOL    HW133187   5.767   6.662   5.266
10529SOL    HW233188   5.755   6.674   5.104
10530SOL     OW33189   6.933   6.645   4.958
10530SOL    HW133190   6.957   6.582   4.884
10530SOL    HW233191   6.843   6.685   4.940
10531SOL     OW33192   6.888   6.441   4.033
10531SOL    HW133193   6.802   6.410   4.075
10531SOL    HW233194   6.884   6.427   3.934
10532SOL     OW33195   5.669   6.844   4.746
10532SOL    HW133196   5.664   6.843   4.846
10532SOL    HW233197   5.586   6.803   4.708
10533SOL     OW33198   6.866   6.513   4.396
10533SOL    HW133199   6.926   6.432   4.398
10533SOL    HW233200   6.906   6.582   4.336
10534SOL     OW33201   6.416   6.859   5.146
10534SOL    HW133202   6.411   6.892   5.241
10534SOL    HW233203   6.330   6.878   5.100
10535SOL     OW33204   5.849   5.912   4.444
10535SOL    HW133205   5.770   5.963   4.410
10535SOL    HW233206   5.840   5.897   4.542
10536SOL     OW33207   6.780   7.198   3.755
10536SOL    HW133208   6.786   7.105   3.792
10536SOL    HW233209   6.721   7.198   3.675
10537SOL     OW33210   6.408   6.588   5.096
10537SOL    HW133211   6.448   6.587   5.004
10537SOL    HW233212   6.418   6.680   5.136
10538SOL     OW33213   6.502   6.496   4.015
10538SOL    HW133214   6.565   6.534   3.947
10538SOL    HW233215   6.542   6.413   4.054
10539SOL     OW33216   5.958   6.874   5.214
10539SOL    HW133217   5.945   6.967   5.180
10539SOL    HW233218   5.874   6.822   5.201
10540SOL     OW33219   6.625   6.684   4.420
10540SOL    HW133220   6.555   6.637   4.474
10540SOL    HW233221   6.684   6.616   4.377
10541SOL     OW33222   6.600   5.822   4.695
10541SOL    HW133223   6.592   5.786   4.602
10541SOL    HW233224   6.598   5.746   4.760
10542SOL     OW33225   5.691   6.599   5.450
10542SOL    HW133226   5.614   6.566   5.504
10542SOL    HW233227   5.776   6.569   5.492
10543SOL     OW33228   6.258   5.789   5.213
10543SOL    HW133229   6.348   5.773   5.173
10543SOL    HW233230   6.266   5.794   5.312
10544SOL     OW33231   5.661   5.931   3.757
10544SOL    HW133232   5.569   5.903   3.728
10544SOL    HW233233   5.692   6.008   3.701
10545SOL     OW33234   5.658   5.752   4.042
10545SOL    HW133235   5.641   5.835   3.988
10545SOL    HW233236   5.748   5.715   4.020
10546SOL     OW33237   6.199   6.428   5.155
10546SOL    HW133238   6.255   6.509   5.138
10546SOL    HW233239   6.258   6.348   5.158
10547SOL     OW33240   6.302   6.151   5.432
10547SOL    HW133241   6.321   6.216   5.506
10547SOL    HW233242   6.362   6.071   5.441
10548SOL     OW33243   7.036   6.806   5.357
10548SOL    HW133244   7.027   6.796   5.456
10548SOL    HW233245   7.132   6.799   5.331
10549SOL     OW33246   6.811   5.911   4.173
10549SOL    HW133247   6.876   5.837   4.162
10549SOL    HW233248   6.831   5.961   4.257
10550SOL     OW33249   6.180   6.331   4.376
10550SOL    HW133250   6.230   6.416   4.357
10550SOL    HW233251   6.092   6.333   4.328
10551SOL     OW33252   6.445   6.542   4.585
10551SOL    HW133253   6.499   6.473   4.633
10551SOL    HW233254   6.413   6.611   4.651
10552SOL     OW33255   6.669   6.570   3.811
10552SOL    HW133256   6.646   6.623   3.729
10552SOL    HW233257   6.750   6.514   3.792
10553SOL     OW33258   5.807   6.900   5.568
10553SOL    HW133259   5.742   6.827   5.547
10553SOL    HW233260   5.811   6.914   5.666
10554SOL     OW33261   5.665   6.826   4.377
10554SOL    HW133262   5.664   6.779   4.465
10554SOL    HW233263   5.747   6.798   4.326
10555SOL     OW33264   6.258   6.977   5.348
10555SOL    HW133265   6.180   6.927   5.386
10555SOL    HW233266   6.255   7.072   5.379
10556SOL     OW33267   6.014   6.010   4.244
10556SOL    HW133268   6.044   5.938   4.182
10556SOL    HW233269   5.975   5.970   4.327
10557SOL     OW33270   5.903   6.133   5.004
10557SOL    HW133271   5.941   6.074   5.076
10557SOL    HW233272   5.943   6.107   4.916
10558SOL     OW33273   7.010   5.800   4.836
10558SOL    HW133274   7.062   5.735   4.891
10558SOL    HW233275   6.961   5.863   4.897
10559SOL     OW33276   6.587   5.620   4.878
10559SOL    HW133277   6.524   5.548   4.847
10559SOL    HW233278   6.680   5.584   4.878
10560SOL     OW33279   6.356   6.916   4.025
10560SOL    HW133280   6.310   6.829   4.042
10560SOL    HW233281   6.447   6.913   4.066
10561SOL     OW33282   6.938   5.638   3.892
10561SOL    HW133283   6.973   5.597   3.808
10561SOL    HW233284   6.848   5.600   3.912
10562SOL     OW33285   5.625   6.663   4.024
10562SOL    HW133286   5.724   6.652   4.015
10562SOL    HW233287   5.585   6.577   4.056
10563SOL     OW33288   5.816   6.214   5.699
10563SOL    HW133289   5.723   6.212   5.736
10563SOL    HW233290   5.817   6.175   5.607
10564SOL     OW33291   5.811   5.861   6.582
10564SOL    HW133292   5.846   5.844   6.674
10564SOL    HW233293   5.723   5.816   6.570
10565SOL     OW33294   5.605   5.954   6.233
10565SOL    HW133295   5.523   5.997   6.272
10565SOL    HW233296   5.577   5.881   6.170
10566SOL     OW33297   6.155   6.861   6.751
10566SOL    HW133298   6.062   6.854   6.714
10566SOL    HW233299   6.166   6.950   6.795
10567SOL     OW33300   7.141   7.097   6.289
10567SOL    HW133301   7.084   7.081   6.370
10567SOL    HW233302   7.082   7.107   6.209
10568SOL     OW33303   6.721   6.289   6.303
10568SOL    HW133304   6.778   6.367   6.278
10568SOL    HW233305   6.661   6.315   6.379
10569SOL     OW33306   6.354   6.730   6.609
10569SOL    HW133307   6.276   6.747   6.669
10569SOL    HW233308   6.388   6.817   6.573
10570SOL     OW33309   6.271   6.598   6.251
10570SOL    HW133310   6.340   6.582   6.321
10570SOL    HW233311   6.198   6.655   6.289
10571SOL     OW33312   5.921   7.021   6.647
10571SOL    HW133313   5.843   6.990   6.594
10571SOL    HW233314   5.979   7.079   6.590
10572SOL     OW33315   5.826   6.677   6.472
10572SOL    HW133316   5.840   6.593   6.524
10572SOL    HW233317   5.771   6.741   6.527
10573SOL     OW33318   6.192   6.550   5.709
10573SOL    HW133319   6.199   6.634   5.655
10573SOL    HW233320   6.238   6.563   5.797
10574SOL     OW33321   5.708   6.229   6.149
10574SOL    HW133322   5.663   6.141   6.166
10574SOL    HW233323   5.707   6.283   6.233
10575SOL     OW33324   6.879   6.814   7.009
10575SOL    HW133325   6.916   6.741   6.951
10575SOL    HW233326   6.931   6.819   7.094
10576SOL     OW33327   6.395   5.590   6.088
10576SOL    HW133328   6.435   5.681   6.079
10576SOL    HW233329   6.295   5.598   6.094
10577SOL     OW33330   5.783   6.562   6.850
10577SOL    HW133331   5.872   6.517   6.836
10577SOL    HW233332   5.710   6.497   6.831
10578SOL     OW33333   6.184   6.315   5.856
10578SOL    HW133334   6.208   6.384   5.788
10578SOL    HW233335   6.106   6.348   5.910
10579SOL     OW33336   6.867   5.931   6.530
10579SOL    HW133337   6.781   5.881   6.517
10579SOL    HW233338   6.929   5.877   6.586
10580SOL     OW33339   6.627   6.287   6.015
10580SOL    HW133340   6.653   6.283   6.111
10580SOL    HW233341   6.542   6.236   6.001
10581SOL     OW33342   5.662   6.397   6.375
10581SOL    HW133343   5.761   6.385   6.384
10581SOL    HW233344   5.638   6.492   6.396
10582SOL     OW33345   6.451   5.934   5.781
10582SOL    HW133346   6.510   5.997   5.732
10582SOL    HW233347   6.470   5.840   5.752
10583SOL     OW33348   6.948   6.730   6.131
10583SOL    HW133349   7.031   6.701   6.083
10583SOL    HW233350   6.899   6.797   6.075
10584SOL     OW33351   6.136   5.782   6.471
10584SOL    HW133352   6.131   5.777   6.571
10584SOL    HW233353   6.138   5.878   6.442
10585SOL     OW33354   5.907   6.529   5.828
10585SOL    HW133355   5.989   6.568   5.786
10585SOL    HW233356   5.880   6.447   5.779
10586SOL     OW33357   5.968   6.286   6.066
10586SOL    HW133358   6.013   6.196   6.063
10586SOL    HW233359   5.874   6.275   6.099
10587SOL     OW33360   6.200   5.708   5.703
10587SOL    HW133361   6.298   5.686   5.710
10587SOL    HW233362   6.169   5.691   5.610
10588SOL     OW33363   6.508   6.089   6.485
10588SOL    HW133364   6.483   6.080   6.389
10588SOL    HW233365   6.556   6.007   6.516
10589SOL     OW33366   6.125   5.650   6.098
10589SOL    HW133367   6.044   5.651   6.156
10589SOL    HW233368   6.128   5.733   6.043
10590SOL     OW33369   7.020   6.774   5.627
10590SOL    HW133370   7.052   6.698   5.684
10590SOL    HW233371   6.928   6.801   5.657
10591SOL     OW33372   5.883   5.621   5.757
10591SOL    HW133373   5.932   5.705   5.736
10591SOL    HW233374   5.945   5.556   5.802
10592SOL     OW33375   6.521   5.822   6.066
10592SOL    HW133376   6.473   5.863   5.988
10592SOL    HW233377   6.620   5.820   6.047
10593SOL     OW33378   6.813   7.156   6.379
10593SOL    HW133379   6.834   7.230   6.314
10593SOL    HW233380   6.881   7.156   6.452
10594SOL     OW33381   6.045   6.738   6.327
10594SOL    HW133382   5.974   6.711   6.392
10594SOL    HW233383   6.019   6.710   6.234
10595SOL     OW33384   6.618   6.135   5.602
10595SOL    HW133385   6.577   6.217   5.563
10595SOL    HW233386   6.682   6.161   5.675
10596SOL     OW33387   6.147   5.808   6.733
10596SOL    HW133388   6.185   5.724   6.770
10596SOL    HW233389   6.059   5.827   6.777
10597SOL     OW33390   6.452   6.040   6.228
10597SOL    HW133391   6.420   6.112   6.166
10597SOL    HW233392   6.476   5.959   6.175
10598SOL     OW33393   6.603   5.625   6.339
10598SOL    HW133394   6.531   5.630   6.270
10598SOL    HW233395   6.579   5.556   6.408
10599SOL     OW33396   6.113   5.842   5.914
10599SOL    HW133397   6.140   5.783   5.839
10599SOL    HW233398   6.113   5.937   5.883
10600SOL     OW33399   6.650   6.933   6.926
10600SOL    HW133400   6.570   6.910   6.981
10600SOL    HW233401   6.733   6.907   6.975
10601SOL     OW33402   6.697   6.781   6.686
10601SOL    HW133403   6.657   6.825   6.767
10601SOL    HW233404   6.656   6.818   6.603
10602SOL     OW33405   6.291   6.636   5.954
10602SOL    HW133406   6.277   6.643   6.053
10602SOL    HW233407   6.375   6.585   5.936
10603SOL     OW33408   5.996   6.399   6.837
10603SOL    HW133409   6.082   6.411   6.887
10603SOL    HW233410   5.954   6.312   6.864
10604SOL     OW33411   5.953   6.686   6.087
10604SOL    HW133412   5.946   6.769   6.031
10604SOL    HW233413   5.957   6.606   6.027
10605SOL     OW33414   6.152   6.123   6.451
10605SOL    HW133415   6.164   6.189   6.377
10605SOL    HW233416   6.198   6.157   6.534
10606SOL     OW33417   6.838   6.934   5.974
10606SOL    HW133418   6.888   7.011   6.014
10606SOL    HW233419   6.743   6.936   6.006
10607SOL     OW33420   6.159   6.456   6.615
10607SOL    HW133421   6.203   6.545   6.606
10607SOL    HW233422   6.096   6.456   6.692
10608SOL     OW33423   6.946   6.448   6.631
10608SOL    HW133424   6.871   6.448   6.565
10608SOL    HW233425   6.983   6.356   6.640
10609SOL     OW33426   6.795   6.111   5.861
10609SOL    HW133427   6.808   6.027   5.915
10609SOL    HW233428   6.766   6.185   5.921
10610SOL     OW33429   5.893   5.799   6.817
10610SOL    HW133430   5.870   5.836   6.907
10610SOL    HW233431   5.863   5.704   6.811
10611SOL     OW33432   5.623   6.896   6.868
10611SOL    HW133433   5.676   6.847   6.936
10611SOL    HW233434   5.645   6.994   6.873
10612SOL     OW33435   6.318   6.220   6.650
10612SOL    HW133436   6.377   6.194   6.574
10612SOL    HW233437   6.290   6.316   6.639
10613SOL     OW33438   5.893   5.649   6.204
10613SOL    HW133439   5.882   5.743   6.237
10613SOL    HW233440   5.888   5.586   6.281
10614SOL     OW33441   7.208   5.953   5.960
10614SOL    HW133442   7.210   5.877   6.024
10614SOL    HW233443   7.160   6.030   6.000
10615SOL     OW33444   6.609   6.352   6.552
10615SOL    HW133445   6.624   6.373   6.648
10615SOL    HW233446   6.579   6.257   6.543
10616SOL     OW33447   6.889   6.424   5.628
10616SOL    HW133448   6.923   6.331   5.643
10616SOL    HW233449   6.907   6.451   5.533
10617SOL     OW33450   5.905   6.396   6.535
10617SOL    HW133451   5.998   6.432   6.540
10617SOL    HW233452   5.899   6.311   6.587
10618SOL     OW33453   5.925   6.095   6.592
10618SOL    HW133454   5.873   6.012   6.575
10618SOL    HW233455   6.002   6.100   6.528
10619SOL     OW33456   5.594   6.912   5.786
10619SOL    HW133457   5.501   6.933   5.755
10619SOL    HW233458   5.604   6.813   5.799
10620SOL     OW33459   6.588   6.382   6.824
10620SOL    HW133460   6.629   6.350   6.910
10620SOL    HW233461   6.492   6.355   6.821
10621SOL     OW33462   5.626   6.130   6.700
10621SOL    HW133463   5.711   6.097   6.659
10621SOL    HW233464   5.639   6.145   6.798
10622SOL     OW33465   6.401   6.158   5.911
10622SOL    HW133466   6.408   6.069   5.865
10622SOL    HW233467   6.307   6.192   5.903
10623SOL     OW33468   6.059   6.086   5.777
10623SOL    HW133469   6.120   6.166   5.781
10623SOL    HW233470   5.964   6.117   5.784
10624SOL     OW33471   5.745   6.723   7.052
10624SOL    HW133472   5.767   6.662   7.128
10624SOL    HW233473   5.755   6.674   6.966
10625SOL     OW33474   6.933   6.645   6.820
10625SOL    HW133475   6.957   6.582   6.746
10625SOL    HW233476   6.843   6.685   6.802
10626SOL     OW33477   6.888   6.441   5.895
10626SOL    HW133478   6.802   6.410   5.937
10626SOL    HW233479   6.884   6.427   5.796
10627SOL     OW33480   5.669   6.844   6.608
10627SOL    HW133481   5.664   6.843   6.708
10627SOL    HW233482   5.586   6.803   6.570
10628SOL     OW33483   6.866   6.513   6.258
10628SOL    HW133484   6.926   6.432   6.260
10628SOL    HW233485   6.906   6.582   6.198
10629SOL     OW33486   6.416   6.859   7.008
10629SOL    HW133487   6.411   6.892   7.103
10629SOL    HW233488   6.330   6.878   6.962
10630SOL     OW33489   5.849   5.912   6.306
10630SOL    HW133490   5.770   5.963   6.272
10630SOL    HW233491   5.840   5.897   6.404
10631SOL     OW33492   6.780   7.198   5.617
10631SOL    HW133493   6.786   7.105   5.654
10631SOL    HW233494   6.721   7.198   5.537
10632SOL     OW33495   6.408   6.588   6.958
10632SOL    HW133496   6.448   6.587   6.866
10632SOL    HW233497   6.418   6.680   6.998
10633SOL     OW33498   6.502   6.496   5.877
10633SOL    HW133499   6.565   6.534   5.809
10633SOL    HW233500   6.542   6.413   5.916
10634SOL     OW33501   5.958   6.874   7.076
10634SOL    HW133502   5.945   6.967   7.042
10634SOL    HW233503   5.874   6.822   7.063
10635SOL     OW33504   6.625   6.684   6.282
10635SOL    HW133505   6.555   6.637   6.336
10635SOL    HW233506   6.684   6.616   6.239
10636SOL     OW33507   6.600   5.822   6.557
10636SOL    HW133508   6.592   5.786   6.464
10636SOL    HW233509   6.598   5.746   6.622
10637SOL     OW33510   5.661   5.931   5.619
10637SOL    HW133511   5.569   5.903   5.590
10637SOL    HW233512   5.692   6.008   5.563
10638SOL     OW33513   5.658   5.752   5.904
10638SOL    HW133514   5.641   5.835   5.850
10638SOL    HW233515   5.748   5.715   5.882
10639SOL     OW33516   6.811   5.911   6.035
10639SOL    HW133517   6.876   5.837   6.024
10639SOL    HW233518   6.831   5.961   6.119
10640SOL     OW33519   6.180   6.331   6.238
10640SOL    HW133520   6.230   6.416   6.219
10640SOL    HW233521   6.092   6.333   6.190
10641SOL     OW33522   6.445   6.542   6.447
10641SOL    HW133523   6.499   6.473   6.495
10641SOL    HW233524   6.413   6.611   6.513
10642SOL     OW33525   6.669   6.570   5.673
10642SOL    HW133526   6.646   6.623   5.591
10642SOL    HW233527   6.750   6.514   5.654
10643SOL     OW33528   5.665   6.826   6.239
10643SOL    HW133529   5.664   6.779   6.327
10643SOL    HW233530   5.747   6.798   6.188
10644SOL     OW33531   6.014   6.010   6.106
10644SOL    HW133532   6.044   5.938   6.044
10644SOL    HW233533   5.975   5.970   6.189
10645SOL     OW33534   5.903   6.133   6.866
10645SOL    HW133535   5.941   6.074   6.938
10645SOL    HW233536   5.943   6.107   6.778
10646SOL     OW33537   6.587   5.620   6.740
10646SOL    HW133538   6.524   5.548   6.709
10646SOL    HW233539   6.680   5.584   6.740
10647SOL     OW33540   6.356   6.916   5.887
10647SOL    HW133541   6.310   6.829   5.904
10647SOL    HW233542   6.447   6.913   5.928
10648SOL     OW33543   6.938   5.638   5.754
10648SOL    HW133544   6.973   5.597   5.670
10648SOL    HW233545   6.848   5.600   5.774
10649SOL     OW33546   5.625   6.663   5.886
10649SOL    HW133547   5.724   6.652   5.877
10649SOL    HW233548   5.585   6.577   5.918
   7.00000   7.00000   7.00000
