Generated by trjconv : CNT in water t=  25.00000
33518
    1C        C    1   2.844   2.770   4.747
    1C        C    2   2.895   2.718   4.868
    1C        C    3   2.832   2.768   4.983
    1C        C    4   2.850   2.772   4.262
    1C        C    5   2.904   2.728   4.385
    1C        C    6   2.850   2.778   4.506
    1C        C    7   3.010   2.636   4.629
    1C        C    8   2.895   2.719   4.626
    1C        C    9   3.075   2.597   4.747
    1C        C   10   3.008   2.633   4.866
    1C        C   11   3.179   2.490   4.978
    1C        C   12   3.059   2.563   4.976
    1C        C   13   2.850   2.776   3.770
    1C        C   14   2.901   2.725   3.892
    1C        C   15   2.852   2.774   4.015
    1C        C   16   3.020   2.649   4.139
    1C        C   17   2.902   2.727   4.138
    1C        C   18   3.081   2.614   4.261
    1C        C   19   3.018   2.645   4.384
    1C        C   20   3.207   2.557   4.505
    1C        C   21   3.075   2.606   4.507
    1C        C   22   3.278   2.541   4.626
    1C        C   23   3.205   2.537   4.747
    1C        C   24   3.411   2.483   4.863
    1C        C   25   3.269   2.496   4.867
    1C        C   26   3.487   2.476   4.981
    1C        C   27   2.850   2.770   3.279
    1C        C   28   2.904   2.725   3.402
    1C        C   29   2.851   2.774   3.524
    1C        C   30   3.017   2.645   3.649
    1C        C   31   2.902   2.727   3.648
    1C        C   32   3.077   2.609   3.772
    1C        C   33   3.015   2.642   3.894
    1C        C   34   3.209   2.556   4.016
    1C        C   35   3.079   2.612   4.016
    1C        C   36   3.275   2.534   4.139
    1C        C   37   3.208   2.552   4.262
    1C        C   38   3.416   2.510   4.382
    1C        C   39   3.278   2.538   4.384
    1C        C   40   3.487   2.501   4.503
    1C        C   41   3.415   2.507   4.625
    1C        C   42   3.631   2.480   4.743
    1C        C   43   3.489   2.487   4.744
    1C        C   44   3.703   2.476   4.864
    1C        C   45   3.626   2.473   4.981
    1C        C   46   2.841   2.755   2.791
    1C        C   47   2.895   2.711   2.913
    1C        C   48   2.843   2.757   3.037
    1C        C   49   3.015   2.632   3.160
    1C        C   50   2.901   2.715   3.159
    1C        C   51   3.073   2.598   3.284
    1C        C   52   3.017   2.641   3.406
    1C        C   53   3.208   2.547   3.528
    1C        C   54   3.081   2.608   3.528
    1C        C   55   3.275   2.524   3.650
    1C        C   56   3.205   2.549   3.770
    1C        C   57   3.413   2.508   3.894
    1C        C   58   3.274   2.531   3.893
    1C        C   59   3.485   2.503   4.015
    1C        C   60   3.414   2.511   4.137
    1C        C   61   3.627   2.498   4.256
    1C        C   62   3.485   2.503   4.259
    1C        C   63   3.699   2.504   4.377
    1C        C   64   3.628   2.498   4.499
    1C        C   65   3.835   2.540   4.620
    1C        C   66   3.699   2.502   4.622
    1C        C   67   3.902   2.560   4.742
    1C        C   68   3.836   2.524   4.862
    1C        C   69   4.049   2.580   4.973
    1C        C   70   3.919   2.529   4.975
    1C        C   71   2.821   2.732   2.306
    1C        C   72   2.881   2.691   2.427
    1C        C   73   2.830   2.744   2.548
    1C        C   74   3.009   2.628   2.671
    1C        C   75   2.889   2.702   2.669
    1C        C   76   3.074   2.597   2.793
    1C        C   77   3.012   2.632   2.915
    1C        C   78   3.207   2.548   3.036
    1C        C   79   3.074   2.597   3.037
    1C        C   80   3.271   2.524   3.160
    1C        C   81   3.204   2.543   3.283
    1C        C   82   3.411   2.499   3.397
    1C        C   83   3.272   2.522   3.405
    1C        C   84   3.479   2.499   3.521
    1C        C   85   3.415   2.504   3.647
    1C        C   86   3.624   2.504   3.767
    1C        C   87   3.483   2.500   3.771
    1C        C   88   3.695   2.510   3.889
    1C        C   89   3.626   2.508   4.013
    1C        C   90   3.834   2.547   4.134
    1C        C   91   3.698   2.509   4.135
    1C        C   92   3.899   2.574   4.257
    1C        C   93   3.836   2.538   4.378
    1C        C   94   4.029   2.629   4.498
    1C        C   95   3.906   2.560   4.499
    1C        C   96   4.091   2.666   4.619
    1C        C   97   4.029   2.623   4.739
    1C        C   98   4.187   2.765   4.862
    1C        C   99   4.097   2.653   4.860
    1C        C  100   4.216   2.840   4.976
    1C        C  101   2.821   2.728   2.065
    1C        C  102   2.989   2.593   2.190
    1C        C  103   2.874   2.678   2.185
    1C        C  104   3.063   2.571   2.309
    1C        C  105   3.000   2.615   2.427
    1C        C  106   3.199   2.537   2.548
    1C        C  107   3.069   2.591   2.548
    1C        C  108   3.269   2.522   2.670
    1C        C  109   3.202   2.537   2.793
    1C        C  110   3.412   2.493   2.916
    1C        C  111   3.273   2.522   2.914
    1C        C  112   3.484   2.483   3.037
    1C        C  113   3.410   2.497   3.156
    1C        C  114   3.625   2.498   3.278
    1C        C  115   3.484   2.489   3.276
    1C        C  116   3.692   2.510   3.402
    1C        C  117   3.620   2.507   3.524
    1C        C  118   3.832   2.542   3.644
    1C        C  119   3.694   2.513   3.645
    1C        C  120   3.899   2.564   3.766
    1C        C  121   3.832   2.542   3.889
    1C        C  122   4.021   2.641   4.011
    1C        C  123   3.898   2.571   4.010
    1C        C  124   4.085   2.673   4.133
    1C        C  125   4.026   2.635   4.256
    1C        C  126   4.195   2.765   4.377
    1C        C  127   4.089   2.671   4.377
    1C        C  128   4.244   2.817   4.499
    1C        C  129   4.195   2.761   4.619
    1C        C  130   4.321   2.934   4.739
    1C        C  131   4.243   2.815   4.741
    1C        C  132   4.354   3.003   4.858
    1C        C  133   4.285   2.961   4.972
    1C        C  134   3.171   2.468   2.082
    1C        C  135   3.037   2.511   2.083
    1C        C  136   3.260   2.477   2.189
    1C        C  137   3.195   2.517   2.308
    1C        C  138   3.405   2.476   2.426
    1C        C  139   3.266   2.500   2.429
    1C        C  140   3.478   2.484   2.547
    1C        C  141   3.408   2.497   2.669
    1C        C  142   3.620   2.488   2.790
    1C        C  143   3.478   2.488   2.791
    1C        C  144   3.692   2.497   2.911
    1C        C  145   3.625   2.485   3.035
    1C        C  146   3.834   2.531   3.154
    1C        C  147   3.696   2.500   3.156
    1C        C  148   3.896   2.562   3.277
    1C        C  149   3.828   2.545   3.400
    1C        C  150   4.023   2.632   3.523
    1C        C  151   3.897   2.568   3.521
    1C        C  152   4.081   2.670   3.646
    1C        C  153   4.023   2.631   3.769
    1C        C  154   4.193   2.765   3.888
    1C        C  155   4.084   2.674   3.889
    1C        C  156   4.245   2.809   4.011
    1C        C  157   4.197   2.759   4.134
    1C        C  158   4.338   2.921   4.251
    1C        C  159   4.245   2.815   4.255
    1C        C  160   4.372   2.983   4.374
    1C        C  161   4.324   2.933   4.497
    1C        C  162   4.432   3.117   4.614
    1C        C  163   4.356   2.998   4.618
    1C        C  164   4.465   3.183   4.734
    1C        C  165   4.433   3.120   4.856
    1C        C  166   4.504   3.322   4.974
    1C        C  167   4.471   3.186   4.973
    1C        C  168   3.476   2.432   2.071
    1C        C  169   3.400   2.458   2.186
    1C        C  170   3.618   2.464   2.306
    1C        C  171   3.476   2.462   2.305
    1C        C  172   3.692   2.481   2.425
    1C        C  173   3.620   2.481   2.546
    1C        C  174   3.824   2.540   2.665
    1C        C  175   3.690   2.495   2.667
    1C        C  176   3.891   2.562   2.787
    1C        C  177   3.827   2.536   2.910
    1C        C  178   4.024   2.620   3.031
    1C        C  179   3.899   2.554   3.031
    1C        C  180   4.084   2.661   3.152
    1C        C  181   4.023   2.625   3.274
    1C        C  182   4.193   2.747   3.397
    1C        C  183   4.083   2.658   3.398
    1C        C  184   4.243   2.800   3.518
    1C        C  185   4.194   2.755   3.643
    1C        C  186   4.338   2.912   3.761
    1C        C  187   4.247   2.804   3.764
    1C        C  188   4.380   2.970   3.883
    1C        C  189   4.340   2.914   4.006
    1C        C  190   4.438   3.105   4.125
    1C        C  191   4.376   2.978   4.127
    1C        C  192   4.468   3.170   4.246
    1C        C  193   4.437   3.108   4.369
    1C        C  194   4.509   3.311   4.487
    1C        C  195   4.464   3.177   4.490
    1C        C  196   4.527   3.382   4.607
    1C        C  197   4.510   3.318   4.732
    1C        C  198   4.555   3.529   4.849
    1C        C  199   4.530   3.389   4.854
    1C        C  200   4.579   3.616   4.960
    1C        C  201   3.615   2.412   2.072
    1C        C  202   3.827   2.504   2.180
    1C        C  203   3.692   2.455   2.185
    1C        C  204   3.896   2.537   2.300
    1C        C  205   3.829   2.516   2.422
    1C        C  206   4.019   2.618   2.544
    1C        C  207   3.893   2.553   2.542
    1C        C  208   4.079   2.661   2.664
    1C        C  209   4.015   2.630   2.786
    1C        C  210   4.196   2.743   2.908
    1C        C  211   4.080   2.662   2.908
    1C        C  212   4.250   2.792   3.029
    1C        C  213   4.198   2.744   3.151
    1C        C  214   4.329   2.909   3.273
    1C        C  215   4.243   2.796   3.275
    1C        C  216   4.367   2.970   3.394
    1C        C  217   4.328   2.913   3.517
    1C        C  218   4.434   3.099   3.637
    1C        C  219   4.371   2.972   3.637
    1C        C  220   4.463   3.165   3.758
    1C        C  221   4.446   3.096   3.880
    1C        C  222   4.492   3.305   4.002
    1C        C  223   4.464   3.166   4.000
    1C        C  224   4.510   3.378   4.122
    1C        C  225   4.501   3.307   4.244
    1C        C  226   4.516   3.522   4.366
    1C        C  227   4.517   3.380   4.364
    1C        C  228   4.518   3.595   4.487
    1C        C  229   4.529   3.524   4.608
    1C        C  230   4.509   3.740   4.726
    1C        C  231   4.536   3.600   4.727
    1C        C  232   4.502   3.817   4.844
    1C        C  233   4.539   3.750   4.962
    1C        C  234   4.015   2.612   2.061
    1C        C  235   3.894   2.544   2.064
    1C        C  236   4.080   2.649   2.179
    1C        C  237   4.021   2.606   2.300
    1C        C  238   4.195   2.733   2.420
    1C        C  239   4.082   2.647   2.421
    1C        C  240   4.249   2.782   2.541
    1C        C  241   4.198   2.737   2.665
    1C        C  242   4.335   2.902   2.782
    1C        C  243   4.247   2.791   2.786
    1C        C  244   4.372   2.963   2.904
    1C        C  245   4.332   2.907   3.027
    1C        C  246   4.436   3.090   3.146
    1C        C  247   4.371   2.965   3.150
    1C        C  248   4.466   3.156   3.268
    1C        C  249   4.430   3.097   3.391
    1C        C  250   4.494   3.299   3.511
    1C        C  251   4.459   3.162   3.513
    1C        C  252   4.503   3.368   3.634
    1C        C  253   4.499   3.302   3.759
    1C        C  254   4.519   3.514   3.875
    1C        C  255   4.513   3.373   3.880
    1C        C  256   4.510   3.585   3.997
    1C        C  257   4.517   3.519   4.122
    1C        C  258   4.492   3.730   4.240
    1C        C  259   4.515   3.591   4.243
    1C        C  260   4.481   3.804   4.360
    1C        C  261   4.497   3.735   4.482
    1C        C  262   4.425   3.935   4.602
    1C        C  263   4.481   3.805   4.604
    1C        C  264   4.394   4.002   4.722
    1C        C  265   4.435   3.941   4.843
    1C        C  266   4.323   4.129   4.955
    1C        C  267   4.395   4.011   4.957
    1C        C  268   4.261   2.773   2.063
    1C        C  269   4.194   2.732   2.179
    1C        C  270   4.341   2.891   2.301
    1C        C  271   4.249   2.783   2.299
    1C        C  272   4.378   2.956   2.420
    1C        C  273   4.333   2.896   2.540
    1C        C  274   4.446   3.080   2.660
    1C        C  275   4.376   2.958   2.659
    1C        C  276   4.477   3.148   2.780
    1C        C  277   4.446   3.084   2.902
    1C        C  278   4.501   3.290   3.023
    1C        C  279   4.469   3.152   3.023
    1C        C  280   4.513   3.362   3.144
    1C        C  281   4.503   3.292   3.267
    1C        C  282   4.512   3.507   3.389
    1C        C  283   4.512   3.366   3.388
    1C        C  284   4.505   3.579   3.510
    1C        C  285   4.508   3.509   3.633
    1C        C  286   4.485   3.723   3.751
    1C        C  287   4.508   3.584   3.753
    1C        C  288   4.468   3.791   3.874
    1C        C  289   4.487   3.725   3.997
    1C        C  290   4.426   3.931   4.115
    1C        C  291   4.475   3.798   4.117
    1C        C  292   4.395   3.994   4.237
    1C        C  293   4.426   3.934   4.361
    1C        C  294   4.319   4.122   4.478
    1C        C  295   4.391   4.000   4.481
    1C        C  296   4.280   4.184   4.599
    1C        C  297   4.326   4.127   4.720
    1C        C  298   4.202   4.313   4.835
    1C        C  299   4.285   4.196   4.837
    1C        C  300   4.169   4.399   4.944
    1C        C  301   4.346   2.883   2.061
    1C        C  302   4.466   3.065   2.175
    1C        C  303   4.391   2.944   2.178
    1C        C  304   4.479   3.140   2.295
    1C        C  305   4.441   3.082   2.418
    1C        C  306   4.511   3.284   2.536
    1C        C  307   4.475   3.147   2.539
    1C        C  308   4.525   3.356   2.657
    1C        C  309   4.508   3.286   2.778
    1C        C  310   4.528   3.497   2.896
    1C        C  311   4.515   3.357   2.900
    1C        C  312   4.519   3.569   3.017
    1C        C  313   4.518   3.503   3.142
    1C        C  314   4.485   3.712   3.262
    1C        C  315   4.514   3.573   3.264
    1C        C  316   4.474   3.784   3.383
    1C        C  317   4.487   3.719   3.508
    1C        C  318   4.426   3.926   3.628
    1C        C  319   4.470   3.792   3.628
    1C        C  320   4.395   3.989   3.751
    1C        C  321   4.422   3.924   3.873
    1C        C  322   4.314   4.111   3.988
    1C        C  323   4.391   3.993   3.993
    1C        C  324   4.277   4.171   4.111
    1C        C  325   4.320   4.113   4.232
    1C        C  326   4.186   4.281   4.354
    1C        C  327   4.280   4.176   4.353
    1C        C  328   4.134   4.335   4.474
    1C        C  329   4.192   4.293   4.596
    1C        C  330   4.021   4.429   4.712
    1C        C  331   4.141   4.353   4.713
    1C        C  332   3.969   4.489   4.829
    1C        C  333   4.052   4.477   4.941
    1C        C  334   4.548   3.264   2.059
    1C        C  335   4.532   3.125   2.063
    1C        C  336   4.538   3.346   2.172
    1C        C  337   4.509   3.279   2.293
    1C        C  338   4.522   3.494   2.407
    1C        C  339   4.519   3.353   2.413
    1C        C  340   4.521   3.566   2.529
    1C        C  341   4.524   3.498   2.652
    1C        C  342   4.490   3.707   2.772
    1C        C  343   4.519   3.568   2.774
    1C        C  344   4.472   3.776   2.894
    1C        C  345   4.488   3.707   3.016
    1C        C  346   4.421   3.910   3.137
    1C        C  347   4.467   3.776   3.138
    1C        C  348   4.384   3.973   3.258
    1C        C  349   4.422   3.915   3.381
    1C        C  350   4.319   4.102   3.501
    1C        C  351   4.396   3.983   3.502
    1C        C  352   4.274   4.162   3.621
    1C        C  353   4.316   4.106   3.743
    1C        C  354   4.178   4.270   3.868
    1C        C  355   4.270   4.163   3.864
    1C        C  356   4.125   4.322   3.988
    1C        C  357   4.182   4.276   4.108
    1C        C  358   4.010   4.396   4.229
    1C        C  359   4.130   4.322   4.231
    1C        C  360   3.951   4.439   4.350
    1C        C  361   4.017   4.415   4.473
    1C        C  362   3.825   4.517   4.591
    1C        C  363   3.953   4.457   4.591
    1C        C  364   3.761   4.543   4.714
    1C        C  365   3.837   4.538   4.833
    1C        C  366   3.626   4.593   4.945
    1C        C  367   3.761   4.561   4.949
    1C        C  368   4.511   3.562   2.052
    1C        C  369   4.526   3.487   2.169
    1C        C  370   4.501   3.706   2.284
    1C        C  371   4.517   3.566   2.285
    1C        C  372   4.481   3.774   2.406
    1C        C  373   4.498   3.706   2.529
    1C        C  374   4.424   3.907   2.648
    1C        C  375   4.473   3.775   2.650
    1C        C  376   4.391   3.971   2.769
    1C        C  377   4.427   3.910   2.891
    1C        C  378   4.323   4.094   3.010
    1C        C  379   4.397   3.974   3.014
    1C        C  380   4.279   4.155   3.130
    1C        C  381   4.311   4.094   3.253
    1C        C  382   4.174   4.251   3.376
    1C        C  383   4.273   4.151   3.377
    1C        C  384   4.123   4.307   3.496
    1C        C  385   4.174   4.262   3.620
    1C        C  386   4.010   4.391   3.744
    1C        C  387   4.127   4.313   3.743
    1C        C  388   3.944   4.429   3.863
    1C        C  389   4.007   4.400   3.986
    1C        C  390   3.816   4.490   4.108
    1C        C  391   3.944   4.430   4.109
    1C        C  392   3.751   4.516   4.230
    1C        C  393   3.824   4.500   4.350
    1C        C  394   3.615   4.546   4.475
    1C        C  395   3.756   4.533   4.470
    1C        C  396   3.543   4.564   4.594
    1C        C  397   3.621   4.563   4.712
    1C        C  398   3.407   4.547   4.840
    1C        C  399   3.546   4.571   4.831
    1C        C  400   3.337   4.511   4.956
    1C        C  401   4.506   3.701   2.046
    1C        C  402   4.454   3.914   2.164
    1C        C  403   4.490   3.777   2.162
    1C        C  404   4.408   3.972   2.284
    1C        C  405   4.439   3.908   2.407
    1C        C  406   4.327   4.094   2.525
    1C        C  407   4.402   3.975   2.526
    1C        C  408   4.275   4.146   2.646
    1C        C  409   4.312   4.088   2.769
    1C        C  410   4.172   4.249   2.889
    1C        C  411   4.273   4.150   2.890
    1C        C  412   4.122   4.300   3.010
    1C        C  413   4.181   4.257   3.131
    1C        C  414   4.004   4.375   3.255
    1C        C  415   4.122   4.298   3.253
    1C        C  416   3.941   4.414   3.375
    1C        C  417   4.006   4.386   3.497
    1C        C  418   3.816   4.476   3.621
    1C        C  419   3.947   4.423   3.621
    1C        C  420   3.748   4.505   3.741
    1C        C  421   3.815   4.487   3.864
    1C        C  422   3.608   4.529   3.987
    1C        C  423   3.748   4.511   3.986
    1C        C  424   3.538   4.537   4.110
    1C        C  425   3.612   4.540   4.231
    1C        C  426   3.402   4.546   4.354
    1C        C  427   3.543   4.550   4.354
    1C        C  428   3.330   4.552   4.476
    1C        C  429   3.401   4.561   4.597
    1C        C  430   3.195   4.511   4.720
    1C        C  431   3.332   4.547   4.720
    1C        C  432   3.122   4.486   4.840
    1C        C  433   3.199   4.494   4.957
    1C        C  434   4.381   4.118   2.048
    1C        C  435   4.449   3.995   2.050
    1C        C  436   4.302   4.156   2.161
    1C        C  437   4.330   4.091   2.284
    1C        C  438   4.183   4.251   2.401
    1C        C  439   4.282   4.150   2.403
    1C        C  440   4.126   4.299   2.521
    1C        C  441   4.175   4.246   2.643
    1C        C  442   4.003   4.369   2.766
    1C        C  443   4.121   4.293   2.765
    1C        C  444   3.940   4.404   2.888
    1C        C  445   3.999   4.369   3.011
    1C        C  446   3.811   4.466   3.132
    1C        C  447   3.940   4.407   3.134
    1C        C  448   3.745   4.490   3.255
    1C        C  449   3.810   4.467   3.378
    1C        C  450   3.608   4.529   3.497
    1C        C  451   3.747   4.499   3.500
    1C        C  452   3.539   4.542   3.619
    1C        C  453   3.610   4.536   3.742
    1C        C  454   3.398   4.541   3.865
    1C        C  455   3.540   4.543   3.864
    1C        C  456   3.328   4.528   3.986
    1C        C  457   3.397   4.537   4.109
    1C        C  458   3.193   4.500   4.236
    1C        C  459   3.330   4.535   4.233
    1C        C  460   3.124   4.485   4.359
    1C        C  461   3.193   4.515   4.478
    1C        C  462   2.994   4.438   4.602
    1C        C  463   3.125   4.490   4.599
    1C        C  464   2.924   4.407   4.721
    1C        C  465   2.985   4.446   4.843
    1C        C  466   2.802   4.333   4.958
    1C        C  467   2.909   4.423   4.962
    1C        C  468   4.123   4.283   2.042
    1C        C  469   4.186   4.240   2.159
    1C        C  470   4.007   4.368   2.278
    1C        C  471   4.127   4.292   2.278
    1C        C  472   3.942   4.398   2.399
    1C        C  473   4.003   4.368   2.523
    1C        C  474   3.813   4.466   2.643
    1C        C  475   3.941   4.406   2.644
    1C        C  476   3.748   4.496   2.765
    1C        C  477   3.815   4.469   2.886
    1C        C  478   3.608   4.515   3.007
    1C        C  479   3.747   4.488   3.009
    1C        C  480   3.539   4.530   3.129
    1C        C  481   3.608   4.526   3.252
    1C        C  482   3.397   4.532   3.377
    1C        C  483   3.538   4.537   3.375
    1C        C  484   3.326   4.532   3.499
    1C        C  485   3.398   4.544   3.619
    1C        C  486   3.192   4.499   3.745
    1C        C  487   3.329   4.535   3.742
    1C        C  488   3.124   4.473   3.867
    1C        C  489   3.190   4.497   3.990
    1C        C  490   3.000   4.412   4.113
    1C        C  491   3.126   4.477   4.114
    1C        C  492   2.945   4.374   4.237
    1C        C  493   2.998   4.421   4.360
    1C        C  494   2.829   4.298   4.482
    1C        C  495   2.934   4.393   4.482
    1C        C  496   2.774   4.253   4.604
    1C        C  497   2.812   4.319   4.723
    1C        C  498   2.663   4.165   4.841
    1C        C  499   2.748   4.277   4.841
    1C        C  500   2.590   4.120   4.952
    1C        C  501   4.006   4.358   2.038
    1C        C  502   3.817   4.461   2.156
    1C        C  503   3.944   4.401   2.156
    1C        C  504   3.746   4.484   2.276
    1C        C  505   3.810   4.451   2.397
    1C        C  506   3.607   4.507   2.520
    1C        C  507   3.745   4.478   2.520
    1C        C  508   3.535   4.518   2.641
    1C        C  509   3.608   4.516   2.762
    1C        C  510   3.397   4.526   2.885
    1C        C  511   3.538   4.523   2.885
    1C        C  512   3.326   4.514   3.008
    1C        C  513   3.398   4.528   3.129
    1C        C  514   3.192   4.493   3.254
    1C        C  515   3.330   4.524   3.252
    1C        C  516   3.126   4.470   3.378
    1C        C  517   3.187   4.503   3.501
    1C        C  518   2.998   4.410   3.622
    1C        C  519   3.123   4.476   3.624
    1C        C  520   2.941   4.376   3.747
    1C        C  521   2.999   4.408   3.871
    1C        C  522   2.832   4.278   3.996
    1C        C  523   2.937   4.372   3.993
    1C        C  524   2.781   4.232   4.120
    1C        C  525   2.835   4.286   4.239
    1C        C  526   2.698   4.127   4.364
    1C        C  527   2.780   4.242   4.362
    1C        C  528   2.649   4.074   4.486
    1C        C  529   2.686   4.143   4.604
    1C        C  530   2.589   3.955   4.732
    1C        C  531   2.646   4.085   4.726
    1C        C  532   2.540   3.901   4.854
    1C        C  533   2.525   3.996   4.960
    1C        C  534   3.616   4.557   2.043
    1C        C  535   3.745   4.504   2.044
    1C        C  536   3.535   4.535   2.159
    1C        C  537   3.607   4.517   2.280
    1C        C  538   3.392   4.511   2.402
    1C        C  539   3.533   4.519   2.400
    1C        C  540   3.319   4.506   2.523
    1C        C  541   3.394   4.513   2.642
    1C        C  542   3.186   4.485   2.765
    1C        C  543   3.324   4.517   2.765
    1C        C  544   3.123   4.459   2.889
    1C        C  545   3.190   4.477   3.012
    1C        C  546   2.996   4.399   3.135
    1C        C  547   3.123   4.462   3.135
    1C        C  548   2.940   4.361   3.259
    1C        C  549   3.002   4.403   3.379
    1C        C  550   2.832   4.277   3.506
    1C        C  551   2.939   4.370   3.500
    1C        C  552   2.783   4.229   3.629
    1C        C  553   2.830   4.288   3.749
    1C        C  554   2.695   4.125   3.873
    1C        C  555   2.781   4.238   3.871
    1C        C  556   2.655   4.065   3.994
    1C        C  557   2.689   4.124   4.118
    1C        C  558   2.595   3.941   4.245
    1C        C  559   2.656   4.068   4.243
    1C        C  560   2.568   3.877   4.368
    1C        C  561   2.592   3.945   4.490
    1C        C  562   2.529   3.745   4.614
    1C        C  563   2.570   3.880   4.614
    1C        C  564   2.505   3.683   4.739
    1C        C  565   2.511   3.760   4.858
    1C        C  566   2.524   3.543   4.976
    1C        C  567   2.524   3.682   4.974
    1C        C  568   3.329   4.481   2.039
    1C        C  569   3.395   4.513   2.158
    1C        C  570   3.183   4.472   2.278
    1C        C  571   3.321   4.506   2.280
    1C        C  572   3.114   4.458   2.400
    1C        C  573   3.180   4.483   2.523
    1C        C  574   2.987   4.401   2.647
    1C        C  575   3.113   4.466   2.646
    1C        C  576   2.929   4.364   2.771
    1C        C  577   2.997   4.395   2.891
    1C        C  578   2.825   4.271   3.013
    1C        C  579   2.935   4.361   3.013
    1C        C  580   2.784   4.218   3.137
    1C        C  581   2.835   4.267   3.260
    1C        C  582   2.699   4.111   3.382
    1C        C  583   2.785   4.223   3.385
    1C        C  584   2.661   4.056   3.506
    1C        C  585   2.697   4.116   3.629
    1C        C  586   2.599   3.933   3.751
    1C        C  587   2.662   4.059   3.753
    1C        C  588   2.571   3.873   3.876
    1C        C  589   2.594   3.938   4.000
    1C        C  590   2.539   3.735   4.128
    1C        C  591   2.575   3.871   4.123
    1C        C  592   2.518   3.670   4.252
    1C        C  593   2.530   3.741   4.373
    1C        C  594   2.500   3.530   4.497
    1C        C  595   2.516   3.671   4.495
    1C        C  596   2.508   3.464   4.621
    1C        C  597   2.507   3.541   4.739
    1C        C  598   2.533   3.326   4.864
    1C        C  599   2.521   3.467   4.859
    1C        C  600   2.536   3.248   4.980
    1C        C  601   3.195   4.445   2.045
    1C        C  602   2.979   4.391   2.156
    1C        C  603   3.115   4.434   2.159
    1C        C  604   2.925   4.358   2.283
    1C        C  605   2.985   4.400   2.404
    1C        C  606   2.817   4.272   2.529
    1C        C  607   2.923   4.365   2.527
    1C        C  608   2.768   4.222   2.651
    1C        C  609   2.818   4.277   2.771
    1C        C  610   2.682   4.113   2.891
    1C        C  611   2.766   4.227   2.892
    1C        C  612   2.656   4.054   3.017
    1C        C  613   2.698   4.107   3.142
    1C        C  614   2.591   3.923   3.265
    1C        C  615   2.653   4.050   3.263
    1C        C  616   2.568   3.861   3.390
    1C        C  617   2.596   3.930   3.510
    1C        C  618   2.529   3.728   3.636
    1C        C  619   2.566   3.865   3.631
    1C        C  620   2.513   3.664   3.761
    1C        C  621   2.529   3.738   3.880
    1C        C  622   2.506   3.529   4.009
    1C        C  623   2.524   3.669   4.003
    1C        C  624   2.507   3.457   4.130
    1C        C  625   2.508   3.529   4.251
    1C        C  626   2.537   3.322   4.378
    1C        C  627   2.506   3.460   4.374
    1C        C  628   2.560   3.255   4.501
    1C        C  629   2.533   3.325   4.620
    1C        C  630   2.592   3.120   4.742
    1C        C  631   2.546   3.255   4.742
    1C        C  632   2.610   3.046   4.862
    1C        C  633   2.556   3.109   4.978
    1C        C  634   2.785   4.299   2.051
    1C        C  635   2.888   4.394   2.046
    1C        C  636   2.748   4.232   2.168
    1C        C  637   2.806   4.280   2.288
    1C        C  638   2.682   4.105   2.410
    1C        C  639   2.764   4.221   2.409
    1C        C  640   2.639   4.048   2.531
    1C        C  641   2.681   4.110   2.651
    1C        C  642   2.582   3.921   2.777
    1C        C  643   2.641   4.049   2.772
    1C        C  644   2.563   3.858   2.902
    1C        C  645   2.595   3.927   3.021
    1C        C  646   2.524   3.724   3.145
    1C        C  647   2.568   3.859   3.142
    1C        C  648   2.516   3.656   3.268
    1C        C  649   2.530   3.725   3.391
    1C        C  650   2.504   3.516   3.515
    1C        C  651   2.516   3.657   3.514
    1C        C  652   2.506   3.452   3.641
    1C        C  653   2.508   3.523   3.763
    1C        C  654   2.534   3.317   3.889
    1C        C  655   2.510   3.456   3.888
    1C        C  656   2.556   3.249   4.010
    1C        C  657   2.535   3.318   4.131
    1C        C  658   2.607   3.123   4.256
    1C        C  659   2.553   3.253   4.256
    1C        C  660   2.641   3.060   4.378
    1C        C  661   2.610   3.123   4.501
    1C        C  662   2.709   2.937   4.626
    1C        C  663   2.632   3.056   4.623
    1C        C  664   2.757   2.883   4.747
    1C        C  665   2.697   2.932   4.866
    1C        C  666   2.733   2.865   4.984
    1C        C  667   2.673   4.023   2.054
    1C        C  668   2.686   4.105   2.167
    1C        C  669   2.589   3.914   2.292
    1C        C  670   2.646   4.045   2.288
    1C        C  671   2.558   3.848   2.413
    1C        C  672   2.577   3.921   2.533
    1C        C  673   2.520   3.717   2.659
    1C        C  674   2.556   3.854   2.656
    1C        C  675   2.510   3.647   2.781
    1C        C  676   2.532   3.720   2.901
    1C        C  677   2.503   3.512   3.026
    1C        C  678   2.514   3.652   3.023
    1C        C  679   2.509   3.442   3.148
    1C        C  680   2.509   3.515   3.269
    1C        C  681   2.527   3.307   3.399
    1C        C  682   2.505   3.446   3.393
    1C        C  683   2.552   3.242   3.522
    1C        C  684   2.528   3.313   3.642
    1C        C  685   2.601   3.117   3.771
    1C        C  686   2.547   3.247   3.766
    1C        C  687   2.636   3.051   3.891
    1C        C  688   2.608   3.117   4.013
    1C        C  689   2.718   2.938   4.139
    1C        C  690   2.640   3.056   4.136
    1C        C  691   2.758   2.880   4.261
    1C        C  692   2.721   2.944   4.382
    1C        C  693   2.754   2.881   4.504
    1C        C  694   2.640   3.887   2.063
    1C        C  695   2.520   3.705   2.176
    1C        C  696   2.578   3.834   2.177
    1C        C  697   2.502   3.637   2.298
    1C        C  698   2.521   3.712   2.416
    1C        C  699   2.487   3.505   2.539
    1C        C  700   2.501   3.646   2.539
    1C        C  701   2.495   3.433   2.660
    1C        C  702   2.493   3.507   2.781
    1C        C  703   2.523   3.300   2.909
    1C        C  704   2.498   3.439   2.904
    1C        C  705   2.543   3.233   3.032
    1C        C  706   2.528   3.302   3.154
    1C        C  707   2.602   3.107   3.278
    1C        C  708   2.543   3.236   3.278
    1C        C  709   2.632   3.045   3.402
    1C        C  710   2.599   3.109   3.523
    1C        C  711   2.712   2.937   3.646
    1C        C  712   2.633   3.054   3.649
    1C        C  713   2.754   2.879   3.768
    1C        C  714   2.717   2.935   3.893
    1C        C  715   2.763   2.884   4.016
    1C        C  716   2.447   3.499   2.064
    1C        C  717   2.491   3.631   2.060
    1C        C  718   2.462   3.420   2.183
    1C        C  719   2.482   3.496   2.301
    1C        C  720   2.521   3.286   2.423
    1C        C  721   2.496   3.425   2.423
    1C        C  722   2.536   3.219   2.547
    1C        C  723   2.521   3.294   2.665
    1C        C  724   2.592   3.096   2.790
    1C        C  725   2.542   3.228   2.788
    1C        C  726   2.624   3.035   2.914
    1C        C  727   2.593   3.101   3.035
    1C        C  728   2.704   2.919   3.155
    1C        C  729   2.630   3.040   3.157
    1C        C  730   2.753   2.873   3.279
    1C        C  731   2.710   2.927   3.402
    1C        C  732   2.752   2.875   3.526
    1C        C  733   2.494   3.196   2.069
    1C        C  734   2.492   3.280   2.180
    1C        C  735   2.588   3.086   2.303
    1C        C  736   2.531   3.216   2.301
    1C        C  737   2.614   3.019   2.424
    1C        C  738   2.588   3.087   2.545
    1C        C  739   2.700   2.911   2.669
    1C        C  740   2.624   3.031   2.669
    1C        C  741   2.744   2.858   2.792
    1C        C  742   2.702   2.918   2.913
    1C        C  743   2.746   2.859   3.034
    1C        C  744   2.542   3.066   2.070
    1C        C  745   2.688   2.898   2.180
    1C        C  746   2.609   3.015   2.182
    1C        C  747   2.726   2.837   2.302
    1C        C  748   2.689   2.899   2.423
    1C        C  749   2.736   2.849   2.547
    1C        C  750   2.737   2.838   2.064
    1C        C  751   3.669   2.331   1.961
    1C        O  752   3.718   2.215   1.956
    1C        O  753   3.687   2.399   1.840
    1C        C  754   4.641   3.060   1.988
    1C        O  755   4.650   3.063   1.862
    1C        O  756   4.707   2.941   2.021
    1C        C  757   4.442   4.228   1.971
    1C        O  758   4.561   4.266   1.987
    1C        O  759   4.393   4.258   1.843
    1C        C  760   3.591   4.677   1.960
    1C        O  761   3.637   4.789   1.994
    1C        O  762   3.547   4.665   1.828
    1C        C  763   2.859   4.514   1.963
    1C        O  764   2.902   4.523   1.845
    1C        O  765   2.789   4.623   2.016
    1C        C  766   2.358   3.459   1.952
    1C        O  767   2.404   3.443   1.835
    1C        O  768   2.225   3.502   1.954
    1C        C  769   4.704   3.590   5.035
    1C        O  770   4.694   3.532   5.146
    1C        O  771   4.824   3.576   4.964
    1C        C  772   4.276   4.477   5.010
    1C        O  773   4.330   4.460   5.123
    1C        O  774   4.336   4.586   4.946
    1C        C  775   4.141   2.516   5.071
    1C        O  776   4.203   2.415   5.028
    1C        O  777   4.122   2.511   5.209
    1C        C  778   2.878   4.542   5.043
    1C        O  779   2.869   4.657   4.992
    1C        O  780   2.891   4.551   5.182
    1C        C  781   2.475   3.031   5.074
    1C        O  782   2.354   3.011   5.047
    1C        O  783   2.497   3.020   5.211
    1C        C  784   2.398   4.000   5.036
    1C        O  785   2.300   4.063   4.990
    1C        O  786   2.399   3.991   5.176
    1C        C  787   2.948   2.434   1.993
    1C        O  788   2.972   2.435   1.870
    1C        O  789   2.911   2.310   2.045
    1C        C  790   3.181   2.376   5.072
    1C        O  791   3.180   2.258   5.028
    1C        O  792   3.116   2.375   5.196
    1C        H  793   4.308   3.004   5.067
    1C        H  794   4.166   2.822   5.069
    1C        H  795   4.528   3.132   5.046
    1C        H  796   4.557   3.347   5.063
    1C        H  797   4.504   3.785   5.057
    1C        H  798   4.439   3.992   5.053
    1C        H  799   4.325   4.183   5.047
    1C        H  800   4.034   4.555   5.012
    1C        H  801   3.804   4.560   5.047
    1C        H  802   3.588   4.649   5.027
    1C        H  803   3.396   4.468   5.034
    1C        H  804   3.154   4.533   5.046
    1C        H  805   3.875   2.551   5.070
    1C        H  806   3.669   2.501   5.075
    1C        H  807   2.983   2.527   5.042
    1C        H  808   3.442   2.442   5.072
    1C        H  809   2.862   2.739   5.082
    1C        H  810   2.668   2.864   5.069
    1C        H  811   2.510   3.287   5.076
    1C        H  812   2.479   3.496   5.062
    1C        H  813   2.561   3.727   5.064
    1C        H  814   2.539   4.201   5.001
    1C        H  815   2.748   4.316   5.049
    1C        H  816   2.740   2.897   1.975
    1C        H  817   2.831   2.674   1.973
    1C        H  818   3.209   2.445   1.984
    1C        H  819   3.426   2.394   1.984
    1C        H  820   3.854   2.527   1.966
    1C        H  821   4.073   2.595   1.973
    1C        H  822   4.253   2.711   1.975
    1C        H  823   4.388   2.907   1.965
    1C        H  824   4.600   3.303   1.974
    1C        H  825   4.494   3.506   1.962
    1C        H  826   4.525   3.745   1.950
    1C        H  827   3.798   4.514   1.951
    1C        H  828   3.961   4.378   1.943
    1C        H  829   4.143   4.230   1.951
    1C        H  830   4.443   3.940   1.959
    1C        H  831   2.695   3.818   2.004
    1C        H  832   2.723   4.056   1.965
    1C        H  833   2.740   4.274   1.957
    1C        H  834   3.390   4.447   1.958
    1C        H  835   3.141   4.463   1.954
    1C        H  836   2.516   3.003   1.987
    1C        H  837   2.523   3.246   1.978
    1C        H  838   2.511   3.672   1.963
    2V3OU   H29  839   2.800   3.551   0.813
    2V3OU   C27  840   2.780   3.504   0.913
    2V3OU   H27  841   2.730   3.578   0.981
    2V3OU   H28  842   2.724   3.407   0.904
    2V3OU   O11  843   2.904   3.473   0.977
    2V3OU   C15  844   2.925   3.400   1.092
    2V3OU   C13  845   3.052   3.378   1.149
    2V3OU   C14  846   3.077   3.266   1.230
    2V3OU   C16  847   2.968   3.185   1.261
    2V3OU    H6  848   2.988   3.099   1.327
    2V3OU   C12  849   3.212   3.225   1.274
    2V3OU    O2  850   3.240   3.128   1.347
    2V3OU   C10  851   3.325   3.310   1.229
    2V3OU    C8  852   3.457   3.271   1.243
    2V3OU   O10  853   3.491   3.147   1.289
    2V3OU   H26  854   3.406   3.118   1.326
    2V3OU    C6  855   3.563   3.349   1.185
    2V3OU    C5  856   3.536   3.463   1.110
    2V3OU    C4  857   3.700   3.292   1.178
    2V3OU    H4  858   3.713   3.228   1.270
    2V3OU    H5  859   3.706   3.221   1.091
    2V3OU    C2  860   3.814   3.394   1.168
    2V3OU    O6  861   3.803   3.472   1.287
    2V3OU   H21  862   3.757   3.552   1.258
    2V3OU    C3  863   3.781   3.497   1.059
    2V3OU    H2  864   3.865   3.571   1.058
    2V3OU    H3  865   3.778   3.441   0.962
    2V3OU   C25  866   3.950   3.330   1.140
    2V3OU    O7  867   3.994   3.295   1.031
    2V3OU   C26  868   4.026   3.295   1.267
    2V3OU   H22  869   4.057   3.383   1.329
    2V3OU   H23  870   4.106   3.220   1.243
    2V3OU    O8  871   3.958   3.205   1.352
    2V3OU   H24  872   3.921   3.265   1.419
    2V3OU    C1  873   3.645   3.562   1.083
    2V3OU    H1  874   3.620   3.620   0.989
    2V3OU    O3  875   3.654   3.657   1.190
    2V3OU   C19  876   3.619   3.794   1.174
    2V3OU    H9  877   3.524   3.791   1.113
    2V3OU    O4  878   3.713   3.854   1.088
    2V3OU   C20  879   3.844   3.874   1.141
    2V3OU   H10  880   3.892   3.771   1.141
    2V3OU   C24  881   3.610   3.860   1.312
    2V3OU   H16  882   3.540   3.797   1.373
    2V3OU   H17  883   3.565   3.961   1.299
    2V3OU   C23  884   3.748   3.877   1.377
    2V3OU   H15  885   3.786   3.772   1.397
    2V3OU    N1  886   3.735   3.953   1.499
    2V3OU   H19  887   3.802   3.922   1.567
    2V3OU   H20  888   3.647   3.933   1.542
    2V3OU   C21  889   3.847   3.945   1.277
    2V3OU   H11  890   3.949   3.937   1.323
    2V3OU    O5  891   3.817   4.084   1.272
    2V3OU   H18  892   3.776   4.095   1.359
    2V3OU   C22  893   3.910   3.948   1.026
    2V3OU   H12  894   3.864   4.048   1.010
    2V3OU   H13  895   3.909   3.884   0.934
    2V3OU   H14  896   4.020   3.960   1.047
    2V3OU   C11  897   3.161   3.475   1.133
    2V3OU    O1  898   3.135   3.587   1.084
    2V3OU    C9  899   3.299   3.429   1.156
    2V3OU    C7  900   3.399   3.502   1.093
    2V3OU    O9  901   3.382   3.614   1.015
    2V3OU   H25  902   3.287   3.629   1.021
    2V3OU   C17  903   2.820   3.319   1.139
    2V3OU    H7  904   2.719   3.343   1.104
    2V3OU   C18  905   2.838   3.206   1.217
    2V3OU    H8  906   2.751   3.143   1.243
    3SOL     OW  907   0.507   4.509   0.880
    3SOL    HW1  908   0.545   4.430   0.831
    3SOL    HW2  909   0.491   4.484   0.975
    4SOL     OW  910   5.865   0.853   2.287
    4SOL    HW1  911   5.803   0.842   2.210
    4SOL    HW2  912   5.862   0.771   2.345
    5SOL     OW  913   3.871   2.910   1.106
    5SOL    HW1  914   3.964   2.874   1.099
    5SOL    HW2  915   3.871   2.992   1.163
    6SOL     OW  916   3.046   2.470   0.223
    6SOL    HW1  917   2.999   2.416   0.153
    6SOL    HW2  918   2.996   2.462   0.309
    7SOL     OW  919   5.720   0.851   2.052
    7SOL    HW1  920   5.686   0.945   2.044
    7SOL    HW2  921   5.809   0.845   2.005
    8SOL     OW  922   3.221   2.169   3.401
    8SOL    HW1  923   3.167   2.200   3.323
    8SOL    HW2  924   3.313   2.145   3.371
    9SOL     OW  925   6.274   4.402   5.887
    9SOL    HW1  926   6.373   4.403   5.874
    9SOL    HW2  927   6.254   4.405   5.985
   10SOL     OW  928   6.975   4.810   0.991
   10SOL    HW1  929   6.883   4.813   1.030
   10SOL    HW2  930   6.969   4.819   0.892
   11SOL     OW  931   4.172   6.908   6.800
   11SOL    HW1  932   4.158   6.812   6.775
   11SOL    HW2  933   4.087   6.945   6.837
   12SOL     OW  934   5.276   6.892   2.500
   12SOL    HW1  935   5.368   6.877   2.537
   12SOL    HW2  936   5.276   6.872   2.402
   13SOL     OW  937   2.116   0.182   2.793
   13SOL    HW1  938   2.129   0.131   2.708
   13SOL    HW2  939   2.030   0.155   2.836
   14SOL     OW  940   2.964   0.049   3.277
   14SOL    HW1  941   2.896   0.108   3.320
   14SOL    HW2  942   3.013   0.100   3.207
   15SOL     OW  943   2.285   6.464   6.241
   15SOL    HW1  944   2.345   6.386   6.223
   15SOL    HW2  945   2.255   6.504   6.155
   16SOL     OW  946   6.458   2.193   6.709
   16SOL    HW1  947   6.381   2.169   6.650
   16SOL    HW2  948   6.442   2.282   6.751
   17SOL     OW  949   4.308   5.978   3.067
   17SOL    HW1  950   4.338   6.055   3.123
   17SOL    HW2  951   4.209   5.979   3.059
   18SOL     OW  952   1.440   1.031   7.016
   18SOL    HW1  953   1.503   1.022   6.938
   18SOL    HW2  954   1.388   0.946   0.004
   19SOL     OW  955   1.188   6.791   1.275
   19SOL    HW1  956   1.265   6.802   1.338
   19SOL    HW2  957   1.135   6.876   1.272
   20SOL     OW  958   3.480   0.671   4.330
   20SOL    HW1  959   3.550   0.631   4.389
   20SOL    HW2  960   3.469   0.614   4.248
   21SOL     OW  961   2.869   3.207   1.693
   21SOL    HW1  962   2.824   3.128   1.651
   21SOL    HW2  963   2.876   3.281   1.626
   22SOL     OW  964   0.875   1.609   5.607
   22SOL    HW1  965   0.840   1.610   5.700
   22SOL    HW2  966   0.970   1.578   5.607
   23SOL     OW  967   3.164   6.340   4.992
   23SOL    HW1  968   3.129   6.255   5.033
   23SOL    HW2  969   3.211   6.393   5.062
   24SOL     OW  970   4.166   1.663   5.334
   24SOL    HW1  971   4.160   1.739   5.269
   24SOL    HW2  972   4.082   1.658   5.388
   25SOL     OW  973   2.334   5.625   0.802
   25SOL    HW1  974   2.292   5.570   0.874
   25SOL    HW2  975   2.282   5.615   0.717
   26SOL     OW  976   5.499   1.170   2.997
   26SOL    HW1  977   5.479   1.181   3.094
   26SOL    HW2  978   5.451   1.241   2.945
   27SOL     OW  979   5.999   0.379   2.704
   27SOL    HW1  980   5.985   0.287   2.743
   27SOL    HW2  981   5.928   0.440   2.739
   28SOL     OW  982   2.817   0.780   0.294
   28SOL    HW1  983   2.874   0.819   0.365
   28SOL    HW2  984   2.787   0.852   0.232
   29SOL     OW  985   4.781   2.868   1.596
   29SOL    HW1  986   4.722   2.787   1.607
   29SOL    HW2  987   4.807   2.903   1.686
   30SOL     OW  988   4.110   1.408   5.676
   30SOL    HW1  989   4.144   1.498   5.701
   30SOL    HW2  990   4.186   1.349   5.650
   31SOL     OW  991   0.709   1.647   5.341
   31SOL    HW1  992   0.798   1.622   5.304
   31SOL    HW2  993   0.720   1.677   5.436
   32SOL     OW  994   0.005   2.138   2.308
   32SOL    HW1  995   0.054   2.054   2.284
   32SOL    HW2  996   6.937   2.114   2.347
   33SOL     OW  997   1.461   1.414   5.473
   33SOL    HW1  998   1.500   1.392   5.383
   33SOL    HW2  999   1.522   1.379   5.544
   34SOL     OW 1000   0.453   1.160   5.301
   34SOL    HW1 1001   0.488   1.253   5.318
   34SOL    HW2 1002   0.458   1.139   5.204
   35SOL     OW 1003   4.311   2.116   6.433
   35SOL    HW1 1004   4.231   2.063   6.459
   35SOL    HW2 1005   4.394   2.073   6.470
   36SOL     OW 1006   1.242   1.915   5.862
   36SOL    HW1 1007   1.245   2.010   5.832
   36SOL    HW2 1008   1.147   1.886   5.871
   37SOL     OW 1009   2.818   6.624   1.651
   37SOL    HW1 1010   2.839   6.698   1.586
   37SOL    HW2 1011   2.903   6.575   1.673
   38SOL     OW 1012   0.150   6.203   1.967
   38SOL    HW1 1013   0.215   6.279   1.974
   38SOL    HW2 1014   0.201   6.116   1.963
   39SOL     OW 1015   6.833   2.735   6.367
   39SOL    HW1 1016   6.891   2.779   6.436
   39SOL    HW2 1017   6.797   2.649   6.404
   40SOL     OW 1018   0.012   1.562   1.487
   40SOL    HW1 1019   0.010   1.478   1.433
   40SOL    HW2 1020   0.007   1.539   1.584
   41SOL     OW 1021   1.264   0.670   6.171
   41SOL    HW1 1022   1.347   0.631   6.132
   41SOL    HW2 1023   1.259   0.768   6.148
   42SOL     OW 1024   3.608   0.202   0.549
   42SOL    HW1 1025   3.526   0.175   0.497
   42SOL    HW2 1026   3.679   0.133   0.535
   43SOL     OW 1027   4.558   5.675   5.492
   43SOL    HW1 1028   4.525   5.636   5.578
   43SOL    HW2 1029   4.623   5.612   5.449
   44SOL     OW 1030   0.901   4.057   6.847
   44SOL    HW1 1031   0.904   4.020   6.754
   44SOL    HW2 1032   0.932   3.987   6.911
   45SOL     OW 1033   2.345   0.406   1.529
   45SOL    HW1 1034   2.365   0.495   1.489
   45SOL    HW2 1035   2.429   0.354   1.539
   46SOL     OW 1036   1.246   5.843   3.948
   46SOL    HW1 1037   1.218   5.869   4.041
   46SOL    HW2 1038   1.317   5.772   3.954
   47SOL     OW 1039   5.991   4.537   2.943
   47SOL    HW1 1040   5.937   4.606   2.894
   47SOL    HW2 1041   5.940   4.507   3.024
   48SOL     OW 1042   0.443   1.393   5.643
   48SOL    HW1 1043   0.529   1.375   5.597
   48SOL    HW2 1044   0.416   1.313   5.697
   49SOL     OW 1045   6.195   3.345   0.192
   49SOL    HW1 1046   6.198   3.284   0.272
   49SOL    HW2 1047   6.124   3.413   0.206
   50SOL     OW 1048   0.541   3.825   4.485
   50SOL    HW1 1049   0.533   3.902   4.549
   50SOL    HW2 1050   0.636   3.815   4.456
   51SOL     OW 1051   3.694   5.660   2.151
   51SOL    HW1 1052   3.664   5.653   2.056
   51SOL    HW2 1053   3.699   5.568   2.191
   52SOL     OW 1054   0.903   2.235   1.999
   52SOL    HW1 1055   0.899   2.136   1.983
   52SOL    HW2 1056   0.997   2.267   1.985
   53SOL     OW 1057   4.766   6.358   4.025
   53SOL    HW1 1058   4.858   6.318   4.016
   53SOL    HW2 1059   4.772   6.439   4.083
   54SOL     OW 1060   5.399   4.649   5.448
   54SOL    HW1 1061   5.311   4.691   5.470
   54SOL    HW2 1062   5.386   4.553   5.423
   55SOL     OW 1063   3.774   2.261   1.122
   55SOL    HW1 1064   3.792   2.249   1.025
   55SOL    HW2 1065   3.709   2.337   1.134
   56SOL     OW 1066   0.755   0.235   1.825
   56SOL    HW1 1067   0.704   0.158   1.786
   56SOL    HW2 1068   0.830   0.200   1.882
   57SOL     OW 1069   5.546   0.869   1.246
   57SOL    HW1 1070   5.577   0.955   1.286
   57SOL    HW2 1071   5.505   0.887   1.157
   58SOL     OW 1072   6.590   0.095   6.981
   58SOL    HW1 1073   6.569   0.022   6.915
   58SOL    HW2 1074   6.670   0.146   6.950
   59SOL     OW 1075   0.651   0.160   5.155
   59SOL    HW1 1076   0.686   0.254   5.162
   59SOL    HW2 1077   0.683   0.107   5.233
   60SOL     OW 1078   4.933   0.039   5.038
   60SOL    HW1 1079   5.008   0.090   5.080
   60SOL    HW2 1080   4.934   0.054   4.939
   61SOL     OW 1081   4.108   6.944   5.480
   61SOL    HW1 1082   4.162   0.003   5.454
   61SOL    HW2 1083   4.013   6.972   5.495
   62SOL     OW 1084   2.934   0.636   5.023
   62SOL    HW1 1085   3.020   0.595   4.993
   62SOL    HW2 1086   2.946   0.735   5.035
   63SOL     OW 1087   0.010   3.176   3.550
   63SOL    HW1 1088   6.981   3.125   3.621
   63SOL    HW2 1089   0.085   3.119   3.515
   64SOL     OW 1090   6.976   2.538   5.290
   64SOL    HW1 1091   0.029   2.606   5.292
   64SOL    HW2 1092   7.004   2.460   5.235
   65SOL     OW 1093   0.987   4.142   6.241
   65SOL    HW1 1094   0.957   4.189   6.325
   65SOL    HW2 1095   0.920   4.071   6.218
   66SOL     OW 1096   2.464   0.994   1.217
   66SOL    HW1 1097   2.398   0.930   1.177
   66SOL    HW2 1098   2.507   0.953   1.297
   67SOL     OW 1099   4.954   5.018   4.321
   67SOL    HW1 1100   4.980   4.966   4.240
   67SOL    HW2 1101   4.864   4.988   4.354
   68SOL     OW 1102   5.609   2.750   6.968
   68SOL    HW1 1103   5.629   2.759   0.044
   68SOL    HW2 1104   5.515   2.780   6.950
   69SOL     OW 1105   2.614   2.819   5.899
   69SOL    HW1 1106   2.580   2.857   5.813
   69SOL    HW2 1107   2.594   2.721   5.902
   70SOL     OW 1108   5.890   0.009   2.420
   70SOL    HW1 1109   5.818   0.049   2.477
   70SOL    HW2 1110   5.854   7.013   2.329
   71SOL     OW 1111   1.949   4.169   2.397
   71SOL    HW1 1112   1.894   4.087   2.383
   71SOL    HW2 1113   1.905   4.246   2.350
   72SOL     OW 1114   3.364   5.385   3.253
   72SOL    HW1 1115   3.395   5.471   3.293
   72SOL    HW2 1116   3.293   5.404   3.185
   73SOL     OW 1117   3.824   2.842   6.618
   73SOL    HW1 1118   3.797   2.813   6.710
   73SOL    HW2 1119   3.778   2.928   6.595
   74SOL     OW 1120   4.986   6.748   6.139
   74SOL    HW1 1121   4.974   6.846   6.153
   74SOL    HW2 1122   5.083   6.726   6.137
   75SOL     OW 1123   3.408   4.953   5.100
   75SOL    HW1 1124   3.493   4.940   5.047
   75SOL    HW2 1125   3.430   4.996   5.187
   76SOL     OW 1126   2.707   3.120   0.853
   76SOL    HW1 1127   2.641   3.196   0.857
   76SOL    HW2 1128   2.688   3.055   0.926
   77SOL     OW 1129   5.925   4.244   6.512
   77SOL    HW1 1130   5.866   4.320   6.483
   77SOL    HW2 1131   5.935   4.179   6.437
   78SOL     OW 1132   5.956   6.590   6.047
   78SOL    HW1 1133   6.013   6.645   6.108
   78SOL    HW2 1134   5.870   6.638   6.029
   79SOL     OW 1135   3.101   7.014   0.715
   79SOL    HW1 1136   3.183   0.032   0.672
   79SOL    HW2 1137   3.070   6.936   0.662
   80SOL     OW 1138   0.395   1.020   4.367
   80SOL    HW1 1139   0.318   1.082   4.352
   80SOL    HW2 1140   0.480   1.071   4.367
   81SOL     OW 1141   2.095   0.017   3.419
   81SOL    HW1 1142   2.004   7.011   3.388
   81SOL    HW2 1143   2.089   0.058   3.510
   82SOL     OW 1144   6.516   4.657   5.920
   82SOL    HW1 1145   6.446   4.719   5.955
   82SOL    HW2 1146   6.583   4.709   5.866
   83SOL     OW 1147   6.422   6.484   5.781
   83SOL    HW1 1148   6.409   6.385   5.775
   83SOL    HW2 1149   6.336   6.530   5.758
   84SOL     OW 1150   6.619   3.984   1.493
   84SOL    HW1 1151   6.647   3.903   1.443
   84SOL    HW2 1152   6.699   4.042   1.510
   85SOL     OW 1153   0.509   0.573   5.051
   85SOL    HW1 1154   0.499   0.651   4.989
   85SOL    HW2 1155   0.583   0.514   5.018
   86SOL     OW 1156   2.122   1.100   4.705
   86SOL    HW1 1157   2.050   1.034   4.726
   86SOL    HW2 1158   2.211   1.063   4.733
   87SOL     OW 1159   4.586   6.942   1.596
   87SOL    HW1 1160   4.664   6.880   1.606
   87SOL    HW2 1161   4.503   6.889   1.579
   88SOL     OW 1162   6.039   1.001   1.480
   88SOL    HW1 1163   6.056   1.010   1.382
   88SOL    HW2 1164   5.967   0.932   1.496
   89SOL     OW 1165   1.717   1.847   5.431
   89SOL    HW1 1166   1.703   1.928   5.487
   89SOL    HW2 1167   1.740   1.875   5.338
   90SOL     OW 1168   6.756   5.729   3.735
   90SOL    HW1 1169   6.799   5.696   3.650
   90SOL    HW2 1170   6.658   5.742   3.720
   91SOL     OW 1171   4.473   4.888   4.733
   91SOL    HW1 1172   4.424   4.975   4.738
   91SOL    HW2 1173   4.571   4.905   4.726
   92SOL     OW 1174   3.319   5.873   1.221
   92SOL    HW1 1175   3.308   5.839   1.315
   92SOL    HW2 1176   3.230   5.876   1.176
   93SOL     OW 1177   3.035   4.937   6.167
   93SOL    HW1 1178   2.974   4.951   6.246
   93SOL    HW2 1179   3.052   5.025   6.123
   94SOL     OW 1180   2.003   6.489   1.819
   94SOL    HW1 1181   2.014   6.581   1.783
   94SOL    HW2 1182   2.018   6.490   1.918
   95SOL     OW 1183   6.692   0.155   5.318
   95SOL    HW1 1184   6.639   0.155   5.402
   95SOL    HW2 1185   6.777   0.103   5.331
   96SOL     OW 1186   1.958   7.008   5.148
   96SOL    HW1 1187   1.959   0.053   5.073
   96SOL    HW2 1188   2.023   0.016   5.218
   97SOL     OW 1189   6.245   2.923   4.316
   97SOL    HW1 1190   6.299   2.867   4.378
   97SOL    HW2 1191   6.204   2.999   4.366
   98SOL     OW 1192   5.047   1.136   5.730
   98SOL    HW1 1193   5.089   1.108   5.643
   98SOL    HW2 1194   5.021   1.055   5.782
   99SOL     OW 1195   4.921   1.647   0.863
   99SOL    HW1 1196   4.876   1.571   0.909
   99SOL    HW2 1197   4.968   1.704   0.930
  100SOL     OW 1198   6.032   5.402   6.482
  100SOL    HW1 1199   5.950   5.422   6.536
  100SOL    HW2 1200   6.088   5.484   6.474
  101SOL     OW 1201   1.044   6.978   4.328
  101SOL    HW1 1202   1.062   0.024   4.400
  101SOL    HW2 1203   1.111   6.903   4.335
  102SOL     OW 1204   4.345   0.302   3.190
  102SOL    HW1 1205   4.246   0.288   3.183
  102SOL    HW2 1206   4.368   0.393   3.157
  103SOL     OW 1207   3.730   1.789   1.741
  103SOL    HW1 1208   3.631   1.779   1.730
  103SOL    HW2 1209   3.752   1.884   1.760
  104SOL     OW 1210   6.711   6.335   2.069
  104SOL    HW1 1211   6.709   6.433   2.090
  104SOL    HW2 1212   6.680   6.283   2.149
  105SOL     OW 1213   5.241   0.691   6.231
  105SOL    HW1 1214   5.292   0.771   6.200
  105SOL    HW2 1215   5.144   0.703   6.208
  106SOL     OW 1216   3.307   6.618   1.302
  106SOL    HW1 1217   3.296   6.671   1.386
  106SOL    HW2 1218   3.404   6.608   1.281
  107SOL     OW 1219   2.507   3.626   0.211
  107SOL    HW1 1220   2.554   3.597   0.294
  107SOL    HW2 1221   2.570   3.676   0.152
  108SOL     OW 1222   4.890   4.124   4.927
  108SOL    HW1 1223   4.922   4.039   4.969
  108SOL    HW2 1224   4.808   4.156   4.975
  109SOL     OW 1225   5.901   0.927   1.819
  109SOL    HW1 1226   5.870   0.999   1.757
  109SOL    HW2 1227   5.950   0.969   1.896
  110SOL     OW 1228   3.361   6.241   4.401
  110SOL    HW1 1229   3.459   6.221   4.389
  110SOL    HW2 1230   3.311   6.156   4.417
  111SOL     OW 1231   3.169   1.294   3.466
  111SOL    HW1 1232   3.220   1.211   3.487
  111SOL    HW2 1233   3.176   1.357   3.543
  112SOL     OW 1234   6.602   1.109   6.635
  112SOL    HW1 1235   6.549   1.155   6.706
  112SOL    HW2 1236   6.653   1.177   6.582
  113SOL     OW 1237   6.785   6.417   3.481
  113SOL    HW1 1238   6.723   6.351   3.438
  113SOL    HW2 1239   6.773   6.507   3.440
  114SOL     OW 1240   1.181   6.662   0.590
  114SOL    HW1 1241   1.206   6.634   0.497
  114SOL    HW2 1242   1.176   6.582   0.649
  115SOL     OW 1243   5.238   0.609   5.279
  115SOL    HW1 1244   5.313   0.559   5.321
  115SOL    HW2 1245   5.273   0.692   5.235
  116SOL     OW 1246   6.229   4.158   3.132
  116SOL    HW1 1247   6.179   4.122   3.054
  116SOL    HW2 1248   6.328   4.149   3.115
  117SOL     OW 1249   1.227   6.823   6.649
  117SOL    HW1 1250   1.236   6.759   6.573
  117SOL    HW2 1251   1.179   6.779   6.725
  118SOL     OW 1252   2.415   1.113   2.897
  118SOL    HW1 1253   2.464   1.035   2.857
  118SOL    HW2 1254   2.432   1.116   2.996
  119SOL     OW 1255   6.653   2.587   6.126
  119SOL    HW1 1256   6.735   2.547   6.084
  119SOL    HW2 1257   6.681   2.651   6.198
  120SOL     OW 1258   5.115   6.292   1.606
  120SOL    HW1 1259   5.032   6.343   1.631
  120SOL    HW2 1260   5.163   6.264   1.689
  121SOL     OW 1261   2.900   2.929   5.713
  121SOL    HW1 1262   2.949   2.859   5.661
  121SOL    HW2 1263   2.804   2.931   5.686
  122SOL     OW 1264   0.927   3.531   4.759
  122SOL    HW1 1265   0.842   3.487   4.730
  122SOL    HW2 1266   0.929   3.625   4.724
  123SOL     OW 1267   0.147   2.073   1.747
  123SOL    HW1 1268   0.224   2.080   1.811
  123SOL    HW2 1269   0.160   1.994   1.688
  124SOL     OW 1270   4.877   3.567   1.333
  124SOL    HW1 1271   4.897   3.508   1.412
  124SOL    HW2 1272   4.872   3.662   1.363
  125SOL     OW 1273   2.300   3.550   1.603
  125SOL    HW1 1274   2.255   3.639   1.610
  125SOL    HW2 1275   2.362   3.539   1.681
  126SOL     OW 1276   4.178   4.288   0.754
  126SOL    HW1 1277   4.113   4.308   0.680
  126SOL    HW2 1278   4.149   4.334   0.837
  127SOL     OW 1279   0.787   5.399   5.576
  127SOL    HW1 1280   0.863   5.431   5.520
  127SOL    HW2 1281   0.788   5.299   5.580
  128SOL     OW 1282   4.540   2.576   0.591
  128SOL    HW1 1283   4.478   2.498   0.597
  128SOL    HW2 1284   4.612   2.556   0.525
  129SOL     OW 1285   2.757   3.723   0.056
  129SOL    HW1 1286   2.840   3.766   0.022
  129SOL    HW2 1287   2.780   3.656   0.127
  130SOL     OW 1288   1.739   2.434   4.627
  130SOL    HW1 1289   1.677   2.419   4.550
  130SOL    HW2 1290   1.814   2.493   4.599
  131SOL     OW 1291   5.603   1.592   2.030
  131SOL    HW1 1292   5.673   1.526   2.058
  131SOL    HW2 1293   5.514   1.564   2.067
  132SOL     OW 1294   0.646   2.276   2.095
  132SOL    HW1 1295   0.736   2.298   2.057
  132SOL    HW2 1296   0.604   2.204   2.040
  133SOL     OW 1297   6.731   5.838   2.851
  133SOL    HW1 1298   6.724   5.931   2.815
  133SOL    HW2 1299   6.645   5.811   2.894
  134SOL     OW 1300   1.355   3.462   2.775
  134SOL    HW1 1301   1.303   3.386   2.814
  134SOL    HW2 1302   1.445   3.466   2.817
  135SOL     OW 1303   4.407   1.179   4.192
  135SOL    HW1 1304   4.388   1.266   4.237
  135SOL    HW2 1305   4.322   1.141   4.155
  136SOL     OW 1306   4.761   4.796   6.015
  136SOL    HW1 1307   4.792   4.702   6.004
  136SOL    HW2 1308   4.719   4.806   6.106
  137SOL     OW 1309   3.828   0.833   5.634
  137SOL    HW1 1310   3.846   0.818   5.731
  137SOL    HW2 1311   3.876   0.763   5.580
  138SOL     OW 1312   5.882   4.380   5.484
  138SOL    HW1 1313   5.829   4.453   5.440
  138SOL    HW2 1314   5.829   4.295   5.481
  139SOL     OW 1315   3.268   5.455   5.804
  139SOL    HW1 1316   3.338   5.504   5.752
  139SOL    HW2 1317   3.180   5.464   5.758
  140SOL     OW 1318   6.594   3.904   4.947
  140SOL    HW1 1319   6.555   3.995   4.959
  140SOL    HW2 1320   6.631   3.872   5.034
  141SOL     OW 1321   1.140   1.868   2.206
  141SOL    HW1 1322   1.057   1.813   2.216
  141SOL    HW2 1323   1.216   1.823   2.252
  142SOL     OW 1324   1.634   5.041   1.171
  142SOL    HW1 1325   1.664   5.113   1.233
  142SOL    HW2 1326   1.707   5.017   1.108
  143SOL     OW 1327   5.142   4.059   2.316
  143SOL    HW1 1328   5.208   4.060   2.391
  143SOL    HW2 1329   5.059   4.012   2.346
  144SOL     OW 1330   2.551   6.651   0.950
  144SOL    HW1 1331   2.481   6.632   1.020
  144SOL    HW2 1332   2.637   6.673   0.995
  145SOL     OW 1333   6.538   5.428   0.588
  145SOL    HW1 1334   6.520   5.332   0.612
  145SOL    HW2 1335   6.603   5.467   0.653
  146SOL     OW 1336   6.632   4.802   0.630
  146SOL    HW1 1337   6.547   4.754   0.650
  146SOL    HW2 1338   6.658   4.785   0.535
  147SOL     OW 1339   6.436   2.468   1.132
  147SOL    HW1 1340   6.345   2.469   1.173
  147SOL    HW2 1341   6.453   2.555   1.087
  148SOL     OW 1342   0.979   5.320   5.061
  148SOL    HW1 1343   0.892   5.273   5.050
  148SOL    HW2 1344   0.964   5.411   5.101
  149SOL     OW 1345   3.268   1.394   6.124
  149SOL    HW1 1346   3.308   1.320   6.071
  149SOL    HW2 1347   3.341   1.451   6.163
  150SOL     OW 1348   0.009   5.921   5.043
  150SOL    HW1 1349   6.960   5.869   5.091
  150SOL    HW2 1350   7.004   6.017   5.039
  151SOL     OW 1351   4.129   0.946   1.881
  151SOL    HW1 1352   4.192   1.011   1.837
  151SOL    HW2 1353   4.076   0.900   1.810
  152SOL     OW 1354   2.637   0.915   4.663
  152SOL    HW1 1355   2.714   0.979   4.658
  152SOL    HW2 1356   2.670   0.827   4.697
  153SOL     OW 1357   1.118   0.670   2.886
  153SOL    HW1 1358   1.120   0.570   2.895
  153SOL    HW2 1359   1.089   0.711   2.972
  154SOL     OW 1360   0.237   1.970   3.079
  154SOL    HW1 1361   0.222   1.910   3.158
  154SOL    HW2 1362   0.334   1.968   3.053
  155SOL     OW 1363   0.432   1.169   2.837
  155SOL    HW1 1364   0.388   1.130   2.756
  155SOL    HW2 1365   0.530   1.181   2.820
  156SOL     OW 1366   0.259   2.452   1.409
  156SOL    HW1 1367   0.239   2.517   1.335
  156SOL    HW2 1368   0.173   2.424   1.453
  157SOL     OW 1369   6.649   2.681   2.919
  157SOL    HW1 1370   6.696   2.641   2.997
  157SOL    HW2 1371   6.641   2.780   2.931
  158SOL     OW 1372   1.696   1.969   4.010
  158SOL    HW1 1373   1.614   1.939   3.962
  158SOL    HW2 1374   1.695   2.069   4.020
  159SOL     OW 1375   4.947   3.097   2.126
  159SOL    HW1 1376   4.879   3.031   2.096
  159SOL    HW2 1377   5.006   3.121   2.049
  160SOL     OW 1378   6.128   4.353   6.155
  160SOL    HW1 1379   6.175   4.293   6.220
  160SOL    HW2 1380   6.062   4.410   6.204
  161SOL     OW 1381   3.100   4.683   5.251
  161SOL    HW1 1382   3.017   4.636   5.222
  161SOL    HW2 1383   3.122   4.755   5.185
  162SOL     OW 1384   4.708   6.099   2.368
  162SOL    HW1 1385   4.750   6.106   2.278
  162SOL    HW2 1386   4.712   6.004   2.400
  163SOL     OW 1387   6.087   0.732   1.763
  163SOL    HW1 1388   6.018   0.798   1.793
  163SOL    HW2 1389   6.087   0.727   1.663
  164SOL     OW 1390   6.564   3.048   1.176
  164SOL    HW1 1391   6.659   3.021   1.163
  164SOL    HW2 1392   6.511   2.970   1.210
  165SOL     OW 1393   6.367   3.473   7.009
  165SOL    HW1 1394   6.313   3.476   6.925
  165SOL    HW2 1395   6.310   3.445   0.064
  166SOL     OW 1396   1.478   0.305   1.123
  166SOL    HW1 1397   1.516   0.329   1.212
  166SOL    HW2 1398   1.378   0.308   1.127
  167SOL     OW 1399   6.689   2.319   1.180
  167SOL    HW1 1400   6.599   2.358   1.198
  167SOL    HW2 1401   6.753   2.347   1.252
  168SOL     OW 1402   2.524   5.485   1.514
  168SOL    HW1 1403   2.449   5.546   1.541
  168SOL    HW2 1404   2.491   5.391   1.512
  169SOL     OW 1405   1.012   0.004   1.238
  169SOL    HW1 1406   0.971   0.059   1.166
  169SOL    HW2 1407   1.008   0.053   1.325
  170SOL     OW 1408   0.481   1.596   3.165
  170SOL    HW1 1409   0.434   1.684   3.167
  170SOL    HW2 1410   0.422   1.527   3.123
  171SOL     OW 1411   3.553   3.873   0.351
  171SOL    HW1 1412   3.637   3.819   0.343
  171SOL    HW2 1413   3.531   3.915   0.263
  172SOL     OW 1414   0.118   2.960   1.883
  172SOL    HW1 1415   0.055   2.883   1.893
  172SOL    HW2 1416   0.112   3.019   1.964
  173SOL     OW 1417   0.315   6.345   5.906
  173SOL    HW1 1418   0.374   6.265   5.897
  173SOL    HW2 1419   0.312   6.394   5.819
  174SOL     OW 1420   2.726   5.842   3.942
  174SOL    HW1 1421   2.784   5.787   3.882
  174SOL    HW2 1422   2.701   5.788   4.023
  175SOL     OW 1423   0.535   5.094   3.301
  175SOL    HW1 1424   0.519   5.084   3.399
  175SOL    HW2 1425   0.467   5.156   3.261
  176SOL     OW 1426   2.556   5.132   6.855
  176SOL    HW1 1427   2.553   5.224   6.893
  176SOL    HW2 1428   2.648   5.094   6.865
  177SOL     OW 1429   4.359   1.892   2.982
  177SOL    HW1 1430   4.435   1.835   2.952
  177SOL    HW2 1431   4.347   1.968   2.918
  178SOL     OW 1432   5.136   4.039   5.853
  178SOL    HW1 1433   5.055   3.990   5.885
  178SOL    HW2 1434   5.217   3.982   5.869
  179SOL     OW 1435   2.882   6.529   0.627
  179SOL    HW1 1436   2.933   6.475   0.694
  179SOL    HW2 1437   2.784   6.527   0.650
  180SOL     OW 1438   1.328   2.011   0.033
  180SOL    HW1 1439   1.395   2.058   0.090
  180SOL    HW2 1440   1.317   1.916   0.065
  181SOL     OW 1441   3.027   3.450   4.492
  181SOL    HW1 1442   2.999   3.545   4.504
  181SOL    HW2 1443   3.124   3.446   4.467
  182SOL     OW 1444   5.030   2.624   4.678
  182SOL    HW1 1445   5.127   2.631   4.657
  182SOL    HW2 1446   5.018   2.598   4.774
  183SOL     OW 1447   5.800   1.613   2.394
  183SOL    HW1 1448   5.812   1.642   2.489
  183SOL    HW2 1449   5.888   1.583   2.357
  184SOL     OW 1450   0.492   4.888   2.906
  184SOL    HW1 1451   0.544   4.922   2.984
  184SOL    HW2 1452   0.550   4.829   2.851
  185SOL     OW 1453   2.736   3.536   6.323
  185SOL    HW1 1454   2.743   3.440   6.350
  185SOL    HW2 1455   2.783   3.549   6.235
  186SOL     OW 1456   6.117   6.288   3.421
  186SOL    HW1 1457   6.118   6.380   3.460
  186SOL    HW2 1458   6.030   6.272   3.375
  187SOL     OW 1459   5.285   0.179   3.893
  187SOL    HW1 1460   5.349   0.119   3.942
  187SOL    HW2 1461   5.308   0.275   3.912
  188SOL     OW 1462   5.942   2.080   4.683
  188SOL    HW1 1463   5.867   2.030   4.726
  188SOL    HW2 1464   5.921   2.095   4.587
  189SOL     OW 1465   1.435   4.559   3.249
  189SOL    HW1 1466   1.445   4.657   3.234
  189SOL    HW2 1467   1.497   4.530   3.321
  190SOL     OW 1468   3.441   1.303   6.621
  190SOL    HW1 1469   3.342   1.309   6.615
  190SOL    HW2 1470   3.481   1.313   6.530
  191SOL     OW 1471   5.286   6.011   6.224
  191SOL    HW1 1472   5.233   5.935   6.262
  191SOL    HW2 1473   5.312   5.991   6.130
  192SOL     OW 1474   5.823   0.883   0.282
  192SOL    HW1 1475   5.899   0.818   0.285
  192SOL    HW2 1476   5.841   0.958   0.345
  193SOL     OW 1477   5.871   4.161   6.986
  193SOL    HW1 1478   5.876   4.222   0.045
  193SOL    HW2 1479   5.807   4.087   7.004
  194SOL     OW 1480   4.181   0.386   4.565
  194SOL    HW1 1481   4.254   0.323   4.537
  194SOL    HW2 1482   4.120   0.339   4.628
  195SOL     OW 1483   6.786   5.359   2.931
  195SOL    HW1 1484   6.876   5.352   2.973
  195SOL    HW2 1485   6.726   5.413   2.989
  196SOL     OW 1486   0.681   1.100   0.640
  196SOL    HW1 1487   0.721   1.190   0.653
  196SOL    HW2 1488   0.678   1.079   0.542
  197SOL     OW 1489   1.712   0.813   0.862
  197SOL    HW1 1490   1.743   0.762   0.782
  197SOL    HW2 1491   1.613   0.803   0.871
  198SOL     OW 1492   2.868   0.907   4.367
  198SOL    HW1 1493   2.782   0.933   4.411
  198SOL    HW2 1494   2.914   0.989   4.331
  199SOL     OW 1495   0.918   1.642   4.652
  199SOL    HW1 1496   0.947   1.553   4.618
  199SOL    HW2 1497   0.995   1.687   4.698
  200SOL     OW 1498   6.099   2.243   6.984
  200SOL    HW1 1499   6.113   2.252   0.062
  200SOL    HW2 1500   6.113   2.332   6.940
  201SOL     OW 1501   6.783   1.491   5.791
  201SOL    HW1 1502   6.697   1.539   5.771
  201SOL    HW2 1503   6.768   1.429   5.869
  202SOL     OW 1504   5.217   0.185   0.209
  202SOL    HW1 1505   5.182   0.096   0.237
  202SOL    HW2 1506   5.192   0.203   0.114
  203SOL     OW 1507   6.705   3.068   6.722
  203SOL    HW1 1508   6.802   3.092   6.730
  203SOL    HW2 1509   6.653   3.148   6.695
  204SOL     OW 1510   6.452   0.737   5.243
  204SOL    HW1 1511   6.537   0.751   5.295
  204SOL    HW2 1512   6.441   0.640   5.223
  205SOL     OW 1513   2.020   4.373   3.058
  205SOL    HW1 1514   1.934   4.421   3.076
  205SOL    HW2 1515   2.022   4.287   3.110
  206SOL     OW 1516   0.759   4.121   0.678
  206SOL    HW1 1517   0.684   4.186   0.673
  206SOL    HW2 1518   0.745   4.049   0.610
  207SOL     OW 1519   6.185   3.132   4.838
  207SOL    HW1 1520   6.282   3.129   4.815
  207SOL    HW2 1521   6.154   3.227   4.840
  208SOL     OW 1522   1.300   3.002   4.996
  208SOL    HW1 1523   1.264   3.012   5.089
  208SOL    HW2 1524   1.248   3.061   4.934
  209SOL     OW 1525   6.533   4.584   2.711
  209SOL    HW1 1526   6.513   4.676   2.676
  209SOL    HW2 1527   6.585   4.592   2.796
  210SOL     OW 1528   4.710   3.472   0.963
  210SOL    HW1 1529   4.623   3.428   0.940
  210SOL    HW2 1530   4.745   3.520   0.882
  211SOL     OW 1531   1.511   1.163   1.722
  211SOL    HW1 1532   1.451   1.083   1.720
  211SOL    HW2 1533   1.488   1.220   1.801
  212SOL     OW 1534   2.380   3.960   1.798
  212SOL    HW1 1535   2.310   3.958   1.869
  212SOL    HW2 1536   2.353   4.023   1.725
  213SOL     OW 1537   0.888   5.430   1.267
  213SOL    HW1 1538   0.805   5.465   1.222
  213SOL    HW2 1539   0.863   5.353   1.326
  214SOL     OW 1540   5.595   6.691   2.147
  214SOL    HW1 1541   5.573   6.608   2.096
  214SOL    HW2 1542   5.511   6.734   2.180
  215SOL     OW 1543   1.906   4.921   2.809
  215SOL    HW1 1544   1.869   4.882   2.724
  215SOL    HW2 1545   2.006   4.913   2.808
  216SOL     OW 1546   1.856   6.137   3.445
  216SOL    HW1 1547   1.803   6.221   3.431
  216SOL    HW2 1548   1.834   6.071   3.374
  217SOL     OW 1549   0.159   5.309   5.367
  217SOL    HW1 1550   0.156   5.277   5.272
  217SOL    HW2 1551   0.254   5.319   5.395
  218SOL     OW 1552   2.531   2.220   5.649
  218SOL    HW1 1553   2.550   2.293   5.584
  218SOL    HW2 1554   2.553   2.131   5.608
  219SOL     OW 1555   4.720   2.128   1.020
  219SOL    HW1 1556   4.738   2.031   1.002
  219SOL    HW2 1557   4.663   2.165   0.947
  220SOL     OW 1558   2.642   6.520   0.723
  220SOL    HW1 1559   2.568   6.472   0.675
  220SOL    HW2 1560   2.603   6.583   0.790
  221SOL     OW 1561   4.750   4.582   2.058
  221SOL    HW1 1562   4.810   4.504   2.042
  221SOL    HW2 1563   4.796   4.666   2.029
  222SOL     OW 1564   1.770   4.303   6.587
  222SOL    HW1 1565   1.767   4.359   6.670
  222SOL    HW2 1566   1.855   4.320   6.538
  223SOL     OW 1567   6.277   2.128   5.009
  223SOL    HW1 1568   6.239   2.128   4.916
  223SOL    HW2 1569   6.321   2.216   5.027
  224SOL     OW 1570   3.377   2.370   5.827
  224SOL    HW1 1571   3.441   2.312   5.775
  224SOL    HW2 1572   3.429   2.433   5.884
  225SOL     OW 1573   4.080   5.779   6.785
  225SOL    HW1 1574   4.178   5.798   6.777
  225SOL    HW2 1575   4.065   5.711   6.857
  226SOL     OW 1576   1.838   2.533   0.262
  226SOL    HW1 1577   1.768   2.475   0.305
  226SOL    HW2 1578   1.910   2.553   0.328
  227SOL     OW 1579   1.383   4.179   0.852
  227SOL    HW1 1580   1.304   4.201   0.909
  227SOL    HW2 1581   1.465   4.223   0.888
  228SOL     OW 1582   0.894   0.645   2.472
  228SOL    HW1 1583   0.852   0.565   2.429
  228SOL    HW2 1584   0.993   0.630   2.480
  229SOL     OW 1585   3.996   0.519   6.173
  229SOL    HW1 1586   4.062   0.445   6.163
  229SOL    HW2 1587   3.907   0.481   6.197
  230SOL     OW 1588   5.654   4.295   5.956
  230SOL    HW1 1589   5.754   4.295   5.966
  230SOL    HW2 1590   5.630   4.280   5.860
  231SOL     OW 1591   5.218   0.949   6.935
  231SOL    HW1 1592   5.268   0.896   7.004
  231SOL    HW2 1593   5.196   1.039   6.972
  232SOL     OW 1594   1.292   2.080   5.520
  232SOL    HW1 1595   1.200   2.074   5.559
  232SOL    HW2 1596   1.287   2.062   5.422
  233SOL     OW 1597   3.494   1.736   3.159
  233SOL    HW1 1598   3.515   1.659   3.099
  233SOL    HW2 1599   3.413   1.714   3.214
  234SOL     OW 1600   5.128   0.305   0.691
  234SOL    HW1 1601   5.224   0.277   0.697
  234SOL    HW2 1602   5.076   0.234   0.644
  235SOL     OW 1603   5.341   3.321   2.918
  235SOL    HW1 1604   5.346   3.225   2.892
  235SOL    HW2 1605   5.363   3.331   3.015
  236SOL     OW 1606   3.675   3.253   6.020
  236SOL    HW1 1607   3.642   3.319   5.953
  236SOL    HW2 1608   3.599   3.195   6.051
  237SOL     OW 1609   5.911   3.718   2.943
  237SOL    HW1 1610   5.953   3.671   2.866
  237SOL    HW2 1611   5.826   3.672   2.969
  238SOL     OW 1612   6.218   1.761   0.564
  238SOL    HW1 1613   6.194   1.667   0.541
  238SOL    HW2 1614   6.135   1.816   0.573
  239SOL     OW 1615   1.103   3.352   0.430
  239SOL    HW1 1616   1.107   3.308   0.340
  239SOL    HW2 1617   1.104   3.451   0.419
  240SOL     OW 1618   5.158   3.471   4.218
  240SOL    HW1 1619   5.069   3.426   4.213
  240SOL    HW2 1620   5.226   3.406   4.250
  241SOL     OW 1621   2.328   2.401   3.974
  241SOL    HW1 1622   2.319   2.325   3.911
  241SOL    HW2 1623   2.425   2.411   4.000
  242SOL     OW 1624   3.801   3.189   2.430
  242SOL    HW1 1625   3.812   3.133   2.347
  242SOL    HW2 1626   3.891   3.222   2.459
  243SOL     OW 1627   4.042   2.727   6.251
  243SOL    HW1 1628   4.079   2.812   6.213
  243SOL    HW2 1629   3.994   2.747   6.336
  244SOL     OW 1630   4.922   3.353   4.895
  244SOL    HW1 1631   4.994   3.332   4.961
  244SOL    HW2 1632   4.869   3.431   4.927
  245SOL     OW 1633   3.669   1.229   3.194
  245SOL    HW1 1634   3.664   1.328   3.183
  245SOL    HW2 1635   3.587   1.197   3.242
  246SOL     OW 1636   6.597   1.286   2.412
  246SOL    HW1 1637   6.599   1.203   2.467
  246SOL    HW2 1638   6.644   1.270   2.325
  247SOL     OW 1639   1.954   1.450   1.756
  247SOL    HW1 1640   1.960   1.462   1.657
  247SOL    HW2 1641   1.999   1.526   1.802
  248SOL     OW 1642   3.120   3.777   1.415
  248SOL    HW1 1643   3.161   3.687   1.430
  248SOL    HW2 1644   3.076   3.808   1.500
  249SOL     OW 1645   4.995   6.739   5.047
  249SOL    HW1 1646   4.958   6.653   5.012
  249SOL    HW2 1647   4.936   6.774   5.118
  250SOL     OW 1648   4.102   2.343   6.954
  250SOL    HW1 1649   4.054   2.399   6.886
  250SOL    HW2 1650   4.175   2.396   6.997
  251SOL     OW 1651   4.478   5.297   5.479
  251SOL    HW1 1652   4.414   5.282   5.554
  251SOL    HW2 1653   4.522   5.211   5.456
  252SOL     OW 1654   6.600   6.311   4.945
  252SOL    HW1 1655   6.617   6.385   5.010
  252SOL    HW2 1656   6.610   6.223   4.990
  253SOL     OW 1657   4.057   6.080   6.646
  253SOL    HW1 1658   4.017   6.166   6.615
  253SOL    HW2 1659   4.001   6.004   6.614
  254SOL     OW 1660   6.360   1.829   5.313
  254SOL    HW1 1661   6.289   1.887   5.353
  254SOL    HW2 1662   6.318   1.752   5.266
  255SOL     OW 1663   1.016   4.545   6.862
  255SOL    HW1 1664   1.087   4.543   6.932
  255SOL    HW2 1665   1.012   4.456   6.816
  256SOL     OW 1666   5.122   2.392   5.023
  256SOL    HW1 1667   5.151   2.354   5.111
  256SOL    HW2 1668   5.049   2.458   5.039
  257SOL     OW 1669   4.758   6.446   2.243
  257SOL    HW1 1670   4.738   6.543   2.225
  257SOL    HW2 1671   4.683   6.406   2.295
  258SOL     OW 1672   2.103   3.258   5.771
  258SOL    HW1 1673   2.004   3.246   5.785
  258SOL    HW2 1674   2.121   3.284   5.677
  259SOL     OW 1675   3.405   6.962   3.927
  259SOL    HW1 1676   3.475   0.006   3.897
  259SOL    HW2 1677   3.356   7.000   4.005
  260SOL     OW 1678   4.090   5.596   3.144
  260SOL    HW1 1679   4.132   5.624   3.058
  260SOL    HW2 1680   4.160   5.592   3.215
  261SOL     OW 1681   4.201   5.099   0.045
  261SOL    HW1 1682   4.161   5.166   7.002
  261SOL    HW2 1683   4.290   5.069   0.010
  262SOL     OW 1684   0.920   3.906   6.589
  262SOL    HW1 1685   0.879   3.815   6.582
  262SOL    HW2 1686   1.005   3.900   6.642
  263SOL     OW 1687   1.261   0.300   4.186
  263SOL    HW1 1688   1.193   0.232   4.159
  263SOL    HW2 1689   1.340   0.254   4.228
  264SOL     OW 1690   6.452   2.791   6.498
  264SOL    HW1 1691   6.479   2.714   6.556
  264SOL    HW2 1692   6.400   2.857   6.552
  265SOL     OW 1693   6.987   0.340   3.140
  265SOL    HW1 1694   6.909   0.311   3.085
  265SOL    HW2 1695   6.962   0.420   3.195
  266SOL     OW 1696   3.867   0.735   5.893
  266SOL    HW1 1697   3.881   0.761   5.989
  266SOL    HW2 1698   3.900   0.642   5.879
  267SOL     OW 1699   2.320   0.172   2.980
  267SOL    HW1 1700   2.236   0.179   2.925
  267SOL    HW2 1701   2.391   0.127   2.926
  268SOL     OW 1702   3.247   2.331   0.917
  268SOL    HW1 1703   3.159   2.349   0.872
  268SOL    HW2 1704   3.321   2.361   0.858
  269SOL     OW 1705   5.213   1.889   0.360
  269SOL    HW1 1706   5.210   1.789   0.361
  269SOL    HW2 1707   5.219   1.923   0.455
  270SOL     OW 1708   5.540   0.885   0.440
  270SOL    HW1 1709   5.630   0.850   0.414
  270SOL    HW2 1710   5.551   0.969   0.494
  271SOL     OW 1711   0.664   4.231   6.473
  271SOL    HW1 1712   0.689   4.322   6.439
  271SOL    HW2 1713   0.622   4.179   6.398
  272SOL     OW 1714   2.991   5.904   3.103
  272SOL    HW1 1715   3.004   5.936   3.009
  272SOL    HW2 1716   2.947   5.975   3.157
  273SOL     OW 1717   2.005   5.603   5.967
  273SOL    HW1 1718   2.050   5.672   5.910
  273SOL    HW2 1719   2.070   5.568   6.034
  274SOL     OW 1720   4.538   2.327   3.968
  274SOL    HW1 1721   4.490   2.267   3.904
  274SOL    HW2 1722   4.478   2.347   4.046
  275SOL     OW 1723   6.001   6.573   1.382
  275SOL    HW1 1724   6.033   6.656   1.430
  275SOL    HW2 1725   5.929   6.598   1.317
  276SOL     OW 1726   0.720   0.202   4.848
  276SOL    HW1 1727   0.689   0.134   4.914
  276SOL    HW2 1728   0.658   0.202   4.769
  277SOL     OW 1729   1.788   4.570   0.891
  277SOL    HW1 1730   1.856   4.517   0.940
  277SOL    HW2 1731   1.719   4.604   0.955
  278SOL     OW 1732   0.519   2.759   2.829
  278SOL    HW1 1733   0.464   2.831   2.871
  278SOL    HW2 1734   0.591   2.730   2.893
  279SOL     OW 1735   6.400   1.110   3.229
  279SOL    HW1 1736   6.360   1.078   3.143
  279SOL    HW2 1737   6.398   1.036   3.296
  280SOL     OW 1738   1.874   4.591   2.849
  280SOL    HW1 1739   1.867   4.648   2.768
  280SOL    HW2 1740   1.970   4.583   2.876
  281SOL     OW 1741   2.444   4.732   0.929
  281SOL    HW1 1742   2.530   4.780   0.948
  281SOL    HW2 1743   2.399   4.709   1.015
  282SOL     OW 1744   1.838   1.165   5.540
  282SOL    HW1 1745   1.801   1.257   5.540
  282SOL    HW2 1746   1.913   1.159   5.605
  283SOL     OW 1747   3.562   2.944   5.912
  283SOL    HW1 1748   3.650   2.914   5.949
  283SOL    HW2 1749   3.524   2.872   5.854
  284SOL     OW 1750   0.587   3.379   3.886
  284SOL    HW1 1751   0.513   3.403   3.823
  284SOL    HW2 1752   0.557   3.395   3.980
  285SOL     OW 1753   5.258   4.627   4.074
  285SOL    HW1 1754   5.317   4.554   4.041
  285SOL    HW2 1755   5.169   4.589   4.101
  286SOL     OW 1756   3.161   4.501   0.409
  286SOL    HW1 1757   3.100   4.455   0.474
  286SOL    HW2 1758   3.245   4.446   0.398
  287SOL     OW 1759   1.187   2.802   0.278
  287SOL    HW1 1760   1.283   2.816   0.302
  287SOL    HW2 1761   1.180   2.784   0.180
  288SOL     OW 1762   4.821   3.150   1.351
  288SOL    HW1 1763   4.756   3.075   1.342
  288SOL    HW2 1764   4.816   3.209   1.271
  289SOL     OW 1765   3.665   5.314   6.897
  289SOL    HW1 1766   3.733   5.274   6.960
  289SOL    HW2 1767   3.579   5.328   6.946
  290SOL     OW 1768   1.634   0.952   4.706
  290SOL    HW1 1769   1.702   0.987   4.642
  290SOL    HW2 1770   1.671   0.956   4.799
  291SOL     OW 1771   6.528   2.101   3.236
  291SOL    HW1 1772   6.616   2.095   3.283
  291SOL    HW2 1773   6.458   2.057   3.291
  292SOL     OW 1774   3.389   0.320   3.656
  292SOL    HW1 1775   3.346   0.387   3.716
  292SOL    HW2 1776   3.471   0.282   3.701
  293SOL     OW 1777   3.660   5.215   3.294
  293SOL    HW1 1778   3.597   5.289   3.316
  293SOL    HW2 1779   3.743   5.253   3.254
  294SOL     OW 1780   4.937   0.513   0.745
  294SOL    HW1 1781   4.980   0.590   0.791
  294SOL    HW2 1782   5.007   0.448   0.715
  295SOL     OW 1783   5.569   0.030   3.861
  295SOL    HW1 1784   5.599   0.102   3.798
  295SOL    HW2 1785   5.617   6.966   3.839
  296SOL     OW 1786   2.485   1.967   3.017
  296SOL    HW1 1787   2.570   1.990   2.970
  296SOL    HW2 1788   2.409   1.971   2.951
  297SOL     OW 1789   1.856   4.786   2.314
  297SOL    HW1 1790   1.893   4.870   2.275
  297SOL    HW2 1791   1.896   4.707   2.267
  298SOL     OW 1792   6.315   5.211   0.616
  298SOL    HW1 1793   6.337   5.260   0.700
  298SOL    HW2 1794   6.231   5.159   0.629
  299SOL     OW 1795   6.042   2.254   4.326
  299SOL    HW1 1796   6.071   2.342   4.288
  299SOL    HW2 1797   6.008   2.195   4.253
  300SOL     OW 1798   6.018   6.728   1.960
  300SOL    HW1 1799   6.042   6.638   1.924
  300SOL    HW2 1800   6.066   6.798   1.906
  301SOL     OW 1801   4.689   2.732   5.616
  301SOL    HW1 1802   4.596   2.707   5.589
  301SOL    HW2 1803   4.746   2.651   5.619
  302SOL     OW 1804   1.129   5.838   4.194
  302SOL    HW1 1805   1.153   5.836   4.291
  302SOL    HW2 1806   1.040   5.795   4.180
  303SOL     OW 1807   6.276   0.310   3.709
  303SOL    HW1 1808   6.235   0.229   3.667
  303SOL    HW2 1809   6.204   0.373   3.738
  304SOL     OW 1810   3.755   0.155   3.414
  304SOL    HW1 1811   3.791   0.167   3.506
  304SOL    HW2 1812   3.658   0.134   3.419
  305SOL     OW 1813   1.320   4.919   0.856
  305SOL    HW1 1814   1.354   4.966   0.937
  305SOL    HW2 1815   1.247   4.855   0.882
  306SOL     OW 1816   2.091   1.437   3.475
  306SOL    HW1 1817   2.173   1.439   3.531
  306SOL    HW2 1818   2.107   1.491   3.392
  307SOL     OW 1819   3.508   0.526   1.614
  307SOL    HW1 1820   3.562   0.563   1.690
  307SOL    HW2 1821   3.446   0.456   1.650
  308SOL     OW 1822   0.592   4.806   3.723
  308SOL    HW1 1823   0.669   4.860   3.688
  308SOL    HW2 1824   0.556   4.750   3.649
  309SOL     OW 1825   3.613   4.829   5.265
  309SOL    HW1 1826   3.694   4.796   5.313
  309SOL    HW2 1827   3.536   4.769   5.285
  310SOL     OW 1828   1.505   6.049   6.451
  310SOL    HW1 1829   1.498   6.022   6.355
  310SOL    HW2 1830   1.558   5.981   6.501
  311SOL     OW 1831   0.231   0.813   1.312
  311SOL    HW1 1832   0.258   0.775   1.400
  311SOL    HW2 1833   0.312   0.830   1.256
  312SOL     OW 1834   4.332   1.305   5.567
  312SOL    HW1 1835   4.266   1.292   5.493
  312SOL    HW2 1836   4.423   1.322   5.528
  313SOL     OW 1837   0.089   4.876   1.238
  313SOL    HW1 1838   0.050   4.968   1.249
  313SOL    HW2 1839   0.036   4.826   1.170
  314SOL     OW 1840   3.293   5.641   2.229
  314SOL    HW1 1841   3.279   5.620   2.132
  314SOL    HW2 1842   3.357   5.575   2.268
  315SOL     OW 1843   1.171   3.653   2.792
  315SOL    HW1 1844   1.228   3.572   2.801
  315SOL    HW2 1845   1.108   3.642   2.714
  316SOL     OW 1846   2.094   2.977   4.413
  316SOL    HW1 1847   2.099   3.050   4.345
  316SOL    HW2 1848   2.072   3.017   4.502
  317SOL     OW 1849   6.761   1.301   0.183
  317SOL    HW1 1850   6.854   1.267   0.170
  317SOL    HW2 1851   6.705   1.229   0.223
  318SOL     OW 1852   2.987   4.102   0.963
  318SOL    HW1 1853   3.071   4.123   0.912
  318SOL    HW2 1854   2.997   4.014   1.010
  319SOL     OW 1855   0.985   0.744   6.244
  319SOL    HW1 1856   1.076   0.702   6.237
  319SOL    HW2 1857   0.931   0.718   6.164
  320SOL     OW 1858   5.225   3.187   1.032
  320SOL    HW1 1859   5.199   3.108   1.087
  320SOL    HW2 1860   5.153   3.205   0.964
  321SOL     OW 1861   2.216   1.367   2.427
  321SOL    HW1 1862   2.188   1.454   2.387
  321SOL    HW2 1863   2.316   1.362   2.429
  322SOL     OW 1864   3.380   2.740   5.267
  322SOL    HW1 1865   3.281   2.755   5.261
  322SOL    HW2 1866   3.397   2.642   5.283
  323SOL     OW 1867   1.567   4.437   1.632
  323SOL    HW1 1868   1.614   4.355   1.663
  323SOL    HW2 1869   1.613   4.518   1.669
  324SOL     OW 1870   6.851   2.744   4.097
  324SOL    HW1 1871   6.901   2.660   4.117
  324SOL    HW2 1872   6.755   2.723   4.078
  325SOL     OW 1873   2.036   2.203   2.644
  325SOL    HW1 1874   1.945   2.162   2.640
  325SOL    HW2 1875   2.105   2.133   2.625
  326SOL     OW 1876   1.898   4.005   4.418
  326SOL    HW1 1877   1.992   4.014   4.451
  326SOL    HW2 1878   1.870   3.909   4.425
  327SOL     OW 1879   6.272   3.523   6.319
  327SOL    HW1 1880   6.228   3.601   6.275
  327SOL    HW2 1881   6.364   3.512   6.282
  328SOL     OW 1882   3.540   5.506   2.917
  328SOL    HW1 1883   3.598   5.454   2.854
  328SOL    HW2 1884   3.550   5.470   3.010
  329SOL     OW 1885   3.694   3.630   2.293
  329SOL    HW1 1886   3.649   3.547   2.260
  329SOL    HW2 1887   3.627   3.691   2.333
  330SOL     OW 1888   2.476   2.079   1.903
  330SOL    HW1 1889   2.537   2.057   1.979
  330SOL    HW2 1890   2.384   2.043   1.923
  331SOL     OW 1891   6.303   3.994   5.624
  331SOL    HW1 1892   6.284   4.028   5.716
  331SOL    HW2 1893   6.217   3.981   5.575
  332SOL     OW 1894   3.761   1.920   3.700
  332SOL    HW1 1895   3.797   2.007   3.734
  332SOL    HW2 1896   3.837   1.858   3.680
  333SOL     OW 1897   4.775   6.537   0.557
  333SOL    HW1 1898   4.711   6.489   0.617
  333SOL    HW2 1899   4.737   6.625   0.530
  334SOL     OW 1900   4.815   6.537   2.625
  334SOL    HW1 1901   4.799   6.606   2.696
  334SOL    HW2 1902   4.787   6.448   2.659
  335SOL     OW 1903   3.271   0.275   2.446
  335SOL    HW1 1904   3.343   0.298   2.511
  335SOL    HW2 1905   3.245   0.180   2.458
  336SOL     OW 1906   4.025   0.535   4.951
  336SOL    HW1 1907   3.999   0.583   5.036
  336SOL    HW2 1908   3.993   0.588   4.873
  337SOL     OW 1909   0.621   4.071   2.197
  337SOL    HW1 1910   0.651   4.125   2.275
  337SOL    HW2 1911   0.627   3.974   2.219
  338SOL     OW 1912   2.294   2.267   1.346
  338SOL    HW1 1913   2.327   2.283   1.439
  338SOL    HW2 1914   2.196   2.286   1.342
  339SOL     OW 1915   4.347   1.292   3.303
  339SOL    HW1 1916   4.372   1.382   3.268
  339SOL    HW2 1917   4.264   1.259   3.258
  340SOL     OW 1918   4.838   3.876   4.694
  340SOL    HW1 1919   4.854   3.780   4.672
  340SOL    HW2 1920   4.832   3.887   4.793
  341SOL     OW 1921   4.547   4.359   5.795
  341SOL    HW1 1922   4.448   4.366   5.809
  341SOL    HW2 1923   4.593   4.365   5.884
  342SOL     OW 1924   5.951   3.821   0.813
  342SOL    HW1 1925   5.935   3.857   0.721
  342SOL    HW2 1926   6.001   3.735   0.806
  343SOL     OW 1927   2.457   0.734   2.755
  343SOL    HW1 1928   2.535   0.727   2.817
  343SOL    HW2 1929   2.477   0.801   2.684
  344SOL     OW 1930   3.562   6.706   0.052
  344SOL    HW1 1931   3.614   6.758   7.005
  344SOL    HW2 1932   3.579   6.744   0.143
  345SOL     OW 1933   1.400   1.549   5.100
  345SOL    HW1 1934   1.356   1.605   5.171
  345SOL    HW2 1935   1.469   1.490   5.141
  346SOL     OW 1936   2.871   0.689   5.452
  346SOL    HW1 1937   2.834   0.614   5.398
  346SOL    HW2 1938   2.808   0.767   5.448
  347SOL     OW 1939   5.147   6.298   6.092
  347SOL    HW1 1940   5.168   6.333   6.001
  347SOL    HW2 1941   5.178   6.203   6.100
  348SOL     OW 1942   2.836   6.887   3.104
  348SOL    HW1 1943   2.899   6.931   3.168
  348SOL    HW2 1944   2.868   6.794   3.084
  349SOL     OW 1945   2.427   5.191   2.198
  349SOL    HW1 1946   2.361   5.245   2.251
  349SOL    HW2 1947   2.414   5.094   2.218
  350SOL     OW 1948   4.796   3.041   0.919
  350SOL    HW1 1949   4.727   3.095   0.872
  350SOL    HW2 1950   4.885   3.087   0.912
  351SOL     OW 1951   3.382   1.912   0.892
  351SOL    HW1 1952   3.290   1.943   0.867
  351SOL    HW2 1953   3.410   1.957   0.977
  352SOL     OW 1954   3.042   2.165   6.326
  352SOL    HW1 1955   3.140   2.167   6.305
  352SOL    HW2 1956   3.022   2.232   6.398
  353SOL     OW 1957   2.292   7.016   1.333
  353SOL    HW1 1958   2.200   7.007   1.373
  353SOL    HW2 1959   2.359   6.970   1.392
  354SOL     OW 1960   5.220   0.093   2.227
  354SOL    HW1 1961   5.273   0.096   2.311
  354SOL    HW2 1962   5.125   0.071   2.248
  355SOL     OW 1963   0.779   1.290   2.274
  355SOL    HW1 1964   0.845   1.363   2.255
  355SOL    HW2 1965   0.686   1.327   2.268
  356SOL     OW 1966   3.167   0.096   2.865
  356SOL    HW1 1967   3.208   0.150   2.791
  356SOL    HW2 1968   3.168   7.020   2.840
  357SOL     OW 1969   1.291   5.374   4.769
  357SOL    HW1 1970   1.250   5.305   4.829
  357SOL    HW2 1971   1.297   5.338   4.676
  358SOL     OW 1972   4.596   1.108   3.082
  358SOL    HW1 1973   4.684   1.151   3.062
  358SOL    HW2 1974   4.538   1.173   3.132
  359SOL     OW 1975   0.066   1.585   0.431
  359SOL    HW1 1976   0.053   1.537   0.344
  359SOL    HW2 1977   0.009   1.668   0.432
  360SOL     OW 1978   4.898   0.323   6.826
  360SOL    HW1 1979   4.830   0.284   6.764
  360SOL    HW2 1980   4.961   0.381   6.775
  361SOL     OW 1981   3.242   0.571   2.420
  361SOL    HW1 1982   3.241   0.471   2.425
  361SOL    HW2 1983   3.275   0.608   2.507
  362SOL     OW 1984   2.889   3.796   0.756
  362SOL    HW1 1985   2.796   3.823   0.732
  362SOL    HW2 1986   2.954   3.847   0.699
  363SOL     OW 1987   5.100   4.373   3.683
  363SOL    HW1 1988   5.053   4.443   3.736
  363SOL    HW2 1989   5.072   4.378   3.588
  364SOL     OW 1990   2.601   5.843   6.587
  364SOL    HW1 1991   2.664   5.766   6.592
  364SOL    HW2 1992   2.642   5.917   6.533
  365SOL     OW 1993   4.932   6.445   2.900
  365SOL    HW1 1994   4.982   6.525   2.932
  365SOL    HW2 1995   4.834   6.457   2.918
  366SOL     OW 1996   5.363   1.137   0.366
  366SOL    HW1 1997   5.428   1.174   0.433
  366SOL    HW2 1998   5.396   1.156   0.274
  367SOL     OW 1999   5.401   2.405   2.139
  367SOL    HW1 2000   5.315   2.356   2.151
  367SOL    HW2 2001   5.475   2.351   2.179
  368SOL     OW 2002   0.017   4.999   5.283
  368SOL    HW1 2003   0.111   4.966   5.289
  368SOL    HW2 2004   7.000   4.974   5.194
  369SOL     OW 2005   0.949   4.025   1.947
  369SOL    HW1 2006   1.026   4.075   1.988
  369SOL    HW2 2007   0.863   4.064   1.980
  370SOL     OW 2008   3.633   1.566   6.644
  370SOL    HW1 2009   3.584   1.508   6.709
  370SOL    HW2 2010   3.627   1.661   6.675
  371SOL     OW 2011   3.503   2.669   6.568
  371SOL    HW1 2012   3.582   2.661   6.507
  371SOL    HW2 2013   3.436   2.600   6.543
  372SOL     OW 2014   2.244   5.689   0.275
  372SOL    HW1 2015   2.210   5.734   0.358
  372SOL    HW2 2016   2.325   5.634   0.297
  373SOL     OW 2017   5.883   6.699   6.388
  373SOL    HW1 2018   5.956   6.635   6.411
  373SOL    HW2 2019   5.922   6.790   6.373
  374SOL     OW 2020   5.032   0.714   0.937
  374SOL    HW1 2021   5.012   0.800   0.985
  374SOL    HW2 2022   5.100   0.662   0.987
  375SOL     OW 2023   6.602   4.621   1.473
  375SOL    HW1 2024   6.671   4.689   1.450
  375SOL    HW2 2025   6.538   4.612   1.396
  376SOL     OW 2026   2.096   4.194   5.120
  376SOL    HW1 2027   2.040   4.141   5.184
  376SOL    HW2 2028   2.185   4.151   5.109
  377SOL     OW 2029   5.004   1.202   4.075
  377SOL    HW1 2030   5.046   1.122   4.120
  377SOL    HW2 2031   5.021   1.197   3.977
  378SOL     OW 2032   5.210   2.271   5.376
  378SOL    HW1 2033   5.299   2.276   5.422
  378SOL    HW2 2034   5.184   2.362   5.345
  379SOL     OW 2035   6.392   2.770   1.317
  379SOL    HW1 2036   6.479   2.722   1.330
  379SOL    HW2 2037   6.346   2.780   1.406
  380SOL     OW 2038   1.095   2.396   0.213
  380SOL    HW1 2039   1.092   2.469   0.281
  380SOL    HW2 2040   1.007   2.349   0.211
  381SOL     OW 2041   4.487   4.831   0.090
  381SOL    HW1 2042   4.459   4.899   0.158
  381SOL    HW2 2043   4.488   4.873   7.020
  382SOL     OW 2044   1.924   5.631   6.793
  382SOL    HW1 2045   1.859   5.598   6.724
  382SOL    HW2 2046   1.984   5.700   6.751
  383SOL     OW 2047   6.175   1.435   7.012
  383SOL    HW1 2048   6.257   1.442   0.048
  383SOL    HW2 2049   6.180   1.501   6.937
  384SOL     OW 2050   1.317   5.597   4.201
  384SOL    HW1 2051   1.330   5.580   4.299
  384SOL    HW2 2052   1.262   5.679   4.188
  385SOL     OW 2053   4.534   5.148   1.333
  385SOL    HW1 2054   4.594   5.154   1.253
  385SOL    HW2 2055   4.540   5.057   1.373
  386SOL     OW 2056   2.382   5.849   4.475
  386SOL    HW1 2057   2.479   5.869   4.458
  386SOL    HW2 2058   2.336   5.829   4.388
  387SOL     OW 2059   0.288   0.871   5.437
  387SOL    HW1 2060   0.384   0.885   5.463
  387SOL    HW2 2061   0.283   0.857   5.338
  388SOL     OW 2062   0.598   2.011   4.519
  388SOL    HW1 2063   0.678   1.964   4.556
  388SOL    HW2 2064   0.564   1.963   4.438
  389SOL     OW 2065   4.948   3.266   2.416
  389SOL    HW1 2066   4.881   3.192   2.417
  389SOL    HW2 2067   4.960   3.298   2.322
  390SOL     OW 2068   3.638   2.728   0.488
  390SOL    HW1 2069   3.566   2.779   0.442
  390SOL    HW2 2070   3.670   2.655   0.428
  391SOL     OW 2071   4.074   3.632   3.684
  391SOL    HW1 2072   4.124   3.592   3.607
  391SOL    HW2 2073   4.126   3.619   3.768
  392SOL     OW 2074   2.192   3.662   1.300
  392SOL    HW1 2075   2.207   3.568   1.328
  392SOL    HW2 2076   2.112   3.699   1.347
  393SOL     OW 2077   1.582   6.351   1.198
  393SOL    HW1 2078   1.493   6.339   1.154
  393SOL    HW2 2079   1.654   6.318   1.137
  394SOL     OW 2080   5.867   1.115   6.268
  394SOL    HW1 2081   5.772   1.129   6.238
  394SOL    HW2 2082   5.878   1.151   6.361
  395SOL     OW 2083   5.942   5.051   6.930
  395SOL    HW1 2084   5.917   5.017   6.839
  395SOL    HW2 2085   5.859   5.072   6.981
  396SOL     OW 2086   0.777   0.790   1.359
  396SOL    HW1 2087   0.876   0.800   1.367
  396SOL    HW2 2088   0.755   0.740   1.275
  397SOL     OW 2089   4.609   1.999   4.800
  397SOL    HW1 2090   4.677   2.024   4.732
  397SOL    HW2 2091   4.601   2.073   4.867
  398SOL     OW 2092   0.185   1.655   2.790
  398SOL    HW1 2093   0.106   1.694   2.743
  398SOL    HW2 2094   0.242   1.605   2.724
  399SOL     OW 2095   5.882   5.649   4.061
  399SOL    HW1 2096   5.882   5.581   3.989
  399SOL    HW2 2097   5.923   5.610   4.144
  400SOL     OW 2098   6.924   6.437   3.149
  400SOL    HW1 2099   6.879   6.352   3.176
  400SOL    HW2 2100   6.856   6.510   3.143
  401SOL     OW 2101   1.239   6.117   4.906
  401SOL    HW1 2102   1.314   6.159   4.958
  401SOL    HW2 2103   1.185   6.059   4.967
  402SOL     OW 2104   6.030   1.025   4.518
  402SOL    HW1 2105   6.020   1.063   4.426
  402SOL    HW2 2106   5.971   0.945   4.527
  403SOL     OW 2107   2.437   1.752   5.379
  403SOL    HW1 2108   2.372   1.676   5.382
  403SOL    HW2 2109   2.481   1.755   5.289
  404SOL     OW 2110   2.736   5.950   3.536
  404SOL    HW1 2111   2.814   5.993   3.489
  404SOL    HW2 2112   2.715   6.002   3.619
  405SOL     OW 2113   2.375   4.951   3.946
  405SOL    HW1 2114   2.414   4.949   4.038
  405SOL    HW2 2115   2.280   4.918   3.949
  406SOL     OW 2116   0.837   6.947   6.914
  406SOL    HW1 2117   0.762   6.978   6.855
  406SOL    HW2 2118   0.886   0.006   6.950
  407SOL     OW 2119   2.046   3.669   4.193
  407SOL    HW1 2120   2.070   3.584   4.239
  407SOL    HW2 2121   2.030   3.652   4.096
  408SOL     OW 2122   2.658   2.032   2.136
  408SOL    HW1 2123   2.730   2.101   2.128
  408SOL    HW2 2124   2.692   1.944   2.104
  409SOL     OW 2125   0.408   2.468   2.103
  409SOL    HW1 2126   0.483   2.515   2.056
  409SOL    HW2 2127   0.441   2.383   2.142
  410SOL     OW 2128   1.643   3.518   1.616
  410SOL    HW1 2129   1.718   3.580   1.638
  410SOL    HW2 2130   1.676   3.444   1.559
  411SOL     OW 2131   6.889   1.655   1.247
  411SOL    HW1 2132   6.879   1.570   1.299
  411SOL    HW2 2133   6.833   1.650   1.164
  412SOL     OW 2134   2.409   4.319   2.969
  412SOL    HW1 2135   2.416   4.415   2.997
  412SOL    HW2 2136   2.492   4.270   2.996
  413SOL     OW 2137   6.379   5.312   2.678
  413SOL    HW1 2138   6.377   5.376   2.754
  413SOL    HW2 2139   6.291   5.314   2.630
  414SOL     OW 2140   2.382   0.078   2.563
  414SOL    HW1 2141   2.466   0.129   2.543
  414SOL    HW2 2142   2.399   0.011   2.634
  415SOL     OW 2143   5.962   2.744   0.873
  415SOL    HW1 2144   5.946   2.836   0.839
  415SOL    HW2 2145   5.931   2.737   0.968
  416SOL     OW 2146   6.175   3.059   0.055
  416SOL    HW1 2147   6.132   3.083   0.142
  416SOL    HW2 2148   6.146   3.124   7.006
  417SOL     OW 2149   2.261   2.358   5.366
  417SOL    HW1 2150   2.282   2.263   5.345
  417SOL    HW2 2151   2.167   2.364   5.401
  418SOL     OW 2152   3.736   6.023   6.606
  418SOL    HW1 2153   3.751   6.088   6.681
  418SOL    HW2 2154   3.743   5.930   6.640
  419SOL     OW 2155   5.652   0.378   0.537
  419SOL    HW1 2156   5.718   0.363   0.610
  419SOL    HW2 2157   5.684   0.452   0.478
  420SOL     OW 2158   3.039   6.507   1.034
  420SOL    HW1 2159   3.126   6.556   1.029
  420SOL    HW2 2160   2.998   6.520   1.125
  421SOL     OW 2161   5.212   4.840   2.914
  421SOL    HW1 2162   5.133   4.898   2.897
  421SOL    HW2 2163   5.295   4.886   2.883
  422SOL     OW 2164   4.225   1.576   2.197
  422SOL    HW1 2165   4.290   1.637   2.241
  422SOL    HW2 2166   4.132   1.598   2.229
  423SOL     OW 2167   2.258   0.906   5.689
  423SOL    HW1 2168   2.240   0.940   5.782
  423SOL    HW2 2169   2.210   0.819   5.676
  424SOL     OW 2170   1.366   4.458   4.242
  424SOL    HW1 2171   1.436   4.479   4.173
  424SOL    HW2 2172   1.399   4.485   4.332
  425SOL     OW 2173   2.928   1.390   6.825
  425SOL    HW1 2174   2.981   1.363   6.745
  425SOL    HW2 2175   2.840   1.426   6.796
  426SOL     OW 2176   2.485   2.606   3.302
  426SOL    HW1 2177   2.508   2.648   3.215
  426SOL    HW2 2178   2.397   2.560   3.295
  427SOL     OW 2179   4.298   1.383   4.356
  427SOL    HW1 2180   4.331   1.319   4.426
  427SOL    HW2 2181   4.248   1.457   4.399
  428SOL     OW 2182   2.177   2.341   6.039
  428SOL    HW1 2183   2.091   2.304   6.075
  428SOL    HW2 2184   2.220   2.275   5.979
  429SOL     OW 2185   6.676   0.048   3.294
  429SOL    HW1 2186   6.761   0.007   3.327
  429SOL    HW2 2187   6.659   0.019   3.200
  430SOL     OW 2188   1.818   1.431   3.502
  430SOL    HW1 2189   1.793   1.498   3.433
  430SOL    HW2 2190   1.916   1.414   3.498
  431SOL     OW 2191   2.201   0.903   1.399
  431SOL    HW1 2192   2.268   0.942   1.335
  431SOL    HW2 2193   2.211   0.946   1.488
  432SOL     OW 2194   5.332   1.836   1.976
  432SOL    HW1 2195   5.414   1.780   1.990
  432SOL    HW2 2196   5.359   1.932   1.963
  433SOL     OW 2197   2.013   4.233   6.931
  433SOL    HW1 2198   1.919   4.199   6.935
  433SOL    HW2 2199   2.069   4.183   6.998
  434SOL     OW 2200   3.821   5.617   2.750
  434SOL    HW1 2201   3.855   5.650   2.838
  434SOL    HW2 2202   3.770   5.532   2.763
  435SOL     OW 2203   2.749   2.658   6.691
  435SOL    HW1 2204   2.702   2.570   6.684
  435SOL    HW2 2205   2.817   2.665   6.617
  436SOL     OW 2206   5.269   6.449   2.491
  436SOL    HW1 2207   5.229   6.396   2.565
  436SOL    HW2 2208   5.197   6.491   2.436
  437SOL     OW 2209   6.903   0.956   5.822
  437SOL    HW1 2210   6.820   0.963   5.877
  437SOL    HW2 2211   6.915   1.040   5.769
  438SOL     OW 2212   0.919   3.875   1.723
  438SOL    HW1 2213   0.932   3.921   1.810
  438SOL    HW2 2214   1.007   3.843   1.688
  439SOL     OW 2215   0.588   1.332   6.457
  439SOL    HW1 2216   0.499   1.311   6.414
  439SOL    HW2 2217   0.655   1.353   6.387
  440SOL     OW 2218   3.741   1.549   1.272
  440SOL    HW1 2219   3.752   1.449   1.269
  440SOL    HW2 2220   3.739   1.584   1.178
  441SOL     OW 2221   1.288   4.630   2.557
  441SOL    HW1 2222   1.250   4.668   2.472
  441SOL    HW2 2223   1.220   4.636   2.630
  442SOL     OW 2224   2.963   3.186   5.031
  442SOL    HW1 2225   3.014   3.143   4.956
  442SOL    HW2 2226   2.954   3.121   5.107
  443SOL     OW 2227   4.799   2.481   2.138
  443SOL    HW1 2228   4.852   2.412   2.088
  443SOL    HW2 2229   4.703   2.454   2.140
  444SOL     OW 2230   4.075   2.603   1.037
  444SOL    HW1 2231   3.980   2.599   1.008
  444SOL    HW2 2232   4.083   2.576   1.133
  445SOL     OW 2233   1.966   5.856   3.881
  445SOL    HW1 2234   1.908   5.917   3.828
  445SOL    HW2 2235   2.060   5.890   3.879
  446SOL     OW 2236   0.165   6.539   0.608
  446SOL    HW1 2237   0.209   6.580   0.528
  446SOL    HW2 2238   0.157   6.608   0.680
  447SOL     OW 2239   6.450   3.081   0.088
  447SOL    HW1 2240   6.464   3.154   0.021
  447SOL    HW2 2241   6.357   3.047   0.082
  448SOL     OW 2242   3.648   6.781   4.151
  448SOL    HW1 2243   3.738   6.813   4.181
  448SOL    HW2 2244   3.647   6.775   4.051
  449SOL     OW 2245   0.941   3.743   5.012
  449SOL    HW1 2246   0.853   3.711   4.979
  449SOL    HW2 2247   0.956   3.837   4.980
  450SOL     OW 2248   6.345   3.773   3.766
  450SOL    HW1 2249   6.415   3.823   3.818
  450SOL    HW2 2250   6.339   3.810   3.674
  451SOL     OW 2251   2.561   1.534   6.287
  451SOL    HW1 2252   2.633   1.602   6.274
  451SOL    HW2 2253   2.472   1.576   6.266
  452SOL     OW 2254   4.651   5.297   1.572
  452SOL    HW1 2255   4.722   5.227   1.568
  452SOL    HW2 2256   4.586   5.282   1.498
  453SOL     OW 2257   4.016   0.823   0.261
  453SOL    HW1 2258   4.038   0.907   0.212
  453SOL    HW2 2259   3.922   0.829   0.298
  454SOL     OW 2260   6.854   3.003   3.721
  454SOL    HW1 2261   6.809   2.946   3.652
  454SOL    HW2 2262   6.918   2.948   3.773
  455SOL     OW 2263   6.276   5.228   0.153
  455SOL    HW1 2264   6.235   5.260   0.067
  455SOL    HW2 2265   6.249   5.290   0.227
  456SOL     OW 2266   1.483   1.139   3.347
  456SOL    HW1 2267   1.506   1.075   3.421
  456SOL    HW2 2268   1.536   1.116   3.266
  457SOL     OW 2269   3.085   5.854   0.840
  457SOL    HW1 2270   3.154   5.788   0.812
  457SOL    HW2 2271   3.092   5.936   0.783
  458SOL     OW 2272   2.984   1.121   4.238
  458SOL    HW1 2273   3.061   1.110   4.302
  458SOL    HW2 2274   3.020   1.136   4.146
  459SOL     OW 2275   2.940   1.247   3.833
  459SOL    HW1 2276   2.979   1.160   3.865
  459SOL    HW2 2277   2.870   1.229   3.764
  460SOL     OW 2278   0.989   1.575   6.785
  460SOL    HW1 2279   0.916   1.520   6.744
  460SOL    HW2 2280   0.962   1.671   6.787
  461SOL     OW 2281   1.250   6.810   4.785
  461SOL    HW1 2282   1.190   6.889   4.799
  461SOL    HW2 2283   1.225   6.737   4.848
  462SOL     OW 2284   3.730   4.301   5.451
  462SOL    HW1 2285   3.703   4.205   5.450
  462SOL    HW2 2286   3.826   4.310   5.425
  463SOL     OW 2287   5.646   6.569   3.324
  463SOL    HW1 2288   5.571   6.525   3.373
  463SOL    HW2 2289   5.674   6.512   3.247
  464SOL     OW 2290   4.408   6.042   4.741
  464SOL    HW1 2291   4.358   5.970   4.790
  464SOL    HW2 2292   4.434   6.114   4.805
  465SOL     OW 2293   0.775   5.333   0.913
  465SOL    HW1 2294   0.813   5.423   0.935
  465SOL    HW2 2295   0.831   5.290   0.842
  466SOL     OW 2296   3.395   5.080   3.667
  466SOL    HW1 2297   3.482   5.072   3.716
  466SOL    HW2 2298   3.320   5.061   3.731
  467SOL     OW 2299   6.944   6.647   1.460
  467SOL    HW1 2300   6.878   6.619   1.530
  467SOL    HW2 2301   7.008   6.571   1.443
  468SOL     OW 2302   2.429   6.694   6.919
  468SOL    HW1 2303   2.484   6.775   6.938
  468SOL    HW2 2304   2.423   6.680   6.820
  469SOL     OW 2305   3.748   4.829   5.634
  469SOL    HW1 2306   3.782   4.735   5.625
  469SOL    HW2 2307   3.657   4.827   5.675
  470SOL     OW 2308   2.875   5.059   2.068
  470SOL    HW1 2309   2.938   4.999   2.019
  470SOL    HW2 2310   2.921   5.145   2.090
  471SOL     OW 2311   1.439   1.999   4.658
  471SOL    HW1 2312   1.445   1.914   4.606
  471SOL    HW2 2313   1.530   2.027   4.688
  472SOL     OW 2314   5.172   4.206   6.548
  472SOL    HW1 2315   5.088   4.229   6.500
  472SOL    HW2 2316   5.229   4.148   6.489
  473SOL     OW 2317   5.574   3.378   1.724
  473SOL    HW1 2318   5.481   3.404   1.699
  473SOL    HW2 2319   5.617   3.330   1.648
  474SOL     OW 2320   5.134   4.729   3.704
  474SOL    HW1 2321   5.122   4.691   3.796
  474SOL    HW2 2322   5.232   4.738   3.685
  475SOL     OW 2323   4.595   1.494   0.377
  475SOL    HW1 2324   4.643   1.525   0.294
  475SOL    HW2 2325   4.637   1.410   0.410
  476SOL     OW 2326   1.164   2.757   7.008
  476SOL    HW1 2327   1.263   2.743   7.014
  476SOL    HW2 2328   1.142   2.805   6.923
  477SOL     OW 2329   5.757   5.720   3.826
  477SOL    HW1 2330   5.693   5.785   3.867
  477SOL    HW2 2331   5.851   5.748   3.847
  478SOL     OW 2332   6.618   4.971   2.024
  478SOL    HW1 2333   6.568   5.047   1.984
  478SOL    HW2 2334   6.606   4.970   2.123
  479SOL     OW 2335   3.538   3.922   2.772
  479SOL    HW1 2336   3.594   3.931   2.690
  479SOL    HW2 2337   3.588   3.959   2.851
  480SOL     OW 2338   0.193   0.283   1.921
  480SOL    HW1 2339   0.183   0.379   1.945
  480SOL    HW2 2340   0.249   0.237   1.990
  481SOL     OW 2341   6.150   6.093   0.798
  481SOL    HW1 2342   6.080   6.022   0.791
  481SOL    HW2 2343   6.175   6.106   0.894
  482SOL     OW 2344   3.659   4.962   2.614
  482SOL    HW1 2345   3.638   4.930   2.522
  482SOL    HW2 2346   3.575   4.977   2.665
  483SOL     OW 2347   6.042   1.709   4.549
  483SOL    HW1 2348   6.080   1.627   4.507
  483SOL    HW2 2349   6.029   1.780   4.480
  484SOL     OW 2350   2.550   5.255   3.704
  484SOL    HW1 2351   2.623   5.192   3.729
  484SOL    HW2 2352   2.463   5.224   3.743
  485SOL     OW 2353   4.627   2.221   0.789
  485SOL    HW1 2354   4.550   2.183   0.739
  485SOL    HW2 2355   4.695   2.254   0.724
  486SOL     OW 2356   6.015   6.092   5.333
  486SOL    HW1 2357   6.041   6.147   5.413
  486SOL    HW2 2358   6.088   6.027   5.312
  487SOL     OW 2359   6.371   0.880   0.005
  487SOL    HW1 2360   6.380   0.877   6.926
  487SOL    HW2 2361   6.277   0.907   0.029
  488SOL     OW 2362   1.831   6.209   3.934
  488SOL    HW1 2363   1.767   6.286   3.933
  488SOL    HW2 2364   1.909   6.230   3.875
  489SOL     OW 2365   2.669   4.425   5.296
  489SOL    HW1 2366   2.710   4.343   5.336
  489SOL    HW2 2367   2.738   4.475   5.243
  490SOL     OW 2368   1.386   3.727   5.173
  490SOL    HW1 2369   1.478   3.695   5.197
  490SOL    HW2 2370   1.347   3.664   5.105
  491SOL     OW 2371   6.248   3.321   1.513
  491SOL    HW1 2372   6.257   3.222   1.521
  491SOL    HW2 2373   6.290   3.351   1.427
  492SOL     OW 2374   1.724   2.605   5.576
  492SOL    HW1 2375   1.659   2.570   5.644
  492SOL    HW2 2376   1.732   2.539   5.501
  493SOL     OW 2377   1.309   5.580   3.618
  493SOL    HW1 2378   1.392   5.636   3.613
  493SOL    HW2 2379   1.230   5.638   3.636
  494SOL     OW 2380   2.914   0.176   2.719
  494SOL    HW1 2381   2.989   0.242   2.716
  494SOL    HW2 2382   2.878   0.170   2.812
  495SOL     OW 2383   4.026   4.528   0.310
  495SOL    HW1 2384   4.104   4.579   0.348
  495SOL    HW2 2385   3.975   4.587   0.247
  496SOL     OW 2386   4.703   0.105   3.231
  496SOL    HW1 2387   4.643   0.162   3.288
  496SOL    HW2 2388   4.702   0.138   3.137
  497SOL     OW 2389   5.040   2.521   1.033
  497SOL    HW1 2390   5.033   2.616   1.002
  497SOL    HW2 2391   4.952   2.475   1.022
  498SOL     OW 2392   0.926   0.033   0.976
  498SOL    HW1 2393   0.836   7.016   0.996
  498SOL    HW2 2394   0.978   6.990   0.920
  499SOL     OW 2395   3.110   6.694   6.559
  499SOL    HW1 2396   3.093   6.793   6.565
  499SOL    HW2 2397   3.183   6.677   6.493
  500SOL     OW 2398   5.972   1.707   6.134
  500SOL    HW1 2399   5.905   1.655   6.188
  500SOL    HW2 2400   6.064   1.678   6.159
  501SOL     OW 2401   2.054   2.283   4.566
  501SOL    HW1 2402   2.101   2.359   4.521
  501SOL    HW2 2403   2.080   2.280   4.662
  502SOL     OW 2404   2.713   2.800   0.115
  502SOL    HW1 2405   2.692   2.827   0.021
  502SOL    HW2 2406   2.807   2.765   0.120
  503SOL     OW 2407   4.409   5.423   0.852
  503SOL    HW1 2408   4.331   5.461   0.901
  503SOL    HW2 2409   4.428   5.331   0.886
  504SOL     OW 2410   5.989   0.668   0.218
  504SOL    HW1 2411   6.071   0.618   0.245
  504SOL    HW2 2412   5.981   0.669   0.118
  505SOL     OW 2413   0.234   3.759   5.161
  505SOL    HW1 2414   0.322   3.804   5.144
  505SOL    HW2 2415   0.161   3.808   5.113
  506SOL     OW 2416   2.634   5.765   1.900
  506SOL    HW1 2417   2.680   5.758   1.988
  506SOL    HW2 2418   2.615   5.673   1.865
  507SOL     OW 2419   2.675   6.830   3.780
  507SOL    HW1 2420   2.693   6.893   3.704
  507SOL    HW2 2421   2.754   6.830   3.841
  508SOL     OW 2422   0.587   5.203   2.805
  508SOL    HW1 2423   0.594   5.286   2.748
  508SOL    HW2 2424   0.491   5.182   2.821
  509SOL     OW 2425   4.746   0.444   6.025
  509SOL    HW1 2426   4.655   0.482   6.042
  509SOL    HW2 2427   4.780   0.478   5.938
  510SOL     OW 2428   6.352   4.285   0.363
  510SOL    HW1 2429   6.398   4.198   0.381
  510SOL    HW2 2430   6.343   4.298   0.265
  511SOL     OW 2431   0.296   2.183   0.685
  511SOL    HW1 2432   0.229   2.110   0.674
  511SOL    HW2 2433   0.254   2.260   0.734
  512SOL     OW 2434   1.598   2.227   4.769
  512SOL    HW1 2435   1.506   2.254   4.742
  512SOL    HW2 2436   1.665   2.269   4.707
  513SOL     OW 2437   5.830   5.831   2.850
  513SOL    HW1 2438   5.845   5.739   2.887
  513SOL    HW2 2439   5.813   5.894   2.926
  514SOL     OW 2440   4.890   1.283   4.476
  514SOL    HW1 2441   4.916   1.348   4.548
  514SOL    HW2 2442   4.801   1.309   4.438
  515SOL     OW 2443   3.188   0.716   6.676
  515SOL    HW1 2444   3.158   0.649   6.609
  515SOL    HW2 2445   3.131   0.710   6.758
  516SOL     OW 2446   0.539   5.498   2.754
  516SOL    HW1 2447   0.618   5.552   2.781
  516SOL    HW2 2448   0.490   5.467   2.835
  517SOL     OW 2449   3.716   5.432   0.741
  517SOL    HW1 2450   3.619   5.427   0.765
  517SOL    HW2 2451   3.753   5.521   0.770
  518SOL     OW 2452   1.903   0.201   3.994
  518SOL    HW1 2453   1.966   0.210   4.071
  518SOL    HW2 2454   1.920   0.274   3.928
  519SOL     OW 2455   6.674   7.004   3.021
  519SOL    HW1 2456   6.726   0.064   2.995
  519SOL    HW2 2457   6.626   6.968   2.941
  520SOL     OW 2458   3.872   5.714   0.623
  520SOL    HW1 2459   3.865   5.702   0.722
  520SOL    HW2 2460   3.780   5.725   0.585
  521SOL     OW 2461   0.102   7.006   5.123
  521SOL    HW1 2462   0.078   6.944   5.048
  521SOL    HW2 2463   0.156   0.062   5.087
  522SOL     OW 2464   3.552   5.004   6.423
  522SOL    HW1 2465   3.471   4.947   6.435
  522SOL    HW2 2466   3.620   4.981   6.493
  523SOL     OW 2467   1.508   6.993   5.783
  523SOL    HW1 2468   1.461   0.047   5.737
  523SOL    HW2 2469   1.605   6.993   5.756
  524SOL     OW 2470   6.419   1.400   1.099
  524SOL    HW1 2471   6.503   1.352   1.075
  524SOL    HW2 2472   6.368   1.347   1.166
  525SOL     OW 2473   0.829   2.957   3.659
  525SOL    HW1 2474   0.866   3.049   3.666
  525SOL    HW2 2475   0.894   2.898   3.610
  526SOL     OW 2476   3.796   6.070   4.344
  526SOL    HW1 2477   3.710   6.121   4.334
  526SOL    HW2 2478   3.873   6.129   4.320
  527SOL     OW 2479   6.724   1.321   0.957
  527SOL    HW1 2480   6.764   1.346   0.869
  527SOL    HW2 2481   6.653   1.253   0.943
  528SOL     OW 2482   0.095   1.531   3.901
  528SOL    HW1 2483   0.175   1.577   3.939
  528SOL    HW2 2484   0.079   1.566   3.808
  529SOL     OW 2485   1.202   1.309   6.253
  529SOL    HW1 2486   1.145   1.391   6.267
  529SOL    HW2 2487   1.168   1.258   6.175
  530SOL     OW 2488   3.573   4.434   1.708
  530SOL    HW1 2489   3.559   4.512   1.769
  530SOL    HW2 2490   3.572   4.466   1.613
  531SOL     OW 2491   6.741   1.885   5.872
  531SOL    HW1 2492   6.807   1.813   5.848
  531SOL    HW2 2493   6.677   1.850   5.940
  532SOL     OW 2494   3.596   0.926   6.801
  532SOL    HW1 2495   3.513   0.881   6.767
  532SOL    HW2 2496   3.676   0.882   6.761
  533SOL     OW 2497   3.821   0.156   4.874
  533SOL    HW1 2498   3.824   0.203   4.962
  533SOL    HW2 2499   3.770   0.213   4.808
  534SOL     OW 2500   2.122   4.188   1.042
  534SOL    HW1 2501   2.149   4.120   0.973
  534SOL    HW2 2502   2.190   4.189   1.115
  535SOL     OW 2503   4.423   4.598   3.404
  535SOL    HW1 2504   4.435   4.690   3.442
  535SOL    HW2 2505   4.474   4.533   3.460
  536SOL     OW 2506   6.481   6.668   1.316
  536SOL    HW1 2507   6.440   6.587   1.276
  536SOL    HW2 2508   6.581   6.660   1.312
  537SOL     OW 2509   3.356   1.598   2.827
  537SOL    HW1 2510   3.349   1.651   2.743
  537SOL    HW2 2511   3.314   1.649   2.902
  538SOL     OW 2512   3.967   5.273   5.939
  538SOL    HW1 2513   4.026   5.293   6.018
  538SOL    HW2 2514   3.998   5.327   5.860
  539SOL     OW 2515   2.307   0.330   0.071
  539SOL    HW1 2516   2.330   0.236   0.043
  539SOL    HW2 2517   2.210   0.346   0.057
  540SOL     OW 2518   2.453   1.346   5.581
  540SOL    HW1 2519   2.425   1.276   5.516
  540SOL    HW2 2520   2.526   1.402   5.540
  541SOL     OW 2521   5.370   5.829   2.291
  541SOL    HW1 2522   5.416   5.851   2.204
  541SOL    HW2 2523   5.287   5.884   2.299
  542SOL     OW 2524   3.840   5.720   5.857
  542SOL    HW1 2525   3.875   5.810   5.829
  542SOL    HW2 2526   3.916   5.656   5.866
  543SOL     OW 2527   6.524   1.970   4.972
  543SOL    HW1 2528   6.460   2.047   4.970
  543SOL    HW2 2529   6.542   1.943   5.067
  544SOL     OW 2530   1.196   2.525   1.146
  544SOL    HW1 2531   1.292   2.497   1.143
  544SOL    HW2 2532   1.165   2.549   1.054
  545SOL     OW 2533   0.012   5.470   0.596
  545SOL    HW1 2534   6.952   5.439   0.645
  545SOL    HW2 2535   7.017   5.561   0.559
  546SOL     OW 2536   6.701   6.094   2.788
  546SOL    HW1 2537   6.694   6.151   2.869
  546SOL    HW2 2538   6.685   6.150   2.706
  547SOL     OW 2539   3.737   6.274   6.761
  547SOL    HW1 2540   3.686   6.340   6.707
  547SOL    HW2 2541   3.674   6.226   6.823
  548SOL     OW 2542   4.079   2.748   6.597
  548SOL    HW1 2543   4.010   2.821   6.594
  548SOL    HW2 2544   4.062   2.690   6.678
  549SOL     OW 2545   5.559   2.409   3.809
  549SOL    HW1 2546   5.538   2.311   3.802
  549SOL    HW2 2547   5.489   2.455   3.863
  550SOL     OW 2548   0.370   5.596   3.859
  550SOL    HW1 2549   0.315   5.675   3.885
  550SOL    HW2 2550   0.450   5.590   3.919
  551SOL     OW 2551   5.592   0.684   0.647
  551SOL    HW1 2552   5.562   0.759   0.588
  551SOL    HW2 2553   5.517   0.618   0.657
  552SOL     OW 2554   0.510   0.593   4.516
  552SOL    HW1 2555   0.586   0.648   4.550
  552SOL    HW2 2556   0.540   0.498   4.505
  553SOL     OW 2557   3.624   2.300   5.305
  553SOL    HW1 2558   3.700   2.294   5.370
  553SOL    HW2 2559   3.653   2.264   5.217
  554SOL     OW 2560   0.268   5.012   0.400
  554SOL    HW1 2561   0.197   4.990   0.467
  554SOL    HW2 2562   0.266   4.946   0.325
  555SOL     OW 2563   3.566   4.503   5.918
  555SOL    HW1 2564   3.515   4.543   5.841
  555SOL    HW2 2565   3.510   4.507   6.000
  556SOL     OW 2566   5.655   6.181   3.136
  556SOL    HW1 2567   5.566   6.178   3.183
  556SOL    HW2 2568   5.671   6.274   3.102
  557SOL     OW 2569   6.613   3.531   0.084
  557SOL    HW1 2570   6.650   3.620   0.058
  557SOL    HW2 2571   6.526   3.516   0.037
  558SOL     OW 2572   3.261   3.395   1.904
  558SOL    HW1 2573   3.298   3.486   1.885
  558SOL    HW2 2574   3.228   3.392   1.998
  559SOL     OW 2575   6.239   0.892   6.291
  559SOL    HW1 2576   6.199   0.933   6.209
  559SOL    HW2 2577   6.203   0.938   6.372
  560SOL     OW 2578   1.625   2.329   3.232
  560SOL    HW1 2579   1.589   2.285   3.150
  560SOL    HW2 2580   1.714   2.288   3.255
  561SOL     OW 2581   0.123   4.329   0.388
  561SOL    HW1 2582   0.220   4.330   0.364
  561SOL    HW2 2583   0.093   4.423   0.406
  562SOL     OW 2584   3.522   5.856   3.466
  562SOL    HW1 2585   3.512   5.759   3.446
  562SOL    HW2 2586   3.617   5.883   3.451
  563SOL     OW 2587   0.638   1.145   4.381
  563SOL    HW1 2588   0.689   1.173   4.299
  563SOL    HW2 2589   0.697   1.088   4.438
  564SOL     OW 2590   5.873   1.630   5.592
  564SOL    HW1 2591   5.959   1.636   5.540
  564SOL    HW2 2592   5.802   1.591   5.534
  565SOL     OW 2593   3.252   3.311   3.610
  565SOL    HW1 2594   3.248   3.408   3.633
  565SOL    HW2 2595   3.166   3.283   3.569
  566SOL     OW 2596   1.490   2.764   3.459
  566SOL    HW1 2597   1.428   2.687   3.441
  566SOL    HW2 2598   1.488   2.787   3.556
  567SOL     OW 2599   1.580   3.157   5.296
  567SOL    HW1 2600   1.629   3.091   5.353
  567SOL    HW2 2601   1.566   3.242   5.347
  568SOL     OW 2602   1.163   0.493   6.608
  568SOL    HW1 2603   1.145   0.458   6.515
  568SOL    HW2 2604   1.077   0.520   6.651
  569SOL     OW 2605   5.285   3.413   5.318
  569SOL    HW1 2606   5.347   3.489   5.338
  569SOL    HW2 2607   5.214   3.409   5.388
  570SOL     OW 2608   3.460   0.509   6.043
  570SOL    HW1 2609   3.389   0.451   6.002
  570SOL    HW2 2610   3.430   0.538   6.134
  571SOL     OW 2611   2.426   4.616   1.899
  571SOL    HW1 2612   2.426   4.714   1.879
  571SOL    HW2 2613   2.467   4.599   1.988
  572SOL     OW 2614   2.759   1.465   4.906
  572SOL    HW1 2615   2.673   1.516   4.900
  572SOL    HW2 2616   2.763   1.416   4.993
  573SOL     OW 2617   0.557   6.967   5.705
  573SOL    HW1 2618   0.467   6.925   5.715
  573SOL    HW2 2619   0.565   0.023   5.769
  574SOL     OW 2620   2.513   0.779   5.606
  574SOL    HW1 2621   2.507   0.684   5.638
  574SOL    HW2 2622   2.438   0.832   5.646
  575SOL     OW 2623   3.911   3.355   0.368
  575SOL    HW1 2624   3.823   3.345   0.322
  575SOL    HW2 2625   3.898   3.401   0.455
  576SOL     OW 2626   0.157   0.627   3.188
  576SOL    HW1 2627   0.117   0.667   3.270
  576SOL    HW2 2628   0.085   0.587   3.131
  577SOL     OW 2629   0.010   7.008   2.163
  577SOL    HW1 2630   0.002   6.970   2.255
  577SOL    HW2 2631   6.962   0.060   2.151
  578SOL     OW 2632   4.009   6.606   0.613
  578SOL    HW1 2633   3.931   6.544   0.613
  578SOL    HW2 2634   4.093   6.553   0.599
  579SOL     OW 2635   0.639   3.766   2.037
  579SOL    HW1 2636   0.730   3.734   2.065
  579SOL    HW2 2637   0.648   3.825   1.957
  580SOL     OW 2638   4.803   4.759   4.784
  580SOL    HW1 2639   4.859   4.798   4.710
  580SOL    HW2 2640   4.835   4.795   4.871
  581SOL     OW 2641   2.357   2.492   3.650
  581SOL    HW1 2642   2.351   2.402   3.693
  581SOL    HW2 2643   2.269   2.539   3.659
  582SOL     OW 2644   5.539   4.094   4.955
  582SOL    HW1 2645   5.571   4.106   4.861
  582SOL    HW2 2646   5.495   4.178   4.986
  583SOL     OW 2647   3.405   5.640   5.498
  583SOL    HW1 2648   3.422   5.543   5.512
  583SOL    HW2 2649   3.392   5.684   5.587
  584SOL     OW 2650   3.904   0.765   5.076
  584SOL    HW1 2651   3.899   0.832   5.150
  584SOL    HW2 2652   3.836   0.694   5.089
  585SOL     OW 2653   3.757   6.500   1.733
  585SOL    HW1 2654   3.784   6.404   1.743
  585SOL    HW2 2655   3.829   6.559   1.769
  586SOL     OW 2656   3.878   0.422   1.003
  586SOL    HW1 2657   3.893   0.346   1.067
  586SOL    HW2 2658   3.885   0.388   0.909
  587SOL     OW 2659   4.747   0.460   2.955
  587SOL    HW1 2660   4.713   0.553   2.939
  587SOL    HW2 2661   4.811   0.461   3.032
  588SOL     OW 2662   2.252   4.175   2.533
  588SOL    HW1 2663   2.255   4.236   2.454
  588SOL    HW2 2664   2.157   4.151   2.553
  589SOL     OW 2665   3.179   4.409   6.592
  589SOL    HW1 2666   3.197   4.444   6.684
  589SOL    HW2 2667   3.112   4.335   6.597
  590SOL     OW 2668   2.473   1.949   6.061
  590SOL    HW1 2669   2.508   2.017   6.125
  590SOL    HW2 2670   2.462   1.861   6.108
  591SOL     OW 2671   3.104   0.291   4.190
  591SOL    HW1 2672   3.189   0.309   4.239
  591SOL    HW2 2673   3.061   0.208   4.227
  592SOL     OW 2674   4.567   1.954   4.374
  592SOL    HW1 2675   4.499   1.973   4.304
  592SOL    HW2 2676   4.639   2.023   4.371
  593SOL     OW 2677   1.607   0.139   0.216
  593SOL    HW1 2678   1.577   0.233   0.195
  593SOL    HW2 2679   1.578   0.116   0.309
  594SOL     OW 2680   3.446   1.261   5.158
  594SOL    HW1 2681   3.402   1.206   5.229
  594SOL    HW2 2682   3.449   1.209   5.072
  595SOL     OW 2683   6.403   3.590   2.226
  595SOL    HW1 2684   6.449   3.669   2.267
  595SOL    HW2 2685   6.413   3.511   2.286
  596SOL     OW 2686   6.173   4.565   4.280
  596SOL    HW1 2687   6.212   4.656   4.289
  596SOL    HW2 2688   6.103   4.565   4.208
  597SOL     OW 2689   3.891   1.500   6.584
  597SOL    HW1 2690   3.944   1.584   6.575
  597SOL    HW2 2691   3.804   1.519   6.629
  598SOL     OW 2692   3.244   2.950   2.676
  598SOL    HW1 2693   3.257   2.922   2.771
  598SOL    HW2 2694   3.329   2.936   2.625
  599SOL     OW 2695   1.834   4.932   1.039
  599SOL    HW1 2696   1.888   4.908   0.958
  599SOL    HW2 2697   1.870   4.884   1.119
  600SOL     OW 2698   0.462   3.365   6.156
  600SOL    HW1 2699   0.372   3.323   6.145
  600SOL    HW2 2700   0.517   3.347   6.074
  601SOL     OW 2701   0.034   0.173   5.687
  601SOL    HW1 2702   0.068   0.252   5.636
  601SOL    HW2 2703   0.072   0.175   5.780
  602SOL     OW 2704   0.539   0.590   3.360
  602SOL    HW1 2705   0.481   0.608   3.439
  602SOL    HW2 2706   0.489   0.609   3.276
  603SOL     OW 2707   1.210   1.659   3.936
  603SOL    HW1 2708   1.213   1.661   3.836
  603SOL    HW2 2709   1.133   1.603   3.966
  604SOL     OW 2710   5.262   2.160   0.769
  604SOL    HW1 2711   5.236   2.098   0.844
  604SOL    HW2 2712   5.242   2.254   0.795
  605SOL     OW 2713   5.555   6.458   2.010
  605SOL    HW1 2714   5.560   6.367   2.052
  605SOL    HW2 2715   5.579   6.451   1.913
  606SOL     OW 2716   3.240   6.552   5.175
  606SOL    HW1 2717   3.208   6.475   5.230
  606SOL    HW2 2718   3.161   6.604   5.142
  607SOL     OW 2719   1.556   3.421   5.928
  607SOL    HW1 2720   1.538   3.474   6.010
  607SOL    HW2 2721   1.584   3.328   5.953
  608SOL     OW 2722   3.040   1.389   0.297
  608SOL    HW1 2723   3.030   1.332   0.215
  608SOL    HW2 2724   2.949   1.417   0.329
  609SOL     OW 2725   3.901   3.017   2.239
  609SOL    HW1 2726   3.885   3.043   2.144
  609SOL    HW2 2727   3.981   2.957   2.244
  610SOL     OW 2728   5.002   2.618   1.971
  610SOL    HW1 2729   5.092   2.658   1.987
  610SOL    HW2 2730   4.966   2.583   2.057
  611SOL     OW 2731   3.779   1.760   2.132
  611SOL    HW1 2732   3.746   1.851   2.105
  611SOL    HW2 2733   3.714   1.691   2.102
  612SOL     OW 2734   4.308   5.357   4.423
  612SOL    HW1 2735   4.208   5.364   4.419
  612SOL    HW2 2736   4.336   5.272   4.379
  613SOL     OW 2737   3.755   5.311   6.241
  613SOL    HW1 2738   3.762   5.379   6.168
  613SOL    HW2 2739   3.695   5.345   6.313
  614SOL     OW 2740   3.410   6.144   6.116
  614SOL    HW1 2741   3.472   6.215   6.148
  614SOL    HW2 2742   3.399   6.075   6.188
  615SOL     OW 2743   6.864   5.013   3.835
  615SOL    HW1 2744   6.929   5.058   3.774
  615SOL    HW2 2745   6.832   5.078   3.903
  616SOL     OW 2746   6.030   2.554   3.782
  616SOL    HW1 2747   6.087   2.578   3.703
  616SOL    HW2 2748   5.945   2.607   3.778
  617SOL     OW 2749   2.247   0.587   6.124
  617SOL    HW1 2750   2.203   0.645   6.056
  617SOL    HW2 2751   2.346   0.602   6.121
  618SOL     OW 2752   2.214   0.681   2.855
  618SOL    HW1 2753   2.177   0.603   2.804
  618SOL    HW2 2754   2.306   0.701   2.823
  619SOL     OW 2755   1.115   2.361   6.608
  619SOL    HW1 2756   1.164   2.332   6.525
  619SOL    HW2 2757   1.089   2.280   6.661
  620SOL     OW 2758   4.371   3.892   0.799
  620SOL    HW1 2759   4.318   3.969   0.835
  620SOL    HW2 2760   4.370   3.818   0.865
  621SOL     OW 2761   0.099   5.960   1.000
  621SOL    HW1 2762   0.176   5.977   1.061
  621SOL    HW2 2763   0.133   5.936   0.909
  622SOL     OW 2764   1.026   1.167   6.791
  622SOL    HW1 2765   1.050   1.194   6.697
  622SOL    HW2 2766   0.946   1.108   6.789
  623SOL     OW 2767   6.810   5.840   5.205
  623SOL    HW1 2768   6.763   5.763   5.162
  623SOL    HW2 2769   6.758   5.869   5.286
  624SOL     OW 2770   0.282   1.890   1.281
  624SOL    HW1 2771   0.199   1.833   1.280
  624SOL    HW2 2772   0.347   1.855   1.214
  625SOL     OW 2773   1.355   1.038   2.038
  625SOL    HW1 2774   1.444   1.081   2.055
  625SOL    HW2 2775   1.314   1.010   2.125
  626SOL     OW 2776   3.598   5.486   4.768
  626SOL    HW1 2777   3.501   5.507   4.777
  626SOL    HW2 2778   3.643   5.496   4.857
  627SOL     OW 2779   4.224   5.908   0.050
  627SOL    HW1 2780   4.145   5.928   7.014
  627SOL    HW2 2781   4.274   5.830   0.011
  628SOL     OW 2782   4.917   3.781   3.581
  628SOL    HW1 2783   4.910   3.878   3.560
  628SOL    HW2 2784   4.912   3.728   3.496
  629SOL     OW 2785   1.790   6.904   1.235
  629SOL    HW1 2786   1.825   6.923   1.144
  629SOL    HW2 2787   1.719   6.971   1.258
  630SOL     OW 2788   2.671   1.156   2.198
  630SOL    HW1 2789   2.609   1.085   2.164
  630SOL    HW2 2790   2.627   1.245   2.189
  631SOL     OW 2791   2.380   1.257   4.259
  631SOL    HW1 2792   2.282   1.256   4.278
  631SOL    HW2 2793   2.398   1.209   4.173
  632SOL     OW 2794   3.077   0.293   0.478
  632SOL    HW1 2795   3.009   0.353   0.435
  632SOL    HW2 2796   3.106   0.333   0.565
  633SOL     OW 2797   2.076   0.285   4.688
  633SOL    HW1 2798   2.038   0.356   4.628
  633SOL    HW2 2799   2.043   0.195   4.659
  634SOL     OW 2800   2.974   5.590   1.942
  634SOL    HW1 2801   3.009   5.559   1.854
  634SOL    HW2 2802   2.947   5.686   1.936
  635SOL     OW 2803   3.017   0.056   2.045
  635SOL    HW1 2804   2.928   0.091   2.073
  635SOL    HW2 2805   3.050   7.011   2.114
  636SOL     OW 2806   5.109   4.837   6.751
  636SOL    HW1 2807   5.162   4.854   6.668
  636SOL    HW2 2808   5.132   4.906   6.820
  637SOL     OW 2809   5.964   4.992   6.271
  637SOL    HW1 2810   5.941   5.051   6.193
  637SOL    HW2 2811   5.882   4.941   6.298
  638SOL     OW 2812   5.906   1.654   3.362
  638SOL    HW1 2813   5.977   1.619   3.301
  638SOL    HW2 2814   5.835   1.584   3.374
  639SOL     OW 2815   3.521   3.687   1.701
  639SOL    HW1 2816   3.528   3.678   1.801
  639SOL    HW2 2817   3.606   3.724   1.665
  640SOL     OW 2818   2.883   2.423   5.300
  640SOL    HW1 2819   2.978   2.420   5.268
  640SOL    HW2 2820   2.850   2.517   5.297
  641SOL     OW 2821   0.183   6.912   4.778
  641SOL    HW1 2822   0.117   6.848   4.817
  641SOL    HW2 2823   0.276   6.879   4.795
  642SOL     OW 2824   0.317   4.446   5.947
  642SOL    HW1 2825   0.381   4.477   5.877
  642SOL    HW2 2826   0.293   4.350   5.930
  643SOL     OW 2827   5.383   6.254   4.782
  643SOL    HW1 2828   5.415   6.292   4.695
  643SOL    HW2 2829   5.432   6.298   4.858
  644SOL     OW 2830   3.367   6.044   1.507
  644SOL    HW1 2831   3.338   6.073   1.416
  644SOL    HW2 2832   3.290   6.000   1.554
  645SOL     OW 2833   0.812   3.032   2.830
  645SOL    HW1 2834   0.872   2.967   2.783
  645SOL    HW2 2835   0.856   3.063   2.915
  646SOL     OW 2836   1.627   2.956   4.275
  646SOL    HW1 2837   1.651   3.021   4.204
  646SOL    HW2 2838   1.531   2.970   4.302
  647SOL     OW 2839   5.652   4.691   0.422
  647SOL    HW1 2840   5.691   4.625   0.358
  647SOL    HW2 2841   5.684   4.783   0.398
  648SOL     OW 2842   4.172   2.208   4.073
  648SOL    HW1 2843   4.118   2.141   4.124
  648SOL    HW2 2844   4.115   2.249   4.002
  649SOL     OW 2845   4.062   4.344   1.408
  649SOL    HW1 2846   4.049   4.248   1.433
  649SOL    HW2 2847   4.157   4.370   1.425
  650SOL     OW 2848   5.572   4.987   0.250
  650SOL    HW1 2849   5.481   5.009   0.286
  650SOL    HW2 2850   5.639   4.992   0.323
  651SOL     OW 2851   1.281   5.791   6.319
  651SOL    HW1 2852   1.312   5.880   6.285
  651SOL    HW2 2853   1.303   5.720   6.252
  652SOL     OW 2854   5.081   2.632   1.303
  652SOL    HW1 2855   5.119   2.579   1.228
  652SOL    HW2 2856   5.151   2.649   1.372
  653SOL     OW 2857   3.293   5.430   2.983
  653SOL    HW1 2858   3.293   5.334   2.955
  653SOL    HW2 2859   3.364   5.479   2.932
  654SOL     OW 2860   7.008   5.337   6.986
  654SOL    HW1 2861   0.084   5.324   6.965
  654SOL    HW2 2862   6.993   5.318   0.062
  655SOL     OW 2863   1.709   1.824   0.295
  655SOL    HW1 2864   1.712   1.727   0.321
  655SOL    HW2 2865   1.745   1.834   0.202
  656SOL     OW 2866   1.969   6.657   1.071
  656SOL    HW1 2867   1.895   6.724   1.063
  656SOL    HW2 2868   2.054   6.704   1.094
  657SOL     OW 2869   3.851   0.393   0.185
  657SOL    HW1 2870   3.869   0.300   0.156
  657SOL    HW2 2871   3.911   0.456   0.136
  658SOL     OW 2872   3.334   5.464   0.159
  658SOL    HW1 2873   3.331   5.418   0.070
  658SOL    HW2 2874   3.341   5.563   0.144
  659SOL     OW 2875   3.726   0.218   6.332
  659SOL    HW1 2876   3.629   0.199   6.345
  659SOL    HW2 2877   3.763   0.264   6.413
  660SOL     OW 2878   3.103   6.612   3.490
  660SOL    HW1 2879   3.123   6.561   3.406
  660SOL    HW2 2880   3.179   6.672   3.512
  661SOL     OW 2881   6.629   4.922   2.852
  661SOL    HW1 2882   6.600   4.897   2.760
  661SOL    HW2 2883   6.626   5.022   2.862
  662SOL     OW 2884   4.389   2.120   6.975
  662SOL    HW1 2885   4.306   2.116   0.010
  662SOL    HW2 2886   4.391   2.205   6.924
  663SOL     OW 2887   1.404   4.299   4.658
  663SOL    HW1 2888   1.434   4.365   4.589
  663SOL    HW2 2889   1.481   4.240   4.684
  664SOL     OW 2890   5.638   6.747   6.276
  664SOL    HW1 2891   5.719   6.725   6.331
  664SOL    HW2 2892   5.570   6.675   6.286
  665SOL     OW 2893   1.647   4.042   1.999
  665SOL    HW1 2894   1.651   3.974   2.072
  665SOL    HW2 2895   1.739   4.061   1.966
  666SOL     OW 2896   3.998   0.767   2.581
  666SOL    HW1 2897   3.899   0.749   2.582
  666SOL    HW2 2898   4.047   0.681   2.566
  667SOL     OW 2899   0.412   0.562   1.278
  667SOL    HW1 2900   0.446   0.553   1.185
  667SOL    HW2 2901   0.401   0.660   1.300
  668SOL     OW 2902   5.275   2.977   0.064
  668SOL    HW1 2903   5.273   2.908   7.013
  668SOL    HW2 2904   5.342   3.048   0.041
  669SOL     OW 2905   5.186   1.524   3.045
  669SOL    HW1 2906   5.240   1.487   2.970
  669SOL    HW2 2907   5.134   1.604   3.012
  670SOL     OW 2908   4.078   1.911   2.211
  670SOL    HW1 2909   4.040   1.851   2.141
  670SOL    HW2 2910   4.009   1.977   2.239
  671SOL     OW 2911   1.195   5.575   1.832
  671SOL    HW1 2912   1.106   5.589   1.789
  671SOL    HW2 2913   1.228   5.483   1.813
  672SOL     OW 2914   0.550   0.101   0.990
  672SOL    HW1 2915   0.501   0.014   1.000
  672SOL    HW2 2916   0.626   0.104   1.055
  673SOL     OW 2917   5.984   6.966   6.350
  673SOL    HW1 2918   5.899   7.012   6.376
  673SOL    HW2 2919   6.053   0.014   6.325
  674SOL     OW 2920   5.280   6.491   4.426
  674SOL    HW1 2921   5.227   6.464   4.345
  674SOL    HW2 2922   5.227   6.475   4.508
  675SOL     OW 2923   1.148   5.164   2.474
  675SOL    HW1 2924   1.181   5.241   2.529
  675SOL    HW2 2925   1.195   5.163   2.386
  676SOL     OW 2926   2.348   5.954   6.629
  676SOL    HW1 2927   2.340   5.997   6.719
  676SOL    HW2 2928   2.416   5.881   6.632
  677SOL     OW 2929   5.637   0.639   1.483
  677SOL    HW1 2930   5.542   0.654   1.509
  677SOL    HW2 2931   5.642   0.616   1.386
  678SOL     OW 2932   0.800   5.253   4.108
  678SOL    HW1 2933   0.706   5.279   4.130
  678SOL    HW2 2934   0.810   5.154   4.114
  679SOL     OW 2935   5.387   1.045   5.883
  679SOL    HW1 2936   5.345   1.132   5.910
  679SOL    HW2 2937   5.354   1.019   5.793
  680SOL     OW 2938   5.886   6.641   4.353
  680SOL    HW1 2939   5.827   6.692   4.290
  680SOL    HW2 2940   5.976   6.628   4.312
  681SOL     OW 2941   4.276   4.672   2.722
  681SOL    HW1 2942   4.240   4.636   2.635
  681SOL    HW2 2943   4.232   4.760   2.742
  682SOL     OW 2944   6.067   1.057   2.878
  682SOL    HW1 2945   5.994   1.074   2.945
  682SOL    HW2 2946   6.144   1.012   2.923
  683SOL     OW 2947   3.153   5.091   7.002
  683SOL    HW1 2948   3.141   4.992   7.008
  683SOL    HW2 2949   3.181   5.127   0.071
  684SOL     OW 2950   5.987   1.964   6.312
  684SOL    HW1 2951   6.032   1.976   6.224
  684SOL    HW2 2952   6.025   2.027   6.379
  685SOL     OW 2953   3.173   6.875   3.604
  685SOL    HW1 2954   3.193   6.815   3.682
  685SOL    HW2 2955   3.075   6.873   3.585
  686SOL     OW 2956   3.599   0.422   5.594
  686SOL    HW1 2957   3.613   0.413   5.692
  686SOL    HW2 2958   3.502   0.435   5.575
  687SOL     OW 2959   0.366   0.931   4.112
  687SOL    HW1 2960   0.455   0.896   4.083
  687SOL    HW2 2961   0.364   0.939   4.211
  688SOL     OW 2962   5.065   3.518   0.089
  688SOL    HW1 2963   5.060   3.488   7.015
  688SOL    HW2 2964   5.144   3.578   0.101
  689SOL     OW 2965   2.684   5.733   0.180
  689SOL    HW1 2966   2.620   5.778   0.243
  689SOL    HW2 2967   2.662   5.758   0.086
  690SOL     OW 2968   5.864   3.786   4.007
  690SOL    HW1 2969   5.943   3.791   3.945
  690SOL    HW2 2970   5.842   3.690   4.023
  691SOL     OW 2971   5.502   0.737   2.485
  691SOL    HW1 2972   5.427   0.718   2.421
  691SOL    HW2 2973   5.503   0.835   2.505
  692SOL     OW 2974   1.135   0.141   3.274
  692SOL    HW1 2975   1.133   0.145   3.374
  692SOL    HW2 2976   1.129   0.234   3.237
  693SOL     OW 2977   5.764   4.006   2.233
  693SOL    HW1 2978   5.836   4.072   2.254
  693SOL    HW2 2979   5.806   3.916   2.216
  694SOL     OW 2980   4.523   4.682   4.391
  694SOL    HW1 2981   4.512   4.679   4.490
  694SOL    HW2 2982   4.546   4.591   4.357
  695SOL     OW 2983   4.628   6.908   3.935
  695SOL    HW1 2984   4.652   6.914   4.032
  695SOL    HW2 2985   4.706   6.937   3.879
  696SOL     OW 2986   6.568   4.471   1.855
  696SOL    HW1 2987   6.580   4.562   1.896
  696SOL    HW2 2988   6.609   4.470   1.764
  697SOL     OW 2989   0.274   6.120   2.926
  697SOL    HW1 2990   0.196   6.176   2.954
  697SOL    HW2 2991   0.242   6.047   2.866
  698SOL     OW 2992   6.013   6.229   5.688
  698SOL    HW1 2993   6.078   6.256   5.617
  698SOL    HW2 2994   5.955   6.307   5.712
  699SOL     OW 2995   4.112   3.004   0.846
  699SOL    HW1 2996   4.108   3.070   0.771
  699SOL    HW2 2997   4.141   3.051   0.929
  700SOL     OW 2998   3.828   6.644   5.435
  700SOL    HW1 2999   3.915   6.601   5.461
  700SOL    HW2 3000   3.845   6.712   5.364
  701SOL     OW 3001   4.487   4.508   1.820
  701SOL    HW1 3002   4.526   4.495   1.911
  701SOL    HW2 3003   4.445   4.423   1.789
  702SOL     OW 3004   4.233   0.497   5.119
  702SOL    HW1 3005   4.167   0.480   5.046
  702SOL    HW2 3006   4.312   0.546   5.082
  703SOL     OW 3007   3.742   2.729   0.726
  703SOL    HW1 3008   3.728   2.818   0.769
  703SOL    HW2 3009   3.700   2.729   0.635
  704SOL     OW 3010   3.664   1.655   0.038
  704SOL    HW1 3011   3.685   1.644   0.135
  704SOL    HW2 3012   3.701   1.577   7.008
  705SOL     OW 3013   0.283   6.498   5.669
  705SOL    HW1 3014   0.223   6.572   5.639
  705SOL    HW2 3015   0.266   6.417   5.613
  706SOL     OW 3016   4.067   0.268   4.810
  706SOL    HW1 3017   3.978   0.230   4.784
  706SOL    HW2 3018   4.058   0.365   4.830
  707SOL     OW 3019   3.429   4.966   4.053
  707SOL    HW1 3020   3.416   5.048   4.109
  707SOL    HW2 3021   3.487   4.901   4.103
  708SOL     OW 3022   2.959   6.331   4.048
  708SOL    HW1 3023   3.052   6.302   4.073
  708SOL    HW2 3024   2.949   6.328   3.949
  709SOL     OW 3025   1.939   6.844   1.925
  709SOL    HW1 3026   2.024   6.804   1.889
  709SOL    HW2 3027   1.877   6.865   1.849
  710SOL     OW 3028   4.764   2.595   2.632
  710SOL    HW1 3029   4.689   2.624   2.572
  710SOL    HW2 3030   4.851   2.629   2.596
  711SOL     OW 3031   7.016   1.324   1.339
  711SOL    HW1 3032   6.936   1.321   1.278
  711SOL    HW2 3033   0.059   1.252   1.312
  712SOL     OW 3034   4.913   4.283   0.153
  712SOL    HW1 3035   5.011   4.302   0.139
  712SOL    HW2 3036   4.869   4.272   0.065
  713SOL     OW 3037   4.108   2.776   5.978
  713SOL    HW1 3038   4.051   2.843   5.932
  713SOL    HW2 3039   4.063   2.744   6.061
  714SOL     OW 3040   4.017   6.643   2.780
  714SOL    HW1 3041   4.064   6.713   2.726
  714SOL    HW2 3042   4.006   6.560   2.725
  715SOL     OW 3043   6.083   4.285   5.311
  715SOL    HW1 3044   6.147   4.227   5.360
  715SOL    HW2 3045   6.011   4.315   5.374
  716SOL     OW 3046   3.232   1.822   3.710
  716SOL    HW1 3047   3.297   1.898   3.707
  716SOL    HW2 3048   3.146   1.850   3.668
  717SOL     OW 3049   4.893   4.706   3.522
  717SOL    HW1 3050   4.974   4.705   3.580
  717SOL    HW2 3051   4.913   4.658   3.436
  718SOL     OW 3052   6.595   1.794   5.193
  718SOL    HW1 3053   6.519   1.800   5.257
  718SOL    HW2 3054   6.681   1.799   5.243
  719SOL     OW 3055   4.474   5.775   2.689
  719SOL    HW1 3056   4.536   5.767   2.768
  719SOL    HW2 3057   4.447   5.684   2.659
  720SOL     OW 3058   2.983   1.631   1.182
  720SOL    HW1 3059   3.068   1.620   1.129
  720SOL    HW2 3060   2.925   1.699   1.138
  721SOL     OW 3061   0.186   3.020   2.370
  721SOL    HW1 3062   0.279   3.057   2.371
  721SOL    HW2 3063   0.190   2.921   2.365
  722SOL     OW 3064   5.511   6.379   1.723
  722SOL    HW1 3065   5.528   6.367   1.625
  722SOL    HW2 3066   5.436   6.444   1.736
  723SOL     OW 3067   2.103   0.747   4.461
  723SOL    HW1 3068   2.162   0.796   4.396
  723SOL    HW2 3069   2.008   0.776   4.449
  724SOL     OW 3070   1.249   2.738   4.780
  724SOL    HW1 3071   1.237   2.740   4.879
  724SOL    HW2 3072   1.317   2.668   4.756
  725SOL     OW 3073   1.645   4.297   3.234
  725SOL    HW1 3074   1.674   4.361   3.162
  725SOL    HW2 3075   1.617   4.211   3.192
  726SOL     OW 3076   2.158   3.854   0.280
  726SOL    HW1 3077   2.244   3.896   0.309
  726SOL    HW2 3078   2.174   3.803   0.195
  727SOL     OW 3079   3.794   5.192   4.877
  727SOL    HW1 3080   3.761   5.287   4.879
  727SOL    HW2 3081   3.856   5.180   4.799
  728SOL     OW 3082   6.089   3.504   3.280
  728SOL    HW1 3083   6.122   3.575   3.343
  728SOL    HW2 3084   5.991   3.515   3.267
  729SOL     OW 3085   0.802   5.164   0.458
  729SOL    HW1 3086   0.756   5.225   0.394
  729SOL    HW2 3087   0.733   5.107   0.504
  730SOL     OW 3088   4.192   1.743   3.165
  730SOL    HW1 3089   4.254   1.760   3.089
  730SOL    HW2 3090   4.186   1.825   3.221
  731SOL     OW 3091   4.872   4.541   4.978
  731SOL    HW1 3092   4.959   4.578   4.944
  731SOL    HW2 3093   4.878   4.528   5.076
  732SOL     OW 3094   4.740   0.882   4.184
  732SOL    HW1 3095   4.791   0.802   4.215
  732SOL    HW2 3096   4.686   0.919   4.260
  733SOL     OW 3097   0.727   4.980   4.394
  733SOL    HW1 3098   0.752   4.966   4.298
  733SOL    HW2 3099   0.629   4.963   4.405
  734SOL     OW 3100   6.012   5.970   3.430
  734SOL    HW1 3101   5.946   5.898   3.406
  734SOL    HW2 3102   6.095   5.959   3.376
  735SOL     OW 3103   4.475   0.623   2.670
  735SOL    HW1 3104   4.409   0.698   2.676
  735SOL    HW2 3105   4.548   0.637   2.737
  736SOL     OW 3106   1.964   1.972   3.692
  736SOL    HW1 3107   1.891   2.035   3.665
  736SOL    HW2 3108   1.938   1.878   3.669
  737SOL     OW 3109   3.306   0.930   6.359
  737SOL    HW1 3110   3.384   0.888   6.405
  737SOL    HW2 3111   3.332   0.961   6.268
  738SOL     OW 3112   1.509   5.469   0.223
  738SOL    HW1 3113   1.535   5.389   0.278
  738SOL    HW2 3114   1.455   5.439   0.145
  739SOL     OW 3115   1.800   0.749   3.324
  739SOL    HW1 3116   1.753   0.767   3.238
  739SOL    HW2 3117   1.735   0.713   3.391
  740SOL     OW 3118   4.601   2.415   2.757
  740SOL    HW1 3119   4.664   2.483   2.721
  740SOL    HW2 3120   4.508   2.439   2.732
  741SOL     OW 3121   3.160   1.677   2.637
  741SOL    HW1 3122   3.094   1.684   2.563
  741SOL    HW2 3123   3.242   1.731   2.615
  742SOL     OW 3124   2.342   0.535   2.477
  742SOL    HW1 3125   2.412   0.492   2.535
  742SOL    HW2 3126   2.252   0.502   2.503
  743SOL     OW 3127   6.982   6.839   2.740
  743SOL    HW1 3128   0.057   6.841   2.714
  743SOL    HW2 3129   6.970   6.782   2.821
  744SOL     OW 3130   5.488   1.335   1.204
  744SOL    HW1 3131   5.518   1.428   1.223
  744SOL    HW2 3132   5.474   1.286   1.290
  745SOL     OW 3133   1.844   0.010   5.523
  745SOL    HW1 3134   1.793   6.976   5.456
  745SOL    HW2 3135   1.894   0.083   5.477
  746SOL     OW 3136   6.344   5.855   4.598
  746SOL    HW1 3137   6.303   5.774   4.639
  746SOL    HW2 3138   6.273   5.910   4.553
  747SOL     OW 3139   3.535   5.245   2.502
  747SOL    HW1 3140   3.464   5.175   2.512
  747SOL    HW2 3141   3.610   5.210   2.447
  748SOL     OW 3142   5.994   4.868   2.483
  748SOL    HW1 3143   6.055   4.832   2.554
  748SOL    HW2 3144   6.044   4.935   2.428
  749SOL     OW 3145   4.786   4.266   4.416
  749SOL    HW1 3146   4.817   4.229   4.503
  749SOL    HW2 3147   4.847   4.235   4.343
  750SOL     OW 3148   2.735   1.953   2.882
  750SOL    HW1 3149   2.808   1.923   2.943
  750SOL    HW2 3150   2.768   2.028   2.824
  751SOL     OW 3151   3.809   0.040   0.490
  751SOL    HW1 3152   3.865   6.990   0.533
  751SOL    HW2 3153   3.867   0.097   0.431
  752SOL     OW 3154   3.110   3.033   4.373
  752SOL    HW1 3155   3.090   3.080   4.287
  752SOL    HW2 3156   3.185   2.968   4.359
  753SOL     OW 3157   3.812   3.668   3.812
  753SOL    HW1 3158   3.832   3.693   3.906
  753SOL    HW2 3159   3.897   3.654   3.762
  754SOL     OW 3160   4.800   0.845   6.664
  754SOL    HW1 3161   4.829   0.872   6.756
  754SOL    HW2 3162   4.876   0.857   6.600
  755SOL     OW 3163   4.673   4.249   5.044
  755SOL    HW1 3164   4.652   4.226   5.139
  755SOL    HW2 3165   4.668   4.348   5.031
  756SOL     OW 3166   3.086   5.549   6.037
  756SOL    HW1 3167   3.146   5.502   5.973
  756SOL    HW2 3168   2.993   5.515   6.027
  757SOL     OW 3169   1.216   6.876   1.935
  757SOL    HW1 3170   1.123   6.856   1.902
  757SOL    HW2 3171   1.282   6.822   1.883
  758SOL     OW 3172   3.719   1.375   5.196
  758SOL    HW1 3173   3.743   1.463   5.238
  758SOL    HW2 3174   3.620   1.360   5.204
  759SOL     OW 3175   6.863   2.716   3.626
  759SOL    HW1 3176   6.943   2.716   3.567
  759SOL    HW2 3177   6.870   2.641   3.692
  760SOL     OW 3178   0.083   5.647   4.185
  760SOL    HW1 3179   0.175   5.647   4.224
  760SOL    HW2 3180   0.022   5.700   4.244
  761SOL     OW 3181   5.060   4.692   6.136
  761SOL    HW1 3182   5.098   4.771   6.089
  761SOL    HW2 3183   4.990   4.722   6.201
  762SOL     OW 3184   4.113   6.125   3.378
  762SOL    HW1 3185   4.117   6.028   3.399
  762SOL    HW2 3186   4.023   6.161   3.403
  763SOL     OW 3187   5.820   1.372   0.472
  763SOL    HW1 3188   5.763   1.427   0.410
  763SOL    HW2 3189   5.795   1.392   0.567
  764SOL     OW 3190   4.928   6.302   4.775
  764SOL    HW1 3191   4.864   6.227   4.793
  764SOL    HW2 3192   5.021   6.272   4.798
  765SOL     OW 3193   5.594   6.140   0.369
  765SOL    HW1 3194   5.659   6.067   0.347
  765SOL    HW2 3195   5.623   6.225   0.325
  766SOL     OW 3196   2.310   1.930   3.939
  766SOL    HW1 3197   2.302   1.901   3.844
  766SOL    HW2 3198   2.234   1.991   3.962
  767SOL     OW 3199   6.619   6.210   3.393
  767SOL    HW1 3200   6.522   6.204   3.415
  767SOL    HW2 3201   6.666   6.128   3.425
  768SOL     OW 3202   2.757   5.479   1.321
  768SOL    HW1 3203   2.692   5.448   1.391
  768SOL    HW2 3204   2.740   5.429   1.236
  769SOL     OW 3205   3.355   1.764   5.273
  769SOL    HW1 3206   3.367   1.667   5.251
  769SOL    HW2 3207   3.257   1.783   5.282
  770SOL     OW 3208   0.886   4.743   5.650
  770SOL    HW1 3209   0.927   4.718   5.562
  770SOL    HW2 3210   0.951   4.797   5.704
  771SOL     OW 3211   1.447   4.862   2.465
  771SOL    HW1 3212   1.510   4.897   2.534
  771SOL    HW2 3213   1.366   4.825   2.510
  772SOL     OW 3214   6.039   4.893   0.399
  772SOL    HW1 3215   6.038   4.794   0.380
  772SOL    HW2 3216   6.105   4.937   0.338
  773SOL     OW 3217   1.760   4.895   4.134
  773SOL    HW1 3218   1.813   4.977   4.116
  773SOL    HW2 3219   1.672   4.921   4.175
  774SOL     OW 3220   1.800   2.213   3.722
  774SOL    HW1 3221   1.783   2.171   3.811
  774SOL    HW2 3222   1.771   2.309   3.723
  775SOL     OW 3223   0.837   4.578   2.238
  775SOL    HW1 3224   0.875   4.509   2.177
  775SOL    HW2 3225   0.738   4.566   2.246
  776SOL     OW 3226   2.821   4.982   6.865
  776SOL    HW1 3227   2.799   4.984   6.768
  776SOL    HW2 3228   2.897   4.920   6.881
  777SOL     OW 3229   1.939   3.635   6.709
  777SOL    HW1 3230   1.851   3.661   6.750
  777SOL    HW2 3231   1.994   3.717   6.695
  778SOL     OW 3232   3.396   5.297   6.963
  778SOL    HW1 3233   3.359   5.210   6.994
  778SOL    HW2 3234   3.362   5.316   6.871
  779SOL     OW 3235   5.845   1.837   3.602
  779SOL    HW1 3236   5.883   1.825   3.694
  779SOL    HW2 3237   5.811   1.749   3.568
  780SOL     OW 3238   5.857   1.608   4.741
  780SOL    HW1 3239   5.949   1.623   4.705
  780SOL    HW2 3240   5.802   1.563   4.671
  781SOL     OW 3241   0.306   5.382   6.398
  781SOL    HW1 3242   0.327   5.423   6.487
  781SOL    HW2 3243   0.224   5.426   6.360
  782SOL     OW 3244   2.180   3.982   5.509
  782SOL    HW1 3245   2.215   4.075   5.497
  782SOL    HW2 3246   2.171   3.938   5.420
  783SOL     OW 3247   0.005   5.065   6.304
  783SOL    HW1 3248   7.007   4.989   6.366
  783SOL    HW2 3249   0.097   5.100   6.321
  784SOL     OW 3250   1.983   6.188   6.069
  784SOL    HW1 3251   2.076   6.220   6.054
  784SOL    HW2 3252   1.957   6.202   6.165
  785SOL     OW 3253   0.363   0.045   3.998
  785SOL    HW1 3254   0.375   0.120   4.064
  785SOL    HW2 3255   0.270   0.010   4.004
  786SOL     OW 3256   6.065   1.190   4.728
  786SOL    HW1 3257   6.034   1.150   4.642
  786SOL    HW2 3258   6.108   1.119   4.785
  787SOL     OW 3259   2.170   6.701   0.342
  787SOL    HW1 3260   2.088   6.716   0.288
  787SOL    HW2 3261   2.218   6.788   0.354
  788SOL     OW 3262   2.083   3.349   2.109
  788SOL    HW1 3263   2.072   3.397   2.196
  788SOL    HW2 3264   2.155   3.393   2.055
  789SOL     OW 3265   3.328   5.406   2.653
  789SOL    HW1 3266   3.365   5.335   2.712
  789SOL    HW2 3267   3.383   5.411   2.569
  790SOL     OW 3268   0.031   3.487   2.573
  790SOL    HW1 3269   0.118   3.513   2.531
  790SOL    HW2 3270   0.004   3.397   2.540
  791SOL     OW 3271   3.617   1.357   3.508
  791SOL    HW1 3272   3.648   1.263   3.523
  791SOL    HW2 3273   3.658   1.393   3.425
  792SOL     OW 3274   2.650   0.647   0.477
  792SOL    HW1 3275   2.690   0.565   0.518
  792SOL    HW2 3276   2.715   0.686   0.411
  793SOL     OW 3277   1.926   5.669   4.555
  793SOL    HW1 3278   1.940   5.755   4.604
  793SOL    HW2 3279   1.942   5.683   4.457
  794SOL     OW 3280   3.226   3.570   2.342
  794SOL    HW1 3281   3.180   3.521   2.268
  794SOL    HW2 3282   3.202   3.527   2.430
  795SOL     OW 3283   4.259   6.609   5.776
  795SOL    HW1 3284   4.358   6.597   5.765
  795SOL    HW2 3285   4.213   6.589   5.689
  796SOL     OW 3286   0.970   2.590   6.654
  796SOL    HW1 3287   1.020   2.509   6.623
  796SOL    HW2 3288   0.936   2.574   6.747
  797SOL     OW 3289   3.264   6.673   1.011
  797SOL    HW1 3290   3.249   6.666   1.109
  797SOL    HW2 3291   3.296   6.765   0.988
  798SOL     OW 3292   5.143   4.178   1.667
  798SOL    HW1 3293   5.181   4.231   1.743
  798SOL    HW2 3294   5.189   4.089   1.662
  799SOL     OW 3295   3.680   3.390   5.113
  799SOL    HW1 3296   3.593   3.343   5.127
  799SOL    HW2 3297   3.664   3.475   5.063
  800SOL     OW 3298   5.723   3.134   3.279
  800SOL    HW1 3299   5.715   3.225   3.319
  800SOL    HW2 3300   5.634   3.103   3.247
  801SOL     OW 3301   2.005   5.363   6.849
  801SOL    HW1 3302   1.990   5.462   6.841
  801SOL    HW2 3303   2.102   5.346   6.867
  802SOL     OW 3304   4.064   2.396   5.940
  802SOL    HW1 3305   4.013   2.313   5.917
  802SOL    HW2 3306   4.073   2.403   6.039
  803SOL     OW 3307   2.807   2.253   3.175
  803SOL    HW1 3308   2.851   2.267   3.086
  803SOL    HW2 3309   2.709   2.271   3.168
  804SOL     OW 3310   4.549   6.884   3.126
  804SOL    HW1 3311   4.520   6.951   3.057
  804SOL    HW2 3312   4.630   6.919   3.173
  805SOL     OW 3313   3.401   1.679   3.853
  805SOL    HW1 3314   3.390   1.667   3.951
  805SOL    HW2 3315   3.320   1.723   3.815
  806SOL     OW 3316   4.312   5.938   6.238
  806SOL    HW1 3317   4.268   5.860   6.284
  806SOL    HW2 3318   4.382   5.976   6.299
  807SOL     OW 3319   1.021   6.664   6.319
  807SOL    HW1 3320   1.007   6.716   6.235
  807SOL    HW2 3321   1.117   6.638   6.328
  808SOL     OW 3322   5.266   2.027   6.027
  808SOL    HW1 3323   5.206   2.107   6.037
  808SOL    HW2 3324   5.319   2.036   5.943
  809SOL     OW 3325   3.118   6.677   5.897
  809SOL    HW1 3326   3.070   6.672   5.985
  809SOL    HW2 3327   3.122   6.772   5.867
  810SOL     OW 3328   3.997   4.106   6.864
  810SOL    HW1 3329   3.926   4.127   6.797
  810SOL    HW2 3330   4.051   4.028   6.832
  811SOL     OW 3331   5.470   5.568   5.274
  811SOL    HW1 3332   5.519   5.580   5.360
  811SOL    HW2 3333   5.408   5.645   5.260
  812SOL     OW 3334   1.527   2.754   1.039
  812SOL    HW1 3335   1.519   2.655   1.047
  812SOL    HW2 3336   1.594   2.788   1.106
  813SOL     OW 3337   3.030   2.032   5.133
  813SOL    HW1 3338   2.969   2.103   5.168
  813SOL    HW2 3339   3.113   2.074   5.096
  814SOL     OW 3340   0.358   4.905   1.338
  814SOL    HW1 3341   0.435   4.962   1.309
  814SOL    HW2 3342   0.281   4.920   1.277
  815SOL     OW 3343   4.755   0.895   3.749
  815SOL    HW1 3344   4.850   0.883   3.776
  815SOL    HW2 3345   4.695   0.865   3.823
  816SOL     OW 3346   5.259   3.816   6.421
  816SOL    HW1 3347   5.275   3.909   6.389
  816SOL    HW2 3348   5.345   3.777   6.453
  817SOL     OW 3349   6.788   5.435   6.892
  817SOL    HW1 3350   6.716   5.418   6.960
  817SOL    HW2 3351   6.875   5.404   6.928
  818SOL     OW 3352   6.484   0.977   5.653
  818SOL    HW1 3353   6.475   0.948   5.748
  818SOL    HW2 3354   6.502   0.897   5.596
  819SOL     OW 3355   5.590   3.555   2.001
  819SOL    HW1 3356   5.559   3.649   2.017
  819SOL    HW2 3357   5.557   3.524   1.912
  820SOL     OW 3358   2.285   2.060   5.629
  820SOL    HW1 3359   2.251   1.988   5.568
  820SOL    HW2 3360   2.365   2.104   5.588
  821SOL     OW 3361   5.067   3.198   6.191
  821SOL    HW1 3362   5.132   3.165   6.123
  821SOL    HW2 3363   4.976   3.206   6.150
  822SOL     OW 3364   6.617   4.270   3.349
  822SOL    HW1 3365   6.562   4.274   3.432
  822SOL    HW2 3366   6.664   4.358   3.335
  823SOL     OW 3367   1.753   2.726   4.220
  823SOL    HW1 3368   1.694   2.802   4.244
  823SOL    HW2 3369   1.713   2.677   4.142
  824SOL     OW 3370   5.170   0.425   6.570
  824SOL    HW1 3371   5.255   0.458   6.528
  824SOL    HW2 3372   5.092   0.475   6.532
  825SOL     OW 3373   5.994   5.767   1.109
  825SOL    HW1 3374   5.924   5.717   1.058
  825SOL    HW2 3375   6.065   5.703   1.140
  826SOL     OW 3376   3.636   2.011   0.318
  826SOL    HW1 3377   3.593   2.016   0.228
  826SOL    HW2 3378   3.731   1.981   0.308
  827SOL     OW 3379   3.439   3.237   4.733
  827SOL    HW1 3380   3.350   3.274   4.761
  827SOL    HW2 3381   3.464   3.161   4.793
  828SOL     OW 3382   0.347   6.520   6.116
  828SOL    HW1 3383   0.330   6.445   6.052
  828SOL    HW2 3384   0.367   6.604   6.066
  829SOL     OW 3385   3.855   3.272   1.580
  829SOL    HW1 3386   3.817   3.313   1.663
  829SOL    HW2 3387   3.798   3.194   1.552
  830SOL     OW 3388   0.341   3.619   6.251
  830SOL    HW1 3389   0.280   3.569   6.313
  830SOL    HW2 3390   0.409   3.555   6.214
  831SOL     OW 3391   6.009   1.501   3.157
  831SOL    HW1 3392   6.057   1.547   3.082
  831SOL    HW2 3393   5.912   1.496   3.137
  832SOL     OW 3394   3.371   2.086   4.903
  832SOL    HW1 3395   3.298   2.142   4.940
  832SOL    HW2 3396   3.340   1.991   4.894
  833SOL     OW 3397   3.733   3.101   6.592
  833SOL    HW1 3398   3.802   3.164   6.555
  833SOL    HW2 3399   3.717   3.123   6.689
  834SOL     OW 3400   6.087   3.500   1.130
  834SOL    HW1 3401   5.995   3.513   1.167
  834SOL    HW2 3402   6.152   3.493   1.205
  835SOL     OW 3403   6.550   6.687   5.283
  835SOL    HW1 3404   6.493   6.751   5.232
  835SOL    HW2 3405   6.559   6.602   5.231
  836SOL     OW 3406   5.838   6.774   4.103
  836SOL    HW1 3407   5.747   6.732   4.097
  836SOL    HW2 3408   5.873   6.791   4.011
  837SOL     OW 3409   0.809   0.717   6.584
  837SOL    HW1 3410   0.842   0.796   6.532
  837SOL    HW2 3411   0.714   0.731   6.610
  838SOL     OW 3412   1.134   5.720   3.170
  838SOL    HW1 3413   1.056   5.693   3.227
  838SOL    HW2 3414   1.164   5.812   3.197
  839SOL     OW 3415   1.463   2.125   0.225
  839SOL    HW1 3416   1.556   2.137   0.260
  839SOL    HW2 3417   1.418   2.051   0.275
  840SOL     OW 3418   4.666   5.308   0.441
  840SOL    HW1 3419   4.568   5.325   0.451
  840SOL    HW2 3420   4.696   5.241   0.510
  841SOL     OW 3421   2.698   5.325   6.531
  841SOL    HW1 3422   2.714   5.367   6.621
  841SOL    HW2 3423   2.750   5.375   6.462
  842SOL     OW 3424   4.483   6.773   1.123
  842SOL    HW1 3425   4.401   6.820   1.153
  842SOL    HW2 3426   4.538   6.748   1.202
  843SOL     OW 3427   1.401   0.251   2.309
  843SOL    HW1 3428   1.452   0.196   2.243
  843SOL    HW2 3429   1.430   0.347   2.302
  844SOL     OW 3430   0.030   6.846   1.627
  844SOL    HW1 3431   7.006   6.808   1.708
  844SOL    HW2 3432   0.012   6.788   1.548
  845SOL     OW 3433   4.045   1.502   1.572
  845SOL    HW1 3434   4.113   1.473   1.505
  845SOL    HW2 3435   3.983   1.568   1.530
  846SOL     OW 3436   1.230   1.037   1.076
  846SOL    HW1 3437   1.263   0.987   0.996
  846SOL    HW2 3438   1.243   0.981   1.158
  847SOL     OW 3439   2.508   3.257   1.248
  847SOL    HW1 3440   2.488   3.325   1.177
  847SOL    HW2 3441   2.454   3.175   1.231
  848SOL     OW 3442   6.346   5.871   0.980
  848SOL    HW1 3443   6.387   5.956   0.947
  848SOL    HW2 3444   6.413   5.821   1.036
  849SOL     OW 3445   5.132   3.501   6.232
  849SOL    HW1 3446   5.140   3.509   6.331
  849SOL    HW2 3447   5.098   3.410   6.209
  850SOL     OW 3448   1.996   1.432   4.987
  850SOL    HW1 3449   2.010   1.521   4.944
  850SOL    HW2 3450   2.084   1.393   5.012
  851SOL     OW 3451   4.660   2.390   6.380
  851SOL    HW1 3452   4.590   2.358   6.316
  851SOL    HW2 3453   4.744   2.338   6.367
  852SOL     OW 3454   6.744   5.149   1.616
  852SOL    HW1 3455   6.685   5.146   1.696
  852SOL    HW2 3456   6.757   5.244   1.588
  853SOL     OW 3457   3.524   2.629   0.863
  853SOL    HW1 3458   3.491   2.538   0.837
  853SOL    HW2 3459   3.598   2.657   0.802
  854SOL     OW 3460   6.991   7.011   6.292
  854SOL    HW1 3461   0.067   7.002   6.312
  854SOL    HW2 3462   6.978   0.052   6.215
  855SOL     OW 3463   4.659   2.038   0.005
  855SOL    HW1 3464   4.676   1.942   7.003
  855SOL    HW2 3465   4.567   2.063   6.996
  856SOL     OW 3466   1.942   5.653   1.753
  856SOL    HW1 3467   1.906   5.585   1.816
  856SOL    HW2 3468   2.029   5.689   1.787
  857SOL     OW 3469   0.171   6.726   4.974
  857SOL    HW1 3470   0.260   6.705   5.014
  857SOL    HW2 3471   0.138   6.645   4.925
  858SOL     OW 3472   3.278   4.219   0.326
  858SOL    HW1 3473   3.335   4.299   0.341
  858SOL    HW2 3474   3.202   4.242   0.265
  859SOL     OW 3475   4.759   5.881   5.613
  859SOL    HW1 3476   4.700   5.918   5.685
  859SOL    HW2 3477   4.724   5.792   5.584
  860SOL     OW 3478   4.598   2.930   6.782
  860SOL    HW1 3479   4.652   2.987   6.720
  860SOL    HW2 3480   4.650   2.915   6.867
  861SOL     OW 3481   0.713   6.095   2.511
  861SOL    HW1 3482   0.621   6.097   2.552
  861SOL    HW2 3483   0.720   6.164   2.440
  862SOL     OW 3484   0.957   4.613   3.950
  862SOL    HW1 3485   1.016   4.561   3.888
  862SOL    HW2 3486   0.872   4.635   3.903
  863SOL     OW 3487   5.400   0.369   1.471
  863SOL    HW1 3488   5.325   0.392   1.533
  863SOL    HW2 3489   5.385   0.416   1.383
  864SOL     OW 3490   6.083   4.810   3.516
  864SOL    HW1 3491   6.069   4.893   3.570
  864SOL    HW2 3492   6.177   4.807   3.483
  865SOL     OW 3493   1.490   5.150   4.813
  865SOL    HW1 3494   1.589   5.160   4.799
  865SOL    HW2 3495   1.448   5.241   4.821
  866SOL     OW 3496   3.830   6.871   1.204
  866SOL    HW1 3497   3.861   6.958   1.242
  866SOL    HW2 3498   3.803   6.810   1.278
  867SOL     OW 3499   5.578   3.792   4.932
  867SOL    HW1 3500   5.511   3.865   4.932
  867SOL    HW2 3501   5.670   3.830   4.926
  868SOL     OW 3502   0.621   1.470   1.975
  868SOL    HW1 3503   0.691   1.399   1.975
  868SOL    HW2 3504   0.547   1.445   1.912
  869SOL     OW 3505   0.757   3.082   1.905
  869SOL    HW1 3506   0.840   3.101   1.958
  869SOL    HW2 3507   0.777   3.016   1.833
  870SOL     OW 3508   3.793   4.682   1.646
  870SOL    HW1 3509   3.705   4.703   1.687
  870SOL    HW2 3510   3.816   4.586   1.662
  871SOL     OW 3511   4.388   1.830   3.781
  871SOL    HW1 3512   4.358   1.736   3.765
  871SOL    HW2 3513   4.309   1.885   3.810
  872SOL     OW 3514   1.897   2.788   5.517
  872SOL    HW1 3515   1.853   2.712   5.565
  872SOL    HW2 3516   1.993   2.766   5.501
  873SOL     OW 3517   3.788   0.311   6.589
  873SOL    HW1 3518   3.711   0.374   6.599
  873SOL    HW2 3519   3.864   0.342   6.646
  874SOL     OW 3520   6.203   3.784   2.435
  874SOL    HW1 3521   6.152   3.710   2.479
  874SOL    HW2 3522   6.166   3.799   2.343
  875SOL     OW 3523   5.575   5.271   2.376
  875SOL    HW1 3524   5.530   5.276   2.287
  875SOL    HW2 3525   5.505   5.271   2.448
  876SOL     OW 3526   6.130   1.093   6.169
  876SOL    HW1 3527   6.144   1.174   6.112
  876SOL    HW2 3528   6.035   1.091   6.201
  877SOL     OW 3529   1.404   3.401   6.654
  877SOL    HW1 3530   1.410   3.305   6.681
  877SOL    HW2 3531   1.429   3.410   6.557
  878SOL     OW 3532   4.071   6.263   4.541
  878SOL    HW1 3533   4.111   6.172   4.551
  878SOL    HW2 3534   4.103   6.322   4.615
  879SOL     OW 3535   5.602   6.976   6.139
  879SOL    HW1 3536   5.606   6.889   6.189
  879SOL    HW2 3537   5.562   0.025   6.198
  880SOL     OW 3538   3.330   2.971   3.262
  880SOL    HW1 3539   3.290   3.063   3.262
  880SOL    HW2 3540   3.324   2.932   3.354
  881SOL     OW 3541   4.346   2.388   0.514
  881SOL    HW1 3542   4.280   2.370   0.587
  881SOL    HW2 3543   4.382   2.301   0.479
  882SOL     OW 3544   1.955   3.036   3.367
  882SOL    HW1 3545   2.053   3.024   3.357
  882SOL    HW2 3546   1.923   2.990   3.450
  883SOL     OW 3547   2.509   6.734   2.637
  883SOL    HW1 3548   2.549   6.769   2.722
  883SOL    HW2 3549   2.410   6.723   2.649
  884SOL     OW 3550   2.449   3.437   6.034
  884SOL    HW1 3551   2.525   3.373   6.039
  884SOL    HW2 3552   2.483   3.530   6.047
  885SOL     OW 3553   4.298   2.989   6.550
  885SOL    HW1 3554   4.360   3.059   6.587
  885SOL    HW2 3555   4.203   3.018   6.565
  886SOL     OW 3556   3.623   1.827   6.673
  886SOL    HW1 3557   3.560   1.863   6.605
  886SOL    HW2 3558   3.629   1.890   6.750
  887SOL     OW 3559   3.929   0.983   5.232
  887SOL    HW1 3560   3.864   1.025   5.295
  887SOL    HW2 3561   3.968   1.054   5.173
  888SOL     OW 3562   0.860   0.078   2.029
  888SOL    HW1 3563   0.933   0.125   2.078
  888SOL    HW2 3564   0.814   0.014   2.090
  889SOL     OW 3565   0.452   3.966   0.787
  889SOL    HW1 3566   0.449   3.971   0.687
  889SOL    HW2 3567   0.375   4.017   0.825
  890SOL     OW 3568   2.329   5.708   4.693
  890SOL    HW1 3569   2.298   5.622   4.653
  890SOL    HW2 3570   2.352   5.772   4.619
  891SOL     OW 3571   4.938   4.616   2.373
  891SOL    HW1 3572   4.977   4.544   2.315
  891SOL    HW2 3573   4.999   4.695   2.375
  892SOL     OW 3574   2.154   4.490   1.034
  892SOL    HW1 3575   2.143   4.393   1.013
  892SOL    HW2 3576   2.146   4.504   1.132
  893SOL     OW 3577   1.650   5.050   2.624
  893SOL    HW1 3578   1.731   5.056   2.566
  893SOL    HW2 3579   1.621   5.142   2.650
  894SOL     OW 3580   0.941   4.794   1.317
  894SOL    HW1 3581   0.854   4.746   1.300
  894SOL    HW2 3582   0.999   4.788   1.236
  895SOL     OW 3583   0.019   5.204   4.196
  895SOL    HW1 3584   0.102   5.260   4.198
  895SOL    HW2 3585   0.036   5.118   4.244
  896SOL     OW 3586   0.087   0.940   6.226
  896SOL    HW1 3587   0.118   0.856   6.271
  896SOL    HW2 3588   0.093   0.930   6.127
  897SOL     OW 3589   5.787   0.936   0.875
  897SOL    HW1 3590   5.773   0.837   0.878
  897SOL    HW2 3591   5.804   0.970   0.967
  898SOL     OW 3592   3.817   1.522   3.310
  898SOL    HW1 3593   3.873   1.521   3.227
  898SOL    HW2 3594   3.871   1.488   3.387
  899SOL     OW 3595   6.140   6.375   0.093
  899SOL    HW1 3596   6.158   6.342   0.186
  899SOL    HW2 3597   6.210   6.442   0.067
  900SOL     OW 3598   5.283   5.511   6.535
  900SOL    HW1 3599   5.317   5.504   6.441
  900SOL    HW2 3600   5.261   5.606   6.556
  901SOL     OW 3601   1.264   0.901   3.073
  901SOL    HW1 3602   1.330   0.862   3.009
  901SOL    HW2 3603   1.191   0.946   3.022
  902SOL     OW 3604   0.093   3.402   1.876
  902SOL    HW1 3605   0.004   3.409   1.922
  902SOL    HW2 3606   0.142   3.323   1.913
  903SOL     OW 3607   6.689   0.639   0.510
  903SOL    HW1 3608   6.606   0.595   0.542
  903SOL    HW2 3609   6.718   0.709   0.576
  904SOL     OW 3610   2.874   1.031   3.367
  904SOL    HW1 3611   2.774   1.033   3.358
  904SOL    HW2 3612   2.907   0.938   3.353
  905SOL     OW 3613   5.900   2.239   6.060
  905SOL    HW1 3614   5.946   2.286   6.136
  905SOL    HW2 3615   5.843   2.304   6.011
  906SOL     OW 3616   5.887   3.385   0.697
  906SOL    HW1 3617   5.812   3.443   0.729
  906SOL    HW2 3618   5.952   3.440   0.644
  907SOL     OW 3619   5.591   4.076   6.925
  907SOL    HW1 3620   5.495   4.053   6.907
  907SOL    HW2 3621   5.650   4.007   6.883
  908SOL     OW 3622   0.483   3.805   3.192
  908SOL    HW1 3623   0.505   3.708   3.205
  908SOL    HW2 3624   0.420   3.835   3.262
  909SOL     OW 3625   5.289   4.925   5.993
  909SOL    HW1 3626   5.246   5.000   5.943
  909SOL    HW2 3627   5.317   4.854   5.928
  910SOL     OW 3628   3.482   4.599   6.989
  910SOL    HW1 3629   3.494   4.509   0.010
  910SOL    HW2 3630   3.535   4.605   6.905
  911SOL     OW 3631   1.174   4.685   6.028
  911SOL    HW1 3632   1.267   4.662   5.999
  911SOL    HW2 3633   1.110   4.620   5.987
  912SOL     OW 3634   5.053   1.442   5.278
  912SOL    HW1 3635   5.022   1.535   5.261
  912SOL    HW2 3636   4.978   1.390   5.320
  913SOL     OW 3637   4.679   6.096   2.995
  913SOL    HW1 3638   4.636   6.179   3.031
  913SOL    HW2 3639   4.629   6.016   3.026
  914SOL     OW 3640   3.083   6.841   5.516
  914SOL    HW1 3641   3.126   6.861   5.604
  914SOL    HW2 3642   3.018   6.765   5.527
  915SOL     OW 3643   5.500   5.336   1.723
  915SOL    HW1 3644   5.531   5.362   1.631
  915SOL    HW2 3645   5.548   5.392   1.791
  916SOL     OW 3646   1.114   3.691   3.116
  916SOL    HW1 3647   1.083   3.641   3.035
  916SOL    HW2 3648   1.037   3.741   3.156
  917SOL     OW 3649   0.354   0.018   6.718
  917SOL    HW1 3650   0.381   7.015   6.625
  917SOL    HW2 3651   0.435   0.039   6.772
  918SOL     OW 3652   3.408   5.977   6.753
  918SOL    HW1 3653   3.470   6.038   6.804
  918SOL    HW2 3654   3.383   6.020   6.667
  919SOL     OW 3655   4.721   0.739   6.270
  919SOL    HW1 3656   4.627   0.738   6.304
  919SOL    HW2 3657   4.735   0.817   6.209
  920SOL     OW 3658   3.076   4.726   1.888
  920SOL    HW1 3659   3.011   4.650   1.878
  920SOL    HW2 3660   3.166   4.697   1.855
  921SOL     OW 3661   4.849   5.563   5.153
  921SOL    HW1 3662   4.844   5.509   5.069
  921SOL    HW2 3663   4.787   5.525   5.221
  922SOL     OW 3664   3.332   3.961   3.337
  922SOL    HW1 3665   3.391   4.038   3.358
  922SOL    HW2 3666   3.377   3.902   3.271
  923SOL     OW 3667   2.352   3.917   5.699
  923SOL    HW1 3668   2.283   3.941   5.631
  923SOL    HW2 3669   2.319   3.940   5.790
  924SOL     OW 3670   0.889   3.507   1.516
  924SOL    HW1 3671   0.964   3.487   1.453
  924SOL    HW2 3672   0.838   3.423   1.536
  925SOL     OW 3673   0.616   1.479   6.788
  925SOL    HW1 3674   0.634   1.384   6.764
  925SOL    HW2 3675   0.579   1.528   6.709
  926SOL     OW 3676   2.217   1.978   1.139
  926SOL    HW1 3677   2.232   2.010   1.233
  926SOL    HW2 3678   2.121   1.988   1.115
  927SOL     OW 3679   6.550   3.110   4.973
  927SOL    HW1 3680   6.645   3.141   4.982
  927SOL    HW2 3681   6.525   3.111   4.876
  928SOL     OW 3682   2.846   5.176   5.790
  928SOL    HW1 3683   2.781   5.132   5.852
  928SOL    HW2 3684   2.826   5.148   5.696
  929SOL     OW 3685   0.853   2.060   4.798
  929SOL    HW1 3686   0.892   1.988   4.854
  929SOL    HW2 3687   0.793   2.117   4.854
  930SOL     OW 3688   6.073   5.163   5.235
  930SOL    HW1 3689   6.092   5.098   5.309
  930SOL    HW2 3690   6.141   5.150   5.162
  931SOL     OW 3691   6.315   0.817   3.673
  931SOL    HW1 3692   6.226   0.861   3.664
  931SOL    HW2 3693   6.329   0.789   3.768
  932SOL     OW 3694   3.954   6.738   3.543
  932SOL    HW1 3695   4.044   6.782   3.541
  932SOL    HW2 3696   3.952   6.664   3.476
  933SOL     OW 3697   1.284   5.752   2.031
  933SOL    HW1 3698   1.272   5.710   1.941
  933SOL    HW2 3699   1.336   5.837   2.021
  934SOL     OW 3700   2.039   3.068   0.606
  934SOL    HW1 3701   1.948   3.105   0.586
  934SOL    HW2 3702   2.097   3.141   0.643
  935SOL     OW 3703   5.527   2.833   5.378
  935SOL    HW1 3704   5.534   2.901   5.450
  935SOL    HW2 3705   5.517   2.879   5.290
  936SOL     OW 3706   2.082   0.648   6.325
  936SOL    HW1 3707   1.983   0.655   6.313
  936SOL    HW2 3708   2.122   0.609   6.241
  937SOL     OW 3709   3.283   2.517   6.505
  937SOL    HW1 3710   3.210   2.471   6.555
  937SOL    HW2 3711   3.251   2.538   6.413
  938SOL     OW 3712   4.865   6.375   5.152
  938SOL    HW1 3713   4.877   6.438   5.075
  938SOL    HW2 3714   4.935   6.393   5.221
  939SOL     OW 3715   1.409   0.341   4.878
  939SOL    HW1 3716   1.390   0.369   4.783
  939SOL    HW2 3717   1.371   0.409   4.940
  940SOL     OW 3718   1.954   5.317   0.645
  940SOL    HW1 3719   2.009   5.350   0.722
  940SOL    HW2 3720   1.882   5.256   0.679
  941SOL     OW 3721   3.795   6.866   0.936
  941SOL    HW1 3722   3.806   6.862   1.035
  941SOL    HW2 3723   3.847   6.944   0.900
  942SOL     OW 3724   6.542   5.117   0.081
  942SOL    HW1 3725   6.459   5.161   0.116
  942SOL    HW2 3726   6.521   5.066   7.018
  943SOL     OW 3727   3.659   6.245   1.157
  943SOL    HW1 3728   3.600   6.191   1.097
  943SOL    HW2 3729   3.619   6.249   1.248
  944SOL     OW 3730   6.344   6.356   3.090
  944SOL    HW1 3731   6.253   6.394   3.073
  944SOL    HW2 3732   6.335   6.265   3.131
  945SOL     OW 3733   0.233   5.357   6.831
  945SOL    HW1 3734   0.186   5.362   6.743
  945SOL    HW2 3735   0.332   5.369   6.816
  946SOL     OW 3736   5.888   1.843   3.936
  946SOL    HW1 3737   5.880   1.942   3.926
  946SOL    HW2 3738   5.962   1.810   3.879
  947SOL     OW 3739   3.871   3.991   2.734
  947SOL    HW1 3740   3.918   3.974   2.648
  947SOL    HW2 3741   3.886   3.914   2.797
  948SOL     OW 3742   3.466   1.381   3.769
  948SOL    HW1 3743   3.514   1.467   3.784
  948SOL    HW2 3744   3.508   1.334   3.690
  949SOL     OW 3745   2.790   6.999   5.397
  949SOL    HW1 3746   2.786   6.963   5.303
  949SOL    HW2 3747   2.712   6.964   5.449
  950SOL     OW 3748   0.294   6.895   1.713
  950SOL    HW1 3749   0.340   6.839   1.645
  950SOL    HW2 3750   0.198   6.909   1.687
  951SOL     OW 3751   1.558   0.149   3.212
  951SOL    HW1 3752   1.496   0.222   3.183
  951SOL    HW2 3753   1.594   0.103   3.131
  952SOL     OW 3754   3.623   1.791   2.778
  952SOL    HW1 3755   3.692   1.856   2.810
  952SOL    HW2 3756   3.547   1.787   2.843
  953SOL     OW 3757   1.054   6.306   5.813
  953SOL    HW1 3758   0.978   6.346   5.762
  953SOL    HW2 3759   1.024   6.284   5.906
  954SOL     OW 3760   4.551   6.894   2.698
  954SOL    HW1 3761   4.455   6.903   2.726
  954SOL    HW2 3762   4.598   6.982   2.710
  955SOL     OW 3763   3.302   4.620   1.740
  955SOL    HW1 3764   3.376   4.646   1.801
  955SOL    HW2 3765   3.335   4.553   1.674
  956SOL     OW 3766   3.276   0.384   1.004
  956SOL    HW1 3767   3.208   0.421   1.067
  956SOL    HW2 3768   3.352   0.449   0.995
  957SOL     OW 3769   5.862   6.920   3.350
  957SOL    HW1 3770   5.775   6.869   3.349
  957SOL    HW2 3771   5.844   7.016   3.370
  958SOL     OW 3772   5.577   5.825   1.468
  958SOL    HW1 3773   5.588   5.869   1.378
  958SOL    HW2 3774   5.550   5.893   1.535
  959SOL     OW 3775   4.759   0.364   2.678
  959SOL    HW1 3776   4.667   0.338   2.648
  959SOL    HW2 3777   4.763   0.365   2.777
  960SOL     OW 3778   1.381   6.513   5.599
  960SOL    HW1 3779   1.289   6.550   5.587
  960SOL    HW2 3780   1.417   6.483   5.511
  961SOL     OW 3781   4.010   1.089   3.893
  961SOL    HW1 3782   4.037   1.083   3.797
  961SOL    HW2 3783   3.925   1.140   3.902
  962SOL     OW 3784   7.003   0.131   4.864
  962SOL    HW1 3785   6.987   0.147   4.766
  962SOL    HW2 3786   6.985   0.035   4.885
  963SOL     OW 3787   5.986   2.492   1.345
  963SOL    HW1 3788   5.895   2.511   1.381
  963SOL    HW2 3789   5.979   2.444   1.258
  964SOL     OW 3790   3.705   6.484   5.119
  964SOL    HW1 3791   3.645   6.414   5.159
  964SOL    HW2 3792   3.677   6.574   5.153
  965SOL     OW 3793   4.953   1.686   4.254
  965SOL    HW1 3794   5.047   1.703   4.284
  965SOL    HW2 3795   4.928   1.592   4.274
  966SOL     OW 3796   5.100   0.950   3.213
  966SOL    HW1 3797   5.067   1.016   3.280
  966SOL    HW2 3798   5.090   0.857   3.249
  967SOL     OW 3799   3.693   5.308   5.882
  967SOL    HW1 3800   3.788   5.309   5.915
  967SOL    HW2 3801   3.669   5.400   5.849
  968SOL     OW 3802   4.105   0.388   1.585
  968SOL    HW1 3803   4.011   0.355   1.597
  968SOL    HW2 3804   4.103   0.487   1.567
  969SOL     OW 3805   2.735   3.556   6.851
  969SOL    HW1 3806   2.770   3.604   6.931
  969SOL    HW2 3807   2.722   3.460   6.873
  970SOL     OW 3808   4.260   6.174   5.449
  970SOL    HW1 3809   4.175   6.124   5.434
  970SOL    HW2 3810   4.337   6.111   5.443
  971SOL     OW 3811   5.081   3.273   3.438
  971SOL    HW1 3812   5.095   3.340   3.365
  971SOL    HW2 3813   5.152   3.203   3.432
  972SOL     OW 3814   0.766   1.701   0.701
  972SOL    HW1 3815   0.674   1.712   0.665
  972SOL    HW2 3816   0.781   1.768   0.775
  973SOL     OW 3817   6.300   2.659   4.773
  973SOL    HW1 3818   6.380   2.601   4.786
  973SOL    HW2 3819   6.292   2.721   4.851
  974SOL     OW 3820   1.286   3.436   1.618
  974SOL    HW1 3821   1.298   3.412   1.522
  974SOL    HW2 3822   1.319   3.529   1.634
  975SOL     OW 3823   3.102   0.429   1.777
  975SOL    HW1 3824   3.163   0.490   1.827
  975SOL    HW2 3825   3.153   0.351   1.742
  976SOL     OW 3826   6.988   2.867   3.913
  976SOL    HW1 3827   6.929   2.815   3.976
  976SOL    HW2 3828   0.056   2.822   3.906
  977SOL     OW 3829   6.441   1.487   2.112
  977SOL    HW1 3830   6.532   1.452   2.089
  977SOL    HW2 3831   6.415   1.454   2.202
  978SOL     OW 3832   5.418   2.027   1.007
  978SOL    HW1 3833   5.496   2.011   1.067
  978SOL    HW2 3834   5.357   2.095   1.048
  979SOL     OW 3835   0.257   4.990   6.544
  979SOL    HW1 3836   0.182   5.045   6.580
  979SOL    HW2 3837   0.284   5.024   6.454
  980SOL     OW 3838   4.772   1.575   3.825
  980SOL    HW1 3839   4.714   1.495   3.809
  980SOL    HW2 3840   4.761   1.640   3.751
  981SOL     OW 3841   0.779   5.764   5.502
  981SOL    HW1 3842   0.680   5.750   5.507
  981SOL    HW2 3843   0.817   5.765   5.595
  982SOL     OW 3844   0.290   1.152   6.639
  982SOL    HW1 3845   0.330   1.232   6.594
  982SOL    HW2 3846   0.191   1.150   6.622
  983SOL     OW 3847   6.984   3.812   2.145
  983SOL    HW1 3848   6.918   3.887   2.154
  983SOL    HW2 3849   0.024   3.830   2.068
  984SOL     OW 3850   0.356   3.368   3.718
  984SOL    HW1 3851   0.266   3.380   3.760
  984SOL    HW2 3852   0.349   3.383   3.620
  985SOL     OW 3853   5.525   5.291   5.536
  985SOL    HW1 3854   5.598   5.358   5.523
  985SOL    HW2 3855   5.539   5.242   5.622
  986SOL     OW 3856   3.841   5.245   1.588
  986SOL    HW1 3857   3.790   5.164   1.616
  986SOL    HW2 3858   3.933   5.241   1.626
  987SOL     OW 3859   4.541   4.416   4.427
  987SOL    HW1 3860   4.623   4.381   4.380
  987SOL    HW2 3861   4.559   4.421   4.526
  988SOL     OW 3862   3.040   4.830   2.310
  988SOL    HW1 3863   2.969   4.762   2.291
  988SOL    HW2 3864   3.112   4.824   2.241
  989SOL     OW 3865   0.419   2.801   1.141
  989SOL    HW1 3866   0.447   2.860   1.065
  989SOL    HW2 3867   0.489   2.731   1.157
  990SOL     OW 3868   3.647   6.983   5.279
  990SOL    HW1 3869   3.729   0.009   5.310
  990SOL    HW2 3870   3.628   7.007   5.184
  991SOL     OW 3871   1.624   6.406   3.945
  991SOL    HW1 3872   1.592   6.499   3.965
  991SOL    HW2 3873   1.596   6.345   4.018
  992SOL     OW 3874   6.382   3.441   0.878
  992SOL    HW1 3875   6.421   3.368   0.933
  992SOL    HW2 3876   6.455   3.491   0.832
  993SOL     OW 3877   1.929   5.481   6.388
  993SOL    HW1 3878   1.983   5.405   6.350
  993SOL    HW2 3879   1.949   5.491   6.486
  994SOL     OW 3880   3.030   0.096   1.556
  994SOL    HW1 3881   3.115   0.044   1.563
  994SOL    HW2 3882   3.042   0.173   1.493
  995SOL     OW 3883   5.378   4.390   5.618
  995SOL    HW1 3884   5.405   4.366   5.525
  995SOL    HW2 3885   5.283   4.361   5.634
  996SOL     OW 3886   4.103   6.590   5.250
  996SOL    HW1 3887   4.181   6.643   5.284
  996SOL    HW2 3888   4.035   6.652   5.211
  997SOL     OW 3889   1.361   6.141   3.311
  997SOL    HW1 3890   1.424   6.151   3.234
  997SOL    HW2 3891   1.398   6.074   3.375
  998SOL     OW 3892   4.472   0.217   0.372
  998SOL    HW1 3893   4.496   0.249   0.281
  998SOL    HW2 3894   4.483   0.292   0.438
  999SOL     OW 3895   5.729   3.247   2.599
  999SOL    HW1 3896   5.759   3.210   2.687
  999SOL    HW2 3897   5.671   3.180   2.553
 1000SOL     OW 3898   5.735   1.820   2.183
 1000SOL    HW1 3899   5.690   1.763   2.114
 1000SOL    HW2 3900   5.778   1.761   2.252
 1001SOL     OW 3901   2.277   6.502   3.485
 1001SOL    HW1 3902   2.368   6.488   3.524
 1001SOL    HW2 3903   2.221   6.555   3.549
 1002SOL     OW 3904   3.729   2.277   0.485
 1002SOL    HW1 3905   3.814   2.330   0.479
 1002SOL    HW2 3906   3.723   2.214   0.408
 1003SOL     OW 3907   0.809   1.412   3.817
 1003SOL    HW1 3908   0.725   1.404   3.763
 1003SOL    HW2 3909   0.844   1.320   3.838
 1004SOL     OW 3910   4.456   1.262   4.574
 1004SOL    HW1 3911   4.449   1.348   4.626
 1004SOL    HW2 3912   4.517   1.199   4.623
 1005SOL     OW 3913   0.757   5.884   1.980
 1005SOL    HW1 3914   0.771   5.809   1.914
 1005SOL    HW2 3915   0.782   5.852   2.071
 1006SOL     OW 3916   1.840   4.476   1.178
 1006SOL    HW1 3917   1.811   4.383   1.200
 1006SOL    HW2 3918   1.775   4.541   1.217
 1007SOL     OW 3919   4.635   1.189   6.226
 1007SOL    HW1 3920   4.567   1.162   6.295
 1007SOL    HW2 3921   4.663   1.109   6.173
 1008SOL     OW 3922   0.364   4.505   4.518
 1008SOL    HW1 3923   0.377   4.518   4.616
 1008SOL    HW2 3924   0.448   4.529   4.469
 1009SOL     OW 3925   6.565   6.211   6.533
 1009SOL    HW1 3926   6.524   6.217   6.624
 1009SOL    HW2 3927   6.541   6.291   6.479
 1010SOL     OW 3928   3.097   4.004   0.208
 1010SOL    HW1 3929   3.177   4.064   0.200
 1010SOL    HW2 3930   3.040   4.034   0.283
 1011SOL     OW 3931   0.096   5.250   2.384
 1011SOL    HW1 3932   0.131   5.256   2.478
 1011SOL    HW2 3933   0.098   5.340   2.342
 1012SOL     OW 3934   5.440   6.234   3.296
 1012SOL    HW1 3935   5.387   6.170   3.353
 1012SOL    HW2 3936   5.455   6.319   3.347
 1013SOL     OW 3937   0.599   1.008   6.483
 1013SOL    HW1 3938   0.666   1.082   6.487
 1013SOL    HW2 3939   0.550   1.003   6.570
 1014SOL     OW 3940   0.869   4.716   4.234
 1014SOL    HW1 3941   0.857   4.689   4.139
 1014SOL    HW2 3942   0.959   4.687   4.266
 1015SOL     OW 3943   3.085   6.343   6.963
 1015SOL    HW1 3944   3.066   6.346   0.040
 1015SOL    HW2 3945   3.092   6.248   6.933
 1016SOL     OW 3946   6.783   4.744   0.358
 1016SOL    HW1 3947   6.836   4.690   0.423
 1016SOL    HW2 3948   6.799   4.709   0.265
 1017SOL     OW 3949   1.934   0.903   2.446
 1017SOL    HW1 3950   1.983   0.845   2.380
 1017SOL    HW2 3951   1.970   0.887   2.538
 1018SOL     OW 3952   5.781   6.327   5.514
 1018SOL    HW1 3953   5.797   6.259   5.585
 1018SOL    HW2 3954   5.869   6.358   5.478
 1019SOL     OW 3955   6.202   3.588   1.597
 1019SOL    HW1 3956   6.219   3.492   1.578
 1019SOL    HW2 3957   6.245   3.613   1.684
 1020SOL     OW 3958   5.073   0.936   1.129
 1020SOL    HW1 3959   5.146   0.997   1.162
 1020SOL    HW2 3960   4.987   0.960   1.174
 1021SOL     OW 3961   1.562   6.677   0.605
 1021SOL    HW1 3962   1.492   6.717   0.663
 1021SOL    HW2 3963   1.522   6.603   0.550
 1022SOL     OW 3964   1.488   5.473   6.015
 1022SOL    HW1 3965   1.525   5.459   5.923
 1022SOL    HW2 3966   1.458   5.385   6.052
 1023SOL     OW 3967   1.160   1.313   2.147
 1023SOL    HW1 3968   1.258   1.322   2.165
 1023SOL    HW2 3969   1.111   1.384   2.197
 1024SOL     OW 3970   1.876   2.440   4.100
 1024SOL    HW1 3971   1.876   2.375   4.176
 1024SOL    HW2 3972   1.961   2.494   4.102
 1025SOL     OW 3973   4.565   4.015   1.075
 1025SOL    HW1 3974   4.564   3.944   1.144
 1025SOL    HW2 3975   4.483   4.009   1.019
 1026SOL     OW 3976   3.108   2.913   1.759
 1026SOL    HW1 3977   3.118   2.819   1.794
 1026SOL    HW2 3978   3.145   2.977   1.825
 1027SOL     OW 3979   6.426   0.085   0.186
 1027SOL    HW1 3980   6.488   0.110   0.111
 1027SOL    HW2 3981   6.469   0.015   0.243
 1028SOL     OW 3982   1.092   4.989   3.235
 1028SOL    HW1 3983   1.125   4.962   3.145
 1028SOL    HW2 3984   1.162   5.042   3.283
 1029SOL     OW 3985   0.511   0.857   4.954
 1029SOL    HW1 3986   0.602   0.897   4.961
 1029SOL    HW2 3987   0.472   0.878   4.864
 1030SOL     OW 3988   3.980   3.697   0.748
 1030SOL    HW1 3989   4.037   3.745   0.681
 1030SOL    HW2 3990   4.038   3.649   0.813
 1031SOL     OW 3991   3.971   2.570   0.579
 1031SOL    HW1 3992   3.901   2.610   0.639
 1031SOL    HW2 3993   4.015   2.643   0.526
 1032SOL     OW 3994   1.185   0.973   1.391
 1032SOL    HW1 3995   1.275   1.015   1.407
 1032SOL    HW2 3996   1.143   0.951   1.479
 1033SOL     OW 3997   6.250   6.817   2.249
 1033SOL    HW1 3998   6.169   6.852   2.203
 1033SOL    HW2 3999   6.316   6.785   2.180
 1034SOL     OW 4000   2.256   0.770   5.343
 1034SOL    HW1 4001   2.274   0.868   5.343
 1034SOL    HW2 4002   2.339   0.720   5.319
 1035SOL     OW 4003   1.517   0.400   0.362
 1035SOL    HW1 4004   1.555   0.478   0.312
 1035SOL    HW2 4005   1.558   0.397   0.454
 1036SOL     OW 4006   5.284   1.476   2.370
 1036SOL    HW1 4007   5.326   1.386   2.383
 1036SOL    HW2 4008   5.213   1.490   2.438
 1037SOL     OW 4009   1.301   3.878   2.871
 1037SOL    HW1 4010   1.254   3.797   2.835
 1037SOL    HW2 4011   1.278   3.889   2.967
 1038SOL     OW 4012   1.720   6.359   6.846
 1038SOL    HW1 4013   1.747   6.416   6.768
 1038SOL    HW2 4014   1.714   6.415   6.928
 1039SOL     OW 4015   3.055   3.778   2.916
 1039SOL    HW1 4016   3.132   3.824   2.872
 1039SOL    HW2 4017   3.054   3.798   3.013
 1040SOL     OW 4018   3.943   1.436   2.877
 1040SOL    HW1 4019   3.885   1.368   2.921
 1040SOL    HW2 4020   3.969   1.506   2.943
 1041SOL     OW 4021   6.706   6.581   6.989
 1041SOL    HW1 4022   6.652   6.616   6.912
 1041SOL    HW2 4023   6.676   6.625   0.053
 1042SOL     OW 4024   5.340   3.953   4.052
 1042SOL    HW1 4025   5.330   3.941   3.954
 1042SOL    HW2 4026   5.315   3.869   4.099
 1043SOL     OW 4027   2.553   2.235   3.390
 1043SOL    HW1 4028   2.589   2.308   3.449
 1043SOL    HW2 4029   2.548   2.269   3.296
 1044SOL     OW 4030   5.710   4.401   1.959
 1044SOL    HW1 4031   5.743   4.307   1.969
 1044SOL    HW2 4032   5.789   4.463   1.954
 1045SOL     OW 4033   2.442   0.425   2.715
 1045SOL    HW1 4034   2.346   0.453   2.715
 1045SOL    HW2 4035   2.476   0.424   2.809
 1046SOL     OW 4036   3.073   2.509   0.807
 1046SOL    HW1 4037   3.129   2.584   0.771
 1046SOL    HW2 4038   3.008   2.546   0.874
 1047SOL     OW 4039   3.908   0.815   3.631
 1047SOL    HW1 4040   3.820   0.772   3.650
 1047SOL    HW2 4041   3.960   0.758   3.567
 1048SOL     OW 4042   0.426   0.170   2.480
 1048SOL    HW1 4043   0.457   0.075   2.468
 1048SOL    HW2 4044   0.389   0.204   2.393
 1049SOL     OW 4045   3.413   6.892   0.952
 1049SOL    HW1 4046   3.440   6.970   1.008
 1049SOL    HW2 4047   3.482   6.877   0.881
 1050SOL     OW 4048   2.402   2.016   4.665
 1050SOL    HW1 4049   2.381   1.940   4.726
 1050SOL    HW2 4050   2.344   2.010   4.583
 1051SOL     OW 4051   1.649   2.132   5.331
 1051SOL    HW1 4052   1.598   2.127   5.245
 1051SOL    HW2 4053   1.608   2.201   5.391
 1052SOL     OW 4054   4.334   2.379   6.351
 1052SOL    HW1 4055   4.294   2.413   6.436
 1052SOL    HW2 4056   4.357   2.282   6.362
 1053SOL     OW 4057   4.736   2.719   3.871
 1053SOL    HW1 4058   4.760   2.678   3.959
 1053SOL    HW2 4059   4.733   2.819   3.881
 1054SOL     OW 4060   4.838   5.299   6.617
 1054SOL    HW1 4061   4.873   5.387   6.585
 1054SOL    HW2 4062   4.765   5.315   6.684
 1055SOL     OW 4063   5.326   5.476   6.252
 1055SOL    HW1 4064   5.244   5.483   6.196
 1055SOL    HW2 4065   5.377   5.394   6.227
 1056SOL     OW 4066   3.780   3.703   0.357
 1056SOL    HW1 4067   3.879   3.694   0.363
 1056SOL    HW2 4068   3.749   3.672   0.267
 1057SOL     OW 4069   2.784   3.279   6.371
 1057SOL    HW1 4070   2.777   3.227   6.285
 1057SOL    HW2 4071   2.789   3.215   6.448
 1058SOL     OW 4072   3.062   2.131   1.948
 1058SOL    HW1 4073   3.010   2.204   1.992
 1058SOL    HW2 4074   3.107   2.165   1.866
 1059SOL     OW 4075   2.311   5.845   2.565
 1059SOL    HW1 4076   2.256   5.882   2.490
 1059SOL    HW2 4077   2.272   5.874   2.652
 1060SOL     OW 4078   6.542   0.164   5.544
 1060SOL    HW1 4079   6.615   0.214   5.590
 1060SOL    HW2 4080   6.456   0.214   5.557
 1061SOL     OW 4081   0.145   3.495   6.414
 1061SOL    HW1 4082   0.147   3.563   6.487
 1061SOL    HW2 4083   0.179   3.408   6.449
 1062SOL     OW 4084   3.458   4.631   5.707
 1062SOL    HW1 4085   3.497   4.721   5.729
 1062SOL    HW2 4086   3.401   4.639   5.625
 1063SOL     OW 4087   2.827   6.524   4.167
 1063SOL    HW1 4088   2.873   6.446   4.125
 1063SOL    HW2 4089   2.742   6.493   4.211
 1064SOL     OW 4090   0.814   4.407   0.746
 1064SOL    HW1 4091   0.824   4.438   0.841
 1064SOL    HW2 4092   0.784   4.311   0.746
 1065SOL     OW 4093   5.726   0.763   5.159
 1065SOL    HW1 4094   5.661   0.772   5.235
 1065SOL    HW2 4095   5.721   0.844   5.101
 1066SOL     OW 4096   4.631   6.195   0.725
 1066SOL    HW1 4097   4.668   6.103   0.711
 1066SOL    HW2 4098   4.702   6.254   0.763
 1067SOL     OW 4099   3.170   1.088   0.347
 1067SOL    HW1 4100   3.170   1.183   0.316
 1067SOL    HW2 4101   3.254   1.070   0.399
 1068SOL     OW 4102   5.907   3.032   2.093
 1068SOL    HW1 4103   5.919   3.045   2.192
 1068SOL    HW2 4104   5.964   3.098   2.044
 1069SOL     OW 4105   6.909   2.452   2.690
 1069SOL    HW1 4106   6.898   2.396   2.609
 1069SOL    HW2 4107   6.851   2.418   2.764
 1070SOL     OW 4108   0.634   1.060   2.358
 1070SOL    HW1 4109   0.715   1.005   2.378
 1070SOL    HW2 4110   0.661   1.140   2.304
 1071SOL     OW 4111   0.531   2.899   5.455
 1071SOL    HW1 4112   0.578   2.985   5.474
 1071SOL    HW2 4113   0.590   2.822   5.480
 1072SOL     OW 4114   2.377   1.292   1.974
 1072SOL    HW1 4115   2.421   1.367   2.022
 1072SOL    HW2 4116   2.428   1.271   1.891
 1073SOL     OW 4117   5.275   2.200   2.731
 1073SOL    HW1 4118   5.229   2.117   2.761
 1073SOL    HW2 4119   5.336   2.180   2.656
 1074SOL     OW 4120   3.183   5.473   2.049
 1074SOL    HW1 4121   3.125   5.535   1.997
 1074SOL    HW2 4122   3.125   5.411   2.103
 1075SOL     OW 4123   6.852   3.748   4.863
 1075SOL    HW1 4124   6.798   3.667   4.887
 1075SOL    HW2 4125   6.816   3.827   4.912
 1076SOL     OW 4126   2.412   4.231   5.288
 1076SOL    HW1 4127   2.398   4.149   5.232
 1076SOL    HW2 4128   2.476   4.292   5.242
 1077SOL     OW 4129   6.899   6.255   0.912
 1077SOL    HW1 4130   6.832   6.189   0.878
 1077SOL    HW2 4131   6.989   6.234   0.873
 1078SOL     OW 4132   5.655   6.573   4.106
 1078SOL    HW1 4133   5.731   6.508   4.109
 1078SOL    HW2 4134   5.609   6.575   4.195
 1079SOL     OW 4135   1.181   5.913   1.492
 1079SOL    HW1 4136   1.098   5.959   1.461
 1079SOL    HW2 4137   1.251   5.982   1.512
 1080SOL     OW 4138   5.012   5.921   0.226
 1080SOL    HW1 4139   5.040   5.837   0.273
 1080SOL    HW2 4140   4.919   5.911   0.192
 1081SOL     OW 4141   6.754   6.668   3.355
 1081SOL    HW1 4142   6.721   6.698   3.266
 1081SOL    HW2 4143   6.820   6.734   3.391
 1082SOL     OW 4144   4.364   0.182   7.001
 1082SOL    HW1 4145   4.364   0.083   7.013
 1082SOL    HW2 4146   4.380   0.205   6.905
 1083SOL     OW 4147   6.262   4.239   2.268
 1083SOL    HW1 4148   6.216   4.324   2.244
 1083SOL    HW2 4149   6.360   4.257   2.282
 1084SOL     OW 4150   4.201   0.898   5.308
 1084SOL    HW1 4151   4.105   0.926   5.309
 1084SOL    HW2 4152   4.233   0.892   5.214
 1085SOL     OW 4153   1.714   3.406   4.925
 1085SOL    HW1 4154   1.619   3.389   4.952
 1085SOL    HW2 4155   1.759   3.463   4.995
 1086SOL     OW 4156   5.923   4.600   1.973
 1086SOL    HW1 4157   6.013   4.571   1.941
 1086SOL    HW2 4158   5.890   4.675   1.916
 1087SOL     OW 4159   3.920   6.954   5.935
 1087SOL    HW1 4160   3.961   7.009   6.008
 1087SOL    HW2 4161   3.989   6.935   5.865
 1088SOL     OW 4162   6.510   5.219   4.494
 1088SOL    HW1 4163   6.596   5.254   4.459
 1088SOL    HW2 4164   6.438   5.234   4.427
 1089SOL     OW 4165   6.025   4.980   4.281
 1089SOL    HW1 4166   5.991   5.018   4.367
 1089SOL    HW2 4167   6.101   4.918   4.300
 1090SOL     OW 4168   5.929   2.715   4.990
 1090SOL    HW1 4169   5.984   2.685   5.067
 1090SOL    HW2 4170   5.833   2.719   5.017
 1091SOL     OW 4171   2.232   3.876   2.881
 1091SOL    HW1 4172   2.225   3.792   2.934
 1091SOL    HW2 4173   2.293   3.862   2.803
 1092SOL     OW 4174   1.436   6.448   0.516
 1092SOL    HW1 4175   1.435   6.457   0.615
 1092SOL    HW2 4176   1.461   6.354   0.491
 1093SOL     OW 4177   1.660   0.589   3.100
 1093SOL    HW1 4178   1.688   0.655   3.031
 1093SOL    HW2 4179   1.740   0.535   3.128
 1094SOL     OW 4180   0.108   0.086   3.103
 1094SOL    HW1 4181   0.076   0.177   3.129
 1094SOL    HW2 4182   0.183   0.094   3.037
 1095SOL     OW 4183   6.264   3.720   1.051
 1095SOL    HW1 4184   6.194   3.780   1.090
 1095SOL    HW2 4185   6.222   3.638   1.015
 1096SOL     OW 4186   2.009   5.953   2.051
 1096SOL    HW1 4187   2.012   6.039   2.002
 1096SOL    HW2 4188   2.066   5.885   2.004
 1097SOL     OW 4189   3.073   6.023   4.814
 1097SOL    HW1 4190   3.068   6.045   4.911
 1097SOL    HW2 4191   3.121   6.095   4.765
 1098SOL     OW 4192   6.809   4.167   0.152
 1098SOL    HW1 4193   6.865   4.092   0.119
 1098SOL    HW2 4194   6.762   4.139   0.237
 1099SOL     OW 4195   5.303   0.359   6.829
 1099SOL    HW1 4196   5.336   0.443   6.873
 1099SOL    HW2 4197   5.249   0.383   6.748
 1100SOL     OW 4198   4.696   1.365   4.073
 1100SOL    HW1 4199   4.790   1.329   4.068
 1100SOL    HW2 4200   4.672   1.381   4.169
 1101SOL     OW 4201   4.936   2.944   0.011
 1101SOL    HW1 4202   4.880   2.872   6.991
 1101SOL    HW2 4203   4.948   2.926   0.108
 1102SOL     OW 4204   3.423   0.923   4.270
 1102SOL    HW1 4205   3.343   0.947   4.326
 1102SOL    HW2 4206   3.444   0.826   4.282
 1103SOL     OW 4207   3.438   6.546   0.861
 1103SOL    HW1 4208   3.530   6.582   0.870
 1103SOL    HW2 4209   3.375   6.600   0.916
 1104SOL     OW 4210   6.348   1.377   3.252
 1104SOL    HW1 4211   6.353   1.278   3.240
 1104SOL    HW2 4212   6.425   1.409   3.307
 1105SOL     OW 4213   4.729   0.958   6.092
 1105SOL    HW1 4214   4.812   0.947   6.038
 1105SOL    HW2 4215   4.649   0.955   6.032
 1106SOL     OW 4216   5.996   1.794   1.856
 1106SOL    HW1 4217   6.031   1.873   1.805
 1106SOL    HW2 4218   5.905   1.770   1.821
 1107SOL     OW 4219   1.597   2.115   6.874
 1107SOL    HW1 4220   1.675   2.148   6.928
 1107SOL    HW2 4221   1.517   2.107   6.933
 1108SOL     OW 4222   2.370   1.596   3.465
 1108SOL    HW1 4223   2.349   1.518   3.524
 1108SOL    HW2 4224   2.294   1.611   3.402
 1109SOL     OW 4225   4.818   1.578   5.009
 1109SOL    HW1 4226   4.750   1.525   5.060
 1109SOL    HW2 4227   4.855   1.650   5.068
 1110SOL     OW 4228   1.207   0.823   2.622
 1110SOL    HW1 4229   1.162   0.820   2.711
 1110SOL    HW2 4230   1.191   0.736   2.574
 1111SOL     OW 4231   5.681   2.861   6.137
 1111SOL    HW1 4232   5.618   2.906   6.074
 1111SOL    HW2 4233   5.753   2.925   6.164
 1112SOL     OW 4234   5.776   0.644   2.454
 1112SOL    HW1 4235   5.789   0.545   2.449
 1112SOL    HW2 4236   5.678   0.664   2.463
 1113SOL     OW 4237   0.077   2.155   2.933
 1113SOL    HW1 4238   0.112   2.199   2.850
 1113SOL    HW2 4239   0.144   2.089   2.966
 1114SOL     OW 4240   3.221   3.357   4.801
 1114SOL    HW1 4241   3.267   3.389   4.883
 1114SOL    HW2 4242   3.134   3.314   4.827
 1115SOL     OW 4243   2.258   4.993   5.795
 1115SOL    HW1 4244   2.345   4.969   5.753
 1115SOL    HW2 4245   2.184   4.945   5.748
 1116SOL     OW 4246   4.214   0.152   0.530
 1116SOL    HW1 4247   4.161   0.163   0.446
 1116SOL    HW2 4248   4.307   0.185   0.515
 1117SOL     OW 4249   2.056   2.506   1.710
 1117SOL    HW1 4250   1.985   2.441   1.683
 1117SOL    HW2 4251   2.087   2.485   1.803
 1118SOL     OW 4252   4.719   6.686   6.904
 1118SOL    HW1 4253   4.746   6.598   6.864
 1118SOL    HW2 4254   4.713   6.754   6.832
 1119SOL     OW 4255   2.624   5.541   3.807
 1119SOL    HW1 4256   2.710   5.540   3.757
 1119SOL    HW2 4257   2.590   5.447   3.817
 1120SOL     OW 4258   0.288   3.328   1.595
 1120SOL    HW1 4259   0.275   3.374   1.683
 1120SOL    HW2 4260   0.373   3.275   1.598
 1121SOL     OW 4261   5.517   4.567   5.779
 1121SOL    HW1 4262   5.471   4.491   5.734
 1121SOL    HW2 4263   5.551   4.631   5.710
 1122SOL     OW 4264   6.085   0.727   2.065
 1122SOL    HW1 4265   6.120   0.678   2.145
 1122SOL    HW2 4266   6.116   0.680   1.982
 1123SOL     OW 4267   3.850   1.546   4.840
 1123SOL    HW1 4268   3.765   1.545   4.892
 1123SOL    HW2 4269   3.923   1.583   4.897
 1124SOL     OW 4270   2.322   2.801   3.459
 1124SOL    HW1 4271   2.391   2.735   3.427
 1124SOL    HW2 4272   2.324   2.804   3.559
 1125SOL     OW 4273   1.365   3.335   4.227
 1125SOL    HW1 4274   1.372   3.283   4.313
 1125SOL    HW2 4275   1.407   3.282   4.154
 1126SOL     OW 4276   4.585   4.633   3.744
 1126SOL    HW1 4277   4.530   4.593   3.818
 1126SOL    HW2 4278   4.649   4.699   3.783
 1127SOL     OW 4279   6.232   6.641   0.946
 1127SOL    HW1 4280   6.180   6.574   0.893
 1127SOL    HW2 4281   6.263   6.714   0.885
 1128SOL     OW 4282   3.889   1.820   5.012
 1128SOL    HW1 4283   3.811   1.802   5.072
 1128SOL    HW2 4284   3.881   1.913   4.975
 1129SOL     OW 4285   1.086   0.848   0.201
 1129SOL    HW1 4286   1.145   0.768   0.190
 1129SOL    HW2 4287   1.142   0.929   0.217
 1130SOL     OW 4288   2.109   5.215   1.404
 1130SOL    HW1 4289   2.108   5.184   1.309
 1130SOL    HW2 4290   2.053   5.297   1.413
 1131SOL     OW 4291   1.470   5.444   3.875
 1131SOL    HW1 4292   1.472   5.469   3.778
 1131SOL    HW2 4293   1.375   5.443   3.907
 1132SOL     OW 4294   1.486   2.150   3.068
 1132SOL    HW1 4295   1.482   2.053   3.093
 1132SOL    HW2 4296   1.481   2.158   2.968
 1133SOL     OW 4297   1.330   6.437   6.674
 1133SOL    HW1 4298   1.332   6.463   6.771
 1133SOL    HW2 4299   1.377   6.507   6.620
 1134SOL     OW 4300   4.588   5.761   0.884
 1134SOL    HW1 4301   4.631   5.737   0.971
 1134SOL    HW2 4302   4.490   5.748   0.890
 1135SOL     OW 4303   1.884   0.425   3.134
 1135SOL    HW1 4304   1.904   0.355   3.204
 1135SOL    HW2 4305   1.969   0.450   3.088
 1136SOL     OW 4306   1.635   4.427   2.628
 1136SOL    HW1 4307   1.730   4.397   2.627
 1136SOL    HW2 4308   1.581   4.367   2.687
 1137SOL     OW 4309   1.328   5.578   4.501
 1137SOL    HW1 4310   1.242   5.538   4.533
 1137SOL    HW2 4311   1.318   5.677   4.496
 1138SOL     OW 4312   2.207   4.031   4.526
 1138SOL    HW1 4313   2.254   4.099   4.470
 1138SOL    HW2 4314   2.273   3.969   4.568
 1139SOL     OW 4315   3.219   5.809   4.940
 1139SOL    HW1 4316   3.139   5.752   4.961
 1139SOL    HW2 4317   3.188   5.898   4.905
 1140SOL     OW 4318   2.126   2.605   1.437
 1140SOL    HW1 4319   2.206   2.655   1.472
 1140SOL    HW2 4320   2.103   2.531   1.500
 1141SOL     OW 4321   6.444   4.893   5.588
 1141SOL    HW1 4322   6.399   4.981   5.573
 1141SOL    HW2 4323   6.387   4.835   5.646
 1142SOL     OW 4324   0.908   5.395   2.741
 1142SOL    HW1 4325   0.875   5.487   2.760
 1142SOL    HW2 4326   0.841   5.345   2.687
 1143SOL     OW 4327   6.758   4.493   1.628
 1143SOL    HW1 4328   6.829   4.462   1.564
 1143SOL    HW2 4329   6.687   4.542   1.578
 1144SOL     OW 4330   5.180   4.519   0.385
 1144SOL    HW1 4331   5.122   4.440   0.407
 1144SOL    HW2 4332   5.266   4.488   0.346
 1145SOL     OW 4333   6.444   6.777   0.516
 1145SOL    HW1 4334   6.344   6.767   0.515
 1145SOL    HW2 4335   6.485   6.690   0.543
 1146SOL     OW 4336   1.662   0.724   1.637
 1146SOL    HW1 4337   1.754   0.759   1.651
 1146SOL    HW2 4338   1.661   0.625   1.650
 1147SOL     OW 4339   1.934   6.369   1.192
 1147SOL    HW1 4340   1.891   6.317   1.117
 1147SOL    HW2 4341   1.951   6.462   1.161
 1148SOL     OW 4342   3.600   5.923   2.343
 1148SOL    HW1 4343   3.647   5.844   2.303
 1148SOL    HW2 4344   3.665   5.974   2.401
 1149SOL     OW 4345   5.774   2.262   1.429
 1149SOL    HW1 4346   5.798   2.313   1.347
 1149SOL    HW2 4347   5.849   2.268   1.495
 1150SOL     OW 4348   1.457   2.416   1.122
 1150SOL    HW1 4349   1.495   2.338   1.172
 1150SOL    HW2 4350   1.427   2.386   1.032
 1151SOL     OW 4351   5.605   5.099   4.227
 1151SOL    HW1 4352   5.622   5.059   4.137
 1151SOL    HW2 4353   5.568   5.028   4.287
 1152SOL     OW 4354   3.337   6.481   5.922
 1152SOL    HW1 4355   3.289   6.396   5.903
 1152SOL    HW2 4356   3.284   6.559   5.889
 1153SOL     OW 4357   5.378   6.862   1.388
 1153SOL    HW1 4358   5.374   6.875   1.487
 1153SOL    HW2 4359   5.471   6.875   1.356
 1154SOL     OW 4360   1.762   3.103   0.825
 1154SOL    HW1 4361   1.729   3.085   0.733
 1154SOL    HW2 4362   1.817   3.025   0.856
 1155SOL     OW 4363   3.563   6.277   4.018
 1155SOL    HW1 4364   3.483   6.235   4.062
 1155SOL    HW2 4365   3.549   6.375   4.009
 1156SOL     OW 4366   2.492   1.138   1.748
 1156SOL    HW1 4367   2.512   1.066   1.815
 1156SOL    HW2 4368   2.576   1.163   1.700
 1157SOL     OW 4369   2.483   2.106   0.532
 1157SOL    HW1 4370   2.539   2.090   0.613
 1157SOL    HW2 4371   2.388   2.083   0.552
 1158SOL     OW 4372   5.707   4.425   4.164
 1158SOL    HW1 4373   5.695   4.473   4.078
 1158SOL    HW2 4374   5.623   4.377   4.188
 1159SOL     OW 4375   5.602   4.816   0.722
 1159SOL    HW1 4376   5.536   4.870   0.670
 1159SOL    HW2 4377   5.654   4.757   0.660
 1160SOL     OW 4378   4.118   1.887   0.710
 1160SOL    HW1 4379   4.198   1.942   0.736
 1160SOL    HW2 4380   4.057   1.877   0.788
 1161SOL     OW 4381   0.070   5.140   0.877
 1161SOL    HW1 4382   0.135   5.066   0.893
 1161SOL    HW2 4383   0.070   5.202   0.955
 1162SOL     OW 4384   2.128   2.389   4.841
 1162SOL    HW1 4385   2.211   2.365   4.891
 1162SOL    HW2 4386   2.143   2.475   4.792
 1163SOL     OW 4387   5.103   1.987   1.874
 1163SOL    HW1 4388   5.079   2.010   1.780
 1163SOL    HW2 4389   5.137   1.893   1.877
 1164SOL     OW 4390   4.244   2.058   5.519
 1164SOL    HW1 4391   4.177   2.127   5.547
 1164SOL    HW2 4392   4.289   2.020   5.600
 1165SOL     OW 4393   4.449   0.002   3.514
 1165SOL    HW1 4394   4.371   6.963   3.493
 1165SOL    HW2 4395   4.440   0.036   3.607
 1166SOL     OW 4396   3.637   4.250   6.482
 1166SOL    HW1 4397   3.567   4.315   6.511
 1166SOL    HW2 4398   3.622   4.225   6.387
 1167SOL     OW 4399   5.454   4.076   3.550
 1167SOL    HW1 4400   5.543   4.086   3.595
 1167SOL    HW2 4401   5.460   4.114   3.458
 1168SOL     OW 4402   0.814   6.700   0.933
 1168SOL    HW1 4403   0.877   6.622   0.925
 1168SOL    HW2 4404   0.723   6.673   0.902
 1169SOL     OW 4405   4.994   2.083   5.443
 1169SOL    HW1 4406   4.967   2.096   5.538
 1169SOL    HW2 4407   5.078   2.135   5.426
 1170SOL     OW 4408   4.903   4.662   2.633
 1170SOL    HW1 4409   4.888   4.569   2.665
 1170SOL    HW2 4410   4.881   4.668   2.536
 1171SOL     OW 4411   0.705   6.355   0.784
 1171SOL    HW1 4412   0.749   6.433   0.738
 1171SOL    HW2 4413   0.636   6.388   0.847
 1172SOL     OW 4414   5.851   3.019   6.990
 1172SOL    HW1 4415   5.815   3.069   0.048
 1172SOL    HW2 4416   5.793   2.941   6.970
 1173SOL     OW 4417   4.381   2.343   1.171
 1173SOL    HW1 4418   4.459   2.399   1.142
 1173SOL    HW2 4419   4.323   2.396   1.233
 1174SOL     OW 4420   3.156   4.968   0.482
 1174SOL    HW1 4421   3.127   4.908   0.408
 1174SOL    HW2 4422   3.132   4.927   0.570
 1175SOL     OW 4423   3.235   4.067   4.012
 1175SOL    HW1 4424   3.211   4.064   4.109
 1175SOL    HW2 4425   3.153   4.057   3.957
 1176SOL     OW 4426   5.826   3.278   0.300
 1176SOL    HW1 4427   5.775   3.219   0.238
 1176SOL    HW2 4428   5.764   3.342   0.344
 1177SOL     OW 4429   0.953   1.927   5.077
 1177SOL    HW1 4430   0.873   1.983   5.097
 1177SOL    HW2 4431   0.926   1.849   5.021
 1178SOL     OW 4432   4.458   6.675   0.010
 1178SOL    HW1 4433   4.484   6.697   0.104
 1178SOL    HW2 4434   4.540   6.666   6.975
 1179SOL     OW 4435   0.105   5.832   0.697
 1179SOL    HW1 4436   0.129   5.889   0.618
 1179SOL    HW2 4437   0.177   5.765   0.713
 1180SOL     OW 4438   3.871   6.366   0.628
 1180SOL    HW1 4439   3.809   6.344   0.704
 1180SOL    HW2 4440   3.823   6.357   0.541
 1181SOL     OW 4441   6.382   6.007   6.471
 1181SOL    HW1 4442   6.447   5.943   6.432
 1181SOL    HW2 4443   6.429   6.090   6.500
 1182SOL     OW 4444   4.959   3.842   4.079
 1182SOL    HW1 4445   5.053   3.857   4.110
 1182SOL    HW2 4446   4.895   3.880   4.146
 1183SOL     OW 4447   1.901   4.692   6.941
 1183SOL    HW1 4448   1.844   4.639   6.879
 1183SOL    HW2 4449   1.964   4.631   6.989
 1184SOL     OW 4450   6.919   1.260   5.419
 1184SOL    HW1 4451   6.978   1.210   5.355
 1184SOL    HW2 4452   6.830   1.275   5.377
 1185SOL     OW 4453   6.467   1.711   6.786
 1185SOL    HW1 4454   6.467   1.775   6.863
 1185SOL    HW2 4455   6.382   1.658   6.787
 1186SOL     OW 4456   5.506   6.345   4.539
 1186SOL    HW1 4457   5.445   6.401   4.483
 1186SOL    HW2 4458   5.595   6.339   4.495
 1187SOL     OW 4459   6.359   2.208   6.034
 1187SOL    HW1 4460   6.431   2.160   6.083
 1187SOL    HW2 4461   6.355   2.175   5.940
 1188SOL     OW 4462   4.076   1.693   6.610
 1188SOL    HW1 4463   4.165   1.660   6.580
 1188SOL    HW2 4464   4.083   1.791   6.633
 1189SOL     OW 4465   5.899   3.498   3.574
 1189SOL    HW1 4466   5.898   3.407   3.533
 1189SOL    HW2 4467   5.809   3.540   3.564
 1190SOL     OW 4468   3.107   0.228   3.916
 1190SOL    HW1 4469   3.143   0.306   3.864
 1190SOL    HW2 4470   3.119   0.245   4.014
 1191SOL     OW 4471   3.174   6.839   2.858
 1191SOL    HW1 4472   3.199   6.793   2.943
 1191SOL    HW2 4473   3.100   6.789   2.813
 1192SOL     OW 4474   6.324   5.577   3.755
 1192SOL    HW1 4475   6.246   5.566   3.694
 1192SOL    HW2 4476   6.302   5.537   3.844
 1193SOL     OW 4477   6.353   6.225   4.451
 1193SOL    HW1 4478   6.420   6.217   4.378
 1193SOL    HW2 4479   6.399   6.216   4.540
 1194SOL     OW 4480   3.649   0.522   0.817
 1194SOL    HW1 4481   3.682   0.578   0.893
 1194SOL    HW2 4482   3.700   0.436   0.814
 1195SOL     OW 4483   4.672   2.689   2.980
 1195SOL    HW1 4484   4.623   2.775   2.966
 1195SOL    HW2 4485   4.625   2.634   3.049
 1196SOL     OW 4486   0.383   6.627   5.104
 1196SOL    HW1 4487   0.461   6.684   5.129
 1196SOL    HW2 4488   0.404   6.531   5.125
 1197SOL     OW 4489   2.023   6.351   0.106
 1197SOL    HW1 4490   2.016   6.391   0.015
 1197SOL    HW2 4491   1.932   6.323   0.137
 1198SOL     OW 4492   1.662   2.623   0.056
 1198SOL    HW1 4493   1.721   2.616   0.136
 1198SOL    HW2 4494   1.640   2.532   0.022
 1199SOL     OW 4495   5.790   3.940   2.594
 1199SOL    HW1 4496   5.755   4.019   2.542
 1199SOL    HW2 4497   5.740   3.858   2.567
 1200SOL     OW 4498   3.415   4.083   2.473
 1200SOL    HW1 4499   3.384   4.114   2.563
 1200SOL    HW2 4500   3.504   4.039   2.481
 1201SOL     OW 4501   1.657   2.466   4.910
 1201SOL    HW1 4502   1.661   2.409   4.828
 1201SOL    HW2 4503   1.748   2.500   4.932
 1202SOL     OW 4504   1.376   6.224   5.149
 1202SOL    HW1 4505   1.407   6.140   5.193
 1202SOL    HW2 4506   1.323   6.278   5.215
 1203SOL     OW 4507   4.033   5.924   5.109
 1203SOL    HW1 4508   4.027   5.993   5.182
 1203SOL    HW2 4509   4.016   5.834   5.148
 1204SOL     OW 4510   2.029   6.759   2.610
 1204SOL    HW1 4511   2.044   6.851   2.574
 1204SOL    HW2 4512   1.981   6.765   2.698
 1205SOL     OW 4513   5.566   3.637   2.472
 1205SOL    HW1 4514   5.601   3.605   2.383
 1205SOL    HW2 4515   5.579   3.565   2.540
 1206SOL     OW 4516   3.164   3.670   4.202
 1206SOL    HW1 4517   3.168   3.585   4.149
 1206SOL    HW2 4518   3.074   3.712   4.191
 1207SOL     OW 4519   1.099   5.619   2.913
 1207SOL    HW1 4520   1.096   5.649   3.008
 1207SOL    HW2 4521   1.086   5.520   2.909
 1208SOL     OW 4522   3.409   3.112   6.666
 1208SOL    HW1 4523   3.340   3.064   6.720
 1208SOL    HW2 4524   3.400   3.085   6.570
 1209SOL     OW 4525   3.931   6.366   5.238
 1209SOL    HW1 4526   4.012   6.424   5.251
 1209SOL    HW2 4527   3.869   6.409   5.173
 1210SOL     OW 4528   3.455   1.059   2.831
 1210SOL    HW1 4529   3.467   1.021   2.922
 1210SOL    HW2 4530   3.418   1.152   2.838
 1211SOL     OW 4531   0.791   2.743   0.491
 1211SOL    HW1 4532   0.731   2.823   0.492
 1211SOL    HW2 4533   0.739   2.662   0.520
 1212SOL     OW 4534   0.723   6.862   0.385
 1212SOL    HW1 4535   0.728   6.762   0.373
 1212SOL    HW2 4536   0.628   6.890   0.389
 1213SOL     OW 4537   5.789   2.852   1.374
 1213SOL    HW1 4538   5.823   2.894   1.458
 1213SOL    HW2 4539   5.842   2.887   1.296
 1214SOL     OW 4540   6.838   2.681   2.411
 1214SOL    HW1 4541   6.788   2.699   2.496
 1214SOL    HW2 4542   6.872   2.587   2.412
 1215SOL     OW 4543   2.227   5.820   2.852
 1215SOL    HW1 4544   2.139   5.818   2.900
 1215SOL    HW2 4545   2.291   5.879   2.902
 1216SOL     OW 4546   4.252   6.971   1.568
 1216SOL    HW1 4547   4.248   0.049   1.581
 1216SOL    HW2 4548   4.250   6.950   1.471
 1217SOL     OW 4549   2.658   4.210   6.659
 1217SOL    HW1 4550   2.634   4.236   6.752
 1217SOL    HW2 4551   2.588   4.244   6.596
 1218SOL     OW 4552   2.146   4.862   4.053
 1218SOL    HW1 4553   2.095   4.776   4.049
 1218SOL    HW2 4554   2.082   4.939   4.051
 1219SOL     OW 4555   3.726   5.378   2.248
 1219SOL    HW1 4556   3.811   5.406   2.203
 1219SOL    HW2 4557   3.699   5.287   2.214
 1220SOL     OW 4558   0.279   4.542   2.352
 1220SOL    HW1 4559   0.269   4.565   2.449
 1220SOL    HW2 4560   0.230   4.609   2.297
 1221SOL     OW 4561   4.655   4.406   6.770
 1221SOL    HW1 4562   4.586   4.385   6.700
 1221SOL    HW2 4563   4.610   4.412   6.859
 1222SOL     OW 4564   6.715   0.892   6.773
 1222SOL    HW1 4565   6.721   0.911   6.871
 1222SOL    HW2 4566   6.660   0.963   6.728
 1223SOL     OW 4567   3.930   6.356   1.208
 1223SOL    HW1 4568   3.935   6.434   1.146
 1223SOL    HW2 4569   3.847   6.303   1.190
 1224SOL     OW 4570   3.212   1.173   1.592
 1224SOL    HW1 4571   3.219   1.268   1.622
 1224SOL    HW2 4572   3.162   1.120   1.661
 1225SOL     OW 4573   3.072   3.673   5.974
 1225SOL    HW1 4574   3.060   3.772   5.976
 1225SOL    HW2 4575   3.127   3.644   6.052
 1226SOL     OW 4576   2.476   4.983   0.422
 1226SOL    HW1 4577   2.377   4.971   0.431
 1226SOL    HW2 4578   2.494   5.062   0.363
 1227SOL     OW 4579   1.490   4.410   5.754
 1227SOL    HW1 4580   1.588   4.401   5.737
 1227SOL    HW2 4581   1.460   4.338   5.816
 1228SOL     OW 4582   3.833   2.149   6.830
 1228SOL    HW1 4583   3.914   2.174   6.776
 1228SOL    HW2 4584   3.854   2.070   6.887
 1229SOL     OW 4585   3.590   3.893   6.750
 1229SOL    HW1 4586   3.553   3.847   6.669
 1229SOL    HW2 4587   3.518   3.899   6.820
 1230SOL     OW 4588   4.415   0.398   3.872
 1230SOL    HW1 4589   4.435   0.387   3.774
 1230SOL    HW2 4590   4.382   0.490   3.889
 1231SOL     OW 4591   0.979   3.398   3.807
 1231SOL    HW1 4592   1.042   3.375   3.881
 1231SOL    HW2 4593   1.007   3.351   3.723
 1232SOL     OW 4594   1.865   2.921   2.605
 1232SOL    HW1 4595   1.893   2.880   2.518
 1232SOL    HW2 4596   1.937   2.909   2.672
 1233SOL     OW 4597   0.811   2.146   4.366
 1233SOL    HW1 4598   0.728   2.199   4.346
 1233SOL    HW2 4599   0.787   2.070   4.427
 1234SOL     OW 4600   6.577   4.546   4.114
 1234SOL    HW1 4601   6.558   4.480   4.187
 1234SOL    HW2 4602   6.556   4.638   4.146
 1235SOL     OW 4603   6.491   5.144   3.304
 1235SOL    HW1 4604   6.412   5.113   3.251
 1235SOL    HW2 4605   6.545   5.066   3.333
 1236SOL     OW 4606   5.601   0.761   6.666
 1236SOL    HW1 4607   5.515   0.775   6.618
 1236SOL    HW2 4608   5.673   0.816   6.623
 1237SOL     OW 4609   2.005   4.582   6.211
 1237SOL    HW1 4610   1.912   4.583   6.175
 1237SOL    HW2 4611   2.010   4.643   6.290
 1238SOL     OW 4612   1.722   1.436   1.496
 1238SOL    HW1 4613   1.716   1.360   1.560
 1238SOL    HW2 4614   1.664   1.418   1.417
 1239SOL     OW 4615   0.922   0.218   5.852
 1239SOL    HW1 4616   0.898   0.214   5.755
 1239SOL    HW2 4617   0.981   0.297   5.869
 1240SOL     OW 4618   5.830   5.628   0.924
 1240SOL    HW1 4619   5.731   5.634   0.909
 1240SOL    HW2 4620   5.872   5.577   0.849
 1241SOL     OW 4621   0.237   2.255   4.355
 1241SOL    HW1 4622   0.260   2.214   4.267
 1241SOL    HW2 4623   0.192   2.343   4.340
 1242SOL     OW 4624   2.249   2.472   6.761
 1242SOL    HW1 4625   2.310   2.472   6.841
 1242SOL    HW2 4626   2.178   2.402   6.774
 1243SOL     OW 4627   3.143   5.083   5.083
 1243SOL    HW1 4628   3.091   4.998   5.079
 1243SOL    HW2 4629   3.239   5.064   5.061
 1244SOL     OW 4630   0.746   1.791   2.829
 1244SOL    HW1 4631   0.667   1.806   2.770
 1244SOL    HW2 4632   0.743   1.855   2.906
 1245SOL     OW 4633   3.071   2.760   5.327
 1245SOL    HW1 4634   2.981   2.718   5.339
 1245SOL    HW2 4635   3.060   2.855   5.300
 1246SOL     OW 4636   1.257   6.473   1.726
 1246SOL    HW1 4637   1.297   6.382   1.713
 1246SOL    HW2 4638   1.237   6.514   1.637
 1247SOL     OW 4639   0.648   6.321   6.459
 1247SOL    HW1 4640   0.727   6.382   6.453
 1247SOL    HW2 4641   0.654   6.267   6.543
 1248SOL     OW 4642   2.450   7.011   4.178
 1248SOL    HW1 4643   2.460   6.989   4.081
 1248SOL    HW2 4644   2.426   6.929   4.229
 1249SOL     OW 4645   5.897   2.954   3.158
 1249SOL    HW1 4646   5.837   3.028   3.189
 1249SOL    HW2 4647   5.923   2.970   3.063
 1250SOL     OW 4648   0.164   3.211   4.693
 1250SOL    HW1 4649   0.112   3.268   4.629
 1250SOL    HW2 4650   0.236   3.162   4.644
 1251SOL     OW 4651   3.374   0.601   6.284
 1251SOL    HW1 4652   3.423   0.563   6.362
 1251SOL    HW2 4653   3.382   0.701   6.286
 1252SOL     OW 4654   3.345   3.669   0.371
 1252SOL    HW1 4655   3.410   3.745   0.377
 1252SOL    HW2 4656   3.287   3.668   0.452
 1253SOL     OW 4657   4.826   1.275   3.041
 1253SOL    HW1 4658   4.784   1.312   3.125
 1253SOL    HW2 4659   4.790   1.323   2.962
 1254SOL     OW 4660   5.531   1.071   3.740
 1254SOL    HW1 4661   5.614   1.097   3.790
 1254SOL    HW2 4662   5.455   1.063   3.804
 1255SOL     OW 4663   5.870   0.518   1.917
 1255SOL    HW1 4664   5.844   0.423   1.902
 1255SOL    HW2 4665   5.803   0.579   1.874
 1256SOL     OW 4666   5.054   2.585   3.618
 1256SOL    HW1 4667   5.011   2.531   3.546
 1256SOL    HW2 4668   5.067   2.527   3.699
 1257SOL     OW 4669   5.682   1.061   4.216
 1257SOL    HW1 4670   5.736   1.002   4.156
 1257SOL    HW2 4671   5.638   1.006   4.287
 1258SOL     OW 4672   0.312   4.994   3.532
 1258SOL    HW1 4673   0.262   5.037   3.458
 1258SOL    HW2 4674   0.251   4.933   3.583
 1259SOL     OW 4675   5.510   2.275   4.409
 1259SOL    HW1 4676   5.541   2.246   4.500
 1259SOL    HW2 4677   5.462   2.363   4.417
 1260SOL     OW 4678   0.855   1.752   4.899
 1260SOL    HW1 4679   0.862   1.694   4.818
 1260SOL    HW2 4680   0.767   1.738   4.943
 1261SOL     OW 4681   6.657   3.693   1.188
 1261SOL    HW1 4682   6.602   3.772   1.213
 1261SOL    HW2 4683   6.598   3.612   1.183
 1262SOL     OW 4684   4.855   6.329   2.014
 1262SOL    HW1 4685   4.854   6.232   2.041
 1262SOL    HW2 4686   4.822   6.384   2.090
 1263SOL     OW 4687   0.914   2.114   3.136
 1263SOL    HW1 4688   0.868   2.027   3.155
 1263SOL    HW2 4689   0.866   2.188   3.182
 1264SOL     OW 4690   1.403   2.742   5.237
 1264SOL    HW1 4691   1.446   2.822   5.196
 1264SOL    HW2 4692   1.457   2.660   5.214
 1265SOL     OW 4693   6.142   6.981   5.769
 1265SOL    HW1 4694   6.193   0.045   5.782
 1265SOL    HW2 4695   6.059   6.983   5.826
 1266SOL     OW 4696   3.393   1.193   5.665
 1266SOL    HW1 4697   3.437   1.104   5.649
 1266SOL    HW2 4698   3.294   1.181   5.660
 1267SOL     OW 4699   3.224   0.683   2.173
 1267SOL    HW1 4700   3.236   0.623   2.252
 1267SOL    HW2 4701   3.207   0.777   2.204
 1268SOL     OW 4702   4.197   2.172   5.280
 1268SOL    HW1 4703   4.216   2.110   5.356
 1268SOL    HW2 4704   4.099   2.170   5.259
 1269SOL     OW 4705   5.589   1.822   3.737
 1269SOL    HW1 4706   5.600   1.835   3.835
 1269SOL    HW2 4707   5.675   1.844   3.691
 1270SOL     OW 4708   5.979   5.330   3.225
 1270SOL    HW1 4709   5.958   5.299   3.318
 1270SOL    HW2 4710   5.902   5.311   3.165
 1271SOL     OW 4711   1.491   0.740   2.172
 1271SOL    HW1 4712   1.537   0.825   2.197
 1271SOL    HW2 4713   1.510   0.718   2.076
 1272SOL     OW 4714   6.250   2.056   0.242
 1272SOL    HW1 4715   6.173   2.025   0.185
 1272SOL    HW2 4716   6.217   2.118   0.312
 1273SOL     OW 4717   1.907   4.283   5.324
 1273SOL    HW1 4718   1.851   4.220   5.377
 1273SOL    HW2 4719   2.003   4.276   5.353
 1274SOL     OW 4720   0.286   4.540   4.106
 1274SOL    HW1 4721   0.250   4.493   4.025
 1274SOL    HW2 4722   0.260   4.490   4.188
 1275SOL     OW 4723   1.905   1.435   2.993
 1275SOL    HW1 4724   2.001   1.463   3.002
 1275SOL    HW2 4725   1.863   1.484   2.916
 1276SOL     OW 4726   5.829   4.293   3.953
 1276SOL    HW1 4727   5.774   4.247   3.883
 1276SOL    HW2 4728   5.793   4.271   4.044
 1277SOL     OW 4729   1.379   6.303   6.446
 1277SOL    HW1 4730   1.366   6.352   6.532
 1277SOL    HW2 4731   1.392   6.205   6.464
 1278SOL     OW 4732   6.977   6.326   2.733
 1278SOL    HW1 4733   6.894   6.373   2.702
 1278SOL    HW2 4734   6.985   6.238   2.687
 1279SOL     OW 4735   2.926   3.350   0.627
 1279SOL    HW1 4736   2.996   3.419   0.642
 1279SOL    HW2 4737   2.939   3.274   0.691
 1280SOL     OW 4738   2.857   2.230   3.905
 1280SOL    HW1 4739   2.813   2.232   3.815
 1280SOL    HW2 4740   2.956   2.223   3.893
 1281SOL     OW 4741   5.266   6.318   5.635
 1281SOL    HW1 4742   5.271   6.376   5.553
 1281SOL    HW2 4743   5.342   6.254   5.634
 1282SOL     OW 4744   1.279   2.834   0.943
 1282SOL    HW1 4745   1.204   2.771   0.922
 1282SOL    HW2 4746   1.356   2.783   0.981
 1283SOL     OW 4747   0.785   1.110   4.136
 1283SOL    HW1 4748   0.742   1.021   4.123
 1283SOL    HW2 4749   0.843   1.131   4.057
 1284SOL     OW 4750   3.936   2.390   1.717
 1284SOL    HW1 4751   3.857   2.389   1.778
 1284SOL    HW2 4752   3.917   2.448   1.638
 1285SOL     OW 4753   4.034   1.170   4.583
 1285SOL    HW1 4754   3.996   1.101   4.645
 1285SOL    HW2 4755   4.031   1.259   4.628
 1286SOL     OW 4756   4.909   1.092   2.048
 1286SOL    HW1 4757   4.881   1.136   2.133
 1286SOL    HW2 4758   4.935   0.997   2.065
 1287SOL     OW 4759   5.433   4.843   6.264
 1287SOL    HW1 4760   5.440   4.938   6.295
 1287SOL    HW2 4761   5.373   4.838   6.184
 1288SOL     OW 4762   4.480   4.246   6.398
 1288SOL    HW1 4763   4.437   4.244   6.488
 1288SOL    HW2 4764   4.412   4.232   6.327
 1289SOL     OW 4765   1.163   6.956   0.389
 1289SOL    HW1 4766   1.228   6.934   0.316
 1289SOL    HW2 4767   1.213   6.974   0.474
 1290SOL     OW 4768   1.202   6.768   4.515
 1290SOL    HW1 4769   1.233   6.773   4.610
 1290SOL    HW2 4770   1.261   6.705   4.464
 1291SOL     OW 4771   5.594   5.354   3.048
 1291SOL    HW1 4772   5.573   5.300   3.130
 1291SOL    HW2 4773   5.575   5.450   3.066
 1292SOL     OW 4774   0.519   6.601   2.984
 1292SOL    HW1 4775   0.599   6.563   2.938
 1292SOL    HW2 4776   0.474   6.667   2.923
 1293SOL     OW 4777   4.970   0.203   0.886
 1293SOL    HW1 4778   4.894   0.266   0.877
 1293SOL    HW2 4779   5.050   0.241   0.840
 1294SOL     OW 4780   2.277   4.537   5.466
 1294SOL    HW1 4781   2.243   4.539   5.560
 1294SOL    HW2 4782   2.376   4.549   5.467
 1295SOL     OW 4783   0.241   4.554   0.206
 1295SOL    HW1 4784   0.308   4.587   0.273
 1295SOL    HW2 4785   0.286   4.541   0.118
 1296SOL     OW 4786   4.274   0.757   5.647
 1296SOL    HW1 4787   4.247   0.729   5.555
 1296SOL    HW2 4788   4.334   0.837   5.641
 1297SOL     OW 4789   6.240   6.659   6.848
 1297SOL    HW1 4790   6.264   6.754   6.831
 1297SOL    HW2 4791   6.287   6.626   6.930
 1298SOL     OW 4792   5.082   0.695   3.305
 1298SOL    HW1 4793   5.155   0.640   3.264
 1298SOL    HW2 4794   5.092   0.695   3.404
 1299SOL     OW 4795   1.087   4.678   4.544
 1299SOL    HW1 4796   1.174   4.699   4.588
 1299SOL    HW2 4797   1.105   4.631   4.457
 1300SOL     OW 4798   1.432   5.575   6.985
 1300SOL    HW1 4799   1.397   5.655   6.936
 1300SOL    HW2 4800   1.373   5.496   6.967
 1301SOL     OW 4801   6.253   1.164   0.123
 1301SOL    HW1 4802   6.250   1.249   0.071
 1301SOL    HW2 4803   6.187   1.099   0.086
 1302SOL     OW 4804   6.793   6.819   5.150
 1302SOL    HW1 4805   6.760   6.837   5.243
 1302SOL    HW2 4806   6.833   6.727   5.146
 1303SOL     OW 4807   3.035   6.553   1.310
 1303SOL    HW1 4808   3.039   6.651   1.330
 1303SOL    HW2 4809   3.126   6.520   1.287
 1304SOL     OW 4810   6.804   0.102   0.215
 1304SOL    HW1 4811   6.903   0.101   0.232
 1304SOL    HW2 4812   6.784   0.168   0.142
 1305SOL     OW 4813   4.221   3.907   5.892
 1305SOL    HW1 4814   4.257   4.001   5.888
 1305SOL    HW2 4815   4.143   3.904   5.954
 1306SOL     OW 4816   2.878   6.406   4.471
 1306SOL    HW1 4817   2.915   6.313   4.484
 1306SOL    HW2 4818   2.953   6.471   4.470
 1307SOL     OW 4819   2.126   3.330   4.047
 1307SOL    HW1 4820   2.152   3.396   4.117
 1307SOL    HW2 4821   2.073   3.256   4.088
 1308SOL     OW 4822   0.467   3.812   6.421
 1308SOL    HW1 4823   0.422   3.736   6.374
 1308SOL    HW2 4824   0.548   3.841   6.370
 1309SOL     OW 4825   6.130   3.844   6.685
 1309SOL    HW1 4826   6.149   3.936   6.717
 1309SOL    HW2 4827   6.051   3.845   6.625
 1310SOL     OW 4828   2.178   3.196   3.110
 1310SOL    HW1 4829   2.179   3.154   3.020
 1310SOL    HW2 4830   2.119   3.142   3.171
 1311SOL     OW 4831   6.235   4.996   0.258
 1311SOL    HW1 4832   6.326   4.955   0.270
 1311SOL    HW2 4833   6.244   5.084   0.213
 1312SOL     OW 4834   2.571   1.318   6.423
 1312SOL    HW1 4835   2.573   1.404   6.372
 1312SOL    HW2 4836   2.546   1.335   6.518
 1313SOL     OW 4837   5.829   5.145   2.395
 1313SOL    HW1 4838   5.744   5.188   2.364
 1313SOL    HW2 4839   5.879   5.109   2.317
 1314SOL     OW 4840   2.426   1.669   4.031
 1314SOL    HW1 4841   2.395   1.756   3.992
 1314SOL    HW2 4842   2.451   1.607   3.958
 1315SOL     OW 4843   6.078   0.875   3.147
 1315SOL    HW1 4844   6.118   0.828   3.068
 1315SOL    HW2 4845   5.987   0.909   3.122
 1316SOL     OW 4846   5.242   0.057   6.108
 1316SOL    HW1 4847   5.263   7.012   6.036
 1316SOL    HW2 4848   5.327   0.090   6.149
 1317SOL     OW 4849   4.054   3.173   4.326
 1317SOL    HW1 4850   4.073   3.271   4.333
 1317SOL    HW2 4851   4.111   3.133   4.255
 1318SOL     OW 4852   1.997   1.101   6.586
 1318SOL    HW1 4853   1.922   1.081   6.649
 1318SOL    HW2 4854   2.004   1.028   6.518
 1319SOL     OW 4855   6.442   1.393   0.371
 1319SOL    HW1 4856   6.481   1.336   0.444
 1319SOL    HW2 4857   6.344   1.405   0.388
 1320SOL     OW 4858   2.548   3.003   6.125
 1320SOL    HW1 4859   2.589   2.940   6.191
 1320SOL    HW2 4860   2.565   2.970   6.032
 1321SOL     OW 4861   0.171   2.861   1.319
 1321SOL    HW1 4862   0.152   2.843   1.415
 1321SOL    HW2 4863   0.268   2.883   1.307
 1322SOL     OW 4864   2.397   2.439   6.981
 1322SOL    HW1 4865   2.401   2.347   7.020
 1322SOL    HW2 4866   2.453   2.501   0.015
 1323SOL     OW 4867   4.060   0.611   1.448
 1323SOL    HW1 4868   3.984   0.647   1.395
 1323SOL    HW2 4869   4.145   0.619   1.395
 1324SOL     OW 4870   2.209   3.973   5.903
 1324SOL    HW1 4871   2.118   4.009   5.884
 1324SOL    HW2 4872   2.201   3.896   5.968
 1325SOL     OW 4873   4.156   6.000   4.565
 1325SOL    HW1 4874   4.109   5.916   4.593
 1325SOL    HW2 4875   4.241   6.010   4.616
 1326SOL     OW 4876   4.279   1.192   4.919
 1326SOL    HW1 4877   4.281   1.114   4.857
 1326SOL    HW2 4878   4.248   1.273   4.868
 1327SOL     OW 4879   4.996   5.837   1.976
 1327SOL    HW1 4880   5.015   5.765   2.042
 1327SOL    HW2 4881   4.897   5.851   1.971
 1328SOL     OW 4882   1.656   2.035   5.679
 1328SOL    HW1 4883   1.591   2.110   5.677
 1328SOL    HW2 4884   1.699   2.030   5.770
 1329SOL     OW 4885   0.928   2.987   3.976
 1329SOL    HW1 4886   0.845   3.037   4.000
 1329SOL    HW2 4887   0.935   2.981   3.876
 1330SOL     OW 4888   6.363   3.185   2.928
 1330SOL    HW1 4889   6.276   3.222   2.961
 1330SOL    HW2 4890   6.425   3.173   3.005
 1331SOL     OW 4891   4.057   2.017   2.863
 1331SOL    HW1 4892   4.027   2.044   2.771
 1331SOL    HW2 4893   4.109   2.092   2.904
 1332SOL     OW 4894   2.387   6.243   6.617
 1332SOL    HW1 4895   2.337   6.157   6.609
 1332SOL    HW2 4896   2.332   6.318   6.581
 1333SOL     OW 4897   3.934   3.475   2.606
 1333SOL    HW1 4898   4.016   3.425   2.631
 1333SOL    HW2 4899   3.877   3.489   2.687
 1334SOL     OW 4900   6.301   4.321   1.264
 1334SOL    HW1 4901   6.326   4.226   1.282
 1334SOL    HW2 4902   6.232   4.351   1.329
 1335SOL     OW 4903   0.365   3.575   2.944
 1335SOL    HW1 4904   0.266   3.584   2.941
 1335SOL    HW2 4905   0.394   3.571   3.040
 1336SOL     OW 4906   2.240   6.570   6.001
 1336SOL    HW1 4907   2.146   6.602   5.989
 1336SOL    HW2 4908   2.302   6.627   5.947
 1337SOL     OW 4909   0.772   6.941   2.228
 1337SOL    HW1 4910   0.676   6.915   2.216
 1337SOL    HW2 4911   0.778   0.002   2.286
 1338SOL     OW 4912   0.081   3.953   5.073
 1338SOL    HW1 4913   0.025   3.989   5.148
 1338SOL    HW2 4914   0.039   3.978   4.985
 1339SOL     OW 4915   5.462   1.096   0.075
 1339SOL    HW1 4916   5.468   0.996   0.074
 1339SOL    HW2 4917   5.552   1.134   0.096
 1340SOL     OW 4918   2.943   2.642   1.021
 1340SOL    HW1 4919   3.001   2.572   1.064
 1340SOL    HW2 4920   2.886   2.685   1.092
 1341SOL     OW 4921   5.678   5.900   6.498
 1341SOL    HW1 4922   5.605   5.832   6.505
 1341SOL    HW2 4923   5.646   5.978   6.446
 1342SOL     OW 4924   1.719   5.587   1.586
 1342SOL    HW1 4925   1.809   5.600   1.630
 1342SOL    HW2 4926   1.652   5.563   1.656
 1343SOL     OW 4927   4.846   5.961   2.818
 1343SOL    HW1 4928   4.868   6.007   2.732
 1343SOL    HW2 4929   4.798   6.024   2.878
 1344SOL     OW 4930   0.972   0.608   3.865
 1344SOL    HW1 4931   0.889   0.619   3.810
 1344SOL    HW2 4932   1.051   0.640   3.814
 1345SOL     OW 4933   1.762   6.731   5.539
 1345SOL    HW1 4934   1.735   6.658   5.601
 1345SOL    HW2 4935   1.699   6.808   5.549
 1346SOL     OW 4936   3.307   5.754   3.874
 1346SOL    HW1 4937   3.379   5.712   3.819
 1346SOL    HW2 4938   3.337   5.761   3.969
 1347SOL     OW 4939   1.395   0.653   6.503
 1347SOL    HW1 4940   1.308   0.651   6.553
 1347SOL    HW2 4941   1.416   0.560   6.471
 1348SOL     OW 4942   1.533   6.891   4.837
 1348SOL    HW1 4943   1.609   6.849   4.786
 1348SOL    HW2 4944   1.451   6.835   4.824
 1349SOL     OW 4945   5.606   3.946   4.135
 1349SOL    HW1 4946   5.541   3.920   4.064
 1349SOL    HW2 4947   5.684   3.883   4.133
 1350SOL     OW 4948   5.291   4.857   6.525
 1350SOL    HW1 4949   5.349   4.812   6.593
 1350SOL    HW2 4950   5.324   4.836   6.434
 1351SOL     OW 4951   7.013   2.646   6.587
 1351SOL    HW1 4952   6.948   2.720   6.604
 1351SOL    HW2 4953   6.980   2.562   6.630
 1352SOL     OW 4954   6.807   0.956   2.936
 1352SOL    HW1 4955   6.760   0.869   2.954
 1352SOL    HW2 4956   6.763   1.028   2.991
 1353SOL     OW 4957   6.440   2.438   6.219
 1353SOL    HW1 4958   6.532   2.463   6.191
 1353SOL    HW2 4959   6.403   2.370   6.155
 1354SOL     OW 4960   4.967   4.932   2.821
 1354SOL    HW1 4961   4.952   4.841   2.783
 1354SOL    HW2 4962   4.889   4.990   2.799
 1355SOL     OW 4963   4.076   3.648   5.009
 1355SOL    HW1 4964   4.060   3.553   4.982
 1355SOL    HW2 4965   4.058   3.658   5.107
 1356SOL     OW 4966   2.969   3.054   6.740
 1356SOL    HW1 4967   2.906   3.032   6.666
 1356SOL    HW2 4968   3.008   3.145   6.724
 1357SOL     OW 4969   0.969   3.095   5.446
 1357SOL    HW1 4970   0.955   3.169   5.512
 1357SOL    HW2 4971   0.984   3.134   5.356
 1358SOL     OW 4972   2.321   6.934   6.642
 1358SOL    HW1 4973   2.351   6.986   6.723
 1358SOL    HW2 4974   2.280   6.997   6.576
 1359SOL     OW 4975   6.343   4.671   6.949
 1359SOL    HW1 4976   6.373   4.677   6.854
 1359SOL    HW2 4977   6.277   4.744   6.968
 1360SOL     OW 4978   2.571   1.300   5.853
 1360SOL    HW1 4979   2.613   1.371   5.908
 1360SOL    HW2 4980   2.586   1.319   5.756
 1361SOL     OW 4981   6.279   5.208   5.033
 1361SOL    HW1 4982   6.220   5.182   4.957
 1361SOL    HW2 4983   6.338   5.131   5.057
 1362SOL     OW 4984   3.607   3.897   4.182
 1362SOL    HW1 4985   3.513   3.876   4.155
 1362SOL    HW2 4986   3.670   3.838   4.132
 1363SOL     OW 4987   0.226   6.663   3.627
 1363SOL    HW1 4988   0.145   6.696   3.675
 1363SOL    HW2 4989   0.200   6.632   3.535
 1364SOL     OW 4990   3.817   3.986   0.053
 1364SOL    HW1 4991   3.894   4.040   0.018
 1364SOL    HW2 4992   3.849   3.925   0.126
 1365SOL     OW 4993   5.331   2.466   5.969
 1365SOL    HW1 4994   5.380   2.522   5.902
 1365SOL    HW2 4995   5.397   2.422   6.030
 1366SOL     OW 4996   1.968   0.717   5.266
 1366SOL    HW1 4997   2.050   0.770   5.288
 1366SOL    HW2 4998   1.887   0.766   5.297
 1367SOL     OW 4999   2.383   1.759   2.395
 1367SOL    HW1 5000   2.432   1.829   2.343
 1367SOL    HW2 5001   2.447   1.713   2.456
 1368SOL     OW 5002   6.755   0.458   3.517
 1368SOL    HW1 5003   6.705   0.530   3.566
 1368SOL    HW2 5004   6.851   0.461   3.543
 1369SOL     OW 5005   6.864   0.432   2.526
 1369SOL    HW1 5006   6.783   0.452   2.472
 1369SOL    HW2 5007   6.839   0.373   2.603
 1370SOL     OW 5008   1.607   0.957   2.782
 1370SOL    HW1 5009   1.682   1.000   2.732
 1370SOL    HW2 5010   1.520   0.983   2.741
 1371SOL     OW 5011   3.230   0.347   6.009
 1371SOL    HW1 5012   3.194   0.310   6.094
 1371SOL    HW2 5013   3.186   0.302   5.931
 1372SOL     OW 5014   2.977   1.853   1.655
 1372SOL    HW1 5015   3.064   1.817   1.621
 1372SOL    HW2 5016   2.909   1.852   1.582
 1373SOL     OW 5017   1.519   5.512   6.383
 1373SOL    HW1 5018   1.596   5.451   6.363
 1373SOL    HW2 5019   1.548   5.585   6.445
 1374SOL     OW 5020   5.154   3.731   5.355
 1374SOL    HW1 5021   5.235   3.770   5.310
 1374SOL    HW2 5022   5.100   3.680   5.288
 1375SOL     OW 5023   1.401   4.033   4.426
 1375SOL    HW1 5024   1.478   4.088   4.459
 1375SOL    HW2 5025   1.324   4.092   4.405
 1376SOL     OW 5026   4.861   0.300   1.980
 1376SOL    HW1 5027   4.876   0.201   1.972
 1376SOL    HW2 5028   4.832   0.321   2.074
 1377SOL     OW 5029   0.164   4.208   4.911
 1377SOL    HW1 5030   0.193   4.114   4.892
 1377SOL    HW2 5031   0.161   4.222   5.010
 1378SOL     OW 5032   1.994   1.566   0.398
 1378SOL    HW1 5033   1.898   1.585   0.378
 1378SOL    HW2 5034   2.012   1.468   0.387
 1379SOL     OW 5035   4.274   5.412   1.935
 1379SOL    HW1 5036   4.219   5.490   1.965
 1379SOL    HW2 5037   4.355   5.445   1.886
 1380SOL     OW 5038   6.111   5.095   2.732
 1380SOL    HW1 5039   6.057   5.123   2.811
 1380SOL    HW2 5040   6.153   5.006   2.751
 1381SOL     OW 5041   4.127   6.883   2.690
 1381SOL    HW1 5042   4.163   6.869   2.598
 1381SOL    HW2 5043   4.179   6.955   2.737
 1382SOL     OW 5044   0.259   4.236   0.631
 1382SOL    HW1 5045   0.188   4.296   0.594
 1382SOL    HW2 5046   0.258   4.149   0.582
 1383SOL     OW 5047   2.694   0.229   0.611
 1383SOL    HW1 5048   2.765   0.210   0.678
 1383SOL    HW2 5049   2.630   0.296   0.649
 1384SOL     OW 5050   1.213   1.272   1.690
 1384SOL    HW1 5051   1.250   1.180   1.705
 1384SOL    HW2 5052   1.135   1.287   1.750
 1385SOL     OW 5053   4.947   3.368   3.827
 1385SOL    HW1 5054   4.960   3.464   3.850
 1385SOL    HW2 5055   4.867   3.332   3.875
 1386SOL     OW 5056   2.888   2.235   3.471
 1386SOL    HW1 5057   2.857   2.241   3.376
 1386SOL    HW2 5058   2.981   2.199   3.473
 1387SOL     OW 5059   3.375   0.664   3.758
 1387SOL    HW1 5060   3.326   0.746   3.727
 1387SOL    HW2 5061   3.313   0.607   3.812
 1388SOL     OW 5062   5.002   2.172   3.748
 1388SOL    HW1 5063   4.939   2.182   3.825
 1388SOL    HW2 5064   5.051   2.085   3.755
 1389SOL     OW 5065   6.459   0.470   3.904
 1389SOL    HW1 5066   6.395   0.521   3.963
 1389SOL    HW2 5067   6.415   0.451   3.816
 1390SOL     OW 5068   5.404   1.805   2.389
 1390SOL    HW1 5069   5.439   1.883   2.338
 1390SOL    HW2 5070   5.480   1.748   2.420
 1391SOL     OW 5071   5.511   0.813   5.349
 1391SOL    HW1 5072   5.444   0.886   5.360
 1391SOL    HW2 5073   5.525   0.768   5.437
 1392SOL     OW 5074   3.996   0.089   5.194
 1392SOL    HW1 5075   3.954   0.153   5.130
 1392SOL    HW2 5076   4.020   0.136   5.278
 1393SOL     OW 5077   5.109   0.219   6.984
 1393SOL    HW1 5078   5.022   0.238   6.939
 1393SOL    HW2 5079   5.181   0.275   6.942
 1394SOL     OW 5080   4.102   0.996   4.352
 1394SOL    HW1 5081   4.183   0.937   4.351
 1394SOL    HW2 5082   4.108   1.060   4.428
 1395SOL     OW 5083   0.841   4.885   2.286
 1395SOL    HW1 5084   0.903   4.907   2.211
 1395SOL    HW2 5085   0.819   4.787   2.284
 1396SOL     OW 5086   1.316   1.733   3.395
 1396SOL    HW1 5087   1.317   1.701   3.300
 1396SOL    HW2 5088   1.259   1.672   3.449
 1397SOL     OW 5089   2.424   4.337   5.746
 1397SOL    HW1 5090   2.496   4.406   5.742
 1397SOL    HW2 5091   2.450   4.259   5.689
 1398SOL     OW 5092   3.282   6.988   6.323
 1398SOL    HW1 5093   3.367   6.937   6.311
 1398SOL    HW2 5094   3.303   0.065   6.332
 1399SOL     OW 5095   3.550   0.090   0.135
 1399SOL    HW1 5096   3.539   0.015   0.200
 1399SOL    HW2 5097   3.602   0.058   0.056
 1400SOL     OW 5098   0.202   1.851   5.392
 1400SOL    HW1 5099   0.223   1.782   5.323
 1400SOL    HW2 5100   0.105   1.846   5.416
 1401SOL     OW 5101   4.604   7.005   2.220
 1401SOL    HW1 5102   4.590   0.049   2.145
 1401SOL    HW2 5103   4.523   7.003   2.278
 1402SOL     OW 5104   4.824   3.934   2.189
 1402SOL    HW1 5105   4.854   3.869   2.119
 1402SOL    HW2 5106   4.783   4.014   2.144
 1403SOL     OW 5107   3.201   3.106   0.001
 1403SOL    HW1 5108   3.289   3.135   0.040
 1403SOL    HW2 5109   3.217   3.027   6.962
 1404SOL     OW 5110   3.631   6.454   0.130
 1404SOL    HW1 5111   3.584   6.533   0.090
 1404SOL    HW2 5112   3.585   6.370   0.100
 1405SOL     OW 5113   1.052   4.314   6.731
 1405SOL    HW1 5114   1.042   4.228   6.781
 1405SOL    HW2 5115   0.998   4.311   6.647
 1406SOL     OW 5116   2.016   2.413   0.106
 1406SOL    HW1 5117   2.084   2.483   0.082
 1406SOL    HW2 5118   1.930   2.458   0.131
 1407SOL     OW 5119   6.840   2.656   1.573
 1407SOL    HW1 5120   6.782   2.726   1.614
 1407SOL    HW2 5121   6.929   2.696   1.549
 1408SOL     OW 5122   5.489   6.277   1.167
 1408SOL    HW1 5123   5.488   6.263   1.068
 1408SOL    HW2 5124   5.572   6.236   1.205
 1409SOL     OW 5125   5.683   2.006   5.994
 1409SOL    HW1 5126   5.622   2.042   5.923
 1409SOL    HW2 5127   5.762   2.066   6.005
 1410SOL     OW 5128   3.052   0.496   0.661
 1410SOL    HW1 5129   3.018   0.544   0.742
 1410SOL    HW2 5130   3.145   0.527   0.641
 1411SOL     OW 5131   3.236   6.653   0.273
 1411SOL    HW1 5132   3.176   6.600   0.333
 1411SOL    HW2 5133   3.298   6.710   0.328
 1412SOL     OW 5134   2.294   1.656   6.499
 1412SOL    HW1 5135   2.236   1.577   6.480
 1412SOL    HW2 5136   2.241   1.740   6.488
 1413SOL     OW 5137   2.512   1.587   4.911
 1413SOL    HW1 5138   2.442   1.517   4.927
 1413SOL    HW2 5139   2.477   1.655   4.848
 1414SOL     OW 5140   0.261   5.060   2.043
 1414SOL    HW1 5141   0.308   5.147   2.059
 1414SOL    HW2 5142   0.329   4.990   2.022
 1415SOL     OW 5143   3.563   1.948   5.406
 1415SOL    HW1 5144   3.519   1.995   5.329
 1415SOL    HW2 5145   3.506   1.871   5.435
 1416SOL     OW 5146   4.847   0.483   5.227
 1416SOL    HW1 5147   4.845   0.433   5.140
 1416SOL    HW2 5148   4.803   0.572   5.214
 1417SOL     OW 5149   3.799   3.764   4.505
 1417SOL    HW1 5150   3.796   3.773   4.604
 1417SOL    HW2 5151   3.743   3.835   4.463
 1418SOL     OW 5152   3.144   3.742   5.114
 1418SOL    HW1 5153   3.075   3.740   5.041
 1418SOL    HW2 5154   3.235   3.746   5.073
 1419SOL     OW 5155   0.458   5.130   1.735
 1419SOL    HW1 5156   0.375   5.112   1.682
 1419SOL    HW2 5157   0.495   5.220   1.710
 1420SOL     OW 5158   2.625   6.619   3.303
 1420SOL    HW1 5159   2.614   6.707   3.349
 1420SOL    HW2 5160   2.635   6.547   3.371
 1421SOL     OW 5161   1.998   5.188   0.414
 1421SOL    HW1 5162   2.044   5.260   0.363
 1421SOL    HW2 5163   1.981   5.219   0.508
 1422SOL     OW 5164   1.715   4.189   6.891
 1422SOL    HW1 5165   1.652   4.261   6.920
 1422SOL    HW2 5166   1.678   4.144   6.809
 1423SOL     OW 5167   4.613   1.045   4.626
 1423SOL    HW1 5168   4.711   1.050   4.605
 1423SOL    HW2 5169   4.564   1.009   4.546
 1424SOL     OW 5170   6.571   3.455   1.366
 1424SOL    HW1 5171   6.641   3.391   1.336
 1424SOL    HW2 5172   6.575   3.466   1.465
 1425SOL     OW 5173   5.870   6.233   3.303
 1425SOL    HW1 5174   5.808   6.207   3.229
 1425SOL    HW2 5175   5.841   6.188   3.388
 1426SOL     OW 5176   3.911   1.350   1.064
 1426SOL    HW1 5177   3.843   1.349   0.991
 1426SOL    HW2 5178   3.866   1.344   1.152
 1427SOL     OW 5179   1.181   1.093   4.176
 1427SOL    HW1 5180   1.206   1.159   4.106
 1427SOL    HW2 5181   1.115   1.028   4.139
 1428SOL     OW 5182   1.857   3.925   3.955
 1428SOL    HW1 5183   1.940   3.890   3.911
 1428SOL    HW2 5184   1.881   3.980   4.034
 1429SOL     OW 5185   6.075   0.673   1.474
 1429SOL    HW1 5186   6.000   0.616   1.440
 1429SOL    HW2 5187   6.110   0.730   1.399
 1430SOL     OW 5188   2.188   3.878   4.280
 1430SOL    HW1 5189   2.121   3.803   4.277
 1430SOL    HW2 5190   2.246   3.874   4.199
 1431SOL     OW 5191   3.557   2.106   0.715
 1431SOL    HW1 5192   3.509   2.186   0.679
 1431SOL    HW2 5193   3.497   2.059   0.780
 1432SOL     OW 5194   3.119   0.340   2.736
 1432SOL    HW1 5195   3.105   0.438   2.724
 1432SOL    HW2 5196   3.142   0.320   2.831
 1433SOL     OW 5197   3.333   1.850   4.251
 1433SOL    HW1 5198   3.403   1.906   4.206
 1433SOL    HW2 5199   3.242   1.883   4.224
 1434SOL     OW 5200   5.994   3.296   0.943
 1434SOL    HW1 5201   5.958   3.341   0.861
 1434SOL    HW2 5202   6.061   3.356   0.987
 1435SOL     OW 5203   0.199   6.379   4.269
 1435SOL    HW1 5204   0.280   6.342   4.223
 1435SOL    HW2 5205   0.146   6.305   4.309
 1436SOL     OW 5206   5.792   0.897   6.909
 1436SOL    HW1 5207   5.769   0.947   6.992
 1436SOL    HW2 5208   5.712   0.893   6.849
 1437SOL     OW 5209   4.243   0.871   0.440
 1437SOL    HW1 5210   4.247   0.784   0.489
 1437SOL    HW2 5211   4.166   0.871   0.376
 1438SOL     OW 5212   2.642   6.913   3.304
 1438SOL    HW1 5213   2.621   7.011   3.313
 1438SOL    HW2 5214   2.688   6.897   3.217
 1439SOL     OW 5215   6.703   5.193   5.030
 1439SOL    HW1 5216   6.642   5.269   5.055
 1439SOL    HW2 5217   6.776   5.186   5.098
 1440SOL     OW 5218   3.587   3.116   2.610
 1440SOL    HW1 5219   3.588   3.186   2.538
 1440SOL    HW2 5220   3.617   3.157   2.696
 1441SOL     OW 5221   0.475   2.120   6.281
 1441SOL    HW1 5222   0.489   2.045   6.345
 1441SOL    HW2 5223   0.486   2.207   6.329
 1442SOL     OW 5224   5.396   5.985   6.990
 1442SOL    HW1 5225   5.379   6.082   6.977
 1442SOL    HW2 5226   5.325   5.945   0.027
 1443SOL     OW 5227   1.681   3.112   4.041
 1443SOL    HW1 5228   1.694   3.211   4.053
 1443SOL    HW2 5229   1.596   3.095   3.992
 1444SOL     OW 5230   4.915   6.684   4.598
 1444SOL    HW1 5231   5.011   6.709   4.611
 1444SOL    HW2 5232   4.908   6.608   4.533
 1445SOL     OW 5233   6.772   2.420   6.996
 1445SOL    HW1 5234   6.675   2.430   6.973
 1445SOL    HW2 5235   6.795   2.323   7.007
 1446SOL     OW 5236   2.949   5.854   1.977
 1446SOL    HW1 5237   2.911   5.833   2.067
 1446SOL    HW2 5238   2.878   5.895   1.919
 1447SOL     OW 5239   6.672   0.939   4.731
 1447SOL    HW1 5240   6.669   0.978   4.823
 1447SOL    HW2 5241   6.631   0.848   4.732
 1448SOL     OW 5242   5.526   1.146   0.609
 1448SOL    HW1 5243   5.505   1.243   0.593
 1448SOL    HW2 5244   5.530   1.128   0.707
 1449SOL     OW 5245   4.721   5.570   0.379
 1449SOL    HW1 5246   4.688   5.478   0.402
 1449SOL    HW2 5247   4.817   5.564   0.352
 1450SOL     OW 5248   5.396   1.364   3.488
 1450SOL    HW1 5249   5.378   1.439   3.424
 1450SOL    HW2 5250   5.428   1.402   3.575
 1451SOL     OW 5251   0.552   6.950   2.517
 1451SOL    HW1 5252   0.625   6.983   2.577
 1451SOL    HW2 5253   0.528   6.856   2.542
 1452SOL     OW 5254   1.983   0.183   6.116
 1452SOL    HW1 5255   1.999   0.088   6.145
 1452SOL    HW2 5256   1.955   0.238   6.195
 1453SOL     OW 5257   6.195   4.038   4.371
 1453SOL    HW1 5258   6.177   3.993   4.284
 1453SOL    HW2 5259   6.288   4.076   4.371
 1454SOL     OW 5260   5.758   3.875   1.486
 1454SOL    HW1 5261   5.849   3.862   1.524
 1454SOL    HW2 5262   5.754   3.963   1.439
 1455SOL     OW 5263   2.030   1.878   1.723
 1455SOL    HW1 5264   1.948   1.880   1.780
 1455SOL    HW2 5265   2.003   1.883   1.626
 1456SOL     OW 5266   5.427   5.150   5.023
 1456SOL    HW1 5267   5.478   5.235   5.033
 1456SOL    HW2 5268   5.367   5.137   5.102
 1457SOL     OW 5269   1.860   1.214   4.942
 1457SOL    HW1 5270   1.920   1.293   4.957
 1457SOL    HW2 5271   1.794   1.236   4.871
 1458SOL     OW 5272   6.783   5.451   0.389
 1458SOL    HW1 5273   6.698   5.430   0.437
 1458SOL    HW2 5274   6.813   5.370   0.338
 1459SOL     OW 5275   2.852   0.209   1.724
 1459SOL    HW1 5276   2.829   0.177   1.816
 1459SOL    HW2 5277   2.928   0.154   1.688
 1460SOL     OW 5278   0.282   1.636   6.466
 1460SOL    HW1 5279   0.307   1.539   6.466
 1460SOL    HW2 5280   0.365   1.692   6.469
 1461SOL     OW 5281   4.659   4.343   2.622
 1461SOL    HW1 5282   4.712   4.279   2.677
 1461SOL    HW2 5283   4.591   4.389   2.680
 1462SOL     OW 5284   5.844   0.102   5.229
 1462SOL    HW1 5285   5.808   0.030   5.171
 1462SOL    HW2 5286   5.806   0.190   5.200
 1463SOL     OW 5287   0.989   2.103   5.590
 1463SOL    HW1 5288   0.960   2.190   5.630
 1463SOL    HW2 5289   0.923   2.076   5.520
 1464SOL     OW 5290   0.661   1.049   1.086
 1464SOL    HW1 5291   0.640   1.146   1.103
 1464SOL    HW2 5292   0.754   1.030   1.115
 1465SOL     OW 5293   1.859   1.160   3.897
 1465SOL    HW1 5294   1.799   1.088   3.932
 1465SOL    HW2 5295   1.822   1.195   3.811
 1466SOL     OW 5296   6.055   5.903   4.128
 1466SOL    HW1 5297   6.142   5.856   4.111
 1466SOL    HW2 5298   5.995   5.844   4.181
 1467SOL     OW 5299   0.132   4.324   4.667
 1467SOL    HW1 5300   0.196   4.396   4.641
 1467SOL    HW2 5301   0.145   4.300   4.763
 1468SOL     OW 5302   4.475   0.378   2.560
 1468SOL    HW1 5303   4.391   0.330   2.584
 1468SOL    HW2 5304   4.475   0.469   2.603
 1469SOL     OW 5305   6.645   0.406   2.362
 1469SOL    HW1 5306   6.550   0.418   2.392
 1469SOL    HW2 5307   6.659   0.312   2.329
 1470SOL     OW 5308   0.312   0.523   2.888
 1470SOL    HW1 5309   0.258   0.602   2.860
 1470SOL    HW2 5310   0.356   0.482   2.808
 1471SOL     OW 5311   6.261   1.568   1.204
 1471SOL    HW1 5312   6.218   1.514   1.276
 1471SOL    HW2 5313   6.286   1.508   1.128
 1472SOL     OW 5314   4.327   5.080   4.959
 1472SOL    HW1 5315   4.392   5.089   5.035
 1472SOL    HW2 5316   4.287   4.988   4.960
 1473SOL     OW 5317   0.113   3.081   4.058
 1473SOL    HW1 5318   0.204   3.098   4.021
 1473SOL    HW2 5319   0.054   3.045   3.986
 1474SOL     OW 5320   4.537   6.424   2.432
 1474SOL    HW1 5321   4.504   6.452   2.522
 1474SOL    HW2 5322   4.500   6.335   2.409
 1475SOL     OW 5323   6.068   6.571   2.761
 1475SOL    HW1 5324   6.149   6.518   2.785
 1475SOL    HW2 5325   6.033   6.541   2.672
 1476SOL     OW 5326   1.084   2.327   0.798
 1476SOL    HW1 5327   1.113   2.311   0.703
 1476SOL    HW2 5328   1.137   2.268   0.859
 1477SOL     OW 5329   2.456   6.422   4.699
 1477SOL    HW1 5330   2.356   6.429   4.702
 1477SOL    HW2 5331   2.490   6.393   4.788
 1478SOL     OW 5332   0.537   4.020   1.142
 1478SOL    HW1 5333   0.546   4.052   1.236
 1478SOL    HW2 5334   0.441   4.018   1.116
 1479SOL     OW 5335   1.661   5.157   6.868
 1479SOL    HW1 5336   1.735   5.099   6.834
 1479SOL    HW2 5337   1.681   5.184   6.962
 1480SOL     OW 5338   3.251   0.479   0.200
 1480SOL    HW1 5339   3.211   0.569   0.215
 1480SOL    HW2 5340   3.330   0.487   0.140
 1481SOL     OW 5341   0.271   3.491   0.736
 1481SOL    HW1 5342   0.363   3.458   0.717
 1481SOL    HW2 5343   0.254   3.488   0.835
 1482SOL     OW 5344   5.619   0.665   6.060
 1482SOL    HW1 5345   5.642   0.695   5.967
 1482SOL    HW2 5346   5.589   0.570   6.057
 1483SOL     OW 5347   0.289   2.931   0.753
 1483SOL    HW1 5348   0.204   2.899   0.710
 1483SOL    HW2 5349   0.268   3.003   0.818
 1484SOL     OW 5350   6.259   6.902   3.261
 1484SOL    HW1 5351   6.351   6.880   3.292
 1484SOL    HW2 5352   6.192   6.854   3.318
 1485SOL     OW 5353   5.558   3.612   4.076
 1485SOL    HW1 5354   5.630   3.544   4.084
 1485SOL    HW2 5355   5.555   3.667   4.160
 1486SOL     OW 5356   5.099   2.928   1.683
 1486SOL    HW1 5357   5.012   2.884   1.701
 1486SOL    HW2 5358   5.170   2.859   1.669
 1487SOL     OW 5359   0.664   7.001   5.466
 1487SOL    HW1 5360   0.636   6.909   5.439
 1487SOL    HW2 5361   0.622   0.003   5.554
 1488SOL     OW 5362   4.919   1.939   4.141
 1488SOL    HW1 5363   4.929   1.893   4.052
 1488SOL    HW2 5364   4.905   1.870   4.212
 1489SOL     OW 5365   3.154   4.899   4.772
 1489SOL    HW1 5366   3.119   4.859   4.688
 1489SOL    HW2 5367   3.228   4.842   4.809
 1490SOL     OW 5368   2.777   3.355   0.375
 1490SOL    HW1 5369   2.857   3.361   0.435
 1490SOL    HW2 5370   2.731   3.267   0.390
 1491SOL     OW 5371   1.054   2.090   3.943
 1491SOL    HW1 5372   1.073   2.096   4.041
 1491SOL    HW2 5373   0.961   2.057   3.929
 1492SOL     OW 5374   0.397   2.170   1.588
 1492SOL    HW1 5375   0.428   2.216   1.505
 1492SOL    HW2 5376   0.297   2.165   1.587
 1493SOL     OW 5377   6.461   2.914   5.175
 1493SOL    HW1 5378   6.522   2.979   5.129
 1493SOL    HW2 5379   6.511   2.830   5.196
 1494SOL     OW 5380   5.277   1.868   4.045
 1494SOL    HW1 5381   5.364   1.884   4.092
 1494SOL    HW2 5382   5.268   1.771   4.024
 1495SOL     OW 5383   1.690   3.968   1.523
 1495SOL    HW1 5384   1.642   3.925   1.446
 1495SOL    HW2 5385   1.787   3.974   1.502
 1496SOL     OW 5386   0.509   0.635   2.551
 1496SOL    HW1 5387   0.495   0.549   2.600
 1496SOL    HW2 5388   0.605   0.663   2.559
 1497SOL     OW 5389   5.805   4.858   6.019
 1497SOL    HW1 5390   5.767   4.772   5.983
 1497SOL    HW2 5391   5.790   4.862   6.117
 1498SOL     OW 5392   3.036   5.471   6.941
 1498SOL    HW1 5393   3.069   5.492   0.012
 1498SOL    HW2 5394   2.980   5.389   6.943
 1499SOL     OW 5395   1.574   4.450   4.059
 1499SOL    HW1 5396   1.502   4.423   3.995
 1499SOL    HW2 5397   1.566   4.548   4.079
 1500SOL     OW 5398   4.161   6.037   5.909
 1500SOL    HW1 5399   4.191   6.083   5.993
 1500SOL    HW2 5400   4.241   6.003   5.860
 1501SOL     OW 5401   3.469   0.750   1.260
 1501SOL    HW1 5402   3.546   0.699   1.221
 1501SOL    HW2 5403   3.418   0.795   1.187
 1502SOL     OW 5404   0.354   0.873   6.593
 1502SOL    HW1 5405   0.313   0.964   6.594
 1502SOL    HW2 5406   0.314   0.819   6.518
 1503SOL     OW 5407   3.627   3.976   4.997
 1503SOL    HW1 5408   3.593   3.961   5.090
 1503SOL    HW2 5409   3.718   3.935   4.988
 1504SOL     OW 5410   2.934   6.829   3.509
 1504SOL    HW1 5411   2.974   6.739   3.494
 1504SOL    HW2 5412   2.905   6.868   3.421
 1505SOL     OW 5413   5.169   6.822   3.182
 1505SOL    HW1 5414   5.131   6.905   3.142
 1505SOL    HW2 5415   5.256   6.844   3.227
 1506SOL     OW 5416   0.051   6.089   4.028
 1506SOL    HW1 5417   0.030   5.995   4.000
 1506SOL    HW2 5418   0.084   6.089   4.122
 1507SOL     OW 5419   2.107   1.699   0.004
 1507SOL    HW1 5420   2.031   1.761   7.006
 1507SOL    HW2 5421   2.132   1.706   0.101
 1508SOL     OW 5422   4.569   6.494   0.749
 1508SOL    HW1 5423   4.527   6.405   0.734
 1508SOL    HW2 5424   4.560   6.519   0.846
 1509SOL     OW 5425   5.309   1.676   6.826
 1509SOL    HW1 5426   5.302   1.776   6.830
 1509SOL    HW2 5427   5.252   1.636   6.898
 1510SOL     OW 5428   6.414   1.743   2.009
 1510SOL    HW1 5429   6.479   1.802   2.056
 1510SOL    HW2 5430   6.413   1.653   2.052
 1511SOL     OW 5431   0.402   3.067   0.544
 1511SOL    HW1 5432   0.385   3.020   0.630
 1511SOL    HW2 5433   0.395   3.002   0.468
 1512SOL     OW 5434   6.948   0.690   2.526
 1512SOL    HW1 5435   6.937   0.718   2.621
 1512SOL    HW2 5436   6.934   0.591   2.519
 1513SOL     OW 5437   2.106   0.902   2.711
 1513SOL    HW1 5438   2.172   0.966   2.673
 1513SOL    HW2 5439   2.156   0.825   2.753
 1514SOL     OW 5440   4.501   0.504   6.080
 1514SOL    HW1 5441   4.444   0.501   5.998
 1514SOL    HW2 5442   4.461   0.567   6.146
 1515SOL     OW 5443   5.718   5.249   5.749
 1515SOL    HW1 5444   5.723   5.349   5.744
 1515SOL    HW2 5445   5.796   5.209   5.700
 1516SOL     OW 5446   6.054   1.583   2.343
 1516SOL    HW1 5447   6.083   1.598   2.248
 1516SOL    HW2 5448   6.127   1.610   2.405
 1517SOL     OW 5449   3.521   5.151   1.882
 1517SOL    HW1 5450   3.458   5.229   1.887
 1517SOL    HW2 5451   3.608   5.176   1.923
 1518SOL     OW 5452   1.019   5.057   1.065
 1518SOL    HW1 5453   1.080   4.978   1.064
 1518SOL    HW2 5454   1.068   5.137   1.101
 1519SOL     OW 5455   0.402   4.659   1.183
 1519SOL    HW1 5456   0.342   4.666   1.103
 1519SOL    HW2 5457   0.367   4.719   1.255
 1520SOL     OW 5458   1.431   4.243   2.859
 1520SOL    HW1 5459   1.423   4.299   2.941
 1520SOL    HW2 5460   1.466   4.153   2.883
 1521SOL     OW 5461   2.330   5.919   5.391
 1521SOL    HW1 5462   2.429   5.909   5.394
 1521SOL    HW2 5463   2.292   5.856   5.323
 1522SOL     OW 5464   1.507   2.524   5.739
 1522SOL    HW1 5465   1.500   2.443   5.797
 1522SOL    HW2 5466   1.482   2.605   5.792
 1523SOL     OW 5467   5.724   0.692   1.785
 1523SOL    HW1 5468   5.700   0.677   1.689
 1523SOL    HW2 5469   5.777   0.776   1.793
 1524SOL     OW 5470   0.800   2.106   0.889
 1524SOL    HW1 5471   0.865   2.146   0.954
 1524SOL    HW2 5472   0.791   2.008   0.908
 1525SOL     OW 5473   5.034   1.163   5.133
 1525SOL    HW1 5474   5.113   1.114   5.095
 1525SOL    HW2 5475   5.009   1.123   5.221
 1526SOL     OW 5476   5.633   2.819   0.217
 1526SOL    HW1 5477   5.542   2.830   0.258
 1526SOL    HW2 5478   5.693   2.773   0.281
 1527SOL     OW 5479   2.496   0.391   5.151
 1527SOL    HW1 5480   2.487   0.326   5.227
 1527SOL    HW2 5481   2.542   0.346   5.075
 1528SOL     OW 5482   5.315   6.146   3.848
 1528SOL    HW1 5483   5.369   6.227   3.868
 1528SOL    HW2 5484   5.351   6.102   3.765
 1529SOL     OW 5485   1.692   6.759   5.237
 1529SOL    HW1 5486   1.669   6.789   5.329
 1529SOL    HW2 5487   1.730   6.667   5.240
 1530SOL     OW 5488   3.166   6.283   1.456
 1530SOL    HW1 5489   3.249   6.338   1.450
 1530SOL    HW2 5490   3.150   6.258   1.552
 1531SOL     OW 5491   5.859   1.380   6.415
 1531SOL    HW1 5492   5.847   1.407   6.320
 1531SOL    HW2 5493   5.779   1.409   6.468
 1532SOL     OW 5494   3.032   1.208   5.292
 1532SOL    HW1 5495   2.985   1.235   5.377
 1532SOL    HW2 5496   3.070   1.290   5.248
 1533SOL     OW 5497   4.664   3.499   0.540
 1533SOL    HW1 5498   4.579   3.527   0.584
 1533SOL    HW2 5499   4.671   3.542   0.450
 1534SOL     OW 5500   0.421   0.031   0.363
 1534SOL    HW1 5501   0.465   0.059   0.277
 1534SOL    HW2 5502   0.329   7.019   0.343
 1535SOL     OW 5503   5.099   4.172   4.588
 1535SOL    HW1 5504   5.006   4.151   4.617
 1535SOL    HW2 5505   5.122   4.119   4.506
 1536SOL     OW 5506   2.893   6.356   3.094
 1536SOL    HW1 5507   2.842   6.336   3.178
 1536SOL    HW2 5508   2.983   6.313   3.099
 1537SOL     OW 5509   1.756   5.932   4.246
 1537SOL    HW1 5510   1.716   5.967   4.331
 1537SOL    HW2 5511   1.686   5.885   4.193
 1538SOL     OW 5512   3.357   6.189   0.074
 1538SOL    HW1 5513   3.334   6.149   0.162
 1538SOL    HW2 5514   3.274   6.222   0.029
 1539SOL     OW 5515   2.522   6.681   2.097
 1539SOL    HW1 5516   2.477   6.743   2.033
 1539SOL    HW2 5517   2.513   6.716   2.190
 1540SOL     OW 5518   6.094   0.220   5.389
 1540SOL    HW1 5519   6.087   0.280   5.309
 1540SOL    HW2 5520   6.101   0.125   5.358
 1541SOL     OW 5521   5.260   2.270   1.761
 1541SOL    HW1 5522   5.178   2.327   1.766
 1541SOL    HW2 5523   5.324   2.308   1.694
 1542SOL     OW 5524   0.075   5.380   1.594
 1542SOL    HW1 5525   0.026   5.378   1.507
 1542SOL    HW2 5526   0.060   5.294   1.642
 1543SOL     OW 5527   3.229   3.210   2.901
 1543SOL    HW1 5528   3.241   3.237   2.806
 1543SOL    HW2 5529   3.253   3.114   2.912
 1544SOL     OW 5530   3.469   3.446   1.518
 1544SOL    HW1 5531   3.370   3.427   1.519
 1544SOL    HW2 5532   3.490   3.513   1.588
 1545SOL     OW 5533   0.448   6.738   5.456
 1545SOL    HW1 5534   0.450   6.729   5.555
 1545SOL    HW2 5535   0.471   6.650   5.414
 1546SOL     OW 5536   0.467   6.759   0.580
 1546SOL    HW1 5537   0.384   6.731   0.533
 1546SOL    HW2 5538   0.458   6.854   0.611
 1547SOL     OW 5539   2.882   6.234   0.458
 1547SOL    HW1 5540   2.937   6.155   0.432
 1547SOL    HW2 5541   2.831   6.212   0.542
 1548SOL     OW 5542   6.323   4.205   3.423
 1548SOL    HW1 5543   6.283   4.174   3.337
 1548SOL    HW2 5544   6.323   4.130   3.489
 1549SOL     OW 5545   5.892   1.831   1.056
 1549SOL    HW1 5546   5.852   1.911   1.011
 1549SOL    HW2 5547   5.988   1.849   1.076
 1550SOL     OW 5548   2.359   4.856   2.384
 1550SOL    HW1 5549   2.373   4.865   2.286
 1550SOL    HW2 5550   2.425   4.913   2.433
 1551SOL     OW 5551   1.199   2.390   1.741
 1551SOL    HW1 5552   1.101   2.406   1.754
 1551SOL    HW2 5553   1.219   2.389   1.643
 1552SOL     OW 5554   1.565   6.444   2.324
 1552SOL    HW1 5555   1.652   6.490   2.308
 1552SOL    HW2 5556   1.536   6.399   2.239
 1553SOL     OW 5557   5.763   1.902   5.662
 1553SOL    HW1 5558   5.687   1.872   5.720
 1553SOL    HW2 5559   5.835   1.833   5.663
 1554SOL     OW 5560   2.850   3.367   0.122
 1554SOL    HW1 5561   2.853   3.279   0.075
 1554SOL    HW2 5562   2.802   3.356   0.209
 1555SOL     OW 5563   4.602   1.573   0.987
 1555SOL    HW1 5564   4.684   1.516   1.000
 1555SOL    HW2 5565   4.523   1.527   1.029
 1556SOL     OW 5566   2.894   2.267   0.897
 1556SOL    HW1 5567   2.820   2.282   0.963
 1556SOL    HW2 5568   2.917   2.354   0.853
 1557SOL     OW 5569   2.440   2.357   1.590
 1557SOL    HW1 5570   2.426   2.375   1.687
 1557SOL    HW2 5571   2.538   2.353   1.570
 1558SOL     OW 5572   4.696   2.548   0.088
 1558SOL    HW1 5573   4.690   2.465   0.143
 1558SOL    HW2 5574   4.612   2.602   0.100
 1559SOL     OW 5575   2.473   6.558   3.749
 1559SOL    HW1 5576   2.504   6.650   3.774
 1559SOL    HW2 5577   2.545   6.512   3.698
 1560SOL     OW 5578   4.849   2.842   1.331
 1560SOL    HW1 5579   4.947   2.828   1.321
 1560SOL    HW2 5580   4.824   2.835   1.428
 1561SOL     OW 5581   6.117   6.485   0.743
 1561SOL    HW1 5582   6.159   6.443   0.663
 1561SOL    HW2 5583   6.038   6.540   0.715
 1562SOL     OW 5584   2.507   0.045   2.819
 1562SOL    HW1 5585   2.538   6.976   2.848
 1562SOL    HW2 5586   2.584   0.109   2.823
 1563SOL     OW 5587   2.294   4.161   3.591
 1563SOL    HW1 5588   2.293   4.201   3.683
 1563SOL    HW2 5589   2.364   4.090   3.587
 1564SOL     OW 5590   1.899   2.217   3.324
 1564SOL    HW1 5591   1.940   2.282   3.388
 1564SOL    HW2 5592   1.954   2.213   3.241
 1565SOL     OW 5593   5.476   1.649   5.503
 1565SOL    HW1 5594   5.494   1.731   5.449
 1565SOL    HW2 5595   5.467   1.570   5.442
 1566SOL     OW 5596   1.425   3.325   3.865
 1566SOL    HW1 5597   1.485   3.401   3.891
 1566SOL    HW2 5598   1.387   3.343   3.775
 1567SOL     OW 5599   5.304   0.641   4.699
 1567SOL    HW1 5600   5.379   0.707   4.696
 1567SOL    HW2 5601   5.322   0.572   4.769
 1568SOL     OW 5602   1.835   4.632   0.631
 1568SOL    HW1 5603   1.815   4.616   0.728
 1568SOL    HW2 5604   1.924   4.676   0.622
 1569SOL     OW 5605   2.241   0.996   2.340
 1569SOL    HW1 5606   2.184   1.077   2.325
 1569SOL    HW2 5607   2.332   1.013   2.302
 1570SOL     OW 5608   2.919   5.980   6.248
 1570SOL    HW1 5609   2.834   5.929   6.237
 1570SOL    HW2 5610   2.996   5.920   6.225
 1571SOL     OW 5611   0.732   1.251   5.097
 1571SOL    HW1 5612   0.715   1.311   5.019
 1571SOL    HW2 5613   0.737   1.306   5.180
 1572SOL     OW 5614   1.607   6.425   3.660
 1572SOL    HW1 5615   1.585   6.413   3.757
 1572SOL    HW2 5616   1.680   6.492   3.650
 1573SOL     OW 5617   5.375   5.890   0.292
 1573SOL    HW1 5618   5.329   5.866   0.378
 1573SOL    HW2 5619   5.466   5.848   0.290
 1574SOL     OW 5620   0.407   3.000   2.901
 1574SOL    HW1 5621   0.415   3.076   2.836
 1574SOL    HW2 5622   0.442   3.028   2.990
 1575SOL     OW 5623   6.780   2.106   0.014
 1575SOL    HW1 5624   6.743   2.072   0.100
 1575SOL    HW2 5625   6.784   2.032   6.968
 1576SOL     OW 5626   1.085   6.381   2.597
 1576SOL    HW1 5627   1.092   6.365   2.498
 1576SOL    HW2 5628   0.988   6.381   2.623
 1577SOL     OW 5629   4.540   5.918   3.614
 1577SOL    HW1 5630   4.449   5.882   3.634
 1577SOL    HW2 5631   4.548   6.011   3.649
 1578SOL     OW 5632   5.385   1.988   1.643
 1578SOL    HW1 5633   5.484   1.984   1.654
 1578SOL    HW2 5634   5.351   2.075   1.679
 1579SOL     OW 5635   1.535   3.647   2.348
 1579SOL    HW1 5636   1.515   3.598   2.263
 1579SOL    HW2 5637   1.475   3.614   2.420
 1580SOL     OW 5638   3.278   3.582   3.711
 1580SOL    HW1 5639   3.376   3.593   3.730
 1580SOL    HW2 5640   3.254   3.633   3.628
 1581SOL     OW 5641   5.141   4.138   5.370
 1581SOL    HW1 5642   5.166   4.099   5.459
 1581SOL    HW2 5643   5.221   4.142   5.311
 1582SOL     OW 5644   4.015   6.019   3.668
 1582SOL    HW1 5645   4.037   6.115   3.654
 1582SOL    HW2 5646   3.979   6.006   3.761
 1583SOL     OW 5647   0.517   5.589   4.629
 1583SOL    HW1 5648   0.535   5.531   4.708
 1583SOL    HW2 5649   0.451   5.544   4.568
 1584SOL     OW 5650   0.280   4.406   6.894
 1584SOL    HW1 5651   0.249   4.353   6.972
 1584SOL    HW2 5652   0.367   4.369   6.860
 1585SOL     OW 5653   4.591   6.217   4.158
 1585SOL    HW1 5654   4.660   6.270   4.109
 1585SOL    HW2 5655   4.502   6.260   4.149
 1586SOL     OW 5656   2.720   6.068   3.811
 1586SOL    HW1 5657   2.623   6.089   3.796
 1586SOL    HW2 5658   2.728   5.982   3.862
 1587SOL     OW 5659   4.083   0.346   6.872
 1587SOL    HW1 5660   4.118   0.344   6.965
 1587SOL    HW2 5661   4.036   0.259   6.852
 1588SOL     OW 5662   6.306   1.656   3.973
 1588SOL    HW1 5663   6.281   1.562   3.998
 1588SOL    HW2 5664   6.223   1.711   3.963
 1589SOL     OW 5665   6.888   1.494   4.069
 1589SOL    HW1 5666   6.956   1.480   3.997
 1589SOL    HW2 5667   6.916   1.572   4.126
 1590SOL     OW 5668   5.882   0.731   3.710
 1590SOL    HW1 5669   5.865   0.662   3.639
 1590SOL    HW2 5670   5.806   0.731   3.775
 1591SOL     OW 5671   0.177   5.444   0.822
 1591SOL    HW1 5672   0.137   5.452   0.731
 1591SOL    HW2 5673   0.260   5.389   0.818
 1592SOL     OW 5674   6.963   4.530   4.805
 1592SOL    HW1 5675   6.995   4.453   4.749
 1592SOL    HW2 5676   6.863   4.531   4.806
 1593SOL     OW 5677   3.546   5.180   1.593
 1593SOL    HW1 5678   3.497   5.173   1.680
 1593SOL    HW2 5679   3.631   5.230   1.606
 1594SOL     OW 5680   5.489   1.008   2.563
 1594SOL    HW1 5681   5.512   1.010   2.660
 1594SOL    HW2 5682   5.569   1.035   2.509
 1595SOL     OW 5683   0.064   3.834   0.418
 1595SOL    HW1 5684   0.144   3.778   0.439
 1595SOL    HW2 5685   0.092   3.930   0.411
 1596SOL     OW 5686   5.033   4.467   4.144
 1596SOL    HW1 5687   4.938   4.462   4.176
 1596SOL    HW2 5688   5.059   4.379   4.103
 1597SOL     OW 5689   4.071   6.928   1.062
 1597SOL    HW1 5690   3.985   6.892   1.098
 1597SOL    HW2 5691   4.054   6.976   0.976
 1598SOL     OW 5692   0.647   5.770   5.911
 1598SOL    HW1 5693   0.641   5.826   5.994
 1598SOL    HW2 5694   0.572   5.794   5.849
 1599SOL     OW 5695   5.224   5.126   4.150
 1599SOL    HW1 5696   5.263   5.132   4.059
 1599SOL    HW2 5697   5.282   5.175   4.215
 1600SOL     OW 5698   5.004   1.212   1.358
 1600SOL    HW1 5699   4.967   1.137   1.303
 1600SOL    HW2 5700   4.943   1.291   1.354
 1601SOL     OW 5701   6.207   0.574   5.033
 1601SOL    HW1 5702   6.192   0.523   4.948
 1601SOL    HW2 5703   6.124   0.624   5.057
 1602SOL     OW 5704   3.706   6.029   3.258
 1602SOL    HW1 5705   3.615   6.068   3.246
 1602SOL    HW2 5706   3.771   6.102   3.279
 1603SOL     OW 5707   3.227   5.439   1.660
 1603SOL    HW1 5708   3.141   5.391   1.681
 1603SOL    HW2 5709   3.260   5.409   1.571
 1604SOL     OW 5710   4.271   5.417   1.589
 1604SOL    HW1 5711   4.303   5.323   1.575
 1604SOL    HW2 5712   4.243   5.429   1.684
 1605SOL     OW 5713   4.454   5.048   0.292
 1605SOL    HW1 5714   4.402   5.127   0.259
 1605SOL    HW2 5715   4.411   5.013   0.375
 1606SOL     OW 5716   4.737   5.449   4.693
 1606SOL    HW1 5717   4.697   5.372   4.643
 1606SOL    HW2 5718   4.710   5.535   4.650
 1607SOL     OW 5719   4.741   4.398   4.091
 1607SOL    HW1 5720   4.779   4.306   4.106
 1607SOL    HW2 5721   4.671   4.393   4.020
 1608SOL     OW 5722   6.574   3.477   2.832
 1608SOL    HW1 5723   6.624   3.524   2.905
 1608SOL    HW2 5724   6.584   3.378   2.843
 1609SOL     OW 5725   1.205   0.214   0.817
 1609SOL    HW1 5726   1.224   0.291   0.756
 1609SOL    HW2 5727   1.215   0.245   0.912
 1610SOL     OW 5728   5.562   5.776   1.057
 1610SOL    HW1 5729   5.482   5.835   1.073
 1610SOL    HW2 5730   5.532   5.690   1.016
 1611SOL     OW 5731   6.879   4.435   6.980
 1611SOL    HW1 5732   6.963   4.397   7.018
 1611SOL    HW2 5733   6.821   4.470   0.033
 1612SOL     OW 5734   5.429   0.941   1.922
 1612SOL    HW1 5735   5.527   0.954   1.937
 1612SOL    HW2 5736   5.380   1.024   1.947
 1613SOL     OW 5737   0.477   6.100   2.643
 1613SOL    HW1 5738   0.474   6.112   2.742
 1613SOL    HW2 5739   0.428   6.016   2.618
 1614SOL     OW 5740   5.649   1.126   5.889
 1614SOL    HW1 5741   5.554   1.096   5.890
 1614SOL    HW2 5742   5.675   1.157   5.980
 1615SOL     OW 5743   6.269   3.267   5.928
 1615SOL    HW1 5744   6.248   3.239   5.834
 1615SOL    HW2 5745   6.345   3.333   5.927
 1616SOL     OW 5746   1.169   1.513   3.446
 1616SOL    HW1 5747   1.102   1.477   3.381
 1616SOL    HW2 5748   1.244   1.447   3.456
 1617SOL     OW 5749   0.242   5.927   4.410
 1617SOL    HW1 5750   0.318   5.992   4.407
 1617SOL    HW2 5751   0.224   5.901   4.505
 1618SOL     OW 5752   2.841   5.677   3.161
 1618SOL    HW1 5753   2.891   5.757   3.126
 1618SOL    HW2 5754   2.809   5.695   3.254
 1619SOL     OW 5755   1.028   3.660   6.059
 1619SOL    HW1 5756   1.039   3.714   6.143
 1619SOL    HW2 5757   1.061   3.567   6.074
 1620SOL     OW 5758   2.594   0.263   4.949
 1620SOL    HW1 5759   2.505   0.249   4.905
 1620SOL    HW2 5760   2.636   0.346   4.913
 1621SOL     OW 5761   5.749   4.620   0.978
 1621SOL    HW1 5762   5.798   4.701   0.948
 1621SOL    HW2 5763   5.702   4.579   0.899
 1622SOL     OW 5764   6.317   2.959   3.139
 1622SOL    HW1 5765   6.405   2.938   3.182
 1622SOL    HW2 5766   6.318   2.928   3.044
 1623SOL     OW 5767   0.532   2.180   4.076
 1623SOL    HW1 5768   0.586   2.224   4.004
 1623SOL    HW2 5769   0.551   2.227   4.163
 1624SOL     OW 5770   4.493   3.043   0.525
 1624SOL    HW1 5771   4.417   3.104   0.500
 1624SOL    HW2 5772   4.456   2.956   0.559
 1625SOL     OW 5773   1.067   6.341   0.362
 1625SOL    HW1 5774   0.993   6.306   0.304
 1625SOL    HW2 5775   1.100   6.268   0.422
 1626SOL     OW 5776   2.763   1.803   1.974
 1626SOL    HW1 5777   2.709   1.752   1.907
 1626SOL    HW2 5778   2.801   1.885   1.931
 1627SOL     OW 5779   4.763   1.438   6.199
 1627SOL    HW1 5780   4.744   1.446   6.101
 1627SOL    HW2 5781   4.732   1.349   6.232
 1628SOL     OW 5782   5.113   5.852   1.273
 1628SOL    HW1 5783   5.139   5.864   1.369
 1628SOL    HW2 5784   5.049   5.924   1.246
 1629SOL     OW 5785   1.525   6.483   3.101
 1629SOL    HW1 5786   1.498   6.423   3.176
 1629SOL    HW2 5787   1.457   6.556   3.090
 1630SOL     OW 5788   0.284   5.122   6.301
 1630SOL    HW1 5789   0.299   5.114   6.203
 1630SOL    HW2 5790   0.284   5.219   6.328
 1631SOL     OW 5791   5.206   4.402   0.084
 1631SOL    HW1 5792   5.277   4.448   0.138
 1631SOL    HW2 5793   5.137   4.470   0.057
 1632SOL     OW 5794   6.230   6.119   2.400
 1632SOL    HW1 5795   6.183   6.206   2.388
 1632SOL    HW2 5796   6.184   6.049   2.345
 1633SOL     OW 5797   6.720   3.911   4.626
 1633SOL    HW1 5798   6.780   3.935   4.702
 1633SOL    HW2 5799   6.759   3.946   4.541
 1634SOL     OW 5800   1.216   4.016   6.116
 1634SOL    HW1 5801   1.141   4.063   6.162
 1634SOL    HW2 5802   1.189   3.922   6.094
 1635SOL     OW 5803   2.584   1.267   4.592
 1635SOL    HW1 5804   2.521   1.230   4.524
 1635SOL    HW2 5805   2.635   1.343   4.552
 1636SOL     OW 5806   0.337   6.236   1.600
 1636SOL    HW1 5807   0.244   6.272   1.601
 1636SOL    HW2 5808   0.347   6.173   1.523
 1637SOL     OW 5809   1.017   1.008   1.836
 1637SOL    HW1 5810   0.922   1.020   1.805
 1637SOL    HW2 5811   1.024   1.037   1.931
 1638SOL     OW 5812   5.363   2.079   3.713
 1638SOL    HW1 5813   5.357   2.117   3.621
 1638SOL    HW2 5814   5.279   2.028   3.732
 1639SOL     OW 5815   5.323   2.164   1.252
 1639SOL    HW1 5816   5.341   2.089   1.315
 1639SOL    HW2 5817   5.228   2.193   1.260
 1640SOL     OW 5818   6.405   0.938   6.764
 1640SOL    HW1 5819   6.446   0.958   6.675
 1640SOL    HW2 5820   6.312   0.975   6.766
 1641SOL     OW 5821   5.543   1.582   2.477
 1641SOL    HW1 5822   5.615   1.604   2.412
 1641SOL    HW2 5823   5.578   1.517   2.545
 1642SOL     OW 5824   0.065   3.181   6.337
 1642SOL    HW1 5825   0.150   3.128   6.329
 1642SOL    HW2 5826   0.048   3.228   6.251
 1643SOL     OW 5827   2.480   5.428   4.453
 1643SOL    HW1 5828   2.414   5.494   4.418
 1643SOL    HW2 5829   2.560   5.476   4.487
 1644SOL     OW 5830   6.002   1.422   1.032
 1644SOL    HW1 5831   5.922   1.437   1.091
 1644SOL    HW2 5832   6.016   1.502   0.974
 1645SOL     OW 5833   2.299   1.164   4.001
 1645SOL    HW1 5834   2.255   1.076   3.983
 1645SOL    HW2 5835   2.233   1.238   3.987
 1646SOL     OW 5836   0.110   5.750   1.975
 1646SOL    HW1 5837   0.048   5.822   1.944
 1646SOL    HW2 5838   0.073   5.661   1.948
 1647SOL     OW 5839   6.471   3.456   5.319
 1647SOL    HW1 5840   6.443   3.397   5.394
 1647SOL    HW2 5841   6.452   3.412   5.232
 1648SOL     OW 5842   5.503   5.992   2.617
 1648SOL    HW1 5843   5.447   5.941   2.551
 1648SOL    HW2 5844   5.514   5.937   2.700
 1649SOL     OW 5845   4.042   0.842   2.994
 1649SOL    HW1 5846   4.113   0.912   2.989
 1649SOL    HW2 5847   4.015   0.828   3.089
 1650SOL     OW 5848   2.503   2.484   4.950
 1650SOL    HW1 5849   2.422   2.509   5.003
 1650SOL    HW2 5850   2.515   2.549   4.875
 1651SOL     OW 5851   1.532   2.181   4.290
 1651SOL    HW1 5852   1.598   2.208   4.220
 1651SOL    HW2 5853   1.494   2.091   4.267
 1652SOL     OW 5854   0.095   4.400   1.745
 1652SOL    HW1 5855   0.037   4.354   1.812
 1652SOL    HW2 5856   0.191   4.393   1.773
 1653SOL     OW 5857   6.336   4.207   1.888
 1653SOL    HW1 5858   6.315   4.124   1.939
 1653SOL    HW2 5859   6.431   4.235   1.907
 1654SOL     OW 5860   6.861   3.503   1.593
 1654SOL    HW1 5861   6.824   3.411   1.608
 1654SOL    HW2 5862   6.926   3.525   1.666
 1655SOL     OW 5863   6.948   0.231   6.097
 1655SOL    HW1 5864   6.954   0.314   6.152
 1655SOL    HW2 5865   0.004   0.227   6.034
 1656SOL     OW 5866   1.987   3.865   2.751
 1656SOL    HW1 5867   1.894   3.897   2.770
 1656SOL    HW2 5868   2.042   3.869   2.834
 1657SOL     OW 5869   0.373   1.425   6.092
 1657SOL    HW1 5870   0.358   1.361   6.016
 1657SOL    HW2 5871   0.313   1.504   6.081
 1658SOL     OW 5872   5.141   0.201   5.693
 1658SOL    HW1 5873   5.119   0.299   5.696
 1658SOL    HW2 5874   5.095   0.155   5.769
 1659SOL     OW 5875   2.892   0.624   6.585
 1659SOL    HW1 5876   2.846   0.712   6.572
 1659SOL    HW2 5877   2.948   0.604   6.504
 1660SOL     OW 5878   2.992   1.188   1.848
 1660SOL    HW1 5879   2.906   1.218   1.807
 1660SOL    HW2 5880   2.983   1.092   1.876
 1661SOL     OW 5881   4.849   4.967   3.428
 1661SOL    HW1 5882   4.934   4.955   3.378
 1661SOL    HW2 5883   4.808   4.877   3.446
 1662SOL     OW 5884   0.582   1.681   3.610
 1662SOL    HW1 5885   0.629   1.599   3.575
 1662SOL    HW2 5886   0.630   1.715   3.691
 1663SOL     OW 5887   5.825   4.015   0.975
 1663SOL    HW1 5888   5.887   4.022   1.054
 1663SOL    HW2 5889   5.876   3.981   0.896
 1664SOL     OW 5890   1.439   1.405   6.117
 1664SOL    HW1 5891   1.357   1.364   6.157
 1664SOL    HW2 5892   1.424   1.502   6.099
 1665SOL     OW 5893   1.586   4.024   0.146
 1665SOL    HW1 5894   1.586   4.024   0.246
 1665SOL    HW2 5895   1.624   4.110   0.113
 1666SOL     OW 5896   5.272   6.543   5.426
 1666SOL    HW1 5897   5.277   6.593   5.512
 1666SOL    HW2 5898   5.306   6.600   5.352
 1667SOL     OW 5899   6.574   5.043   1.426
 1667SOL    HW1 5900   6.642   5.067   1.495
 1667SOL    HW2 5901   6.613   5.053   1.335
 1668SOL     OW 5902   6.640   3.309   1.770
 1668SOL    HW1 5903   6.614   3.391   1.720
 1668SOL    HW2 5904   6.630   3.229   1.710
 1669SOL     OW 5905   6.263   2.787   5.516
 1669SOL    HW1 5906   6.242   2.812   5.422
 1669SOL    HW2 5907   6.271   2.870   5.572
 1670SOL     OW 5908   3.006   4.291   5.280
 1670SOL    HW1 5909   2.990   4.381   5.241
 1670SOL    HW2 5910   3.041   4.230   5.208
 1671SOL     OW 5911   6.068   2.264   0.822
 1671SOL    HW1 5912   6.153   2.218   0.801
 1671SOL    HW2 5913   6.064   2.352   0.775
 1672SOL     OW 5914   0.690   2.062   1.247
 1672SOL    HW1 5915   0.627   2.140   1.246
 1672SOL    HW2 5916   0.645   1.983   1.288
 1673SOL     OW 5917   0.850   0.667   6.004
 1673SOL    HW1 5918   0.751   0.657   5.991
 1673SOL    HW2 5919   0.894   0.677   5.915
 1674SOL     OW 5920   4.742   2.879   3.211
 1674SOL    HW1 5921   4.776   2.955   3.265
 1674SOL    HW2 5922   4.818   2.819   3.185
 1675SOL     OW 5923   5.201   0.777   1.836
 1675SOL    HW1 5924   5.177   0.822   1.750
 1675SOL    HW2 5925   5.291   0.810   1.866
 1676SOL     OW 5926   1.414   2.355   4.014
 1676SOL    HW1 5927   1.375   2.429   3.960
 1676SOL    HW2 5928   1.364   2.348   4.101
 1677SOL     OW 5929   3.444   4.042   1.919
 1677SOL    HW1 5930   3.423   4.132   1.879
 1677SOL    HW2 5931   3.361   4.005   1.961
 1678SOL     OW 5932   0.025   6.833   0.476
 1678SOL    HW1 5933   0.033   6.927   0.508
 1678SOL    HW2 5934   6.956   6.797   0.500
 1679SOL     OW 5935   5.949   1.929   0.433
 1679SOL    HW1 5936   5.978   1.843   0.391
 1679SOL    HW2 5937   5.894   1.981   0.368
 1680SOL     OW 5938   5.661   2.179   3.412
 1680SOL    HW1 5939   5.691   2.269   3.446
 1680SOL    HW2 5940   5.657   2.180   3.313
 1681SOL     OW 5941   3.846   6.239   4.069
 1681SOL    HW1 5942   3.930   6.272   4.113
 1681SOL    HW2 5943   3.770   6.249   4.132
 1682SOL     OW 5944   3.960   1.643   5.521
 1682SOL    HW1 5945   3.950   1.548   5.551
 1682SOL    HW2 5946   3.883   1.697   5.557
 1683SOL     OW 5947   0.897   3.558   2.980
 1683SOL    HW1 5948   0.857   3.567   3.071
 1683SOL    HW2 5949   0.829   3.519   2.918
 1684SOL     OW 5950   3.208   5.537   1.188
 1684SOL    HW1 5951   3.168   5.506   1.274
 1684SOL    HW2 5952   3.151   5.609   1.149
 1685SOL     OW 5953   0.200   2.077   5.815
 1685SOL    HW1 5954   0.237   2.056   5.906
 1685SOL    HW2 5955   0.179   1.991   5.768
 1686SOL     OW 5956   3.373   5.333   1.438
 1686SOL    HW1 5957   3.439   5.380   1.379
 1686SOL    HW2 5958   3.422   5.278   1.505
 1687SOL     OW 5959   4.580   4.152   0.288
 1687SOL    HW1 5960   4.497   4.152   0.344
 1687SOL    HW2 5961   4.609   4.247   0.272
 1688SOL     OW 5962   3.199   0.394   3.008
 1688SOL    HW1 5963   3.290   0.428   2.985
 1688SOL    HW2 5964   3.199   0.358   3.101
 1689SOL     OW 5965   4.218   0.669   1.791
 1689SOL    HW1 5966   4.283   0.647   1.718
 1689SOL    HW2 5967   4.260   0.731   1.856
 1690SOL     OW 5968   0.167   4.340   4.346
 1690SOL    HW1 5969   0.228   4.395   4.401
 1690SOL    HW2 5970   0.157   4.249   4.387
 1691SOL     OW 5971   4.048   2.765   5.319
 1691SOL    HW1 5972   4.091   2.755   5.408
 1691SOL    HW2 5973   4.067   2.684   5.263
 1692SOL     OW 5974   6.127   5.610   2.270
 1692SOL    HW1 5975   6.041   5.571   2.303
 1692SOL    HW2 5976   6.190   5.622   2.346
 1693SOL     OW 5977   5.820   0.105   5.499
 1693SOL    HW1 5978   5.824   0.132   5.403
 1693SOL    HW2 5979   5.882   0.162   5.553
 1694SOL     OW 5980   4.821   1.257   6.596
 1694SOL    HW1 5981   4.753   1.183   6.604
 1694SOL    HW2 5982   4.879   1.257   6.678
 1695SOL     OW 5983   4.672   0.159   4.959
 1695SOL    HW1 5984   4.748   0.125   5.014
 1695SOL    HW2 5985   4.640   0.246   4.996
 1696SOL     OW 5986   5.080   6.993   0.996
 1696SOL    HW1 5987   5.047   6.976   1.089
 1696SOL    HW2 5988   5.043   0.059   0.963
 1697SOL     OW 5989   4.166   3.628   1.810
 1697SOL    HW1 5990   4.083   3.683   1.805
 1697SOL    HW2 5991   4.171   3.583   1.899
 1698SOL     OW 5992   4.786   1.397   1.415
 1698SOL    HW1 5993   4.714   1.410   1.347
 1698SOL    HW2 5994   4.745   1.377   1.504
 1699SOL     OW 5995   1.706   0.640   1.174
 1699SOL    HW1 5996   1.717   0.546   1.205
 1699SOL    HW2 5997   1.737   0.647   1.079
 1700SOL     OW 5998   6.009   2.925   2.880
 1700SOL    HW1 5999   5.951   2.846   2.860
 1700SOL    HW2 6000   6.105   2.899   2.872
 1701SOL     OW 6001   1.196   5.329   5.291
 1701SOL    HW1 6002   1.138   5.254   5.322
 1701SOL    HW2 6003   1.158   5.369   5.207
 1702SOL     OW 6004   2.336   2.118   0.030
 1702SOL    HW1 6005   2.351   2.020   0.045
 1702SOL    HW2 6006   2.363   2.168   0.112
 1703SOL     OW 6007   1.387   2.123   1.660
 1703SOL    HW1 6008   1.402   2.033   1.621
 1703SOL    HW2 6009   1.293   2.130   1.693
 1704SOL     OW 6010   3.217   2.910   6.821
 1704SOL    HW1 6011   3.179   2.819   6.804
 1704SOL    HW2 6012   3.144   2.979   6.811
 1705SOL     OW 6013   5.712   2.927   0.980
 1705SOL    HW1 6014   5.691   2.894   0.888
 1705SOL    HW2 6015   5.633   2.912   1.040
 1706SOL     OW 6016   5.482   0.719   5.601
 1706SOL    HW1 6017   5.561   0.732   5.661
 1706SOL    HW2 6018   5.444   0.628   5.616
 1707SOL     OW 6019   3.353   1.335   2.334
 1707SOL    HW1 6020   3.376   1.341   2.431
 1707SOL    HW2 6021   3.396   1.411   2.284
 1708SOL     OW 6022   2.684   4.867   1.952
 1708SOL    HW1 6023   2.734   4.788   1.988
 1708SOL    HW2 6024   2.743   4.948   1.955
 1709SOL     OW 6025   5.680   5.068   1.812
 1709SOL    HW1 6026   5.597   5.066   1.756
 1709SOL    HW2 6027   5.655   5.073   1.909
 1710SOL     OW 6028   4.633   2.676   1.966
 1710SOL    HW1 6029   4.722   2.636   1.987
 1710SOL    HW2 6030   4.635   2.774   1.987
 1711SOL     OW 6031   4.366   5.404   0.025
 1711SOL    HW1 6032   4.368   5.369   0.119
 1711SOL    HW2 6033   4.357   5.327   6.983
 1712SOL     OW 6034   0.282   2.225   1.972
 1712SOL    HW1 6035   0.189   2.235   2.008
 1712SOL    HW2 6036   0.332   2.311   1.985
 1713SOL     OW 6037   3.099   1.504   2.284
 1713SOL    HW1 6038   3.161   1.426   2.286
 1713SOL    HW2 6039   3.106   1.551   2.196
 1714SOL     OW 6040   3.091   4.729   1.304
 1714SOL    HW1 6041   3.127   4.789   1.233
 1714SOL    HW2 6042   3.150   4.733   1.385
 1715SOL     OW 6043   1.595   6.146   0.817
 1715SOL    HW1 6044   1.668   6.104   0.762
 1715SOL    HW2 6045   1.555   6.077   0.877
 1716SOL     OW 6046   5.030   1.760   2.956
 1716SOL    HW1 6047   4.960   1.821   2.918
 1716SOL    HW2 6048   5.069   1.801   3.038
 1717SOL     OW 6049   3.413   6.543   3.975
 1717SOL    HW1 6050   3.353   6.612   3.934
 1717SOL    HW2 6051   3.367   6.500   4.053
 1718SOL     OW 6052   1.710   4.228   1.702
 1718SOL    HW1 6053   1.676   4.147   1.750
 1718SOL    HW2 6054   1.766   4.201   1.625
 1719SOL     OW 6055   1.632   4.715   3.847
 1719SOL    HW1 6056   1.726   4.750   3.846
 1719SOL    HW2 6057   1.589   4.737   3.934
 1720SOL     OW 6058   1.330   3.014   5.457
 1720SOL    HW1 6059   1.423   3.049   5.442
 1720SOL    HW2 6060   1.334   2.916   5.477
 1721SOL     OW 6061   2.398   2.484   0.401
 1721SOL    HW1 6062   2.488   2.524   0.388
 1721SOL    HW2 6063   2.329   2.557   0.405
 1722SOL     OW 6064   3.479   2.065   2.824
 1722SOL    HW1 6065   3.567   2.059   2.870
 1722SOL    HW2 6066   3.493   2.083   2.727
 1723SOL     OW 6067   6.321   5.116   1.698
 1723SOL    HW1 6068   6.223   5.131   1.715
 1723SOL    HW2 6069   6.332   5.051   1.624
 1724SOL     OW 6070   5.988   3.947   1.222
 1724SOL    HW1 6071   5.912   3.887   1.245
 1724SOL    HW2 6072   6.019   3.994   1.305
 1725SOL     OW 6073   1.125   6.651   4.970
 1725SOL    HW1 6074   1.102   6.555   4.950
 1725SOL    HW2 6075   1.145   6.661   5.067
 1726SOL     OW 6076   5.176   4.683   3.121
 1726SOL    HW1 6077   5.262   4.680   3.173
 1726SOL    HW2 6078   5.184   4.749   3.047
 1727SOL     OW 6079   2.904   3.523   3.973
 1727SOL    HW1 6080   2.906   3.618   4.006
 1727SOL    HW2 6081   2.905   3.461   4.052
 1728SOL     OW 6082   5.534   2.193   4.856
 1728SOL    HW1 6083   5.463   2.260   4.837
 1728SOL    HW2 6084   5.599   2.231   4.922
 1729SOL     OW 6085   1.659   3.499   3.198
 1729SOL    HW1 6086   1.580   3.560   3.197
 1729SOL    HW2 6087   1.741   3.550   3.226
 1730SOL     OW 6088   2.358   1.026   4.824
 1730SOL    HW1 6089   2.439   0.977   4.791
 1730SOL    HW2 6090   2.293   0.961   4.863
 1731SOL     OW 6091   5.985   4.402   3.761
 1731SOL    HW1 6092   5.976   4.502   3.756
 1731SOL    HW2 6093   5.948   4.370   3.848
 1732SOL     OW 6094   4.024   3.623   5.271
 1732SOL    HW1 6095   3.998   3.528   5.255
 1732SOL    HW2 6096   4.120   3.626   5.301
 1733SOL     OW 6097   1.394   1.699   0.143
 1733SOL    HW1 6098   1.465   1.709   0.074
 1733SOL    HW2 6099   1.317   1.647   0.105
 1734SOL     OW 6100   0.855   4.343   2.084
 1734SOL    HW1 6101   0.799   4.288   2.023
 1734SOL    HW2 6102   0.844   4.311   2.178
 1735SOL     OW 6103   3.437   5.319   5.978
 1735SOL    HW1 6104   3.377   5.365   5.912
 1735SOL    HW2 6105   3.528   5.307   5.937
 1736SOL     OW 6106   4.445   1.931   5.405
 1736SOL    HW1 6107   4.362   1.979   5.434
 1736SOL    HW2 6108   4.421   1.860   5.339
 1737SOL     OW 6109   2.496   0.737   6.831
 1737SOL    HW1 6110   2.502   0.836   6.842
 1737SOL    HW2 6111   2.588   0.698   6.831
 1738SOL     OW 6112   1.146   4.161   2.073
 1738SOL    HW1 6113   1.224   4.117   2.028
 1738SOL    HW2 6114   1.164   4.171   2.170
 1739SOL     OW 6115   4.449   5.363   2.209
 1739SOL    HW1 6116   4.467   5.269   2.181
 1739SOL    HW2 6117   4.514   5.424   2.164
 1740SOL     OW 6118   6.362   2.427   4.335
 1740SOL    HW1 6119   6.434   2.440   4.267
 1740SOL    HW2 6120   6.397   2.374   4.412
 1741SOL     OW 6121   1.176   2.857   4.302
 1741SOL    HW1 6122   1.261   2.852   4.353
 1741SOL    HW2 6123   1.168   2.777   4.242
 1742SOL     OW 6124   5.812   0.040   0.021
 1742SOL    HW1 6125   5.890   0.101   0.034
 1742SOL    HW2 6126   5.750   0.080   6.974
 1743SOL     OW 6127   1.076   1.966   1.566
 1743SOL    HW1 6128   1.086   2.054   1.520
 1743SOL    HW2 6129   0.981   1.953   1.595
 1744SOL     OW 6130   3.079   1.829   5.286
 1744SOL    HW1 6131   3.051   1.902   5.224
 1744SOL    HW2 6132   3.044   1.848   5.378
 1745SOL     OW 6133   6.487   6.532   0.921
 1745SOL    HW1 6134   6.398   6.529   0.968
 1745SOL    HW2 6135   6.523   6.626   0.926
 1746SOL     OW 6136   2.360   5.071   2.764
 1746SOL    HW1 6137   2.424   4.994   2.766
 1746SOL    HW2 6138   2.285   5.054   2.827
 1747SOL     OW 6139   2.610   6.978   1.781
 1747SOL    HW1 6140   2.649   6.885   1.782
 1747SOL    HW2 6141   2.526   6.979   1.834
 1748SOL     OW 6142   0.105   1.313   3.521
 1748SOL    HW1 6143   0.062   1.229   3.487
 1748SOL    HW2 6144   0.034   1.377   3.550
 1749SOL     OW 6145   6.714   5.668   2.435
 1749SOL    HW1 6146   6.747   5.578   2.461
 1749SOL    HW2 6147   6.790   5.722   2.398
 1750SOL     OW 6148   2.545   1.326   1.436
 1750SOL    HW1 6149   2.486   1.312   1.356
 1750SOL    HW2 6150   2.598   1.243   1.453
 1751SOL     OW 6151   6.412   4.484   4.741
 1751SOL    HW1 6152   6.342   4.525   4.801
 1751SOL    HW2 6153   6.373   4.470   4.651
 1752SOL     OW 6154   5.856   0.542   2.862
 1752SOL    HW1 6155   5.774   0.562   2.807
 1752SOL    HW2 6156   5.828   0.510   2.952
 1753SOL     OW 6157   6.783   1.614   1.008
 1753SOL    HW1 6158   6.700   1.666   0.987
 1753SOL    HW2 6159   6.758   1.519   1.030
 1754SOL     OW 6160   2.035   4.475   3.582
 1754SOL    HW1 6161   2.134   4.458   3.583
 1754SOL    HW2 6162   1.999   4.458   3.491
 1755SOL     OW 6163   5.988   6.459   5.185
 1755SOL    HW1 6164   5.898   6.475   5.143
 1755SOL    HW2 6165   5.981   6.470   5.284
 1756SOL     OW 6166   4.540   5.787   1.401
 1756SOL    HW1 6167   4.550   5.695   1.440
 1756SOL    HW2 6168   4.491   5.846   1.465
 1757SOL     OW 6169   2.912   5.159   4.847
 1757SOL    HW1 6170   2.879   5.066   4.864
 1757SOL    HW2 6171   2.937   5.169   4.751
 1758SOL     OW 6172   0.582   6.194   3.852
 1758SOL    HW1 6173   0.506   6.129   3.853
 1758SOL    HW2 6174   0.553   6.279   3.895
 1759SOL     OW 6175   1.758   5.258   6.072
 1759SOL    HW1 6176   1.840   5.292   6.027
 1759SOL    HW2 6177   1.736   5.315   6.151
 1760SOL     OW 6178   5.996   1.313   4.173
 1760SOL    HW1 6179   5.913   1.342   4.125
 1760SOL    HW2 6180   5.975   1.300   4.270
 1761SOL     OW 6181   5.429   2.161   3.963
 1761SOL    HW1 6182   5.337   2.200   3.968
 1761SOL    HW2 6183   5.439   2.107   3.879
 1762SOL     OW 6184   0.827   1.606   5.884
 1762SOL    HW1 6185   0.744   1.557   5.910
 1762SOL    HW2 6186   0.814   1.704   5.898
 1763SOL     OW 6187   1.755   5.088   3.856
 1763SOL    HW1 6188   1.669   5.123   3.818
 1763SOL    HW2 6189   1.775   4.999   3.815
 1764SOL     OW 6190   0.605   5.443   3.536
 1764SOL    HW1 6191   0.654   5.431   3.623
 1764SOL    HW2 6192   0.513   5.479   3.555
 1765SOL     OW 6193   5.416   3.790   2.007
 1765SOL    HW1 6194   5.354   3.861   1.973
 1765SOL    HW2 6195   5.383   3.756   2.095
 1766SOL     OW 6196   4.194   5.130   3.857
 1766SOL    HW1 6197   4.226   5.039   3.830
 1766SOL    HW2 6198   4.121   5.159   3.796
 1767SOL     OW 6199   1.929   4.426   1.557
 1767SOL    HW1 6200   1.888   4.384   1.638
 1767SOL    HW2 6201   1.923   4.525   1.564
 1768SOL     OW 6202   3.403   5.197   2.796
 1768SOL    HW1 6203   3.332   5.129   2.814
 1768SOL    HW2 6204   3.461   5.208   2.877
 1769SOL     OW 6205   5.378   0.231   0.756
 1769SOL    HW1 6206   5.416   0.202   0.844
 1769SOL    HW2 6207   5.432   0.191   0.682
 1770SOL     OW 6208   2.775   4.597   0.556
 1770SOL    HW1 6209   2.677   4.614   0.551
 1770SOL    HW2 6210   2.821   4.679   0.592
 1771SOL     OW 6211   1.331   3.039   5.911
 1771SOL    HW1 6212   1.243   3.023   5.956
 1771SOL    HW2 6213   1.392   2.962   5.928
 1772SOL     OW 6214   3.137   5.401   2.339
 1772SOL    HW1 6215   3.148   5.302   2.351
 1772SOL    HW2 6216   3.220   5.440   2.301
 1773SOL     OW 6217   2.059   6.262   4.630
 1773SOL    HW1 6218   1.995   6.194   4.665
 1773SOL    HW2 6219   2.114   6.220   4.557
 1774SOL     OW 6220   5.482   5.387   1.438
 1774SOL    HW1 6221   5.455   5.418   1.347
 1774SOL    HW2 6222   5.552   5.316   1.430
 1775SOL     OW 6223   1.841   6.889   0.941
 1775SOL    HW1 6224   1.926   6.883   0.888
 1775SOL    HW2 6225   1.783   6.961   0.903
 1776SOL     OW 6226   4.849   3.234   6.017
 1776SOL    HW1 6227   4.826   3.310   5.957
 1776SOL    HW2 6228   4.790   3.237   6.098
 1777SOL     OW 6229   4.837   4.830   6.692
 1777SOL    HW1 6230   4.829   4.898   6.619
 1777SOL    HW2 6231   4.910   4.856   6.755
 1778SOL     OW 6232   6.903   0.572   3.274
 1778SOL    HW1 6233   6.921   0.659   3.319
 1778SOL    HW2 6234   6.830   0.524   3.322
 1779SOL     OW 6235   6.626   6.908   4.541
 1779SOL    HW1 6236   6.608   6.992   4.592
 1779SOL    HW2 6237   6.543   6.880   4.492
 1780SOL     OW 6238   2.732   0.017   4.555
 1780SOL    HW1 6239   2.760   0.084   4.623
 1780SOL    HW2 6240   2.632   0.011   4.552
 1781SOL     OW 6241   4.681   1.192   5.819
 1781SOL    HW1 6242   4.762   1.237   5.781
 1781SOL    HW2 6243   4.661   1.231   5.908
 1782SOL     OW 6244   5.114   0.499   2.617
 1782SOL    HW1 6245   5.091   0.527   2.524
 1782SOL    HW2 6246   5.179   0.564   2.656
 1783SOL     OW 6247   1.868   3.202   0.147
 1783SOL    HW1 6248   1.784   3.250   0.125
 1783SOL    HW2 6249   1.859   3.105   0.121
 1784SOL     OW 6250   2.367   5.704   1.573
 1784SOL    HW1 6251   2.314   5.750   1.502
 1784SOL    HW2 6252   2.370   5.761   1.655
 1785SOL     OW 6253   2.013   5.252   4.586
 1785SOL    HW1 6254   1.959   5.316   4.533
 1785SOL    HW2 6255   2.037   5.173   4.530
 1786SOL     OW 6256   0.538   5.535   2.279
 1786SOL    HW1 6257   0.580   5.558   2.192
 1786SOL    HW2 6258   0.610   5.519   2.347
 1787SOL     OW 6259   2.610   2.574   6.139
 1787SOL    HW1 6260   2.519   2.611   6.157
 1787SOL    HW2 6261   2.602   2.489   6.086
 1788SOL     OW 6262   3.894   4.179   0.698
 1788SOL    HW1 6263   3.927   4.092   0.660
 1788SOL    HW2 6264   3.803   4.166   0.735
 1789SOL     OW 6265   5.804   2.748   2.817
 1789SOL    HW1 6266   5.753   2.665   2.792
 1789SOL    HW2 6267   5.740   2.825   2.822
 1790SOL     OW 6268   2.459   1.992   5.038
 1790SOL    HW1 6269   2.489   2.088   5.033
 1790SOL    HW2 6270   2.375   1.981   4.984
 1791SOL     OW 6271   6.034   0.574   3.253
 1791SOL    HW1 6272   6.075   0.576   3.344
 1791SOL    HW2 6273   6.041   0.665   3.211
 1792SOL     OW 6274   0.032   3.182   5.796
 1792SOL    HW1 6275   7.004   3.269   5.797
 1792SOL    HW2 6276   0.017   3.134   5.882
 1793SOL     OW 6277   0.654   1.713   5.076
 1793SOL    HW1 6278   0.581   1.653   5.043
 1793SOL    HW2 6279   0.675   1.689   5.171
 1794SOL     OW 6280   6.225   1.693   6.411
 1794SOL    HW1 6281   6.188   1.613   6.459
 1794SOL    HW2 6282   6.306   1.666   6.360
 1795SOL     OW 6283   5.773   4.396   0.778
 1795SOL    HW1 6284   5.791   4.317   0.719
 1795SOL    HW2 6285   5.855   4.419   0.830
 1796SOL     OW 6286   6.088   0.091   6.873
 1796SOL    HW1 6287   6.151   0.047   6.937
 1796SOL    HW2 6288   6.046   0.170   6.917
 1797SOL     OW 6289   3.254   6.192   5.912
 1797SOL    HW1 6290   3.320   6.174   5.985
 1797SOL    HW2 6291   3.165   6.212   5.951
 1798SOL     OW 6292   2.308   4.018   6.912
 1798SOL    HW1 6293   2.298   4.064   6.824
 1798SOL    HW2 6294   2.291   3.920   6.899
 1799SOL     OW 6295   3.471   1.667   1.629
 1799SOL    HW1 6296   3.494   1.590   1.690
 1799SOL    HW2 6297   3.487   1.640   1.534
 1800SOL     OW 6298   5.803   2.187   5.790
 1800SOL    HW1 6299   5.779   2.095   5.760
 1800SOL    HW2 6300   5.898   2.188   5.821
 1801SOL     OW 6301   0.853   1.967   1.998
 1801SOL    HW1 6302   0.878   1.875   1.967
 1801SOL    HW2 6303   0.765   1.963   2.046
 1802SOL     OW 6304   6.260   4.826   4.957
 1802SOL    HW1 6305   6.190   4.800   4.890
 1802SOL    HW2 6306   6.350   4.804   4.921
 1803SOL     OW 6307   6.693   6.945   3.786
 1803SOL    HW1 6308   6.661   6.866   3.733
 1803SOL    HW2 6309   6.617   7.007   3.801
 1804SOL     OW 6310   1.149   3.019   6.308
 1804SOL    HW1 6311   1.064   3.072   6.317
 1804SOL    HW2 6312   1.227   3.081   6.305
 1805SOL     OW 6313   6.516   5.038   5.989
 1805SOL    HW1 6314   6.578   4.989   5.928
 1805SOL    HW2 6315   6.430   4.987   5.997
 1806SOL     OW 6316   0.479   1.168   1.305
 1806SOL    HW1 6317   0.521   1.077   1.305
 1806SOL    HW2 6318   0.379   1.159   1.307
 1807SOL     OW 6319   6.121   2.361   2.353
 1807SOL    HW1 6320   6.153   2.433   2.292
 1807SOL    HW2 6321   6.065   2.401   2.426
 1808SOL     OW 6322   6.369   0.383   0.105
 1808SOL    HW1 6323   6.387   0.338   0.018
 1808SOL    HW2 6324   6.455   0.403   0.152
 1809SOL     OW 6325   4.444   0.574   4.683
 1809SOL    HW1 6326   4.436   0.568   4.583
 1809SOL    HW2 6327   4.389   0.502   4.725
 1810SOL     OW 6328   1.095   1.527   5.003
 1810SOL    HW1 6329   1.082   1.584   4.922
 1810SOL    HW2 6330   1.190   1.534   5.034
 1811SOL     OW 6331   3.378   5.395   1.873
 1811SOL    HW1 6332   3.314   5.412   1.948
 1811SOL    HW2 6333   3.331   5.411   1.786
 1812SOL     OW 6334   4.255   0.920   6.891
 1812SOL    HW1 6335   4.260   1.020   6.886
 1812SOL    HW2 6336   4.162   0.890   6.870
 1813SOL     OW 6337   5.798   3.525   1.795
 1813SOL    HW1 6338   5.714   3.472   1.781
 1813SOL    HW2 6339   5.844   3.538   1.708
 1814SOL     OW 6340   6.515   5.596   1.289
 1814SOL    HW1 6341   6.515   5.648   1.204
 1814SOL    HW2 6342   6.589   5.629   1.348
 1815SOL     OW 6343   5.933   5.277   1.238
 1815SOL    HW1 6344   5.863   5.329   1.286
 1815SOL    HW2 6345   5.904   5.181   1.231
 1816SOL     OW 6346   3.602   4.900   4.272
 1816SOL    HW1 6347   3.695   4.907   4.238
 1816SOL    HW2 6348   3.599   4.926   4.369
 1817SOL     OW 6349   6.477   2.899   3.924
 1817SOL    HW1 6350   6.472   2.999   3.917
 1817SOL    HW2 6351   6.431   2.870   4.008
 1818SOL     OW 6352   2.454   1.803   0.347
 1818SOL    HW1 6353   2.540   1.778   0.392
 1818SOL    HW2 6354   2.386   1.827   0.417
 1819SOL     OW 6355   0.989   3.386   1.237
 1819SOL    HW1 6356   1.076   3.340   1.254
 1819SOL    HW2 6357   1.007   3.477   1.199
 1820SOL     OW 6358   4.019   6.747   4.986
 1820SOL    HW1 6359   3.982   6.783   4.900
 1820SOL    HW2 6360   4.118   6.758   4.987
 1821SOL     OW 6361   3.840   1.410   2.381
 1821SOL    HW1 6362   3.857   1.368   2.470
 1821SOL    HW2 6363   3.799   1.343   2.319
 1822SOL     OW 6364   2.278   4.250   4.756
 1822SOL    HW1 6365   2.334   4.216   4.832
 1822SOL    HW2 6366   2.218   4.177   4.723
 1823SOL     OW 6367   4.633   6.947   4.206
 1823SOL    HW1 6368   4.677   6.893   4.278
 1823SOL    HW2 6369   4.572   7.014   4.247
 1824SOL     OW 6370   4.557   2.697   1.692
 1824SOL    HW1 6371   4.591   2.677   1.784
 1824SOL    HW2 6372   4.521   2.790   1.689
 1825SOL     OW 6373   1.346   3.860   0.162
 1825SOL    HW1 6374   1.314   3.886   0.253
 1825SOL    HW2 6375   1.402   3.933   0.124
 1826SOL     OW 6376   3.927   2.947   0.225
 1826SOL    HW1 6377   3.894   3.013   0.293
 1826SOL    HW2 6378   3.853   2.925   0.162
 1827SOL     OW 6379   5.249   4.699   0.791
 1827SOL    HW1 6380   5.211   4.791   0.802
 1827SOL    HW2 6381   5.324   4.701   0.725
 1828SOL     OW 6382   2.639   5.717   5.110
 1828SOL    HW1 6383   2.598   5.692   5.022
 1828SOL    HW2 6384   2.726   5.668   5.121
 1829SOL     OW 6385   1.773   6.295   2.617
 1829SOL    HW1 6386   1.735   6.322   2.705
 1829SOL    HW2 6387   1.699   6.276   2.553
 1830SOL     OW 6388   4.269   1.218   6.716
 1830SOL    HW1 6389   4.329   1.233   6.795
 1830SOL    HW2 6390   4.177   1.250   6.737
 1831SOL     OW 6391   3.632   4.503   6.801
 1831SOL    HW1 6392   3.626   4.403   6.794
 1831SOL    HW2 6393   3.723   4.529   6.831
 1832SOL     OW 6394   2.087   2.644   5.731
 1832SOL    HW1 6395   2.136   2.665   5.646
 1832SOL    HW2 6396   2.063   2.546   5.732
 1833SOL     OW 6397   5.825   1.617   0.171
 1833SOL    HW1 6398   5.908   1.661   0.205
 1833SOL    HW2 6399   5.792   1.664   0.090
 1834SOL     OW 6400   2.163   4.166   6.714
 1834SOL    HW1 6401   2.105   4.130   6.640
 1834SOL    HW2 6402   2.109   4.170   6.798
 1835SOL     OW 6403   5.970   6.923   6.721
 1835SOL    HW1 6404   6.015   6.986   6.784
 1835SOL    HW2 6405   5.872   6.944   6.717
 1836SOL     OW 6406   6.006   0.819   4.778
 1836SOL    HW1 6407   5.963   0.816   4.688
 1836SOL    HW2 6408   6.076   0.891   4.779
 1837SOL     OW 6409   1.368   2.067   1.163
 1837SOL    HW1 6410   1.466   2.080   1.178
 1837SOL    HW2 6411   1.353   1.987   1.105
 1838SOL     OW 6412   5.166   0.407   0.422
 1838SOL    HW1 6413   5.131   0.390   0.514
 1838SOL    HW2 6414   5.195   0.320   0.381
 1839SOL     OW 6415   6.661   1.818   6.184
 1839SOL    HW1 6416   6.742   1.842   6.239
 1839SOL    HW2 6417   6.603   1.756   6.237
 1840SOL     OW 6418   2.531   6.960   5.504
 1840SOL    HW1 6419   2.564   6.916   5.588
 1840SOL    HW2 6420   2.446   7.009   5.524
 1841SOL     OW 6421   2.399   6.975   1.950
 1841SOL    HW1 6422   2.331   6.902   1.949
 1841SOL    HW2 6423   2.415   7.006   2.043
 1842SOL     OW 6424   6.861   4.570   1.855
 1842SOL    HW1 6425   6.811   4.552   1.770
 1842SOL    HW2 6426   6.926   4.495   1.872
 1843SOL     OW 6427   2.981   0.927   6.959
 1843SOL    HW1 6428   3.012   0.949   6.866
 1843SOL    HW2 6429   2.990   0.829   6.975
 1844SOL     OW 6430   5.003   3.459   0.960
 1844SOL    HW1 6431   4.943   3.403   1.017
 1844SOL    HW2 6432   5.028   3.409   0.878
 1845SOL     OW 6433   0.448   2.708   4.345
 1845SOL    HW1 6434   0.418   2.626   4.394
 1845SOL    HW2 6435   0.547   2.707   4.335
 1846SOL     OW 6436   3.966   1.634   2.273
 1846SOL    HW1 6437   3.924   1.551   2.310
 1846SOL    HW2 6438   3.903   1.679   2.210
 1847SOL     OW 6439   3.033   5.799   6.674
 1847SOL    HW1 6440   3.030   5.879   6.615
 1847SOL    HW2 6441   3.115   5.801   6.730
 1848SOL     OW 6442   3.308   5.709   4.424
 1848SOL    HW1 6443   3.251   5.655   4.486
 1848SOL    HW2 6444   3.404   5.698   4.448
 1849SOL     OW 6445   4.616   2.634   2.356
 1849SOL    HW1 6446   4.664   2.716   2.324
 1849SOL    HW2 6447   4.570   2.591   2.278
 1850SOL     OW 6448   4.831   1.430   1.010
 1850SOL    HW1 6449   4.891   1.394   1.081
 1850SOL    HW2 6450   4.810   1.357   0.944
 1851SOL     OW 6451   1.513   5.170   3.738
 1851SOL    HW1 6452   1.511   5.235   3.663
 1851SOL    HW2 6453   1.425   5.170   3.786
 1852SOL     OW 6454   0.302   0.075   3.707
 1852SOL    HW1 6455   0.319   0.167   3.671
 1852SOL    HW2 6456   0.307   0.077   3.807
 1853SOL     OW 6457   0.969   2.176   5.263
 1853SOL    HW1 6458   1.003   2.184   5.356
 1853SOL    HW2 6459   0.959   2.268   5.223
 1854SOL     OW 6460   0.837   6.798   3.945
 1854SOL    HW1 6461   0.873   6.820   3.855
 1854SOL    HW2 6462   0.744   6.763   3.936
 1855SOL     OW 6463   6.677   1.599   5.000
 1855SOL    HW1 6464   6.647   1.678   5.054
 1855SOL    HW2 6465   6.775   1.605   4.984
 1856SOL     OW 6466   5.058   3.779   6.623
 1856SOL    HW1 6467   5.138   3.797   6.566
 1856SOL    HW2 6468   5.079   3.707   6.689
 1857SOL     OW 6469   4.623   1.058   6.624
 1857SOL    HW1 6470   4.660   0.967   6.604
 1857SOL    HW2 6471   4.635   1.078   6.721
 1858SOL     OW 6472   5.115   2.088   4.643
 1858SOL    HW1 6473   5.096   2.186   4.636
 1858SOL    HW2 6474   5.041   2.036   4.600
 1859SOL     OW 6475   6.206   6.154   2.662
 1859SOL    HW1 6476   6.196   6.142   2.563
 1859SOL    HW2 6477   6.183   6.248   2.686
 1860SOL     OW 6478   2.151   0.865   0.678
 1860SOL    HW1 6479   2.224   0.802   0.652
 1860SOL    HW2 6480   2.136   0.858   0.777
 1861SOL     OW 6481   6.515   6.915   5.596
 1861SOL    HW1 6482   6.529   6.992   5.657
 1861SOL    HW2 6483   6.564   6.932   5.510
 1862SOL     OW 6484   3.904   5.087   5.087
 1862SOL    HW1 6485   3.969   5.160   5.107
 1862SOL    HW2 6486   3.866   5.101   4.995
 1863SOL     OW 6487   0.023   0.959   1.452
 1863SOL    HW1 6488   6.960   0.942   1.503
 1863SOL    HW2 6489   0.032   0.892   1.378
 1864SOL     OW 6490   2.479   5.997   2.341
 1864SOL    HW1 6491   2.416   5.951   2.404
 1864SOL    HW2 6492   2.434   6.008   2.252
 1865SOL     OW 6493   5.951   2.435   5.528
 1865SOL    HW1 6494   5.992   2.525   5.541
 1865SOL    HW2 6495   5.983   2.374   5.601
 1866SOL     OW 6496   0.444   4.200   5.110
 1866SOL    HW1 6497   0.348   4.213   5.137
 1866SOL    HW2 6498   0.475   4.111   5.142
 1867SOL     OW 6499   1.267   0.665   1.134
 1867SOL    HW1 6500   1.350   0.702   1.175
 1867SOL    HW2 6501   1.250   0.711   1.046
 1868SOL     OW 6502   5.373   3.503   5.891
 1868SOL    HW1 6503   5.417   3.496   5.801
 1868SOL    HW2 6504   5.435   3.550   5.954
 1869SOL     OW 6505   5.368   0.488   4.927
 1869SOL    HW1 6506   5.426   0.563   4.958
 1869SOL    HW2 6507   5.422   0.403   4.924
 1870SOL     OW 6508   5.334   0.974   5.624
 1870SOL    HW1 6509   5.373   0.883   5.622
 1870SOL    HW2 6510   5.333   1.012   5.531
 1871SOL     OW 6511   2.564   4.627   6.918
 1871SOL    HW1 6512   2.509   4.653   6.997
 1871SOL    HW2 6513   2.658   4.609   6.947
 1872SOL     OW 6514   2.482   3.353   0.118
 1872SOL    HW1 6515   2.480   3.450   0.144
 1872SOL    HW2 6516   2.505   3.298   0.198
 1873SOL     OW 6517   5.845   1.447   2.067
 1873SOL    HW1 6518   5.874   1.352   2.057
 1873SOL    HW2 6519   5.926   1.505   2.074
 1874SOL     OW 6520   2.201   5.230   6.572
 1874SOL    HW1 6521   2.297   5.234   6.544
 1874SOL    HW2 6522   2.146   5.192   6.497
 1875SOL     OW 6523   0.996   6.036   2.560
 1875SOL    HW1 6524   0.897   6.046   2.545
 1875SOL    HW2 6525   1.012   6.004   2.653
 1876SOL     OW 6526   0.667   5.023   5.761
 1876SOL    HW1 6527   0.755   5.036   5.715
 1876SOL    HW2 6528   0.660   4.929   5.794
 1877SOL     OW 6529   0.463   1.106   3.595
 1877SOL    HW1 6530   0.408   1.190   3.589
 1877SOL    HW2 6531   0.403   1.026   3.587
 1878SOL     OW 6532   6.033   3.852   4.518
 1878SOL    HW1 6533   6.088   3.924   4.474
 1878SOL    HW2 6534   5.965   3.894   4.577
 1879SOL     OW 6535   4.019   6.103   5.295
 1879SOL    HW1 6536   3.982   6.061   5.378
 1879SOL    HW2 6537   3.987   6.198   5.288
 1880SOL     OW 6538   1.798   3.549   4.654
 1880SOL    HW1 6539   1.774   3.457   4.687
 1880SOL    HW2 6540   1.811   3.609   4.733
 1881SOL     OW 6541   2.511   2.256   3.113
 1881SOL    HW1 6542   2.477   2.163   3.128
 1881SOL    HW2 6543   2.467   2.295   3.032
 1882SOL     OW 6544   4.092   6.916   0.159
 1882SOL    HW1 6545   4.088   6.852   0.236
 1882SOL    HW2 6546   4.184   6.914   0.119
 1883SOL     OW 6547   2.131   3.446   2.763
 1883SOL    HW1 6548   2.158   3.386   2.688
 1883SOL    HW2 6549   2.123   3.540   2.729
 1884SOL     OW 6550   4.948   1.115   0.028
 1884SOL    HW1 6551   4.999   1.142   0.111
 1884SOL    HW2 6552   4.853   1.097   0.052
 1885SOL     OW 6553   0.278   1.784   0.813
 1885SOL    HW1 6554   0.207   1.716   0.829
 1885SOL    HW2 6555   0.239   1.863   0.766
 1886SOL     OW 6556   3.507   3.088   4.480
 1886SOL    HW1 6557   3.511   3.171   4.424
 1886SOL    HW2 6558   3.475   3.111   4.571
 1887SOL     OW 6559   0.966   5.795   5.292
 1887SOL    HW1 6560   1.061   5.821   5.307
 1887SOL    HW2 6561   0.925   5.765   5.378
 1888SOL     OW 6562   2.015   2.062   5.868
 1888SOL    HW1 6563   1.970   2.082   5.781
 1888SOL    HW2 6564   2.110   2.092   5.864
 1889SOL     OW 6565   3.736   3.731   0.086
 1889SOL    HW1 6566   3.723   3.675   0.005
 1889SOL    HW2 6567   3.758   3.825   0.059
 1890SOL     OW 6568   6.102   6.505   6.384
 1890SOL    HW1 6569   6.122   6.548   6.296
 1890SOL    HW2 6570   6.186   6.496   6.437
 1891SOL     OW 6571   5.457   3.146   6.991
 1891SOL    HW1 6572   5.448   3.245   7.003
 1891SOL    HW2 6573   5.514   3.127   6.911
 1892SOL     OW 6574   4.063   0.810   3.277
 1892SOL    HW1 6575   4.095   0.750   3.350
 1892SOL    HW2 6576   3.963   0.814   3.278
 1893SOL     OW 6577   2.929   2.314   0.030
 1893SOL    HW1 6578   2.834   2.318   0.000
 1893SOL    HW2 6579   2.983   2.265   6.983
 1894SOL     OW 6580   5.038   3.138   0.851
 1894SOL    HW1 6581   5.048   3.220   0.794
 1894SOL    HW2 6582   5.035   3.057   0.792
 1895SOL     OW 6583   4.208   5.577   2.866
 1895SOL    HW1 6584   4.186   5.609   2.774
 1895SOL    HW2 6585   4.302   5.603   2.889
 1896SOL     OW 6586   0.056   1.630   4.673
 1896SOL    HW1 6587   0.130   1.631   4.740
 1896SOL    HW2 6588   0.094   1.618   4.581
 1897SOL     OW 6589   5.324   5.322   3.351
 1897SOL    HW1 6590   5.321   5.405   3.297
 1897SOL    HW2 6591   5.273   5.249   3.305
 1898SOL     OW 6592   5.098   6.596   0.221
 1898SOL    HW1 6593   5.198   6.608   0.220
 1898SOL    HW2 6594   5.063   6.604   0.128
 1899SOL     OW 6595   1.598   3.068   3.677
 1899SOL    HW1 6596   1.518   3.118   3.709
 1899SOL    HW2 6597   1.677   3.091   3.735
 1900SOL     OW 6598   2.836   5.720   1.174
 1900SOL    HW1 6599   2.786   5.675   1.099
 1900SOL    HW2 6600   2.843   5.657   1.251
 1901SOL     OW 6601   0.465   1.734   6.010
 1901SOL    HW1 6602   0.425   1.705   5.924
 1901SOL    HW2 6603   0.488   1.831   6.006
 1902SOL     OW 6604   1.499   2.584   4.718
 1902SOL    HW1 6605   1.443   2.506   4.691
 1902SOL    HW2 6606   1.547   2.562   4.804
 1903SOL     OW 6607   6.947   5.886   3.832
 1903SOL    HW1 6608   6.955   5.971   3.781
 1903SOL    HW2 6609   6.862   5.839   3.806
 1904SOL     OW 6610   0.418   6.995   4.412
 1904SOL    HW1 6611   0.494   6.998   4.476
 1904SOL    HW2 6612   0.422   0.053   4.352
 1905SOL     OW 6613   5.769   3.388   5.333
 1905SOL    HW1 6614   5.801   3.305   5.378
 1905SOL    HW2 6615   5.838   3.421   5.268
 1906SOL     OW 6616   2.212   6.261   5.923
 1906SOL    HW1 6617   2.292   6.201   5.921
 1906SOL    HW2 6618   2.242   6.356   5.917
 1907SOL     OW 6619   4.102   6.698   3.035
 1907SOL    HW1 6620   4.056   6.615   3.065
 1907SOL    HW2 6621   4.077   6.718   2.940
 1908SOL     OW 6622   4.967   4.732   1.062
 1908SOL    HW1 6623   4.944   4.650   1.011
 1908SOL    HW2 6624   5.042   4.780   1.015
 1909SOL     OW 6625   4.884   5.314   3.626
 1909SOL    HW1 6626   4.840   5.349   3.544
 1909SOL    HW2 6627   4.977   5.284   3.605
 1910SOL     OW 6628   5.273   3.712   4.162
 1910SOL    HW1 6629   5.364   3.682   4.134
 1910SOL    HW2 6630   5.220   3.634   4.195
 1911SOL     OW 6631   0.868   2.431   5.501
 1911SOL    HW1 6632   0.804   2.355   5.514
 1911SOL    HW2 6633   0.926   2.440   5.581
 1912SOL     OW 6634   3.158   0.002   2.407
 1912SOL    HW1 6635   3.207   6.982   2.485
 1912SOL    HW2 6636   3.060   0.002   2.425
 1913SOL     OW 6637   2.778   4.041   6.893
 1913SOL    HW1 6638   2.711   4.073   6.959
 1913SOL    HW2 6639   2.734   3.977   6.829
 1914SOL     OW 6640   4.302   1.469   5.187
 1914SOL    HW1 6641   4.256   1.514   5.264
 1914SOL    HW2 6642   4.247   1.480   5.104
 1915SOL     OW 6643   2.567   6.508   5.142
 1915SOL    HW1 6644   2.605   6.586   5.092
 1915SOL    HW2 6645   2.518   6.541   5.223
 1916SOL     OW 6646   3.160   6.574   2.409
 1916SOL    HW1 6647   3.143   6.600   2.504
 1916SOL    HW2 6648   3.109   6.636   2.348
 1917SOL     OW 6649   4.137   3.584   3.420
 1917SOL    HW1 6650   4.040   3.590   3.396
 1917SOL    HW2 6651   4.192   3.616   3.343
 1918SOL     OW 6652   0.810   6.430   5.758
 1918SOL    HW1 6653   0.754   6.460   5.836
 1918SOL    HW2 6654   0.808   6.500   5.687
 1919SOL     OW 6655   5.405   0.496   1.777
 1919SOL    HW1 6656   5.503   0.513   1.783
 1919SOL    HW2 6657   5.385   0.402   1.804
 1920SOL     OW 6658   6.184   6.675   4.362
 1920SOL    HW1 6659   6.195   6.624   4.447
 1920SOL    HW2 6660   6.256   6.649   4.297
 1921SOL     OW 6661   2.391   6.664   6.629
 1921SOL    HW1 6662   2.453   6.653   6.552
 1921SOL    HW2 6663   2.349   6.754   6.627
 1922SOL     OW 6664   3.887   4.548   6.938
 1922SOL    HW1 6665   3.922   4.459   6.966
 1922SOL    HW2 6666   3.850   4.597   7.017
 1923SOL     OW 6667   1.867   2.868   0.970
 1923SOL    HW1 6668   1.963   2.892   0.990
 1923SOL    HW2 6669   1.834   2.804   1.039
 1924SOL     OW 6670   0.659   3.894   1.794
 1924SOL    HW1 6671   0.593   3.866   1.724
 1924SOL    HW2 6672   0.750   3.863   1.767
 1925SOL     OW 6673   3.264   4.710   0.126
 1925SOL    HW1 6674   3.328   4.737   0.055
 1925SOL    HW2 6675   3.302   4.731   0.216
 1926SOL     OW 6676   0.357   0.303   3.554
 1926SOL    HW1 6677   0.437   0.291   3.495
 1926SOL    HW2 6678   0.278   0.329   3.498
 1927SOL     OW 6679   5.152   3.327   1.421
 1927SOL    HW1 6680   5.160   3.227   1.426
 1927SOL    HW2 6681   5.068   3.356   1.467
 1928SOL     OW 6682   0.301   5.475   4.509
 1928SOL    HW1 6683   0.303   5.525   4.422
 1928SOL    HW2 6684   0.314   5.378   4.491
 1929SOL     OW 6685   1.216   4.608   2.817
 1929SOL    HW1 6686   1.283   4.676   2.790
 1929SOL    HW2 6687   1.161   4.643   2.892
 1930SOL     OW 6688   6.596   5.677   5.749
 1930SOL    HW1 6689   6.566   5.772   5.754
 1930SOL    HW2 6690   6.517   5.617   5.764
 1931SOL     OW 6691   2.101   2.633   3.408
 1931SOL    HW1 6692   2.176   2.699   3.414
 1931SOL    HW2 6693   2.069   2.610   3.500
 1932SOL     OW 6694   6.333   3.145   2.316
 1932SOL    HW1 6695   6.397   3.207   2.361
 1932SOL    HW2 6696   6.264   3.114   2.382
 1933SOL     OW 6697   2.690   5.457   0.221
 1933SOL    HW1 6698   2.786   5.429   0.227
 1933SOL    HW2 6699   2.686   5.556   0.207
 1934SOL     OW 6700   0.032   6.260   2.984
 1934SOL    HW1 6701   7.014   6.322   3.052
 1934SOL    HW2 6702   0.010   6.293   2.892
 1935SOL     OW 6703   1.225   1.468   2.735
 1935SOL    HW1 6704   1.128   1.446   2.726
 1935SOL    HW2 6705   1.276   1.385   2.758
 1936SOL     OW 6706   0.437   5.809   4.815
 1936SOL    HW1 6707   0.494   5.884   4.847
 1936SOL    HW2 6708   0.491   5.748   4.757
 1937SOL     OW 6709   4.420   1.685   3.369
 1937SOL    HW1 6710   4.444   1.759   3.433
 1937SOL    HW2 6711   4.334   1.643   3.399
 1938SOL     OW 6712   5.125   6.663   3.918
 1938SOL    HW1 6713   5.126   6.763   3.920
 1938SOL    HW2 6714   5.054   6.633   3.854
 1939SOL     OW 6715   2.542   0.837   4.399
 1939SOL    HW1 6716   2.567   0.741   4.381
 1939SOL    HW2 6717   2.550   0.854   4.497
 1940SOL     OW 6718   6.245   6.897   6.628
 1940SOL    HW1 6719   6.154   6.858   6.634
 1940SOL    HW2 6720   6.239   6.997   6.635
 1941SOL     OW 6721   4.152   5.296   2.901
 1941SOL    HW1 6722   4.139   5.393   2.922
 1941SOL    HW2 6723   4.185   5.248   2.982
 1942SOL     OW 6724   0.372   3.426   2.701
 1942SOL    HW1 6725   0.281   3.458   2.674
 1942SOL    HW2 6726   0.389   3.452   2.796
 1943SOL     OW 6727   3.564   5.581   3.377
 1943SOL    HW1 6728   3.634   5.548   3.441
 1943SOL    HW2 6729   3.608   5.626   3.300
 1944SOL     OW 6730   6.982   6.407   1.931
 1944SOL    HW1 6731   0.017   6.335   1.973
 1944SOL    HW2 6732   6.887   6.395   1.957
 1945SOL     OW 6733   2.665   5.057   2.736
 1945SOL    HW1 6734   2.653   5.153   2.763
 1945SOL    HW2 6735   2.750   5.023   2.775
 1946SOL     OW 6736   1.398   6.480   6.928
 1946SOL    HW1 6737   1.496   6.498   6.920
 1946SOL    HW2 6738   1.372   6.476   0.003
 1947SOL     OW 6739   4.246   0.846   3.820
 1947SOL    HW1 6740   4.298   0.788   3.883
 1947SOL    HW2 6741   4.269   0.942   3.837
 1948SOL     OW 6742   6.319   2.883   4.935
 1948SOL    HW1 6743   6.263   2.965   4.919
 1948SOL    HW2 6744   6.379   2.899   5.014
 1949SOL     OW 6745   4.820   3.453   0.080
 1949SOL    HW1 6746   4.911   3.493   0.094
 1949SOL    HW2 6747   4.830   3.358   0.050
 1950SOL     OW 6748   2.954   5.251   0.771
 1950SOL    HW1 6749   2.982   5.305   0.850
 1950SOL    HW2 6750   2.880   5.189   0.798
 1951SOL     OW 6751   6.039   2.753   6.889
 1951SOL    HW1 6752   6.005   2.790   6.802
 1951SOL    HW2 6753   6.136   2.776   6.898
 1952SOL     OW 6754   2.902   3.503   3.711
 1952SOL    HW1 6755   2.941   3.411   3.709
 1952SOL    HW2 6756   2.887   3.530   3.806
 1953SOL     OW 6757   0.363   2.484   4.487
 1953SOL    HW1 6758   0.385   2.386   4.493
 1953SOL    HW2 6759   0.265   2.497   4.498
 1954SOL     OW 6760   2.194   2.328   4.240
 1954SOL    HW1 6761   2.282   2.284   4.258
 1954SOL    HW2 6762   2.194   2.366   4.147
 1955SOL     OW 6763   6.478   5.750   2.942
 1955SOL    HW1 6764   6.518   5.773   3.031
 1955SOL    HW2 6765   6.382   5.777   2.941
 1956SOL     OW 6766   4.015   6.036   3.122
 1956SOL    HW1 6767   4.012   6.076   3.214
 1956SOL    HW2 6768   3.936   5.974   3.111
 1957SOL     OW 6769   2.239   6.383   5.359
 1957SOL    HW1 6770   2.275   6.328   5.435
 1957SOL    HW2 6771   2.284   6.472   5.359
 1958SOL     OW 6772   3.964   3.801   6.400
 1958SOL    HW1 6773   3.886   3.778   6.342
 1958SOL    HW2 6774   3.944   3.775   6.494
 1959SOL     OW 6775   2.546   0.458   0.833
 1959SOL    HW1 6776   2.577   0.387   0.896
 1959SOL    HW2 6777   2.446   0.452   0.822
 1960SOL     OW 6778   5.192   5.145   3.176
 1960SOL    HW1 6779   5.105   5.157   3.128
 1960SOL    HW2 6780   5.267   5.150   3.111
 1961SOL     OW 6781   5.542   4.360   5.405
 1961SOL    HW1 6782   5.568   4.374   5.310
 1961SOL    HW2 6783   5.570   4.439   5.459
 1962SOL     OW 6784   0.575   6.547   3.982
 1962SOL    HW1 6785   0.562   6.588   4.072
 1962SOL    HW2 6786   0.528   6.602   3.913
 1963SOL     OW 6787   2.584   1.528   3.859
 1963SOL    HW1 6788   2.666   1.568   3.900
 1963SOL    HW2 6789   2.564   1.441   3.902
 1964SOL     OW 6790   6.804   3.061   2.009
 1964SOL    HW1 6791   6.886   3.016   2.043
 1964SOL    HW2 6792   6.823   3.158   1.992
 1965SOL     OW 6793   2.489   0.401   3.008
 1965SOL    HW1 6794   2.430   0.321   3.020
 1965SOL    HW2 6795   2.441   0.483   3.041
 1966SOL     OW 6796   6.865   6.346   7.002
 1966SOL    HW1 6797   6.960   6.364   6.976
 1966SOL    HW2 6798   6.812   6.431   6.999
 1967SOL     OW 6799   6.033   2.684   4.731
 1967SOL    HW1 6800   6.132   2.671   4.731
 1967SOL    HW2 6801   6.001   2.694   4.825
 1968SOL     OW 6802   3.963   5.567   4.414
 1968SOL    HW1 6803   3.878   5.570   4.468
 1968SOL    HW2 6804   4.003   5.475   4.419
 1969SOL     OW 6805   6.441   0.769   1.278
 1969SOL    HW1 6806   6.487   0.838   1.334
 1969SOL    HW2 6807   6.483   0.680   1.293
 1970SOL     OW 6808   2.106   1.382   4.639
 1970SOL    HW1 6809   2.115   1.284   4.655
 1970SOL    HW2 6810   2.197   1.421   4.624
 1971SOL     OW 6811   0.122   1.508   5.854
 1971SOL    HW1 6812   0.072   1.445   5.794
 1971SOL    HW2 6813   0.059   1.549   5.920
 1972SOL     OW 6814   1.143   0.153   3.558
 1972SOL    HW1 6815   1.144   0.074   3.619
 1972SOL    HW2 6816   1.051   0.192   3.556
 1973SOL     OW 6817   3.085   3.037   0.233
 1973SOL    HW1 6818   3.113   2.948   0.268
 1973SOL    HW2 6819   3.139   3.060   0.152
 1974SOL     OW 6820   6.341   6.387   3.991
 1974SOL    HW1 6821   6.413   6.391   3.922
 1974SOL    HW2 6822   6.369   6.436   4.073
 1975SOL     OW 6823   2.739   0.018   3.597
 1975SOL    HW1 6824   2.774   0.106   3.628
 1975SOL    HW2 6825   2.815   6.982   3.565
 1976SOL     OW 6826   6.321   4.836   6.044
 1976SOL    HW1 6827   6.356   4.804   6.132
 1976SOL    HW2 6828   6.222   4.824   6.042
 1977SOL     OW 6829   3.277   2.184   5.300
 1977SOL    HW1 6830   3.210   2.250   5.266
 1977SOL    HW2 6831   3.331   2.148   5.224
 1978SOL     OW 6832   6.577   2.561   4.766
 1978SOL    HW1 6833   6.533   2.472   4.763
 1978SOL    HW2 6834   6.642   2.569   4.690
 1979SOL     OW 6835   6.703   3.753   2.505
 1979SOL    HW1 6836   6.802   3.748   2.492
 1979SOL    HW2 6837   6.667   3.833   2.457
 1980SOL     OW 6838   2.677   0.632   2.878
 1980SOL    HW1 6839   2.775   0.614   2.883
 1980SOL    HW2 6840   2.627   0.547   2.890
 1981SOL     OW 6841   5.723   3.500   2.237
 1981SOL    HW1 6842   5.781   3.429   2.276
 1981SOL    HW2 6843   5.710   3.483   2.139
 1982SOL     OW 6844   0.375   0.094   5.534
 1982SOL    HW1 6845   0.296   0.107   5.474
 1982SOL    HW2 6846   0.459   0.091   5.479
 1983SOL     OW 6847   0.739   4.725   1.675
 1983SOL    HW1 6848   0.802   4.705   1.751
 1983SOL    HW2 6849   0.659   4.666   1.683
 1984SOL     OW 6850   3.999   1.030   5.556
 1984SOL    HW1 6851   3.948   0.952   5.518
 1984SOL    HW2 6852   3.966   1.050   5.648
 1985SOL     OW 6853   1.392   5.341   1.820
 1985SOL    HW1 6854   1.313   5.334   1.880
 1985SOL    HW2 6855   1.461   5.274   1.847
 1986SOL     OW 6856   6.777   2.276   0.494
 1986SOL    HW1 6857   6.783   2.376   0.486
 1986SOL    HW2 6858   6.691   2.251   0.537
 1987SOL     OW 6859   2.650   3.588   0.430
 1987SOL    HW1 6860   2.602   3.576   0.516
 1987SOL    HW2 6861   2.705   3.506   0.411
 1988SOL     OW 6862   4.964   2.822   0.939
 1988SOL    HW1 6863   4.990   2.800   0.845
 1988SOL    HW2 6864   4.895   2.894   0.938
 1989SOL     OW 6865   2.662   2.267   3.661
 1989SOL    HW1 6866   2.740   2.224   3.617
 1989SOL    HW2 6867   2.653   2.361   3.628
 1990SOL     OW 6868   1.027   0.983   2.986
 1990SOL    HW1 6869   1.014   0.912   3.055
 1990SOL    HW2 6870   0.946   0.989   2.928
 1991SOL     OW 6871   4.639   6.219   2.737
 1991SOL    HW1 6872   4.677   6.208   2.829
 1991SOL    HW2 6873   4.703   6.182   2.670
 1992SOL     OW 6874   2.512   5.277   5.371
 1992SOL    HW1 6875   2.478   5.239   5.285
 1992SOL    HW2 6876   2.457   5.357   5.395
 1993SOL     OW 6877   3.066   3.162   4.128
 1993SOL    HW1 6878   3.162   3.189   4.133
 1993SOL    HW2 6879   3.053   3.098   4.053
 1994SOL     OW 6880   6.671   2.049   1.876
 1994SOL    HW1 6881   6.634   2.092   1.958
 1994SOL    HW2 6882   6.767   2.026   1.891
 1995SOL     OW 6883   3.766   2.115   1.402
 1995SOL    HW1 6884   3.848   2.110   1.459
 1995SOL    HW2 6885   3.793   2.118   1.306
 1996SOL     OW 6886   2.197   4.689   5.243
 1996SOL    HW1 6887   2.210   4.635   5.160
 1996SOL    HW2 6888   2.205   4.631   5.324
 1997SOL     OW 6889   5.769   6.124   3.933
 1997SOL    HW1 6890   5.791   6.119   4.030
 1997SOL    HW2 6891   5.851   6.101   3.879
 1998SOL     OW 6892   3.057   4.828   4.467
 1998SOL    HW1 6893   2.998   4.751   4.441
 1998SOL    HW2 6894   3.006   4.913   4.460
 1999SOL     OW 6895   2.981   1.724   2.082
 1999SOL    HW1 6896   3.025   1.798   2.132
 1999SOL    HW2 6897   2.893   1.755   2.046
 2000SOL     OW 6898   2.647   1.315   5.137
 2000SOL    HW1 6899   2.583   1.296   5.062
 2000SOL    HW2 6900   2.657   1.234   5.193
 2001SOL     OW 6901   2.559   2.418   6.729
 2001SOL    HW1 6902   2.493   2.350   6.761
 2001SOL    HW2 6903   2.522   2.466   6.650
 2002SOL     OW 6904   1.626   4.851   4.960
 2002SOL    HW1 6905   1.639   4.914   5.036
 2002SOL    HW2 6906   1.659   4.894   4.876
 2003SOL     OW 6907   6.235   3.891   3.305
 2003SOL    HW1 6908   6.137   3.876   3.318
 2003SOL    HW2 6909   6.258   3.883   3.208
 2004SOL     OW 6910   3.352   6.967   6.769
 2004SOL    HW1 6911   3.388   6.880   6.801
 2004SOL    HW2 6912   3.294   7.007   6.840
 2005SOL     OW 6913   3.016   6.657   5.063
 2005SOL    HW1 6914   3.007   6.650   4.963
 2005SOL    HW2 6915   2.925   6.667   5.103
 2006SOL     OW 6916   4.704   6.889   3.579
 2006SOL    HW1 6917   4.610   6.916   3.560
 2006SOL    HW2 6918   4.760   6.904   3.497
 2007SOL     OW 6919   6.747   5.685   6.781
 2007SOL    HW1 6920   6.718   5.762   6.838
 2007SOL    HW2 6921   6.736   5.600   6.833
 2008SOL     OW 6922   0.495   5.731   5.524
 2008SOL    HW1 6923   0.493   5.638   5.561
 2008SOL    HW2 6924   0.420   5.784   5.564
 2009SOL     OW 6925   1.154   0.570   7.000
 2009SOL    HW1 6926   1.115   0.478   6.993
 2009SOL    HW2 6927   1.197   0.580   0.069
 2010SOL     OW 6928   2.169   1.257   1.055
 2010SOL    HW1 6929   2.154   1.170   1.008
 2010SOL    HW2 6930   2.160   1.332   0.990
 2011SOL     OW 6931   6.359   1.542   4.558
 2011SOL    HW1 6932   6.403   1.563   4.471
 2011SOL    HW2 6933   6.358   1.623   4.616
 2012SOL     OW 6934   6.800   3.288   1.313
 2012SOL    HW1 6935   6.887   3.333   1.297
 2012SOL    HW2 6936   6.816   3.192   1.339
 2013SOL     OW 6937   3.772   2.554   1.476
 2013SOL    HW1 6938   3.733   2.581   1.563
 2013SOL    HW2 6939   3.824   2.630   1.437
 2014SOL     OW 6940   3.058   5.607   3.512
 2014SOL    HW1 6941   3.126   5.665   3.558
 2014SOL    HW2 6942   3.067   5.513   3.544
 2015SOL     OW 6943   2.984   5.550   0.590
 2015SOL    HW1 6944   2.974   5.451   0.599
 2015SOL    HW2 6945   2.968   5.576   0.495
 2016SOL     OW 6946   5.768   5.392   4.812
 2016SOL    HW1 6947   5.746   5.424   4.721
 2016SOL    HW2 6948   5.684   5.381   4.865
 2017SOL     OW 6949   1.952   5.273   2.109
 2017SOL    HW1 6950   1.911   5.196   2.060
 2017SOL    HW2 6951   1.881   5.341   2.129
 2018SOL     OW 6952   0.503   4.269   5.564
 2018SOL    HW1 6953   0.496   4.296   5.660
 2018SOL    HW2 6954   0.558   4.186   5.556
 2019SOL     OW 6955   5.250   0.850   2.558
 2019SOL    HW1 6956   5.329   0.907   2.538
 2019SOL    HW2 6957   5.167   0.895   2.526
 2020SOL     OW 6958   2.399   5.451   3.527
 2020SOL    HW1 6959   2.463   5.409   3.590
 2020SOL    HW2 6960   2.305   5.434   3.558
 2021SOL     OW 6961   1.803   5.921   1.832
 2021SOL    HW1 6962   1.840   5.836   1.794
 2021SOL    HW2 6963   1.820   5.924   1.930
 2022SOL     OW 6964   3.446   5.625   1.572
 2022SOL    HW1 6965   3.385   5.603   1.648
 2022SOL    HW2 6966   3.394   5.668   1.498
 2023SOL     OW 6967   6.501   2.176   5.580
 2023SOL    HW1 6968   6.530   2.270   5.561
 2023SOL    HW2 6969   6.404   2.175   5.606
 2024SOL     OW 6970   5.826   0.490   3.534
 2024SOL    HW1 6971   5.732   0.459   3.517
 2024SOL    HW2 6972   5.873   0.503   3.446
 2025SOL     OW 6973   6.180   1.044   1.227
 2025SOL    HW1 6974   6.262   1.101   1.236
 2025SOL    HW2 6975   6.122   1.081   1.155
 2026SOL     OW 6976   2.020   1.732   5.296
 2026SOL    HW1 6977   1.949   1.787   5.253
 2026SOL    HW2 6978   2.040   1.768   5.387
 2027SOL     OW 6979   6.759   0.167   2.292
 2027SOL    HW1 6980   6.688   0.097   2.284
 2027SOL    HW2 6981   6.795   0.188   2.201
 2028SOL     OW 6982   4.146   4.161   5.636
 2028SOL    HW1 6983   4.189   4.178   5.547
 2028SOL    HW2 6984   4.059   4.113   5.622
 2029SOL     OW 6985   1.764   0.607   0.669
 2029SOL    HW1 6986   1.853   0.589   0.629
 2029SOL    HW2 6987   1.696   0.546   0.629
 2030SOL     OW 6988   2.224   2.979   2.339
 2030SOL    HW1 6989   2.271   3.067   2.347
 2030SOL    HW2 6990   2.265   2.914   2.403
 2031SOL     OW 6991   5.995   6.880   2.175
 2031SOL    HW1 6992   5.931   6.955   2.160
 2031SOL    HW2 6993   6.007   6.828   2.090
 2032SOL     OW 6994   4.433   6.184   1.997
 2032SOL    HW1 6995   4.366   6.257   2.003
 2032SOL    HW2 6996   4.512   6.215   1.944
 2033SOL     OW 6997   0.420   4.963   6.755
 2033SOL    HW1 6998   0.349   4.952   6.686
 2033SOL    HW2 6999   0.499   4.907   6.731
 2034SOL     OW 7000   2.186   5.550   3.968
 2034SOL    HW1 7001   2.183   5.450   3.973
 2034SOL    HW2 7002   2.093   5.586   3.972
 2035SOL     OW 7003   0.664   1.846   3.391
 2035SOL    HW1 7004   0.611   1.790   3.455
 2035SOL    HW2 7005   0.687   1.933   3.434
 2036SOL     OW 7006   0.740   5.000   0.849
 2036SOL    HW1 7007   0.723   4.906   0.877
 2036SOL    HW2 7008   0.776   5.052   0.927
 2037SOL     OW 7009   0.502   2.743   6.997
 2037SOL    HW1 7010   0.407   2.738   0.007
 2037SOL    HW2 7011   0.562   2.760   0.054
 2038SOL     OW 7012   1.685   0.087   4.794
 2038SOL    HW1 7013   1.681   0.104   4.696
 2038SOL    HW2 7014   1.625   0.010   4.817
 2039SOL     OW 7015   1.192   5.339   2.007
 2039SOL    HW1 7016   1.175   5.437   1.994
 2039SOL    HW2 7017   1.105   5.291   2.018
 2040SOL     OW 7018   3.884   3.421   4.716
 2040SOL    HW1 7019   3.906   3.334   4.759
 2040SOL    HW2 7020   3.787   3.441   4.728
 2041SOL     OW 7021   5.069   2.777   0.251
 2041SOL    HW1 7022   5.034   2.868   0.273
 2041SOL    HW2 7023   5.142   2.785   0.184
 2042SOL     OW 7024   3.293   6.420   0.645
 2042SOL    HW1 7025   3.208   6.389   0.690
 2042SOL    HW2 7026   3.346   6.474   0.710
 2043SOL     OW 7027   4.254   5.920   2.385
 2043SOL    HW1 7028   4.167   5.955   2.350
 2043SOL    HW2 7029   4.264   5.824   2.360
 2044SOL     OW 7030   6.375   0.761   2.319
 2044SOL    HW1 7031   6.414   0.819   2.248
 2044SOL    HW2 7032   6.308   0.814   2.372
 2045SOL     OW 7033   3.145   6.814   6.174
 2045SOL    HW1 7034   3.195   6.877   6.235
 2045SOL    HW2 7035   3.104   6.866   6.099
 2046SOL     OW 7036   5.709   6.720   5.751
 2046SOL    HW1 7037   5.620   6.701   5.709
 2046SOL    HW2 7038   5.773   6.754   5.682
 2047SOL     OW 7039   5.142   3.314   0.387
 2047SOL    HW1 7040   5.184   3.233   0.427
 2047SOL    HW2 7041   5.134   3.302   0.288
 2048SOL     OW 7042   4.527   6.347   5.639
 2048SOL    HW1 7043   4.545   6.329   5.543
 2048SOL    HW2 7044   4.561   6.438   5.663
 2049SOL     OW 7045   5.257   5.240   6.575
 2049SOL    HW1 7046   5.340   5.185   6.562
 2049SOL    HW2 7047   5.277   5.335   6.553
 2050SOL     OW 7048   5.656   1.052   3.231
 2050SOL    HW1 7049   5.561   1.067   3.257
 2050SOL    HW2 7050   5.716   1.072   3.309
 2051SOL     OW 7051   3.075   5.782   1.092
 2051SOL    HW1 7052   2.981   5.786   1.123
 2051SOL    HW2 7053   3.080   5.815   0.997
 2052SOL     OW 7054   2.125   2.706   1.177
 2052SOL    HW1 7055   2.137   2.671   1.270
 2052SOL    HW2 7056   2.055   2.653   1.129
 2053SOL     OW 7057   4.609   0.835   0.856
 2053SOL    HW1 7058   4.522   0.787   0.848
 2053SOL    HW2 7059   4.630   0.881   0.770
 2054SOL     OW 7060   0.907   3.123   1.011
 2054SOL    HW1 7061   0.872   3.216   1.013
 2054SOL    HW2 7062   1.000   3.121   1.049
 2055SOL     OW 7063   6.489   1.151   3.573
 2055SOL    HW1 7064   6.427   1.209   3.626
 2055SOL    HW2 7065   6.577   1.146   3.620
 2056SOL     OW 7066   0.474   6.689   2.556
 2056SOL    HW1 7067   0.385   6.655   2.526
 2056SOL    HW2 7068   0.523   6.615   2.603
 2057SOL     OW 7069   4.833   3.131   4.013
 2057SOL    HW1 7070   4.866   3.064   4.080
 2057SOL    HW2 7071   4.823   3.087   3.924
 2058SOL     OW 7072   0.747   1.038   1.721
 2058SOL    HW1 7073   0.697   1.025   1.806
 2058SOL    HW2 7074   0.696   0.997   1.646
 2059SOL     OW 7075   1.708   0.975   6.718
 2059SOL    HW1 7076   1.713   0.946   6.814
 2059SOL    HW2 7077   1.711   0.895   6.659
 2060SOL     OW 7078   0.293   4.747   3.033
 2060SOL    HW1 7079   0.372   4.780   2.981
 2060SOL    HW2 7080   0.225   4.711   2.970
 2061SOL     OW 7081   1.360   0.477   0.792
 2061SOL    HW1 7082   1.312   0.476   0.879
 2061SOL    HW2 7083   1.344   0.565   0.747
 2062SOL     OW 7084   3.797   0.431   3.734
 2062SOL    HW1 7085   3.776   0.410   3.830
 2062SOL    HW2 7086   3.805   0.346   3.682
 2063SOL     OW 7087   2.453   2.762   1.276
 2063SOL    HW1 7088   2.421   2.757   1.370
 2063SOL    HW2 7089   2.521   2.691   1.259
 2064SOL     OW 7090   1.216   2.143   0.958
 2064SOL    HW1 7091   1.220   2.066   0.894
 2064SOL    HW2 7092   1.263   2.119   1.043
 2065SOL     OW 7093   0.083   2.810   2.569
 2065SOL    HW1 7094   7.004   2.806   2.576
 2065SOL    HW2 7095   0.116   2.896   2.606
 2066SOL     OW 7096   1.179   6.010   3.142
 2066SOL    HW1 7097   1.202   6.074   3.069
 2066SOL    HW2 7098   1.197   6.052   3.231
 2067SOL     OW 7099   0.022   0.712   0.747
 2067SOL    HW1 7100   0.001   0.614   0.741
 2067SOL    HW2 7101   0.093   0.727   0.816
 2068SOL     OW 7102   2.057   2.096   5.351
 2068SOL    HW1 7103   2.034   2.109   5.255
 2068SOL    HW2 7104   2.122   2.021   5.361
 2069SOL     OW 7105   1.547   2.215   2.061
 2069SOL    HW1 7106   1.458   2.172   2.052
 2069SOL    HW2 7107   1.590   2.221   1.971
 2070SOL     OW 7108   0.139   1.635   2.477
 2070SOL    HW1 7109   0.195   1.621   2.395
 2070SOL    HW2 7110   0.066   1.567   2.479
 2071SOL     OW 7111   2.672   6.164   5.543
 2071SOL    HW1 7112   2.728   6.102   5.598
 2071SOL    HW2 7113   2.602   6.205   5.601
 2072SOL     OW 7114   4.939   5.059   2.503
 2072SOL    HW1 7115   4.873   5.083   2.574
 2072SOL    HW2 7116   5.017   5.122   2.508
 2073SOL     OW 7117   3.416   6.965   5.452
 2073SOL    HW1 7118   3.330   7.003   5.418
 2073SOL    HW2 7119   3.490   6.987   5.389
 2074SOL     OW 7120   5.805   2.142   3.168
 2074SOL    HW1 7121   5.814   2.043   3.183
 2074SOL    HW2 7122   5.770   2.159   3.076
 2075SOL     OW 7123   3.930   3.011   5.871
 2075SOL    HW1 7124   3.906   3.037   5.964
 2075SOL    HW2 7125   3.859   3.042   5.808
 2076SOL     OW 7126   5.159   6.962   0.308
 2076SOL    HW1 7127   5.252   6.939   0.338
 2076SOL    HW2 7128   5.121   6.885   0.256
 2077SOL     OW 7129   4.528   0.957   4.352
 2077SOL    HW1 7130   4.505   1.041   4.303
 2077SOL    HW2 7131   4.447   0.897   4.355
 2078SOL     OW 7132   4.190   6.190   3.932
 2078SOL    HW1 7133   4.091   6.198   3.918
 2078SOL    HW2 7134   4.208   6.131   4.010
 2079SOL     OW 7135   6.024   6.738   3.730
 2079SOL    HW1 7136   6.099   6.702   3.786
 2079SOL    HW2 7137   5.943   6.681   3.744
 2080SOL     OW 7138   2.689   1.973   3.421
 2080SOL    HW1 7139   2.636   2.059   3.423
 2080SOL    HW2 7140   2.710   1.945   3.514
 2081SOL     OW 7141   1.180   6.275   4.088
 2081SOL    HW1 7142   1.091   6.231   4.071
 2081SOL    HW2 7143   1.241   6.256   4.011
 2082SOL     OW 7144   5.053   0.995   2.441
 2082SOL    HW1 7145   4.956   1.004   2.415
 2082SOL    HW2 7146   5.108   1.056   2.385
 2083SOL     OW 7147   3.551   4.589   6.317
 2083SOL    HW1 7148   3.479   4.571   6.250
 2083SOL    HW2 7149   3.532   4.537   6.400
 2084SOL     OW 7150   0.059   2.463   3.079
 2084SOL    HW1 7151   0.122   2.527   3.123
 2084SOL    HW2 7152   0.110   2.386   3.040
 2085SOL     OW 7153   6.132   6.763   0.167
 2085SOL    HW1 7154   6.102   6.814   0.248
 2085SOL    HW2 7155   6.052   6.738   0.112
 2086SOL     OW 7156   3.402   4.915   6.931
 2086SOL    HW1 7157   3.371   4.847   6.864
 2086SOL    HW2 7158   3.457   4.985   6.885
 2087SOL     OW 7159   5.667   5.888   3.582
 2087SOL    HW1 7160   5.689   5.810   3.640
 2087SOL    HW2 7161   5.633   5.855   3.493
 2088SOL     OW 7162   2.636   6.703   1.848
 2088SOL    HW1 7163   2.714   6.673   1.793
 2088SOL    HW2 7164   2.630   6.646   1.930
 2089SOL     OW 7165   2.311   1.083   6.645
 2089SOL    HW1 7166   2.259   1.168   6.636
 2089SOL    HW2 7167   2.279   1.017   6.577
 2090SOL     OW 7168   3.363   3.802   4.084
 2090SOL    HW1 7169   3.289   3.766   4.142
 2090SOL    HW2 7170   3.330   3.883   4.035
 2091SOL     OW 7171   2.730   4.200   0.976
 2091SOL    HW1 7172   2.823   4.165   0.989
 2091SOL    HW2 7173   2.670   4.164   1.046
 2092SOL     OW 7174   6.589   6.778   0.944
 2092SOL    HW1 7175   6.676   6.738   0.915
 2092SOL    HW2 7176   6.603   6.831   1.027
 2093SOL     OW 7177   1.611   1.601   1.691
 2093SOL    HW1 7178   1.654   1.604   1.781
 2093SOL    HW2 7179   1.677   1.569   1.623
 2094SOL     OW 7180   6.677   0.504   1.841
 2094SOL    HW1 7181   6.608   0.565   1.802
 2094SOL    HW2 7182   6.760   0.556   1.862
 2095SOL     OW 7183   6.238   4.736   5.212
 2095SOL    HW1 7184   6.235   4.637   5.222
 2095SOL    HW2 7185   6.248   4.760   5.116
 2096SOL     OW 7186   5.067   4.399   3.428
 2096SOL    HW1 7187   5.039   4.475   3.370
 2096SOL    HW2 7188   5.144   4.351   3.386
 2097SOL     OW 7189   6.348   3.684   5.774
 2097SOL    HW1 7190   6.274   3.646   5.830
 2097SOL    HW2 7191   6.340   3.784   5.772
 2098SOL     OW 7192   4.113   0.472   4.078
 2098SOL    HW1 7193   4.076   0.380   4.084
 2098SOL    HW2 7194   4.061   0.525   4.010
 2099SOL     OW 7195   2.742   1.892   3.728
 2099SOL    HW1 7196   2.749   1.888   3.827
 2099SOL    HW2 7197   2.668   1.832   3.697
 2100SOL     OW 7198   4.441   4.891   6.172
 2100SOL    HW1 7199   4.498   4.958   6.220
 2100SOL    HW2 7200   4.404   4.826   6.237
 2101SOL     OW 7201   6.161   6.964   1.777
 2101SOL    HW1 7202   6.243   7.020   1.790
 2101SOL    HW2 7203   6.146   6.947   1.680
 2102SOL     OW 7204   0.298   5.456   1.298
 2102SOL    HW1 7205   0.389   5.499   1.304
 2102SOL    HW2 7206   0.297   5.373   1.353
 2103SOL     OW 7207   3.466   3.700   6.549
 2103SOL    HW1 7208   3.538   3.631   6.550
 2103SOL    HW2 7209   3.377   3.655   6.540
 2104SOL     OW 7210   1.307   4.953   5.790
 2104SOL    HW1 7211   1.381   4.933   5.854
 2104SOL    HW2 7212   1.220   4.926   5.831
 2105SOL     OW 7213   5.780   5.738   2.559
 2105SOL    HW1 7214   5.724   5.658   2.584
 2105SOL    HW2 7215   5.814   5.782   2.642
 2106SOL     OW 7216   5.684   6.202   6.149
 2106SOL    HW1 7217   5.703   6.106   6.126
 2106SOL    HW2 7218   5.761   6.240   6.198
 2107SOL     OW 7219   2.531   5.242   0.354
 2107SOL    HW1 7220   2.594   5.278   0.284
 2107SOL    HW2 7221   2.572   5.255   0.444
 2108SOL     OW 7222   5.673   4.540   6.512
 2108SOL    HW1 7223   5.765   4.577   6.497
 2108SOL    HW2 7224   5.651   4.476   6.439
 2109SOL     OW 7225   5.352   5.182   2.946
 2109SOL    HW1 7226   5.430   5.243   2.960
 2109SOL    HW2 7227   5.383   5.097   2.904
 2110SOL     OW 7228   1.130   4.937   5.169
 2110SOL    HW1 7229   1.207   4.895   5.218
 2110SOL    HW2 7230   1.048   4.883   5.185
 2111SOL     OW 7231   2.026   2.041   6.814
 2111SOL    HW1 7232   2.079   1.993   6.744
 2111SOL    HW2 7233   2.057   2.136   6.820
 2112SOL     OW 7234   5.221   4.137   0.851
 2112SOL    HW1 7235   5.269   4.133   0.938
 2112SOL    HW2 7236   5.174   4.225   0.844
 2113SOL     OW 7237   6.816   1.392   3.429
 2113SOL    HW1 7238   6.865   1.306   3.416
 2113SOL    HW2 7239   6.840   1.456   3.356
 2114SOL     OW 7240   1.668   3.409   0.129
 2114SOL    HW1 7241   1.643   3.476   0.198
 2114SOL    HW2 7242   1.665   3.452   0.038
 2115SOL     OW 7243   3.981   5.403   2.125
 2115SOL    HW1 7244   4.017   5.468   2.059
 2115SOL    HW2 7245   4.055   5.369   2.183
 2116SOL     OW 7246   0.662   3.945   4.023
 2116SOL    HW1 7247   0.735   3.941   3.955
 2116SOL    HW2 7248   0.607   3.862   4.018
 2117SOL     OW 7249   6.852   5.789   5.629
 2117SOL    HW1 7250   6.886   5.767   5.537
 2117SOL    HW2 7251   6.780   5.725   5.654
 2118SOL     OW 7252   0.092   3.111   2.123
 2118SOL    HW1 7253   0.158   3.168   2.076
 2118SOL    HW2 7254   0.135   3.068   2.203
 2119SOL     OW 7255   4.112   6.434   0.302
 2119SOL    HW1 7256   4.195   6.411   0.251
 2119SOL    HW2 7257   4.132   6.430   0.400
 2120SOL     OW 7258   6.718   4.013   1.859
 2120SOL    HW1 7259   6.703   4.096   1.913
 2120SOL    HW2 7260   6.774   3.949   1.911
 2121SOL     OW 7261   0.503   3.896   5.124
 2121SOL    HW1 7262   0.571   3.928   5.058
 2121SOL    HW2 7263   0.547   3.835   5.190
 2122SOL     OW 7264   3.687   5.078   5.239
 2122SOL    HW1 7265   3.771   5.083   5.186
 2122SOL    HW2 7266   3.643   4.990   5.224
 2123SOL     OW 7267   4.454   5.486   3.525
 2123SOL    HW1 7268   4.438   5.444   3.614
 2123SOL    HW2 7269   4.492   5.417   3.462
 2124SOL     OW 7270   2.402   2.360   1.866
 2124SOL    HW1 7271   2.434   2.269   1.891
 2124SOL    HW2 7272   2.304   2.367   1.882
 2125SOL     OW 7273   5.150   6.338   0.534
 2125SOL    HW1 7274   5.113   6.266   0.475
 2125SOL    HW2 7275   5.110   6.426   0.509
 2126SOL     OW 7276   3.221   1.751   1.550
 2126SOL    HW1 7277   3.251   1.737   1.456
 2126SOL    HW2 7278   3.299   1.741   1.612
 2127SOL     OW 7279   5.396   2.817   4.128
 2127SOL    HW1 7280   5.477   2.787   4.079
 2127SOL    HW2 7281   5.322   2.752   4.114
 2128SOL     OW 7282   0.752   3.808   4.286
 2128SOL    HW1 7283   0.733   3.812   4.188
 2128SOL    HW2 7284   0.768   3.713   4.313
 2129SOL     OW 7285   4.517   2.267   5.004
 2129SOL    HW1 7286   4.540   2.359   4.971
 2129SOL    HW2 7287   4.601   2.221   5.035
 2130SOL     OW 7288   4.866   6.988   3.391
 2130SOL    HW1 7289   4.794   0.016   3.342
 2130SOL    HW2 7290   4.943   6.972   3.329
 2131SOL     OW 7291   5.129   1.807   6.606
 2131SOL    HW1 7292   5.096   1.719   6.640
 2131SOL    HW2 7293   5.107   1.879   6.672
 2132SOL     OW 7294   1.509   3.493   1.016
 2132SOL    HW1 7295   1.456   3.420   1.058
 2132SOL    HW2 7296   1.583   3.454   0.961
 2133SOL     OW 7297   2.507   4.127   6.151
 2133SOL    HW1 7298   2.564   4.168   6.079
 2133SOL    HW2 7299   2.411   4.131   6.122
 2134SOL     OW 7300   6.818   6.467   0.370
 2134SOL    HW1 7301   6.758   6.423   0.304
 2134SOL    HW2 7302   6.908   6.482   0.328
 2135SOL     OW 7303   6.561   5.392   5.581
 2135SOL    HW1 7304   6.550   5.371   5.678
 2135SOL    HW2 7305   6.602   5.313   5.534
 2136SOL     OW 7306   1.260   5.395   6.760
 2136SOL    HW1 7307   1.261   5.454   6.680
 2136SOL    HW2 7308   1.185   5.423   6.820
 2137SOL     OW 7309   1.469   6.878   3.656
 2137SOL    HW1 7310   1.447   6.963   3.608
 2137SOL    HW2 7311   1.410   6.869   3.736
 2138SOL     OW 7312   5.379   1.674   1.594
 2138SOL    HW1 7313   5.301   1.647   1.538
 2138SOL    HW2 7314   5.386   1.774   1.596
 2139SOL     OW 7315   2.930   6.040   5.610
 2139SOL    HW1 7316   2.989   5.995   5.542
 2139SOL    HW2 7317   2.889   5.972   5.669
 2140SOL     OW 7318   2.320   2.099   3.340
 2140SOL    HW1 7319   2.399   2.142   3.383
 2140SOL    HW2 7320   2.252   2.077   3.410
 2141SOL     OW 7321   6.630   3.174   3.058
 2141SOL    HW1 7322   6.660   3.155   3.151
 2141SOL    HW2 7323   6.683   3.249   3.020
 2142SOL     OW 7324   1.938   2.123   1.978
 2142SOL    HW1 7325   1.859   2.069   1.950
 2142SOL    HW2 7326   1.964   2.185   1.904
 2143SOL     OW 7327   6.640   5.655   5.473
 2143SOL    HW1 7328   6.633   5.584   5.403
 2143SOL    HW2 7329   6.598   5.622   5.557
 2144SOL     OW 7330   6.145   4.423   2.543
 2144SOL    HW1 7331   6.217   4.354   2.539
 2144SOL    HW2 7332   6.085   4.404   2.621
 2145SOL     OW 7333   4.059   1.502   3.133
 2145SOL    HW1 7334   4.109   1.415   3.139
 2145SOL    HW2 7335   4.122   1.577   3.153
 2146SOL     OW 7336   1.864   1.459   6.917
 2146SOL    HW1 7337   1.931   1.494   6.852
 2146SOL    HW2 7338   1.861   1.359   6.911
 2147SOL     OW 7339   6.136   6.960   5.270
 2147SOL    HW1 7340   6.133   6.921   5.362
 2147SOL    HW2 7341   6.093   6.897   5.205
 2148SOL     OW 7342   1.095   2.278   4.828
 2148SOL    HW1 7343   1.066   2.343   4.899
 2148SOL    HW2 7344   1.174   2.226   4.861
 2149SOL     OW 7345   0.041   6.549   0.217
 2149SOL    HW1 7346   0.020   6.591   0.129
 2149SOL    HW2 7347   0.119   6.596   0.258
 2150SOL     OW 7348   2.054   2.612   0.394
 2150SOL    HW1 7349   2.121   2.673   0.352
 2150SOL    HW2 7350   2.048   2.633   0.492
 2151SOL     OW 7351   1.018   5.001   6.353
 2151SOL    HW1 7352   1.049   5.044   6.438
 2151SOL    HW2 7353   1.088   4.937   6.321
 2152SOL     OW 7354   5.307   5.930   4.041
 2152SOL    HW1 7355   5.247   5.954   4.118
 2152SOL    HW2 7356   5.309   6.006   3.976
 2153SOL     OW 7357   4.941   6.723   4.175
 2153SOL    HW1 7358   4.916   6.820   4.171
 2153SOL    HW2 7359   4.965   6.691   4.083
 2154SOL     OW 7360   2.562   6.847   2.353
 2154SOL    HW1 7361   2.615   6.931   2.344
 2154SOL    HW2 7362   2.585   6.802   2.439
 2155SOL     OW 7363   4.963   0.460   1.092
 2155SOL    HW1 7364   4.952   0.511   1.177
 2155SOL    HW2 7365   4.936   0.517   1.015
 2156SOL     OW 7366   6.194   1.871   5.042
 2156SOL    HW1 7367   6.145   1.838   4.962
 2156SOL    HW2 7368   6.208   1.970   5.034
 2157SOL     OW 7369   4.310   6.447   3.875
 2157SOL    HW1 7370   4.406   6.461   3.854
 2157SOL    HW2 7371   4.282   6.355   3.848
 2158SOL     OW 7372   2.689   6.900   0.605
 2158SOL    HW1 7373   2.749   6.854   0.540
 2158SOL    HW2 7374   2.606   6.845   0.619
 2159SOL     OW 7375   6.993   1.387   5.637
 2159SOL    HW1 7376   6.919   1.430   5.689
 2159SOL    HW2 7377   6.955   1.338   5.559
 2160SOL     OW 7378   5.390   6.899   7.002
 2160SOL    HW1 7379   5.436   6.843   6.934
 2160SOL    HW2 7380   5.451   6.973   0.010
 2161SOL     OW 7381   1.346   3.677   0.818
 2161SOL    HW1 7382   1.406   3.756   0.803
 2161SOL    HW2 7383   1.393   3.611   0.876
 2162SOL     OW 7384   1.878   0.182   0.215
 2162SOL    HW1 7385   1.781   0.164   0.206
 2162SOL    HW2 7386   1.928   0.136   0.141
 2163SOL     OW 7387   0.902   2.727   3.940
 2163SOL    HW1 7388   0.973   2.686   3.997
 2163SOL    HW2 7389   0.892   2.823   3.963
 2164SOL     OW 7390   2.346   4.415   1.706
 2164SOL    HW1 7391   2.363   4.463   1.792
 2164SOL    HW2 7392   2.321   4.481   1.635
 2165SOL     OW 7393   6.251   1.377   5.624
 2165SOL    HW1 7394   6.192   1.342   5.551
 2165SOL    HW2 7395   6.294   1.462   5.594
 2166SOL     OW 7396   0.473   2.605   1.449
 2166SOL    HW1 7397   0.391   2.554   1.421
 2166SOL    HW2 7398   0.542   2.540   1.483
 2167SOL     OW 7399   1.703   2.339   2.900
 2167SOL    HW1 7400   1.683   2.412   2.834
 2167SOL    HW2 7401   1.619   2.313   2.947
 2168SOL     OW 7402   1.871   2.670   2.989
 2168SOL    HW1 7403   1.859   2.649   3.086
 2168SOL    HW2 7404   1.922   2.596   2.945
 2169SOL     OW 7405   6.942   6.794   1.228
 2169SOL    HW1 7406   6.911   6.888   1.235
 2169SOL    HW2 7407   6.939   6.750   1.318
 2170SOL     OW 7408   1.421   2.774   6.243
 2170SOL    HW1 7409   1.488   2.758   6.315
 2170SOL    HW2 7410   1.329   2.764   6.281
 2171SOL     OW 7411   6.877   6.359   1.368
 2171SOL    HW1 7412   6.892   6.290   1.439
 2171SOL    HW2 7413   6.785   6.397   1.379
 2172SOL     OW 7414   2.411   2.687   4.750
 2172SOL    HW1 7415   2.471   2.698   4.671
 2172SOL    HW2 7416   2.331   2.632   4.724
 2173SOL     OW 7417   4.823   0.416   4.952
 2173SOL    HW1 7418   4.920   0.403   4.932
 2173SOL    HW2 7419   4.779   0.461   4.874
 2174SOL     OW 7420   5.064   0.286   6.109
 2174SOL    HW1 7421   5.092   0.199   6.068
 2174SOL    HW2 7422   5.033   0.270   6.203
 2175SOL     OW 7423   3.519   2.865   5.477
 2175SOL    HW1 7424   3.469   2.842   5.393
 2175SOL    HW2 7425   3.580   2.942   5.459
 2176SOL     OW 7426   6.732   1.950   3.003
 2176SOL    HW1 7427   6.754   2.017   2.932
 2176SOL    HW2 7428   6.806   1.950   3.071
 2177SOL     OW 7429   0.156   1.043   5.611
 2177SOL    HW1 7430   0.219   1.120   5.622
 2177SOL    HW2 7431   0.207   0.963   5.580
 2178SOL     OW 7432   1.822   2.439   2.076
 2178SOL    HW1 7433   1.880   2.517   2.102
 2178SOL    HW2 7434   1.801   2.386   2.158
 2179SOL     OW 7435   1.366   4.225   0.019
 2179SOL    HW1 7436   1.346   4.294   6.970
 2179SOL    HW2 7437   1.317   4.248   0.103
 2180SOL     OW 7438   0.454   5.271   2.458
 2180SOL    HW1 7439   0.412   5.288   2.369
 2180SOL    HW2 7440   0.384   5.272   2.529
 2181SOL     OW 7441   4.416   4.954   4.333
 2181SOL    HW1 7442   4.416   4.860   4.366
 2181SOL    HW2 7443   4.331   4.999   4.360
 2182SOL     OW 7444   0.265   6.742   1.278
 2182SOL    HW1 7445   0.360   6.716   1.259
 2182SOL    HW2 7446   0.265   6.824   1.335
 2183SOL     OW 7447   3.762   3.113   6.849
 2183SOL    HW1 7448   3.848   3.071   6.880
 2183SOL    HW2 7449   3.688   3.084   6.910
 2184SOL     OW 7450   6.350   1.677   0.038
 2184SOL    HW1 7451   6.385   1.757   0.086
 2184SOL    HW2 7452   6.413   1.600   0.049
 2185SOL     OW 7453   0.804   1.383   6.302
 2185SOL    HW1 7454   0.760   1.363   6.215
 2185SOL    HW2 7455   0.888   1.434   6.286
 2186SOL     OW 7456   6.988   6.212   5.345
 2186SOL    HW1 7457   0.024   6.294   5.345
 2186SOL    HW2 7458   0.021   6.133   5.373
 2187SOL     OW 7459   6.068   4.289   1.846
 2187SOL    HW1 7460   6.153   4.240   1.866
 2187SOL    HW2 7461   5.991   4.237   1.882
 2188SOL     OW 7462   3.011   1.147   1.162
 2188SOL    HW1 7463   2.974   1.228   1.208
 2188SOL    HW2 7464   2.937   1.096   1.119
 2189SOL     OW 7465   2.141   0.745   2.342
 2189SOL    HW1 7466   2.182   0.836   2.349
 2189SOL    HW2 7467   2.206   0.682   2.300
 2190SOL     OW 7468   6.322   4.865   2.228
 2190SOL    HW1 7469   6.273   4.786   2.265
 2190SOL    HW2 7470   6.339   4.851   2.131
 2191SOL     OW 7471   3.693   6.985   6.953
 2191SOL    HW1 7472   3.769   6.920   6.966
 2191SOL    HW2 7473   3.664   6.983   6.857
 2192SOL     OW 7474   4.438   2.303   1.455
 2192SOL    HW1 7475   4.493   2.386   1.444
 2192SOL    HW2 7476   4.345   2.320   1.421
 2193SOL     OW 7477   1.293   0.557   5.047
 2193SOL    HW1 7478   1.380   0.606   5.048
 2193SOL    HW2 7479   1.290   0.491   5.122
 2194SOL     OW 7480   1.070   4.473   5.236
 2194SOL    HW1 7481   1.007   4.462   5.160
 2194SOL    HW2 7482   1.159   4.503   5.202
 2195SOL     OW 7483   0.296   3.936   5.431
 2195SOL    HW1 7484   0.383   3.935   5.480
 2195SOL    HW2 7485   0.279   3.846   5.391
 2196SOL     OW 7486   4.034   1.338   6.790
 2196SOL    HW1 7487   3.986   1.394   6.722
 2196SOL    HW2 7488   3.966   1.289   6.846
 2197SOL     OW 7489   4.085   5.270   6.857
 2197SOL    HW1 7490   4.131   5.331   6.793
 2197SOL    HW2 7491   4.038   5.324   6.927
 2198SOL     OW 7492   1.710   1.150   6.173
 2198SOL    HW1 7493   1.805   1.122   6.169
 2198SOL    HW2 7494   1.689   1.188   6.263
 2199SOL     OW 7495   4.300   6.750   3.802
 2199SOL    HW1 7496   4.293   6.767   3.901
 2199SOL    HW2 7497   4.392   6.718   3.780
 2200SOL     OW 7498   2.720   2.174   4.758
 2200SOL    HW1 7499   2.813   2.204   4.779
 2200SOL    HW2 7500   2.710   2.164   4.659
 2201SOL     OW 7501   5.808   3.467   4.934
 2201SOL    HW1 7502   5.822   3.386   4.991
 2201SOL    HW2 7503   5.712   3.494   4.937
 2202SOL     OW 7504   4.049   6.846   3.994
 2202SOL    HW1 7505   4.107   6.928   3.989
 2202SOL    HW2 7506   3.979   6.851   3.923
 2203SOL     OW 7507   2.172   5.627   1.210
 2203SOL    HW1 7508   2.247   5.565   1.186
 2203SOL    HW2 7509   2.208   5.705   1.262
 2204SOL     OW 7510   5.215   2.878   0.733
 2204SOL    HW1 7511   5.172   2.924   0.655
 2204SOL    HW2 7512   5.253   2.947   0.795
 2205SOL     OW 7513   5.162   5.438   1.072
 2205SOL    HW1 7514   5.082   5.498   1.061
 2205SOL    HW2 7515   5.138   5.363   1.134
 2206SOL     OW 7516   3.571   2.898   5.172
 2206SOL    HW1 7517   3.507   2.831   5.208
 2206SOL    HW2 7518   3.546   2.921   5.078
 2207SOL     OW 7519   4.642   5.227   1.852
 2207SOL    HW1 7520   4.669   5.131   1.844
 2207SOL    HW2 7521   4.613   5.261   1.762
 2208SOL     OW 7522   6.529   6.504   3.240
 2208SOL    HW1 7523   6.444   6.501   3.187
 2208SOL    HW2 7524   6.584   6.583   3.211
 2209SOL     OW 7525   2.392   5.710   3.532
 2209SOL    HW1 7526   2.376   5.717   3.630
 2209SOL    HW2 7527   2.422   5.617   3.509
 2210SOL     OW 7528   5.302   6.481   2.196
 2210SOL    HW1 7529   5.373   6.448   2.134
 2210SOL    HW2 7530   5.305   6.428   2.280
 2211SOL     OW 7531   1.320   0.984   1.751
 2211SOL    HW1 7532   1.235   0.965   1.702
 2211SOL    HW2 7533   1.299   1.012   1.844
 2212SOL     OW 7534   3.001   6.238   6.030
 2212SOL    HW1 7535   2.993   6.254   5.932
 2212SOL    HW2 7536   2.932   6.171   6.059
 2213SOL     OW 7537   3.270   1.267   4.565
 2213SOL    HW1 7538   3.289   1.311   4.653
 2213SOL    HW2 7539   3.221   1.331   4.506
 2214SOL     OW 7540   4.355   4.582   6.619
 2214SOL    HW1 7541   4.333   4.605   6.524
 2214SOL    HW2 7542   4.437   4.632   6.647
 2215SOL     OW 7543   5.758   5.302   6.526
 2215SOL    HW1 7544   5.722   5.301   6.432
 2215SOL    HW2 7545   5.811   5.218   6.542
 2216SOL     OW 7546   0.474   6.268   0.232
 2216SOL    HW1 7547   0.469   6.187   0.290
 2216SOL    HW2 7548   0.553   6.323   0.258
 2217SOL     OW 7549   4.236   1.332   3.558
 2217SOL    HW1 7550   4.229   1.250   3.614
 2217SOL    HW2 7551   4.274   1.308   3.468
 2218SOL     OW 7552   6.063   5.668   5.341
 2218SOL    HW1 7553   6.145   5.716   5.371
 2218SOL    HW2 7554   6.081   5.569   5.339
 2219SOL     OW 7555   5.524   1.895   0.443
 2219SOL    HW1 7556   5.425   1.888   0.429
 2219SOL    HW2 7557   5.544   1.981   0.490
 2220SOL     OW 7558   6.897   6.542   4.421
 2220SOL    HW1 7559   6.912   6.476   4.347
 2220SOL    HW2 7560   6.825   6.606   4.394
 2221SOL     OW 7561   5.344   0.518   3.645
 2221SOL    HW1 7562   5.345   0.450   3.571
 2221SOL    HW2 7563   5.249   0.533   3.674
 2222SOL     OW 7564   3.565   0.968   3.427
 2222SOL    HW1 7565   3.497   1.041   3.428
 2222SOL    HW2 7566   3.641   0.992   3.488
 2223SOL     OW 7567   0.831   0.173   5.590
 2223SOL    HW1 7568   0.802   0.087   5.547
 2223SOL    HW2 7569   0.762   0.244   5.572
 2224SOL     OW 7570   5.631   4.310   6.759
 2224SOL    HW1 7571   5.560   4.363   6.805
 2224SOL    HW2 7572   5.652   4.228   6.812
 2225SOL     OW 7573   6.904   6.930   0.827
 2225SOL    HW1 7574   6.894   6.861   0.898
 2225SOL    HW2 7575   6.831   6.919   0.759
 2226SOL     OW 7576   2.620   3.287   6.910
 2226SOL    HW1 7577   2.686   3.211   6.913
 2226SOL    HW2 7578   2.580   3.300   7.001
 2227SOL     OW 7579   4.357   1.665   1.753
 2227SOL    HW1 7580   4.337   1.591   1.818
 2227SOL    HW2 7581   4.273   1.712   1.729
 2228SOL     OW 7582   4.956   6.933   6.493
 2228SOL    HW1 7583   4.910   6.876   6.561
 2228SOL    HW2 7584   4.970   6.880   6.410
 2229SOL     OW 7585   3.055   3.201   4.582
 2229SOL    HW1 7586   3.042   3.293   4.546
 2229SOL    HW2 7587   3.062   3.136   4.506
 2230SOL     OW 7588   6.811   0.898   6.288
 2230SOL    HW1 7589   6.834   0.846   6.206
 2230SOL    HW2 7590   6.873   0.976   6.296
 2231SOL     OW 7591   1.024   6.956   6.449
 2231SOL    HW1 7592   1.059   6.906   6.528
 2231SOL    HW2 7593   1.099   6.981   6.388
 2232SOL     OW 7594   1.688   0.744   6.528
 2232SOL    HW1 7595   1.735   0.709   6.447
 2232SOL    HW2 7596   1.599   0.700   6.536
 2233SOL     OW 7597   2.969   5.177   1.244
 2233SOL    HW1 7598   2.874   5.144   1.247
 2233SOL    HW2 7599   3.024   5.127   1.311
 2234SOL     OW 7600   4.991   1.997   1.442
 2234SOL    HW1 7601   5.071   2.005   1.384
 2234SOL    HW2 7602   4.910   2.029   1.392
 2235SOL     OW 7603   1.245   2.289   3.159
 2235SOL    HW1 7604   1.165   2.256   3.208
 2235SOL    HW2 7605   1.323   2.229   3.176
 2236SOL     OW 7606   2.686   4.729   5.175
 2236SOL    HW1 7607   2.671   4.678   5.260
 2236SOL    HW2 7608   2.779   4.711   5.141
 2237SOL     OW 7609   5.800   6.825   5.994
 2237SOL    HW1 7610   5.761   6.783   5.912
 2237SOL    HW2 7611   5.730   6.879   6.041
 2238SOL     OW 7612   5.515   3.981   2.335
 2238SOL    HW1 7613   5.474   3.893   2.313
 2238SOL    HW2 7614   5.606   3.988   2.293
 2239SOL     OW 7615   4.029   0.129   2.962
 2239SOL    HW1 7616   3.956   0.077   2.917
 2239SOL    HW2 7617   4.051   0.086   3.049
 2240SOL     OW 7618   4.863   5.458   2.222
 2240SOL    HW1 7619   4.871   5.470   2.321
 2240SOL    HW2 7620   4.949   5.482   2.178
 2241SOL     OW 7621   1.054   1.969   2.946
 2241SOL    HW1 7622   0.996   2.002   3.021
 2241SOL    HW2 7623   1.012   1.993   2.858
 2242SOL     OW 7624   5.592   2.121   4.174
 2242SOL    HW1 7625   5.530   2.170   4.236
 2242SOL    HW2 7626   5.566   2.142   4.079
 2243SOL     OW 7627   2.355   0.604   0.183
 2243SOL    HW1 7628   2.346   0.558   0.095
 2243SOL    HW2 7629   2.400   0.543   0.248
 2244SOL     OW 7630   2.588   1.931   1.444
 2244SOL    HW1 7631   2.565   1.922   1.541
 2244SOL    HW2 7632   2.672   1.880   1.425
 2245SOL     OW 7633   6.998   0.903   0.546
 2245SOL    HW1 7634   7.011   0.840   0.622
 2245SOL    HW2 7635   6.992   0.851   0.461
 2246SOL     OW 7636   5.373   0.472   5.672
 2246SOL    HW1 7637   5.412   0.381   5.690
 2246SOL    HW2 7638   5.276   0.472   5.696
 2247SOL     OW 7639   3.158   3.249   1.711
 2247SOL    HW1 7640   3.069   3.203   1.717
 2247SOL    HW2 7641   3.173   3.303   1.793
 2248SOL     OW 7642   5.053   3.361   4.655
 2248SOL    HW1 7643   5.137   3.308   4.664
 2248SOL    HW2 7644   4.998   3.350   4.738
 2249SOL     OW 7645   2.059   6.407   3.858
 2249SOL    HW1 7646   2.125   6.331   3.852
 2249SOL    HW2 7647   2.106   6.493   3.842
 2250SOL     OW 7648   4.668   5.774   6.318
 2250SOL    HW1 7649   4.729   5.850   6.339
 2250SOL    HW2 7650   4.654   5.767   6.219
 2251SOL     OW 7651   3.853   6.660   4.670
 2251SOL    HW1 7652   3.834   6.742   4.724
 2251SOL    HW2 7653   3.771   6.633   4.620
 2252SOL     OW 7654   4.091   1.222   2.760
 2252SOL    HW1 7655   4.015   1.160   2.739
 2252SOL    HW2 7656   4.060   1.290   2.827
 2253SOL     OW 7657   1.194   2.676   1.613
 2253SOL    HW1 7658   1.281   2.639   1.647
 2253SOL    HW2 7659   1.153   2.610   1.550
 2254SOL     OW 7660   3.187   3.196   3.190
 2254SOL    HW1 7661   3.208   3.190   3.092
 2254SOL    HW2 7662   3.122   3.270   3.205
 2255SOL     OW 7663   1.640   2.260   6.350
 2255SOL    HW1 7664   1.624   2.244   6.447
 2255SOL    HW2 7665   1.594   2.345   6.322
 2256SOL     OW 7666   4.992   0.305   1.577
 2256SOL    HW1 7667   5.003   0.395   1.619
 2256SOL    HW2 7668   4.947   0.243   1.641
 2257SOL     OW 7669   0.200   0.484   6.315
 2257SOL    HW1 7670   0.102   0.469   6.306
 2257SOL    HW2 7671   0.241   0.407   6.364
 2258SOL     OW 7672   2.575   0.181   3.370
 2258SOL    HW1 7673   2.574   0.207   3.466
 2258SOL    HW2 7674   2.487   0.204   3.328
 2259SOL     OW 7675   5.977   0.364   5.574
 2259SOL    HW1 7676   6.027   0.315   5.502
 2259SOL    HW2 7677   5.994   0.463   5.564
 2260SOL     OW 7678   1.640   3.723   1.121
 2260SOL    HW1 7679   1.617   3.626   1.108
 2260SOL    HW2 7680   1.608   3.775   1.042
 2261SOL     OW 7681   5.129   4.429   6.237
 2261SOL    HW1 7682   5.087   4.514   6.206
 2261SOL    HW2 7683   5.060   4.373   6.283
 2262SOL     OW 7684   6.738   0.111   4.025
 2262SOL    HW1 7685   6.779   0.093   4.115
 2262SOL    HW2 7686   6.810   0.114   3.956
 2263SOL     OW 7687   2.330   4.498   6.482
 2263SOL    HW1 7688   2.333   4.526   6.386
 2263SOL    HW2 7689   2.377   4.411   6.493
 2264SOL     OW 7690   1.844   0.176   6.753
 2264SOL    HW1 7691   1.813   0.256   6.804
 2264SOL    HW2 7692   1.785   0.098   6.775
 2265SOL     OW 7693   0.465   6.464   3.404
 2265SOL    HW1 7694   0.528   6.442   3.478
 2265SOL    HW2 7695   0.374   6.429   3.426
 2266SOL     OW 7696   5.070   3.857   6.236
 2266SOL    HW1 7697   5.156   3.834   6.280
 2266SOL    HW2 7698   5.019   3.921   6.294
 2267SOL     OW 7699   5.631   3.058   4.362
 2267SOL    HW1 7700   5.604   3.008   4.280
 2267SOL    HW2 7701   5.648   3.154   4.339
 2268SOL     OW 7702   0.941   6.061   4.771
 2268SOL    HW1 7703   0.960   6.043   4.868
 2268SOL    HW2 7704   0.907   5.977   4.728
 2269SOL     OW 7705   1.954   2.400   5.719
 2269SOL    HW1 7706   1.871   2.456   5.713
 2269SOL    HW2 7707   1.938   2.313   5.672
 2270SOL     OW 7708   4.946   2.323   6.286
 2270SOL    HW1 7709   5.005   2.382   6.340
 2270SOL    HW2 7710   4.988   2.307   6.197
 2271SOL     OW 7711   4.007   5.570   5.372
 2271SOL    HW1 7712   3.975   5.481   5.341
 2271SOL    HW2 7713   3.929   5.627   5.396
 2272SOL     OW 7714   5.853   0.812   6.164
 2272SOL    HW1 7715   5.758   0.787   6.183
 2272SOL    HW2 7716   5.876   0.895   6.215
 2273SOL     OW 7717   1.222   2.113   4.164
 2273SOL    HW1 7718   1.293   2.050   4.197
 2273SOL    HW2 7719   1.182   2.161   4.242
 2274SOL     OW 7720   1.201   1.603   6.994
 2274SOL    HW1 7721   1.162   1.635   6.907
 2274SOL    HW2 7722   1.159   1.515   7.018
 2275SOL     OW 7723   5.680   3.658   3.557
 2275SOL    HW1 7724   5.697   3.737   3.499
 2275SOL    HW2 7725   5.582   3.640   3.561
 2276SOL     OW 7726   1.918   1.597   1.413
 2276SOL    HW1 7727   1.838   1.545   1.444
 2276SOL    HW2 7728   1.906   1.622   1.317
 2277SOL     OW 7729   3.265   2.923   3.550
 2277SOL    HW1 7730   3.360   2.940   3.575
 2277SOL    HW2 7731   3.223   2.862   3.618
 2278SOL     OW 7732   6.628   3.584   3.665
 2278SOL    HW1 7733   6.723   3.563   3.689
 2278SOL    HW2 7734   6.597   3.663   3.718
 2279SOL     OW 7735   0.872   5.126   5.587
 2279SOL    HW1 7736   0.934   5.105   5.511
 2279SOL    HW2 7737   0.922   5.176   5.658
 2280SOL     OW 7738   4.707   2.331   5.695
 2280SOL    HW1 7739   4.662   2.386   5.765
 2280SOL    HW2 7740   4.638   2.285   5.639
 2281SOL     OW 7741   4.753   6.984   2.448
 2281SOL    HW1 7742   4.722   6.904   2.500
 2281SOL    HW2 7743   4.692   7.000   2.371
 2282SOL     OW 7744   3.496   5.380   5.554
 2282SOL    HW1 7745   3.513   5.333   5.467
 2282SOL    HW2 7746   3.483   5.312   5.626
 2283SOL     OW 7747   7.010   0.820   5.053
 2283SOL    HW1 7748   6.977   0.729   5.078
 2283SOL    HW2 7749   0.048   0.813   4.972
 2284SOL     OW 7750   1.587   3.923   6.650
 2284SOL    HW1 7751   1.544   3.982   6.718
 2284SOL    HW2 7752   1.614   3.837   6.692
 2285SOL     OW 7753   1.186   5.164   6.565
 2285SOL    HW1 7754   1.267   5.216   6.590
 2285SOL    HW2 7755   1.104   5.213   6.595
 2286SOL     OW 7756   4.474   4.482   2.775
 2286SOL    HW1 7757   4.392   4.526   2.737
 2286SOL    HW2 7758   4.526   4.549   2.828
 2287SOL     OW 7759   1.400   1.353   4.287
 2287SOL    HW1 7760   1.447   1.268   4.311
 2287SOL    HW2 7761   1.310   1.355   4.331
 2288SOL     OW 7762   6.349   5.441   2.906
 2288SOL    HW1 7763   6.301   5.417   2.990
 2288SOL    HW2 7764   6.342   5.540   2.890
 2289SOL     OW 7765   0.354   5.184   0.181
 2289SOL    HW1 7766   0.327   5.146   0.269
 2289SOL    HW2 7767   0.369   5.110   0.116
 2290SOL     OW 7768   0.840   5.581   6.711
 2290SOL    HW1 7769   0.867   5.647   6.641
 2290SOL    HW2 7770   0.756   5.612   6.755
 2291SOL     OW 7771   2.101   1.577   6.787
 2291SOL    HW1 7772   2.071   1.647   6.722
 2291SOL    HW2 7773   2.093   1.613   6.880
 2292SOL     OW 7774   1.817   0.736   4.379
 2292SOL    HW1 7775   1.746   0.691   4.434
 2292SOL    HW2 7776   1.778   0.817   4.335
 2293SOL     OW 7777   5.461   4.586   2.714
 2293SOL    HW1 7778   5.459   4.515   2.644
 2293SOL    HW2 7779   5.424   4.671   2.677
 2294SOL     OW 7780   3.896   6.810   6.997
 2294SOL    HW1 7781   3.911   6.711   6.988
 2294SOL    HW2 7782   3.967   6.849   0.033
 2295SOL     OW 7783   0.836   0.898   2.361
 2295SOL    HW1 7784   0.829   0.827   2.431
 2295SOL    HW2 7785   0.861   0.857   2.274
 2296SOL     OW 7786   2.969   6.006   0.285
 2296SOL    HW1 7787   2.882   6.050   0.261
 2296SOL    HW2 7788   2.988   5.933   0.219
 2297SOL     OW 7789   4.217   6.531   6.996
 2297SOL    HW1 7790   4.307   6.575   7.005
 2297SOL    HW2 7791   4.226   6.449   6.938
 2298SOL     OW 7792   4.096   3.055   6.739
 2298SOL    HW1 7793   4.159   3.110   6.792
 2298SOL    HW2 7794   4.052   2.987   6.798
 2299SOL     OW 7795   4.244   6.852   0.615
 2299SOL    HW1 7796   4.312   6.786   0.584
 2299SOL    HW2 7797   4.245   6.932   0.555
 2300SOL     OW 7798   1.276   5.294   0.899
 2300SOL    HW1 7799   1.334   5.221   0.935
 2300SOL    HW2 7800   1.199   5.253   0.849
 2301SOL     OW 7801   3.686   3.319   1.787
 2301SOL    HW1 7802   3.596   3.309   1.745
 2301SOL    HW2 7803   3.675   3.343   1.883
 2302SOL     OW 7804   2.511   5.325   2.711
 2302SOL    HW1 7805   2.457   5.390   2.765
 2302SOL    HW2 7806   2.481   5.232   2.731
 2303SOL     OW 7807   0.220   3.281   6.579
 2303SOL    HW1 7808   0.141   3.221   6.586
 2303SOL    HW2 7809   0.276   3.272   6.661
 2304SOL     OW 7810   1.783   1.681   4.873
 2304SOL    HW1 7811   1.738   1.596   4.899
 2304SOL    HW2 7812   1.864   1.661   4.819
 2305SOL     OW 7813   4.162   4.924   1.839
 2305SOL    HW1 7814   4.067   4.945   1.864
 2305SOL    HW2 7815   4.165   4.891   1.745
 2306SOL     OW 7816   0.392   4.617   0.446
 2306SOL    HW1 7817   0.488   4.615   0.473
 2306SOL    HW2 7818   0.340   4.672   0.511
 2307SOL     OW 7819   0.383   0.924   3.294
 2307SOL    HW1 7820   0.395   0.843   3.236
 2307SOL    HW2 7821   0.384   1.006   3.237
 2308SOL     OW 7822   0.990   0.005   0.170
 2308SOL    HW1 7823   0.903   0.053   0.183
 2308SOL    HW2 7824   1.040   0.001   0.256
 2309SOL     OW 7825   2.019   5.117   6.397
 2309SOL    HW1 7826   1.943   5.061   6.365
 2309SOL    HW2 7827   2.051   5.175   6.322
 2310SOL     OW 7828   5.668   1.499   3.428
 2310SOL    HW1 7829   5.606   1.481   3.351
 2310SOL    HW2 7830   5.654   1.430   3.499
 2311SOL     OW 7831   2.921   0.539   2.716
 2311SOL    HW1 7832   2.850   0.499   2.659
 2311SOL    HW2 7833   2.907   0.638   2.722
 2312SOL     OW 7834   2.603   0.938   2.604
 2312SOL    HW1 7835   2.677   0.959   2.668
 2312SOL    HW2 7836   2.639   0.885   2.527
 2313SOL     OW 7837   5.061   4.286   2.174
 2313SOL    HW1 7838   5.068   4.197   2.219
 2313SOL    HW2 7839   4.966   4.299   2.143
 2314SOL     OW 7840   6.441   6.024   2.591
 2314SOL    HW1 7841   6.450   6.013   2.690
 2314SOL    HW2 7842   6.373   6.096   2.572
 2315SOL     OW 7843   4.465   6.261   4.930
 2315SOL    HW1 7844   4.385   6.258   4.990
 2315SOL    HW2 7845   4.548   6.254   4.985
 2316SOL     OW 7846   3.420   1.616   5.971
 2316SOL    HW1 7847   3.410   1.711   5.941
 2316SOL    HW2 7848   3.334   1.567   5.953
 2317SOL     OW 7849   6.946   5.263   2.665
 2317SOL    HW1 7850   6.910   5.213   2.744
 2317SOL    HW2 7851   6.951   5.360   2.686
 2318SOL     OW 7852   1.066   4.452   3.731
 2318SOL    HW1 7853   1.110   4.505   3.659
 2318SOL    HW2 7854   1.094   4.356   3.725
 2319SOL     OW 7855   2.232   5.596   3.317
 2319SOL    HW1 7856   2.300   5.641   3.259
 2319SOL    HW2 7857   2.268   5.589   3.410
 2320SOL     OW 7858   1.069   1.785   5.452
 2320SOL    HW1 7859   0.989   1.844   5.463
 2320SOL    HW2 7860   1.134   1.804   5.525
 2321SOL     OW 7861   1.995   5.072   5.305
 2321SOL    HW1 7862   2.039   5.152   5.345
 2321SOL    HW2 7863   1.902   5.064   5.339
 2322SOL     OW 7864   2.335   4.159   1.579
 2322SOL    HW1 7865   2.415   4.169   1.520
 2322SOL    HW2 7866   2.299   4.249   1.603
 2323SOL     OW 7867   2.630   5.577   0.768
 2323SOL    HW1 7868   2.531   5.573   0.784
 2323SOL    HW2 7869   2.654   5.665   0.727
 2324SOL     OW 7870   6.693   5.154   2.466
 2324SOL    HW1 7871   6.778   5.103   2.481
 2324SOL    HW2 7872   6.637   5.148   2.549
 2325SOL     OW 7873   6.339   5.056   2.506
 2325SOL    HW1 7874   6.309   5.135   2.561
 2325SOL    HW2 7875   6.285   5.052   2.422
 2326SOL     OW 7876   1.889   0.502   0.246
 2326SOL    HW1 7877   1.956   0.556   0.196
 2326SOL    HW2 7878   1.910   0.404   0.235
 2327SOL     OW 7879   6.616   6.668   2.080
 2327SOL    HW1 7880   6.530   6.634   2.041
 2327SOL    HW2 7881   6.642   6.753   2.035
 2328SOL     OW 7882   2.186   3.989   2.322
 2328SOL    HW1 7883   2.124   4.050   2.273
 2328SOL    HW2 7884   2.242   4.043   2.385
 2329SOL     OW 7885   0.660   4.694   2.787
 2329SOL    HW1 7886   0.735   4.753   2.758
 2329SOL    HW2 7887   0.658   4.613   2.728
 2330SOL     OW 7888   6.075   3.101   1.534
 2330SOL    HW1 7889   6.002   3.053   1.583
 2330SOL    HW2 7890   6.052   3.199   1.529
 2331SOL     OW 7891   4.795   5.872   1.308
 2331SOL    HW1 7892   4.797   5.791   1.250
 2331SOL    HW2 7893   4.710   5.874   1.360
 2332SOL     OW 7894   5.975   0.022   5.955
 2332SOL    HW1 7895   5.929   6.959   5.987
 2332SOL    HW2 7896   5.920   0.101   5.980
 2333SOL     OW 7897   1.155   4.781   2.366
 2333SOL    HW1 7898   1.138   4.878   2.346
 2333SOL    HW2 7899   1.154   4.729   2.281
 2334SOL     OW 7900   3.126   1.443   6.388
 2334SOL    HW1 7901   3.028   1.431   6.374
 2334SOL    HW2 7902   3.175   1.410   6.307
 2335SOL     OW 7903   6.738   1.542   3.661
 2335SOL    HW1 7904   6.748   1.481   3.582
 2335SOL    HW2 7905   6.658   1.600   3.648
 2336SOL     OW 7906   1.776   2.042   3.473
 2336SOL    HW1 7907   1.729   2.093   3.545
 2336SOL    HW2 7908   1.846   2.100   3.431
 2337SOL     OW 7909   3.979   1.085   1.494
 2337SOL    HW1 7910   3.950   1.135   1.575
 2337SOL    HW2 7911   4.054   1.134   1.449
 2338SOL     OW 7912   0.022   3.719   3.870
 2338SOL    HW1 7913   7.019   3.752   3.961
 2338SOL    HW2 7914   0.115   3.682   3.871
 2339SOL     OW 7915   3.059   3.084   3.444
 2339SOL    HW1 7916   3.135   3.046   3.497
 2339SOL    HW2 7917   3.093   3.119   3.357
 2340SOL     OW 7918   2.337   4.413   6.837
 2340SOL    HW1 7919   2.292   4.345   6.778
 2340SOL    HW2 7920   2.425   4.439   6.797
 2341SOL     OW 7921   2.617   4.576   4.359
 2341SOL    HW1 7922   2.624   4.481   4.387
 2341SOL    HW2 7923   2.523   4.607   4.367
 2342SOL     OW 7924   3.538   1.138   4.064
 2342SOL    HW1 7925   3.533   1.059   4.126
 2342SOL    HW2 7926   3.446   1.164   4.037
 2343SOL     OW 7927   0.659   0.102   1.440
 2343SOL    HW1 7928   0.753   0.124   1.465
 2343SOL    HW2 7929   0.596   0.153   1.499
 2344SOL     OW 7930   5.756   4.474   0.281
 2344SOL    HW1 7931   5.691   4.404   0.311
 2344SOL    HW2 7932   5.817   4.435   0.212
 2345SOL     OW 7933   3.557   6.302   4.850
 2345SOL    HW1 7934   3.610   6.371   4.898
 2345SOL    HW2 7935   3.533   6.228   4.914
 2346SOL     OW 7936   4.735   3.621   0.296
 2346SOL    HW1 7937   4.813   3.649   0.352
 2346SOL    HW2 7938   4.768   3.571   0.215
 2347SOL     OW 7939   1.598   1.848   1.037
 2347SOL    HW1 7940   1.499   1.836   1.033
 2347SOL    HW2 7941   1.632   1.875   0.946
 2348SOL     OW 7942   0.388   5.307   2.115
 2348SOL    HW1 7943   0.483   5.314   2.085
 2348SOL    HW2 7944   0.349   5.399   2.125
 2349SOL     OW 7945   1.303   4.215   5.255
 2349SOL    HW1 7946   1.339   4.194   5.164
 2349SOL    HW2 7947   1.378   4.243   5.315
 2350SOL     OW 7948   5.176   3.829   0.211
 2350SOL    HW1 7949   5.247   3.835   0.281
 2350SOL    HW2 7950   5.212   3.866   0.125
 2351SOL     OW 7951   2.646   5.762   1.462
 2351SOL    HW1 7952   2.732   5.719   1.488
 2351SOL    HW2 7953   2.571   5.698   1.477
 2352SOL     OW 7954   6.797   2.431   3.454
 2352SOL    HW1 7955   6.719   2.417   3.392
 2352SOL    HW2 7956   6.770   2.411   3.548
 2353SOL     OW 7957   3.381   5.183   4.188
 2353SOL    HW1 7958   3.377   5.249   4.263
 2353SOL    HW2 7959   3.304   5.199   4.126
 2354SOL     OW 7960   2.456   2.677   3.851
 2354SOL    HW1 7961   2.424   2.605   3.790
 2354SOL    HW2 7962   2.540   2.717   3.815
 2355SOL     OW 7963   2.696   5.580   4.545
 2355SOL    HW1 7964   2.773   5.538   4.592
 2355SOL    HW2 7965   2.729   5.651   4.483
 2356SOL     OW 7966   6.718   2.662   6.805
 2356SOL    HW1 7967   6.742   2.578   6.854
 2356SOL    HW2 7968   6.683   2.729   6.871
 2357SOL     OW 7969   2.127   6.607   2.900
 2357SOL    HW1 7970   2.042   6.660   2.893
 2357SOL    HW2 7971   2.201   6.666   2.930
 2358SOL     OW 7972   3.537   4.897   5.758
 2358SOL    HW1 7973   3.486   4.953   5.693
 2358SOL    HW2 7974   3.562   4.953   5.838
 2359SOL     OW 7975   1.580   0.584   5.012
 2359SOL    HW1 7976   1.678   0.603   5.017
 2359SOL    HW2 7977   1.560   0.501   5.065
 2360SOL     OW 7978   6.956   3.978   0.006
 2360SOL    HW1 7979   6.974   3.892   0.053
 2360SOL    HW2 7980   6.999   3.975   6.936
 2361SOL     OW 7981   3.472   1.293   0.285
 2361SOL    HW1 7982   3.429   1.362   0.344
 2361SOL    HW2 7983   3.452   1.202   0.321
 2362SOL     OW 7984   2.815   6.072   3.222
 2362SOL    HW1 7985   2.834   6.156   3.273
 2362SOL    HW2 7986   2.716   6.060   3.214
 2363SOL     OW 7987   4.000   0.674   3.892
 2363SOL    HW1 7988   4.070   0.743   3.910
 2363SOL    HW2 7989   3.969   0.682   3.797
 2364SOL     OW 7990   1.508   2.952   1.272
 2364SOL    HW1 7991   1.564   2.906   1.341
 2364SOL    HW2 7992   1.440   2.888   1.237
 2365SOL     OW 7993   5.047   2.050   0.187
 2365SOL    HW1 7994   5.095   1.967   0.214
 2365SOL    HW2 7995   5.008   2.094   0.268
 2366SOL     OW 7996   4.488   5.620   0.640
 2366SOL    HW1 7997   4.587   5.607   0.635
 2366SOL    HW2 7998   4.453   5.576   0.722
 2367SOL     OW 7999   2.179   3.409   6.021
 2367SOL    HW1 8000   2.279   3.406   6.019
 2367SOL    HW2 8001   2.143   3.381   5.932
 2368SOL     OW 8002   6.246   6.327   1.876
 2368SOL    HW1 8003   6.231   6.247   1.933
 2368SOL    HW2 8004   6.344   6.335   1.855
 2369SOL     OW 8005   2.855   1.239   3.126
 2369SOL    HW1 8006   2.857   1.318   3.188
 2369SOL    HW2 8007   2.849   1.155   3.180
 2370SOL     OW 8008   5.554   2.622   6.113
 2370SOL    HW1 8009   5.607   2.540   6.095
 2370SOL    HW2 8010   5.613   2.692   6.152
 2371SOL     OW 8011   1.997   6.192   1.905
 2371SOL    HW1 8012   1.931   6.204   1.979
 2371SOL    HW2 8013   1.970   6.248   1.826
 2372SOL     OW 8014   6.336   3.197   2.667
 2372SOL    HW1 8015   6.358   3.170   2.760
 2372SOL    HW2 8016   6.310   3.294   2.666
 2373SOL     OW 8017   2.312   3.537   6.459
 2373SOL    HW1 8018   2.333   3.572   6.367
 2373SOL    HW2 8019   2.390   3.552   6.519
 2374SOL     OW 8020   5.300   2.563   4.644
 2374SOL    HW1 8021   5.384   2.576   4.697
 2374SOL    HW2 8022   5.323   2.543   4.549
 2375SOL     OW 8023   1.874   6.922   5.795
 2375SOL    HW1 8024   1.867   6.941   5.697
 2375SOL    HW2 8025   1.868   7.008   5.845
 2376SOL     OW 8026   6.715   2.694   4.377
 2376SOL    HW1 8027   6.792   2.690   4.314
 2376SOL    HW2 8028   6.647   2.759   4.342
 2377SOL     OW 8029   3.377   2.989   4.023
 2377SOL    HW1 8030   3.458   3.044   4.045
 2377SOL    HW2 8031   3.358   2.995   3.925
 2378SOL     OW 8032   5.533   2.525   0.777
 2378SOL    HW1 8033   5.445   2.567   0.759
 2378SOL    HW2 8034   5.536   2.434   0.736
 2379SOL     OW 8035   6.611   0.040   6.516
 2379SOL    HW1 8036   6.541   6.992   6.494
 2379SOL    HW2 8037   6.695   7.015   6.545
 2380SOL     OW 8038   6.522   2.022   2.633
 2380SOL    HW1 8039   6.581   2.028   2.713
 2380SOL    HW2 8040   6.436   2.069   2.651
 2381SOL     OW 8041   1.743   6.057   2.838
 2381SOL    HW1 8042   1.665   6.118   2.827
 2381SOL    HW2 8043   1.770   6.054   2.934
 2382SOL     OW 8044   1.287   3.410   5.817
 2382SOL    HW1 8045   1.307   3.427   5.721
 2382SOL    HW2 8046   1.370   3.382   5.865
 2383SOL     OW 8047   5.904   5.845   2.275
 2383SOL    HW1 8048   5.986   5.852   2.218
 2383SOL    HW2 8049   5.920   5.780   2.349
 2384SOL     OW 8050   4.235   1.243   1.477
 2384SOL    HW1 8051   4.244   1.192   1.562
 2384SOL    HW2 8052   4.301   1.318   1.476
 2385SOL     OW 8053   1.544   2.389   6.943
 2385SOL    HW1 8054   1.529   2.420   6.849
 2385SOL    HW2 8055   1.592   2.302   6.942
 2386SOL     OW 8056   4.514   4.815   4.099
 2386SOL    HW1 8057   4.494   4.861   4.185
 2386SOL    HW2 8058   4.540   4.882   4.029
 2387SOL     OW 8059   1.559   1.323   2.984
 2387SOL    HW1 8060   1.606   1.389   2.925
 2387SOL    HW2 8061   1.550   1.362   3.076
 2388SOL     OW 8062   0.170   1.912   4.073
 2388SOL    HW1 8063   0.246   1.868   4.026
 2388SOL    HW2 8064   0.189   2.010   4.082
 2389SOL     OW 8065   3.415   6.602   2.317
 2389SOL    HW1 8066   3.324   6.589   2.356
 2389SOL    HW2 8067   3.409   6.609   2.218
 2390SOL     OW 8068   3.052   4.458   1.251
 2390SOL    HW1 8069   3.070   4.556   1.260
 2390SOL    HW2 8070   2.966   4.436   1.296
 2391SOL     OW 8071   4.186   5.291   4.906
 2391SOL    HW1 8072   4.150   5.355   4.975
 2391SOL    HW2 8073   4.246   5.225   4.950
 2392SOL     OW 8074   3.809   1.174   6.858
 2392SOL    HW1 8075   3.885   1.110   6.868
 2392SOL    HW2 8076   3.723   1.122   6.856
 2393SOL     OW 8077   3.676   4.977   4.720
 2393SOL    HW1 8078   3.600   5.001   4.660
 2393SOL    HW2 8079   3.694   5.052   4.784
 2394SOL     OW 8080   6.933   4.600   5.839
 2394SOL    HW1 8081   0.008   4.625   5.850
 2394SOL    HW2 8082   6.895   4.646   5.759
 2395SOL     OW 8083   4.455   6.633   6.482
 2395SOL    HW1 8084   4.481   6.576   6.560
 2395SOL    HW2 8085   4.362   6.609   6.453
 2396SOL     OW 8086   3.218   5.596   0.805
 2396SOL    HW1 8087   3.138   5.562   0.854
 2396SOL    HW2 8088   3.254   5.523   0.747
 2397SOL     OW 8089   0.479   3.698   4.056
 2397SOL    HW1 8090   0.433   3.721   4.141
 2397SOL    HW2 8091   0.542   3.622   4.071
 2398SOL     OW 8092   4.713   3.708   5.369
 2398SOL    HW1 8093   4.653   3.784   5.346
 2398SOL    HW2 8094   4.706   3.637   5.298
 2399SOL     OW 8095   4.231   2.460   1.387
 2399SOL    HW1 8096   4.240   2.511   1.472
 2399SOL    HW2 8097   4.134   2.451   1.363
 2400SOL     OW 8098   1.828   5.204   0.193
 2400SOL    HW1 8099   1.729   5.205   0.208
 2400SOL    HW2 8100   1.875   5.202   0.282
 2401SOL     OW 8101   6.681   6.162   6.298
 2401SOL    HW1 8102   6.655   6.165   6.394
 2401SOL    HW2 8103   6.777   6.186   6.288
 2402SOL     OW 8104   6.870   6.385   4.180
 2402SOL    HW1 8105   6.771   6.377   4.163
 2402SOL    HW2 8106   6.918   6.386   4.092
 2403SOL     OW 8107   0.727   1.403   4.851
 2403SOL    HW1 8108   0.669   1.483   4.859
 2403SOL    HW2 8109   0.710   1.359   4.763
 2404SOL     OW 8110   1.247   0.436   0.352
 2404SOL    HW1 8111   1.341   0.421   0.383
 2404SOL    HW2 8112   1.184   0.383   0.410
 2405SOL     OW 8113   2.785   4.413   1.338
 2405SOL    HW1 8114   2.803   4.434   1.434
 2405SOL    HW2 8115   2.749   4.321   1.329
 2406SOL     OW 8116   4.810   1.070   1.190
 2406SOL    HW1 8117   4.748   1.092   1.265
 2406SOL    HW2 8118   4.758   1.061   1.105
 2407SOL     OW 8119   5.269   0.118   3.344
 2407SOL    HW1 8120   5.266   0.103   3.443
 2407SOL    HW2 8121   5.334   0.056   3.302
 2408SOL     OW 8122   4.436   4.818   2.182
 2408SOL    HW1 8123   4.349   4.774   2.205
 2408SOL    HW2 8124   4.506   4.789   2.247
 2409SOL     OW 8125   1.227   4.629   0.489
 2409SOL    HW1 8126   1.190   4.558   0.429
 2409SOL    HW2 8127   1.319   4.602   0.519
 2410SOL     OW 8128   3.569   2.838   2.846
 2410SOL    HW1 8129   3.619   2.864   2.929
 2410SOL    HW2 8130   3.632   2.793   2.782
 2411SOL     OW 8131   4.276   0.773   4.356
 2411SOL    HW1 8132   4.305   0.702   4.292
 2411SOL    HW2 8133   4.225   0.732   4.431
 2412SOL     OW 8134   4.115   3.650   1.113
 2412SOL    HW1 8135   4.148   3.630   1.021
 2412SOL    HW2 8136   4.187   3.629   1.180
 2413SOL     OW 8137   4.130   7.010   3.192
 2413SOL    HW1 8138   4.196   6.944   3.227
 2413SOL    HW2 8139   4.096   0.046   3.267
 2414SOL     OW 8140   5.190   3.035   4.165
 2414SOL    HW1 8141   5.215   2.938   4.160
 2414SOL    HW2 8142   5.091   3.043   4.179
 2415SOL     OW 8143   4.467   0.459   3.607
 2415SOL    HW1 8144   4.402   0.493   3.539
 2415SOL    HW2 8145   4.534   0.531   3.627
 2416SOL     OW 8146   5.631   1.869   6.623
 2416SOL    HW1 8147   5.698   1.844   6.693
 2416SOL    HW2 8148   5.678   1.883   6.536
 2417SOL     OW 8149   3.265   3.940   5.420
 2417SOL    HW1 8150   3.363   3.923   5.413
 2417SOL    HW2 8151   3.249   4.034   5.452
 2418SOL     OW 8152   3.234   3.274   2.636
 2418SOL    HW1 8153   3.162   3.322   2.587
 2418SOL    HW2 8154   3.248   3.183   2.594
 2419SOL     OW 8155   6.754   0.851   3.746
 2419SOL    HW1 8156   6.829   0.803   3.791
 2419SOL    HW2 8157   6.681   0.869   3.812
 2420SOL     OW 8158   2.212   0.106   1.793
 2420SOL    HW1 8159   2.261   0.186   1.757
 2420SOL    HW2 8160   2.278   0.040   1.829
 2421SOL     OW 8161   3.566   1.862   3.396
 2421SOL    HW1 8162   3.543   1.824   3.306
 2421SOL    HW2 8163   3.556   1.792   3.466
 2422SOL     OW 8164   5.298   1.686   1.189
 2422SOL    HW1 8165   5.295   1.626   1.269
 2422SOL    HW2 8166   5.378   1.745   1.194
 2423SOL     OW 8167   1.798   4.791   2.585
 2423SOL    HW1 8168   1.804   4.808   2.487
 2423SOL    HW2 8169   1.711   4.827   2.619
 2424SOL     OW 8170   6.329   0.238   0.395
 2424SOL    HW1 8171   6.312   0.159   0.453
 2424SOL    HW2 8172   6.362   0.208   0.306
 2425SOL     OW 8173   6.695   6.690   4.313
 2425SOL    HW1 8174   6.605   6.731   4.327
 2425SOL    HW2 8175   6.752   6.752   4.261
 2426SOL     OW 8176   2.147   5.258   4.243
 2426SOL    HW1 8177   2.149   5.176   4.300
 2426SOL    HW2 8178   2.052   5.287   4.229
 2427SOL     OW 8179   6.301   0.167   5.813
 2427SOL    HW1 8180   6.281   0.222   5.894
 2427SOL    HW2 8181   6.398   0.142   5.814
 2428SOL     OW 8182   5.482   1.417   0.516
 2428SOL    HW1 8183   5.493   1.459   0.606
 2428SOL    HW2 8184   5.529   1.472   0.447
 2429SOL     OW 8185   4.676   5.346   2.453
 2429SOL    HW1 8186   4.604   5.306   2.510
 2429SOL    HW2 8187   4.657   5.325   2.357
 2430SOL     OW 8188   4.333   0.043   2.744
 2430SOL    HW1 8189   4.309   0.103   2.668
 2430SOL    HW2 8190   4.353   0.098   2.825
 2431SOL     OW 8191   4.390   6.985   2.421
 2431SOL    HW1 8192   4.309   6.928   2.417
 2431SOL    HW2 8193   4.371   0.046   2.475
 2432SOL     OW 8194   2.333   5.969   2.117
 2432SOL    HW1 8195   2.310   5.873   2.108
 2432SOL    HW2 8196   2.250   6.024   2.117
 2433SOL     OW 8197   4.719   0.158   0.587
 2433SOL    HW1 8198   4.763   0.141   0.499
 2433SOL    HW2 8199   4.751   0.091   0.654
 2434SOL     OW 8200   3.342   2.932   4.287
 2434SOL    HW1 8201   3.362   2.950   4.191
 2434SOL    HW2 8202   3.392   2.997   4.345
 2435SOL     OW 8203   6.094   6.027   6.444
 2435SOL    HW1 8204   6.193   6.026   6.457
 2435SOL    HW2 8205   6.052   6.094   6.506
 2436SOL     OW 8206   2.919   4.383   0.839
 2436SOL    HW1 8207   2.971   4.342   0.764
 2436SOL    HW2 8208   2.877   4.310   0.894
 2437SOL     OW 8209   7.015   0.784   5.645
 2437SOL    HW1 8210   7.001   0.861   5.707
 2437SOL    HW2 8211   7.002   0.815   5.551
 2438SOL     OW 8212   3.603   3.272   0.778
 2438SOL    HW1 8213   3.521   3.233   0.821
 2438SOL    HW2 8214   3.595   3.371   0.775
 2439SOL     OW 8215   5.933   4.363   5.925
 2439SOL    HW1 8216   6.006   4.389   5.988
 2439SOL    HW2 8217   5.932   4.424   5.847
 2440SOL     OW 8218   6.197   5.165   5.695
 2440SOL    HW1 8219   6.130   5.228   5.656
 2440SOL    HW2 8220   6.267   5.144   5.626
 2441SOL     OW 8221   6.509   2.189   0.508
 2441SOL    HW1 8222   6.462   2.106   0.537
 2441SOL    HW2 8223   6.449   2.242   0.447
 2442SOL     OW 8224   6.487   1.966   4.590
 2442SOL    HW1 8225   6.407   2.025   4.602
 2442SOL    HW2 8226   6.469   1.877   4.632
 2443SOL     OW 8227   2.957   4.620   5.474
 2443SOL    HW1 8228   3.014   4.650   5.398
 2443SOL    HW2 8229   2.905   4.539   5.447
 2444SOL     OW 8230   3.778   2.462   5.913
 2444SOL    HW1 8231   3.718   2.407   5.971
 2444SOL    HW2 8232   3.873   2.434   5.926
 2445SOL     OW 8233   1.205   0.256   1.105
 2445SOL    HW1 8234   1.119   0.307   1.108
 2445SOL    HW2 8235   1.200   0.179   1.170
 2446SOL     OW 8236   4.486   2.742   6.632
 2446SOL    HW1 8237   4.496   2.830   6.677
 2446SOL    HW2 8238   4.422   2.751   6.555
 2447SOL     OW 8239   1.167   3.580   6.475
 2447SOL    HW1 8240   1.242   3.542   6.420
 2447SOL    HW2 8241   1.204   3.611   6.562
 2448SOL     OW 8242   6.685   0.659   4.773
 2448SOL    HW1 8243   6.609   0.629   4.831
 2448SOL    HW2 8244   6.770   0.620   4.807
 2449SOL     OW 8245   6.990   2.958   5.542
 2449SOL    HW1 8246   6.914   2.903   5.577
 2449SOL    HW2 8247   7.004   3.038   5.601
 2450SOL     OW 8248   2.142   3.406   1.409
 2450SOL    HW1 8249   2.211   3.450   1.467
 2450SOL    HW2 8250   2.073   3.362   1.467
 2451SOL     OW 8251   1.655   5.673   3.818
 2451SOL    HW1 8252   1.685   5.751   3.872
 2451SOL    HW2 8253   1.670   5.589   3.870
 2452SOL     OW 8254   2.613   2.246   5.023
 2452SOL    HW1 8255   2.561   2.327   4.994
 2452SOL    HW2 8256   2.689   2.231   4.959
 2453SOL     OW 8257   0.421   4.408   1.111
 2453SOL    HW1 8258   0.415   4.496   1.157
 2453SOL    HW2 8259   0.335   4.388   1.064
 2454SOL     OW 8260   0.964   6.812   2.400
 2454SOL    HW1 8261   1.038   6.752   2.370
 2454SOL    HW2 8262   0.904   6.832   2.323
 2455SOL     OW 8263   5.547   3.459   1.286
 2455SOL    HW1 8264   5.545   3.488   1.382
 2455SOL    HW2 8265   5.594   3.372   1.279
 2456SOL     OW 8266   2.821   6.927   1.575
 2456SOL    HW1 8267   2.753   6.970   1.635
 2456SOL    HW2 8268   2.904   6.984   1.574
 2457SOL     OW 8269   5.311   5.935   1.065
 2457SOL    HW1 8270   5.238   5.909   1.128
 2457SOL    HW2 8271   5.271   5.971   0.981
 2458SOL     OW 8272   0.733   6.363   1.740
 2458SOL    HW1 8273   0.639   6.396   1.733
 2458SOL    HW2 8274   0.738   6.289   1.807
 2459SOL     OW 8275   1.383   1.888   0.349
 2459SOL    HW1 8276   1.287   1.866   0.364
 2459SOL    HW2 8277   1.427   1.813   0.300
 2460SOL     OW 8278   2.397   4.459   0.828
 2460SOL    HW1 8279   2.347   4.469   0.914
 2460SOL    HW2 8280   2.353   4.516   0.758
 2461SOL     OW 8281   4.442   1.513   3.151
 2461SOL    HW1 8282   4.393   1.574   3.213
 2461SOL    HW2 8283   4.391   1.504   3.065
 2462SOL     OW 8284   3.054   4.233   6.191
 2462SOL    HW1 8285   3.048   4.271   6.099
 2462SOL    HW2 8286   2.962   4.211   6.224
 2463SOL     OW 8287   0.894   3.069   5.129
 2463SOL    HW1 8288   0.988   3.098   5.145
 2463SOL    HW2 8289   0.876   3.071   5.030
 2464SOL     OW 8290   1.329   3.347   0.617
 2464SOL    HW1 8291   1.396   3.420   0.613
 2464SOL    HW2 8292   1.263   3.357   0.542
 2465SOL     OW 8293   5.962   4.325   2.715
 2465SOL    HW1 8294   5.916   4.278   2.790
 2465SOL    HW2 8295   5.928   4.419   2.709
 2466SOL     OW 8296   3.859   1.686   1.484
 2466SOL    HW1 8297   3.791   1.640   1.427
 2466SOL    HW2 8298   3.813   1.734   1.558
 2467SOL     OW 8299   0.448   1.214   5.004
 2467SOL    HW1 8300   0.455   1.309   5.031
 2467SOL    HW2 8301   0.539   1.172   5.002
 2468SOL     OW 8302   6.114   5.119   6.463
 2468SOL    HW1 8303   6.074   5.082   6.379
 2468SOL    HW2 8304   6.101   5.218   6.465
 2469SOL     OW 8305   2.888   2.757   5.908
 2469SOL    HW1 8306   2.895   2.838   5.849
 2469SOL    HW2 8307   2.797   2.717   5.899
 2470SOL     OW 8308   5.317   2.648   1.422
 2470SOL    HW1 8309   5.324   2.714   1.497
 2470SOL    HW2 8310   5.409   2.618   1.395
 2471SOL     OW 8311   0.159   1.173   3.153
 2471SOL    HW1 8312   0.259   1.172   3.162
 2471SOL    HW2 8313   0.124   1.261   3.183
 2472SOL     OW 8314   6.276   0.790   3.952
 2472SOL    HW1 8315   6.310   0.745   4.035
 2472SOL    HW2 8316   6.294   0.888   3.957
 2473SOL     OW 8317   0.582   6.035   4.875
 2473SOL    HW1 8318   0.613   6.099   4.804
 2473SOL    HW2 8319   0.662   5.997   4.922
 2474SOL     OW 8320   6.085   6.441   4.731
 2474SOL    HW1 8321   6.097   6.514   4.799
 2474SOL    HW2 8322   6.151   6.453   4.657
 2475SOL     OW 8323   3.534   2.630   6.212
 2475SOL    HW1 8324   3.451   2.632   6.156
 2475SOL    HW2 8325   3.536   2.711   6.271
 2476SOL     OW 8326   0.891   1.273   3.546
 2476SOL    HW1 8327   0.795   1.302   3.544
 2476SOL    HW2 8328   0.949   1.352   3.564
 2477SOL     OW 8329   4.571   4.447   2.194
 2477SOL    HW1 8330   4.574   4.354   2.156
 2477SOL    HW2 8331   4.646   4.501   2.156
 2478SOL     OW 8332   6.647   0.735   2.414
 2478SOL    HW1 8333   6.689   0.680   2.342
 2478SOL    HW2 8334   6.547   0.729   2.407
 2479SOL     OW 8335   1.304   3.358   0.017
 2479SOL    HW1 8336   1.349   3.319   6.958
 2479SOL    HW2 8337   1.295   3.457   0.005
 2480SOL     OW 8338   6.946   5.023   1.481
 2480SOL    HW1 8339   6.875   5.057   1.543
 2480SOL    HW2 8340   6.924   4.929   1.455
 2481SOL     OW 8341   4.199   4.675   2.384
 2481SOL    HW1 8342   4.285   4.624   2.389
 2481SOL    HW2 8343   4.163   4.671   2.291
 2482SOL     OW 8344   4.413   2.426   4.430
 2482SOL    HW1 8345   4.497   2.440   4.484
 2482SOL    HW2 8346   4.340   2.393   4.490
 2483SOL     OW 8347   1.146   3.609   0.337
 2483SOL    HW1 8348   1.051   3.640   0.335
 2483SOL    HW2 8349   1.199   3.657   0.267
 2484SOL     OW 8350   3.360   4.509   6.120
 2484SOL    HW1 8351   3.342   4.606   6.107
 2484SOL    HW2 8352   3.307   4.475   6.198
 2485SOL     OW 8353   0.742   5.173   6.905
 2485SOL    HW1 8354   0.826   5.227   6.914
 2485SOL    HW2 8355   0.731   5.116   6.986
 2486SOL     OW 8356   0.769   4.959   3.585
 2486SOL    HW1 8357   0.830   4.910   3.523
 2486SOL    HW2 8358   0.775   5.057   3.567
 2487SOL     OW 8359   2.853   1.366   1.197
 2487SOL    HW1 8360   2.760   1.402   1.195
 2487SOL    HW2 8361   2.918   1.443   1.202
 2488SOL     OW 8362   2.811   5.670   6.637
 2488SOL    HW1 8363   2.897   5.715   6.661
 2488SOL    HW2 8364   2.802   5.586   6.689
 2489SOL     OW 8365   6.867   5.596   4.427
 2489SOL    HW1 8366   6.937   5.639   4.484
 2489SOL    HW2 8367   6.863   5.642   4.338
 2490SOL     OW 8368   5.877   2.758   1.123
 2490SOL    HW1 8369   5.855   2.723   1.214
 2490SOL    HW2 8370   5.808   2.824   1.095
 2491SOL     OW 8371   6.581   3.953   2.701
 2491SOL    HW1 8372   6.594   3.975   2.604
 2491SOL    HW2 8373   6.511   4.013   2.740
 2492SOL     OW 8374   3.821   1.903   6.977
 2492SOL    HW1 8375   3.824   1.818   6.924
 2492SOL    HW2 8376   3.781   1.885   0.046
 2493SOL     OW 8377   6.785   0.461   5.631
 2493SOL    HW1 8378   6.864   0.480   5.689
 2493SOL    HW2 8379   6.725   0.541   5.629
 2494SOL     OW 8380   5.338   5.230   0.997
 2494SOL    HW1 8381   5.256   5.185   0.961
 2494SOL    HW2 8382   5.318   5.327   1.012
 2495SOL     OW 8383   6.941   1.146   2.501
 2495SOL    HW1 8384   6.875   1.079   2.467
 2495SOL    HW2 8385   6.902   1.195   2.578
 2496SOL     OW 8386   1.803   4.552   0.353
 2496SOL    HW1 8387   1.850   4.607   0.421
 2496SOL    HW2 8388   1.862   4.539   0.273
 2497SOL     OW 8389   5.990   1.281   6.639
 2497SOL    HW1 8390   5.909   1.281   6.697
 2497SOL    HW2 8391   5.965   1.309   6.546
 2498SOL     OW 8392   0.938   2.981   4.418
 2498SOL    HW1 8393   1.004   2.925   4.367
 2498SOL    HW2 8394   0.986   3.054   4.466
 2499SOL     OW 8395   5.273   0.573   0.019
 2499SOL    HW1 8396   5.334   0.630   0.074
 2499SOL    HW2 8397   5.180   0.580   0.055
 2500SOL     OW 8398   5.128   3.108   5.631
 2500SOL    HW1 8399   5.068   3.060   5.695
 2500SOL    HW2 8400   5.219   3.119   5.673
 2501SOL     OW 8401   6.458   4.951   0.920
 2501SOL    HW1 8402   6.521   4.988   0.852
 2501SOL    HW2 8403   6.487   4.979   1.012
 2502SOL     OW 8404   1.291   6.595   3.422
 2502SOL    HW1 8405   1.359   6.523   3.409
 2502SOL    HW2 8406   1.317   6.676   3.370
 2503SOL     OW 8407   5.574   6.320   3.914
 2503SOL    HW1 8408   5.556   6.411   3.951
 2503SOL    HW2 8409   5.650   6.279   3.964
 2504SOL     OW 8410   2.436   4.853   3.048
 2504SOL    HW1 8411   2.364   4.919   3.073
 2504SOL    HW2 8412   2.471   4.875   2.957
 2505SOL     OW 8413   5.211   3.691   4.454
 2505SOL    HW1 8414   5.273   3.613   4.442
 2505SOL    HW2 8415   5.122   3.670   4.413
 2506SOL     OW 8416   1.042   1.426   0.226
 2506SOL    HW1 8417   0.996   1.514   0.213
 2506SOL    HW2 8418   0.975   1.353   0.229
 2507SOL     OW 8419   6.962   6.134   0.605
 2507SOL    HW1 8420   6.891   6.205   0.602
 2507SOL    HW2 8421   6.950   6.079   0.688
 2508SOL     OW 8422   1.723   1.820   1.280
 2508SOL    HW1 8423   1.674   1.803   1.194
 2508SOL    HW2 8424   1.665   1.792   1.356
 2509SOL     OW 8425   5.849   6.551   3.824
 2509SOL    HW1 8426   5.840   6.475   3.760
 2509SOL    HW2 8427   5.901   6.520   3.904
 2510SOL     OW 8428   3.583   5.939   2.676
 2510SOL    HW1 8429   3.579   6.010   2.605
 2510SOL    HW2 8430   3.678   5.907   2.685
 2511SOL     OW 8431   0.954   5.442   4.008
 2511SOL    HW1 8432   0.908   5.367   4.055
 2511SOL    HW2 8433   0.895   5.478   3.936
 2512SOL     OW 8434   6.318   3.303   4.531
 2512SOL    HW1 8435   6.399   3.356   4.505
 2512SOL    HW2 8436   6.236   3.359   4.516
 2513SOL     OW 8437   6.936   5.380   1.371
 2513SOL    HW1 8438   6.842   5.365   1.403
 2513SOL    HW2 8439   6.935   5.440   1.291
 2514SOL     OW 8440   0.068   2.143   4.532
 2514SOL    HW1 8441   0.120   2.178   4.454
 2514SOL    HW2 8442   0.078   2.205   4.609
 2515SOL     OW 8443   0.843   4.673   6.037
 2515SOL    HW1 8444   0.877   4.586   6.000
 2515SOL    HW2 8445   0.916   4.720   6.085
 2516SOL     OW 8446   4.391   6.926   4.670
 2516SOL    HW1 8447   4.431   6.929   4.761
 2516SOL    HW2 8448   4.441   6.987   4.609
 2517SOL     OW 8449   2.813   5.787   0.625
 2517SOL    HW1 8450   2.876   5.737   0.565
 2517SOL    HW2 8451   2.784   5.871   0.580
 2518SOL     OW 8452   1.888   1.875   6.993
 2518SOL    HW1 8453   1.930   1.934   6.924
 2518SOL    HW2 8454   1.898   1.916   0.062
 2519SOL     OW 8455   6.224   4.068   4.780
 2519SOL    HW1 8456   6.226   3.982   4.729
 2519SOL    HW2 8457   6.310   4.116   4.767
 2520SOL     OW 8458   4.266   6.002   0.878
 2520SOL    HW1 8459   4.253   5.971   0.972
 2520SOL    HW2 8460   4.232   6.095   0.868
 2521SOL     OW 8461   5.842   6.418   5.788
 2521SOL    HW1 8462   5.761   6.369   5.821
 2521SOL    HW2 8463   5.829   6.516   5.799
 2522SOL     OW 8464   2.666   4.986   5.182
 2522SOL    HW1 8465   2.653   4.886   5.180
 2522SOL    HW2 8466   2.630   5.022   5.268
 2523SOL     OW 8467   0.574   1.911   6.740
 2523SOL    HW1 8468   0.560   1.995   6.688
 2523SOL    HW2 8469   0.640   1.927   6.813
 2524SOL     OW 8470   1.816   0.285   4.315
 2524SOL    HW1 8471   1.727   0.258   4.351
 2524SOL    HW2 8472   1.884   0.215   4.337
 2525SOL     OW 8473   2.811   4.691   2.271
 2525SOL    HW1 8474   2.821   4.652   2.180
 2525SOL    HW2 8475   2.769   4.782   2.265
 2526SOL     OW 8476   1.416   2.886   4.438
 2526SOL    HW1 8477   1.499   2.839   4.467
 2526SOL    HW2 8478   1.381   2.941   4.514
 2527SOL     OW 8479   6.913   6.572   3.740
 2527SOL    HW1 8480   6.953   6.491   3.782
 2527SOL    HW2 8481   6.814   6.559   3.730
 2528SOL     OW 8482   5.422   5.082   1.205
 2528SOL    HW1 8483   5.404   4.994   1.162
 2528SOL    HW2 8484   5.429   5.153   1.134
 2529SOL     OW 8485   5.099   4.698   4.972
 2529SOL    HW1 8486   5.097   4.789   5.014
 2529SOL    HW2 8487   5.176   4.693   4.908
 2530SOL     OW 8488   1.214   6.179   3.576
 2530SOL    HW1 8489   1.125   6.223   3.585
 2530SOL    HW2 8490   1.224   6.143   3.483
 2531SOL     OW 8491   5.558   2.322   6.123
 2531SOL    HW1 8492   5.631   2.308   6.056
 2531SOL    HW2 8493   5.580   2.273   6.207
 2532SOL     OW 8494   0.564   5.701   6.474
 2532SOL    HW1 8495   0.544   5.786   6.425
 2532SOL    HW2 8496   0.621   5.642   6.417
 2533SOL     OW 8497   5.541   0.904   4.409
 2533SOL    HW1 8498   5.558   0.806   4.396
 2533SOL    HW2 8499   5.443   0.920   4.419
 2534SOL     OW 8500   6.658   1.520   2.734
 2534SOL    HW1 8501   6.594   1.568   2.795
 2534SOL    HW2 8502   6.618   1.433   2.706
 2535SOL     OW 8503   2.932   0.899   1.689
 2535SOL    HW1 8504   3.009   0.867   1.743
 2535SOL    HW2 8505   2.955   0.893   1.592
 2536SOL     OW 8506   0.859   0.430   3.169
 2536SOL    HW1 8507   0.953   0.417   3.202
 2536SOL    HW2 8508   0.801   0.457   3.246
 2537SOL     OW 8509   1.975   6.277   2.307
 2537SOL    HW1 8510   2.073   6.284   2.291
 2537SOL    HW2 8511   1.958   6.208   2.378
 2538SOL     OW 8512   6.904   5.463   5.238
 2538SOL    HW1 8513   6.956   5.493   5.159
 2538SOL    HW2 8514   6.818   5.513   5.242
 2539SOL     OW 8515   1.227   0.129   5.306
 2539SOL    HW1 8516   1.325   0.110   5.318
 2539SOL    HW2 8517   1.176   0.043   5.305
 2540SOL     OW 8518   5.339   2.635   1.974
 2540SOL    HW1 8519   5.375   2.573   2.044
 2540SOL    HW2 8520   5.331   2.586   1.887
 2541SOL     OW 8521   1.393   0.877   0.352
 2541SOL    HW1 8522   1.441   0.901   0.436
 2541SOL    HW2 8523   1.374   0.960   0.300
 2542SOL     OW 8524   3.957   1.752   2.510
 2542SOL    HW1 8525   3.981   1.671   2.563
 2542SOL    HW2 8526   3.962   1.730   2.412
 2543SOL     OW 8527   6.248   6.349   5.115
 2543SOL    HW1 8528   6.329   6.353   5.174
 2543SOL    HW2 8529   6.165   6.348   5.172
 2544SOL     OW 8530   0.169   0.347   0.141
 2544SOL    HW1 8531   0.268   0.343   0.130
 2544SOL    HW2 8532   0.147   0.368   0.236
 2545SOL     OW 8533   6.890   1.831   0.443
 2545SOL    HW1 8534   6.851   1.829   0.536
 2545SOL    HW2 8535   6.850   1.757   0.389
 2546SOL     OW 8536   5.949   3.427   2.596
 2546SOL    HW1 8537   5.877   3.363   2.622
 2546SOL    HW2 8538   5.914   3.520   2.601
 2547SOL     OW 8539   5.529   3.898   0.929
 2547SOL    HW1 8540   5.445   3.936   0.967
 2547SOL    HW2 8541   5.596   3.971   0.915
 2548SOL     OW 8542   6.416   0.433   5.343
 2548SOL    HW1 8543   6.339   0.456   5.283
 2548SOL    HW2 8544   6.382   0.416   5.436
 2549SOL     OW 8545   2.712   4.681   6.561
 2549SOL    HW1 8546   2.675   4.594   6.594
 2549SOL    HW2 8547   2.782   4.663   6.492
 2550SOL     OW 8548   3.739   0.960   0.818
 2550SOL    HW1 8549   3.765   0.876   0.769
 2550SOL    HW2 8550   3.777   0.957   0.911
 2551SOL     OW 8551   3.144   4.401   1.005
 2551SOL    HW1 8552   3.091   4.383   1.088
 2551SOL    HW2 8553   3.083   4.429   0.932
 2552SOL     OW 8554   2.828   5.342   1.071
 2552SOL    HW1 8555   2.880   5.408   1.017
 2552SOL    HW2 8556   2.885   5.306   1.144
 2553SOL     OW 8557   4.423   1.704   1.232
 2553SOL    HW1 8558   4.412   1.758   1.316
 2553SOL    HW2 8559   4.333   1.676   1.198
 2554SOL     OW 8560   1.319   6.280   1.160
 2554SOL    HW1 8561   1.258   6.353   1.191
 2554SOL    HW2 8562   1.267   6.212   1.109
 2555SOL     OW 8563   0.547   6.385   5.098
 2555SOL    HW1 8564   0.495   6.345   5.022
 2555SOL    HW2 8565   0.596   6.312   5.146
 2556SOL     OW 8566   5.666   0.626   1.218
 2556SOL    HW1 8567   5.631   0.720   1.219
 2556SOL    HW2 8568   5.674   0.594   1.123
 2557SOL     OW 8569   2.619   1.544   6.956
 2557SOL    HW1 8570   2.523   1.570   6.962
 2557SOL    HW2 8571   2.630   1.448   6.983
 2558SOL     OW 8572   6.198   2.616   1.131
 2558SOL    HW1 8573   6.139   2.683   1.175
 2558SOL    HW2 8574   6.198   2.632   1.032
 2559SOL     OW 8575   6.406   5.392   3.397
 2559SOL    HW1 8576   6.438   5.407   3.491
 2559SOL    HW2 8577   6.432   5.300   3.367
 2560SOL     OW 8578   4.301   2.583   1.639
 2560SOL    HW1 8579   4.244   2.663   1.660
 2560SOL    HW2 8580   4.397   2.608   1.648
 2561SOL     OW 8581   3.758   0.437   4.812
 2561SOL    HW1 8582   3.818   0.510   4.781
 2561SOL    HW2 8583   3.677   0.476   4.854
 2562SOL     OW 8584   1.895   6.576   4.906
 2562SOL    HW1 8585   1.853   6.587   4.815
 2562SOL    HW2 8586   1.933   6.484   4.914
 2563SOL     OW 8587   4.335   2.655   6.846
 2563SOL    HW1 8588   4.402   2.694   6.783
 2563SOL    HW2 8589   4.315   2.721   6.918
 2564SOL     OW 8590   1.786   1.173   1.604
 2564SOL    HW1 8591   1.705   1.143   1.654
 2564SOL    HW2 8592   1.868   1.155   1.659
 2565SOL     OW 8593   0.014   0.146   0.865
 2565SOL    HW1 8594   6.957   0.205   0.887
 2565SOL    HW2 8595   7.002   0.065   0.817
 2566SOL     OW 8596   2.367   0.927   0.346
 2566SOL    HW1 8597   2.308   1.008   0.357
 2566SOL    HW2 8598   2.403   0.926   0.252
 2567SOL     OW 8599   1.837   0.768   6.052
 2567SOL    HW1 8600   1.819   0.670   6.040
 2567SOL    HW2 8601   1.771   0.806   6.117
 2568SOL     OW 8602   3.106   6.452   0.399
 2568SOL    HW1 8603   3.154   6.441   0.486
 2568SOL    HW2 8604   3.022   6.505   0.413
 2569SOL     OW 8605   2.764   6.338   6.633
 2569SOL    HW1 8606   2.801   6.430   6.616
 2569SOL    HW2 8607   2.689   6.344   6.698
 2570SOL     OW 8608   0.041   0.217   3.437
 2570SOL    HW1 8609   0.014   0.165   3.519
 2570SOL    HW2 8610   7.013   0.182   3.358
 2571SOL     OW 8611   3.579   3.309   2.377
 2571SOL    HW1 8612   3.673   3.276   2.382
 2571SOL    HW2 8613   3.559   3.366   2.457
 2572SOL     OW 8614   3.130   6.231   1.720
 2572SOL    HW1 8615   3.048   6.243   1.776
 2572SOL    HW2 8616   3.211   6.240   1.778
 2573SOL     OW 8617   6.306   0.586   2.621
 2573SOL    HW1 8618   6.309   0.506   2.682
 2573SOL    HW2 8619   6.376   0.575   2.550
 2574SOL     OW 8620   0.348   4.374   2.150
 2574SOL    HW1 8621   0.364   4.424   2.064
 2574SOL    HW2 8622   0.340   4.440   2.225
 2575SOL     OW 8623   4.493   3.440   5.313
 2575SOL    HW1 8624   4.543   3.468   5.230
 2575SOL    HW2 8625   4.549   3.376   5.365
 2576SOL     OW 8626   7.021   0.635   2.909
 2576SOL    HW1 8627   0.026   0.542   2.883
 2576SOL    HW2 8628   6.921   0.644   2.906
 2577SOL     OW 8629   1.568   4.668   0.640
 2577SOL    HW1 8630   1.663   4.669   0.608
 2577SOL    HW2 8631   1.529   4.759   0.628
 2578SOL     OW 8632   4.680   1.865   5.112
 2578SOL    HW1 8633   4.708   1.881   5.206
 2578SOL    HW2 8634   4.591   1.819   5.111
 2579SOL     OW 8635   6.729   1.994   6.414
 2579SOL    HW1 8636   6.667   1.964   6.487
 2579SOL    HW2 8637   6.815   1.944   6.421
 2580SOL     OW 8638   1.507   2.256   5.606
 2580SOL    HW1 8639   1.424   2.216   5.566
 2580SOL    HW2 8640   1.505   2.355   5.594
 2581SOL     OW 8641   4.709   6.227   4.415
 2581SOL    HW1 8642   4.677   6.226   4.320
 2581SOL    HW2 8643   4.659   6.160   4.469
 2582SOL     OW 8644   6.489   4.120   3.085
 2582SOL    HW1 8645   6.543   4.179   3.145
 2582SOL    HW2 8646   6.518   4.134   2.990
 2583SOL     OW 8647   2.342   1.136   0.032
 2583SOL    HW1 8648   2.293   1.162   0.115
 2583SOL    HW2 8649   2.358   1.038   0.031
 2584SOL     OW 8650   3.804   0.013   3.195
 2584SOL    HW1 8651   3.873   6.962   3.184
 2584SOL    HW2 8652   3.810   0.050   3.288
 2585SOL     OW 8653   3.917   1.026   2.719
 2585SOL    HW1 8654   3.937   0.928   2.711
 2585SOL    HW2 8655   3.820   1.041   2.702
 2586SOL     OW 8656   0.829   1.977   4.145
 2586SOL    HW1 8657   0.889   1.901   4.119
 2586SOL    HW2 8658   0.853   2.008   4.237
 2587SOL     OW 8659   6.162   4.446   3.369
 2587SOL    HW1 8660   6.194   4.446   3.274
 2587SOL    HW2 8661   6.191   4.362   3.414
 2588SOL     OW 8662   3.294   6.908   2.599
 2588SOL    HW1 8663   3.374   6.902   2.658
 2588SOL    HW2 8664   3.215   6.866   2.645
 2589SOL     OW 8665   4.359   6.605   1.822
 2589SOL    HW1 8666   4.306   6.552   1.756
 2589SOL    HW2 8667   4.371   6.552   1.906
 2590SOL     OW 8668   4.305   6.069   4.143
 2590SOL    HW1 8669   4.263   6.019   4.219
 2590SOL    HW2 8670   4.328   6.161   4.172
 2591SOL     OW 8671   6.090   0.504   1.176
 2591SOL    HW1 8672   6.023   0.481   1.246
 2591SOL    HW2 8673   6.155   0.571   1.212
 2592SOL     OW 8674   2.779   4.910   1.629
 2592SOL    HW1 8675   2.743   4.845   1.696
 2592SOL    HW2 8676   2.796   4.863   1.543
 2593SOL     OW 8677   2.843   0.303   3.963
 2593SOL    HW1 8678   2.818   0.267   3.873
 2593SOL    HW2 8679   2.942   0.295   3.976
 2594SOL     OW 8680   2.330   5.880   6.051
 2594SOL    HW1 8681   2.364   5.883   6.145
 2594SOL    HW2 8682   2.325   5.785   6.021
 2595SOL     OW 8683   6.810   3.013   5.061
 2595SOL    HW1 8684   6.908   3.008   5.081
 2595SOL    HW2 8685   6.796   3.003   4.963
 2596SOL     OW 8686   4.783   1.482   0.669
 2596SOL    HW1 8687   4.821   1.542   0.738
 2596SOL    HW2 8688   4.746   1.400   0.712
 2597SOL     OW 8689   2.362   2.359   6.236
 2597SOL    HW1 8690   2.321   2.338   6.324
 2597SOL    HW2 8691   2.292   2.355   6.164
 2598SOL     OW 8692   6.326   0.958   2.986
 2598SOL    HW1 8693   6.394   0.991   2.921
 2598SOL    HW2 8694   6.299   0.865   2.961
 2599SOL     OW 8695   4.952   5.627   6.225
 2599SOL    HW1 8696   4.855   5.610   6.208
 2599SOL    HW2 8697   5.008   5.569   6.165
 2600SOL     OW 8698   0.117   2.800   4.380
 2600SOL    HW1 8699   0.052   2.873   4.400
 2600SOL    HW2 8700   0.157   2.814   4.289
 2601SOL     OW 8701   4.124   4.679   5.361
 2601SOL    HW1 8702   4.179   4.616   5.416
 2601SOL    HW2 8703   4.177   4.709   5.282
 2602SOL     OW 8704   5.835   6.785   6.986
 2602SOL    HW1 8705   5.803   6.879   6.991
 2602SOL    HW2 8706   5.896   6.775   6.907
 2603SOL     OW 8707   1.637   1.745   6.978
 2603SOL    HW1 8708   1.726   1.791   6.977
 2603SOL    HW2 8709   1.628   1.689   6.895
 2604SOL     OW 8710   5.755   1.383   0.791
 2604SOL    HW1 8711   5.705   1.296   0.796
 2604SOL    HW2 8712   5.721   1.445   0.861
 2605SOL     OW 8713   5.267   2.721   5.343
 2605SOL    HW1 8714   5.269   2.723   5.243
 2605SOL    HW2 8715   5.340   2.780   5.379
 2606SOL     OW 8716   6.319   4.642   1.575
 2606SOL    HW1 8717   6.298   4.613   1.668
 2606SOL    HW2 8718   6.410   4.609   1.549
 2607SOL     OW 8719   0.628   1.009   3.392
 2607SOL    HW1 8720   0.593   1.085   3.445
 2607SOL    HW2 8721   0.559   0.936   3.387
 2608SOL     OW 8722   4.443   0.823   0.258
 2608SOL    HW1 8723   4.390   0.855   0.336
 2608SOL    HW2 8724   4.538   0.810   0.285
 2609SOL     OW 8725   0.902   3.730   3.517
 2609SOL    HW1 8726   0.870   3.682   3.599
 2609SOL    HW2 8727   0.990   3.692   3.490
 2610SOL     OW 8728   5.519   5.599   4.773
 2610SOL    HW1 8729   5.590   5.669   4.777
 2610SOL    HW2 8730   5.472   5.602   4.685
 2611SOL     OW 8731   2.670   6.303   2.001
 2611SOL    HW1 8732   2.590   6.336   2.051
 2611SOL    HW2 8733   2.658   6.206   1.980
 2612SOL     OW 8734   0.966   6.848   4.609
 2612SOL    HW1 8735   1.058   6.830   4.573
 2612SOL    HW2 8736   0.974   6.904   4.692
 2613SOL     OW 8737   4.000   1.332   0.078
 2613SOL    HW1 8738   4.010   1.410   0.139
 2613SOL    HW2 8739   4.038   1.250   0.121
 2614SOL     OW 8740   6.549   6.520   6.476
 2614SOL    HW1 8741   6.463   6.505   6.524
 2614SOL    HW2 8742   6.531   6.552   6.384
 2615SOL     OW 8743   0.049   3.947   1.308
 2615SOL    HW1 8744   0.088   3.917   1.395
 2615SOL    HW2 8745   6.993   4.009   1.325
 2616SOL     OW 8746   3.817   4.031   2.019
 2616SOL    HW1 8747   3.846   4.100   1.953
 2616SOL    HW2 8748   3.719   4.040   2.037
 2617SOL     OW 8749   2.708   6.487   1.364
 2617SOL    HW1 8750   2.622   6.531   1.339
 2617SOL    HW2 8751   2.782   6.554   1.358
 2618SOL     OW 8752   0.978   5.977   0.440
 2618SOL    HW1 8753   0.963   5.948   0.346
 2618SOL    HW2 8754   0.898   6.025   0.475
 2619SOL     OW 8755   6.228   0.969   1.824
 2619SOL    HW1 8756   6.153   0.903   1.823
 2619SOL    HW2 8757   6.253   0.990   1.918
 2620SOL     OW 8758   1.588   5.573   4.116
 2620SOL    HW1 8759   1.592   5.502   4.046
 2620SOL    HW2 8760   1.493   5.589   4.143
 2621SOL     OW 8761   1.209   6.137   4.326
 2621SOL    HW1 8762   1.140   6.070   4.350
 2621SOL    HW2 8763   1.185   6.180   4.239
 2622SOL     OW 8764   2.366   2.663   4.111
 2622SOL    HW1 8765   2.379   2.566   4.135
 2622SOL    HW2 8766   2.407   2.681   4.022
 2623SOL     OW 8767   3.083   6.940   5.852
 2623SOL    HW1 8768   3.011   6.989   5.901
 2623SOL    HW2 8769   3.156   7.004   5.829
 2624SOL     OW 8770   5.245   1.876   4.745
 2624SOL    HW1 8771   5.193   1.943   4.692
 2624SOL    HW2 8772   5.206   1.785   4.732
 2625SOL     OW 8773   2.501   6.957   6.280
 2625SOL    HW1 8774   2.456   0.006   6.225
 2625SOL    HW2 8775   2.484   6.974   6.377
 2626SOL     OW 8776   2.251   6.665   3.148
 2626SOL    HW1 8777   2.260   6.734   3.219
 2626SOL    HW2 8778   2.157   6.631   3.147
 2627SOL     OW 8779   0.487   0.124   4.692
 2627SOL    HW1 8780   0.414   0.140   4.759
 2627SOL    HW2 8781   0.489   0.027   4.667
 2628SOL     OW 8782   5.057   5.214   0.220
 2628SOL    HW1 8783   5.008   5.275   0.157
 2628SOL    HW2 8784   5.116   5.152   0.168
 2629SOL     OW 8785   2.769   3.671   1.793
 2629SOL    HW1 8786   2.716   3.589   1.770
 2629SOL    HW2 8787   2.863   3.644   1.817
 2630SOL     OW 8788   3.646   2.012   2.098
 2630SOL    HW1 8789   3.604   1.951   2.030
 2630SOL    HW2 8790   3.672   2.098   2.053
 2631SOL     OW 8791   3.148   6.807   4.561
 2631SOL    HW1 8792   3.159   6.709   4.548
 2631SOL    HW2 8793   3.051   6.831   4.555
 2632SOL     OW 8794   4.997   1.530   1.331
 2632SOL    HW1 8795   4.968   1.600   1.265
 2632SOL    HW2 8796   4.918   1.475   1.357
 2633SOL     OW 8797   6.951   2.501   0.172
 2633SOL    HW1 8798   6.891   2.477   0.096
 2633SOL    HW2 8799   0.018   2.455   0.160
 2634SOL     OW 8800   2.695   5.076   0.115
 2634SOL    HW1 8801   2.757   5.060   0.192
 2634SOL    HW2 8802   2.719   5.015   0.040
 2635SOL     OW 8803   6.408   4.267   3.712
 2635SOL    HW1 8804   6.488   4.325   3.725
 2635SOL    HW2 8805   6.392   4.252   3.615
 2636SOL     OW 8806   5.355   5.307   5.332
 2636SOL    HW1 8807   5.429   5.275   5.392
 2636SOL    HW2 8808   5.385   5.389   5.284
 2637SOL     OW 8809   5.356   5.532   2.314
 2637SOL    HW1 8810   5.399   5.518   2.225
 2637SOL    HW2 8811   5.337   5.629   2.327
 2638SOL     OW 8812   4.998   5.608   0.249
 2638SOL    HW1 8813   4.962   5.555   0.173
 2638SOL    HW2 8814   5.098   5.611   0.244
 2639SOL     OW 8815   6.596   0.453   0.257
 2639SOL    HW1 8816   6.616   0.378   0.320
 2639SOL    HW2 8817   6.595   0.540   0.307
 2640SOL     OW 8818   6.600   6.074   0.246
 2640SOL    HW1 8819   6.677   6.013   0.261
 2640SOL    HW2 8820   6.516   6.020   0.237
 2641SOL     OW 8821   0.121   5.657   1.348
 2641SOL    HW1 8822   0.175   5.573   1.353
 2641SOL    HW2 8823   0.054   5.650   1.274
 2642SOL     OW 8824   6.444   0.381   4.482
 2642SOL    HW1 8825   6.380   0.383   4.406
 2642SOL    HW2 8826   6.534   0.352   4.450
 2643SOL     OW 8827   1.984   0.514   2.349
 2643SOL    HW1 8828   1.934   0.514   2.436
 2643SOL    HW2 8829   2.040   0.597   2.343
 2644SOL     OW 8830   5.957   6.244   4.590
 2644SOL    HW1 8831   5.986   6.327   4.638
 2644SOL    HW2 8832   5.899   6.189   4.650
 2645SOL     OW 8833   5.080   5.728   6.826
 2645SOL    HW1 8834   5.084   5.808   6.886
 2645SOL    HW2 8835   5.150   5.662   6.853
 2646SOL     OW 8836   5.528   6.211   5.591
 2646SOL    HW1 8837   5.589   6.273   5.542
 2646SOL    HW2 8838   5.581   6.159   5.658
 2647SOL     OW 8839   3.453   4.086   0.514
 2647SOL    HW1 8840   3.461   3.999   0.465
 2647SOL    HW2 8841   3.385   4.143   0.469
 2648SOL     OW 8842   4.283   1.562   3.774
 2648SOL    HW1 8843   4.260   1.482   3.719
 2648SOL    HW2 8844   4.259   1.546   3.870
 2649SOL     OW 8845   2.859   3.945   5.152
 2649SOL    HW1 8846   2.781   3.996   5.188
 2649SOL    HW2 8847   2.861   3.854   5.193
 2650SOL     OW 8848   0.359   6.793   2.863
 2650SOL    HW1 8849   0.283   6.752   2.914
 2650SOL    HW2 8850   0.369   6.889   2.889
 2651SOL     OW 8851   1.211   0.108   3.005
 2651SOL    HW1 8852   1.268   0.029   2.980
 2651SOL    HW2 8853   1.199   0.110   3.104
 2652SOL     OW 8854   3.251   2.919   2.315
 2652SOL    HW1 8855   3.183   2.969   2.370
 2652SOL    HW2 8856   3.316   2.874   2.375
 2653SOL     OW 8857   6.218   6.514   1.232
 2653SOL    HW1 8858   6.181   6.519   1.139
 2653SOL    HW2 8859   6.150   6.551   1.297
 2654SOL     OW 8860   6.992   2.922   6.021
 2654SOL    HW1 8861   6.914   2.985   6.025
 2654SOL    HW2 8862   6.967   2.843   5.965
 2655SOL     OW 8863   5.818   4.936   4.089
 2655SOL    HW1 8864   5.796   4.849   4.133
 2655SOL    HW2 8865   5.892   4.981   4.140
 2656SOL     OW 8866   6.189   3.214   5.274
 2656SOL    HW1 8867   6.142   3.130   5.248
 2656SOL    HW2 8868   6.281   3.192   5.307
 2657SOL     OW 8869   4.074   2.230   5.601
 2657SOL    HW1 8870   4.055   2.269   5.691
 2657SOL    HW2 8871   4.007   2.265   5.535
 2658SOL     OW 8872   6.966   4.018   5.326
 2658SOL    HW1 8873   6.914   4.086   5.274
 2658SOL    HW2 8874   6.904   3.969   5.389
 2659SOL     OW 8875   6.623   1.151   3.835
 2659SOL    HW1 8876   6.652   1.245   3.848
 2659SOL    HW2 8877   6.687   1.089   3.881
 2660SOL     OW 8878   0.977   2.172   3.675
 2660SOL    HW1 8879   1.029   2.156   3.759
 2660SOL    HW2 8880   0.985   2.092   3.615
 2661SOL     OW 8881   3.479   6.993   3.561
 2661SOL    HW1 8882   3.390   6.973   3.602
 2661SOL    HW2 8883   3.466   0.000   3.466
 2662SOL     OW 8884   3.793   0.936   3.947
 2662SOL    HW1 8885   3.881   0.969   3.913
 2662SOL    HW2 8886   3.792   0.944   4.047
 2663SOL     OW 8887   0.961   3.874   2.808
 2663SOL    HW1 8888   1.053   3.847   2.836
 2663SOL    HW2 8889   0.905   3.893   2.889
 2664SOL     OW 8890   4.739   4.238   1.809
 2664SOL    HW1 8891   4.659   4.219   1.866
 2664SOL    HW2 8892   4.712   4.241   1.713
 2665SOL     OW 8893   4.703   0.783   5.156
 2665SOL    HW1 8894   4.662   0.817   5.240
 2665SOL    HW2 8895   4.697   0.853   5.085
 2666SOL     OW 8896   5.075   5.954   1.759
 2666SOL    HW1 8897   5.038   5.897   1.832
 2666SOL    HW2 8898   5.118   6.035   1.798
 2667SOL     OW 8899   2.010   4.611   2.513
 2667SOL    HW1 8900   1.962   4.534   2.554
 2667SOL    HW2 8901   1.947   4.688   2.502
 2668SOL     OW 8902   6.817   2.591   5.505
 2668SOL    HW1 8903   6.793   2.686   5.524
 2668SOL    HW2 8904   6.856   2.583   5.414
 2669SOL     OW 8905   3.692   5.947   4.561
 2669SOL    HW1 8906   3.714   6.007   4.637
 2669SOL    HW2 8907   3.752   5.967   4.484
 2670SOL     OW 8908   2.344   6.432   4.220
 2670SOL    HW1 8909   2.344   6.332   4.229
 2670SOL    HW2 8910   2.277   6.472   4.282
 2671SOL     OW 8911   3.019   3.747   6.952
 2671SOL    HW1 8912   3.068   3.761   0.017
 2671SOL    HW2 8913   3.009   3.835   6.905
 2672SOL     OW 8914   0.719   4.730   0.821
 2672SOL    HW1 8915   0.751   4.733   0.726
 2672SOL    HW2 8916   0.647   4.661   0.830
 2673SOL     OW 8917   3.647   1.924   3.037
 2673SOL    HW1 8918   3.605   1.862   3.103
 2673SOL    HW2 8919   3.738   1.892   3.013
 2674SOL     OW 8920   5.085   6.126   4.995
 2674SOL    HW1 8921   4.989   6.107   5.014
 2674SOL    HW2 8922   5.137   6.122   5.080
 2675SOL     OW 8923   0.300   5.087   5.763
 2675SOL    HW1 8924   0.280   5.184   5.768
 2675SOL    HW2 8925   0.218   5.036   5.737
 2676SOL     OW 8926   4.566   0.306   1.616
 2676SOL    HW1 8927   4.568   0.217   1.661
 2676SOL    HW2 8928   4.618   0.302   1.530
 2677SOL     OW 8929   2.417   4.885   1.871
 2677SOL    HW1 8930   2.516   4.879   1.880
 2677SOL    HW2 8931   2.392   4.975   1.836
 2678SOL     OW 8932   0.630   6.585   6.745
 2678SOL    HW1 8933   0.723   6.548   6.742
 2678SOL    HW2 8934   0.624   6.655   6.817
 2679SOL     OW 8935   2.155   4.970   1.529
 2679SOL    HW1 8936   2.254   4.973   1.522
 2679SOL    HW2 8937   2.117   5.058   1.500
 2680SOL     OW 8938   6.970   2.142   1.177
 2680SOL    HW1 8939   6.899   2.089   1.131
 2680SOL    HW2 8940   7.020   2.196   1.109
 2681SOL     OW 8941   1.858   2.275   1.584
 2681SOL    HW1 8942   1.911   2.301   1.503
 2681SOL    HW2 8943   1.913   2.214   1.642
 2682SOL     OW 8944   0.516   2.732   3.804
 2682SOL    HW1 8945   0.576   2.655   3.825
 2682SOL    HW2 8946   0.474   2.718   3.714
 2683SOL     OW 8947   1.511   0.041   0.462
 2683SOL    HW1 8948   1.581   7.002   0.501
 2683SOL    HW2 8949   1.438   0.054   0.529
 2684SOL     OW 8950   2.260   5.067   3.092
 2684SOL    HW1 8951   2.301   5.122   3.165
 2684SOL    HW2 8952   2.161   5.064   3.104
 2685SOL     OW 8953   5.128   5.154   5.829
 2685SOL    HW1 8954   5.061   5.081   5.820
 2685SOL    HW2 8955   5.158   5.184   5.738
 2686SOL     OW 8956   1.134   3.403   4.626
 2686SOL    HW1 8957   1.217   3.422   4.678
 2686SOL    HW2 8958   1.054   3.421   4.682
 2687SOL     OW 8959   4.708   5.223   3.160
 2687SOL    HW1 8960   4.632   5.270   3.114
 2687SOL    HW2 8961   4.693   5.125   3.157
 2688SOL     OW 8962   3.530   4.560   5.343
 2688SOL    HW1 8963   3.574   4.489   5.398
 2688SOL    HW2 8964   3.433   4.565   5.365
 2689SOL     OW 8965   6.271   2.007   4.051
 2689SOL    HW1 8966   6.307   1.940   4.115
 2689SOL    HW2 8967   6.323   2.092   4.058
 2690SOL     OW 8968   3.468   4.168   3.619
 2690SOL    HW1 8969   3.528   4.089   3.633
 2690SOL    HW2 8970   3.464   4.222   3.703
 2691SOL     OW 8971   1.512   5.897   1.482
 2691SOL    HW1 8972   1.523   5.989   1.445
 2691SOL    HW2 8973   1.594   5.873   1.535
 2692SOL     OW 8974   6.799   4.212   3.829
 2692SOL    HW1 8975   6.729   4.274   3.866
 2692SOL    HW2 8976   6.754   4.137   3.779
 2693SOL     OW 8977   2.057   3.755   2.321
 2693SOL    HW1 8978   2.118   3.833   2.326
 2693SOL    HW2 8979   1.963   3.785   2.335
 2694SOL     OW 8980   2.161   1.510   3.011
 2694SOL    HW1 8981   2.185   1.424   2.965
 2694SOL    HW2 8982   2.182   1.587   2.951
 2695SOL     OW 8983   4.213   2.278   2.088
 2695SOL    HW1 8984   4.222   2.310   1.994
 2695SOL    HW2 8985   4.124   2.234   2.100
 2696SOL     OW 8986   3.401   3.402   6.271
 2696SOL    HW1 8987   3.489   3.357   6.286
 2696SOL    HW2 8988   3.347   3.349   6.205
 2697SOL     OW 8989   2.474   0.840   5.088
 2697SOL    HW1 8990   2.469   0.747   5.125
 2697SOL    HW2 8991   2.385   0.865   5.050
 2698SOL     OW 8992   1.657   1.552   6.755
 2698SOL    HW1 8993   1.735   1.522   6.809
 2698SOL    HW2 8994   1.574   1.507   6.789
 2699SOL     OW 8995   1.397   4.987   3.999
 2699SOL    HW1 8996   1.302   4.956   4.002
 2699SOL    HW2 8997   1.457   4.907   4.002
 2700SOL     OW 8998   2.379   4.405   2.708
 2700SOL    HW1 8999   2.381   4.360   2.797
 2700SOL    HW2 9000   2.334   4.345   2.642
 2701SOL     OW 9001   2.172   0.508   5.182
 2701SOL    HW1 9002   2.246   0.464   5.234
 2701SOL    HW2 9003   2.136   0.585   5.233
 2702SOL     OW 9004   5.951   6.515   3.021
 2702SOL    HW1 9005   6.004   6.446   3.069
 2702SOL    HW2 9006   5.979   6.519   2.925
 2703SOL     OW 9007   2.063   2.733   2.366
 2703SOL    HW1 9008   2.153   2.772   2.350
 2703SOL    HW2 9009   2.059   2.692   2.457
 2704SOL     OW 9010   0.868   6.558   0.630
 2704SOL    HW1 9011   0.925   6.610   0.693
 2704SOL    HW2 9012   0.906   6.567   0.537
 2705SOL     OW 9013   0.414   3.149   2.635
 2705SOL    HW1 9014   0.367   3.236   2.647
 2705SOL    HW2 9015   0.440   3.138   2.539
 2706SOL     OW 9016   6.659   2.423   3.715
 2706SOL    HW1 9017   6.575   2.370   3.714
 2706SOL    HW2 9018   6.641   2.514   3.754
 2707SOL     OW 9019   3.237   0.927   0.120
 2707SOL    HW1 9020   3.201   0.978   0.198
 2707SOL    HW2 9021   3.303   0.984   0.070
 2708SOL     OW 9022   1.360   4.873   6.589
 2708SOL    HW1 9023   1.347   4.970   6.567
 2708SOL    HW2 9024   1.282   4.820   6.554
 2709SOL     OW 9025   3.946   0.158   1.838
 2709SOL    HW1 9026   3.995   0.245   1.826
 2709SOL    HW2 9027   3.905   0.155   1.929
 2710SOL     OW 9028   5.802   4.202   3.406
 2710SOL    HW1 9029   5.868   4.192   3.480
 2710SOL    HW2 9030   5.844   4.176   3.319
 2711SOL     OW 9031   0.863   6.529   2.049
 2711SOL    HW1 9032   0.858   6.433   2.077
 2711SOL    HW2 9033   0.772   6.560   2.023
 2712SOL     OW 9034   2.775   5.474   2.760
 2712SOL    HW1 9035   2.758   5.511   2.852
 2712SOL    HW2 9036   2.717   5.394   2.745
 2713SOL     OW 9037   2.180   3.061   5.531
 2713SOL    HW1 9038   2.260   3.119   5.515
 2713SOL    HW2 9039   2.126   3.055   5.447
 2714SOL     OW 9040   5.745   0.556   0.342
 2714SOL    HW1 9041   5.826   0.599   0.300
 2714SOL    HW2 9042   5.696   0.503   0.273
 2715SOL     OW 9043   5.886   0.647   0.605
 2715SOL    HW1 9044   5.908   0.570   0.664
 2715SOL    HW2 9045   5.790   0.641   0.576
 2716SOL     OW 9046   6.042   6.367   2.221
 2716SOL    HW1 9047   6.136   6.400   2.214
 2716SOL    HW2 9048   5.979   6.440   2.193
 2717SOL     OW 9049   0.400   0.049   3.247
 2717SOL    HW1 9050   0.302   0.059   3.234
 2717SOL    HW2 9051   0.445   0.138   3.240
 2718SOL     OW 9052   6.527   3.752   3.283
 2718SOL    HW1 9053   6.541   3.833   3.341
 2718SOL    HW2 9054   6.458   3.773   3.214
 2719SOL     OW 9055   4.253   4.639   3.005
 2719SOL    HW1 9056   4.241   4.637   2.905
 2719SOL    HW2 9057   4.167   4.615   3.049
 2720SOL     OW 9058   0.908   6.460   4.255
 2720SOL    HW1 9059   0.917   6.376   4.310
 2720SOL    HW2 9060   0.871   6.437   4.165
 2721SOL     OW 9061   4.968   6.308   3.136
 2721SOL    HW1 9062   4.939   6.322   3.042
 2721SOL    HW2 9063   5.028   6.383   3.165
 2722SOL     OW 9064   0.559   5.837   2.325
 2722SOL    HW1 9065   0.537   5.780   2.404
 2722SOL    HW2 9066   0.645   5.807   2.285
 2723SOL     OW 9067   1.665   2.241   4.039
 2723SOL    HW1 9068   1.580   2.273   4.000
 2723SOL    HW2 9069   1.716   2.318   4.079
 2724SOL     OW 9070   4.545   5.844   5.838
 2724SOL    HW1 9071   4.476   5.893   5.784
 2724SOL    HW2 9072   4.566   5.896   5.921
 2725SOL     OW 9073   2.126   4.678   2.898
 2725SOL    HW1 9074   2.202   4.614   2.909
 2725SOL    HW2 9075   2.138   4.731   2.814
 2726SOL     OW 9076   3.896   6.250   2.507
 2726SOL    HW1 9077   3.964   6.290   2.569
 2726SOL    HW2 9078   3.878   6.155   2.533
 2727SOL     OW 9079   2.425   5.625   4.147
 2727SOL    HW1 9080   2.372   5.595   4.067
 2727SOL    HW2 9081   2.502   5.562   4.162
 2728SOL     OW 9082   2.548   6.597   5.592
 2728SOL    HW1 9083   2.522   6.501   5.578
 2728SOL    HW2 9084   2.616   6.604   5.665
 2729SOL     OW 9085   0.276   4.714   2.605
 2729SOL    HW1 9086   0.368   4.723   2.568
 2729SOL    HW2 9087   0.234   4.804   2.616
 2730SOL     OW 9088   1.888   3.729   1.249
 2730SOL    HW1 9089   1.798   3.743   1.207
 2730SOL    HW2 9090   1.930   3.647   1.211
 2731SOL     OW 9091   2.187   3.209   0.146
 2731SOL    HW1 9092   2.179   3.130   0.206
 2731SOL    HW2 9093   2.282   3.217   0.114
 2732SOL     OW 9094   6.069   3.439   4.530
 2732SOL    HW1 9095   5.983   3.481   4.502
 2732SOL    HW2 9096   6.066   3.420   4.628
 2733SOL     OW 9097   1.967   0.533   0.498
 2733SOL    HW1 9098   1.931   0.525   0.406
 2733SOL    HW2 9099   2.064   0.510   0.499
 2734SOL     OW 9100   2.151   0.173   4.159
 2734SOL    HW1 9101   2.186   0.133   4.074
 2734SOL    HW2 9102   2.228   0.189   4.222
 2735SOL     OW 9103   1.543   5.392   1.409
 2735SOL    HW1 9104   1.569   5.353   1.497
 2735SOL    HW2 9105   1.488   5.474   1.423
 2736SOL     OW 9106   4.448   0.515   6.845
 2736SOL    HW1 9107   4.453   0.418   6.821
 2736SOL    HW2 9108   4.495   0.569   6.775
 2737SOL     OW 9109   4.475   4.009   5.558
 2737SOL    HW1 9110   4.440   4.092   5.600
 2737SOL    HW2 9111   4.569   3.992   5.589
 2738SOL     OW 9112   6.730   4.213   4.665
 2738SOL    HW1 9113   6.768   4.278   4.599
 2738SOL    HW2 9114   6.804   4.158   4.704
 2739SOL     OW 9115   4.713   3.879   6.641
 2739SOL    HW1 9116   4.749   3.838   6.725
 2739SOL    HW2 9117   4.720   3.812   6.567
 2740SOL     OW 9118   5.824   2.711   4.518
 2740SOL    HW1 9119   5.899   2.703   4.584
 2740SOL    HW2 9120   5.861   2.714   4.426
 2741SOL     OW 9121   2.147   3.369   5.532
 2741SOL    HW1 9122   2.172   3.365   5.435
 2741SOL    HW2 9123   2.230   3.385   5.586
 2742SOL     OW 9124   2.889   6.364   5.459
 2742SOL    HW1 9125   2.840   6.388   5.375
 2742SOL    HW2 9126   2.840   6.290   5.505
 2743SOL     OW 9127   6.071   3.850   6.372
 2743SOL    HW1 9128   6.161   3.877   6.406
 2743SOL    HW2 9129   6.082   3.792   6.291
 2744SOL     OW 9130   4.794   6.901   0.886
 2744SOL    HW1 9131   4.875   6.896   0.827
 2744SOL    HW2 9132   4.805   6.840   0.964
 2745SOL     OW 9133   3.224   5.868   1.978
 2745SOL    HW1 9134   3.263   5.862   1.886
 2745SOL    HW2 9135   3.126   5.887   1.972
 2746SOL     OW 9136   1.267   2.326   0.003
 2746SOL    HW1 9137   1.365   2.335   0.022
 2746SOL    HW2 9138   1.215   2.346   0.086
 2747SOL     OW 9139   4.894   6.033   4.027
 2747SOL    HW1 9140   4.963   6.105   4.019
 2747SOL    HW2 9141   4.826   6.044   3.955
 2748SOL     OW 9142   5.465   1.293   4.618
 2748SOL    HW1 9143   5.543   1.274   4.558
 2748SOL    HW2 9144   5.405   1.361   4.574
 2749SOL     OW 9145   5.602   4.899   3.099
 2749SOL    HW1 9146   5.630   4.937   3.011
 2749SOL    HW2 9147   5.665   4.827   3.126
 2750SOL     OW 9148   0.792   0.092   0.320
 2750SOL    HW1 9149   0.775   0.005   0.366
 2750SOL    HW2 9150   0.811   0.163   0.388
 2751SOL     OW 9151   1.069   0.217   6.740
 2751SOL    HW1 9152   1.037   0.257   6.654
 2751SOL    HW2 9153   1.001   0.234   6.811
 2752SOL     OW 9154   0.464   6.527   6.387
 2752SOL    HW1 9155   0.513   6.441   6.401
 2752SOL    HW2 9156   0.434   6.533   6.292
 2753SOL     OW 9157   3.397   5.382   4.380
 2753SOL    HW1 9158   3.305   5.403   4.411
 2753SOL    HW2 9159   3.457   5.367   4.459
 2754SOL     OW 9160   1.210   5.450   3.986
 2754SOL    HW1 9161   1.263   5.479   4.066
 2754SOL    HW2 9162   1.112   5.460   4.005
 2755SOL     OW 9163   4.396   6.670   2.877
 2755SOL    HW1 9164   4.476   6.715   2.917
 2755SOL    HW2 9165   4.323   6.666   2.945
 2756SOL     OW 9166   0.067   2.930   5.070
 2756SOL    HW1 9167   0.070   2.870   5.150
 2756SOL    HW2 9168   0.054   2.876   4.988
 2757SOL     OW 9169   4.994   4.074   5.614
 2757SOL    HW1 9170   5.017   3.992   5.562
 2757SOL    HW2 9171   4.954   4.048   5.701
 2758SOL     OW 9172   0.442   6.691   1.595
 2758SOL    HW1 9173   0.385   6.633   1.538
 2758SOL    HW2 9174   0.539   6.672   1.578
 2759SOL     OW 9175   3.964   3.903   5.011
 2759SOL    HW1 9176   4.018   3.822   4.987
 2759SOL    HW2 9177   4.020   3.965   5.067
 2760SOL     OW 9178   5.258   5.370   2.771
 2760SOL    HW1 9179   5.262   5.284   2.822
 2760SOL    HW2 9180   5.165   5.405   2.772
 2761SOL     OW 9181   2.148   3.343   3.775
 2761SOL    HW1 9182   2.151   3.347   3.875
 2761SOL    HW2 9183   2.216   3.405   3.737
 2762SOL     OW 9184   4.660   1.517   2.332
 2762SOL    HW1 9185   4.620   1.590   2.278
 2762SOL    HW2 9186   4.618   1.516   2.423
 2763SOL     OW 9187   5.312   1.064   3.920
 2763SOL    HW1 9188   5.231   1.122   3.911
 2763SOL    HW2 9189   5.351   1.074   4.011
 2764SOL     OW 9190   0.355   2.223   2.786
 2764SOL    HW1 9191   0.348   2.323   2.791
 2764SOL    HW2 9192   0.418   2.198   2.713
 2765SOL     OW 9193   6.983   6.666   6.989
 2765SOL    HW1 9194   6.883   6.658   6.993
 2765SOL    HW2 9195   7.015   6.633   6.900
 2766SOL     OW 9196   4.882   0.465   0.298
 2766SOL    HW1 9197   4.848   0.395   0.235
 2766SOL    HW2 9198   4.967   0.435   0.340
 2767SOL     OW 9199   0.673   5.949   6.112
 2767SOL    HW1 9200   0.671   6.036   6.064
 2767SOL    HW2 9201   0.626   5.958   6.200
 2768SOL     OW 9202   3.969   7.002   1.604
 2768SOL    HW1 9203   4.062   6.965   1.604
 2768SOL    HW2 9204   3.963   0.054   1.672
 2769SOL     OW 9205   0.694   4.763   5.830
 2769SOL    HW1 9206   0.731   4.729   5.916
 2769SOL    HW2 9207   0.763   4.753   5.758
 2770SOL     OW 9208   2.426   6.388   0.574
 2770SOL    HW1 9209   2.352   6.446   0.540
 2770SOL    HW2 9210   2.389   6.316   0.633
 2771SOL     OW 9211   3.989   6.275   5.709
 2771SOL    HW1 9212   3.934   6.324   5.777
 2771SOL    HW2 9213   4.086   6.293   5.726
 2772SOL     OW 9214   6.114   1.602   2.930
 2772SOL    HW1 9215   6.058   1.526   2.897
 2772SOL    HW2 9216   6.120   1.673   2.860
 2773SOL     OW 9217   5.338   1.793   6.111
 2773SOL    HW1 9218   5.357   1.783   6.209
 2773SOL    HW2 9219   5.288   1.879   6.095
 2774SOL     OW 9220   6.480   0.100   3.823
 2774SOL    HW1 9221   6.410   0.051   3.875
 2774SOL    HW2 9222   6.440   0.180   3.779
 2775SOL     OW 9223   6.776   2.135   4.779
 2775SOL    HW1 9224   6.835   2.205   4.820
 2775SOL    HW2 9225   6.781   2.052   4.834
 2776SOL     OW 9226   4.913   3.646   5.920
 2776SOL    HW1 9227   4.991   3.584   5.912
 2776SOL    HW2 9228   4.882   3.672   5.829
 2777SOL     OW 9229   1.583   1.722   0.585
 2777SOL    HW1 9230   1.503   1.765   0.544
 2777SOL    HW2 9231   1.633   1.670   0.516
 2778SOL     OW 9232   2.602   6.398   5.841
 2778SOL    HW1 9233   2.656   6.478   5.866
 2778SOL    HW2 9234   2.602   6.333   5.917
 2779SOL     OW 9235   5.202   1.160   3.502
 2779SOL    HW1 9236   5.263   1.238   3.518
 2779SOL    HW2 9237   5.256   1.081   3.476
 2780SOL     OW 9238   0.679   0.377   5.476
 2780SOL    HW1 9239   0.708   0.467   5.508
 2780SOL    HW2 9240   0.604   0.388   5.411
 2781SOL     OW 9241   6.746   0.250   3.026
 2781SOL    HW1 9242   6.660   0.267   3.075
 2781SOL    HW2 9243   6.733   0.271   2.929
 2782SOL     OW 9244   5.713   6.613   4.796
 2782SOL    HW1 9245   5.783   6.566   4.742
 2782SOL    HW2 9246   5.628   6.616   4.744
 2783SOL     OW 9247   6.495   2.525   1.952
 2783SOL    HW1 9248   6.469   2.593   2.021
 2783SOL    HW2 9249   6.448   2.439   1.972
 2784SOL     OW 9250   1.156   2.148   1.846
 2784SOL    HW1 9251   1.060   2.127   1.827
 2784SOL    HW2 9252   1.172   2.246   1.833
 2785SOL     OW 9253   5.169   3.510   3.904
 2785SOL    HW1 9254   5.095   3.577   3.899
 2785SOL    HW2 9255   5.220   3.523   3.989
 2786SOL     OW 9256   6.950   5.652   0.830
 2786SOL    HW1 9257   7.017   5.584   0.862
 2786SOL    HW2 9258   6.996   5.719   0.772
 2787SOL     OW 9259   0.370   6.974   6.153
 2787SOL    HW1 9260   0.415   0.037   6.124
 2787SOL    HW2 9261   0.438   6.901   6.161
 2788SOL     OW 9262   2.899   6.548   6.956
 2788SOL    HW1 9263   2.962   6.471   6.955
 2788SOL    HW2 9264   2.806   6.515   6.971
 2789SOL     OW 9265   2.209   2.087   3.593
 2789SOL    HW1 9266   2.111   2.068   3.601
 2789SOL    HW2 9267   2.261   2.011   3.632
 2790SOL     OW 9268   0.791   4.941   1.475
 2790SOL    HW1 9269   0.749   4.866   1.526
 2790SOL    HW2 9270   0.862   4.904   1.415
 2791SOL     OW 9271   0.126   3.348   5.404
 2791SOL    HW1 9272   0.104   3.418   5.336
 2791SOL    HW2 9273   0.066   3.269   5.391
 2792SOL     OW 9274   3.150   2.644   6.783
 2792SOL    HW1 9275   3.086   2.649   6.707
 2792SOL    HW2 9276   3.108   2.597   6.860
 2793SOL     OW 9277   4.234   3.526   6.237
 2793SOL    HW1 9278   4.225   3.452   6.305
 2793SOL    HW2 9279   4.299   3.594   6.271
 2794SOL     OW 9280   1.324   1.914   6.791
 2794SOL    HW1 9281   1.351   1.910   6.888
 2794SOL    HW2 9282   1.381   1.851   6.738
 2795SOL     OW 9283   1.299   0.032   0.611
 2795SOL    HW1 9284   1.341   6.981   0.667
 2795SOL    HW2 9285   1.262   0.103   0.671
 2796SOL     OW 9286   3.116   5.689   0.138
 2796SOL    HW1 9287   3.056   5.734   0.072
 2796SOL    HW2 9288   3.210   5.723   0.127
 2797SOL     OW 9289   4.834   4.140   4.658
 2797SOL    HW1 9290   4.848   4.176   4.750
 2797SOL    HW2 9291   4.852   4.041   4.658
 2798SOL     OW 9292   5.390   2.819   1.638
 2798SOL    HW1 9293   5.407   2.904   1.689
 2798SOL    HW2 9294   5.385   2.742   1.702
 2799SOL     OW 9295   3.513   0.134   4.735
 2799SOL    HW1 9296   3.524   0.036   4.719
 2799SOL    HW2 9297   3.538   0.184   4.652
 2800SOL     OW 9298   5.034   1.301   6.845
 2800SOL    HW1 9299   4.969   1.246   6.897
 2800SOL    HW2 9300   5.126   1.290   6.883
 2801SOL     OW 9301   0.027   4.361   3.141
 2801SOL    HW1 9302   0.004   4.264   3.146
 2801SOL    HW2 9303   0.123   4.371   3.114
 2802SOL     OW 9304   1.965   4.318   4.293
 2802SOL    HW1 9305   1.920   4.399   4.256
 2802SOL    HW2 9306   1.909   4.278   4.365
 2803SOL     OW 9307   3.522   2.858   6.764
 2803SOL    HW1 9308   3.517   2.805   6.680
 2803SOL    HW2 9309   3.525   2.956   6.742
 2804SOL     OW 9310   5.646   2.122   3.695
 2804SOL    HW1 9311   5.570   2.058   3.688
 2804SOL    HW2 9312   5.667   2.160   3.605
 2805SOL     OW 9313   4.004   5.494   0.315
 2805SOL    HW1 9314   4.054   5.575   0.286
 2805SOL    HW2 9315   3.915   5.521   0.352
 2806SOL     OW 9316   0.910   3.026   4.829
 2806SOL    HW1 9317   0.912   2.926   4.836
 2806SOL    HW2 9318   0.836   3.053   4.768
 2807SOL     OW 9319   4.468   1.544   4.095
 2807SOL    HW1 9320   4.552   1.517   4.048
 2807SOL    HW2 9321   4.433   1.467   4.148
 2808SOL     OW 9322   1.055   5.958   6.735
 2808SOL    HW1 9323   0.991   5.972   6.811
 2808SOL    HW2 9324   1.146   5.991   6.763
 2809SOL     OW 9325   1.471   6.426   0.793
 2809SOL    HW1 9326   1.527   6.345   0.776
 2809SOL    HW2 9327   1.523   6.493   0.846
 2810SOL     OW 9328   0.309   6.435   2.273
 2810SOL    HW1 9329   0.382   6.404   2.335
 2810SOL    HW2 9330   0.268   6.518   2.311
 2811SOL     OW 9331   0.910   0.143   0.640
 2811SOL    HW1 9332   0.831   0.140   0.701
 2811SOL    HW2 9333   0.947   0.051   0.629
 2812SOL     OW 9334   1.587   0.907   1.464
 2812SOL    HW1 9335   1.597   0.840   1.538
 2812SOL    HW2 9336   1.536   0.986   1.498
 2813SOL     OW 9337   6.156   2.104   1.504
 2813SOL    HW1 9338   6.169   2.062   1.594
 2813SOL    HW2 9339   6.179   2.037   1.433
 2814SOL     OW 9340   1.982   4.407   6.432
 2814SOL    HW1 9341   2.037   4.430   6.352
 2814SOL    HW2 9342   2.023   4.447   6.514
 2815SOL     OW 9343   6.454   6.222   4.735
 2815SOL    HW1 9344   6.364   6.206   4.778
 2815SOL    HW2 9345   6.505   6.288   4.791
 2816SOL     OW 9346   0.732   5.186   5.088
 2816SOL    HW1 9347   0.752   5.098   5.132
 2816SOL    HW2 9348   0.668   5.172   5.013
 2817SOL     OW 9349   2.649   0.885   1.835
 2817SOL    HW1 9350   2.736   0.909   1.792
 2817SOL    HW2 9351   2.662   0.807   1.896
 2818SOL     OW 9352   1.580   1.104   0.338
 2818SOL    HW1 9353   1.629   1.018   0.327
 2818SOL    HW2 9354   1.565   1.146   0.249
 2819SOL     OW 9355   6.217   0.154   6.639
 2819SOL    HW1 9356   6.156   0.132   6.716
 2819SOL    HW2 9357   6.169   0.214   6.575
 2820SOL     OW 9358   1.696   1.577   0.387
 2820SOL    HW1 9359   1.679   1.544   0.294
 2820SOL    HW2 9360   1.738   1.504   0.441
 2821SOL     OW 9361   3.651   2.288   6.092
 2821SOL    HW1 9362   3.614   2.255   6.178
 2821SOL    HW2 9363   3.577   2.326   6.036
 2822SOL     OW 9364   4.363   2.887   1.415
 2822SOL    HW1 9365   4.410   2.799   1.410
 2822SOL    HW2 9366   4.352   2.914   1.511
 2823SOL     OW 9367   5.581   4.238   3.064
 2823SOL    HW1 9368   5.645   4.162   3.073
 2823SOL    HW2 9369   5.502   4.209   3.010
 2824SOL     OW 9370   0.589   4.411   5.305
 2824SOL    HW1 9371   0.550   4.373   5.389
 2824SOL    HW2 9372   0.580   4.343   5.231
 2825SOL     OW 9373   4.897   2.489   5.607
 2825SOL    HW1 9374   4.982   2.463   5.652
 2825SOL    HW2 9375   4.825   2.425   5.633
 2826SOL     OW 9376   3.083   3.306   6.719
 2826SOL    HW1 9377   3.144   3.344   6.650
 2826SOL    HW2 9378   3.095   3.355   6.805
 2827SOL     OW 9379   6.494   1.889   0.233
 2827SOL    HW1 9380   6.508   1.820   0.304
 2827SOL    HW2 9381   6.430   1.958   0.265
 2828SOL     OW 9382   1.724   4.300   0.227
 2828SOL    HW1 9383   1.732   4.258   0.317
 2828SOL    HW2 9384   1.809   4.347   0.205
 2829SOL     OW 9385   3.519   4.303   1.322
 2829SOL    HW1 9386   3.482   4.214   1.350
 2829SOL    HW2 9387   3.520   4.309   1.222
 2830SOL     OW 9388   3.129   5.381   4.345
 2830SOL    HW1 9389   3.107   5.475   4.372
 2830SOL    HW2 9390   3.086   5.361   4.257
 2831SOL     OW 9391   6.050   1.647   2.070
 2831SOL    HW1 9392   6.131   1.607   2.027
 2831SOL    HW2 9393   6.008   1.713   2.008
 2832SOL     OW 9394   1.958   3.923   1.428
 2832SOL    HW1 9395   2.020   3.885   1.496
 2832SOL    HW2 9396   1.946   3.857   1.353
 2833SOL     OW 9397   6.530   2.090   3.581
 2833SOL    HW1 9398   6.485   2.159   3.638
 2833SOL    HW2 9399   6.466   2.057   3.512
 2834SOL     OW 9400   2.872   0.678   4.544
 2834SOL    HW1 9401   2.889   0.762   4.493
 2834SOL    HW2 9402   2.793   0.631   4.506
 2835SOL     OW 9403   6.521   1.456   0.636
 2835SOL    HW1 9404   6.451   1.441   0.706
 2835SOL    HW2 9405   6.601   1.398   0.657
 2836SOL     OW 9406   3.170   5.955   1.689
 2836SOL    HW1 9407   3.076   5.920   1.687
 2836SOL    HW2 9408   3.168   6.053   1.710
 2837SOL     OW 9409   5.240   3.990   3.074
 2837SOL    HW1 9410   5.162   3.973   3.014
 2837SOL    HW2 9411   5.212   4.047   3.151
 2838SOL     OW 9412   7.014   4.153   5.986
 2838SOL    HW1 9413   0.068   4.149   6.052
 2838SOL    HW2 9414   6.956   4.232   6.006
 2839SOL     OW 9415   5.337   2.703   6.257
 2839SOL    HW1 9416   5.405   2.666   6.194
 2839SOL    HW2 9417   5.260   2.639   6.265
 2840SOL     OW 9418   6.546   5.816   5.003
 2840SOL    HW1 9419   6.455   5.857   4.999
 2840SOL    HW2 9420   6.577   5.795   4.911
 2841SOL     OW 9421   5.562   3.348   3.405
 2841SOL    HW1 9422   5.532   3.436   3.444
 2841SOL    HW2 9423   5.543   3.275   3.470
 2842SOL     OW 9424   0.896   6.288   3.581
 2842SOL    HW1 9425   0.884   6.381   3.616
 2842SOL    HW2 9426   0.879   6.222   3.654
 2843SOL     OW 9427   0.705   2.598   4.277
 2843SOL    HW1 9428   0.777   2.573   4.341
 2843SOL    HW2 9429   0.724   2.688   4.239
 2844SOL     OW 9430   5.692   3.973   0.228
 2844SOL    HW1 9431   5.592   3.967   0.227
 2844SOL    HW2 9432   5.731   3.882   0.220
 2845SOL     OW 9433   3.747   1.685   1.046
 2845SOL    HW1 9434   3.819   1.657   0.983
 2845SOL    HW2 9435   3.771   1.773   1.088
 2846SOL     OW 9436   4.998   0.593   6.422
 2846SOL    HW1 9437   5.023   0.546   6.337
 2846SOL    HW2 9438   4.899   0.612   6.421
 2847SOL     OW 9439   5.714   4.762   2.412
 2847SOL    HW1 9440   5.740   4.666   2.425
 2847SOL    HW2 9441   5.794   4.821   2.429
 2848SOL     OW 9442   0.482   3.258   0.334
 2848SOL    HW1 9443   0.582   3.262   0.341
 2848SOL    HW2 9444   0.445   3.214   0.415
 2849SOL     OW 9445   5.280   0.733   1.070
 2849SOL    HW1 9446   5.345   0.752   0.997
 2849SOL    HW2 9447   5.216   0.810   1.079
 2850SOL     OW 9448   7.001   1.437   0.641
 2850SOL    HW1 9449   0.003   1.493   0.562
 2850SOL    HW2 9450   0.026   1.348   0.634
 2851SOL     OW 9451   3.169   3.342   2.168
 2851SOL    HW1 9452   3.092   3.282   2.144
 2851SOL    HW2 9453   3.245   3.287   2.202
 2852SOL     OW 9454   0.584   4.907   5.153
 2852SOL    HW1 9455   0.575   4.917   5.054
 2852SOL    HW2 9456   0.585   4.809   5.176
 2853SOL     OW 9457   0.185   4.695   5.860
 2853SOL    HW1 9458   0.236   4.609   5.871
 2853SOL    HW2 9459   0.244   4.772   5.884
 2854SOL     OW 9460   3.181   0.328   6.626
 2854SOL    HW1 9461   3.083   0.313   6.615
 2854SOL    HW2 9462   3.203   0.340   6.722
 2855SOL     OW 9463   2.654   2.331   4.376
 2855SOL    HW1 9464   2.646   2.240   4.417
 2855SOL    HW2 9465   2.576   2.387   4.404
 2856SOL     OW 9466   1.713   5.398   5.036
 2856SOL    HW1 9467   1.778   5.472   5.017
 2856SOL    HW2 9468   1.737   5.317   4.984
 2857SOL     OW 9469   0.880   4.549   0.111
 2857SOL    HW1 9470   0.894   4.643   0.081
 2857SOL    HW2 9471   0.968   4.500   0.107
 2858SOL     OW 9472   5.619   4.714   4.201
 2858SOL    HW1 9473   5.573   4.729   4.114
 2858SOL    HW2 9474   5.666   4.626   4.200
 2859SOL     OW 9475   0.392   4.807   1.998
 2859SOL    HW1 9476   0.323   4.746   1.957
 2859SOL    HW2 9477   0.479   4.795   1.950
 2860SOL     OW 9478   1.324   6.681   3.042
 2860SOL    HW1 9479   1.326   6.769   2.995
 2860SOL    HW2 9480   1.237   6.635   3.023
 2861SOL     OW 9481   5.634   3.236   5.139
 2861SOL    HW1 9482   5.551   3.287   5.120
 2861SOL    HW2 9483   5.676   3.268   5.224
 2862SOL     OW 9484   4.659   1.221   0.456
 2862SOL    HW1 9485   4.569   1.207   0.497
 2862SOL    HW2 9486   4.730   1.194   0.520
 2863SOL     OW 9487   5.510   1.460   6.388
 2863SOL    HW1 9488   5.429   1.402   6.397
 2863SOL    HW2 9489   5.534   1.497   6.478
 2864SOL     OW 9490   4.493   4.823   1.150
 2864SOL    HW1 9491   4.567   4.851   1.089
 2864SOL    HW2 9492   4.476   4.725   1.140
 2865SOL     OW 9493   5.886   4.130   6.265
 2865SOL    HW1 9494   5.861   4.218   6.225
 2865SOL    HW2 9495   5.966   4.093   6.217
 2866SOL     OW 9496   4.387   5.793   1.118
 2866SOL    HW1 9497   4.422   5.747   1.200
 2866SOL    HW2 9498   4.405   5.891   1.124
 2867SOL     OW 9499   0.353   5.752   3.310
 2867SOL    HW1 9500   0.281   5.821   3.315
 2867SOL    HW2 9501   0.371   5.715   3.401
 2868SOL     OW 9502   6.777   0.204   5.717
 2868SOL    HW1 9503   6.871   0.171   5.723
 2868SOL    HW2 9504   6.776   0.290   5.666
 2869SOL     OW 9505   5.603   4.482   5.137
 2869SOL    HW1 9506   5.681   4.488   5.075
 2869SOL    HW2 9507   5.527   4.437   5.091
 2870SOL     OW 9508   0.203   1.129   1.290
 2870SOL    HW1 9509   0.140   1.075   1.347
 2870SOL    HW2 9510   0.208   1.089   1.199
 2871SOL     OW 9511   4.699   1.386   3.249
 2871SOL    HW1 9512   4.608   1.428   3.240
 2871SOL    HW2 9513   4.754   1.439   3.312
 2872SOL     OW 9514   3.743   1.307   2.666
 2872SOL    HW1 9515   3.754   1.406   2.676
 2872SOL    HW2 9516   3.734   1.265   2.756
 2873SOL     OW 9517   6.976   0.099   2.788
 2873SOL    HW1 9518   6.955   0.001   2.790
 2873SOL    HW2 9519   6.893   0.151   2.809
 2874SOL     OW 9520   1.605   1.069   2.115
 2874SOL    HW1 9521   1.633   1.007   2.188
 2874SOL    HW2 9522   1.686   1.100   2.065
 2875SOL     OW 9523   3.068   0.359   2.236
 2875SOL    HW1 9524   3.102   0.341   2.143
 2875SOL    HW2 9525   3.134   0.327   2.303
 2876SOL     OW 9526   1.544   0.037   1.203
 2876SOL    HW1 9527   1.505   0.114   1.152
 2876SOL    HW2 9528   1.524   0.048   1.301
 2877SOL     OW 9529   0.955   3.530   6.885
 2877SOL    HW1 9530   0.880   3.483   6.839
 2877SOL    HW2 9531   0.984   3.476   6.965
 2878SOL     OW 9532   3.660   3.621   4.951
 2878SOL    HW1 9533   3.644   3.568   4.868
 2878SOL    HW2 9534   3.737   3.683   4.937
 2879SOL     OW 9535   6.059   5.934   0.252
 2879SOL    HW1 9536   6.079   5.837   0.266
 2879SOL    HW2 9537   6.138   5.978   0.210
 2880SOL     OW 9538   1.481   1.692   2.730
 2880SOL    HW1 9539   1.392   1.685   2.775
 2880SOL    HW2 9540   1.510   1.788   2.727
 2881SOL     OW 9541   5.323   4.852   6.974
 2881SOL    HW1 9542   5.256   4.788   6.937
 2881SOL    HW2 9543   5.384   4.804   0.015
 2882SOL     OW 9544   5.085   6.673   6.950
 2882SOL    HW1 9545   5.108   6.770   6.962
 2882SOL    HW2 9546   5.169   6.620   6.939
 2883SOL     OW 9547   5.104   6.530   3.229
 2883SOL    HW1 9548   5.008   6.553   3.239
 2883SOL    HW2 9549   5.159   6.613   3.222
 2884SOL     OW 9550   6.495   5.400   3.669
 2884SOL    HW1 9551   6.440   5.467   3.718
 2884SOL    HW2 9552   6.563   5.361   3.730
 2885SOL     OW 9553   0.579   3.880   3.585
 2885SOL    HW1 9554   0.534   3.951   3.640
 2885SOL    HW2 9555   0.655   3.921   3.534
 2886SOL     OW 9556   2.179   4.480   5.021
 2886SOL    HW1 9557   2.113   4.413   5.054
 2886SOL    HW2 9558   2.272   4.446   5.036
 2887SOL     OW 9559   6.946   4.777   3.123
 2887SOL    HW1 9560   6.928   4.698   3.065
 2887SOL    HW2 9561   6.885   4.775   3.202
 2888SOL     OW 9562   4.361   5.797   6.793
 2888SOL    HW1 9563   4.387   5.757   6.881
 2888SOL    HW2 9564   4.426   5.768   6.723
 2889SOL     OW 9565   3.988   5.213   3.680
 2889SOL    HW1 9566   3.939   5.146   3.624
 2889SOL    HW2 9567   3.945   5.219   3.770
 2890SOL     OW 9568   1.198   1.727   0.752
 2890SOL    HW1 9569   1.251   1.810   0.736
 2890SOL    HW2 9570   1.128   1.744   0.822
 2891SOL     OW 9571   1.471   1.697   5.480
 2891SOL    HW1 9572   1.457   1.598   5.468
 2891SOL    HW2 9573   1.561   1.722   5.445
 2892SOL     OW 9574   5.893   3.778   2.164
 2892SOL    HW1 9575   5.873   3.680   2.174
 2892SOL    HW2 9576   5.989   3.794   2.183
 2893SOL     OW 9577   6.645   6.070   5.097
 2893SOL    HW1 9578   6.557   6.062   5.144
 2893SOL    HW2 9579   6.686   5.980   5.085
 2894SOL     OW 9580   1.920   5.478   1.242
 2894SOL    HW1 9581   2.008   5.523   1.224
 2894SOL    HW2 9582   1.848   5.548   1.248
 2895SOL     OW 9583   4.580   6.301   6.439
 2895SOL    HW1 9584   4.584   6.334   6.534
 2895SOL    HW2 9585   4.673   6.284   6.406
 2896SOL     OW 9586   6.728   6.704   6.284
 2896SOL    HW1 9587   6.709   6.688   6.381
 2896SOL    HW2 9588   6.660   6.767   6.246
 2897SOL     OW 9589   2.869   6.300   3.786
 2897SOL    HW1 9590   2.923   6.278   3.705
 2897SOL    HW2 9591   2.826   6.217   3.821
 2898SOL     OW 9592   5.326   2.510   2.441
 2898SOL    HW1 9593   5.300   2.491   2.535
 2898SOL    HW2 9594   5.277   2.447   2.380
 2899SOL     OW 9595   6.631   2.658   1.364
 2899SOL    HW1 9596   6.681   2.651   1.278
 2899SOL    HW2 9597   6.695   2.664   1.441
 2900SOL     OW 9598   3.278   2.860   4.973
 2900SOL    HW1 9599   3.273   2.773   4.924
 2900SOL    HW2 9600   3.197   2.870   5.031
 2901SOL     OW 9601   1.132   3.619   1.402
 2901SOL    HW1 9602   1.141   3.627   1.302
 2901SOL    HW2 9603   1.159   3.706   1.444
 2902SOL     OW 9604   5.237   6.077   3.454
 2902SOL    HW1 9605   5.183   6.160   3.468
 2902SOL    HW2 9606   5.277   6.048   3.541
 2903SOL     OW 9607   0.799   5.458   1.585
 2903SOL    HW1 9608   0.706   5.421   1.586
 2903SOL    HW2 9609   0.857   5.404   1.646
 2904SOL     OW 9610   2.872   4.897   4.091
 2904SOL    HW1 9611   2.933   4.975   4.108
 2904SOL    HW2 9612   2.905   4.846   4.011
 2905SOL     OW 9613   1.104   4.499   1.573
 2905SOL    HW1 9614   1.107   4.431   1.647
 2905SOL    HW2 9615   1.146   4.461   1.491
 2906SOL     OW 9616   6.607   6.238   6.042
 2906SOL    HW1 9617   6.665   6.208   5.967
 2906SOL    HW2 9618   6.649   6.214   6.129
 2907SOL     OW 9619   6.681   0.985   6.003
 2907SOL    HW1 9620   6.709   0.948   6.091
 2907SOL    HW2 9621   6.598   0.939   5.971
 2908SOL     OW 9622   3.768   5.987   3.564
 2908SOL    HW1 9623   3.769   6.031   3.475
 2908SOL    HW2 9624   3.861   5.982   3.600
 2909SOL     OW 9625   0.386   6.489   0.983
 2909SOL    HW1 9626   0.463   6.534   0.937
 2909SOL    HW2 9627   0.302   6.540   0.965
 2910SOL     OW 9628   0.999   0.238   4.481
 2910SOL    HW1 9629   1.098   0.222   4.482
 2910SOL    HW2 9630   0.962   0.225   4.573
 2911SOL     OW 9631   6.804   3.505   3.411
 2911SOL    HW1 9632   6.851   3.590   3.385
 2911SOL    HW2 9633   6.872   3.434   3.430
 2912SOL     OW 9634   0.256   1.499   3.006
 2912SOL    HW1 9635   0.197   1.421   3.025
 2912SOL    HW2 9636   0.219   1.551   2.929
 2913SOL     OW 9637   1.088   6.650   4.260
 2913SOL    HW1 9638   1.016   6.582   4.249
 2913SOL    HW2 9639   1.095   6.675   4.357
 2914SOL     OW 9640   4.079   4.412   0.987
 2914SOL    HW1 9641   4.120   4.444   1.073
 2914SOL    HW2 9642   4.008   4.477   0.958
 2915SOL     OW 9643   2.491   0.549   3.713
 2915SOL    HW1 9644   2.502   0.539   3.812
 2915SOL    HW2 9645   2.498   0.459   3.670
 2916SOL     OW 9646   0.486   5.921   6.351
 2916SOL    HW1 9647   0.568   5.977   6.365
 2916SOL    HW2 9648   0.405   5.980   6.350
 2917SOL     OW 9649   1.736   1.197   3.659
 2917SOL    HW1 9650   1.740   1.277   3.599
 2917SOL    HW2 9651   1.672   1.130   3.621
 2918SOL     OW 9652   5.115   1.276   1.079
 2918SOL    HW1 9653   5.151   1.254   1.169
 2918SOL    HW2 9654   5.126   1.373   1.060
 2919SOL     OW 9655   0.784   5.852   5.001
 2919SOL    HW1 9656   0.804   5.770   5.055
 2919SOL    HW2 9657   0.784   5.828   4.904
 2920SOL     OW 9658   2.767   2.239   1.808
 2920SOL    HW1 9659   2.838   2.276   1.867
 2920SOL    HW2 9660   2.775   2.140   1.804
 2921SOL     OW 9661   0.008   5.123   3.644
 2921SOL    HW1 9662   6.982   5.127   3.556
 2921SOL    HW2 9663   0.028   5.217   3.675
 2922SOL     OW 9664   4.263   4.997   3.488
 2922SOL    HW1 9665   4.166   4.979   3.475
 2922SOL    HW2 9666   4.280   5.095   3.484
 2923SOL     OW 9667   1.479   4.605   3.639
 2923SOL    HW1 9668   1.517   4.687   3.682
 2923SOL    HW2 9669   1.461   4.536   3.710
 2924SOL     OW 9670   4.992   1.442   0.053
 2924SOL    HW1 9671   5.007   1.437   6.975
 2924SOL    HW2 9672   5.062   1.500   0.094
 2925SOL     OW 9673   5.504   6.634   4.645
 2925SOL    HW1 9674   5.505   6.721   4.594
 2925SOL    HW2 9675   5.500   6.558   4.580
 2926SOL     OW 9676   6.982   2.536   4.714
 2926SOL    HW1 9677   6.885   2.519   4.697
 2926SOL    HW2 9678   0.013   2.451   4.703
 2927SOL     OW 9679   0.991   2.137   2.290
 2927SOL    HW1 9680   0.916   2.131   2.224
 2927SOL    HW2 9681   1.053   2.059   2.279
 2928SOL     OW 9682   5.030   4.804   0.399
 2928SOL    HW1 9683   5.087   4.722   0.391
 2928SOL    HW2 9684   5.006   4.837   0.307
 2929SOL     OW 9685   1.726   1.578   2.816
 2929SOL    HW1 9686   1.633   1.614   2.808
 2929SOL    HW2 9687   1.778   1.604   2.734
 2930SOL     OW 9688   0.311   3.143   4.471
 2930SOL    HW1 9689   0.220   3.136   4.431
 2930SOL    HW2 9690   0.331   3.239   4.491
 2931SOL     OW 9691   5.695   3.790   5.636
 2931SOL    HW1 9692   5.641   3.862   5.681
 2931SOL    HW2 9693   5.694   3.804   5.537
 2932SOL     OW 9694   6.929   6.575   0.736
 2932SOL    HW1 9695   6.993   6.574   0.660
 2932SOL    HW2 9696   6.972   6.617   0.816
 2933SOL     OW 9697   0.763   0.445   6.948
 2933SOL    HW1 9698   0.763   0.452   0.027
 2933SOL    HW2 9699   0.672   0.422   6.916
 2934SOL     OW 9700   6.089   5.308   2.546
 2934SOL    HW1 9701   6.064   5.239   2.614
 2934SOL    HW2 9702   6.049   5.284   2.458
 2935SOL     OW 9703   1.011   4.453   5.981
 2935SOL    HW1 9704   1.085   4.394   6.014
 2935SOL    HW2 9705   0.940   4.397   5.939
 2936SOL     OW 9706   4.409   6.517   2.654
 2936SOL    HW1 9707   4.411   6.600   2.709
 2936SOL    HW2 9708   4.390   6.438   2.713
 2937SOL     OW 9709   6.226   3.287   3.277
 2937SOL    HW1 9710   6.175   3.372   3.288
 2937SOL    HW2 9711   6.162   3.211   3.269
 2938SOL     OW 9712   0.548   5.385   1.559
 2938SOL    HW1 9713   0.482   5.460   1.556
 2938SOL    HW2 9714   0.514   5.308   1.506
 2939SOL     OW 9715   5.612   6.245   2.190
 2939SOL    HW1 9716   5.591   6.153   2.156
 2939SOL    HW2 9717   5.628   6.242   2.288
 2940SOL     OW 9718   4.895   5.678   3.398
 2940SOL    HW1 9719   4.803   5.718   3.397
 2940SOL    HW2 9720   4.935   5.684   3.307
 2941SOL     OW 9721   2.874   5.109   2.460
 2941SOL    HW1 9722   2.896   5.014   2.484
 2941SOL    HW2 9723   2.926   5.171   2.518
 2942SOL     OW 9724   3.372   1.786   1.315
 2942SOL    HW1 9725   3.463   1.828   1.313
 2942SOL    HW2 9726   3.381   1.687   1.303
 2943SOL     OW 9727   0.503   4.087   3.776
 2943SOL    HW1 9728   0.415   4.041   3.762
 2943SOL    HW2 9729   0.510   4.117   3.872
 2944SOL     OW 9730   0.914   5.269   3.229
 2944SOL    HW1 9731   0.953   5.181   3.255
 2944SOL    HW2 9732   0.831   5.255   3.175
 2945SOL     OW 9733   5.835   3.659   0.489
 2945SOL    HW1 9734   5.928   3.625   0.471
 2945SOL    HW2 9735   5.769   3.607   0.435
 2946SOL     OW 9736   3.212   4.016   4.571
 2946SOL    HW1 9737   3.192   4.047   4.664
 2946SOL    HW2 9738   3.300   4.054   4.542
 2947SOL     OW 9739   6.565   6.229   0.468
 2947SOL    HW1 9740   6.607   6.178   0.393
 2947SOL    HW2 9741   6.636   6.260   0.531
 2948SOL     OW 9742   6.056   4.448   0.596
 2948SOL    HW1 9743   6.056   4.353   0.628
 2948SOL    HW2 9744   6.058   4.510   0.675
 2949SOL     OW 9745   1.760   5.834   1.107
 2949SOL    HW1 9746   1.758   5.914   1.167
 2949SOL    HW2 9747   1.750   5.751   1.162
 2950SOL     OW 9748   5.599   5.380   2.020
 2950SOL    HW1 9749   5.556   5.290   2.025
 2950SOL    HW2 9750   5.698   5.369   2.019
 2951SOL     OW 9751   0.663   2.334   0.838
 2951SOL    HW1 9752   0.707   2.248   0.865
 2951SOL    HW2 9753   0.734   2.403   0.821
 2952SOL     OW 9754   0.865   1.912   4.569
 2952SOL    HW1 9755   0.867   1.965   4.654
 2952SOL    HW2 9756   0.861   1.815   4.591
 2953SOL     OW 9757   1.349   5.795   2.858
 2953SOL    HW1 9758   1.279   5.755   2.917
 2953SOL    HW2 9759   1.397   5.722   2.809
 2954SOL     OW 9760   0.651   4.318   6.165
 2954SOL    HW1 9761   0.612   4.410   6.170
 2954SOL    HW2 9762   0.737   4.321   6.114
 2955SOL     OW 9763   1.481   4.911   5.972
 2955SOL    HW1 9764   1.576   4.880   5.977
 2955SOL    HW2 9765   1.446   4.926   6.064
 2956SOL     OW 9766   5.931   3.820   4.916
 2956SOL    HW1 9767   5.991   3.744   4.891
 2956SOL    HW2 9768   5.970   3.869   4.994
 2957SOL     OW 9769   1.843   5.039   1.994
 2957SOL    HW1 9770   1.773   5.024   2.063
 2957SOL    HW2 9771   1.900   4.957   1.986
 2958SOL     OW 9772   1.867   4.051   1.063
 2958SOL    HW1 9773   1.817   4.119   1.117
 2958SOL    HW2 9774   1.961   4.082   1.050
 2959SOL     OW 9775   0.430   4.197   4.010
 2959SOL    HW1 9776   0.498   4.244   4.067
 2959SOL    HW2 9777   0.346   4.252   4.006
 2960SOL     OW 9778   5.164   6.732   0.888
 2960SOL    HW1 9779   5.121   6.705   0.974
 2960SOL    HW2 9780   5.188   6.829   0.892
 2961SOL     OW 9781   5.876   2.026   0.834
 2961SOL    HW1 9782   5.943   2.097   0.814
 2961SOL    HW2 9783   5.789   2.069   0.860
 2962SOL     OW 9784   6.944   0.457   4.082
 2962SOL    HW1 9785   6.939   0.457   4.181
 2962SOL    HW2 9786   6.855   0.431   4.043
 2963SOL     OW 9787   1.775   2.062   5.984
 2963SOL    HW1 9788   1.715   2.002   6.038
 2963SOL    HW2 9789   1.870   2.048   6.010
 2964SOL     OW 9790   0.916   1.214   5.738
 2964SOL    HW1 9791   1.010   1.226   5.708
 2964SOL    HW2 9792   0.911   1.137   5.802
 2965SOL     OW 9793   5.736   0.271   6.199
 2965SOL    HW1 9794   5.785   0.289   6.114
 2965SOL    HW2 9795   5.779   0.194   6.246
 2966SOL     OW 9796   3.260   6.763   3.108
 2966SOL    HW1 9797   3.311   6.683   3.138
 2966SOL    HW2 9798   3.224   6.812   3.187
 2967SOL     OW 9799   6.099   6.723   5.136
 2967SOL    HW1 9800   6.189   6.753   5.105
 2967SOL    HW2 9801   6.082   6.630   5.104
 2968SOL     OW 9802   1.413   3.671   1.583
 2968SOL    HW1 9803   1.434   3.729   1.505
 2968SOL    HW2 9804   1.483   3.600   1.592
 2969SOL     OW 9805   4.306   2.068   4.938
 2969SOL    HW1 9806   4.343   2.143   4.882
 2969SOL    HW2 9807   4.208   2.078   4.948
 2970SOL     OW 9808   3.189   2.232   5.976
 2970SOL    HW1 9809   3.255   2.276   5.916
 2970SOL    HW2 9810   3.145   2.156   5.927
 2971SOL     OW 9811   4.204   3.321   5.669
 2971SOL    HW1 9812   4.250   3.386   5.608
 2971SOL    HW2 9813   4.117   3.361   5.699
 2972SOL     OW 9814   0.741   6.031   6.390
 2972SOL    HW1 9815   0.799   5.964   6.345
 2972SOL    HW2 9816   0.774   6.123   6.369
 2973SOL     OW 9817   5.735   0.183   4.064
 2973SOL    HW1 9818   5.679   0.117   4.013
 2973SOL    HW2 9819   5.829   0.180   4.032
 2974SOL     OW 9820   4.936   5.741   2.401
 2974SOL    HW1 9821   4.963   5.671   2.467
 2974SOL    HW2 9822   4.848   5.717   2.361
 2975SOL     OW 9823   0.257   3.552   4.744
 2975SOL    HW1 9824   0.309   3.515   4.667
 2975SOL    HW2 9825   0.229   3.477   4.804
 2976SOL     OW 9826   4.064   0.598   1.053
 2976SOL    HW1 9827   4.054   0.659   0.974
 2976SOL    HW2 9828   3.991   0.530   1.052
 2977SOL     OW 9829   1.649   1.283   2.489
 2977SOL    HW1 9830   1.690   1.294   2.399
 2977SOL    HW2 9831   1.715   1.241   2.551
 2978SOL     OW 9832   3.323   6.103   0.324
 2978SOL    HW1 9833   3.363   6.151   0.401
 2978SOL    HW2 9834   3.357   6.009   0.322
 2979SOL     OW 9835   2.239   1.664   5.804
 2979SOL    HW1 9836   2.168   1.696   5.866
 2979SOL    HW2 9837   2.206   1.584   5.753
 2980SOL     OW 9838   2.906   3.315   3.433
 2980SOL    HW1 9839   2.850   3.365   3.499
 2980SOL    HW2 9840   2.912   3.219   3.459
 2981SOL     OW 9841   2.860   2.001   1.840
 2981SOL    HW1 9842   2.916   1.950   1.776
 2981SOL    HW2 9843   2.919   2.044   1.909
 2982SOL     OW 9844   0.991   0.261   2.574
 2982SOL    HW1 9845   1.084   0.297   2.575
 2982SOL    HW2 9846   0.988   0.173   2.621
 2983SOL     OW 9847   6.098   2.554   6.415
 2983SOL    HW1 9848   6.189   2.584   6.388
 2983SOL    HW2 9849   6.032   2.627   6.395
 2984SOL     OW 9850   1.010   6.453   1.220
 2984SOL    HW1 9851   0.989   6.550   1.232
 2984SOL    HW2 9852   0.940   6.410   1.163
 2985SOL     OW 9853   0.005   6.920   5.690
 2985SOL    HW1 9854   6.940   6.922   5.740
 2985SOL    HW2 9855   0.031   7.014   5.664
 2986SOL     OW 9856   4.075   3.449   2.853
 2986SOL    HW1 9857   4.092   3.429   2.950
 2986SOL    HW2 9858   4.119   3.379   2.797
 2987SOL     OW 9859   2.825   6.416   5.175
 2987SOL    HW1 9860   2.726   6.430   5.171
 2987SOL    HW2 9861   2.866   6.440   5.088
 2988SOL     OW 9862   0.520   1.905   6.424
 2988SOL    HW1 9863   0.563   1.822   6.389
 2988SOL    HW2 9864   0.591   1.969   6.454
 2989SOL     OW 9865   5.589   3.661   5.953
 2989SOL    HW1 9866   5.531   3.742   5.967
 2989SOL    HW2 9867   5.658   3.657   6.025
 2990SOL     OW 9868   4.693   1.344   4.771
 2990SOL    HW1 9869   4.599   1.363   4.802
 2990SOL    HW2 9870   4.748   1.316   4.850
 2991SOL     OW 9871   6.737   2.907   0.202
 2991SOL    HW1 9872   6.676   2.912   0.282
 2991SOL    HW2 9873   6.682   2.913   0.119
 2992SOL     OW 9874   1.836   3.808   4.755
 2992SOL    HW1 9875   1.868   3.879   4.818
 2992SOL    HW2 9876   1.748   3.835   4.717
 2993SOL     OW 9877   3.747   4.937   6.649
 2993SOL    HW1 9878   3.812   5.007   6.620
 2993SOL    HW2 9879   3.796   4.856   6.680
 2994SOL     OW 9880   2.869   5.023   4.450
 2994SOL    HW1 9881   2.852   4.952   4.381
 2994SOL    HW2 9882   2.788   5.034   4.508
 2995SOL     OW 9883   4.813   0.373   2.232
 2995SOL    HW1 9884   4.747   0.447   2.218
 2995SOL    HW2 9885   4.817   0.348   2.329
 2996SOL     OW 9886   0.292   0.579   3.833
 2996SOL    HW1 9887   0.246   0.523   3.902
 2996SOL    HW2 9888   0.267   0.675   3.847
 2997SOL     OW 9889   4.841   5.578   4.040
 2997SOL    HW1 9890   4.764   5.641   4.055
 2997SOL    HW2 9891   4.826   5.528   3.955
 2998SOL     OW 9892   2.657   0.394   2.020
 2998SOL    HW1 9893   2.569   0.398   1.973
 2998SOL    HW2 9894   2.719   0.461   1.981
 2999SOL     OW 9895   2.197   4.979   0.407
 2999SOL    HW1 9896   2.191   4.922   0.325
 2999SOL    HW2 9897   2.136   5.058   0.397
 3000SOL     OW 9898   2.029   4.024   6.514
 3000SOL    HW1 9899   1.947   3.971   6.492
 3000SOL    HW2 9900   2.078   4.046   6.429
 3001SOL     OW 9901   3.430   0.187   6.391
 3001SOL    HW1 9902   3.384   0.275   6.404
 3001SOL    HW2 9903   3.465   0.154   6.479
 3002SOL     OW 9904   1.311   2.090   2.087
 3002SOL    HW1 9905   1.251   2.029   2.139
 3002SOL    HW2 9906   1.258   2.139   2.019
 3003SOL     OW 9907   1.733   6.266   0.151
 3003SOL    HW1 9908   1.731   6.188   0.088
 3003SOL    HW2 9909   1.641   6.303   0.161
 3004SOL     OW 9910   3.173   0.541   4.927
 3004SOL    HW1 9911   3.122   0.541   4.840
 3004SOL    HW2 9912   3.234   0.463   4.930
 3005SOL     OW 9913   2.785   1.717   0.055
 3005SOL    HW1 9914   2.745   1.732   0.145
 3005SOL    HW2 9915   2.720   1.669   7.017
 3006SOL     OW 9916   5.625   0.805   5.816
 3006SOL    HW1 9917   5.720   0.828   5.794
 3006SOL    HW2 9918   5.567   0.885   5.800
 3007SOL     OW 9919   6.268   5.815   5.442
 3007SOL    HW1 9920   6.266   5.856   5.533
 3007SOL    HW2 9921   6.318   5.728   5.445
 3008SOL     OW 9922   5.692   3.797   5.360
 3008SOL    HW1 9923   5.675   3.883   5.311
 3008SOL    HW2 9924   5.788   3.791   5.384
 3009SOL     OW 9925   5.331   3.397   1.610
 3009SOL    HW1 9926   5.262   3.458   1.650
 3009SOL    HW2 9927   5.303   3.370   1.519
 3010SOL     OW 9928   4.396   4.481   1.408
 3010SOL    HW1 9929   4.472   4.518   1.462
 3010SOL    HW2 9930   4.379   4.387   1.436
 3011SOL     OW 9931   5.935   0.011   0.552
 3011SOL    HW1 9932   5.866   0.081   0.533
 3011SOL    HW2 9933   5.927   7.003   0.648
 3012SOL     OW 9934   2.064   1.762   4.474
 3012SOL    HW1 9935   2.116   1.843   4.444
 3012SOL    HW2 9936   2.088   1.685   4.415
 3013SOL     OW 9937   0.186   5.223   5.110
 3013SOL    HW1 9938   0.203   5.140   5.162
 3013SOL    HW2 9939   0.248   5.227   5.032
 3014SOL     OW 9940   3.842   0.386   0.479
 3014SOL    HW1 9941   3.832   0.406   0.381
 3014SOL    HW2 9942   3.799   0.298   0.499
 3015SOL     OW 9943   2.193   6.824   6.315
 3015SOL    HW1 9944   2.229   6.913   6.341
 3015SOL    HW2 9945   2.269   6.758   6.309
 3016SOL     OW 9946   3.218   0.826   4.673
 3016SOL    HW1 9947   3.164   0.750   4.707
 3016SOL    HW2 9948   3.315   0.808   4.688
 3017SOL     OW 9949   1.545   6.184   0.507
 3017SOL    HW1 9950   1.641   6.209   0.521
 3017SOL    HW2 9951   1.540   6.099   0.455
 3018SOL     OW 9952   2.261   2.752   1.822
 3018SOL    HW1 9953   2.234   2.775   1.915
 3018SOL    HW2 9954   2.200   2.680   1.787
 3019SOL     OW 9955   0.740   1.377   5.588
 3019SOL    HW1 9956   0.784   1.468   5.591
 3019SOL    HW2 9957   0.789   1.315   5.650
 3020SOL     OW 9958   5.595   4.042   6.281
 3020SOL    HW1 9959   5.662   4.037   6.207
 3020SOL    HW2 9960   5.618   4.117   6.342
 3021SOL     OW 9961   4.399   6.679   4.348
 3021SOL    HW1 9962   4.452   6.605   4.390
 3021SOL    HW2 9963   4.333   6.715   4.415
 3022SOL     OW 9964   3.699   6.564   2.241
 3022SOL    HW1 9965   3.721   6.518   2.328
 3022SOL    HW2 9966   3.606   6.600   2.246
 3023SOL     OW 9967   5.100   4.294   4.964
 3023SOL    HW1 9968   5.017   4.240   4.977
 3023SOL    HW2 9969   5.079   4.376   4.911
 3024SOL     OW 9970   6.204   1.417   6.668
 3024SOL    HW1 9971   6.125   1.356   6.670
 3024SOL    HW2 9972   6.187   1.497   6.725
 3025SOL     OW 9973   4.007   5.342   0.793
 3025SOL    HW1 9974   3.916   5.336   0.753
 3025SOL    HW2 9975   4.067   5.393   0.731
 3026SOL     OW 9976   0.222   6.871   2.639
 3026SOL    HW1 9977   0.293   6.863   2.709
 3026SOL    HW2 9978   0.196   6.967   2.629
 3027SOL     OW 9979   4.056   0.268   0.740
 3027SOL    HW1 9980   4.145   0.288   0.782
 3027SOL    HW2 9981   4.071   0.215   0.656
 3028SOL     OW 9982   4.151   3.562   3.927
 3028SOL    HW1 9983   4.153   3.637   3.993
 3028SOL    HW2 9984   4.108   3.482   3.969
 3029SOL     OW 9985   0.103   2.297   4.764
 3029SOL    HW1 9986   0.069   2.242   4.840
 3029SOL    HW2 9987   0.187   2.344   4.791
 3030SOL     OW 9988   0.255   3.868   6.588
 3030SOL    HW1 9989   0.192   3.897   6.516
 3030SOL    HW2 9990   0.347   3.857   6.550
 3031SOL     OW 9991   0.426   4.997   7.016
 3031SOL    HW1 9992   0.514   4.951   0.011
 3031SOL    HW2 9993   0.409   5.002   6.918
 3032SOL     OW 9994   3.852   6.833   3.808
 3032SOL    HW1 9995   3.757   6.802   3.804
 3032SOL    HW2 9996   3.900   6.808   3.724
 3033SOL     OW 9997   2.028   0.767   6.804
 3033SOL    HW1 9998   2.109   0.718   6.835
 3033SOL    HW2 9999   2.029   0.861   6.839
 3034SOL     OW10000   5.114   3.414   3.211
 3034SOL    HW110001   5.089   3.340   3.149
 3034SOL    HW210002   5.091   3.502   3.169
 3035SOL     OW10003   6.553   4.051   6.841
 3035SOL    HW110004   6.589   4.128   6.893
 3035SOL    HW210005   6.625   3.984   6.826
 3036SOL     OW10006   2.967   2.595   6.506
 3036SOL    HW110007   3.015   2.514   6.542
 3036SOL    HW210008   2.970   2.593   6.406
 3037SOL     OW10009   0.420   5.549   5.923
 3037SOL    HW110010   0.376   5.638   5.909
 3037SOL    HW210011   0.455   5.544   6.017
 3038SOL     OW10012   5.820   4.847   5.260
 3038SOL    HW110013   5.904   4.799   5.283
 3038SOL    HW210014   5.813   4.856   5.160
 3039SOL     OW10015   6.309   3.209   6.628
 3039SOL    HW110016   6.308   3.243   6.534
 3039SOL    HW210017   6.379   3.258   6.680
 3040SOL     OW10018   3.972   6.401   6.732
 3040SOL    HW110019   3.990   6.406   6.634
 3040SOL    HW210020   3.883   6.357   6.747
 3041SOL     OW10021   2.455   5.973   6.343
 3041SOL    HW110022   2.392   6.048   6.323
 3041SOL    HW210023   2.448   5.947   6.440
 3042SOL     OW10024   0.549   5.357   4.222
 3042SOL    HW110025   0.452   5.333   4.214
 3042SOL    HW210026   0.587   5.316   4.305
 3043SOL     OW10027   2.445   3.487   1.037
 3043SOL    HW110028   2.455   3.544   1.119
 3043SOL    HW210029   2.362   3.514   0.988
 3044SOL     OW10030   4.105   3.689   4.171
 3044SOL    HW110031   4.065   3.658   4.257
 3044SOL    HW210032   4.073   3.782   4.150
 3045SOL     OW10033   5.830   0.161   3.339
 3045SOL    HW110034   5.826   0.173   3.240
 3045SOL    HW210035   5.764   0.222   3.382
 3046SOL     OW10036   6.701   5.644   1.495
 3046SOL    HW110037   6.656   5.696   1.568
 3046SOL    HW210038   6.787   5.689   1.470
 3047SOL     OW10039   4.178   1.992   3.839
 3047SOL    HW110040   4.122   1.964   3.917
 3047SOL    HW210041   4.119   2.021   3.763
 3048SOL     OW10042   4.274   4.980   1.285
 3048SOL    HW110043   4.247   5.072   1.259
 3048SOL    HW210044   4.352   4.951   1.228
 3049SOL     OW10045   0.448   0.877   1.128
 3049SOL    HW110046   0.373   0.899   1.065
 3049SOL    HW210047   0.530   0.925   1.099
 3050SOL     OW10048   3.718   2.623   5.438
 3050SOL    HW110049   3.669   2.577   5.365
 3050SOL    HW210050   3.670   2.708   5.462
 3051SOL     OW10051   2.164   4.006   6.241
 3051SOL    HW110052   2.146   3.921   6.192
 3051SOL    HW210053   2.117   4.081   6.195
 3052SOL     OW10054   6.304   6.127   4.006
 3052SOL    HW110055   6.209   6.113   3.977
 3052SOL    HW210056   6.326   6.224   4.001
 3053SOL     OW10057   0.303   5.792   5.993
 3053SOL    HW110058   0.296   5.788   6.092
 3053SOL    HW210059   0.282   5.884   5.961
 3054SOL     OW10060   6.217   6.572   3.359
 3054SOL    HW110061   6.231   6.599   3.263
 3054SOL    HW210062   6.181   6.650   3.410
 3055SOL     OW10063   5.615   6.579   0.780
 3055SOL    HW110064   5.624   6.480   0.789
 3055SOL    HW210065   5.577   6.602   0.691
 3056SOL     OW10066   4.646   1.856   0.991
 3056SOL    HW110067   4.628   1.761   1.017
 3056SOL    HW210068   4.682   1.858   0.897
 3057SOL     OW10069   6.772   2.625   3.140
 3057SOL    HW110070   6.843   2.685   3.175
 3057SOL    HW210071   6.806   2.531   3.135
 3058SOL     OW10072   5.402   3.563   6.674
 3058SOL    HW110073   5.408   3.481   6.617
 3058SOL    HW210074   5.481   3.622   6.655
 3059SOL     OW10075   1.872   2.566   3.229
 3059SOL    HW110076   1.958   2.605   3.265
 3059SOL    HW210077   1.796   2.592   3.289
 3060SOL     OW10078   6.180   3.255   3.846
 3060SOL    HW110079   6.161   3.205   3.930
 3060SOL    HW210080   6.114   3.227   3.776
 3061SOL     OW10081   5.174   5.841   3.048
 3061SOL    HW110082   5.120   5.921   3.072
 3061SOL    HW210083   5.271   5.866   3.044
 3062SOL     OW10084   3.810   5.166   0.025
 3062SOL    HW110085   3.830   5.100   6.974
 3062SOL    HW210086   3.789   5.117   0.110
 3063SOL     OW10087   6.186   5.593   1.184
 3063SOL    HW110088   6.191   5.505   1.231
 3063SOL    HW210089   6.278   5.622   1.157
 3064SOL     OW10090   4.985   0.966   5.942
 3064SOL    HW110091   5.020   0.993   6.031
 3064SOL    HW210092   5.033   0.884   5.911
 3065SOL     OW10093   5.030   0.882   6.505
 3065SOL    HW110094   5.075   0.819   6.442
 3065SOL    HW210095   4.982   0.953   6.453
 3066SOL     OW10096   5.086   6.783   5.575
 3066SOL    HW110097   5.128   6.834   5.499
 3066SOL    HW210098   5.132   6.808   5.660
 3067SOL     OW10099   1.265   2.431   4.681
 3067SOL    HW110100   1.192   2.397   4.741
 3067SOL    HW210101   1.303   2.355   4.629
 3068SOL     OW10102   6.182   0.259   1.084
 3068SOL    HW110103   6.241   0.222   1.155
 3068SOL    HW210104   6.140   0.344   1.116
 3069SOL     OW10105   5.472   5.599   3.790
 3069SOL    HW110106   5.388   5.630   3.835
 3069SOL    HW210107   5.527   5.545   3.854
 3070SOL     OW10108   2.751   1.618   0.711
 3070SOL    HW110109   2.768   1.586   0.618
 3070SOL    HW210110   2.761   1.541   0.774
 3071SOL     OW10111   6.253   4.411   4.509
 3071SOL    HW110112   6.244   4.442   4.414
 3071SOL    HW210113   6.184   4.341   4.527
 3072SOL     OW10114   1.974   6.492   4.460
 3072SOL    HW110115   2.029   6.440   4.525
 3072SOL    HW210116   2.034   6.547   4.402
 3073SOL     OW10117   0.343   4.674   3.267
 3073SOL    HW110118   0.269   4.623   3.313
 3073SOL    HW210119   0.312   4.702   3.177
 3074SOL     OW10120   2.921   3.162   2.139
 3074SOL    HW110121   2.887   3.220   2.064
 3074SOL    HW210122   2.844   3.132   2.195
 3075SOL     OW10123   3.833   4.585   0.510
 3075SOL    HW110124   3.779   4.651   0.457
 3075SOL    HW210125   3.930   4.601   0.494
 3076SOL     OW10126   2.102   1.245   4.252
 3076SOL    HW110127   2.059   1.155   4.265
 3076SOL    HW210128   2.048   1.299   4.188
 3077SOL     OW10129   6.574   3.539   2.566
 3077SOL    HW110130   6.586   3.637   2.549
 3077SOL    HW210131   6.586   3.521   2.663
 3078SOL     OW10132   6.448   4.572   1.248
 3078SOL    HW110133   6.389   4.635   1.198
 3078SOL    HW210134   6.409   4.479   1.244
 3079SOL     OW10135   0.173   4.159   2.287
 3079SOL    HW110136   0.211   4.216   2.215
 3079SOL    HW210137   0.212   4.186   2.375
 3080SOL     OW10138   3.792   4.662   1.379
 3080SOL    HW110139   3.796   4.661   1.479
 3080SOL    HW210140   3.794   4.568   1.345
 3081SOL     OW10141   1.839   2.680   6.421
 3081SOL    HW110142   1.859   2.617   6.346
 3081SOL    HW210143   1.923   2.726   6.450
 3082SOL     OW10144   6.041   3.926   5.174
 3082SOL    HW110145   5.975   3.998   5.155
 3082SOL    HW210146   6.133   3.961   5.160
 3083SOL     OW10147   4.141   5.771   1.482
 3083SOL    HW110148   4.121   5.739   1.389
 3083SOL    HW210149   4.209   5.845   1.478
 3084SOL     OW10150   0.288   5.276   4.132
 3084SOL    HW110151   0.263   5.319   4.045
 3084SOL    HW210152   0.300   5.178   4.118
 3085SOL     OW10153   6.804   5.597   5.907
 3085SOL    HW110154   6.812   5.505   5.868
 3085SOL    HW210155   6.742   5.652   5.850
 3086SOL     OW10156   6.138   6.068   6.127
 3086SOL    HW110157   6.121   5.999   6.197
 3086SOL    HW210158   6.130   6.159   6.167
 3087SOL     OW10159   3.284   6.983   1.482
 3087SOL    HW110160   3.314   6.890   1.499
 3087SOL    HW210161   3.342   0.027   1.532
 3088SOL     OW10162   2.396   3.209   5.382
 3088SOL    HW110163   2.470   3.272   5.405
 3088SOL    HW210164   2.430   3.141   5.317
 3089SOL     OW10165   3.787   6.660   0.264
 3089SOL    HW110166   3.742   6.580   0.225
 3089SOL    HW210167   3.886   6.649   0.259
 3090SOL     OW10168   1.594   2.305   2.517
 3090SOL    HW110169   1.614   2.403   2.514
 3090SOL    HW210170   1.645   2.263   2.592
 3091SOL     OW10171   1.251   2.267   6.391
 3091SOL    HW110172   1.268   2.192   6.454
 3091SOL    HW210173   1.283   2.242   6.299
 3092SOL     OW10174   5.179   1.843   3.202
 3092SOL    HW110175   5.156   1.908   3.275
 3092SOL    HW210176   5.260   1.875   3.153
 3093SOL     OW10177   6.311   5.325   6.771
 3093SOL    HW110178   6.274   5.406   6.727
 3093SOL    HW210179   6.400   5.346   6.811
 3094SOL     OW10180   2.248   0.993   5.937
 3094SOL    HW110181   2.214   1.085   5.917
 3094SOL    HW210182   2.326   0.999   5.999
 3095SOL     OW10183   1.634   3.169   6.043
 3095SOL    HW110184   1.593   3.078   6.050
 3095SOL    HW210185   1.707   3.168   5.975
 3096SOL     OW10186   1.798   3.229   3.770
 3096SOL    HW110187   1.878   3.176   3.796
 3096SOL    HW210188   1.797   3.315   3.821
 3097SOL     OW10189   5.135   2.262   6.514
 3097SOL    HW110190   5.094   2.348   6.544
 3097SOL    HW210191   5.220   2.280   6.465
 3098SOL     OW10192   1.839   3.912   2.359
 3098SOL    HW110193   1.791   3.851   2.422
 3098SOL    HW210194   1.804   3.900   2.266
 3099SOL     OW10195   0.143   0.580   5.905
 3099SOL    HW110196   0.092   0.518   5.845
 3099SOL    HW210197   0.181   0.655   5.851
 3100SOL     OW10198   6.068   4.000   2.977
 3100SOL    HW110199   5.979   4.007   2.932
 3100SOL    HW210200   6.096   3.904   2.980
 3101SOL     OW10201   5.342   0.650   4.005
 3101SOL    HW110202   5.356   0.676   3.910
 3101SOL    HW210203   5.294   0.562   4.009
 3102SOL     OW10204   5.855   3.375   2.997
 3102SOL    HW110205   5.840   3.407   3.090
 3102SOL    HW210206   5.796   3.426   2.934
 3103SOL     OW10207   1.373   1.042   2.628
 3103SOL    HW110208   1.301   0.976   2.605
 3103SOL    HW210209   1.375   1.113   2.558
 3104SOL     OW10210   5.638   1.219   6.139
 3104SOL    HW110211   5.667   1.315   6.141
 3104SOL    HW210212   5.565   1.205   6.206
 3105SOL     OW10213   5.602   4.294   0.415
 3105SOL    HW110214   5.598   4.347   0.500
 3105SOL    HW210215   5.510   4.268   0.388
 3106SOL     OW10216   5.392   2.227   5.581
 3106SOL    HW110217   5.358   2.133   5.583
 3106SOL    HW210218   5.491   2.227   5.598
 3107SOL     OW10219   4.135   2.097   4.626
 3107SOL    HW110220   4.209   2.045   4.582
 3107SOL    HW210221   4.174   2.171   4.680
 3108SOL     OW10222   2.310   4.604   4.076
 3108SOL    HW110223   2.241   4.673   4.053
 3108SOL    HW210224   2.384   4.608   4.009
 3109SOL     OW10225   0.238   5.360   3.874
 3109SOL    HW110226   0.145   5.368   3.839
 3109SOL    HW210227   0.286   5.446   3.858
 3110SOL     OW10228   1.453   5.942   4.244
 3110SOL    HW110229   1.355   5.935   4.263
 3110SOL    HW210230   1.487   6.031   4.275
 3111SOL     OW10231   6.823   3.914   4.071
 3111SOL    HW110232   6.911   3.929   4.116
 3111SOL    HW210233   6.777   3.836   4.114
 3112SOL     OW10234   4.340   0.498   1.057
 3112SOL    HW110235   4.338   0.450   0.970
 3112SOL    HW210236   4.247   0.502   1.094
 3113SOL     OW10237   1.305   6.891   3.939
 3113SOL    HW110238   1.224   6.833   3.948
 3113SOL    HW210239   1.281   6.974   3.889
 3114SOL     OW10240   4.862   5.418   5.567
 3114SOL    HW110241   4.934   5.466   5.617
 3114SOL    HW210242   4.848   5.328   5.607
 3115SOL     OW10243   4.839   5.417   4.949
 3115SOL    HW110244   4.914   5.358   4.919
 3115SOL    HW210245   4.792   5.454   4.869
 3116SOL     OW10246   0.755   2.657   6.868
 3116SOL    HW110247   0.667   2.691   6.903
 3116SOL    HW210248   0.806   2.615   6.943
 3117SOL     OW10249   4.470   0.101   1.986
 3117SOL    HW110250   4.387   0.048   1.967
 3117SOL    HW210251   4.516   0.122   1.899
 3118SOL     OW10252   0.842   2.350   3.265
 3118SOL    HW110253   0.874   2.435   3.222
 3118SOL    HW210254   0.769   2.371   3.330
 3119SOL     OW10255   4.595   6.420   3.777
 3119SOL    HW110256   4.606   6.501   3.719
 3119SOL    HW210257   4.665   6.420   3.848
 3120SOL     OW10258   3.565   6.019   6.389
 3120SOL    HW110259   3.479   6.045   6.433
 3120SOL    HW210260   3.641   6.032   6.454
 3121SOL     OW10261   3.913   1.835   3.040
 3121SOL    HW110262   3.993   1.869   2.990
 3121SOL    HW210263   3.938   1.821   3.136
 3122SOL     OW10264   5.392   3.374   6.272
 3122SOL    HW110265   5.382   3.279   6.242
 3122SOL    HW210266   5.323   3.430   6.226
 3123SOL     OW10267   1.719   3.041   2.309
 3123SOL    HW110268   1.794   2.989   2.268
 3123SOL    HW210269   1.743   3.138   2.314
 3124SOL     OW10270   4.846   6.788   5.689
 3124SOL    HW110271   4.923   6.785   5.625
 3124SOL    HW210272   4.869   6.734   5.770
 3125SOL     OW10273   1.573   1.782   5.053
 3125SOL    HW110274   1.519   1.703   5.081
 3125SOL    HW210275   1.652   1.752   5.000
 3126SOL     OW10276   4.942   4.328   5.404
 3126SOL    HW110277   4.868   4.273   5.442
 3126SOL    HW210278   5.026   4.273   5.400
 3127SOL     OW10279   6.280   2.045   5.764
 3127SOL    HW110280   6.195   2.091   5.789
 3127SOL    HW210281   6.259   1.963   5.710
 3128SOL     OW10282   4.694   1.684   1.472
 3128SOL    HW110283   4.706   1.613   1.542
 3128SOL    HW210284   4.597   1.705   1.462
 3129SOL     OW10285   4.405   4.854   0.736
 3129SOL    HW110286   4.502   4.841   0.717
 3129SOL    HW210287   4.367   4.770   0.775
 3130SOL     OW10288   6.451   5.598   2.471
 3130SOL    HW110289   6.546   5.629   2.477
 3130SOL    HW210290   6.447   5.513   2.417
 3131SOL     OW10291   0.280   2.825   3.346
 3131SOL    HW110292   0.276   2.734   3.303
 3131SOL    HW210293   0.258   2.816   3.443
 3132SOL     OW10294   4.682   3.846   6.312
 3132SOL    HW110295   4.711   3.760   6.270
 3132SOL    HW210296   4.762   3.893   6.350
 3133SOL     OW10297   5.890   6.398   4.137
 3133SOL    HW110298   5.951   6.414   4.060
 3133SOL    HW210299   5.899   6.304   4.169
 3134SOL     OW10300   4.353   5.186   3.176
 3134SOL    HW110301   4.341   5.241   3.258
 3134SOL    HW210302   4.356   5.089   3.201
 3135SOL     OW10303   3.939   0.827   6.141
 3135SOL    HW110304   3.993   0.899   6.099
 3135SOL    HW210305   4.000   0.751   6.167
 3136SOL     OW10306   6.289   6.440   2.158
 3136SOL    HW110307   6.305   6.494   2.076
 3136SOL    HW210308   6.360   6.370   2.166
 3137SOL     OW10309   5.185   4.426   6.684
 3137SOL    HW110310   5.169   4.330   6.661
 3137SOL    HW210311   5.097   4.472   6.695
 3138SOL     OW10312   0.027   6.612   4.768
 3138SOL    HW110313   0.061   6.558   4.691
 3138SOL    HW210314   6.986   6.556   4.823
 3139SOL     OW10315   1.433   4.818   2.210
 3139SOL    HW110316   1.439   4.833   2.309
 3139SOL    HW210317   1.349   4.859   2.175
 3140SOL     OW10318   5.237   5.535   6.928
 3140SOL    HW110319   5.201   5.455   6.881
 3140SOL    HW210320   5.226   5.523   0.006
 3141SOL     OW10321   5.791   2.055   0.264
 3141SOL    HW110322   5.698   2.018   0.260
 3141SOL    HW210323   5.819   2.087   0.174
 3142SOL     OW10324   4.383   0.669   3.960
 3142SOL    HW110325   4.443   0.749   3.970
 3142SOL    HW210326   4.382   0.617   4.045
 3143SOL     OW10327   6.478   1.673   0.399
 3143SOL    HW110328   6.479   1.573   0.403
 3143SOL    HW210329   6.408   1.708   0.460
 3144SOL     OW10330   3.739   5.041   6.234
 3144SOL    HW110331   3.692   5.002   6.313
 3144SOL    HW210332   3.744   5.141   6.244
 3145SOL     OW10333   0.564   6.222   5.688
 3145SOL    HW110334   0.622   6.296   5.723
 3145SOL    HW210335   0.602   6.134   5.715
 3146SOL     OW10336   7.020   1.752   4.201
 3146SOL    HW110337   6.982   1.791   4.285
 3146SOL    HW210338   0.048   1.823   4.150
 3147SOL     OW10339   4.728   6.862   0.549
 3147SOL    HW110340   4.693   6.918   0.474
 3147SOL    HW210341   4.653   6.834   0.609
 3148SOL     OW10342   5.760   4.957   0.435
 3148SOL    HW110343   5.747   5.002   0.524
 3148SOL    HW210344   5.857   4.935   0.423
 3149SOL     OW10345   4.145   3.094   0.172
 3149SOL    HW110346   4.064   3.036   0.161
 3149SOL    HW210347   4.141   3.170   0.107
 3150SOL     OW10348   0.266   0.412   5.482
 3150SOL    HW110349   0.351   0.395   5.432
 3150SOL    HW210350   0.201   0.338   5.464
 3151SOL     OW10351   6.973   1.847   6.385
 3151SOL    HW110352   7.019   1.841   6.297
 3151SOL    HW210353   0.003   1.909   6.445
 3152SOL     OW10354   2.801   2.024   6.246
 3152SOL    HW110355   2.874   2.082   6.284
 3152SOL    HW210356   2.720   2.080   6.228
 3153SOL     OW10357   5.686   6.046   1.999
 3153SOL    HW110358   5.709   6.134   1.958
 3153SOL    HW210359   5.729   5.972   1.948
 3154SOL     OW10360   3.440   2.122   1.127
 3154SOL    HW110361   3.390   2.205   1.101
 3154SOL    HW210362   3.538   2.142   1.127
 3155SOL     OW10363   0.366   6.179   6.731
 3155SOL    HW110364   0.313   6.105   6.772
 3155SOL    HW210365   0.306   6.235   6.673
 3156SOL     OW10366   3.227   4.062   0.711
 3156SOL    HW110367   3.286   4.086   0.634
 3156SOL    HW210368   3.274   4.082   0.797
 3157SOL     OW10369   1.357   1.318   3.496
 3157SOL    HW110370   1.398   1.265   3.422
 3157SOL    HW210371   1.418   1.393   3.522
 3158SOL     OW10372   2.343   0.326   5.926
 3158SOL    HW110373   2.272   0.260   5.950
 3158SOL    HW210374   2.392   0.354   6.009
 3159SOL     OW10375   4.422   5.754   1.712
 3159SOL    HW110376   4.359   5.695   1.662
 3159SOL    HW210377   4.370   5.818   1.769
 3160SOL     OW10378   2.150   1.117   5.551
 3160SOL    HW110379   2.174   1.059   5.630
 3160SOL    HW210380   2.229   1.123   5.490
 3161SOL     OW10381   1.793   2.608   1.559
 3161SOL    HW110382   1.750   2.554   1.631
 3161SOL    HW210383   1.891   2.619   1.580
 3162SOL     OW10384   1.563   5.662   2.072
 3162SOL    HW110385   1.482   5.719   2.058
 3162SOL    HW210386   1.607   5.689   2.158
 3163SOL     OW10387   5.452   4.430   1.781
 3163SOL    HW110388   5.418   4.337   1.792
 3163SOL    HW210389   5.481   4.465   1.870
 3164SOL     OW10390   2.480   0.279   3.649
 3164SOL    HW110391   2.466   0.185   3.617
 3164SOL    HW210392   2.521   0.278   3.740
 3165SOL     OW10393   0.551   5.656   0.103
 3165SOL    HW110394   0.485   5.600   0.153
 3165SOL    HW210395   0.532   5.753   0.121
 3166SOL     OW10396   3.631   2.108   4.849
 3166SOL    HW110397   3.656   2.065   4.763
 3166SOL    HW210398   3.533   2.096   4.866
 3167SOL     OW10399   6.782   3.173   2.429
 3167SOL    HW110400   6.808   3.110   2.356
 3167SOL    HW210401   6.733   3.123   2.501
 3168SOL     OW10402   5.399   1.591   0.719
 3168SOL    HW110403   5.471   1.634   0.665
 3168SOL    HW210404   5.363   1.656   0.786
 3169SOL     OW10405   0.959   2.636   1.447
 3169SOL    HW110406   0.908   2.722   1.447
 3169SOL    HW210407   0.947   2.590   1.358
 3170SOL     OW10408   2.645   4.667   4.055
 3170SOL    HW110409   2.671   4.631   4.145
 3170SOL    HW210410   2.648   4.767   4.057
 3171SOL     OW10411   5.497   1.623   4.990
 3171SOL    HW110412   5.570   1.686   4.963
 3171SOL    HW210413   5.433   1.671   5.051
 3172SOL     OW10414   5.705   4.125   1.401
 3172SOL    HW110415   5.675   4.199   1.462
 3172SOL    HW210416   5.717   4.161   1.309
 3173SOL     OW10417   4.837   3.821   6.912
 3173SOL    HW110418   4.784   3.810   6.996
 3173SOL    HW210419   4.874   3.914   6.908
 3174SOL     OW10420   2.916   3.121   7.002
 3174SOL    HW110421   2.932   3.100   6.906
 3174SOL    HW210422   2.992   3.086   0.036
 3175SOL     OW10423   6.396   5.989   5.266
 3175SOL    HW110424   6.359   5.983   5.173
 3175SOL    HW210425   6.358   5.916   5.322
 3176SOL     OW10426   0.070   4.852   3.698
 3176SOL    HW110427   0.035   4.944   3.678
 3176SOL    HW210428   0.072   4.838   3.797
 3177SOL     OW10429   5.276   2.569   1.706
 3177SOL    HW110430   5.196   2.513   1.682
 3177SOL    HW210431   5.352   2.544   1.646
 3178SOL     OW10432   1.467   0.752   2.891
 3178SOL    HW110433   1.535   0.818   2.859
 3178SOL    HW210434   1.449   0.685   2.818
 3179SOL     OW10435   0.680   3.696   2.749
 3179SOL    HW110436   0.760   3.670   2.693
 3179SOL    HW210437   0.667   3.629   2.821
 3180SOL     OW10438   5.737   0.118   6.455
 3180SOL    HW110439   5.796   0.198   6.458
 3180SOL    HW210440   5.669   0.124   6.528
 3181SOL     OW10441   0.548   6.351   4.428
 3181SOL    HW110442   0.625   6.414   4.439
 3181SOL    HW210443   0.477   6.375   4.495
 3182SOL     OW10444   1.542   0.076   1.479
 3182SOL    HW110445   1.480   7.019   1.489
 3182SOL    HW210446   1.535   0.134   1.561
 3183SOL     OW10447   4.323   4.175   0.389
 3183SOL    HW110448   4.231   4.213   0.392
 3183SOL    HW210449   4.321   4.082   0.425
 3184SOL     OW10450   6.327   0.712   4.526
 3184SOL    HW110451   6.324   0.630   4.583
 3184SOL    HW210452   6.249   0.771   4.548
 3185SOL     OW10453   1.562   0.291   6.128
 3185SOL    HW110454   1.583   0.197   6.101
 3185SOL    HW210455   1.541   0.293   6.226
 3186SOL     OW10456   0.754   1.991   5.791
 3186SOL    HW110457   0.820   2.063   5.771
 3186SOL    HW210458   0.679   1.996   5.726
 3187SOL     OW10459   4.879   0.556   3.211
 3187SOL    HW110460   4.808   0.554   3.281
 3187SOL    HW210461   4.952   0.618   3.239
 3188SOL     OW10462   1.579   6.159   1.439
 3188SOL    HW110463   1.572   6.247   1.392
 3188SOL    HW210464   1.644   6.167   1.515
 3189SOL     OW10465   2.586   2.001   5.466
 3189SOL    HW110466   2.671   1.993   5.414
 3189SOL    HW210467   2.542   1.912   5.472
 3190SOL     OW10468   6.151   5.992   4.443
 3190SOL    HW110469   6.053   6.009   4.433
 3190SOL    HW210470   6.201   6.079   4.440
 3191SOL     OW10471   4.044   5.052   0.823
 3191SOL    HW110472   4.051   5.149   0.797
 3191SOL    HW210473   4.131   5.022   0.863
 3192SOL     OW10474   5.799   0.863   3.448
 3192SOL    HW110475   5.890   0.896   3.423
 3192SOL    HW210476   5.741   0.941   3.472
 3193SOL     OW10477   3.571   5.695   4.497
 3193SOL    HW110478   3.630   5.647   4.432
 3193SOL    HW210479   3.611   5.784   4.518
 3194SOL     OW10480   2.455   6.342   5.609
 3194SOL    HW110481   2.394   6.265   5.623
 3194SOL    HW210482   2.494   6.370   5.697
 3195SOL     OW10483   0.682   5.714   1.536
 3195SOL    HW110484   0.733   5.784   1.585
 3195SOL    HW210485   0.725   5.625   1.551
 3196SOL     OW10486   5.764   0.214   3.055
 3196SOL    HW110487   5.668   0.209   3.025
 3196SOL    HW210488   5.787   0.308   3.077
 3197SOL     OW10489   3.015   1.182   0.048
 3197SOL    HW110490   2.973   1.226   6.989
 3197SOL    HW210491   3.030   1.085   0.028
 3198SOL     OW10492   5.495   4.216   4.162
 3198SOL    HW110493   5.456   4.198   4.253
 3198SOL    HW210494   5.539   4.133   4.127
 3199SOL     OW10495   4.963   3.675   3.829
 3199SOL    HW110496   4.937   3.748   3.892
 3199SOL    HW210497   4.930   3.697   3.737
 3200SOL     OW10498   6.447   3.134   4.708
 3200SOL    HW110499   6.388   3.180   4.642
 3200SOL    HW210500   6.472   3.043   4.673
 3201SOL     OW10501   6.220   3.468   2.530
 3201SOL    HW110502   6.125   3.439   2.528
 3201SOL    HW210503   6.247   3.490   2.624
 3202SOL     OW10504   2.959   3.108   5.939
 3202SOL    HW110505   2.964   3.033   6.005
 3202SOL    HW210506   2.943   3.070   5.847
 3203SOL     OW10507   3.484   6.442   1.619
 3203SOL    HW110508   3.525   6.434   1.710
 3203SOL    HW210509   3.555   6.464   1.553
 3204SOL     OW10510   4.889   0.846   3.518
 3204SOL    HW110511   4.850   0.893   3.439
 3204SOL    HW210512   4.843   0.875   3.602
 3205SOL     OW10513   4.962   3.026   0.302
 3205SOL    HW110514   4.879   3.078   0.325
 3205SOL    HW210515   5.007   3.069   0.223
 3206SOL     OW10516   3.458   4.948   0.165
 3206SOL    HW110517   3.426   4.952   0.071
 3206SOL    HW210518   3.533   4.882   0.172
 3207SOL     OW10519   2.003   6.571   3.191
 3207SOL    HW110520   1.919   6.556   3.243
 3207SOL    HW210521   2.000   6.519   3.106
 3208SOL     OW10522   0.099   3.758   6.844
 3208SOL    HW110523   0.133   3.819   6.772
 3208SOL    HW210524   0.175   3.720   6.896
 3209SOL     OW10525   5.429   0.225   5.173
 3209SOL    HW110526   5.444   0.313   5.218
 3209SOL    HW210527   5.421   0.239   5.075
 3210SOL     OW10528   5.087   4.830   2.400
 3210SOL    HW110529   5.172   4.856   2.446
 3210SOL    HW210530   5.014   4.891   2.430
 3211SOL     OW10531   2.493   0.072   6.817
 3211SOL    HW110532   2.486   0.069   6.917
 3211SOL    HW210533   2.501   0.167   6.787
 3212SOL     OW10534   3.499   6.840   4.375
 3212SOL    HW110535   3.503   6.749   4.417
 3212SOL    HW210536   3.558   6.842   4.294
 3213SOL     OW10537   1.381   0.208   5.667
 3213SOL    HW110538   1.284   0.222   5.651
 3213SOL    HW210539   1.434   0.267   5.606
 3214SOL     OW10540   2.947   0.500   2.989
 3214SOL    HW110541   3.042   0.476   3.009
 3214SOL    HW210542   2.937   0.515   2.891
 3215SOL     OW10543   2.327   3.225   1.705
 3215SOL    HW110544   2.360   3.314   1.737
 3215SOL    HW210545   2.242   3.202   1.751
 3216SOL     OW10546   6.180   4.105   0.910
 3216SOL    HW110547   6.172   4.010   0.941
 3216SOL    HW210548   6.136   4.165   0.976
 3217SOL     OW10549   6.482   5.774   3.664
 3217SOL    HW110550   6.394   5.730   3.685
 3217SOL    HW210551   6.529   5.723   3.593
 3218SOL     OW10552   5.911   1.322   3.529
 3218SOL    HW110553   5.870   1.410   3.557
 3218SOL    HW210554   5.964   1.336   3.445
 3219SOL     OW10555   4.924   1.959   4.533
 3219SOL    HW110556   4.894   1.993   4.444
 3219SOL    HW210557   4.878   1.873   4.554
 3220SOL     OW10558   0.351   3.248   5.524
 3220SOL    HW110559   0.339   3.247   5.623
 3220SOL    HW210560   0.287   3.314   5.484
 3221SOL     OW10561   4.356   1.883   2.188
 3221SOL    HW110562   4.396   1.926   2.269
 3221SOL    HW210563   4.262   1.914   2.177
 3222SOL     OW10564   3.364   1.100   3.618
 3222SOL    HW110565   3.300   1.028   3.591
 3222SOL    HW210566   3.440   1.059   3.668
 3223SOL     OW10567   1.771   5.508   0.550
 3223SOL    HW110568   1.701   5.528   0.619
 3223SOL    HW210569   1.856   5.484   0.595
 3224SOL     OW10570   4.522   2.502   3.560
 3224SOL    HW110571   4.556   2.580   3.508
 3224SOL    HW210572   4.597   2.459   3.610
 3225SOL     OW10573   4.318   0.901   5.070
 3225SOL    HW110574   4.415   0.922   5.056
 3225SOL    HW210575   4.279   0.866   4.985
 3226SOL     OW10576   5.991   1.051   0.712
 3226SOL    HW110577   5.925   1.000   0.768
 3226SOL    HW210578   6.038   0.987   0.651
 3227SOL     OW10579   5.759   4.130   5.478
 3227SOL    HW110580   5.664   4.103   5.466
 3227SOL    HW210581   5.813   4.050   5.506
 3228SOL     OW10582   1.891   4.351   0.592
 3228SOL    HW110583   1.985   4.334   0.619
 3228SOL    HW210584   1.879   4.448   0.573
 3229SOL     OW10585   0.677   0.894   0.847
 3229SOL    HW110586   0.661   0.941   0.933
 3229SOL    HW210587   0.677   0.960   0.772
 3230SOL     OW10588   3.394   6.571   5.420
 3230SOL    HW110589   3.349   6.539   5.337
 3230SOL    HW210590   3.327   6.587   5.491
 3231SOL     OW10591   2.610   2.158   2.723
 3231SOL    HW110592   2.519   2.121   2.739
 3231SOL    HW210593   2.652   2.112   2.645
 3232SOL     OW10594   3.010   4.797   3.865
 3232SOL    HW110595   3.008   4.697   3.862
 3232SOL    HW210596   2.939   4.834   3.806
 3233SOL     OW10597   2.624   0.378   5.574
 3233SOL    HW110598   2.648   0.314   5.501
 3233SOL    HW210599   2.692   0.373   5.646
 3234SOL     OW10600   3.500   3.519   0.718
 3234SOL    HW110601   3.449   3.577   0.782
 3234SOL    HW210602   3.582   3.568   0.687
 3235SOL     OW10603   0.456   1.803   2.626
 3235SOL    HW110604   0.501   1.891   2.610
 3235SOL    HW210605   0.450   1.786   2.725
 3236SOL     OW10606   5.676   6.796   0.377
 3236SOL    HW110607   5.722   6.854   0.444
 3236SOL    HW210608   5.598   6.750   0.421
 3237SOL     OW10609   6.133   1.658   5.478
 3237SOL    HW110610   6.225   1.631   5.506
 3237SOL    HW210611   6.130   1.672   5.379
 3238SOL     OW10612   6.878   5.106   1.029
 3238SOL    HW110613   6.915   5.087   1.120
 3238SOL    HW210614   6.953   5.103   0.962
 3239SOL     OW10615   6.002   0.974   5.072
 3239SOL    HW110616   5.947   0.926   5.004
 3239SOL    HW210617   6.054   0.908   5.126
 3240SOL     OW10618   0.804   1.796   1.434
 3240SOL    HW110619   0.716   1.842   1.422
 3240SOL    HW210620   0.800   1.738   1.516
 3241SOL     OW10621   0.448   2.946   5.735
 3241SOL    HW110622   0.533   2.948   5.788
 3241SOL    HW210623   0.466   2.910   5.644
 3242SOL     OW10624   0.161   4.963   5.540
 3242SOL    HW110625   0.248   4.996   5.577
 3242SOL    HW210626   0.133   5.022   5.465
 3243SOL     OW10627   5.982   5.402   4.943
 3243SOL    HW110628   5.892   5.411   4.900
 3243SOL    HW210629   6.052   5.398   4.872
 3244SOL     OW10630   4.762   0.599   6.842
 3244SOL    HW110631   4.763   0.505   6.877
 3244SOL    HW210632   4.830   0.608   6.769
 3245SOL     OW10633   2.560   6.208   4.197
 3245SOL    HW110634   2.579   6.280   4.130
 3245SOL    HW210635   2.511   6.133   4.152
 3246SOL     OW10636   6.665   5.528   3.067
 3246SOL    HW110637   6.572   5.536   3.103
 3246SOL    HW210638   6.677   5.595   2.994
 3247SOL     OW10639   2.240   4.518   4.730
 3247SOL    HW110640   2.215   4.558   4.818
 3247SOL    HW210641   2.257   4.420   4.741
 3248SOL     OW10642   6.361   2.348   3.705
 3248SOL    HW110643   6.345   2.379   3.611
 3248SOL    HW210644   6.281   2.371   3.761
 3249SOL     OW10645   4.000   3.951   4.147
 3249SOL    HW110646   3.928   4.014   4.114
 3249SOL    HW210647   4.080   4.004   4.175
 3250SOL     OW10648   4.756   5.402   3.849
 3250SOL    HW110649   4.659   5.378   3.852
 3250SOL    HW210650   4.794   5.372   3.762
 3251SOL     OW10651   2.238   1.997   2.538
 3251SOL    HW110652   2.175   1.920   2.526
 3251SOL    HW210653   2.308   1.994   2.466
 3252SOL     OW10654   1.602   1.541   2.522
 3252SOL    HW110655   1.554   1.568   2.605
 3252SOL    HW210656   1.621   1.443   2.525
 3253SOL     OW10657   6.645   3.359   1.051
 3253SOL    HW110658   6.597   3.271   1.049
 3253SOL    HW210659   6.731   3.348   1.101
 3254SOL     OW10660   6.284   6.860   0.782
 3254SOL    HW110661   6.260   6.875   0.686
 3254SOL    HW210662   6.308   6.947   0.825
 3255SOL     OW10663   3.826   4.854   2.238
 3255SOL    HW110664   3.806   4.889   2.146
 3255SOL    HW210665   3.743   4.820   2.280
 3256SOL     OW10666   5.387   2.917   2.081
 3256SOL    HW110667   5.378   2.962   1.992
 3256SOL    HW210668   5.377   2.818   2.070
 3257SOL     OW10669   2.788   0.976   2.840
 3257SOL    HW110670   2.749   0.927   2.919
 3257SOL    HW210671   2.777   1.074   2.854
 3258SOL     OW10672   0.890   5.139   3.851
 3258SOL    HW110673   0.872   5.213   3.915
 3258SOL    HW210674   0.803   5.107   3.813
 3259SOL     OW10675   6.223   5.145   3.478
 3259SOL    HW110676   6.230   5.088   3.396
 3259SOL    HW210677   6.310   5.140   3.529
 3260SOL     OW10678   2.567   4.603   3.617
 3260SOL    HW110679   2.523   4.667   3.680
 3260SOL    HW210680   2.618   4.534   3.669
 3261SOL     OW10681   6.358   6.866   3.650
 3261SOL    HW110682   6.363   6.870   3.551
 3261SOL    HW210683   6.308   6.946   3.685
 3262SOL     OW10684   3.216   1.813   3.007
 3262SOL    HW110685   3.258   1.904   3.013
 3262SOL    HW210686   3.190   1.783   3.098
 3263SOL     OW10687   5.514   0.009   1.810
 3263SOL    HW110688   5.545   0.067   1.735
 3263SOL    HW210689   5.592   6.978   1.845
 3264SOL     OW10690   1.047   4.862   5.847
 3264SOL    HW110691   0.963   4.912   5.868
 3264SOL    HW210692   1.089   4.829   5.932
 3265SOL     OW10693   0.049   6.247   5.958
 3265SOL    HW110694   0.141   6.285   5.949
 3265SOL    HW210695   7.018   6.267   5.875
 3266SOL     OW10696   4.018   4.686   6.360
 3266SOL    HW110697   3.930   4.688   6.312
 3266SOL    HW210698   4.074   4.611   6.324
 3267SOL     OW10699   2.901   0.239   0.824
 3267SOL    HW110700   2.966   0.207   0.893
 3267SOL    HW210701   2.948   0.301   0.761
 3268SOL     OW10702   5.360   4.193   2.203
 3268SOL    HW110703   5.411   4.111   2.227
 3268SOL    HW210704   5.265   4.183   2.232
 3269SOL     OW10705   2.168   5.420   0.950
 3269SOL    HW110706   2.070   5.406   0.964
 3269SOL    HW210707   2.207   5.338   0.908
 3270SOL     OW10708   1.706   2.830   6.659
 3270SOL    HW110709   1.614   2.843   6.697
 3270SOL    HW210710   1.703   2.843   6.560
 3271SOL     OW10711   0.877   4.075   1.467
 3271SOL    HW110712   0.899   3.978   1.462
 3271SOL    HW210713   0.914   4.113   1.552
 3272SOL     OW10714   3.740   0.259   0.776
 3272SOL    HW110715   3.810   0.190   0.794
 3272SOL    HW210716   3.666   0.218   0.722
 3273SOL     OW10717   4.262   3.625   6.574
 3273SOL    HW110718   4.257   3.535   6.533
 3273SOL    HW210719   4.293   3.691   6.506
 3274SOL     OW10720   4.185   0.277   2.225
 3274SOL    HW110721   4.098   0.281   2.274
 3274SOL    HW210722   4.186   0.195   2.167
 3275SOL     OW10723   5.123   0.545   1.704
 3275SOL    HW110724   5.172   0.473   1.754
 3275SOL    HW210725   5.161   0.634   1.728
 3276SOL     OW10726   5.648   5.625   7.005
 3276SOL    HW110727   5.724   5.561   7.014
 3276SOL    HW210728   5.681   5.711   6.966
 3277SOL     OW10729   3.619   1.200   1.954
 3277SOL    HW110730   3.602   1.240   1.864
 3277SOL    HW210731   3.548   1.230   2.018
 3278SOL     OW10732   5.040   1.541   6.677
 3278SOL    HW110733   5.022   1.453   6.721
 3278SOL    HW210734   4.998   1.541   6.586
 3279SOL     OW10735   4.161   0.519   2.663
 3279SOL    HW110736   4.131   0.436   2.710
 3279SOL    HW210737   4.251   0.546   2.697
 3280SOL     OW10738   6.551   2.906   4.283
 3280SOL    HW110739   6.486   2.909   4.207
 3280SOL    HW210740   6.633   2.958   4.258
 3281SOL     OW10741   5.998   2.752   2.120
 3281SOL    HW110742   6.005   2.851   2.104
 3281SOL    HW210743   5.945   2.711   2.046
 3282SOL     OW10744   6.881   4.562   5.240
 3282SOL    HW110745   6.976   4.556   5.210
 3282SOL    HW210746   6.871   4.517   5.328
 3283SOL     OW10747   3.275   1.359   0.475
 3283SOL    HW110748   3.189   1.383   0.430
 3283SOL    HW210749   3.282   1.408   0.562
 3284SOL     OW10750   1.870   1.042   5.289
 3284SOL    HW110751   1.842   1.136   5.311
 3284SOL    HW210752   1.897   0.995   5.373
 3285SOL     OW10753   3.616   1.844   3.902
 3285SOL    HW110754   3.644   1.905   3.827
 3285SOL    HW210755   3.611   1.750   3.868
 3286SOL     OW10756   1.327   4.024   3.124
 3286SOL    HW110757   1.316   4.083   3.204
 3286SOL    HW210758   1.425   4.013   3.104
 3287SOL     OW10759   2.625   1.324   0.352
 3287SOL    HW110760   2.537   1.343   0.309
 3287SOL    HW210761   2.615   1.248   0.416
 3288SOL     OW10762   3.251   5.092   1.776
 3288SOL    HW110763   3.194   5.019   1.738
 3288SOL    HW210764   3.299   5.058   1.857
 3289SOL     OW10765   4.786   0.338   0.089
 3289SOL    HW110766   4.689   0.362   0.085
 3289SOL    HW210767   4.824   0.342   7.017
 3290SOL     OW10768   0.681   5.029   0.185
 3290SOL    HW110769   0.633   4.950   0.223
 3290SOL    HW210770   0.644   5.113   0.226
 3291SOL     OW10771   5.131   6.407   5.844
 3291SOL    HW110772   5.186   6.377   5.766
 3291SOL    HW210773   5.153   6.502   5.866
 3292SOL     OW10774   0.326   3.430   0.998
 3292SOL    HW110775   0.385   3.380   1.062
 3292SOL    HW210776   0.325   3.527   1.022
 3293SOL     OW10777   6.758   4.247   2.425
 3293SOL    HW110778   6.745   4.332   2.474
 3293SOL    HW210779   6.852   4.243   2.389
 3294SOL     OW10780   3.843   2.966   5.261
 3294SOL    HW110781   3.905   2.890   5.281
 3294SOL    HW210782   3.752   2.929   5.238
 3295SOL     OW10783   1.339   3.161   3.618
 3295SOL    HW110784   1.381   3.106   3.546
 3295SOL    HW210785   1.308   3.248   3.580
 3296SOL     OW10786   2.080   0.689   0.182
 3296SOL    HW110787   2.176   0.667   0.202
 3296SOL    HW210788   2.070   0.788   0.177
 3297SOL     OW10789   3.034   0.700   5.681
 3297SOL    HW110790   2.965   0.691   5.609
 3297SOL    HW210791   3.101   0.769   5.654
 3298SOL     OW10792   3.593   4.188   6.220
 3298SOL    HW110793   3.504   4.159   6.255
 3298SOL    HW210794   3.590   4.192   6.120
 3299SOL     OW10795   2.476   6.996   4.589
 3299SOL    HW110796   2.407   0.044   4.611
 3299SOL    HW210797   2.433   6.905   4.591
 3300SOL     OW10798   1.995   0.965   3.370
 3300SOL    HW110799   1.950   1.044   3.327
 3300SOL    HW210800   1.928   0.892   3.384
 3301SOL     OW10801   1.245   0.961   2.292
 3301SOL    HW110802   1.220   1.032   2.357
 3301SOL    HW210803   1.195   0.877   2.313
 3302SOL     OW10804   1.355   4.493   4.844
 3302SOL    HW110805   1.359   4.409   4.789
 3302SOL    HW210806   1.444   4.509   4.886
 3303SOL     OW10807   4.244   3.698   0.384
 3303SOL    HW110808   4.322   3.667   0.329
 3303SOL    HW210809   4.181   3.622   0.399
 3304SOL     OW10810   2.550   3.883   0.995
 3304SOL    HW110811   2.637   3.888   1.042
 3304SOL    HW210812   2.477   3.863   1.061
 3305SOL     OW10813   3.404   2.638   6.876
 3305SOL    HW110814   3.452   2.722   6.853
 3305SOL    HW210815   3.311   2.641   6.838
 3306SOL     OW10816   2.514   0.708   0.953
 3306SOL    HW110817   2.541   0.672   1.042
 3306SOL    HW210818   2.516   0.635   0.885
 3307SOL     OW10819   2.135   5.446   4.888
 3307SOL    HW110820   2.172   5.479   4.801
 3307SOL    HW210821   2.117   5.348   4.882
 3308SOL     OW10822   4.820   5.433   1.361
 3308SOL    HW110823   4.907   5.436   1.411
 3308SOL    HW210824   4.745   5.456   1.423
 3309SOL     OW10825   6.083   3.764   4.223
 3309SOL    HW110826   6.056   3.708   4.302
 3309SOL    HW210827   6.005   3.775   4.162
 3310SOL     OW10828   6.501   4.388   6.383
 3310SOL    HW110829   6.536   4.450   6.313
 3310SOL    HW210830   6.542   4.412   6.472
 3311SOL     OW10831   2.185   2.604   0.024
 3311SOL    HW110832   2.182   2.660   0.107
 3311SOL    HW210833   2.281   2.592   7.017
 3312SOL     OW10834   5.087   3.556   0.515
 3312SOL    HW110835   5.052   3.642   0.477
 3312SOL    HW210836   5.112   3.495   0.440
 3313SOL     OW10837   1.108   6.939   3.719
 3313SOL    HW110838   1.009   6.930   3.728
 3313SOL    HW210839   1.141   7.006   3.785
 3314SOL     OW10840   3.037   6.287   3.574
 3314SOL    HW110841   3.101   6.361   3.555
 3314SOL    HW210842   3.080   6.199   3.554
 3315SOL     OW10843   1.016   6.520   3.776
 3315SOL    HW110844   1.101   6.525   3.828
 3315SOL    HW210845   1.004   6.604   3.723
 3316SOL     OW10846   3.236   1.599   0.256
 3316SOL    HW110847   3.156   1.541   0.266
 3316SOL    HW210848   3.271   1.624   0.346
 3317SOL     OW10849   5.653   2.276   0.997
 3317SOL    HW110850   5.615   2.355   1.046
 3317SOL    HW210851   5.614   2.272   0.906
 3318SOL     OW10852   3.845   2.546   0.901
 3318SOL    HW110853   3.761   2.535   0.954
 3318SOL    HW210854   3.827   2.608   0.825
 3319SOL     OW10855   6.460   6.472   3.499
 3319SOL    HW110856   6.373   6.507   3.465
 3319SOL    HW210857   6.522   6.458   3.422
 3320SOL     OW10858   6.158   0.577   2.269
 3320SOL    HW110859   6.243   0.629   2.283
 3320SOL    HW210860   6.160   0.494   2.325
 3321SOL     OW10861   4.721   1.769   7.021
 3321SOL    HW110862   4.809   1.742   6.980
 3321SOL    HW210863   4.647   1.727   6.969
 3322SOL     OW10864   5.930   3.546   1.563
 3322SOL    HW110865   5.898   3.519   1.472
 3322SOL    HW210866   6.029   3.551   1.564
 3323SOL     OW10867   1.208   0.691   2.210
 3323SOL    HW110868   1.193   0.688   2.111
 3323SOL    HW210869   1.275   0.762   2.232
 3324SOL     OW10870   6.364   5.487   5.808
 3324SOL    HW110871   6.266   5.468   5.802
 3324SOL    HW210872   6.414   5.402   5.820
 3325SOL     OW10873   2.495   5.323   6.205
 3325SOL    HW110874   2.484   5.274   6.291
 3325SOL    HW210875   2.405   5.342   6.165
 3326SOL     OW10876   4.059   1.766   1.936
 3326SOL    HW110877   4.125   1.714   1.990
 3326SOL    HW210878   3.972   1.716   1.934
 3327SOL     OW10879   1.574   6.291   6.075
 3327SOL    HW110880   1.483   6.264   6.044
 3327SOL    HW210881   1.642   6.229   6.035
 3328SOL     OW10882   4.733   3.006   5.155
 3328SOL    HW110883   4.753   3.104   5.152
 3328SOL    HW210884   4.649   2.991   5.206
 3329SOL     OW10885   6.686   6.453   5.831
 3329SOL    HW110886   6.701   6.481   5.926
 3329SOL    HW210887   6.598   6.488   5.799
 3330SOL     OW10888   6.722   2.665   2.650
 3330SOL    HW110889   6.671   2.675   2.736
 3330SOL    HW210890   6.814   2.631   2.669
 3331SOL     OW10891   1.755   3.040   0.517
 3331SOL    HW110892   1.658   3.056   0.499
 3331SOL    HW210893   1.789   2.967   0.458
 3332SOL     OW10894   0.384   4.093   1.954
 3332SOL    HW110895   0.402   4.123   2.048
 3332SOL    HW210896   0.424   4.003   1.939
 3333SOL     OW10897   3.084   5.723   5.222
 3333SOL    HW110898   3.182   5.742   5.215
 3333SOL    HW210899   3.051   5.684   5.137
 3334SOL     OW10900   1.256   3.257   1.119
 3334SOL    HW110901   1.235   3.270   1.022
 3334SOL    HW210902   1.342   3.207   1.128
 3335SOL     OW10903   5.326   4.331   4.568
 3335SOL    HW110904   5.259   4.258   4.554
 3335SOL    HW210905   5.301   4.410   4.512
 3336SOL     OW10906   3.620   6.484   5.776
 3336SOL    HW110907   3.533   6.487   5.824
 3336SOL    HW210908   3.604   6.461   5.680
 3337SOL     OW10909   3.536   1.756   0.455
 3337SOL    HW110910   3.600   1.696   0.408
 3337SOL    HW210911   3.561   1.763   0.551
 3338SOL     OW10912   6.739   5.288   0.160
 3338SOL    HW110913   6.834   5.261   0.142
 3338SOL    HW210914   6.678   5.237   0.101
 3339SOL     OW10915   0.599   4.598   6.148
 3339SOL    HW110916   0.684   4.632   6.107
 3339SOL    HW210917   0.529   4.669   6.141
 3340SOL     OW10918   4.290   0.203   1.678
 3340SOL    HW110919   4.217   0.271   1.675
 3340SOL    HW210920   4.378   0.248   1.662
 3341SOL     OW10921   0.894   0.197   6.933
 3341SOL    HW110922   0.951   0.177   7.013
 3341SOL    HW210923   0.851   0.286   6.945
 3342SOL     OW10924   2.013   6.744   5.441
 3342SOL    HW110925   1.918   6.738   5.472
 3342SOL    HW210926   2.015   6.738   5.341
 3343SOL     OW10927   0.131   2.350   0.819
 3343SOL    HW110928   0.041   2.390   0.832
 3343SOL    HW210929   0.153   2.291   0.897
 3344SOL     OW10930   1.577   2.630   6.454
 3344SOL    HW110931   1.676   2.635   6.446
 3344SOL    HW210932   1.541   2.563   6.389
 3345SOL     OW10933   2.680   3.253   6.113
 3345SOL    HW110934   2.717   3.272   6.022
 3345SOL    HW210935   2.635   3.163   6.112
 3346SOL     OW10936   2.121   5.559   3.033
 3346SOL    HW110937   2.081   5.649   3.047
 3346SOL    HW210938   2.203   5.550   3.090
 3347SOL     OW10939   6.329   3.876   4.174
 3347SOL    HW110940   6.395   3.857   4.247
 3347SOL    HW210941   6.255   3.809   4.177
 3348SOL     OW10942   3.901   3.796   3.516
 3348SOL    HW110943   3.968   3.771   3.586
 3348SOL    HW210944   3.817   3.744   3.531
 3349SOL     OW10945   4.764   2.527   0.430
 3349SOL    HW110946   4.852   2.551   0.470
 3349SOL    HW210947   4.724   2.607   0.385
 3350SOL     OW10948   2.586   2.895   1.001
 3350SOL    HW110949   2.522   2.967   1.030
 3350SOL    HW210950   2.549   2.806   1.027
 3351SOL     OW10951   6.258   2.643   0.638
 3351SOL    HW110952   6.217   2.703   0.569
 3351SOL    HW210953   6.186   2.590   0.684
 3352SOL     OW10954   0.035   3.507   0.127
 3352SOL    HW110955   6.968   3.515   0.175
 3352SOL    HW210956   0.109   3.497   0.193
 3353SOL     OW10957   1.293   6.656   6.418
 3353SOL    HW110958   1.358   6.725   6.451
 3353SOL    HW210959   1.314   6.634   6.323
 3354SOL     OW10960   0.946   0.202   2.262
 3354SOL    HW110961   0.988   0.156   2.340
 3354SOL    HW210962   0.960   0.301   2.271
 3355SOL     OW10963   6.094   0.882   2.431
 3355SOL    HW110964   6.073   0.802   2.488
 3355SOL    HW210965   6.028   0.886   2.355
 3356SOL     OW10966   1.136   3.847   6.728
 3356SOL    HW110967   1.191   3.764   6.717
 3356SOL    HW210968   1.128   3.869   6.825
 3357SOL     OW10969   2.304   5.642   2.396
 3357SOL    HW110970   2.355   5.559   2.421
 3357SOL    HW210971   2.300   5.703   2.475
 3358SOL     OW10972   6.653   3.928   3.485
 3358SOL    HW110973   6.721   3.977   3.431
 3358SOL    HW210974   6.700   3.867   3.550
 3359SOL     OW10975   2.132   1.206   1.803
 3359SOL    HW110976   2.083   1.290   1.780
 3359SOL    HW210977   2.220   1.230   1.845
 3360SOL     OW10978   2.935   1.217   6.195
 3360SOL    HW110979   2.953   1.257   6.105
 3360SOL    HW210980   3.021   1.210   6.246
 3361SOL     OW10981   2.564   1.493   2.898
 3361SOL    HW110982   2.602   1.468   2.987
 3361SOL    HW210983   2.594   1.586   2.874
 3362SOL     OW10984   2.941   1.989   4.665
 3362SOL    HW110985   2.911   2.025   4.753
 3362SOL    HW210986   2.899   1.900   4.649
 3363SOL     OW10987   6.561   0.774   0.301
 3363SOL    HW110988   6.464   0.761   0.320
 3363SOL    HW210989   6.615   0.750   0.382
 3364SOL     OW10990   1.973   5.580   5.344
 3364SOL    HW110991   1.984   5.484   5.317
 3364SOL    HW210992   1.880   5.595   5.376
 3365SOL     OW10993   6.422   2.486   5.101
 3365SOL    HW110994   6.480   2.405   5.096
 3365SOL    HW210995   6.480   2.567   5.111
 3366SOL     OW10996   5.536   0.481   0.159
 3366SOL    HW110997   5.499   0.561   0.207
 3366SOL    HW210998   5.494   0.398   0.196
 3367SOL     OW10999   2.058   0.025   2.556
 3367SOL    HW111000   2.146   0.012   2.511
 3367SOL    HW211001   1.997   0.077   2.496
 3368SOL     OW11002   6.336   1.168   4.533
 3368SOL    HW111003   6.359   1.189   4.628
 3368SOL    HW211004   6.243   1.130   4.530
 3369SOL     OW11005   3.996   5.091   6.578
 3369SOL    HW111006   3.938   5.170   6.597
 3369SOL    HW211007   4.029   5.053   6.664
 3370SOL     OW11008   6.047   0.617   5.611
 3370SOL    HW111009   6.019   0.698   5.559
 3370SOL    HW211010   6.101   0.646   5.690
 3371SOL     OW11011   6.886   4.755   1.452
 3371SOL    HW111012   6.895   4.768   1.550
 3371SOL    HW211013   6.968   4.710   1.417
 3372SOL     OW11014   1.659   2.650   2.818
 3372SOL    HW111015   1.734   2.647   2.884
 3372SOL    HW211016   1.654   2.742   2.779
 3373SOL     OW11017   0.811   2.879   6.297
 3373SOL    HW111018   0.757   2.927   6.367
 3373SOL    HW211019   0.871   2.812   6.341
 3374SOL     OW11020   3.680   6.279   5.303
 3374SOL    HW111021   3.774   6.306   5.286
 3374SOL    HW211022   3.644   6.331   5.380
 3375SOL     OW11023   3.469   3.822   4.754
 3375SOL    HW111024   3.462   3.905   4.699
 3375SOL    HW211025   3.558   3.819   4.798
 3376SOL     OW11026   3.440   3.133   1.704
 3376SOL    HW111027   3.443   3.074   1.785
 3376SOL    HW211028   3.352   3.180   1.701
 3377SOL     OW11029   3.061   5.486   5.647
 3377SOL    HW111030   2.994   5.481   5.721
 3377SOL    HW211031   3.023   5.539   5.571
 3378SOL     OW11032   6.823   1.169   1.171
 3378SOL    HW111033   6.896   1.129   1.115
 3378SOL    HW211034   6.765   1.226   1.113
 3379SOL     OW11035   6.010   5.334   5.608
 3379SOL    HW111036   6.008   5.418   5.662
 3379SOL    HW211037   5.927   5.330   5.551
 3380SOL     OW11038   0.661   4.046   5.520
 3380SOL    HW111039   0.679   3.970   5.458
 3380SOL    HW211040   0.740   4.108   5.521
 3381SOL     OW11041   3.284   2.289   1.559
 3381SOL    HW111042   3.365   2.274   1.616
 3381SOL    HW211043   3.273   2.212   1.497
 3382SOL     OW11044   0.612   6.559   0.474
 3382SOL    HW111045   0.704   6.540   0.507
 3382SOL    HW211046   0.570   6.631   0.529
 3383SOL     OW11047   0.604   4.111   1.426
 3383SOL    HW111048   0.698   4.094   1.456
 3383SOL    HW211049   0.589   4.209   1.416
 3384SOL     OW11050   3.550   3.714   3.493
 3384SOL    HW111051   3.555   3.782   3.420
 3384SOL    HW211052   3.462   3.668   3.489
 3385SOL     OW11053   6.988   4.190   4.008
 3385SOL    HW111054   6.920   4.192   3.934
 3385SOL    HW211055   6.970   4.111   4.067
 3386SOL     OW11056   6.055   4.244   4.512
 3386SOL    HW111057   5.976   4.279   4.462
 3386SOL    HW211058   6.094   4.167   4.461
 3387SOL     OW11059   3.441   1.661   2.540
 3387SOL    HW111060   3.525   1.654   2.592
 3387SOL    HW211061   3.427   1.577   2.486
 3388SOL     OW11062   5.688   2.057   1.143
 3388SOL    HW111063   5.763   2.079   1.206
 3388SOL    HW211064   5.676   2.132   1.079
 3389SOL     OW11065   3.845   5.881   2.670
 3389SOL    HW111066   3.935   5.915   2.643
 3389SOL    HW211067   3.848   5.781   2.676
 3390SOL     OW11068   4.575   1.395   5.506
 3390SOL    HW111069   4.609   1.470   5.450
 3390SOL    HW211070   4.576   1.423   5.602
 3391SOL     OW11071   3.065   1.961   4.103
 3391SOL    HW111072   3.116   2.042   4.075
 3391SOL    HW211073   2.973   1.988   4.133
 3392SOL     OW11074   5.303   6.462   3.926
 3392SOL    HW111075   5.309   6.404   4.007
 3392SOL    HW211076   5.221   6.518   3.931
 3393SOL     OW11077   0.046   6.942   0.037
 3393SOL    HW111078   0.120   6.904   7.001
 3393SOL    HW211079   6.984   6.888   0.022
 3394SOL     OW11080   5.164   1.179   2.047
 3394SOL    HW111081   5.070   1.148   2.030
 3394SOL    HW211082   5.191   1.243   1.975
 3395SOL     OW11083   1.789   3.979   4.965
 3395SOL    HW111084   1.790   3.981   5.065
 3395SOL    HW211085   1.830   4.063   4.930
 3396SOL     OW11086   6.682   3.743   4.231
 3396SOL    HW111087   6.613   3.684   4.189
 3396SOL    HW211088   6.707   3.707   4.321
 3397SOL     OW11089   3.389   5.522   6.183
 3397SOL    HW111090   3.307   5.487   6.227
 3397SOL    HW211091   3.416   5.460   6.109
 3398SOL     OW11092   0.675   1.409   3.250
 3398SOL    HW111093   0.612   1.476   3.211
 3398SOL    HW211094   0.727   1.366   3.176
 3399SOL     OW11095   4.236   5.893   4.326
 3399SOL    HW111096   4.203   5.939   4.408
 3399SOL    HW211097   4.167   5.826   4.295
 3400SOL     OW11098   5.180   2.308   0.445
 3400SOL    HW111099   5.094   2.346   0.409
 3400SOL    HW211100   5.246   2.382   0.457
 3401SOL     OW11101   6.622   4.108   6.468
 3401SOL    HW111102   6.593   4.203   6.460
 3401SOL    HW211103   6.563   4.059   6.532
 3402SOL     OW11104   4.319   4.546   2.095
 3402SOL    HW111105   4.307   4.504   2.005
 3402SOL    HW211106   4.396   4.503   2.142
 3403SOL     OW11107   4.151   1.607   6.167
 3403SOL    HW111108   4.110   1.521   6.197
 3403SOL    HW211109   4.084   1.661   6.117
 3404SOL     OW11110   4.662   5.905   1.778
 3404SOL    HW111111   4.664   6.004   1.766
 3404SOL    HW211112   4.576   5.869   1.744
 3405SOL     OW11113   6.284   4.332   6.799
 3405SOL    HW111114   6.272   4.417   6.850
 3405SOL    HW211115   6.205   4.273   6.813
 3406SOL     OW11116   1.517   3.841   1.334
 3406SOL    HW111117   1.578   3.815   1.259
 3406SOL    HW211118   1.440   3.894   1.298
 3407SOL     OW11119   1.385   5.327   2.808
 3407SOL    HW111120   1.341   5.342   2.896
 3407SOL    HW211121   1.316   5.301   2.740
 3408SOL     OW11122   5.483   3.698   2.853
 3408SOL    HW111123   5.506   3.794   2.837
 3408SOL    HW211124   5.386   3.691   2.878
 3409SOL     OW11125   2.634   1.155   6.223
 3409SOL    HW111126   2.731   1.170   6.202
 3409SOL    HW211127   2.606   1.215   6.297
 3410SOL     OW11128   0.116   2.319   0.186
 3410SOL    HW111129   0.081   2.295   0.276
 3410SOL    HW211130   0.188   2.254   0.160
 3411SOL     OW11131   4.909   2.174   2.387
 3411SOL    HW111132   4.848   2.236   2.436
 3411SOL    HW211133   4.941   2.217   2.303
 3412SOL     OW11134   4.675   5.348   6.836
 3412SOL    HW111135   4.613   5.270   6.851
 3412SOL    HW211136   4.627   5.433   6.855
 3413SOL     OW11137   5.343   1.213   2.408
 3413SOL    HW111138   5.372   1.181   2.499
 3413SOL    HW211139   5.307   1.136   2.356
 3414SOL     OW11140   3.958   0.608   5.503
 3414SOL    HW111141   3.953   0.516   5.543
 3414SOL    HW211142   4.034   0.613   5.438
 3415SOL     OW11143   1.465   5.625   5.319
 3415SOL    HW111144   1.410   5.672   5.388
 3415SOL    HW211145   1.407   5.563   5.266
 3416SOL     OW11146   2.165   4.256   5.415
 3416SOL    HW111147   2.203   4.332   5.468
 3416SOL    HW211148   2.215   4.247   5.329
 3417SOL     OW11149   5.134   0.659   1.436
 3417SOL    HW111150   5.059   0.653   1.370
 3417SOL    HW211151   5.111   0.605   1.517
 3418SOL     OW11152   3.014   2.520   5.998
 3418SOL    HW111153   3.036   2.435   5.949
 3418SOL    HW211154   3.019   2.597   5.934
 3419SOL     OW11155   4.785   3.380   6.529
 3419SOL    HW111156   4.872   3.344   6.494
 3419SOL    HW211157   4.713   3.368   6.460
 3420SOL     OW11158   3.497   1.106   4.624
 3420SOL    HW111159   3.409   1.151   4.609
 3420SOL    HW211160   3.564   1.174   4.655
 3421SOL     OW11161   0.281   6.410   2.689
 3421SOL    HW111162   0.193   6.367   2.672
 3421SOL    HW211163   0.314   6.386   2.780
 3422SOL     OW11164   3.231   1.956   2.732
 3422SOL    HW111165   3.328   1.973   2.751
 3422SOL    HW211166   3.194   1.896   2.803
 3423SOL     OW11167   3.579   0.793   1.684
 3423SOL    HW111168   3.664   0.823   1.726
 3423SOL    HW211169   3.517   0.871   1.675
 3424SOL     OW11170   4.879   1.813   1.590
 3424SOL    HW111171   4.921   1.883   1.532
 3424SOL    HW211172   4.824   1.752   1.533
 3425SOL     OW11173   4.215   3.911   1.612
 3425SOL    HW111174   4.312   3.900   1.636
 3425SOL    HW211175   4.159   3.867   1.682
 3426SOL     OW11176   4.959   3.731   1.016
 3426SOL    HW111177   4.958   3.632   1.027
 3426SOL    HW211178   4.905   3.756   0.935
 3427SOL     OW11179   0.953   1.566   0.549
 3427SOL    HW111180   1.044   1.569   0.591
 3427SOL    HW211181   0.889   1.617   0.606
 3428SOL     OW11182   4.377   4.918   3.235
 3428SOL    HW111183   4.332   4.930   3.324
 3428SOL    HW211184   4.343   4.835   3.192
 3429SOL     OW11185   0.540   3.091   0.867
 3429SOL    HW111186   0.567   3.090   0.964
 3429SOL    HW211187   0.441   3.093   0.860
 3430SOL     OW11188   0.962   5.317   6.634
 3430SOL    HW111189   0.914   5.401   6.658
 3430SOL    HW211190   0.897   5.242   6.624
 3431SOL     OW11191   1.764   6.074   6.642
 3431SOL    HW111192   1.750   6.173   6.642
 3431SOL    HW211193   1.848   6.053   6.692
 3432SOL     OW11194   3.810   1.939   6.494
 3432SOL    HW111195   3.793   1.954   6.397
 3432SOL    HW211196   3.767   1.853   6.523
 3433SOL     OW11197   4.557   0.882   3.990
 3433SOL    HW111198   4.523   0.975   3.974
 3433SOL    HW211199   4.620   0.882   4.068
 3434SOL     OW11200   4.151   1.639   3.444
 3434SOL    HW111201   4.093   1.623   3.364
 3434SOL    HW211202   4.128   1.573   3.516
 3435SOL     OW11203   0.900   1.217   0.051
 3435SOL    HW111204   0.848   1.302   0.042
 3435SOL    HW211205   0.962   1.208   6.993
 3436SOL     OW11206   4.232   6.828   2.152
 3436SOL    HW111207   4.315   6.802   2.103
 3436SOL    HW211208   4.198   6.915   2.115
 3437SOL     OW11209   4.301   0.572   0.257
 3437SOL    HW111210   4.203   0.584   0.274
 3437SOL    HW211211   4.339   0.656   0.219
 3438SOL     OW11212   0.783   5.541   6.261
 3438SOL    HW111213   0.843   5.487   6.321
 3438SOL    HW211214   0.791   5.508   6.167
 3439SOL     OW11215   2.246   0.651   4.017
 3439SOL    HW111216   2.254   0.600   4.103
 3439SOL    HW211217   2.180   0.606   3.957
 3440SOL     OW11218   3.319   1.899   0.264
 3440SOL    HW111219   3.375   1.826   0.226
 3440SOL    HW211220   3.223   1.884   0.242
 3441SOL     OW11221   4.950   0.205   4.215
 3441SOL    HW111222   5.046   0.192   4.240
 3441SOL    HW211223   4.944   0.262   4.133
 3442SOL     OW11224   1.022   4.906   2.935
 3442SOL    HW111225   1.057   4.948   2.851
 3442SOL    HW211226   0.939   4.955   2.964
 3443SOL     OW11227   5.771   6.384   4.435
 3443SOL    HW111228   5.835   6.320   4.478
 3443SOL    HW211229   5.822   6.462   4.397
 3444SOL     OW11230   3.989   5.379   0.088
 3444SOL    HW111231   3.962   5.283   0.092
 3444SOL    HW211232   3.954   5.428   0.168
 3445SOL     OW11233   5.662   5.084   5.323
 3445SOL    HW111234   5.619   5.124   5.243
 3445SOL    HW211235   5.713   5.002   5.296
 3446SOL     OW11236   2.328   6.551   1.939
 3446SOL    HW111237   2.334   6.485   1.864
 3446SOL    HW211238   2.415   6.554   1.988
 3447SOL     OW11239   6.294   4.577   5.474
 3447SOL    HW111240   6.246   4.519   5.539
 3447SOL    HW211241   6.300   4.670   5.510
 3448SOL     OW11242   4.155   3.359   0.820
 3448SOL    HW111243   4.128   3.341   0.914
 3448SOL    HW211244   4.107   3.296   0.759
 3449SOL     OW11245   6.587   6.264   2.987
 3449SOL    HW111246   6.511   6.328   2.995
 3449SOL    HW211247   6.660   6.290   3.051
 3450SOL     OW11248   0.943   1.950   1.234
 3450SOL    HW111249   0.949   1.894   1.316
 3450SOL    HW211250   0.849   1.982   1.222
 3451SOL     OW11251   1.724   4.888   4.682
 3451SOL    HW111252   1.694   4.979   4.654
 3451SOL    HW211253   1.730   4.829   4.602
 3452SOL     OW11254   6.867   1.764   0.716
 3452SOL    HW111255   6.920   1.692   0.760
 3452SOL    HW211256   6.866   1.845   0.773
 3453SOL     OW11257   5.785   5.969   5.478
 3453SOL    HW111258   5.806   5.872   5.473
 3453SOL    HW211259   5.784   6.009   5.386
 3454SOL     OW11260   0.316   1.228   0.605
 3454SOL    HW111261   0.386   1.277   0.553
 3454SOL    HW211262   0.358   1.183   0.684
 3455SOL     OW11263   1.442   3.037   3.393
 3455SOL    HW111264   1.436   2.937   3.387
 3455SOL    HW211265   1.528   3.068   3.351
 3456SOL     OW11266   6.653   0.259   0.393
 3456SOL    HW111267   6.560   0.249   0.428
 3456SOL    HW211268   6.693   0.169   0.376
 3457SOL     OW11269   2.070   6.705   3.593
 3457SOL    HW111270   1.998   6.683   3.660
 3457SOL    HW211271   2.029   6.748   3.513
 3458SOL     OW11272   5.328   5.031   0.388
 3458SOL    HW111273   5.349   4.936   0.413
 3458SOL    HW211274   5.239   5.056   0.426
 3459SOL     OW11275   6.110   0.152   3.438
 3459SOL    HW111276   6.166   0.201   3.371
 3459SOL    HW211277   6.018   0.139   3.402
 3460SOL     OW11278   4.029   2.579   0.117
 3460SOL    HW111279   4.045   2.511   0.189
 3460SOL    HW211280   3.962   2.542   0.052
 3461SOL     OW11281   2.654   6.279   2.990
 3461SOL    HW111282   2.673   6.214   2.916
 3461SOL    HW211283   2.739   6.326   3.015
 3462SOL     OW11284   4.975   2.519   2.815
 3462SOL    HW111285   4.990   2.608   2.858
 3462SOL    HW211286   4.907   2.527   2.742
 3463SOL     OW11287   1.204   3.286   0.863
 3463SOL    HW111288   1.249   3.303   0.775
 3463SOL    HW211289   1.137   3.358   0.881
 3464SOL     OW11290   5.270   1.555   5.770
 3464SOL    HW111291   5.188   1.612   5.775
 3464SOL    HW211292   5.349   1.612   5.747
 3465SOL     OW11293   1.779   4.747   1.525
 3465SOL    HW111294   1.786   4.845   1.504
 3465SOL    HW211295   1.849   4.723   1.593
 3466SOL     OW11296   6.500   3.891   4.434
 3466SOL    HW111297   6.465   3.985   4.436
 3466SOL    HW211298   6.579   3.884   4.494
 3467SOL     OW11299   3.776   3.109   0.662
 3467SOL    HW111300   3.784   3.035   0.729
 3467SOL    HW211301   3.709   3.175   0.693
 3468SOL     OW11302   4.164   1.299   1.180
 3468SOL    HW111303   4.070   1.329   1.162
 3468SOL    HW211304   4.186   1.316   1.277
 3469SOL     OW11305   3.780   5.462   4.972
 3469SOL    HW111306   3.778   5.454   5.072
 3469SOL    HW211307   3.848   5.531   4.946
 3470SOL     OW11308   1.277   2.590   1.932
 3470SOL    HW111309   1.235   2.529   1.999
 3470SOL    HW211310   1.235   2.575   1.842
 3471SOL     OW11311   5.095   2.871   4.857
 3471SOL    HW111312   5.045   2.947   4.899
 3471SOL    HW211313   5.046   2.838   4.777
 3472SOL     OW11314   4.922   1.884   2.493
 3472SOL    HW111315   4.928   1.961   2.430
 3472SOL    HW211316   5.013   1.847   2.509
 3473SOL     OW11317   6.135   4.753   1.768
 3473SOL    HW111318   6.148   4.832   1.708
 3473SOL    HW211319   6.108   4.673   1.714
 3474SOL     OW11320   4.556   4.420   3.551
 3474SOL    HW111321   4.577   4.494   3.615
 3474SOL    HW211322   4.540   4.335   3.601
 3475SOL     OW11323   0.280   3.927   4.060
 3475SOL    HW111324   0.342   3.993   4.017
 3475SOL    HW211325   0.309   3.911   4.154
 3476SOL     OW11326   1.764   1.734   3.059
 3476SOL    HW111327   1.839   1.795   3.033
 3476SOL    HW211328   1.759   1.658   2.995
 3477SOL     OW11329   0.773   4.311   1.718
 3477SOL    HW111330   0.720   4.262   1.787
 3477SOL    HW211331   0.864   4.270   1.711
 3478SOL     OW11332   2.545   0.540   1.203
 3478SOL    HW111333   2.535   0.442   1.221
 3478SOL    HW211334   2.511   0.592   1.282
 3479SOL     OW11335   0.823   4.186   5.150
 3479SOL    HW111336   0.903   4.210   5.095
 3479SOL    HW211337   0.848   4.181   5.246
 3480SOL     OW11338   1.211   4.778   6.291
 3480SOL    HW111339   1.187   4.763   6.195
 3480SOL    HW211340   1.234   4.690   6.333
 3481SOL     OW11341   5.897   0.555   4.776
 3481SOL    HW111342   5.982   0.504   4.789
 3481SOL    HW211343   5.913   0.652   4.793
 3482SOL     OW11344   6.045   3.191   6.854
 3482SOL    HW111345   6.059   3.164   6.759
 3482SOL    HW211346   5.962   3.147   6.889
 3483SOL     OW11347   5.091   2.503   5.301
 3483SOL    HW111348   5.014   2.563   5.279
 3483SOL    HW211349   5.170   2.559   5.325
 3484SOL     OW11350   1.290   2.993   4.690
 3484SOL    HW111351   1.263   2.900   4.715
 3484SOL    HW211352   1.239   3.059   4.745
 3485SOL     OW11353   6.901   3.266   6.981
 3485SOL    HW111354   6.911   3.210   0.042
 3485SOL    HW211355   6.895   3.362   7.007
 3486SOL     OW11356   2.029   6.750   5.148
 3486SOL    HW111357   1.965   6.690   5.099
 3486SOL    HW211358   2.003   6.846   5.132
 3487SOL     OW11359   4.128   1.795   6.982
 3487SOL    HW111360   4.116   1.893   6.994
 3487SOL    HW211361   4.066   1.763   6.910
 3488SOL     OW11362   5.383   6.554   4.885
 3488SOL    HW111363   5.438   6.589   4.809
 3488SOL    HW211364   5.329   6.628   4.924
 3489SOL     OW11365   3.404   6.166   0.602
 3489SOL    HW111366   3.365   6.247   0.644
 3489SOL    HW211367   3.503   6.165   0.616
 3490SOL     OW11368   3.607   6.316   0.746
 3490SOL    HW111369   3.543   6.307   0.823
 3490SOL    HW211370   3.642   6.409   0.742
 3491SOL     OW11371   4.486   4.640   5.988
 3491SOL    HW111372   4.531   4.579   6.053
 3491SOL    HW211373   4.431   4.587   5.924
 3492SOL     OW11374   5.986   4.184   3.601
 3492SOL    HW111375   5.958   4.264   3.653
 3492SOL    HW211376   6.074   4.150   3.635
 3493SOL     OW11377   6.926   3.434   5.793
 3493SOL    HW111378   6.833   3.454   5.761
 3493SOL    HW211379   6.932   3.454   5.891
 3494SOL     OW11380   3.637   1.544   2.021
 3494SOL    HW111381   3.558   1.546   1.959
 3494SOL    HW211382   3.719   1.522   1.968
 3495SOL     OW11383   1.661   4.033   3.758
 3495SOL    HW111384   1.565   4.041   3.785
 3495SOL    HW211385   1.719   4.032   3.839
 3496SOL     OW11386   6.355   5.249   0.913
 3496SOL    HW111387   6.337   5.151   0.917
 3496SOL    HW211388   6.394   5.279   1.000
 3497SOL     OW11389   3.331   0.261   1.761
 3497SOL    HW111390   3.286   0.173   1.776
 3497SOL    HW211391   3.424   0.258   1.798
 3498SOL     OW11392   2.738   2.645   1.582
 3498SOL    HW111393   2.768   2.554   1.610
 3498SOL    HW211394   2.651   2.666   1.627
 3499SOL     OW11395   5.792   6.075   4.700
 3499SOL    HW111396   5.822   5.999   4.758
 3499SOL    HW211397   5.703   6.107   4.731
 3500SOL     OW11398   3.140   2.201   3.968
 3500SOL    HW111399   3.200   2.244   3.900
 3500SOL    HW211400   3.176   2.218   4.060
 3501SOL     OW11401   1.337   6.639   6.119
 3501SOL    HW111402   1.409   6.687   6.068
 3501SOL    HW211403   1.252   6.691   6.112
 3502SOL     OW11404   4.794   2.291   1.730
 3502SOL    HW111405   4.787   2.245   1.642
 3502SOL    HW211406   4.706   2.286   1.777
 3503SOL     OW11407   0.930   5.872   6.256
 3503SOL    HW111408   0.878   5.883   6.171
 3503SOL    HW211409   1.015   5.823   6.236
 3504SOL     OW11410   1.742   0.916   6.991
 3504SOL    HW111411   1.797   0.937   0.051
 3504SOL    HW211412   1.681   0.840   7.011
 3505SOL     OW11413   4.694   2.991   5.524
 3505SOL    HW111414   4.701   2.895   5.548
 3505SOL    HW211415   4.731   3.047   5.598
 3506SOL     OW11416   4.261   4.801   5.042
 3506SOL    HW111417   4.162   4.792   5.052
 3506SOL    HW211418   4.302   4.712   5.024
 3507SOL     OW11419   3.316   1.184   0.744
 3507SOL    HW111420   3.239   1.177   0.681
 3507SOL    HW211421   3.290   1.148   0.834
 3508SOL     OW11422   3.604   1.420   5.977
 3508SOL    HW111423   3.675   1.439   6.045
 3508SOL    HW211424   3.547   1.501   5.964
 3509SOL     OW11425   4.205   5.499   6.751
 3509SOL    HW111426   4.126   5.549   6.715
 3509SOL    HW211427   4.213   5.517   6.850
 3510SOL     OW11428   2.339   1.442   1.634
 3510SOL    HW111429   2.400   1.399   1.568
 3510SOL    HW211430   2.244   1.431   1.604
 3511SOL     OW11431   2.680   4.654   1.720
 3511SOL    HW111432   2.666   4.555   1.717
 3511SOL    HW211433   2.722   4.678   1.808
 3512SOL     OW11434   0.073   5.491   6.325
 3512SOL    HW111435   0.060   5.583   6.288
 3512SOL    HW211436   7.019   5.432   6.296
 3513SOL     OW11437   5.876   1.809   0.664
 3513SOL    HW111438   5.910   1.850   0.579
 3513SOL    HW211439   5.873   1.879   0.735
 3514SOL     OW11440   2.976   1.596   1.815
 3514SOL    HW111441   2.984   1.677   1.756
 3514SOL    HW211442   2.992   1.622   1.910
 3515SOL     OW11443   0.443   4.844   4.789
 3515SOL    HW111444   0.453   4.791   4.873
 3515SOL    HW211445   0.514   4.915   4.786
 3516SOL     OW11446   4.789   0.602   1.565
 3516SOL    HW111447   4.797   0.541   1.644
 3516SOL    HW211448   4.780   0.696   1.597
 3517SOL     OW11449   4.831   0.892   1.608
 3517SOL    HW111450   4.744   0.866   1.565
 3517SOL    HW211451   4.813   0.957   1.682
 3518SOL     OW11452   5.700   0.979   5.019
 3518SOL    HW111453   5.659   1.059   5.064
 3518SOL    HW211454   5.748   1.009   4.937
 3519SOL     OW11455   3.418   1.388   1.052
 3519SOL    HW111456   3.430   1.476   1.007
 3519SOL    HW211457   3.332   1.389   1.103
 3520SOL     OW11458   2.805   6.058   4.183
 3520SOL    HW111459   2.746   6.133   4.155
 3520SOL    HW211460   2.877   6.093   4.244
 3521SOL     OW11461   2.668   2.816   6.285
 3521SOL    HW111462   2.628   2.737   6.240
 3521SOL    HW211463   2.767   2.803   6.295
 3522SOL     OW11464   1.078   6.336   6.641
 3522SOL    HW111465   1.169   6.364   6.672
 3522SOL    HW211466   1.084   6.247   6.596
 3523SOL     OW11467   3.386   5.754   0.102
 3523SOL    HW111468   3.423   5.816   0.172
 3523SOL    HW211469   3.456   5.737   0.033
 3524SOL     OW11470   4.541   1.079   3.703
 3524SOL    HW111471   4.509   1.101   3.795
 3524SOL    HW211472   4.631   1.036   3.708
 3525SOL     OW11473   0.125   3.053   3.324
 3525SOL    HW111474   0.162   3.125   3.266
 3525SOL    HW211475   0.176   2.968   3.308
 3526SOL     OW11476   0.523   6.835   2.219
 3526SOL    HW111477   0.461   6.819   2.295
 3526SOL    HW211478   0.526   6.754   2.160
 3527SOL     OW11479   6.834   2.845   6.639
 3527SOL    HW111480   6.793   2.775   6.697
 3527SOL    HW211481   6.799   2.935   6.665
 3528SOL     OW11482   2.082   5.153   4.939
 3528SOL    HW111483   2.173   5.148   4.897
 3528SOL    HW211484   2.072   5.078   5.004
 3529SOL     OW11485   4.663   4.751   0.719
 3529SOL    HW111486   4.618   4.668   0.752
 3529SOL    HW211487   4.750   4.728   0.677
 3530SOL     OW11488   6.655   6.889   0.690
 3530SOL    HW111489   6.605   6.878   0.604
 3530SOL    HW211490   6.591   6.882   0.767
 3531SOL     OW11491   4.435   2.097   0.529
 3531SOL    HW111492   4.377   2.029   0.484
 3531SOL    HW211493   4.529   2.087   0.497
 3532SOL     OW11494   2.388   0.638   1.424
 3532SOL    HW111495   2.437   0.700   1.484
 3532SOL    HW211496   2.307   0.684   1.387
 3533SOL     OW11497   1.530   2.543   3.082
 3533SOL    HW111498   1.472   2.608   3.133
 3533SOL    HW211499   1.549   2.464   3.140
 3534SOL     OW11500   0.430   1.087   0.812
 3534SOL    HW111501   0.437   1.159   0.881
 3534SOL    HW211502   0.514   1.085   0.757
 3535SOL     OW11503   3.246   6.636   3.776
 3535SOL    HW111504   3.279   6.568   3.711
 3535SOL    HW211505   3.151   6.616   3.801
 3536SOL     OW11506   3.914   1.810   3.311
 3536SOL    HW111507   3.820   1.779   3.297
 3536SOL    HW211508   3.922   1.852   3.402
 3537SOL     OW11509   1.843   0.070   3.300
 3537SOL    HW111510   1.768   0.110   3.353
 3537SOL    HW211511   1.815   7.000   3.267
 3538SOL     OW11512   3.051   5.282   1.826
 3538SOL    HW111513   3.007   5.279   1.917
 3538SOL    HW211514   3.108   5.201   1.814
 3539SOL     OW11515   3.298   3.800   4.397
 3539SOL    HW111516   3.271   3.799   4.493
 3539SOL    HW211517   3.249   3.728   4.348
 3540SOL     OW11518   1.558   2.320   3.500
 3540SOL    HW111519   1.552   2.231   3.545
 3540SOL    HW211520   1.589   2.308   3.406
 3541SOL     OW11521   4.104   3.544   4.655
 3541SOL    HW111522   4.019   3.495   4.674
 3541SOL    HW211523   4.165   3.537   4.734
 3542SOL     OW11524   6.591   5.333   1.136
 3542SOL    HW111525   6.575   5.419   1.184
 3542SOL    HW211526   6.672   5.341   1.078
 3543SOL     OW11527   5.387   2.530   4.401
 3543SOL    HW111528   5.330   2.524   4.320
 3543SOL    HW211529   5.449   2.608   4.393
 3544SOL     OW11530   2.711   6.759   0.056
 3544SOL    HW111531   2.650   6.680   0.060
 3544SOL    HW211532   2.793   6.736   0.006
 3545SOL     OW11533   3.274   5.380   0.637
 3545SOL    HW111534   3.193   5.331   0.607
 3545SOL    HW211535   3.325   5.325   0.703
 3546SOL     OW11536   0.892   4.557   2.507
 3546SOL    HW111537   0.936   4.637   2.550
 3546SOL    HW211538   0.885   4.573   2.408
 3547SOL     OW11539   5.306   4.772   4.557
 3547SOL    HW111540   5.267   4.862   4.537
 3547SOL    HW211541   5.283   4.747   4.651
 3548SOL     OW11542   4.707   3.408   5.846
 3548SOL    HW111543   4.615   3.377   5.872
 3548SOL    HW211544   4.707   3.433   5.749
 3549SOL     OW11545   4.858   3.541   2.384
 3549SOL    HW111546   4.853   3.502   2.292
 3549SOL    HW211547   4.877   3.468   2.450
 3550SOL     OW11548   4.768   1.781   3.599
 3550SOL    HW111549   4.802   1.828   3.517
 3550SOL    HW211550   4.676   1.816   3.621
 3551SOL     OW11551   1.851   6.490   2.417
 3551SOL    HW111552   1.916   6.436   2.364
 3551SOL    HW211553   1.818   6.437   2.494
 3552SOL     OW11554   6.487   4.190   2.802
 3552SOL    HW111555   6.403   4.240   2.783
 3552SOL    HW211556   6.565   4.253   2.798
 3553SOL     OW11557   6.257   1.677   3.262
 3553SOL    HW111558   6.270   1.591   3.214
 3553SOL    HW211559   6.227   1.659   3.356
 3554SOL     OW11560   4.399   5.672   0.023
 3554SOL    HW111561   4.381   5.574   0.027
 3554SOL    HW211562   4.427   5.705   0.113
 3555SOL     OW11563   1.086   2.368   3.922
 3555SOL    HW111564   1.034   2.428   3.984
 3555SOL    HW211565   1.092   2.276   3.962
 3556SOL     OW11566   4.355   1.679   6.518
 3556SOL    HW111567   4.359   1.734   6.435
 3556SOL    HW211568   4.411   1.597   6.506
 3557SOL     OW11569   0.774   0.179   4.098
 3557SOL    HW111570   0.694   0.214   4.050
 3557SOL    HW211571   0.763   0.081   4.115
 3558SOL     OW11572   0.526   6.666   1.202
 3558SOL    HW111573   0.587   6.590   1.178
 3558SOL    HW211574   0.565   6.716   1.279
 3559SOL     OW11575   1.077   0.442   5.920
 3559SOL    HW111576   1.044   0.519   5.865
 3559SOL    HW211577   1.077   0.468   6.017
 3560SOL     OW11578   0.001   0.097   1.828
 3560SOL    HW111579   0.079   0.145   1.869
 3560SOL    HW211580   7.020   0.003   1.861
 3561SOL     OW11581   5.698   4.658   3.899
 3561SOL    HW111582   5.673   4.629   3.807
 3561SOL    HW211583   5.647   4.741   3.923
 3562SOL     OW11584   4.021   2.188   2.367
 3562SOL    HW111585   4.049   2.251   2.295
 3562SOL    HW211586   3.937   2.141   2.340
 3563SOL     OW11587   4.462   6.341   1.644
 3563SOL    HW111588   4.477   6.307   1.551
 3563SOL    HW211589   4.366   6.366   1.655
 3564SOL     OW11590   6.396   4.278   2.534
 3564SOL    HW111591   6.492   4.295   2.512
 3564SOL    HW211592   6.372   4.184   2.508
 3565SOL     OW11593   1.138   0.921   5.585
 3565SOL    HW111594   1.225   0.916   5.535
 3565SOL    HW211595   1.064   0.886   5.527
 3566SOL     OW11596   1.094   4.359   5.491
 3566SOL    HW111597   1.086   4.394   5.398
 3566SOL    HW211598   1.178   4.395   5.532
 3567SOL     OW11599   0.053   2.330   1.530
 3567SOL    HW111600   0.059   2.234   1.504
 3567SOL    HW211601   7.015   2.340   1.610
 3568SOL     OW11602   4.769   4.326   3.387
 3568SOL    HW111603   4.842   4.357   3.447
 3568SOL    HW211604   4.683   4.368   3.414
 3569SOL     OW11605   4.089   3.276   3.737
 3569SOL    HW111606   4.145   3.337   3.793
 3569SOL    HW211607   3.992   3.298   3.751
 3570SOL     OW11608   0.311   2.261   5.337
 3570SOL    HW111609   0.367   2.314   5.400
 3570SOL    HW211610   0.219   2.250   5.374
 3571SOL     OW11611   2.995   0.324   4.627
 3571SOL    HW111612   2.924   0.261   4.658
 3571SOL    HW211613   2.988   0.335   4.528
 3572SOL     OW11614   5.009   4.322   2.559
 3572SOL    HW111615   5.092   4.354   2.513
 3572SOL    HW211616   4.931   4.331   2.498
 3573SOL     OW11617   0.322   5.008   4.080
 3573SOL    HW111618   0.371   4.930   4.119
 3573SOL    HW211619   0.321   5.001   3.981
 3574SOL     OW11620   1.804   1.733   6.043
 3574SOL    HW111621   1.706   1.754   6.037
 3574SOL    HW211622   1.817   1.654   6.102
 3575SOL     OW11623   4.985   0.750   6.142
 3575SOL    HW111624   4.987   0.741   6.043
 3575SOL    HW211625   4.897   0.718   6.177
 3576SOL     OW11626   1.033   2.757   0.700
 3576SOL    HW111627   1.052   2.853   0.721
 3576SOL    HW211628   0.937   2.747   0.676
 3577SOL     OW11629   1.769   3.280   4.660
 3577SOL    HW111630   1.745   3.264   4.756
 3577SOL    HW211631   1.727   3.210   4.603
 3578SOL     OW11632   4.266   2.575   0.314
 3578SOL    HW111633   4.273   2.498   0.377
 3578SOL    HW211634   4.174   2.614   0.319
 3579SOL     OW11635   1.127   3.596   2.003
 3579SOL    HW111636   1.200   3.662   1.989
 3579SOL    HW211637   1.082   3.576   1.916
 3580SOL     OW11638   0.118   4.057   1.797
 3580SOL    HW111639   0.194   4.101   1.846
 3580SOL    HW211640   0.068   4.126   1.744
 3581SOL     OW11641   1.801   0.515   2.560
 3581SOL    HW111642   1.705   0.541   2.547
 3581SOL    HW211643   1.820   0.506   2.658
 3582SOL     OW11644   4.715   6.128   7.011
 3582SOL    HW111645   4.620   6.136   0.020
 3582SOL    HW211646   4.750   6.037   0.014
 3583SOL     OW11647   1.725   5.651   1.322
 3583SOL    HW111648   1.736   5.654   1.421
 3583SOL    HW211649   1.645   5.595   1.299
 3584SOL     OW11650   5.818   4.853   4.984
 3584SOL    HW111651   5.739   4.799   4.952
 3584SOL    HW211652   5.862   4.895   4.905
 3585SOL     OW11653   4.078   2.192   3.660
 3585SOL    HW111654   4.146   2.266   3.659
 3585SOL    HW211655   4.039   2.182   3.568
 3586SOL     OW11656   6.277   2.507   5.541
 3586SOL    HW111657   6.245   2.599   5.521
 3586SOL    HW211658   6.376   2.502   5.526
 3587SOL     OW11659   2.516   0.681   6.115
 3587SOL    HW111660   2.513   0.763   6.173
 3587SOL    HW211661   2.582   0.694   6.042
 3588SOL     OW11662   5.836   3.388   3.858
 3588SOL    HW111663   5.885   3.429   3.781
 3588SOL    HW211664   5.870   3.427   3.944
 3589SOL     OW11665   0.548   0.817   6.285
 3589SOL    HW111666   0.558   0.860   6.375
 3589SOL    HW211667   0.495   0.733   6.294
 3590SOL     OW11668   6.363   5.158   5.500
 3590SOL    HW111669   6.416   5.240   5.479
 3590SOL    HW211670   6.321   5.123   5.416
 3591SOL     OW11671   4.756   1.842   0.749
 3591SOL    HW111672   4.802   1.760   0.784
 3591SOL    HW211673   4.753   1.839   0.650
 3592SOL     OW11674   1.435   6.424   1.395
 3592SOL    HW111675   1.485   6.401   1.312
 3592SOL    HW211676   1.337   6.426   1.375
 3593SOL     OW11677   4.175   3.045   5.737
 3593SOL    HW111678   4.193   3.134   5.695
 3593SOL    HW211679   4.080   3.042   5.767
 3594SOL     OW11680   4.599   4.533   5.018
 3594SOL    HW111681   4.634   4.588   5.095
 3594SOL    HW211682   4.499   4.543   5.013
 3595SOL     OW11683   4.481   6.921   5.313
 3595SOL    HW111684   4.548   6.993   5.331
 3595SOL    HW211685   4.415   6.954   5.245
 3596SOL     OW11686   3.484   1.552   2.234
 3596SOL    HW111687   3.460   1.648   2.246
 3596SOL    HW211688   3.535   1.540   2.149
 3597SOL     OW11689   3.783   4.540   5.593
 3597SOL    HW111690   3.771   4.453   5.546
 3597SOL    HW211691   3.790   4.524   5.692
 3598SOL     OW11692   6.902   5.356   4.864
 3598SOL    HW111693   6.933   5.308   4.782
 3598SOL    HW211694   6.840   5.296   4.916
 3599SOL     OW11695   2.204   1.306   5.068
 3599SOL    HW111696   2.169   1.213   5.064
 3599SOL    HW211697   2.206   1.337   5.163
 3600SOL     OW11698   2.612   4.280   0.764
 3600SOL    HW111699   2.657   4.256   0.850
 3600SOL    HW211700   2.530   4.334   0.783
 3601SOL     OW11701   3.785   0.559   5.220
 3601SOL    HW111702   3.835   0.556   5.306
 3601SOL    HW211703   3.695   0.600   5.235
 3602SOL     OW11704   1.766   2.296   1.039
 3602SOL    HW111705   1.737   2.294   0.943
 3602SOL    HW211706   1.699   2.246   1.095
 3603SOL     OW11707   1.483   0.026   6.055
 3603SOL    HW111708   1.560   7.012   6.108
 3603SOL    HW211709   1.496   0.002   5.958
 3604SOL     OW11710   6.700   0.939   4.020
 3604SOL    HW111711   6.677   0.872   4.091
 3604SOL    HW211712   6.799   0.949   4.015
 3605SOL     OW11713   1.228   0.148   5.007
 3605SOL    HW111714   1.307   0.205   4.981
 3605SOL    HW211715   1.160   0.205   5.053
 3606SOL     OW11716   2.703   0.265   2.907
 3606SOL    HW111717   2.792   0.289   2.946
 3606SOL    HW211718   2.631   0.308   2.961
 3607SOL     OW11719   6.152   1.432   3.728
 3607SOL    HW111720   6.241   1.401   3.761
 3607SOL    HW211721   6.096   1.353   3.704
 3608SOL     OW11722   3.767   2.016   5.752
 3608SOL    HW111723   3.831   2.082   5.793
 3608SOL    HW211724   3.809   1.976   5.671
 3609SOL     OW11725   3.191   6.918   5.076
 3609SOL    HW111726   3.167   6.821   5.075
 3609SOL    HW211727   3.280   6.930   5.032
 3610SOL     OW11728   1.862   0.320   5.661
 3610SOL    HW111729   1.884   0.267   5.579
 3610SOL    HW211730   1.943   0.371   5.690
 3611SOL     OW11731   5.392   3.576   3.523
 3611SOL    HW111732   5.338   3.658   3.503
 3611SOL    HW211733   5.342   3.519   3.588
 3612SOL     OW11734   4.738   1.796   0.480
 3612SOL    HW111735   4.661   1.740   0.451
 3612SOL    HW211736   4.815   1.782   0.418
 3613SOL     OW11737   3.866   0.625   2.887
 3613SOL    HW111738   3.902   0.545   2.934
 3613SOL    HW211739   3.927   0.703   2.902
 3614SOL     OW11740   3.669   5.675   0.279
 3614SOL    HW111741   3.580   5.706   0.313
 3614SOL    HW211742   3.696   5.591   0.327
 3615SOL     OW11743   5.557   2.600   4.753
 3615SOL    HW111744   5.642   2.567   4.713
 3615SOL    HW211745   5.549   2.566   4.847
 3616SOL     OW11746   1.359   1.537   1.189
 3616SOL    HW111747   1.341   1.495   1.100
 3616SOL    HW211748   1.291   1.504   1.255
 3617SOL     OW11749   4.040   5.146   4.695
 3617SOL    HW111750   4.089   5.210   4.755
 3617SOL    HW211751   4.034   5.057   4.740
 3618SOL     OW11752   1.081   5.447   4.510
 3618SOL    HW111753   0.997   5.461   4.457
 3618SOL    HW211754   1.102   5.349   4.512
 3619SOL     OW11755   6.705   2.165   2.783
 3619SOL    HW111756   6.731   2.246   2.835
 3619SOL    HW211757   6.711   2.184   2.685
 3620SOL     OW11758   4.875   6.260   5.473
 3620SOL    HW111759   4.810   6.320   5.426
 3620SOL    HW211760   4.967   6.274   5.434
 3621SOL     OW11761   2.999   3.235   3.724
 3621SOL    HW111762   3.011   3.235   3.824
 3621SOL    HW211763   2.990   3.141   3.691
 3622SOL     OW11764   2.691   5.858   6.271
 3622SOL    HW111765   2.687   5.762   6.296
 3622SOL    HW211766   2.616   5.908   6.315
 3623SOL     OW11767   1.592   6.177   5.747
 3623SOL    HW111768   1.677   6.218   5.781
 3623SOL    HW211769   1.518   6.242   5.755
 3624SOL     OW11770   2.737   1.696   2.765
 3624SOL    HW111771   2.712   1.778   2.815
 3624SOL    HW211772   2.829   1.667   2.792
 3625SOL     OW11773   5.849   2.649   1.899
 3625SOL    HW111774   5.832   2.556   1.866
 3625SOL    HW211775   5.768   2.683   1.947
 3626SOL     OW11776   0.917   3.178   5.938
 3626SOL    HW111777   0.902   3.227   5.852
 3626SOL    HW211778   0.870   3.090   5.936
 3627SOL     OW11779   3.486   1.360   2.560
 3627SOL    HW111780   3.585   1.349   2.555
 3627SOL    HW211781   3.457   1.350   2.655
 3628SOL     OW11782   6.830   0.937   1.622
 3628SOL    HW111783   6.884   1.021   1.629
 3628SOL    HW211784   6.736   0.961   1.594
 3629SOL     OW11785   1.382   0.977   4.601
 3629SOL    HW111786   1.344   0.884   4.609
 3629SOL    HW211787   1.479   0.975   4.623
 3630SOL     OW11788   6.422   2.256   2.373
 3630SOL    HW111789   6.329   2.274   2.339
 3630SOL    HW211790   6.484   2.244   2.296
 3631SOL     OW11791   2.023   5.379   2.842
 3631SOL    HW111792   1.997   5.285   2.863
 3631SOL    HW211793   2.066   5.421   2.922
 3632SOL     OW11794   5.152   3.058   2.373
 3632SOL    HW111795   5.199   3.129   2.320
 3632SOL    HW211796   5.072   3.027   2.323
 3633SOL     OW11797   4.259   5.075   5.906
 3633SOL    HW111798   4.163   5.096   5.890
 3633SOL    HW211799   4.309   5.159   5.927
 3634SOL     OW11800   2.782   5.388   6.242
 3634SOL    HW111801   2.828   5.472   6.269
 3634SOL    HW211802   2.688   5.388   6.277
 3635SOL     OW11803   1.597   0.057   2.968
 3635SOL    HW111804   1.584   0.045   2.869
 3635SOL    HW211805   1.683   0.105   2.984
 3636SOL     OW11806   6.675   6.054   4.717
 3636SOL    HW111807   6.646   5.959   4.720
 3636SOL    HW211808   6.595   6.114   4.726
 3637SOL     OW11809   5.334   2.586   6.549
 3637SOL    HW111810   5.329   2.641   6.466
 3637SOL    HW211811   5.276   2.506   6.539
 3638SOL     OW11812   0.804   2.383   3.665
 3638SOL    HW111813   0.836   2.477   3.653
 3638SOL    HW211814   0.883   2.322   3.668
 3639SOL     OW11815   3.839   3.482   4.149
 3639SOL    HW111816   3.853   3.457   4.245
 3639SOL    HW211817   3.918   3.453   4.095
 3640SOL     OW11818   4.937   1.508   2.333
 3640SOL    HW111819   4.842   1.481   2.320
 3640SOL    HW211820   4.978   1.531   2.245
 3641SOL     OW11821   0.569   3.460   1.827
 3641SOL    HW111822   0.590   3.535   1.764
 3641SOL    HW211823   0.473   3.465   1.853
 3642SOL     OW11824   4.724   4.190   6.271
 3642SOL    HW111825   4.659   4.219   6.342
 3642SOL    HW211826   4.674   4.169   6.187
 3643SOL     OW11827   4.260   5.884   4.904
 3643SOL    HW111828   4.193   5.939   4.954
 3643SOL    HW211829   4.331   5.853   4.968
 3644SOL     OW11830   3.547   1.344   1.750
 3644SOL    HW111831   3.468   1.370   1.807
 3644SOL    HW211832   3.516   1.328   1.656
 3645SOL     OW11833   2.124   3.944   3.266
 3645SOL    HW111834   2.075   3.858   3.276
 3645SOL    HW211835   2.149   3.958   3.170
 3646SOL     OW11836   2.431   4.964   5.003
 3646SOL    HW111837   2.366   4.929   5.071
 3646SOL    HW211838   2.520   4.978   5.046
 3647SOL     OW11839   3.376   0.349   0.750
 3647SOL    HW111840   3.472   0.376   0.750
 3647SOL    HW211841   3.344   0.342   0.845
 3648SOL     OW11842   5.395   4.787   3.274
 3648SOL    HW111843   5.479   4.813   3.227
 3648SOL    HW211844   5.416   4.766   3.370
 3649SOL     OW11845   5.953   2.560   0.255
 3649SOL    HW111846   5.903   2.568   0.169
 3649SOL    HW211847   6.017   2.637   0.265
 3650SOL     OW11848   5.367   6.671   0.240
 3650SOL    HW111849   5.414   6.584   0.256
 3650SOL    HW211850   5.411   6.720   0.165
 3651SOL     OW11851   1.299   1.694   6.007
 3651SOL    HW111852   1.297   1.773   5.946
 3651SOL    HW211853   1.249   1.618   5.965
 3652SOL     OW11854   5.715   2.159   2.403
 3652SOL    HW111855   5.774   2.090   2.446
 3652SOL    HW211856   5.745   2.250   2.430
 3653SOL     OW11857   2.551   1.800   0.664
 3653SOL    HW111858   2.621   1.743   0.707
 3653SOL    HW211859   2.463   1.783   0.708
 3654SOL     OW11860   4.130   6.071   1.182
 3654SOL    HW111861   4.122   6.110   1.274
 3654SOL    HW211862   4.040   6.064   1.140
 3655SOL     OW11863   1.189   0.476   4.668
 3655SOL    HW111864   1.099   0.498   4.706
 3655SOL    HW211865   1.190   0.382   4.636
 3656SOL     OW11866   0.243   0.715   0.899
 3656SOL    HW111867   0.259   0.789   0.965
 3656SOL    HW211868   0.320   0.709   0.836
 3657SOL     OW11869   6.391   4.775   6.301
 3657SOL    HW111870   6.331   4.706   6.341
 3657SOL    HW211871   6.424   4.837   6.372
 3658SOL     OW11872   1.416   4.787   5.538
 3658SOL    HW111873   1.386   4.855   5.606
 3658SOL    HW211874   1.515   4.778   5.541
 3659SOL     OW11875   1.125   2.071   0.222
 3659SOL    HW111876   1.192   2.068   0.147
 3659SOL    HW211877   1.073   2.157   0.217
 3660SOL     OW11878   4.236   4.740   4.743
 3660SOL    HW111879   4.253   4.679   4.821
 3660SOL    HW211880   4.319   4.790   4.721
 3661SOL     OW11881   1.273   1.107   5.272
 3661SOL    HW111882   1.241   1.196   5.304
 3661SOL    HW211883   1.251   1.097   5.175
 3662SOL     OW11884   3.764   2.382   5.600
 3662SOL    HW111885   3.780   2.403   5.696
 3662SOL    HW211886   3.768   2.467   5.547
 3663SOL     OW11887   1.169   2.379   5.653
 3663SOL    HW111888   1.124   2.463   5.683
 3663SOL    HW211889   1.228   2.399   5.575
 3664SOL     OW11890   2.333   1.731   0.830
 3664SOL    HW111891   2.241   1.704   0.802
 3664SOL    HW211892   2.360   1.680   0.911
 3665SOL     OW11893   0.181   6.514   4.541
 3665SOL    HW111894   0.202   6.611   4.532
 3665SOL    HW211895   0.152   6.477   4.453
 3666SOL     OW11896   1.980   3.506   5.020
 3666SOL    HW111897   2.056   3.495   4.955
 3666SOL    HW211898   2.011   3.483   5.112
 3667SOL     OW11899   2.420   6.764   1.665
 3667SOL    HW111900   2.460   6.815   1.588
 3667SOL    HW211901   2.493   6.737   1.728
 3668SOL     OW11902   4.862   1.139   0.611
 3668SOL    HW111903   4.840   1.169   0.704
 3668SOL    HW211904   4.860   1.039   0.607
 3669SOL     OW11905   6.697   0.796   2.070
 3669SOL    HW111906   6.773   0.770   2.130
 3669SOL    HW211907   6.726   0.868   2.008
 3670SOL     OW11908   2.175   6.635   2.413
 3670SOL    HW111909   2.179   6.688   2.329
 3670SOL    HW211910   2.113   6.679   2.478
 3671SOL     OW11911   0.434   0.592   5.610
 3671SOL    HW111912   0.462   0.616   5.517
 3671SOL    HW211913   0.349   0.540   5.606
 3672SOL     OW11914   3.204   0.501   3.895
 3672SOL    HW111915   3.135   0.527   3.828
 3672SOL    HW211916   3.178   0.537   3.985
 3673SOL     OW11917   3.189   1.379   1.197
 3673SOL    HW111918   3.156   1.295   1.240
 3673SOL    HW211919   3.194   1.452   1.265
 3674SOL     OW11920   0.024   4.948   6.050
 3674SOL    HW111921   0.021   4.990   6.141
 3674SOL    HW211922   6.970   4.882   6.042
 3675SOL     OW11923   6.031   0.357   5.151
 3675SOL    HW111924   6.071   0.449   5.154
 3675SOL    HW211925   6.101   0.291   5.125
 3676SOL     OW11926   1.981   0.891   5.529
 3676SOL    HW111927   2.051   0.821   5.542
 3676SOL    HW211928   2.024   0.980   5.517
 3677SOL     OW11929   0.983   0.853   4.802
 3677SOL    HW111930   1.002   0.919   4.729
 3677SOL    HW211931   1.057   0.855   4.869
 3678SOL     OW11932   2.916   0.731   3.559
 3678SOL    HW111933   2.877   0.809   3.608
 3678SOL    HW211934   2.910   0.747   3.460
 3679SOL     OW11935   3.328   0.663   1.899
 3679SOL    HW111936   3.270   0.701   1.827
 3679SOL    HW211937   3.278   0.663   1.986
 3680SOL     OW11938   4.287   1.741   4.080
 3680SOL    HW111939   4.324   1.832   4.096
 3680SOL    HW211940   4.362   1.676   4.064
 3681SOL     OW11941   1.319   5.175   3.296
 3681SOL    HW111942   1.410   5.208   3.318
 3681SOL    HW211943   1.265   5.165   3.380
 3682SOL     OW11944   5.500   1.266   1.692
 3682SOL    HW111945   5.421   1.285   1.751
 3682SOL    HW211946   5.525   1.170   1.699
 3683SOL     OW11947   6.556   1.986   1.380
 3683SOL    HW111948   6.570   2.078   1.417
 3683SOL    HW211949   6.640   1.933   1.388
 3684SOL     OW11950   3.049   5.908   5.404
 3684SOL    HW111951   3.137   5.954   5.391
 3684SOL    HW211952   3.043   5.830   5.342
 3685SOL     OW11953   1.730   6.855   3.213
 3685SOL    HW111954   1.725   6.755   3.218
 3685SOL    HW211955   1.638   6.892   3.202
 3686SOL     OW11956   1.109   5.107   0.765
 3686SOL    HW111957   1.190   5.060   0.732
 3686SOL    HW211958   1.050   5.043   0.814
 3687SOL     OW11959   0.311   4.796   4.537
 3687SOL    HW111960   0.335   4.814   4.632
 3687SOL    HW211961   0.292   4.698   4.526
 3688SOL     OW11962   0.009   3.161   1.696
 3688SOL    HW111963   0.063   3.103   1.757
 3688SOL    HW211964   7.018   3.251   1.737
 3689SOL     OW11965   2.002   2.136   5.091
 3689SOL    HW111966   1.914   2.142   5.043
 3689SOL    HW211967   2.067   2.199   5.050
 3690SOL     OW11968   0.114   5.487   2.254
 3690SOL    HW111969   0.144   5.582   2.267
 3690SOL    HW211970   0.111   5.468   2.156
 3691SOL     OW11971   1.988   1.909   0.216
 3691SOL    HW111972   2.046   1.990   0.222
 3691SOL    HW211973   2.044   1.827   0.231
 3692SOL     OW11974   0.855   2.879   5.521
 3692SOL    HW111975   0.891   2.970   5.502
 3692SOL    HW211976   0.922   2.827   5.574
 3693SOL     OW11977   0.462   1.473   2.801
 3693SOL    HW111978   0.446   1.396   2.863
 3693SOL    HW211979   0.459   1.559   2.853
 3694SOL     OW11980   0.103   6.629   2.002
 3694SOL    HW111981   0.051   6.641   2.087
 3694SOL    HW211982   0.064   6.554   1.949
 3695SOL     OW11983   5.873   3.631   4.444
 3695SOL    HW111984   5.913   3.723   4.453
 3695SOL    HW211985   5.827   3.607   4.530
 3696SOL     OW11986   4.427   0.229   4.080
 3696SOL    HW111987   4.480   0.288   4.141
 3696SOL    HW211988   4.408   0.277   3.995
 3697SOL     OW11989   6.554   4.699   3.001
 3697SOL    HW111990   6.457   4.716   3.015
 3697SOL    HW211991   6.604   4.786   3.000
 3698SOL     OW11992   1.053   0.152   4.128
 3698SOL    HW111993   0.969   0.204   4.110
 3698SOL    HW211994   1.034   0.079   4.193
 3699SOL     OW11995   3.017   1.978   3.347
 3699SOL    HW111996   2.919   1.987   3.362
 3699SOL    HW211997   3.047   2.043   3.278
 3700SOL     OW11998   0.758   5.329   4.693
 3700SOL    HW111999   0.856   5.347   4.692
 3700SOL    HW212000   0.715   5.383   4.765
 3701SOL     OW12001   6.444   0.279   2.165
 3701SOL    HW112002   6.358   0.232   2.144
 3701SOL    HW212003   6.510   0.260   2.093
 3702SOL     OW12004   6.653   4.481   3.589
 3702SOL    HW112005   6.673   4.548   3.660
 3702SOL    HW212006   6.565   4.503   3.547
 3703SOL     OW12007   0.707   2.093   3.549
 3703SOL    HW112008   0.757   2.155   3.609
 3703SOL    HW212009   0.616   2.077   3.586
 3704SOL     OW12010   6.504   6.278   1.090
 3704SOL    HW112011   6.545   6.370   1.093
 3704SOL    HW212012   6.405   6.286   1.094
 3705SOL     OW12013   6.467   4.005   3.840
 3705SOL    HW112014   6.429   4.060   3.766
 3705SOL    HW212015   6.454   4.052   3.927
 3706SOL     OW12016   0.571   5.871   6.741
 3706SOL    HW112017   0.560   5.772   6.744
 3706SOL    HW212018   0.630   5.896   6.664
 3707SOL     OW12019   6.968   4.102   3.077
 3707SOL    HW112020   6.988   4.008   3.105
 3707SOL    HW212021   6.971   4.108   2.977
 3708SOL     OW12022   1.499   5.947   0.414
 3708SOL    HW112023   1.540   5.925   0.503
 3708SOL    HW212024   1.429   5.880   0.392
 3709SOL     OW12025   0.705   1.806   0.951
 3709SOL    HW112026   0.730   1.711   0.970
 3709SOL    HW212027   0.611   1.823   0.980
 3710SOL     OW12028   1.903   3.505   5.432
 3710SOL    HW112029   1.854   3.581   5.474
 3710SOL    HW212030   1.980   3.479   5.491
 3711SOL     OW12031   1.705   4.747   5.445
 3711SOL    HW112032   1.768   4.676   5.474
 3711SOL    HW212033   1.641   4.710   5.378
 3712SOL     OW12034   3.202   4.988   3.871
 3712SOL    HW112035   3.156   4.902   3.852
 3712SOL    HW212036   3.245   4.985   3.961
 3713SOL     OW12037   6.245   0.364   6.026
 3713SOL    HW112038   6.339   0.379   6.056
 3713SOL    HW212039   6.183   0.425   6.076
 3714SOL     OW12040   0.526   5.361   1.022
 3714SOL    HW112041   0.613   5.337   0.978
 3714SOL    HW212042   0.450   5.326   0.967
 3715SOL     OW12043   5.949   4.165   2.326
 3715SOL    HW112044   5.948   4.259   2.293
 3715SOL    HW212045   6.000   4.160   2.412
 3716SOL     OW12046   5.331   5.682   5.565
 3716SOL    HW112047   5.412   5.721   5.521
 3716SOL    HW212048   5.351   5.664   5.661
 3717SOL     OW12049   4.371   0.102   0.996
 3717SOL    HW112050   4.418   0.051   0.924
 3717SOL    HW212051   4.431   0.109   1.076
 3718SOL     OW12052   5.312   6.509   6.893
 3718SOL    HW112053   5.375   6.444   6.935
 3718SOL    HW212054   5.353   6.545   6.809
 3719SOL     OW12055   2.706   4.279   0.126
 3719SOL    HW112056   2.637   4.208   0.114
 3719SOL    HW212057   2.699   4.317   0.218
 3720SOL     OW12058   0.739   2.072   0.448
 3720SOL    HW112059   0.677   2.133   0.499
 3720SOL    HW212060   0.689   2.031   0.371
 3721SOL     OW12061   6.548   0.067   5.817
 3721SOL    HW112062   6.560   6.995   5.851
 3721SOL    HW212063   6.633   0.118   5.829
 3722SOL     OW12064   5.349   6.564   1.440
 3722SOL    HW112065   5.355   6.556   1.540
 3722SOL    HW212066   5.354   6.661   1.415
 3723SOL     OW12067   4.476   4.052   5.845
 3723SOL    HW112068   4.534   4.016   5.918
 3723SOL    HW212069   4.421   4.127   5.881
 3724SOL     OW12070   6.286   4.014   5.161
 3724SOL    HW112071   6.372   4.032   5.112
 3724SOL    HW212072   6.285   4.066   5.246
 3725SOL     OW12073   0.363   6.246   0.863
 3725SOL    HW112074   0.294   6.252   0.791
 3725SOL    HW212075   0.362   6.330   0.917
 3726SOL     OW12076   6.045   3.451   5.260
 3726SOL    HW112077   6.104   3.371   5.270
 3726SOL    HW212078   6.100   3.530   5.233
 3727SOL     OW12079   6.573   1.965   4.240
 3727SOL    HW112080   6.647   1.960   4.173
 3727SOL    HW212081   6.610   1.988   4.330
 3728SOL     OW12082   1.814   4.989   0.494
 3728SOL    HW112083   1.871   5.050   0.439
 3728SOL    HW212084   1.791   4.908   0.440
 3729SOL     OW12085   6.874   6.993   6.538
 3729SOL    HW112086   6.929   6.930   6.593
 3729SOL    HW212087   6.908   6.995   6.444
 3730SOL     OW12088   5.465   4.412   4.798
 3730SOL    HW112089   5.563   4.397   4.790
 3730SOL    HW212090   5.419   4.381   4.714
 3731SOL     OW12091   6.413   1.475   1.579
 3731SOL    HW112092   6.445   1.503   1.488
 3731SOL    HW212093   6.424   1.551   1.643
 3732SOL     OW12094   3.963   2.555   6.830
 3732SOL    HW112095   3.876   2.605   6.831
 3732SOL    HW212096   3.973   2.507   6.744
 3733SOL     OW12097   1.491   1.397   3.239
 3733SOL    HW112098   1.467   1.305   3.270
 3733SOL    HW212099   1.496   1.458   3.317
 3734SOL     OW12100   3.980   0.855   1.649
 3734SOL    HW112101   3.948   0.938   1.604
 3734SOL    HW212102   4.050   0.811   1.593
 3735SOL     OW12103   4.101   0.983   2.424
 3735SOL    HW112104   4.081   0.910   2.490
 3735SOL    HW212105   4.152   0.945   2.347
 3736SOL     OW12106   0.717   1.443   0.026
 3736SOL    HW112107   0.668   1.500   0.092
 3736SOL    HW212108   0.698   1.475   6.954
 3737SOL     OW12109   5.221   1.704   4.307
 3737SOL    HW112110   5.251   1.721   4.213
 3737SOL    HW212111   5.258   1.775   4.367
 3738SOL     OW12112   0.639   1.020   0.340
 3738SOL    HW112113   0.601   0.930   0.359
 3738SOL    HW212114   0.716   1.011   0.277
 3739SOL     OW12115   3.501   4.737   6.609
 3739SOL    HW112116   3.596   4.762   6.630
 3739SOL    HW212117   3.495   4.706   6.514
 3740SOL     OW12118   6.311   6.509   6.600
 3740SOL    HW112119   6.255   6.561   6.664
 3740SOL    HW212120   6.334   6.420   6.639
 3741SOL     OW12121   6.724   4.775   6.730
 3741SOL    HW112122   6.636   4.795   6.773
 3741SOL    HW212123   6.797   4.794   6.795
 3742SOL     OW12124   5.160   5.240   1.977
 3742SOL    HW112125   5.150   5.319   2.037
 3742SOL    HW212126   5.099   5.167   2.008
 3743SOL     OW12127   2.307   4.183   1.223
 3743SOL    HW112128   2.384   4.210   1.282
 3743SOL    HW212129   2.317   4.087   1.197
 3744SOL     OW12130   6.454   6.237   2.222
 3744SOL    HW112131   6.359   6.215   2.240
 3744SOL    HW212132   6.510   6.155   2.229
 3745SOL     OW12133   6.242   1.023   2.649
 3745SOL    HW112134   6.186   1.073   2.715
 3745SOL    HW212135   6.182   0.968   2.591
 3746SOL     OW12136   5.020   0.122   5.441
 3746SOL    HW112137   4.935   0.089   5.481
 3746SOL    HW212138   5.079   0.159   5.513
 3747SOL     OW12139   2.250   5.189   5.379
 3747SOL    HW112140   2.343   5.203   5.413
 3747SOL    HW212141   2.185   5.203   5.454
 3748SOL     OW12142   5.183   2.157   3.241
 3748SOL    HW112143   5.109   2.147   3.175
 3748SOL    HW212144   5.257   2.211   3.200
 3749SOL     OW12145   5.741   5.508   1.211
 3749SOL    HW112146   5.807   5.499   1.136
 3749SOL    HW212147   5.649   5.490   1.177
 3750SOL     OW12148   6.431   4.084   1.304
 3750SOL    HW112149   6.402   3.991   1.283
 3750SOL    HW212150   6.497   4.081   1.380
 3751SOL     OW12151   1.736   5.114   0.719
 3751SOL    HW112152   1.649   5.071   0.742
 3751SOL    HW212153   1.771   5.076   0.633
 3752SOL     OW12154   1.246   0.008   6.292
 3752SOL    HW112155   1.341   0.005   6.263
 3752SOL    HW212156   1.210   0.100   6.282
 3753SOL     OW12157   0.633   1.125   5.875
 3753SOL    HW112158   0.642   1.054   5.945
 3753SOL    HW212159   0.670   1.092   5.788
 3754SOL     OW12160   6.764   6.569   1.635
 3754SOL    HW112161   6.664   6.572   1.638
 3754SOL    HW212162   6.797   6.492   1.689
 3755SOL     OW12163   4.480   2.236   2.950
 3755SOL    HW112164   4.545   2.161   2.955
 3755SOL    HW212165   4.524   2.317   2.910
 3756SOL     OW12166   3.413   0.002   0.406
 3756SOL    HW112167   3.422   6.924   0.417
 3756SOL    HW212168   3.391   0.044   0.495
 3757SOL     OW12169   3.111   4.073   5.118
 3757SOL    HW112170   3.181   4.023   5.168
 3757SOL    HW212171   3.022   4.029   5.130
 3758SOL     OW12172   6.929   0.683   1.868
 3758SOL    HW112173   7.006   0.714   1.924
 3758SOL    HW212174   6.869   0.760   1.848
 3759SOL     OW12175   5.107   4.029   0.530
 3759SOL    HW112176   5.031   4.007   0.470
 3759SOL    HW212177   5.148   3.944   0.565
 3760SOL     OW12178   2.021   1.784   5.911
 3760SOL    HW112179   2.040   1.882   5.899
 3760SOL    HW212180   1.931   1.772   5.953
 3761SOL     OW12181   0.052   6.099   4.339
 3761SOL    HW112182   6.984   6.087   4.382
 3761SOL    HW212183   0.110   6.020   4.361
 3762SOL     OW12184   0.494   3.718   0.889
 3762SOL    HW112185   0.510   3.813   0.860
 3762SOL    HW212186   0.436   3.718   0.970
 3763SOL     OW12187   0.159   2.720   4.646
 3763SOL    HW112188   0.186   2.735   4.551
 3763SOL    HW212189   0.079   2.661   4.649
 3764SOL     OW12190   2.292   0.171   3.262
 3764SOL    HW112191   2.214   0.127   3.307
 3764SOL    HW212192   2.287   0.155   3.164
 3765SOL     OW12193   6.074   1.163   3.781
 3765SOL    HW112194   6.088   1.089   3.716
 3765SOL    HW212195   6.147   1.163   3.849
 3766SOL     OW12196   2.387   1.455   4.666
 3766SOL    HW112197   2.399   1.469   4.568
 3766SOL    HW212198   2.449   1.383   4.697
 3767SOL     OW12199   6.995   4.284   1.230
 3767SOL    HW112200   6.948   4.204   1.191
 3767SOL    HW212201   6.974   4.290   1.327
 3768SOL     OW12202   4.812   6.674   1.061
 3768SOL    HW112203   4.748   6.598   1.047
 3768SOL    HW212204   4.906   6.640   1.055
 3769SOL     OW12205   4.274   6.580   4.759
 3769SOL    HW112206   4.221   6.498   4.778
 3769SOL    HW212207   4.258   6.648   4.830
 3770SOL     OW12208   1.813   2.954   0.088
 3770SOL    HW112209   1.822   2.911   0.177
 3770SOL    HW212210   1.894   2.934   0.033
 3771SOL     OW12211   5.005   1.634   5.696
 3771SOL    HW112212   5.045   1.705   5.754
 3771SOL    HW212213   4.942   1.677   5.631
 3772SOL     OW12214   5.335   0.639   2.728
 3772SOL    HW112215   5.432   0.639   2.754
 3772SOL    HW212216   5.314   0.723   2.679
 3773SOL     OW12217   6.725   2.259   0.932
 3773SOL    HW112218   6.714   2.277   1.030
 3773SOL    HW212219   6.646   2.297   0.882
 3774SOL     OW12220   1.311   1.528   1.689
 3774SOL    HW112221   1.404   1.520   1.726
 3774SOL    HW212222   1.265   1.439   1.694
 3775SOL     OW12223   5.727   2.750   3.261
 3775SOL    HW112224   5.644   2.790   3.299
 3775SOL    HW212225   5.767   2.812   3.194
 3776SOL     OW12226   2.811   2.325   6.596
 3776SOL    HW112227   2.785   2.319   6.500
 3776SOL    HW212228   2.766   2.253   6.648
 3777SOL     OW12229   1.421   4.147   3.497
 3777SOL    HW112230   1.493   4.082   3.473
 3777SOL    HW212231   1.463   4.232   3.531
 3778SOL     OW12232   1.938   0.407   1.822
 3778SOL    HW112233   1.988   0.343   1.879
 3778SOL    HW212234   1.922   0.492   1.872
 3779SOL     OW12235   1.864   4.960   6.870
 3779SOL    HW112236   1.846   4.863   6.887
 3779SOL    HW212237   1.946   4.970   6.815
 3780SOL     OW12238   2.395   0.239   4.300
 3780SOL    HW112239   2.457   0.271   4.371
 3780SOL    HW212240   2.422   0.148   4.270
 3781SOL     OW12241   3.032   5.200   4.568
 3781SOL    HW112242   3.098   5.251   4.512
 3781SOL    HW212243   3.049   5.102   4.559
 3782SOL     OW12244   2.827   1.159   2.458
 3782SOL    HW112245   2.783   1.141   2.370
 3782SOL    HW212246   2.905   1.098   2.469
 3783SOL     OW12247   5.425   4.873   4.977
 3783SOL    HW112248   5.453   4.967   4.959
 3783SOL    HW212249   5.430   4.855   5.075
 3784SOL     OW12250   4.664   2.445   4.521
 3784SOL    HW112251   4.682   2.427   4.424
 3784SOL    HW212252   4.708   2.375   4.576
 3785SOL     OW12253   0.380   0.201   2.115
 3785SOL    HW112254   0.406   0.116   2.070
 3785SOL    HW212255   0.458   0.264   2.118
 3786SOL     OW12256   2.479   6.248   1.490
 3786SOL    HW112257   2.554   6.193   1.454
 3786SOL    HW212258   2.516   6.330   1.534
 3787SOL     OW12259   4.532   1.096   3.402
 3787SOL    HW112260   4.520   1.095   3.502
 3787SOL    HW212261   4.479   1.172   3.363
 3788SOL     OW12262   0.030   3.253   2.401
 3788SOL    HW112263   6.956   3.232   2.423
 3788SOL    HW212264   0.086   3.171   2.414
 3789SOL     OW12265   2.179   5.315   2.377
 3789SOL    HW112266   2.127   5.397   2.352
 3789SOL    HW212267   2.172   5.300   2.476
 3790SOL     OW12268   1.716   3.331   2.295
 3790SOL    HW112269   1.617   3.340   2.296
 3790SOL    HW212270   1.753   3.378   2.214
 3791SOL     OW12271   6.598   0.478   2.976
 3791SOL    HW112272   6.649   0.563   2.988
 3791SOL    HW212273   6.507   0.488   3.015
 3792SOL     OW12274   1.243   5.555   6.050
 3792SOL    HW112275   1.339   5.537   6.031
 3792SOL    HW212276   1.223   5.533   6.146
 3793SOL     OW12277   6.976   5.864   2.734
 3793SOL    HW112278   6.881   5.850   2.761
 3793SOL    HW212279   6.979   5.909   2.645
 3794SOL     OW12280   4.241   0.022   4.078
 3794SOL    HW112281   4.308   0.094   4.066
 3794SOL    HW212282   4.288   6.955   4.091
 3795SOL     OW12283   5.838   0.304   0.739
 3795SOL    HW112284   5.921   0.342   0.780
 3795SOL    HW212285   5.775   0.277   0.812
 3796SOL     OW12286   0.151   2.794   1.578
 3796SOL    HW112287   0.204   2.850   1.642
 3796SOL    HW212288   0.106   2.720   1.628
 3797SOL     OW12289   6.975   5.793   2.425
 3797SOL    HW112290   0.046   5.801   2.386
 3797SOL    HW212291   6.972   5.713   2.486
 3798SOL     OW12292   1.429   4.656   6.989
 3798SOL    HW112293   1.506   4.597   7.015
 3798SOL    HW212294   1.464   4.742   6.953
 3799SOL     OW12295   1.020   0.523   5.503
 3799SOL    HW112296   1.020   0.562   5.411
 3799SOL    HW212297   1.059   0.431   5.500
 3800SOL     OW12298   4.983   2.308   4.514
 3800SOL    HW112299   5.005   2.405   4.507
 3800SOL    HW212300   4.995   2.265   4.425
 3801SOL     OW12301   6.711   0.309   5.974
 3801SOL    HW112302   6.726   0.290   5.877
 3801SOL    HW212303   6.780   0.260   6.028
 3802SOL     OW12304   1.903   2.505   4.993
 3802SOL    HW112305   1.928   2.537   5.084
 3802SOL    HW212306   1.985   2.474   4.945
 3803SOL     OW12307   4.528   1.149   1.398
 3803SOL    HW112308   4.526   1.060   1.444
 3803SOL    HW212309   4.549   1.220   1.466
 3804SOL     OW12310   5.180   3.663   4.959
 3804SOL    HW112311   5.117   3.614   5.019
 3804SOL    HW212312   5.179   3.761   4.983
 3805SOL     OW12313   2.141   3.815   1.602
 3805SOL    HW112314   2.227   3.861   1.582
 3805SOL    HW212315   2.124   3.818   1.701
 3806SOL     OW12316   3.462   0.815   0.278
 3806SOL    HW112317   3.468   0.721   0.247
 3806SOL    HW212318   3.384   0.860   0.235
 3807SOL     OW12319   1.673   6.654   2.793
 3807SOL    HW112320   1.666   6.563   2.752
 3807SOL    HW212321   1.586   6.702   2.781
 3808SOL     OW12322   3.876   1.018   0.519
 3808SOL    HW112323   3.796   0.959   0.531
 3808SOL    HW212324   3.862   1.078   0.440
 3809SOL     OW12325   4.232   1.138   0.395
 3809SOL    HW112326   4.212   1.045   0.426
 3809SOL    HW212327   4.201   1.204   0.463
 3810SOL     OW12328   1.908   3.857   0.016
 3810SOL    HW112329   1.839   3.794   0.051
 3810SOL    HW212330   1.866   3.920   6.972
 3811SOL     OW12331   6.944   0.440   6.311
 3811SOL    HW112332   6.917   0.352   6.350
 3811SOL    HW212333   6.877   0.510   6.338
 3812SOL     OW12334   4.367   0.840   6.024
 3812SOL    HW112335   4.340   0.926   6.067
 3812SOL    HW212336   4.298   0.812   5.958
 3813SOL     OW12337   3.824   4.944   1.865
 3813SOL    HW112338   3.749   4.881   1.884
 3813SOL    HW212339   3.836   4.952   1.766
 3814SOL     OW12340   2.201   0.535   1.844
 3814SOL    HW112341   2.121   0.495   1.800
 3814SOL    HW212342   2.218   0.626   1.807
 3815SOL     OW12343   5.494   2.049   2.264
 3815SOL    HW112344   5.585   2.089   2.273
 3815SOL    HW212345   5.454   2.075   2.176
 3816SOL     OW12346   0.495   6.173   0.591
 3816SOL    HW112347   0.396   6.161   0.599
 3816SOL    HW212348   0.529   6.228   0.667
 3817SOL     OW12349   5.514   1.880   5.369
 3817SOL    HW112350   5.480   1.903   5.278
 3817SOL    HW212351   5.614   1.875   5.368
 3818SOL     OW12352   3.424   6.130   3.316
 3818SOL    HW112353   3.340   6.134   3.262
 3818SOL    HW212354   3.426   6.045   3.369
 3819SOL     OW12355   5.137   3.444   6.504
 3819SOL    HW112356   5.213   3.486   6.554
 3819SOL    HW212357   5.134   3.346   6.524
 3820SOL     OW12358   4.322   6.228   3.240
 3820SOL    HW112359   4.237   6.197   3.284
 3820SOL    HW212360   4.396   6.227   3.307
 3821SOL     OW12361   0.156   4.663   1.360
 3821SOL    HW112362   0.137   4.579   1.310
 3821SOL    HW212363   0.144   4.742   1.299
 3822SOL     OW12364   0.911   3.820   1.393
 3822SOL    HW112365   0.974   3.844   1.320
 3822SOL    HW212366   0.943   3.737   1.439
 3823SOL     OW12367   2.579   3.393   5.469
 3823SOL    HW112368   2.657   3.355   5.418
 3823SOL    HW212369   2.572   3.491   5.450
 3824SOL     OW12370   0.653   2.596   6.063
 3824SOL    HW112371   0.553   2.591   6.068
 3824SOL    HW212372   0.693   2.540   6.135
 3825SOL     OW12373   0.672   6.195   5.987
 3825SOL    HW112374   0.592   6.219   6.041
 3825SOL    HW212375   0.733   6.274   5.979
 3826SOL     OW12376   6.401   1.932   1.800
 3826SOL    HW112377   6.405   1.866   1.875
 3826SOL    HW212378   6.482   1.991   1.803
 3827SOL     OW12379   5.201   1.755   2.204
 3827SOL    HW112380   5.255   1.795   2.130
 3827SOL    HW212381   5.256   1.751   2.288
 3828SOL     OW12382   3.773   1.290   1.307
 3828SOL    HW112383   3.804   1.268   1.400
 3828SOL    HW212384   3.729   1.210   1.267
 3829SOL     OW12385   0.910   4.825   3.393
 3829SOL    HW112386   0.965   4.896   3.351
 3829SOL    HW212387   0.969   4.752   3.428
 3830SOL     OW12388   2.410   0.133   5.295
 3830SOL    HW112389   2.474   0.062   5.325
 3830SOL    HW212390   2.340   0.146   5.364
 3831SOL     OW12391   4.896   1.839   2.106
 3831SOL    HW112392   4.971   1.841   2.171
 3831SOL    HW212393   4.883   1.746   2.072
 3832SOL     OW12394   5.773   0.032   2.155
 3832SOL    HW112395   5.797   0.092   2.079
 3832SOL    HW212396   5.718   0.083   2.221
 3833SOL     OW12397   1.417   6.669   2.685
 3833SOL    HW112398   1.430   6.633   2.593
 3833SOL    HW212399   1.355   6.747   2.683
 3834SOL     OW12400   3.396   3.065   0.506
 3834SOL    HW112401   3.369   2.981   0.459
 3834SOL    HW212402   3.331   3.138   0.485
 3835SOL     OW12403   2.891   4.959   2.897
 3835SOL    HW112404   2.925   4.988   2.987
 3835SOL    HW212405   2.840   4.873   2.908
 3836SOL     OW12406   1.176   2.765   6.371
 3836SOL    HW112407   1.083   2.729   6.373
 3836SOL    HW212408   1.173   2.864   6.356
 3837SOL     OW12409   3.017   4.209   6.523
 3837SOL    HW112410   2.945   4.278   6.530
 3837SOL    HW212411   2.976   4.118   6.517
 3838SOL     OW12412   6.920   3.283   4.861
 3838SOL    HW112413   6.936   3.277   4.959
 3838SOL    HW212414   6.999   3.246   4.812
 3839SOL     OW12415   0.739   6.007   0.220
 3839SOL    HW112416   0.724   5.996   0.122
 3839SOL    HW212417   0.653   5.998   0.269
 3840SOL     OW12418   3.092   2.179   3.170
 3840SOL    HW112419   3.165   2.160   3.104
 3840SOL    HW212420   3.020   2.232   3.126
 3841SOL     OW12421   1.077   3.060   3.729
 3841SOL    HW112422   1.171   3.087   3.754
 3841SOL    HW212423   1.061   3.082   3.633
 3842SOL     OW12424   0.982   4.968   6.732
 3842SOL    HW112425   0.910   5.037   6.735
 3842SOL    HW212426   0.946   4.881   6.763
 3843SOL     OW12427   6.987   4.769   6.871
 3843SOL    HW112428   0.026   4.799   6.797
 3843SOL    HW212429   0.014   4.701   6.926
 3844SOL     OW12430   2.886   4.412   5.674
 3844SOL    HW112431   2.975   4.413   5.627
 3844SOL    HW212432   2.822   4.356   5.622
 3845SOL     OW12433   3.173   3.524   3.953
 3845SOL    HW112434   3.221   3.537   3.866
 3845SOL    HW212435   3.076   3.508   3.936
 3846SOL     OW12436   6.693   4.549   4.786
 3846SOL    HW112437   6.640   4.493   4.722
 3846SOL    HW212438   6.654   4.641   4.789
 3847SOL     OW12439   1.540   6.770   1.035
 3847SOL    HW112440   1.440   6.760   1.035
 3847SOL    HW212441   1.566   6.832   1.110
 3848SOL     OW12442   2.835   6.225   2.202
 3848SOL    HW112443   2.924   6.220   2.155
 3848SOL    HW212444   2.766   6.257   2.138
 3849SOL     OW12445   2.692   1.428   5.438
 3849SOL    HW112446   2.645   1.406   5.352
 3849SOL    HW212447   2.760   1.499   5.422
 3850SOL     OW12448   1.399   3.260   1.375
 3850SOL    HW112449   1.462   3.288   1.302
 3850SOL    HW212450   1.320   3.215   1.334
 3851SOL     OW12451   2.694   2.932   0.651
 3851SOL    HW112452   2.625   2.861   0.668
 3851SOL    HW212453   2.697   2.995   0.728
 3852SOL     OW12454   4.646   0.895   5.408
 3852SOL    HW112455   4.663   0.987   5.374
 3852SOL    HW212456   4.551   0.889   5.440
 3853SOL     OW12457   0.281   3.621   2.531
 3853SOL    HW112458   0.278   3.672   2.445
 3853SOL    HW212459   0.338   3.671   2.596
 3854SOL     OW12460   1.369   3.601   4.325
 3854SOL    HW112461   1.435   3.589   4.400
 3854SOL    HW212462   1.363   3.516   4.272
 3855SOL     OW12463   6.931   1.638   4.889
 3855SOL    HW112464   6.984   1.563   4.929
 3855SOL    HW212465   6.966   1.659   4.798
 3856SOL     OW12466   0.976   6.193   6.345
 3856SOL    HW112467   1.048   6.146   6.397
 3856SOL    HW212468   0.968   6.288   6.378
 3857SOL     OW12469   6.777   0.267   6.895
 3857SOL    HW112470   6.862   0.217   6.909
 3857SOL    HW212471   6.784   0.324   6.814
 3858SOL     OW12472   4.186   4.932   6.754
 3858SOL    HW112473   4.194   4.922   6.654
 3858SOL    HW212474   4.174   4.842   6.795
 3859SOL     OW12475   6.533   2.621   2.412
 3859SOL    HW112476   6.525   2.641   2.315
 3859SOL    HW212477   6.629   2.600   2.434
 3860SOL     OW12478   2.359   6.133   4.798
 3860SOL    HW112479   2.427   6.200   4.828
 3860SOL    HW212480   2.284   6.129   4.865
 3861SOL     OW12481   3.034   4.290   6.972
 3861SOL    HW112482   3.053   4.296   0.049
 3861SOL    HW212483   2.948   4.242   6.957
 3862SOL     OW12484   0.942   6.359   5.424
 3862SOL    HW112485   0.884   6.438   5.446
 3862SOL    HW212486   0.911   6.280   5.477
 3863SOL     OW12487   2.467   2.765   0.454
 3863SOL    HW112488   2.562   2.764   0.422
 3863SOL    HW212489   2.464   2.734   0.549
 3864SOL     OW12490   3.622   1.878   1.445
 3864SOL    HW112491   3.652   1.974   1.448
 3864SOL    HW212492   3.560   1.861   1.521
 3865SOL     OW12493   3.976   1.158   2.011
 3865SOL    HW112494   3.888   1.121   1.982
 3865SOL    HW212495   4.050   1.100   1.975
 3866SOL     OW12496   4.363   6.136   0.042
 3866SOL    HW112497   4.349   6.184   0.128
 3866SOL    HW212498   4.302   6.056   0.038
 3867SOL     OW12499   1.636   4.974   3.114
 3867SOL    HW112500   1.693   4.893   3.128
 3867SOL    HW212501   1.676   5.030   3.042
 3868SOL     OW12502   1.971   5.080   3.201
 3868SOL    HW112503   1.981   5.087   3.300
 3868SOL    HW212504   1.954   4.984   3.176
 3869SOL     OW12505   0.973   1.191   3.832
 3869SOL    HW112506   0.910   1.139   3.774
 3869SOL    HW212507   1.060   1.202   3.785
 3870SOL     OW12508   4.075   3.816   0.201
 3870SOL    HW112509   4.157   3.825   0.257
 3870SOL    HW212510   4.050   3.719   0.194
 3871SOL     OW12511   3.237   0.595   4.411
 3871SOL    HW112512   3.192   0.624   4.495
 3871SOL    HW212513   3.323   0.646   4.400
 3872SOL     OW12514   4.782   4.166   0.838
 3872SOL    HW112515   4.729   4.103   0.895
 3872SOL    HW212516   4.876   4.133   0.831
 3873SOL     OW12517   6.632   4.711   1.926
 3873SOL    HW112518   6.723   4.674   1.907
 3873SOL    HW212519   6.640   4.803   1.964
 3874SOL     OW12520   5.625   6.304   5.908
 3874SOL    HW112521   5.663   6.258   5.988
 3874SOL    HW212522   5.537   6.346   5.931
 3875SOL     OW12523   2.916   3.602   0.237
 3875SOL    HW112524   2.901   3.507   0.211
 3875SOL    HW212525   2.984   3.607   0.310
 3876SOL     OW12526   5.472   3.978   2.772
 3876SOL    HW112527   5.410   3.930   2.710
 3876SOL    HW212528   5.487   4.071   2.739
 3877SOL     OW12529   4.508   2.007   1.928
 3877SOL    HW112530   4.412   1.994   1.949
 3877SOL    HW212531   4.542   1.929   1.875
 3878SOL     OW12532   5.729   5.859   4.849
 3878SOL    HW112533   5.631   5.873   4.858
 3878SOL    HW212534   5.767   5.832   4.938
 3879SOL     OW12535   2.358   5.965   0.612
 3879SOL    HW112536   2.418   5.941   0.688
 3879SOL    HW212537   2.319   6.056   0.627
 3880SOL     OW12538   6.104   1.475   4.451
 3880SOL    HW112539   6.194   1.430   4.447
 3880SOL    HW212540   6.034   1.406   4.471
 3881SOL     OW12541   0.228   6.222   5.622
 3881SOL    HW112542   0.133   6.195   5.603
 3881SOL    HW212543   0.286   6.195   5.546
 3882SOL     OW12544   0.054   5.958   6.940
 3882SOL    HW112545   0.145   5.922   6.920
 3882SOL    HW212546   0.004   5.971   6.854
 3883SOL     OW12547   4.066   1.740   0.216
 3883SOL    HW112548   4.086   1.644   0.235
 3883SOL    HW212549   4.111   1.766   0.130
 3884SOL     OW12550   2.916   5.833   5.940
 3884SOL    HW112551   3.008   5.813   5.904
 3884SOL    HW212552   2.856   5.755   5.923
 3885SOL     OW12553   0.195   1.222   3.894
 3885SOL    HW112554   0.164   1.317   3.887
 3885SOL    HW212555   0.116   1.161   3.885
 3886SOL     OW12556   6.912   6.182   4.694
 3886SOL    HW112557   6.873   6.273   4.679
 3886SOL    HW212558   6.838   6.116   4.703
 3887SOL     OW12559   0.012   3.137   5.309
 3887SOL    HW112560   0.059   3.073   5.248
 3887SOL    HW212561   6.993   3.087   5.386
 3888SOL     OW12562   4.857   1.928   3.336
 3888SOL    HW112563   4.764   1.895   3.318
 3888SOL    HW212564   4.899   1.956   3.250
 3889SOL     OW12565   6.438   5.765   0.462
 3889SOL    HW112566   6.506   5.814   0.516
 3889SOL    HW212567   6.416   5.678   0.507
 3890SOL     OW12568   5.938   2.937   3.543
 3890SOL    HW112569   5.960   2.934   3.446
 3890SOL    HW212570   6.019   2.914   3.597
 3891SOL     OW12571   3.877   4.351   6.184
 3891SOL    HW112572   3.835   4.441   6.199
 3891SOL    HW212573   3.806   4.281   6.188
 3892SOL     OW12574   5.216   5.759   3.732
 3892SOL    HW112575   5.197   5.688   3.664
 3892SOL    HW212576   5.132   5.780   3.782
 3893SOL     OW12577   2.752   6.176   4.650
 3893SOL    HW112578   2.735   6.092   4.701
 3893SOL    HW212579   2.692   6.180   4.570
 3894SOL     OW12580   5.467   5.637   5.807
 3894SOL    HW112581   5.458   5.701   5.883
 3894SOL    HW212582   5.452   5.544   5.841
 3895SOL     OW12583   1.282   1.725   5.282
 3895SOL    HW112584   1.359   1.715   5.344
 3895SOL    HW212585   1.198   1.738   5.335
 3896SOL     OW12586   6.732   2.645   0.368
 3896SOL    HW112587   6.769   2.679   0.454
 3896SOL    HW212588   6.802   2.591   0.320
 3897SOL     OW12589   2.833   0.289   3.380
 3897SOL    HW112590   2.739   0.265   3.355
 3897SOL    HW212591   2.861   0.370   3.328
 3898SOL     OW12592   3.553   4.159   3.365
 3898SOL    HW112593   3.521   4.205   3.448
 3898SOL    HW212594   3.644   4.120   3.382
 3899SOL     OW12595   4.942   1.818   6.418
 3899SOL    HW112596   5.028   1.819   6.468
 3899SOL    HW212597   4.886   1.897   6.446
 3900SOL     OW12598   0.953   2.383   4.160
 3900SOL    HW112599   0.867   2.388   4.210
 3900SOL    HW212600   1.028   2.368   4.224
 3901SOL     OW12601   3.658   6.301   4.333
 3901SOL    HW112602   3.724   6.317   4.407
 3901SOL    HW212603   3.607   6.385   4.316
 3902SOL     OW12604   2.635   5.255   3.237
 3902SOL    HW112605   2.666   5.171   3.282
 3902SOL    HW212606   2.536   5.259   3.240
 3903SOL     OW12607   2.761   3.862   6.075
 3903SOL    HW112608   2.858   3.869   6.053
 3903SOL    HW212609   2.713   3.943   6.041
 3904SOL     OW12610   2.635   6.326   1.145
 3904SOL    HW112611   2.693   6.374   1.211
 3904SOL    HW212612   2.570   6.390   1.104
 3905SOL     OW12613   4.090   6.527   5.539
 3905SOL    HW112614   4.123   6.509   5.447
 3905SOL    HW212615   4.072   6.441   5.586
 3906SOL     OW12616   6.621   5.880   4.103
 3906SOL    HW112617   6.626   5.781   4.096
 3906SOL    HW212618   6.549   5.906   4.167
 3907SOL     OW12619   1.206   1.027   5.012
 3907SOL    HW112620   1.210   0.953   4.944
 3907SOL    HW212621   1.212   1.115   4.966
 3908SOL     OW12622   2.128   1.702   4.950
 3908SOL    HW112623   2.097   1.693   4.856
 3908SOL    HW212624   2.123   1.798   4.978
 3909SOL     OW12625   6.482   3.328   2.452
 3909SOL    HW112626   6.530   3.401   2.500
 3909SOL    HW212627   6.385   3.331   2.476
 3910SOL     OW12628   2.098   2.150   0.210
 3910SOL    HW112629   2.074   2.243   0.183
 3910SOL    HW212630   2.192   2.149   0.245
 3911SOL     OW12631   6.012   0.978   2.046
 3911SOL    HW112632   5.943   0.990   2.117
 3911SOL    HW212633   6.047   0.884   2.049
 3912SOL     OW12634   4.749   4.566   0.470
 3912SOL    HW112635   4.748   4.482   0.525
 3912SOL    HW212636   4.841   4.606   0.472
 3913SOL     OW12637   4.182   4.522   1.206
 3913SOL    HW112638   4.161   4.611   1.165
 3913SOL    HW212639   4.247   4.535   1.281
 3914SOL     OW12640   0.333   1.024   0.372
 3914SOL    HW112641   0.332   1.030   0.472
 3914SOL    HW212642   0.422   0.989   0.342
 3915SOL     OW12643   5.612   0.027   4.807
 3915SOL    HW112644   5.634   7.003   4.720
 3915SOL    HW212645   5.695   0.068   4.846
 3916SOL     OW12646   2.194   2.793   2.090
 3916SOL    HW112647   2.209   2.858   2.165
 3916SOL    HW212648   2.177   2.702   2.128
 3917SOL     OW12649   3.872   5.772   2.318
 3917SOL    HW112650   3.823   5.734   2.239
 3917SOL    HW212651   3.897   5.697   2.380
 3918SOL     OW12652   3.676   6.887   0.258
 3918SOL    HW112653   3.738   6.808   0.265
 3918SOL    HW212654   3.699   6.953   0.329
 3919SOL     OW12655   4.940   4.605   3.243
 3919SOL    HW112656   4.853   4.633   3.201
 3919SOL    HW212657   5.013   4.663   3.207
 3920SOL     OW12658   4.294   1.135   5.772
 3920SOL    HW112659   4.208   1.085   5.766
 3920SOL    HW212660   4.301   1.198   5.695
 3921SOL     OW12661   1.022   3.846   5.862
 3921SOL    HW112662   1.026   3.778   5.935
 3921SOL    HW212663   0.967   3.811   5.786
 3922SOL     OW12664   5.485   1.876   4.216
 3922SOL    HW112665   5.546   1.955   4.213
 3922SOL    HW212666   5.435   1.876   4.302
 3923SOL     OW12667   5.660   1.086   1.356
 3923SOL    HW112668   5.662   1.186   1.360
 3923SOL    HW212669   5.715   1.048   1.430
 3924SOL     OW12670   5.469   5.177   3.655
 3924SOL    HW112671   5.546   5.117   3.636
 3924SOL    HW212672   5.496   5.272   3.637
 3925SOL     OW12673   3.725   4.192   1.695
 3925SOL    HW112674   3.671   4.114   1.661
 3925SOL    HW212675   3.663   4.260   1.734
 3926SOL     OW12676   0.754   5.997   5.304
 3926SOL    HW112677   0.660   5.962   5.303
 3926SOL    HW212678   0.817   5.922   5.281
 3927SOL     OW12679   6.171   6.189   4.903
 3927SOL    HW112680   6.133   6.265   4.851
 3927SOL    HW212681   6.201   6.221   4.993
 3928SOL     OW12682   4.437   5.546   2.538
 3928SOL    HW112683   4.415   5.460   2.583
 3928SOL    HW212684   4.464   5.529   2.443
 3929SOL     OW12685   2.043   1.063   5.101
 3929SOL    HW112686   1.984   1.093   5.025
 3929SOL    HW212687   1.986   1.032   5.177
 3930SOL     OW12688   1.925   5.713   4.261
 3930SOL    HW112689   1.851   5.778   4.247
 3930SOL    HW212690   1.940   5.661   4.177
 3931SOL     OW12691   0.540   2.282   0.274
 3931SOL    HW112692   0.598   2.345   0.222
 3931SOL    HW212693   0.491   2.333   0.345
 3932SOL     OW12694   1.703   4.627   1.805
 3932SOL    HW112695   1.789   4.672   1.827
 3932SOL    HW212696   1.638   4.640   1.880
 3933SOL     OW12697   1.426   6.822   1.502
 3933SOL    HW112698   1.516   6.779   1.510
 3933SOL    HW212699   1.372   6.801   1.583
 3934SOL     OW12700   1.433   6.836   2.119
 3934SOL    HW112701   1.430   6.736   2.112
 3934SOL    HW212702   1.347   6.874   2.085
 3935SOL     OW12703   0.359   1.408   4.706
 3935SOL    HW112704   0.313   1.356   4.777
 3935SOL    HW212705   0.331   1.375   4.616
 3936SOL     OW12706   6.260   4.823   4.120
 3936SOL    HW112707   6.235   4.829   4.024
 3936SOL    HW212708   6.360   4.821   4.129
 3937SOL     OW12709   1.518   6.411   0.241
 3937SOL    HW112710   1.423   6.398   0.211
 3937SOL    HW212711   1.518   6.448   0.334
 3938SOL     OW12712   0.867   4.778   6.432
 3938SOL    HW112713   0.947   4.758   6.487
 3938SOL    HW212714   0.887   4.854   6.370
 3939SOL     OW12715   2.177   6.204   4.273
 3939SOL    HW112716   2.098   6.162   4.229
 3939SOL    HW212717   2.208   6.146   4.348
 3940SOL     OW12718   2.703   6.117   6.884
 3940SOL    HW112719   2.733   6.116   6.789
 3940SOL    HW212720   2.630   6.184   6.895
 3941SOL     OW12721   5.623   5.481   2.605
 3941SOL    HW112722   5.533   5.507   2.640
 3941SOL    HW212723   5.612   5.439   2.515
 3942SOL     OW12724   0.584   6.550   0.195
 3942SOL    HW112725   0.489   6.552   0.165
 3942SOL    HW212726   0.588   6.540   0.294
 3943SOL     OW12727   0.402   5.205   0.562
 3943SOL    HW112728   0.360   5.284   0.517
 3943SOL    HW212729   0.388   5.123   0.506
 3944SOL     OW12730   5.262   3.080   0.517
 3944SOL    HW112731   5.281   2.998   0.464
 3944SOL    HW212732   5.334   3.094   0.585
 3945SOL     OW12733   6.940   0.857   2.751
 3945SOL    HW112734   6.898   0.909   2.825
 3945SOL    HW212735   7.012   0.798   2.789
 3946SOL     OW12736   4.953   1.230   0.870
 3946SOL    HW112737   4.993   1.231   0.962
 3946SOL    HW212738   5.023   1.253   0.803
 3947SOL     OW12739   5.489   0.153   1.017
 3947SOL    HW112740   5.523   0.135   1.110
 3947SOL    HW212741   5.428   0.233   1.019
 3948SOL     OW12742   1.609   1.522   3.966
 3948SOL    HW112743   1.570   1.571   4.045
 3948SOL    HW212744   1.645   1.589   3.901
 3949SOL     OW12745   5.762   6.931   2.846
 3949SOL    HW112746   5.823   6.868   2.894
 3949SOL    HW212747   5.667   6.909   2.869
 3950SOL     OW12748   2.532   4.719   1.488
 3950SOL    HW112749   2.443   4.673   1.497
 3950SOL    HW212750   2.593   4.687   1.560
 3951SOL     OW12751   7.009   2.314   3.307
 3951SOL    HW112752   7.000   2.313   3.208
 3951SOL    HW212753   6.924   2.345   3.348
 3952SOL     OW12754   6.108   5.271   6.955
 3952SOL    HW112755   6.137   5.290   6.861
 3952SOL    HW212756   6.048   5.191   6.956
 3953SOL     OW12757   3.695   2.875   4.427
 3953SOL    HW112758   3.672   2.803   4.492
 3953SOL    HW212759   3.627   2.948   4.432
 3954SOL     OW12760   1.083   4.658   5.439
 3954SOL    HW112761   1.148   4.651   5.514
 3954SOL    HW212762   1.091   4.576   5.381
 3955SOL     OW12763   5.788   3.435   6.878
 3955SOL    HW112764   5.766   3.445   6.780
 3955SOL    HW212765   5.839   3.350   6.892
 3956SOL     OW12766   0.016   2.953   4.638
 3956SOL    HW112767   0.080   2.876   4.639
 3956SOL    HW212768   0.067   3.039   4.646
 3957SOL     OW12769   1.913   2.878   1.730
 3957SOL    HW112770   1.920   2.891   1.631
 3957SOL    HW212771   1.954   2.790   1.755
 3958SOL     OW12772   5.304   5.525   0.785
 3958SOL    HW112773   5.299   5.484   0.694
 3958SOL    HW212774   5.233   5.484   0.844
 3959SOL     OW12775   3.419   4.978   0.732
 3959SOL    HW112776   3.383   5.067   0.761
 3959SOL    HW212777   3.509   4.964   0.772
 3960SOL     OW12778   5.865   3.069   1.157
 3960SOL    HW112779   5.959   3.099   1.140
 3960SOL    HW212780   5.839   3.001   1.088
 3961SOL     OW12781   6.671   1.214   1.377
 3961SOL    HW112782   6.726   1.195   1.296
 3961SOL    HW212783   6.696   1.304   1.414
 3962SOL     OW12784   0.314   6.770   6.492
 3962SOL    HW112785   0.274   6.766   6.583
 3962SOL    HW212786   0.376   6.692   6.479
 3963SOL     OW12787   5.745   3.235   4.677
 3963SOL    HW112788   5.748   3.186   4.765
 3963SOL    HW212789   5.796   3.183   4.609
 3964SOL     OW12790   5.930   4.454   0.036
 3964SOL    HW112791   6.019   4.498   0.043
 3964SOL    HW212792   5.924   4.403   6.971
 3965SOL     OW12793   2.827   4.781   1.393
 3965SOL    HW112794   2.769   4.730   1.330
 3965SOL    HW212795   2.920   4.786   1.357
 3966SOL     OW12796   0.102   3.737   5.799
 3966SOL    HW112797   0.058   3.716   5.711
 3966SOL    HW212798   0.033   3.769   5.863
 3967SOL     OW12799   2.273   0.452   0.770
 3967SOL    HW112800   2.216   0.380   0.807
 3967SOL    HW212801   2.275   0.446   0.670
 3968SOL     OW12802   4.721   2.865   0.642
 3968SOL    HW112803   4.621   2.860   0.632
 3968SOL    HW212804   4.750   2.801   0.713
 3969SOL     OW12805   6.295   6.372   1.453
 3969SOL    HW112806   6.276   6.443   1.521
 3969SOL    HW212807   6.258   6.400   1.364
 3970SOL     OW12808   6.201   4.287   4.104
 3970SOL    HW112809   6.145   4.370   4.102
 3970SOL    HW212810   6.141   4.207   4.096
 3971SOL     OW12811   0.194   5.785   3.982
 3971SOL    HW112812   0.120   5.818   3.923
 3971SOL    HW212813   0.157   5.761   4.072
 3972SOL     OW12814   0.961   0.918   6.457
 3972SOL    HW112815   0.976   0.861   6.377
 3972SOL    HW212816   1.047   0.960   6.485
 3973SOL     OW12817   4.227   3.073   1.793
 3973SOL    HW112818   4.150   3.029   1.840
 3973SOL    HW212819   4.207   3.079   1.696
 3974SOL     OW12820   5.508   0.817   0.055
 3974SOL    HW112821   5.496   0.793   0.151
 3974SOL    HW212822   5.605   0.811   0.032
 3975SOL     OW12823   0.011   6.328   3.909
 3975SOL    HW112824   0.031   6.251   3.969
 3975SOL    HW212825   0.021   6.299   3.814
 3976SOL     OW12826   0.628   3.128   5.164
 3976SOL    HW112827   0.712   3.075   5.168
 3976SOL    HW212828   0.629   3.185   5.082
 3977SOL     OW12829   2.232   4.850   5.500
 3977SOL    HW112830   2.251   4.918   5.430
 3977SOL    HW212831   2.310   4.843   5.562
 3978SOL     OW12832   4.495   3.043   6.153
 3978SOL    HW112833   4.469   3.046   6.057
 3978SOL    HW212834   4.413   3.048   6.210
 3979SOL     OW12835   0.110   5.610   2.626
 3979SOL    HW112836   0.147   5.638   2.715
 3979SOL    HW212837   0.169   5.540   2.585
 3980SOL     OW12838   5.395   4.400   3.975
 3980SOL    HW112839   5.414   4.317   4.028
 3980SOL    HW212840   5.395   4.377   3.878
 3981SOL     OW12841   6.959   0.754   6.661
 3981SOL    HW112842   6.890   0.802   6.716
 3981SOL    HW212843   0.026   0.756   6.709
 3982SOL     OW12844   1.972   3.143   4.172
 3982SOL    HW112845   1.921   3.069   4.130
 3982SOL    HW212846   1.912   3.196   4.231
 3983SOL     OW12847   2.725   1.257   2.888
 3983SOL    HW112848   2.651   1.323   2.894
 3983SOL    HW212849   2.764   1.241   2.978
 3984SOL     OW12850   1.206   5.910   2.429
 3984SOL    HW112851   1.304   5.930   2.435
 3984SOL    HW212852   1.154   5.978   2.481
 3985SOL     OW12853   1.619   2.772   1.449
 3985SOL    HW112854   1.524   2.773   1.481
 3985SOL    HW212855   1.674   2.714   1.508
 3986SOL     OW12856   0.884   1.380   3.066
 3986SOL    HW112857   0.847   1.454   3.010
 3986SOL    HW212858   0.980   1.397   3.086
 3987SOL     OW12859   1.493   4.371   5.365
 3987SOL    HW112860   1.520   4.461   5.329
 3987SOL    HW212861   1.443   4.383   5.451
 3988SOL     OW12862   5.053   5.957   2.304
 3988SOL    HW112863   5.061   6.013   2.387
 3988SOL    HW212864   5.014   5.868   2.328
 3989SOL     OW12865   4.432   0.710   6.256
 3989SOL    HW112866   4.437   0.769   6.175
 3989SOL    HW212867   4.387   0.759   6.331
 3990SOL     OW12868   6.240   6.664   3.887
 3990SOL    HW112869   6.323   6.688   3.836
 3990SOL    HW212870   6.260   6.660   3.984
 3991SOL     OW12871   6.598   2.390   4.167
 3991SOL    HW112872   6.598   2.339   4.253
 3991SOL    HW212873   6.596   2.326   4.090
 3992SOL     OW12874   5.736   3.514   5.648
 3992SOL    HW112875   5.732   3.612   5.625
 3992SOL    HW212876   5.664   3.492   5.713
 3993SOL     OW12877   1.402   0.969   4.309
 3993SOL    HW112878   1.320   1.017   4.281
 3993SOL    HW212879   1.392   0.938   4.404
 3994SOL     OW12880   3.140   2.171   3.646
 3994SOL    HW112881   3.191   2.183   3.560
 3994SOL    HW212882   3.067   2.104   3.632
 3995SOL     OW12883   1.472   3.580   2.071
 3995SOL    HW112884   1.532   3.543   2.001
 3995SOL    HW212885   1.428   3.663   2.037
 3996SOL     OW12886   0.367   6.209   4.922
 3996SOL    HW112887   0.281   6.194   4.873
 3996SOL    HW212888   0.428   6.131   4.908
 3997SOL     OW12889   6.056   3.412   4.803
 3997SOL    HW112890   6.099   3.502   4.816
 3997SOL    HW212891   5.965   3.413   4.843
 3998SOL     OW12892   4.271   2.269   2.636
 3998SOL    HW112893   4.341   2.328   2.598
 3998SOL    HW212894   4.215   2.230   2.563
 3999SOL     OW12895   4.819   3.344   1.168
 3999SOL    HW112896   4.842   3.415   1.235
 3999SOL    HW212897   4.773   3.386   1.090
 4000SOL     OW12898   2.285   4.600   2.344
 4000SOL    HW112899   2.205   4.594   2.404
 4000SOL    HW212900   2.311   4.696   2.333
 4001SOL     OW12901   0.815   5.706   3.907
 4001SOL    HW112902   0.726   5.663   3.889
 4001SOL    HW212903   0.844   5.757   3.827
 4002SOL     OW12904   3.792   4.167   4.870
 4002SOL    HW112905   3.701   4.140   4.902
 4002SOL    HW212906   3.794   4.168   4.770
 4003SOL     OW12907   2.556   1.701   4.265
 4003SOL    HW112908   2.654   1.685   4.254
 4003SOL    HW212909   2.510   1.692   4.176
 4004SOL     OW12910   1.752   3.706   5.038
 4004SOL    HW112911   1.836   3.660   5.010
 4004SOL    HW212912   1.748   3.796   4.996
 4005SOL     OW12913   5.722   2.569   1.496
 4005SOL    HW112914   5.686   2.519   1.574
 4005SOL    HW212915   5.742   2.663   1.522
 4006SOL     OW12916   0.472   6.097   2.240
 4006SOL    HW112917   0.493   6.008   2.281
 4006SOL    HW212918   0.539   6.165   2.271
 4007SOL     OW12919   0.338   1.490   1.436
 4007SOL    HW112920   0.432   1.456   1.445
 4007SOL    HW212921   0.274   1.417   1.461
 4008SOL     OW12922   3.840   0.893   1.336
 4008SOL    HW112923   3.808   0.802   1.363
 4008SOL    HW212924   3.920   0.918   1.391
 4009SOL     OW12925   3.623   2.518   1.090
 4009SOL    HW112926   3.638   2.586   1.162
 4009SOL    HW212927   3.572   2.560   1.014
 4010SOL     OW12928   1.375   5.115   1.075
 4010SOL    HW112929   1.459   5.065   1.095
 4010SOL    HW212930   1.378   5.204   1.120
 4011SOL     OW12931   5.868   6.648   6.685
 4011SOL    HW112932   5.905   6.740   6.697
 4011SOL    HW212933   5.867   6.625   6.588
 4012SOL     OW12934   5.455   4.829   1.565
 4012SOL    HW112935   5.462   4.928   1.561
 4012SOL    HW212936   5.468   4.790   1.474
 4013SOL     OW12937   6.831   1.955   6.820
 4013SOL    HW112938   6.816   1.870   6.770
 4013SOL    HW212939   6.923   1.954   6.860
 4014SOL     OW12940   3.218   6.256   2.780
 4014SOL    HW112941   3.207   6.157   2.773
 4014SOL    HW212942   3.182   6.299   2.697
 4015SOL     OW12943   3.824   6.355   4.559
 4015SOL    HW112944   3.914   6.320   4.537
 4015SOL    HW212945   3.827   6.403   4.647
 4016SOL     OW12946   4.706   4.948   4.401
 4016SOL    HW112947   4.623   4.918   4.354
 4016SOL    HW212948   4.764   4.870   4.419
 4017SOL     OW12949   1.828   6.292   5.857
 4017SOL    HW112950   1.914   6.254   5.893
 4017SOL    HW212951   1.848   6.355   5.783
 4018SOL     OW12952   5.065   5.458   0.660
 4018SOL    HW112953   5.014   5.400   0.723
 4018SOL    HW212954   5.092   5.405   0.579
 4019SOL     OW12955   0.657   2.329   3.000
 4019SOL    HW112956   0.621   2.393   2.931
 4019SOL    HW212957   0.755   2.316   2.984
 4020SOL     OW12958   6.893   5.818   4.229
 4020SOL    HW112959   6.828   5.831   4.153
 4020SOL    HW212960   6.869   5.879   4.304
 4021SOL     OW12961   4.587   5.173   5.828
 4021SOL    HW112962   4.644   5.214   5.899
 4021SOL    HW212963   4.597   5.074   5.830
 4022SOL     OW12964   3.606   0.178   1.423
 4022SOL    HW112965   3.517   0.223   1.425
 4022SOL    HW212966   3.596   0.082   1.449
 4023SOL     OW12967   0.579   1.924   4.276
 4023SOL    HW112968   0.513   1.873   4.221
 4023SOL    HW212969   0.670   1.915   4.235
 4024SOL     OW12970   0.722   6.616   6.257
 4024SOL    HW112971   0.821   6.627   6.253
 4024SOL    HW212972   0.695   6.592   6.350
 4025SOL     OW12973   0.947   4.278   4.361
 4025SOL    HW112974   0.870   4.229   4.321
 4025SOL    HW212975   0.913   4.347   4.425
 4026SOL     OW12976   0.703   6.594   4.424
 4026SOL    HW112977   0.771   6.538   4.376
 4026SOL    HW212978   0.646   6.642   4.358
 4027SOL     OW12979   2.998   5.659   4.950
 4027SOL    HW112980   2.972   5.693   4.860
 4027SOL    HW212981   3.008   5.559   4.945
 4028SOL     OW12982   4.429   1.498   4.743
 4028SOL    HW112983   4.360   1.538   4.803
 4028SOL    HW212984   4.509   1.558   4.739
 4029SOL     OW12985   1.941   6.748   0.622
 4029SOL    HW112986   1.915   6.656   0.651
 4029SOL    HW212987   1.985   6.796   0.698
 4030SOL     OW12988   0.923   1.342   1.852
 4030SOL    HW112989   0.993   1.386   1.910
 4030SOL    HW212990   0.877   1.270   1.905
 4031SOL     OW12991   6.008   5.853   0.577
 4031SOL    HW112992   5.923   5.808   0.605
 4031SOL    HW212993   6.083   5.823   0.637
 4032SOL     OW12994   4.867   2.265   1.980
 4032SOL    HW112995   4.812   2.199   2.032
 4032SOL    HW212996   4.827   2.279   1.890
 4033SOL     OW12997   1.611   3.721   2.813
 4033SOL    HW112998   1.611   3.632   2.858
 4033SOL    HW212999   1.538   3.778   2.851
 4034SOL     OW13000   2.418   2.254   4.794
 4034SOL    HW113001   2.509   2.294   4.804
 4034SOL    HW213002   2.424   2.171   4.739
 4035SOL     OW13003   3.623   2.625   1.723
 4035SOL    HW113004   3.661   2.557   1.785
 4035SOL    HW213005   3.524   2.611   1.714
 4036SOL     OW13006   4.215   6.448   3.533
 4036SOL    HW113007   4.243   6.362   3.576
 4036SOL    HW213008   4.296   6.492   3.493
 4037SOL     OW13009   1.662   1.365   5.658
 4037SOL    HW113010   1.681   1.333   5.751
 4037SOL    HW213011   1.691   1.460   5.650
 4038SOL     OW13012   4.048   4.897   5.690
 4038SOL    HW113013   4.037   4.949   5.605
 4038SOL    HW213014   3.991   4.937   5.762
 4039SOL     OW13015   6.101   4.703   1.376
 4039SOL    HW113016   6.027   4.751   1.423
 4039SOL    HW213017   6.174   4.683   1.441
 4040SOL     OW13018   2.183   6.564   4.993
 4040SOL    HW113019   2.201   6.484   5.050
 4040SOL    HW213020   2.142   6.636   5.049
 4041SOL     OW13021   1.707   6.132   1.673
 4041SOL    HW113022   1.745   6.055   1.725
 4041SOL    HW213023   1.719   6.217   1.726
 4042SOL     OW13024   1.009   1.450   4.048
 4042SOL    HW113025   0.996   1.456   3.949
 4042SOL    HW213026   1.069   1.373   4.070
 4043SOL     OW13027   3.480   2.649   5.901
 4043SOL    HW113028   3.447   2.694   5.819
 4043SOL    HW213029   3.580   2.644   5.899
 4044SOL     OW13030   4.676   4.351   3.099
 4044SOL    HW113031   4.597   4.407   3.075
 4044SOL    HW213032   4.688   4.352   3.198
 4045SOL     OW13033   4.427   1.231   5.145
 4045SOL    HW113034   4.374   1.202   5.065
 4045SOL    HW213035   4.385   1.312   5.185
 4046SOL     OW13036   5.110   1.210   3.824
 4046SOL    HW113037   5.085   1.306   3.814
 4046SOL    HW213038   5.118   1.168   3.734
 4047SOL     OW13039   2.860   2.571   6.231
 4047SOL    HW113040   2.766   2.590   6.201
 4047SOL    HW213041   2.923   2.586   6.154
 4048SOL     OW13042   4.855   2.161   3.501
 4048SOL    HW113043   4.893   2.081   3.453
 4048SOL    HW213044   4.892   2.163   3.594
 4049SOL     OW13045   3.970   3.943   2.472
 4049SOL    HW113046   3.982   4.015   2.404
 4049SOL    HW213047   3.961   3.854   2.426
 4050SOL     OW13048   6.813   4.692   3.370
 4050SOL    HW113049   6.819   4.671   3.467
 4050SOL    HW213050   6.788   4.609   3.319
 4051SOL     OW13051   6.037   1.024   4.166
 4051SOL    HW113052   5.966   0.966   4.126
 4051SOL    HW213053   6.017   1.120   4.146
 4052SOL     OW13054   4.662   1.416   4.359
 4052SOL    HW113055   4.581   1.377   4.402
 4052SOL    HW213056   4.681   1.506   4.398
 4053SOL     OW13057   0.671   3.978   3.300
 4053SOL    HW113058   0.589   3.932   3.264
 4053SOL    HW213059   0.752   3.944   3.252
 4054SOL     OW13060   5.403   3.696   1.748
 4054SOL    HW113061   5.398   3.729   1.843
 4054SOL    HW213062   5.316   3.656   1.722
 4055SOL     OW13063   0.339   4.685   6.925
 4055SOL    HW113064   0.314   4.605   6.871
 4055SOL    HW213065   0.428   4.719   6.895
 4056SOL     OW13066   4.506   4.005   0.081
 4056SOL    HW113067   4.454   4.054   0.011
 4056SOL    HW213068   4.539   4.070   0.149
 4057SOL     OW13069   6.875   4.384   6.022
 4057SOL    HW113070   6.860   4.443   5.943
 4057SOL    HW213071   6.906   4.440   6.100
 4058SOL     OW13072   3.764   0.857   4.456
 4058SOL    HW113073   3.666   0.846   4.443
 4058SOL    HW213074   3.811   0.774   4.426
 4059SOL     OW13075   1.287   1.252   3.986
 4059SOL    HW113076   1.269   1.241   3.888
 4059SOL    HW213077   1.368   1.309   3.999
 4060SOL     OW13078   0.120   6.537   4.057
 4060SOL    HW113079   0.069   6.478   3.995
 4060SOL    HW213080   0.152   6.483   4.136
 4061SOL     OW13081   1.598   4.202   2.199
 4061SOL    HW113082   1.618   4.155   2.113
 4061SOL    HW213083   1.576   4.135   2.270
 4062SOL     OW13084   2.716   4.397   0.350
 4062SOL    HW113085   2.797   4.455   0.345
 4062SOL    HW213086   2.667   4.414   0.435
 4063SOL     OW13087   3.528   1.054   0.644
 4063SOL    HW113088   3.596   1.038   0.715
 4063SOL    HW213089   3.447   1.097   0.684
 4064SOL     OW13090   2.552   0.422   4.597
 4064SOL    HW113091   2.461   0.457   4.573
 4064SOL    HW213092   2.578   0.457   4.687
 4065SOL     OW13093   2.198   1.460   0.891
 4065SOL    HW113094   2.238   1.506   0.970
 4065SOL    HW213095   2.270   1.436   0.826
 4066SOL     OW13096   0.575   3.512   4.393
 4066SOL    HW113097   0.622   3.429   4.424
 4066SOL    HW213098   0.576   3.580   4.465
 4067SOL     OW13099   6.006   4.427   0.914
 4067SOL    HW113100   6.050   4.485   0.983
 4067SOL    HW213101   5.965   4.348   0.959
 4068SOL     OW13102   1.960   2.834   5.870
 4068SOL    HW113103   2.028   2.770   5.833
 4068SOL    HW213104   1.944   2.907   5.803
 4069SOL     OW13105   4.395   6.924   5.776
 4069SOL    HW113106   4.437   6.837   5.802
 4069SOL    HW213107   4.295   6.915   5.780
 4070SOL     OW13108   2.025   4.061   4.139
 4070SOL    HW113109   2.012   4.151   4.179
 4070SOL    HW213110   2.073   4.002   4.204
 4071SOL     OW13111   1.450   0.414   5.224
 4071SOL    HW113112   1.532   0.357   5.216
 4071SOL    HW213113   1.466   0.485   5.293
 4072SOL     OW13114   3.062   6.645   2.683
 4072SOL    HW113115   3.018   6.571   2.733
 4072SOL    HW213116   2.992   6.705   2.644
 4073SOL     OW13117   4.456   5.164   6.855
 4073SOL    HW113118   4.431   5.198   6.765
 4073SOL    HW213119   4.469   5.065   6.852
 4074SOL     OW13120   1.645   5.731   2.356
 4074SOL    HW113121   1.593   5.665   2.409
 4074SOL    HW213122   1.669   5.809   2.414
 4075SOL     OW13123   5.983   0.693   6.944
 4075SOL    HW113124   5.994   0.631   6.867
 4075SOL    HW213125   5.913   0.761   6.922
 4076SOL     OW13126   2.199   6.169   3.817
 4076SOL    HW113127   2.157   6.135   3.732
 4076SOL    HW213128   2.229   6.091   3.872
 4077SOL     OW13129   2.368   2.080   1.642
 4077SOL    HW113130   2.405   2.166   1.606
 4077SOL    HW213131   2.421   2.051   1.721
 4078SOL     OW13132   4.408   5.159   1.975
 4078SOL    HW113133   4.497   5.190   1.942
 4078SOL    HW213134   4.346   5.237   1.983
 4079SOL     OW13135   0.775   2.073   3.894
 4079SOL    HW113136   0.782   2.039   3.988
 4079SOL    HW213137   0.751   2.170   3.895
 4080SOL     OW13138   6.061   1.892   4.337
 4080SOL    HW113139   6.160   1.883   4.350
 4080SOL    HW213140   6.042   1.971   4.279
 4081SOL     OW13141   6.722   3.261   2.738
 4081SOL    HW113142   6.747   3.326   2.667
 4081SOL    HW213143   6.789   3.265   2.812
 4082SOL     OW13144   0.226   3.446   0.318
 4082SOL    HW113145   0.169   3.423   0.396
 4082SOL    HW213146   0.301   3.380   0.311
 4083SOL     OW13147   6.701   3.198   5.219
 4083SOL    HW113148   6.740   3.130   5.156
 4083SOL    HW213149   6.748   3.285   5.206
 4084SOL     OW13150   5.267   1.014   4.360
 4084SOL    HW113151   5.296   1.075   4.286
 4084SOL    HW213152   5.229   0.930   4.321
 4085SOL     OW13153   3.104   5.176   6.757
 4085SOL    HW113154   3.122   5.141   6.849
 4085SOL    HW213155   3.154   5.261   6.743
 4086SOL     OW13156   0.663   2.406   1.496
 4086SOL    HW113157   0.638   2.313   1.525
 4086SOL    HW213158   0.746   2.402   1.441
 4087SOL     OW13159   2.138   1.611   3.267
 4087SOL    HW113160   2.176   1.703   3.277
 4087SOL    HW213161   2.162   1.574   3.177
 4088SOL     OW13162   6.963   2.379   6.714
 4088SOL    HW113163   0.006   2.319   6.667
 4088SOL    HW213164   6.870   2.344   6.702
 4089SOL     OW13165   0.340   1.624   5.780
 4089SOL    HW113166   0.376   1.542   5.735
 4089SOL    HW213167   0.253   1.602   5.824
 4090SOL     OW13168   3.173   5.383   6.289
 4090SOL    HW113169   3.208   5.290   6.303
 4090SOL    HW213170   3.098   5.381   6.223
 4091SOL     OW13171   4.433   6.704   1.544
 4091SOL    HW113172   4.354   6.684   1.485
 4091SOL    HW213173   4.411   6.679   1.638
 4092SOL     OW13174   0.856   1.333   4.324
 4092SOL    HW113175   0.825   1.260   4.262
 4092SOL    HW213176   0.806   1.417   4.302
 4093SOL     OW13177   5.062   6.475   4.218
 4093SOL    HW113178   5.019   6.442   4.303
 4093SOL    HW213179   5.054   6.574   4.213
 4094SOL     OW13180   3.326   3.371   6.566
 4094SOL    HW113181   3.350   3.375   6.469
 4094SOL    HW213182   3.363   3.287   6.607
 4095SOL     OW13183   1.581   3.568   5.706
 4095SOL    HW113184   1.565   3.518   5.791
 4095SOL    HW213185   1.618   3.658   5.727
 4096SOL     OW13186   4.651   4.961   1.789
 4096SOL    HW113187   4.688   4.987   1.700
 4096SOL    HW213188   4.581   4.890   1.777
 4097SOL     OW13189   3.798   4.047   3.401
 4097SOL    HW113190   3.837   4.125   3.451
 4097SOL    HW213191   3.833   3.962   3.440
 4098SOL     OW13192   1.279   3.410   2.143
 4098SOL    HW113193   1.184   3.439   2.125
 4098SOL    HW213194   1.341   3.485   2.121
 4099SOL     OW13195   2.337   6.415   1.711
 4099SOL    HW113196   2.315   6.318   1.718
 4099SOL    HW213197   2.436   6.426   1.701
 4100SOL     OW13198   3.542   6.895   2.707
 4100SOL    HW113199   3.537   6.796   2.716
 4100SOL    HW213200   3.606   6.932   2.775
 4101SOL     OW13201   4.479   1.664   6.817
 4101SOL    HW113202   4.432   1.605   6.751
 4101SOL    HW213203   4.456   1.759   6.799
 4102SOL     OW13204   4.317   1.331   6.237
 4102SOL    HW113205   4.368   1.414   6.215
 4102SOL    HW213206   4.339   1.303   6.330
 4103SOL     OW13207   0.089   0.505   1.733
 4103SOL    HW113208   0.034   0.540   1.809
 4103SOL    HW213209   0.104   0.407   1.745
 4104SOL     OW13210   2.164   4.187   2.120
 4104SOL    HW113211   2.137   4.250   2.047
 4104SOL    HW213212   2.227   4.234   2.182
 4105SOL     OW13213   6.199   5.443   0.413
 4105SOL    HW113214   6.250   5.457   0.497
 4105SOL    HW213215   6.114   5.393   0.433
 4106SOL     OW13216   0.358   3.816   4.287
 4106SOL    HW113217   0.429   3.828   4.356
 4106SOL    HW213218   0.287   3.754   4.322
 4107SOL     OW13219   0.223   1.027   1.007
 4107SOL    HW113220   0.254   1.062   0.919
 4107SOL    HW213221   0.129   0.995   0.999
 4108SOL     OW13222   6.208   2.666   5.126
 4108SOL    HW113223   6.259   2.751   5.112
 4108SOL    HW213224   6.260   2.590   5.089
 4109SOL     OW13225   2.465   6.912   3.929
 4109SOL    HW113226   2.537   6.875   3.871
 4109SOL    HW213227   2.411   6.837   3.967
 4110SOL     OW13228   4.828   3.294   5.176
 4110SOL    HW113229   4.915   3.309   5.129
 4110SOL    HW213230   4.760   3.359   5.142
 4111SOL     OW13231   3.886   2.996   6.364
 4111SOL    HW113232   3.885   3.020   6.461
 4111SOL    HW213233   3.904   3.078   6.310
 4112SOL     OW13234   4.396   0.544   5.811
 4112SOL    HW113235   4.478   0.543   5.754
 4112SOL    HW213236   4.332   0.613   5.775
 4113SOL     OW13237   3.709   5.332   4.320
 4113SOL    HW113238   3.658   5.344   4.405
 4113SOL    HW213239   3.718   5.421   4.274
 4114SOL     OW13240   3.608   2.117   3.531
 4114SOL    HW113241   3.643   2.026   3.513
 4114SOL    HW213242   3.555   2.116   3.616
 4115SOL     OW13243   4.876   3.914   3.138
 4115SOL    HW113244   4.828   3.971   3.205
 4115SOL    HW213245   4.901   3.969   3.059
 4116SOL     OW13246   2.892   0.977   2.052
 4116SOL    HW113247   2.829   1.030   2.108
 4116SOL    HW213248   2.850   0.889   2.029
 4117SOL     OW13249   1.142   6.009   1.869
 4117SOL    HW113250   1.186   6.100   1.868
 4117SOL    HW213251   1.208   5.941   1.837
 4118SOL     OW13252   1.555   0.302   6.941
 4118SOL    HW113253   1.507   0.350   6.868
 4118SOL    HW213254   1.497   0.229   6.976
 4119SOL     OW13255   5.730   1.834   3.200
 4119SOL    HW113256   5.783   1.768   3.253
 4119SOL    HW213257   5.632   1.819   3.214
 4120SOL     OW13258   5.560   1.214   2.279
 4120SOL    HW113259   5.470   1.212   2.322
 4120SOL    HW213260   5.631   1.197   2.348
 4121SOL     OW13261   6.061   2.378   3.980
 4121SOL    HW113262   6.049   2.466   3.935
 4121SOL    HW213263   5.972   2.342   4.008
 4122SOL     OW13264   2.184   5.080   0.001
 4122SOL    HW113265   2.227   5.102   0.088
 4122SOL    HW213266   2.109   5.143   7.005
 4123SOL     OW13267   4.153   4.041   5.346
 4123SOL    HW113268   4.221   3.970   5.363
 4123SOL    HW213269   4.070   4.021   5.398
 4124SOL     OW13270   4.589   6.628   3.168
 4124SOL    HW113271   4.609   6.569   3.090
 4124SOL    HW213272   4.591   6.724   3.139
 4125SOL     OW13273   4.654   1.308   1.631
 4125SOL    HW113274   4.723   1.256   1.681
 4125SOL    HW213275   4.610   1.374   1.692
 4126SOL     OW13276   2.139   3.703   4.749
 4126SOL    HW113277   2.216   3.685   4.810
 4126SOL    HW213278   2.070   3.757   4.796
 4127SOL     OW13279   5.306   4.509   4.363
 4127SOL    HW113280   5.306   4.606   4.386
 4127SOL    HW213281   5.319   4.498   4.265
 4128SOL     OW13282   7.005   1.702   1.863
 4128SOL    HW113283   0.042   1.756   1.802
 4128SOL    HW213284   6.942   1.763   1.911
 4129SOL     OW13285   6.963   3.121   6.775
 4129SOL    HW113286   6.937   3.183   6.849
 4129SOL    HW213287   0.009   3.055   6.809
 4130SOL     OW13288   6.391   1.826   1.529
 4130SOL    HW113289   6.417   1.896   1.463
 4130SOL    HW213290   6.396   1.864   1.622
 4131SOL     OW13291   6.910   3.046   2.934
 4131SOL    HW113292   6.828   2.995   2.909
 4131SOL    HW213293   6.989   2.984   2.934
 4132SOL     OW13294   4.776   1.725   4.592
 4132SOL    HW113295   4.742   1.726   4.686
 4132SOL    HW213296   4.702   1.749   4.529
 4133SOL     OW13297   2.701   2.333   1.056
 4133SOL    HW113298   2.668   2.250   1.101
 4133SOL    HW213299   2.705   2.407   1.123
 4134SOL     OW13300   2.037   0.951   0.180
 4134SOL    HW113301   2.084   1.038   0.196
 4134SOL    HW213302   1.981   0.929   0.259
 4135SOL     OW13303   1.720   0.282   0.948
 4135SOL    HW113304   1.722   0.232   0.862
 4135SOL    HW213305   1.626   0.288   0.981
 4136SOL     OW13306   1.007   1.922   3.549
 4136SOL    HW113307   1.010   1.965   3.459
 4136SOL    HW213308   1.081   1.856   3.557
 4137SOL     OW13309   4.003   3.153   5.364
 4137SOL    HW113310   3.945   3.080   5.326
 4137SOL    HW213311   3.997   3.233   5.304
 4138SOL     OW13312   4.801   5.691   1.694
 4138SOL    HW113313   4.793   5.788   1.719
 4138SOL    HW213314   4.892   5.658   1.719
 4139SOL     OW13315   2.906   1.893   0.279
 4139SOL    HW113316   2.887   1.991   0.265
 4139SOL    HW213317   2.975   1.863   0.214
 4140SOL     OW13318   4.766   2.128   5.313
 4140SOL    HW113319   4.781   2.115   5.215
 4140SOL    HW213320   4.854   2.138   5.359
 4141SOL     OW13321   5.024   6.357   1.061
 4141SOL    HW113322   5.083   6.321   0.989
 4141SOL    HW213323   5.058   6.328   1.150
 4142SOL     OW13324   5.900   3.244   1.768
 4142SOL    HW113325   5.985   3.219   1.816
 4142SOL    HW213326   5.887   3.343   1.773
 4143SOL     OW13327   1.246   2.959   1.635
 4143SOL    HW113328   1.205   2.870   1.658
 4143SOL    HW213329   1.238   3.020   1.714
 4144SOL     OW13330   4.046   0.795   2.185
 4144SOL    HW113331   4.083   0.833   2.100
 4144SOL    HW213332   4.061   0.696   2.186
 4145SOL     OW13333   2.859   0.269   3.680
 4145SOL    HW113334   2.877   0.283   3.583
 4145SOL    HW213335   2.883   0.351   3.731
 4146SOL     OW13336   5.060   4.281   0.458
 4146SOL    HW113337   4.960   4.282   0.452
 4146SOL    HW213338   5.091   4.191   0.488
 4147SOL     OW13339   2.296   2.153   5.885
 4147SOL    HW113340   2.335   2.083   5.945
 4147SOL    HW213341   2.322   2.134   5.790
 4148SOL     OW13342   6.952   0.043   2.421
 4148SOL    HW113343   6.867   0.062   2.371
 4148SOL    HW213344   6.930   0.010   2.513
 4149SOL     OW13345   4.808   4.297   2.123
 4149SOL    HW113346   4.740   4.274   2.053
 4149SOL    HW213347   4.767   4.285   2.214
 4150SOL     OW13348   3.897   0.323   5.096
 4150SOL    HW113349   3.961   0.359   5.028
 4150SOL    HW213350   3.838   0.397   5.129
 4151SOL     OW13351   0.488   5.549   0.373
 4151SOL    HW113352   0.396   5.587   0.368
 4151SOL    HW213353   0.549   5.615   0.417
 4152SOL     OW13354   3.386   4.058   0.955
 4152SOL    HW113355   3.336   4.003   1.022
 4152SOL    HW213356   3.457   4.001   0.913
 4153SOL     OW13357   6.380   5.888   6.077
 4153SOL    HW113358   6.331   5.802   6.092
 4153SOL    HW213359   6.314   5.964   6.075
 4154SOL     OW13360   4.512   2.569   4.723
 4154SOL    HW113361   4.590   2.619   4.762
 4154SOL    HW213362   4.541   2.523   4.639
 4155SOL     OW13363   1.834   2.831   0.344
 4155SOL    HW113364   1.744   2.795   0.318
 4155SOL    HW213365   1.892   2.756   0.375
 4156SOL     OW13366   5.985   0.675   5.167
 4156SOL    HW113367   6.045   0.720   5.234
 4156SOL    HW213368   5.894   0.717   5.170
 4157SOL     OW13369   3.460   0.717   3.312
 4157SOL    HW113370   3.438   0.811   3.336
 4157SOL    HW213371   3.523   0.716   3.235
 4158SOL     OW13372   0.799   0.655   3.388
 4158SOL    HW113373   0.804   0.754   3.377
 4158SOL    HW213374   0.705   0.624   3.374
 4159SOL     OW13375   0.165   4.560   5.369
 4159SOL    HW113376   0.149   4.622   5.446
 4159SOL    HW213377   0.174   4.466   5.403
 4160SOL     OW13378   0.118   0.483   1.040
 4160SOL    HW113379   0.152   0.550   0.975
 4160SOL    HW213380   0.158   0.394   1.020
 4161SOL     OW13381   6.180   1.798   1.094
 4161SOL    HW113382   6.186   1.705   1.130
 4161SOL    HW213383   6.228   1.803   1.006
 4162SOL     OW13384   1.101   6.906   5.320
 4162SOL    HW113385   1.183   6.858   5.287
 4162SOL    HW213386   1.058   6.852   5.392
 4163SOL     OW13387   6.739   1.684   5.432
 4163SOL    HW113388   6.710   1.690   5.528
 4163SOL    HW213389   6.710   1.596   5.394
 4164SOL     OW13390   2.917   6.606   5.585
 4164SOL    HW113391   2.858   6.599   5.665
 4164SOL    HW213392   2.912   6.521   5.532
 4165SOL     OW13393   1.757   6.420   1.746
 4165SOL    HW113394   1.855   6.432   1.760
 4165SOL    HW213395   1.733   6.448   1.653
 4166SOL     OW13396   6.177   2.076   2.503
 4166SOL    HW113397   6.143   2.054   2.594
 4166SOL    HW213398   6.171   2.175   2.488
 4167SOL     OW13399   1.772   2.718   1.192
 4167SOL    HW113400   1.731   2.740   1.281
 4167SOL    HW213401   1.812   2.627   1.196
 4168SOL     OW13402   2.068   5.731   0.993
 4168SOL    HW113403   2.116   5.674   0.927
 4168SOL    HW213404   2.097   5.705   1.086
 4169SOL     OW13405   6.467   3.414   6.694
 4169SOL    HW113406   6.550   3.469   6.704
 4169SOL    HW213407   6.391   3.472   6.665
 4170SOL     OW13408   3.215   0.889   5.642
 4170SOL    HW113409   3.178   0.981   5.629
 4170SOL    HW213410   3.306   0.883   5.600
 4171SOL     OW13411   6.110   3.178   1.928
 4171SOL    HW113412   6.146   3.100   1.876
 4171SOL    HW213413   6.185   3.223   1.977
 4172SOL     OW13414   2.792   0.818   1.261
 4172SOL    HW113415   2.796   0.729   1.217
 4172SOL    HW213416   2.792   0.890   1.191
 4173SOL     OW13417   4.147   3.727   5.707
 4173SOL    HW113418   4.170   3.787   5.784
 4173SOL    HW213419   4.224   3.666   5.688
 4174SOL     OW13420   4.802   1.001   3.306
 4174SOL    HW113421   4.712   1.044   3.320
 4174SOL    HW213422   4.866   1.069   3.272
 4175SOL     OW13423   2.512   1.337   2.446
 4175SOL    HW113424   2.577   1.273   2.405
 4175SOL    HW213425   2.517   1.331   2.545
 4176SOL     OW13426   6.060   4.882   3.041
 4176SOL    HW113427   5.969   4.842   3.047
 4176SOL    HW213428   6.057   4.964   2.984
 4177SOL     OW13429   0.039   5.252   3.076
 4177SOL    HW113430   0.067   5.265   3.171
 4177SOL    HW213431   0.062   5.160   3.045
 4178SOL     OW13432   4.270   2.423   5.416
 4178SOL    HW113433   4.205   2.454   5.347
 4178SOL    HW213434   4.223   2.364   5.482
 4179SOL     OW13435   6.670   1.742   0.076
 4179SOL    HW113436   6.611   1.807   0.124
 4179SOL    HW213437   6.725   1.691   0.142
 4180SOL     OW13438   5.507   3.745   1.487
 4180SOL    HW113439   5.604   3.770   1.486
 4180SOL    HW213440   5.479   3.721   1.580
 4181SOL     OW13441   6.356   1.138   0.702
 4181SOL    HW113442   6.321   1.149   0.609
 4181SOL    HW213443   6.359   1.227   0.747
 4182SOL     OW13444   6.067   0.922   3.629
 4182SOL    HW113445   5.980   0.879   3.653
 4182SOL    HW213446   6.057   0.970   3.542
 4183SOL     OW13447   1.163   0.640   1.946
 4183SOL    HW113448   1.159   0.546   1.980
 4183SOL    HW213449   1.142   0.642   1.848
 4184SOL     OW13450   4.279   4.201   6.247
 4184SOL    HW113451   4.228   4.235   6.168
 4184SOL    HW213452   4.296   4.103   6.236
 4185SOL     OW13453   0.184   0.474   4.070
 4185SOL    HW113454   0.090   0.488   4.040
 4185SOL    HW213455   0.187   0.403   4.140
 4186SOL     OW13456   3.655   3.922   1.801
 4186SOL    HW113457   3.742   3.967   1.822
 4186SOL    HW213458   3.585   3.955   1.863
 4187SOL     OW13459   4.378   5.337   5.928
 4187SOL    HW113460   4.391   5.423   5.879
 4187SOL    HW213461   4.448   5.272   5.899
 4188SOL     OW13462   4.893   5.852   3.130
 4188SOL    HW113463   4.925   5.942   3.160
 4188SOL    HW213464   4.959   5.814   3.065
 4189SOL     OW13465   1.230   3.273   3.089
 4189SOL    HW113466   1.280   3.200   3.042
 4189SOL    HW213467   1.143   3.289   3.042
 4190SOL     OW13468   2.231   6.784   1.861
 4190SOL    HW113469   2.281   6.793   1.775
 4190SOL    HW213470   2.236   6.689   1.893
 4191SOL     OW13471   0.456   2.051   3.694
 4191SOL    HW113472   0.426   2.139   3.731
 4191SOL    HW213473   0.481   1.990   3.769
 4192SOL     OW13474   6.064   6.318   3.930
 4192SOL    HW113475   6.060   6.229   3.886
 4192SOL    HW213476   6.155   6.358   3.917
 4193SOL     OW13477   1.460   6.945   4.151
 4193SOL    HW113478   1.385   6.935   4.086
 4193SOL    HW213479   1.545   6.963   4.101
 4194SOL     OW13480   5.345   0.472   2.925
 4194SOL    HW113481   5.426   0.415   2.941
 4194SOL    HW213482   5.347   0.507   2.831
 4195SOL     OW13483   4.641   0.252   3.683
 4195SOL    HW113484   4.585   0.170   3.696
 4195SOL    HW213485   4.582   0.332   3.671
 4196SOL     OW13486   4.952   2.487   3.175
 4196SOL    HW113487   4.993   2.453   3.091
 4196SOL    HW213488   4.857   2.456   3.181
 4197SOL     OW13489   5.183   3.970   4.426
 4197SOL    HW113490   5.275   3.989   4.461
 4197SOL    HW213491   5.175   3.872   4.405
 4198SOL     OW13492   5.974   3.379   5.656
 4198SOL    HW113493   5.894   3.436   5.638
 4198SOL    HW213494   6.056   3.436   5.656
 4199SOL     OW13495   3.133   4.081   5.778
 4199SOL    HW113496   3.063   4.088   5.707
 4199SOL    HW213497   3.177   4.170   5.790
 4200SOL     OW13498   3.390   0.436   6.505
 4200SOL    HW113499   3.455   0.403   6.573
 4200SOL    HW213500   3.297   0.411   6.532
 4201SOL     OW13501   6.585   0.109   4.724
 4201SOL    HW113502   6.620   0.202   4.716
 4201SOL    HW213503   6.631   0.062   4.799
 4202SOL     OW13504   5.799   3.172   4.947
 4202SOL    HW113505   5.871   3.102   4.953
 4202SOL    HW213506   5.739   3.164   5.026
 4203SOL     OW13507   3.837   5.508   4.637
 4203SOL    HW113508   3.744   5.489   4.666
 4203SOL    HW213509   3.897   5.512   4.717
 4204SOL     OW13510   1.697   3.939   0.426
 4204SOL    HW113511   1.787   3.903   0.449
 4204SOL    HW213512   1.682   4.026   0.474
 4205SOL     OW13513   2.611   6.399   3.547
 4205SOL    HW113514   2.587   6.324   3.608
 4205SOL    HW213515   2.565   6.387   3.459
 4206SOL     OW13516   4.904   6.249   3.741
 4206SOL    HW113517   4.833   6.179   3.755
 4206SOL    HW213518   4.953   6.264   3.827
 4207SOL     OW13519   1.266   6.363   0.162
 4207SOL    HW113520   1.215   6.336   0.244
 4207SOL    HW213521   1.237   6.306   0.085
 4208SOL     OW13522   0.900   2.239   1.522
 4208SOL    HW113523   0.878   2.175   1.596
 4208SOL    HW213524   0.925   2.327   1.561
 4209SOL     OW13525   2.806   0.307   5.780
 4209SOL    HW113526   2.852   0.235   5.728
 4209SOL    HW213527   2.731   0.267   5.832
 4210SOL     OW13528   3.634   3.094   0.395
 4210SOL    HW113529   3.542   3.075   0.430
 4210SOL    HW213530   3.700   3.094   0.471
 4211SOL     OW13531   5.839   3.516   4.197
 4211SOL    HW113532   5.824   3.551   4.290
 4211SOL    HW213533   5.900   3.438   4.200
 4212SOL     OW13534   5.879   0.026   1.816
 4212SOL    HW113535   5.819   6.969   1.835
 4212SOL    HW213536   5.974   0.002   1.837
 4213SOL     OW13537   0.716   6.837   1.327
 4213SOL    HW113538   0.774   6.790   1.261
 4213SOL    HW213539   0.738   6.934   1.328
 4214SOL     OW13540   2.512   5.909   3.400
 4214SOL    HW113541   2.448   5.842   3.438
 4214SOL    HW213542   2.596   5.910   3.455
 4215SOL     OW13543   1.309   6.025   6.824
 4215SOL    HW113544   1.317   5.947   6.761
 4215SOL    HW213545   1.392   6.080   6.819
 4216SOL     OW13546   2.555   2.780   5.316
 4216SOL    HW113547   2.519   2.870   5.290
 4216SOL    HW213548   2.479   2.717   5.331
 4217SOL     OW13549   6.544   0.814   4.390
 4217SOL    HW113550   6.452   0.785   4.417
 4217SOL    HW213551   6.550   0.914   4.396
 4218SOL     OW13552   3.062   5.542   2.912
 4218SOL    HW113553   3.005   5.464   2.936
 4218SOL    HW213554   3.156   5.525   2.940
 4219SOL     OW13555   4.952   0.152   2.950
 4219SOL    HW113556   4.990   0.106   2.870
 4219SOL    HW213557   5.001   0.237   2.966
 4220SOL     OW13558   0.155   4.598   2.838
 4220SOL    HW113559   0.144   4.664   2.764
 4220SOL    HW213560   0.214   4.523   2.807
 4221SOL     OW13561   5.156   6.413   6.341
 4221SOL    HW113562   5.149   6.380   6.247
 4221SOL    HW213563   5.154   6.336   6.405
 4222SOL     OW13564   2.608   2.565   0.111
 4222SOL    HW113565   2.646   2.524   0.194
 4222SOL    HW213566   2.634   2.662   0.108
 4223SOL     OW13567   4.025   3.651   3.169
 4223SOL    HW113568   4.027   3.552   3.156
 4223SOL    HW213569   3.945   3.689   3.124
 4224SOL     OW13570   3.568   2.209   5.693
 4224SOL    HW113571   3.614   2.120   5.703
 4224SOL    HW213572   3.632   2.275   5.653
 4225SOL     OW13573   5.198   6.748   4.629
 4225SOL    HW113574   5.240   6.658   4.643
 4225SOL    HW213575   5.239   6.814   4.691
 4226SOL     OW13576   2.517   2.001   2.392
 4226SOL    HW113577   2.593   2.033   2.335
 4226SOL    HW213578   2.551   1.982   2.484
 4227SOL     OW13579   5.341   4.190   0.537
 4227SOL    HW113580   5.267   4.124   0.545
 4227SOL    HW213581   5.319   4.272   0.590
 4228SOL     OW13582   4.307   5.629   3.332
 4228SOL    HW113583   4.385   5.641   3.271
 4228SOL    HW213584   4.335   5.576   3.412
 4229SOL     OW13585   4.004   4.894   4.809
 4229SOL    HW113586   3.907   4.871   4.824
 4229SOL    HW213587   4.059   4.811   4.818
 4230SOL     OW13588   1.974   1.106   6.072
 4230SOL    HW113589   1.995   1.201   6.046
 4230SOL    HW213590   1.961   1.051   5.989
 4231SOL     OW13591   4.042   6.326   6.176
 4231SOL    HW113592   4.104   6.248   6.171
 4231SOL    HW213593   4.082   6.404   6.128
 4232SOL     OW13594   1.257   4.094   1.637
 4232SOL    HW113595   1.341   4.107   1.585
 4232SOL    HW213596   1.272   4.122   1.732
 4233SOL     OW13597   5.228   5.234   1.490
 4233SOL    HW113598   5.240   5.150   1.543
 4233SOL    HW213599   5.318   5.271   1.467
 4234SOL     OW13600   3.824   3.588   5.939
 4234SOL    HW113601   3.861   3.534   6.015
 4234SOL    HW213602   3.757   3.654   5.974
 4235SOL     OW13603   0.591   4.023   4.651
 4235SOL    HW113604   0.546   4.111   4.636
 4235SOL    HW213605   0.608   4.010   4.748
 4236SOL     OW13606   0.990   3.780   4.428
 4236SOL    HW113607   0.916   3.818   4.372
 4236SOL    HW213608   1.078   3.817   4.397
 4237SOL     OW13609   5.322   3.692   5.597
 4237SOL    HW113610   5.361   3.601   5.606
 4237SOL    HW213611   5.246   3.690   5.532
 4238SOL     OW13612   4.724   4.937   5.023
 4238SOL    HW113613   4.719   4.996   4.942
 4238SOL    HW213614   4.799   4.967   5.081
 4239SOL     OW13615   5.010   5.236   5.415
 4239SOL    HW113616   5.090   5.254   5.471
 4239SOL    HW213617   4.961   5.322   5.398
 4240SOL     OW13618   2.668   4.567   6.130
 4240SOL    HW113619   2.695   4.648   6.182
 4240SOL    HW213620   2.726   4.558   6.050
 4241SOL     OW13621   3.317   2.056   1.367
 4241SOL    HW113622   3.333   1.960   1.346
 4241SOL    HW213623   3.325   2.110   1.284
 4242SOL     OW13624   2.858   0.490   1.858
 4242SOL    HW113625   2.939   0.441   1.826
 4242SOL    HW213626   2.882   0.586   1.874
 4243SOL     OW13627   1.791   1.901   1.817
 4243SOL    HW113628   1.708   1.944   1.781
 4243SOL    HW213629   1.766   1.839   1.892
 4244SOL     OW13630   2.848   6.918   0.840
 4244SOL    HW113631   2.795   6.896   0.759
 4244SOL    HW213632   2.928   6.972   0.814
 4245SOL     OW13633   0.287   1.550   1.139
 4245SOL    HW113634   0.187   1.556   1.140
 4245SOL    HW213635   0.320   1.538   1.233
 4246SOL     OW13636   4.061   1.883   3.553
 4246SOL    HW113637   4.122   1.820   3.505
 4246SOL    HW213638   4.062   1.972   3.508
 4247SOL     OW13639   2.344   5.577   6.777
 4247SOL    HW113640   2.350   5.479   6.799
 4247SOL    HW213641   2.343   5.629   6.862
 4248SOL     OW13642   2.776   0.023   2.544
 4248SOL    HW113643   2.778   0.095   2.475
 4248SOL    HW213644   2.809   0.059   2.631
 4249SOL     OW13645   6.167   0.770   5.343
 4249SOL    HW113646   6.267   0.767   5.335
 4249SOL    HW213647   6.141   0.845   5.404
 4250SOL     OW13648   0.880   5.478   4.332
 4250SOL    HW113649   0.872   5.562   4.279
 4250SOL    HW213650   0.854   5.400   4.274
 4251SOL     OW13651   4.746   2.123   5.008
 4251SOL    HW113652   4.733   2.025   5.021
 4251SOL    HW213653   4.834   2.139   4.963
 4252SOL     OW13654   0.749   7.002   6.504
 4252SOL    HW113655   0.845   6.982   6.522
 4252SOL    HW213656   0.694   6.921   6.526
 4253SOL     OW13657   3.893   6.914   2.869
 4253SOL    HW113658   3.892   6.820   2.903
 4253SOL    HW213659   3.955   6.921   2.791
 4254SOL     OW13660   0.889   1.068   5.295
 4254SOL    HW113661   0.934   1.157   5.287
 4254SOL    HW213662   0.821   1.058   5.223
 4255SOL     OW13663   1.175   3.006   4.077
 4255SOL    HW113664   1.081   2.993   4.046
 4255SOL    HW213665   1.186   2.968   4.169
 4256SOL     OW13666   5.829   6.236   0.930
 4256SOL    HW113667   5.757   6.242   0.861
 4256SOL    HW213668   5.842   6.140   0.956
 4257SOL     OW13669   0.315   0.877   2.205
 4257SOL    HW113670   0.288   0.959   2.255
 4257SOL    HW213671   0.335   0.804   2.269
 4258SOL     OW13672   2.599   6.122   0.958
 4258SOL    HW113673   2.657   6.041   0.948
 4258SOL    HW213674   2.633   6.179   1.033
 4259SOL     OW13675   0.901   6.556   0.199
 4259SOL    HW113676   0.951   6.469   0.201
 4259SOL    HW213677   0.803   6.538   0.210
 4260SOL     OW13678   0.183   0.606   5.305
 4260SOL    HW113679   0.262   0.612   5.244
 4260SOL    HW213680   0.204   0.545   5.381
 4261SOL     OW13681   2.323   6.793   3.633
 4261SOL    HW113682   2.375   6.708   3.623
 4261SOL    HW213683   2.230   6.779   3.598
 4262SOL     OW13684   1.504   3.690   4.880
 4262SOL    HW113685   1.432   3.736   4.933
 4262SOL    HW213686   1.575   3.657   4.941
 4263SOL     OW13687   3.719   0.664   2.663
 4263SOL    HW113688   3.773   0.630   2.740
 4263SOL    HW213689   3.662   0.740   2.693
 4264SOL     OW13690   4.384   1.905   6.783
 4264SOL    HW113691   4.306   1.937   6.729
 4264SOL    HW213692   4.404   1.972   6.855
 4265SOL     OW13693   3.179   6.568   6.808
 4265SOL    HW113694   3.137   6.623   6.736
 4265SOL    HW213695   3.120   6.490   6.830
 4266SOL     OW13696   1.309   4.343   2.631
 4266SOL    HW113697   1.272   4.433   2.654
 4266SOL    HW213698   1.368   4.312   2.706
 4267SOL     OW13699   1.830   3.853   3.607
 4267SOL    HW113700   1.779   3.925   3.653
 4267SOL    HW213701   1.886   3.803   3.674
 4268SOL     OW13702   1.469   4.081   6.189
 4268SOL    HW113703   1.499   4.070   6.284
 4268SOL    HW213704   1.387   4.027   6.173
 4269SOL     OW13705   1.745   1.720   4.469
 4269SOL    HW113706   1.777   1.627   4.487
 4269SOL    HW213707   1.753   1.739   4.371
 4270SOL     OW13708   4.111   4.177   1.167
 4270SOL    HW113709   4.032   4.126   1.133
 4270SOL    HW213710   4.083   4.268   1.195
 4271SOL     OW13711   6.063   0.424   0.464
 4271SOL    HW113712   6.098   0.340   0.504
 4271SOL    HW213713   6.054   0.494   0.534
 4272SOL     OW13714   6.397   1.586   5.523
 4272SOL    HW113715   6.434   1.586   5.429
 4272SOL    HW213716   6.473   1.589   5.588
 4273SOL     OW13717   3.566   5.962   3.757
 4273SOL    HW113718   3.492   5.907   3.720
 4273SOL    HW213719   3.639   5.970   3.690
 4274SOL     OW13720   6.764   0.345   1.604
 4274SOL    HW113721   6.746   0.358   1.701
 4274SOL    HW213722   6.833   0.411   1.573
 4275SOL     OW13723   5.896   1.311   4.431
 4275SOL    HW113724   5.844   1.396   4.421
 4275SOL    HW213725   5.833   1.235   4.448
 4276SOL     OW13726   1.774   0.757   2.906
 4276SOL    HW113727   1.741   0.839   2.860
 4276SOL    HW213728   1.865   0.775   2.945
 4277SOL     OW13729   6.402   5.169   2.997
 4277SOL    HW113730   6.371   5.250   2.947
 4277SOL    HW213731   6.501   5.162   2.992
 4278SOL     OW13732   0.622   7.015   1.739
 4278SOL    HW113733   0.562   0.030   1.668
 4278SOL    HW213734   0.569   6.997   1.822
 4279SOL     OW13735   1.387   3.611   3.163
 4279SOL    HW113736   1.309   3.647   3.111
 4279SOL    HW213737   1.372   3.515   3.184
 4280SOL     OW13738   2.787   6.478   6.290
 4280SOL    HW113739   2.736   6.393   6.277
 4280SOL    HW213740   2.772   6.513   6.382
 4281SOL     OW13741   6.621   6.922   2.780
 4281SOL    HW113742   6.627   6.928   2.680
 4281SOL    HW213743   6.548   6.859   2.805
 4282SOL     OW13744   5.189   4.784   2.103
 4282SOL    HW113745   5.193   4.684   2.105
 4282SOL    HW213746   5.129   4.816   2.177
 4283SOL     OW13747   6.100   1.453   5.021
 4283SOL    HW113748   6.004   1.481   5.024
 4283SOL    HW213749   6.146   1.499   4.945
 4284SOL     OW13750   4.974   6.215   0.030
 4284SOL    HW113751   4.875   6.217   0.012
 4284SOL    HW213752   4.991   6.242   0.125
 4285SOL     OW13753   2.868   1.384   6.389
 4285SOL    HW113754   2.878   1.300   6.335
 4285SOL    HW213755   2.805   1.368   6.465
 4286SOL     OW13756   5.475   6.354   0.001
 4286SOL    HW113757   5.425   6.292   0.062
 4286SOL    HW213758   5.562   6.379   0.042
 4287SOL     OW13759   4.310   0.322   0.836
 4287SOL    HW113760   4.298   0.252   0.907
 4287SOL    HW213761   4.400   0.311   0.794
 4288SOL     OW13762   6.996   6.631   2.243
 4288SOL    HW113763   6.994   6.531   2.239
 4288SOL    HW213764   6.951   6.661   2.327
 4289SOL     OW13765   0.304   4.156   5.884
 4289SOL    HW113766   0.269   4.066   5.857
 4289SOL    HW213767   0.404   4.153   5.890
 4290SOL     OW13768   0.085   1.245   2.916
 4290SOL    HW113769   7.007   1.258   2.928
 4290SOL    HW213770   0.125   1.208   3.000
 4291SOL     OW13771   4.607   4.908   5.819
 4291SOL    HW113772   4.679   4.870   5.878
 4291SOL    HW213773   4.602   4.855   5.734
 4292SOL     OW13774   6.558   6.940   0.335
 4292SOL    HW113775   6.518   6.884   0.407
 4292SOL    HW213776   6.637   6.893   0.295
 4293SOL     OW13777   4.087   2.575   5.745
 4293SOL    HW113778   4.092   2.667   5.784
 4293SOL    HW213779   4.079   2.507   5.818
 4294SOL     OW13780   3.251   2.143   0.165
 4294SOL    HW113781   3.180   2.169   0.231
 4294SOL    HW213782   3.288   2.054   0.190
 4295SOL     OW13783   4.245   6.523   2.443
 4295SOL    HW113784   4.328   6.513   2.498
 4295SOL    HW213785   4.250   6.465   2.362
 4296SOL     OW13786   2.301   5.510   1.854
 4296SOL    HW113787   2.393   5.488   1.822
 4296SOL    HW213788   2.269   5.437   1.915
 4297SOL     OW13789   5.050   4.673   6.962
 4297SOL    HW113790   4.989   4.712   0.011
 4297SOL    HW213791   5.042   4.727   6.878
 4298SOL     OW13792   2.279   6.216   0.741
 4298SOL    HW113793   2.319   6.203   0.831
 4298SOL    HW213794   2.182   6.240   0.750
 4299SOL     OW13795   6.892   3.219   6.530
 4299SOL    HW113796   6.920   3.176   6.616
 4299SOL    HW213797   6.952   3.189   6.456
 4300SOL     OW13798   3.814   0.651   1.948
 4300SOL    HW113799   3.789   0.711   2.024
 4300SOL    HW213800   3.870   0.575   1.981
 4301SOL     OW13801   1.873   6.098   4.749
 4301SOL    HW113802   1.890   6.001   4.766
 4301SOL    HW213803   1.838   6.140   4.833
 4302SOL     OW13804   4.298   5.274   0.244
 4302SOL    HW113805   4.258   5.301   0.332
 4302SOL    HW213806   4.224   5.258   0.178
 4303SOL     OW13807   4.662   4.934   3.130
 4303SOL    HW113808   4.569   4.915   3.161
 4303SOL    HW213809   4.707   4.848   3.104
 4304SOL     OW13810   3.356   4.294   1.683
 4304SOL    HW113811   3.320   4.293   1.589
 4304SOL    HW213812   3.436   4.354   1.688
 4305SOL     OW13813   0.993   6.796   5.564
 4305SOL    HW113814   1.057   6.843   5.624
 4305SOL    HW213815   0.904   6.787   5.610
 4306SOL     OW13816   6.196   3.649   5.175
 4306SOL    HW113817   6.281   3.624   5.127
 4306SOL    HW213818   6.173   3.743   5.153
 4307SOL     OW13819   6.931   1.829   4.445
 4307SOL    HW113820   6.884   1.759   4.498
 4307SOL    HW213821   6.866   1.899   4.416
 4308SOL     OW13822   4.205   5.575   5.737
 4308SOL    HW113823   4.192   5.674   5.729
 4308SOL    HW213824   4.294   5.550   5.698
 4309SOL     OW13825   2.796   2.005   0.763
 4309SOL    HW113826   2.843   2.091   0.784
 4309SOL    HW213827   2.857   1.945   0.711
 4310SOL     OW13828   6.530   1.114   4.350
 4310SOL    HW113829   6.618   1.144   4.387
 4310SOL    HW213830   6.458   1.129   4.417
 4311SOL     OW13831   1.087   6.641   1.550
 4311SOL    HW113832   1.015   6.612   1.612
 4311SOL    HW213833   1.083   6.740   1.537
 4312SOL     OW13834   0.787   2.903   2.503
 4312SOL    HW113835   0.797   3.000   2.526
 4312SOL    HW213836   0.693   2.873   2.521
 4313SOL     OW13837   1.022   3.498   0.823
 4313SOL    HW113838   0.959   3.429   0.788
 4313SOL    HW213839   1.074   3.537   0.748
 4314SOL     OW13840   2.473   1.746   5.655
 4314SOL    HW113841   2.382   1.718   5.686
 4314SOL    HW213842   2.473   1.753   5.555
 4315SOL     OW13843   2.594   2.409   5.469
 4315SOL    HW113844   2.543   2.413   5.384
 4315SOL    HW213845   2.624   2.501   5.495
 4316SOL     OW13846   4.457   4.209   1.392
 4316SOL    HW113847   4.407   4.126   1.367
 4316SOL    HW213848   4.500   4.248   1.311
 4317SOL     OW13849   5.056   0.319   3.703
 4317SOL    HW113850   5.147   0.293   3.672
 4317SOL    HW213851   4.988   0.255   3.665
 4318SOL     OW13852   2.240   5.775   4.264
 4318SOL    HW113853   2.318   5.734   4.214
 4318SOL    HW213854   2.157   5.722   4.245
 4319SOL     OW13855   2.020   4.895   1.264
 4319SOL    HW113856   2.039   4.983   1.221
 4319SOL    HW213857   2.075   4.886   1.347
 4320SOL     OW13858   4.322   1.475   1.951
 4320SOL    HW113859   4.298   1.505   2.043
 4320SOL    HW213860   4.243   1.429   1.909
 4321SOL     OW13861   6.435   6.057   2.893
 4321SOL    HW113862   6.433   6.138   2.950
 4321SOL    HW213863   6.530   6.038   2.865
 4322SOL     OW13864   2.622   2.087   4.498
 4322SOL    HW113865   2.575   2.067   4.585
 4322SOL    HW213866   2.654   2.001   4.458
 4323SOL     OW13867   5.431   4.150   1.799
 4323SOL    HW113868   5.523   4.122   1.772
 4323SOL    HW213869   5.385   4.074   1.846
 4324SOL     OW13870   6.766   3.935   5.555
 4324SOL    HW113871   6.812   3.995   5.621
 4324SOL    HW213872   6.705   3.872   5.603
 4325SOL     OW13873   1.487   0.764   1.234
 4325SOL    HW113874   1.572   0.716   1.212
 4325SOL    HW213875   1.504   0.834   1.303
 4326SOL     OW13876   4.966   2.639   2.289
 4326SOL    HW113877   4.995   2.625   2.383
 4326SOL    HW213878   4.901   2.569   2.262
 4327SOL     OW13879   2.998   6.789   4.250
 4327SOL    HW113880   2.987   6.783   4.150
 4327SOL    HW213881   2.959   6.707   4.292
 4328SOL     OW13882   5.632   0.189   2.306
 4328SOL    HW113883   5.687   0.265   2.340
 4328SOL    HW213884   5.551   0.177   2.364
 4329SOL     OW13885   5.981   3.993   0.219
 4329SOL    HW113886   5.885   3.990   0.193
 4329SOL    HW213887   5.993   4.056   0.296
 4330SOL     OW13888   2.834   6.032   5.313
 4330SOL    HW113889   2.775   6.073   5.383
 4330SOL    HW213890   2.911   5.986   5.357
 4331SOL     OW13891   5.930   1.432   2.798
 4331SOL    HW113892   5.842   1.447   2.754
 4331SOL    HW213893   5.918   1.377   2.880
 4332SOL     OW13894   7.016   6.033   1.342
 4332SOL    HW113895   0.078   6.060   1.293
 4332SOL    HW213896   6.940   6.026   1.277
 4333SOL     OW13897   3.908   2.880   5.597
 4333SOL    HW113898   3.926   2.782   5.601
 4333SOL    HW213899   3.922   2.912   5.503
 4334SOL     OW13900   0.841   1.843   3.748
 4334SOL    HW113901   0.795   1.927   3.778
 4334SOL    HW213902   0.894   1.863   3.665
 4335SOL     OW13903   1.968   2.863   1.438
 4335SOL    HW113904   2.013   2.777   1.412
 4335SOL    HW213905   2.020   2.940   1.401
 4336SOL     OW13906   2.343   5.539   5.377
 4336SOL    HW113907   2.342   5.639   5.381
 4336SOL    HW213908   2.324   5.509   5.284
 4337SOL     OW13909   0.492   4.720   4.154
 4337SOL    HW113910   0.546   4.709   4.070
 4337SOL    HW213911   0.417   4.654   4.154
 4338SOL     OW13912   3.472   3.216   5.214
 4338SOL    HW113913   3.503   3.224   5.309
 4338SOL    HW213914   3.498   3.126   5.178
 4339SOL     OW13915   3.530   3.860   5.418
 4339SOL    HW113916   3.620   3.898   5.441
 4339SOL    HW213917   3.541   3.763   5.395
 4340SOL     OW13918   6.891   4.423   0.263
 4340SOL    HW113919   6.837   4.339   0.267
 4340SOL    HW213920   6.901   4.461   0.355
 4341SOL     OW13921   5.926   6.296   1.428
 4341SOL    HW113922   5.957   6.390   1.418
 4341SOL    HW213923   5.991   6.244   1.483
 4342SOL     OW13924   4.911   3.365   2.165
 4342SOL    HW113925   4.870   3.387   2.076
 4342SOL    HW213926   4.905   3.266   2.181
 4343SOL     OW13927   4.431   6.619   6.151
 4343SOL    HW113928   4.478   6.629   6.063
 4343SOL    HW213929   4.338   6.654   6.143
 4344SOL     OW13930   1.370   4.071   1.917
 4344SOL    HW113931   1.379   4.170   1.926
 4344SOL    HW213932   1.460   4.028   1.928
 4345SOL     OW13933   4.106   3.271   2.415
 4345SOL    HW113934   4.123   3.215   2.334
 4345SOL    HW213935   4.131   3.366   2.396
 4346SOL     OW13936   0.940   3.292   2.286
 4346SOL    HW113937   0.952   3.205   2.239
 4346SOL    HW213938   1.019   3.350   2.270
 4347SOL     OW13939   6.023   6.407   0.982
 4347SOL    HW113940   5.933   6.363   0.984
 4347SOL    HW213941   6.062   6.399   0.891
 4348SOL     OW13942   6.307   4.219   6.307
 4348SOL    HW113943   6.334   4.122   6.307
 4348SOL    HW213944   6.378   4.273   6.353
 4349SOL     OW13945   0.823   3.604   3.746
 4349SOL    HW113946   0.806   3.642   3.836
 4349SOL    HW213947   0.882   3.524   3.754
 4350SOL     OW13948   5.224   0.069   3.661
 4350SOL    HW113949   5.248   0.106   3.750
 4350SOL    HW213950   5.156   7.018   3.672
 4351SOL     OW13951   0.410   6.350   1.221
 4351SOL    HW113952   0.508   6.338   1.237
 4351SOL    HW213953   0.397   6.419   1.150
 4352SOL     OW13954   3.476   4.528   1.483
 4352SOL    HW113955   3.497   4.445   1.432
 4352SOL    HW213956   3.468   4.606   1.420
 4353SOL     OW13957   2.145   4.094   0.442
 4353SOL    HW113958   2.091   4.015   0.415
 4353SOL    HW213959   2.147   4.161   0.368
 4354SOL     OW13960   5.644   5.004   2.095
 4354SOL    HW113961   5.741   4.980   2.094
 4354SOL    HW213962   5.593   4.935   2.146
 4355SOL     OW13963   1.873   4.845   3.798
 4355SOL    HW113964   1.912   4.900   3.724
 4355SOL    HW213965   1.946   4.791   3.841
 4356SOL     OW13966   5.971   1.685   5.869
 4356SOL    HW113967   5.891   1.639   5.831
 4356SOL    HW213968   5.968   1.679   5.969
 4357SOL     OW13969   4.884   6.121   2.578
 4357SOL    HW113970   4.979   6.151   2.567
 4357SOL    HW213971   4.828   6.155   2.503
 4358SOL     OW13972   3.094   0.502   1.203
 4358SOL    HW113973   2.998   0.517   1.183
 4358SOL    HW213974   3.104   0.472   1.298
 4359SOL     OW13975   2.874   3.453   1.512
 4359SOL    HW113976   2.852   3.480   1.418
 4359SOL    HW213977   2.796   3.474   1.572
 4360SOL     OW13978   2.574   6.404   3.983
 4360SOL    HW113979   2.662   6.419   3.938
 4360SOL    HW213980   2.504   6.460   3.939
 4361SOL     OW13981   2.112   0.875   6.483
 4361SOL    HW113982   2.096   0.847   6.578
 4361SOL    HW213983   2.100   0.795   6.423
 4362SOL     OW13984   6.607   6.022   2.242
 4362SOL    HW113985   6.656   5.968   2.174
 4362SOL    HW213986   6.553   5.961   2.300
 4363SOL     OW13987   3.831   0.173   2.566
 4363SOL    HW113988   3.733   0.151   2.561
 4363SOL    HW213989   3.884   0.106   2.515
 4364SOL     OW13990   3.187   4.055   2.992
 4364SOL    HW113991   3.158   3.997   3.068
 4364SOL    HW213992   3.271   4.103   3.017
 4365SOL     OW13993   2.461   1.443   0.689
 4365SOL    HW113994   2.540   1.497   0.717
 4365SOL    HW213995   2.484   1.346   0.692
 4366SOL     OW13996   4.667   5.778   4.835
 4366SOL    HW113997   4.607   5.738   4.765
 4366SOL    HW213998   4.616   5.790   4.920
 4367SOL     OW13999   1.974   0.107   1.631
 4367SOL    HW114000   2.062   0.101   1.679
 4367SOL    HW214001   1.899   0.096   1.696
 4368SOL     OW14002   5.001   5.277   4.400
 4368SOL    HW114003   4.982   5.180   4.388
 4368SOL    HW214004   5.015   5.320   4.310
 4369SOL     OW14005   6.797   3.962   4.360
 4369SOL    HW114006   6.783   4.050   4.314
 4369SOL    HW214007   6.728   3.897   4.328
 4370SOL     OW14008   5.378   4.274   1.353
 4370SOL    HW114009   5.451   4.263   1.285
 4370SOL    HW214010   5.377   4.194   1.413
 4371SOL     OW14011   3.460   0.430   3.413
 4371SOL    HW114012   3.428   0.433   3.508
 4371SOL    HW214013   3.490   0.521   3.385
 4372SOL     OW14014   1.824   4.404   5.096
 4372SOL    HW114015   1.848   4.339   5.024
 4372SOL    HW214016   1.858   4.370   5.184
 4373SOL     OW14017   4.755   0.834   0.284
 4373SOL    HW114018   4.745   0.780   0.201
 4373SOL    HW214019   4.801   0.780   0.354
 4374SOL     OW14020   2.001   6.197   0.456
 4374SOL    HW114021   2.006   6.194   0.556
 4374SOL    HW214022   2.082   6.244   0.420
 4375SOL     OW14023   4.600   0.742   5.868
 4375SOL    HW114024   4.571   0.827   5.824
 4375SOL    HW214025   4.523   0.700   5.915
 4376SOL     OW14026   3.049   4.801   6.969
 4376SOL    HW114027   3.080   4.744   0.024
 4376SOL    HW214028   3.120   4.803   6.898
 4377SOL     OW14029   5.743   6.382   0.310
 4377SOL    HW114030   5.799   6.314   0.263
 4377SOL    HW214031   5.764   6.473   0.272
 4378SOL     OW14032   3.233   4.817   1.528
 4378SOL    HW114033   3.233   4.788   1.623
 4378SOL    HW214034   3.326   4.842   1.500
 4379SOL     OW14035   6.347   6.217   0.673
 4379SOL    HW114036   6.370   6.184   0.581
 4379SOL    HW214037   6.262   6.174   0.704
 4380SOL     OW14038   1.734   6.120   5.013
 4380SOL    HW114039   1.711   6.026   4.989
 4380SOL    HW214040   1.672   6.183   4.966
 4381SOL     OW14041   3.278   6.445   4.205
 4381SOL    HW114042   3.262   6.404   4.294
 4381SOL    HW214043   3.269   6.545   4.212
 4382SOL     OW14044   5.670   3.875   3.810
 4382SOL    HW114045   5.677   3.804   3.741
 4382SOL    HW214046   5.705   3.841   3.897
 4383SOL     OW14047   1.377   0.360   6.729
 4383SOL    HW114048   1.368   0.264   6.758
 4383SOL    HW214049   1.294   0.389   6.682
 4384SOL     OW14050   3.962   6.640   1.860
 4384SOL    HW114051   3.889   6.698   1.825
 4384SOL    HW214052   4.015   6.690   1.928
 4385SOL     OW14053   6.084   2.529   4.352
 4385SOL    HW114054   6.042   2.524   4.442
 4385SOL    HW214055   6.175   2.488   4.355
 4386SOL     OW14056   1.799   5.738   6.999
 4386SOL    HW114057   1.854   5.812   0.016
 4386SOL    HW214058   1.852   5.688   6.931
 4387SOL     OW14059   6.355   2.215   1.016
 4387SOL    HW114060   6.275   2.185   1.068
 4387SOL    HW214061   6.386   2.303   1.050
 4388SOL     OW14062   4.261   1.474   5.938
 4388SOL    HW114063   4.246   1.381   5.904
 4388SOL    HW214064   4.217   1.485   6.027
 4389SOL     OW14065   1.244   2.591   2.621
 4389SOL    HW114066   1.237   2.571   2.524
 4389SOL    HW214067   1.199   2.679   2.640
 4390SOL     OW14068   4.844   3.933   1.155
 4390SOL    HW114069   4.755   3.952   1.114
 4390SOL    HW214070   4.886   3.855   1.110
 4391SOL     OW14071   0.450   5.624   0.953
 4391SOL    HW114072   0.498   5.539   0.975
 4391SOL    HW214073   0.514   5.690   0.915
 4392SOL     OW14074   5.184   5.188   4.896
 4392SOL    HW114075   5.169   5.283   4.921
 4392SOL    HW214076   5.279   5.163   4.918
 4393SOL     OW14077   4.723   6.685   2.842
 4393SOL    HW114078   4.674   6.754   2.787
 4393SOL    HW214079   4.769   6.731   2.918
 4394SOL     OW14080   4.637   0.942   2.643
 4394SOL    HW114081   4.578   0.861   2.636
 4394SOL    HW214082   4.700   0.944   2.565
 4395SOL     OW14083   4.767   2.596   0.771
 4395SOL    HW114084   4.712   2.603   0.854
 4395SOL    HW214085   4.707   2.579   0.693
 4396SOL     OW14086   1.770   1.381   2.250
 4396SOL    HW114087   1.707   1.457   2.232
 4396SOL    HW214088   1.803   1.345   2.163
 4397SOL     OW14089   3.883   1.684   6.819
 4397SOL    HW114090   3.843   1.600   6.853
 4397SOL    HW214091   3.947   1.663   6.745
 4398SOL     OW14092   0.946   5.033   4.777
 4398SOL    HW114093   1.025   5.084   4.811
 4398SOL    HW214094   0.957   5.016   4.679
 4399SOL     OW14095   3.046   0.372   1.442
 4399SOL    HW114096   2.969   0.332   1.392
 4399SOL    HW214097   3.017   0.393   1.535
 4400SOL     OW14098   3.235   4.940   2.782
 4400SOL    HW114099   3.245   4.884   2.864
 4400SOL    HW214100   3.184   4.889   2.713
 4401SOL     OW14101   4.906   6.442   4.458
 4401SOL    HW114102   4.840   6.366   4.457
 4401SOL    HW214103   4.975   6.424   4.527
 4402SOL     OW14104   0.087   6.321   1.657
 4402SOL    HW114105   0.091   6.398   1.592
 4402SOL    HW214106   0.035   6.349   1.737
 4403SOL     OW14107   6.512   1.674   3.596
 4403SOL    HW114108   6.515   1.598   3.531
 4403SOL    HW214109   6.549   1.756   3.553
 4404SOL     OW14110   1.724   3.721   2.551
 4404SOL    HW114111   1.673   3.671   2.481
 4404SOL    HW214112   1.690   3.697   2.642
 4405SOL     OW14113   2.703   3.799   6.671
 4405SOL    HW114114   2.727   3.725   6.734
 4405SOL    HW214115   2.619   3.776   6.622
 4406SOL     OW14116   5.843   2.619   2.331
 4406SOL    HW114117   5.745   2.606   2.313
 4406SOL    HW214118   5.885   2.665   2.253
 4407SOL     OW14119   0.742   0.534   0.452
 4407SOL    HW114120   0.760   0.488   0.539
 4407SOL    HW214121   0.821   0.590   0.427
 4408SOL     OW14122   4.315   5.955   1.445
 4408SOL    HW114123   4.261   6.028   1.488
 4408SOL    HW214124   4.307   5.962   1.346
 4409SOL     OW14125   3.461   2.062   3.264
 4409SOL    HW114126   3.471   1.997   3.340
 4409SOL    HW214127   3.550   2.100   3.241
 4410SOL     OW14128   1.897   5.614   0.821
 4410SOL    HW114129   1.959   5.628   0.743
 4410SOL    HW214130   1.932   5.663   0.900
 4411SOL     OW14131   3.359   3.170   2.278
 4411SOL    HW114132   3.455   3.183   2.304
 4411SOL    HW214133   3.336   3.073   2.284
 4412SOL     OW14134   3.832   1.460   6.168
 4412SOL    HW114135   3.856   1.366   6.193
 4412SOL    HW214136   3.842   1.519   6.249
 4413SOL     OW14137   3.694   5.517   3.628
 4413SOL    HW114138   3.702   5.434   3.682
 4413SOL    HW214139   3.768   5.580   3.652
 4414SOL     OW14140   3.511   4.884   1.704
 4414SOL    HW114141   3.513   4.806   1.767
 4414SOL    HW214142   3.517   4.969   1.757
 4415SOL     OW14143   4.405   0.901   1.713
 4415SOL    HW114144   4.372   0.995   1.719
 4415SOL    HW214145   4.422   0.865   1.804
 4416SOL     OW14146   2.954   2.169   4.894
 4416SOL    HW114147   3.037   2.208   4.935
 4416SOL    HW214148   2.904   2.117   4.963
 4417SOL     OW14149   5.627   6.874   1.277
 4417SOL    HW114150   5.672   6.831   1.198
 4417SOL    HW214151   5.649   6.971   1.279
 4418SOL     OW14152   4.426   0.093   3.002
 4418SOL    HW114153   4.514   0.128   2.970
 4418SOL    HW214154   4.387   0.158   3.067
 4419SOL     OW14155   6.320   5.609   6.149
 4419SOL    HW114156   6.306   5.526   6.094
 4419SOL    HW214157   6.391   5.591   6.217
 4420SOL     OW14158   5.492   0.845   0.911
 4420SOL    HW114159   5.531   0.812   0.825
 4420SOL    HW214160   5.493   0.945   0.911
 4421SOL     OW14161   0.497   1.886   3.173
 4421SOL    HW114162   0.567   1.832   3.219
 4421SOL    HW214163   0.541   1.962   3.124
 4422SOL     OW14164   1.423   4.158   5.894
 4422SOL    HW114165   1.473   4.143   5.979
 4422SOL    HW214166   1.342   4.100   5.892
 4423SOL     OW14167   6.566   1.645   5.732
 4423SOL    HW114168   6.519   1.731   5.709
 4423SOL    HW214169   6.544   1.619   5.826
 4424SOL     OW14170   1.699   5.606   3.412
 4424SOL    HW114171   1.795   5.576   3.408
 4424SOL    HW214172   1.646   5.556   3.343
 4425SOL     OW14173   5.233   3.972   1.936
 4425SOL    HW114174   5.216   4.058   1.985
 4425SOL    HW214175   5.155   3.951   1.878
 4426SOL     OW14176   0.623   6.774   6.550
 4426SOL    HW114177   0.552   6.760   6.481
 4426SOL    HW214178   0.633   6.692   6.605
 4427SOL     OW14179   0.774   5.218   3.514
 4427SOL    HW114180   0.853   5.280   3.513
 4427SOL    HW214181   0.691   5.269   3.492
 4428SOL     OW14182   1.595   0.376   2.907
 4428SOL    HW114183   1.568   0.457   2.960
 4428SOL    HW214184   1.525   0.305   2.917
 4429SOL     OW14185   2.744   0.020   2.152
 4429SOL    HW114186   2.668   0.051   2.096
 4429SOL    HW214187   2.784   0.097   2.201
 4430SOL     OW14188   2.040   0.214   1.965
 4430SOL    HW114189   1.968   0.160   2.008
 4430SOL    HW214190   2.090   0.158   1.900
 4431SOL     OW14191   1.846   1.677   2.589
 4431SOL    HW114192   1.934   1.633   2.570
 4431SOL    HW214193   1.772   1.620   2.553
 4432SOL     OW14194   3.784   4.086   4.593
 4432SOL    HW114195   3.709   4.045   4.541
 4432SOL    HW214196   3.871   4.065   4.549
 4433SOL     OW14197   6.489   0.302   1.633
 4433SOL    HW114198   6.566   0.353   1.596
 4433SOL    HW214199   6.405   0.353   1.620
 4434SOL     OW14200   5.433   1.965   5.819
 4434SOL    HW114201   5.357   1.981   5.756
 4434SOL    HW214202   5.455   1.868   5.820
 4435SOL     OW14203   3.729   2.861   1.819
 4435SOL    HW114204   3.716   2.940   1.760
 4435SOL    HW214205   3.697   2.779   1.772
 4436SOL     OW14206   5.774   0.195   0.359
 4436SOL    HW114207   5.705   0.136   0.318
 4436SOL    HW214208   5.731   0.256   0.425
 4437SOL     OW14209   3.340   6.768   5.639
 4437SOL    HW114210   3.391   6.799   5.720
 4437SOL    HW214211   3.363   6.826   5.561
 4438SOL     OW14212   3.713   2.638   6.772
 4438SOL    HW114213   3.635   2.700   6.767
 4438SOL    HW214214   3.728   2.596   6.683
 4439SOL     OW14215   1.180   4.680   3.294
 4439SOL    HW114216   1.220   4.770   3.310
 4439SOL    HW214217   1.244   4.624   3.243
 4440SOL     OW14218   6.570   1.136   0.480
 4440SOL    HW114219   6.552   1.038   0.478
 4440SOL    HW214220   6.669   1.152   0.475
 4441SOL     OW14221   6.333   0.645   4.153
 4441SOL    HW114222   6.415   0.661   4.208
 4441SOL    HW214223   6.301   0.551   4.167
 4442SOL     OW14224   2.126   5.918   2.373
 4442SOL    HW114225   2.056   5.858   2.334
 4442SOL    HW214226   2.082   5.986   2.432
 4443SOL     OW14227   1.781   0.984   1.292
 4443SOL    HW114228   1.711   0.937   1.344
 4443SOL    HW214229   1.840   1.036   1.354
 4444SOL     OW14230   4.627   1.800   3.194
 4444SOL    HW114231   4.699   1.731   3.190
 4444SOL    HW214232   4.545   1.760   3.235
 4445SOL     OW14233   1.013   2.368   6.253
 4445SOL    HW114234   1.017   2.464   6.280
 4445SOL    HW214235   1.079   2.315   6.307
 4446SOL     OW14236   6.876   4.659   4.530
 4446SOL    HW114237   6.863   4.676   4.432
 4446SOL    HW214238   6.955   4.711   4.562
 4447SOL     OW14239   4.883   3.866   4.997
 4447SOL    HW114240   4.835   3.780   4.982
 4447SOL    HW214241   4.912   3.872   5.093
 4448SOL     OW14242   2.514   3.309   6.452
 4448SOL    HW114243   2.605   3.331   6.416
 4448SOL    HW214244   2.451   3.295   6.375
 4449SOL     OW14245   6.634   1.422   5.448
 4449SOL    HW114246   6.655   1.365   5.528
 4449SOL    HW214247   6.584   1.367   5.381
 4450SOL     OW14248   3.821   3.392   3.221
 4450SOL    HW114249   3.756   3.373   3.147
 4450SOL    HW214250   3.770   3.425   3.301
 4451SOL     OW14251   0.602   5.075   1.331
 4451SOL    HW114252   0.664   5.110   1.261
 4451SOL    HW214253   0.655   5.030   1.403
 4452SOL     OW14254   0.648   3.884   6.753
 4452SOL    HW114255   0.630   3.982   6.750
 4452SOL    HW214256   0.629   3.845   6.662
 4453SOL     OW14257   5.886   0.477   1.356
 4453SOL    HW114258   5.822   0.536   1.307
 4453SOL    HW214259   5.840   0.392   1.382
 4454SOL     OW14260   6.034   3.452   2.040
 4454SOL    HW114261   6.091   3.371   2.031
 4454SOL    HW214262   5.960   3.450   1.972
 4455SOL     OW14263   4.423   2.436   2.516
 4455SOL    HW114264   4.436   2.528   2.479
 4455SOL    HW214265   4.417   2.371   2.441
 4456SOL     OW14266   0.302   5.891   2.545
 4456SOL    HW114267   0.329   5.809   2.495
 4456SOL    HW214268   0.276   5.963   2.480
 4457SOL     OW14269   4.474   2.502   6.146
 4457SOL    HW114270   4.436   2.470   6.233
 4457SOL    HW214271   4.472   2.602   6.144
 4458SOL     OW14272   4.811   1.744   1.212
 4458SOL    HW114273   4.759   1.807   1.155
 4458SOL    HW214274   4.776   1.748   1.306
 4459SOL     OW14275   5.957   5.443   6.008
 4459SOL    HW114276   5.904   5.515   6.053
 4459SOL    HW214277   5.984   5.474   5.917
 4460SOL     OW14278   1.357   1.017   0.673
 4460SOL    HW114279   1.427   1.084   0.699
 4460SOL    HW214280   1.279   1.065   0.634
 4461SOL     OW14281   2.020   0.773   3.039
 4461SOL    HW114282   2.052   0.774   3.133
 4461SOL    HW214283   2.098   0.774   2.976
 4462SOL     OW14284   0.066   3.748   0.915
 4462SOL    HW114285   0.105   3.656   0.916
 4462SOL    HW214286   0.010   3.761   0.997
 4463SOL     OW14287   0.583   4.507   6.916
 4463SOL    HW114288   0.648   4.431   6.909
 4463SOL    HW214289   0.540   4.522   6.827
 4464SOL     OW14290   6.922   3.136   0.189
 4464SOL    HW114291   6.870   3.051   0.203
 4464SOL    HW214292   6.943   3.177   0.278
 4465SOL     OW14293   6.043   5.329   0.989
 4465SOL    HW114294   5.984   5.329   1.069
 4465SOL    HW214295   6.139   5.332   1.018
 4466SOL     OW14296   6.680   3.351   3.952
 4466SOL    HW114297   6.627   3.286   3.898
 4466SOL    HW214298   6.713   3.306   4.035
 4467SOL     OW14299   0.986   0.246   4.759
 4467SOL    HW114300   0.900   0.225   4.807
 4467SOL    HW214301   1.047   0.295   4.821
 4468SOL     OW14302   1.037   0.931   0.714
 4468SOL    HW114303   1.067   0.928   0.618
 4468SOL    HW214304   1.010   1.024   0.738
 4469SOL     OW14305   4.582   6.728   0.246
 4469SOL    HW114306   4.670   6.683   0.237
 4469SOL    HW214307   4.596   6.826   0.264
 4470SOL     OW14308   5.130   4.407   1.393
 4470SOL    HW114309   5.206   4.343   1.384
 4470SOL    HW214310   5.046   4.357   1.413
 4471SOL     OW14311   5.736   2.411   1.771
 4471SOL    HW114312   5.701   2.341   1.834
 4471SOL    HW214313   5.802   2.369   1.709
 4472SOL     OW14314   2.374   5.260   1.460
 4472SOL    HW114315   2.278   5.233   1.464
 4472SOL    HW214316   2.431   5.186   1.495
 4473SOL     OW14317   6.014   0.484   0.866
 4473SOL    HW114318   6.065   0.550   0.810
 4473SOL    HW214319   6.053   0.482   0.958
 4474SOL     OW14320   6.369   1.054   5.168
 4474SOL    HW114321   6.340   1.149   5.165
 4474SOL    HW214322   6.350   1.010   5.080
 4475SOL     OW14323   1.434   3.356   0.298
 4475SOL    HW114324   1.502   3.380   0.230
 4475SOL    HW214325   1.347   3.400   0.276
 4476SOL     OW14326   3.663   6.423   2.555
 4476SOL    HW114327   3.592   6.356   2.578
 4476SOL    HW214328   3.749   6.375   2.541
 4477SOL     OW14329   2.080   2.216   1.004
 4477SOL    HW114330   2.007   2.213   1.072
 4477SOL    HW214331   2.048   2.260   0.921
 4478SOL     OW14332   1.145   4.805   1.105
 4478SOL    HW114333   1.229   4.751   1.119
 4478SOL    HW214334   1.083   4.754   1.045
 4479SOL     OW14335   1.830   6.477   6.080
 4479SOL    HW114336   1.873   6.436   6.161
 4479SOL    HW214337   1.821   6.408   6.008
 4480SOL     OW14338   6.659   3.533   3.140
 4480SOL    HW114339   6.754   3.529   3.172
 4480SOL    HW214340   6.611   3.608   3.186
 4481SOL     OW14341   0.809   0.985   4.513
 4481SOL    HW114342   0.789   0.912   4.448
 4481SOL    HW214343   0.903   0.975   4.547
 4482SOL     OW14344   0.321   3.963   3.022
 4482SOL    HW114345   0.302   4.041   3.082
 4482SOL    HW214346   0.394   3.908   3.062
 4483SOL     OW14347   5.745   3.797   1.153
 4483SOL    HW114348   5.791   3.863   1.094
 4483SOL    HW214349   5.690   3.734   1.098
 4484SOL     OW14350   2.967   3.524   6.573
 4484SOL    HW114351   2.874   3.560   6.577
 4484SOL    HW214352   2.979   3.454   6.644
 4485SOL     OW14353   4.294   0.178   5.954
 4485SOL    HW114354   4.287   0.090   6.000
 4485SOL    HW214355   4.391   0.199   5.936
 4486SOL     OW14356   6.254   3.549   4.259
 4486SOL    HW114357   6.190   3.486   4.303
 4486SOL    HW214358   6.208   3.635   4.239
 4487SOL     OW14359   3.253   2.820   5.998
 4487SOL    HW114360   3.327   2.763   5.962
 4487SOL    HW214361   3.253   2.908   5.951
 4488SOL     OW14362   0.105   2.210   6.541
 4488SOL    HW114363   0.071   2.198   6.448
 4488SOL    HW214364   0.093   2.124   6.592
 4489SOL     OW14365   0.428   1.129   3.118
 4489SOL    HW114366   0.407   1.098   3.025
 4489SOL    HW214367   0.527   1.146   3.126
 4490SOL     OW14368   6.911   2.201   4.102
 4490SOL    HW114369   6.899   2.123   4.165
 4490SOL    HW214370   6.886   2.172   4.010
 4491SOL     OW14371   1.994   4.569   2.161
 4491SOL    HW114372   2.084   4.562   2.204
 4491SOL    HW214373   1.931   4.505   2.205
 4492SOL     OW14374   5.323   3.825   5.859
 4492SOL    HW114375   5.346   3.774   5.776
 4492SOL    HW214376   5.294   3.761   5.931
 4493SOL     OW14377   5.912   4.480   3.223
 4493SOL    HW114378   5.819   4.515   3.228
 4493SOL    HW214379   5.955   4.486   3.314
 4494SOL     OW14380   5.017   2.465   1.730
 4494SOL    HW114381   5.005   2.526   1.809
 4494SOL    HW214382   4.934   2.412   1.716
 4495SOL     OW14383   5.875   5.313   2.041
 4495SOL    HW114384   5.913   5.221   2.046
 4495SOL    HW214385   5.921   5.364   1.968
 4496SOL     OW14386   5.700   3.203   6.053
 4496SOL    HW114387   5.721   3.291   6.095
 4496SOL    HW214388   5.770   3.179   5.986
 4497SOL     OW14389   6.712   6.570   1.224
 4497SOL    HW114390   6.732   6.527   1.136
 4497SOL    HW214391   6.797   6.595   1.269
 4498SOL     OW14392   1.255   4.277   6.268
 4498SOL    HW114393   1.168   4.241   6.234
 4498SOL    HW214394   1.331   4.227   6.227
 4499SOL     OW14395   5.570   3.930   0.582
 4499SOL    HW114396   5.531   4.022   0.572
 4499SOL    HW214397   5.669   3.934   0.567
 4500SOL     OW14398   3.601   4.137   2.244
 4500SOL    HW114399   3.672   4.198   2.209
 4500SOL    HW214400   3.526   4.190   2.281
 4501SOL     OW14401   1.910   5.599   5.011
 4501SOL    HW114402   1.944   5.603   5.105
 4501SOL    HW214403   1.967   5.539   4.957
 4502SOL     OW14404   5.810   2.498   0.493
 4502SOL    HW114405   5.718   2.467   0.468
 4502SOL    HW214406   5.855   2.536   0.412
 4503SOL     OW14407   0.989   3.312   2.972
 4503SOL    HW114408   0.964   3.408   2.975
 4503SOL    HW214409   0.977   3.277   2.879
 4504SOL     OW14410   4.442   2.000   4.136
 4504SOL    HW114411   4.509   1.994   4.062
 4504SOL    HW214412   4.400   2.090   4.136
 4505SOL     OW14413   2.460   5.542   0.382
 4505SOL    HW114414   2.515   5.488   0.318
 4505SOL    HW214415   2.477   5.511   0.475
 4506SOL     OW14416   3.856   7.016   5.502
 4506SOL    HW114417   3.831   6.959   5.581
 4506SOL    HW214418   3.849   0.091   5.527
 4507SOL     OW14419   6.010   3.713   2.670
 4507SOL    HW114420   6.102   3.735   2.702
 4507SOL    HW214421   5.956   3.797   2.662
 4508SOL     OW14422   2.120   4.001   0.720
 4508SOL    HW114423   2.101   4.010   0.622
 4508SOL    HW214424   2.218   4.006   0.736
 4509SOL     OW14425   0.817   2.770   3.420
 4509SOL    HW114426   0.839   2.718   3.503
 4509SOL    HW214427   0.895   2.766   3.357
 4510SOL     OW14428   2.717   6.841   6.488
 4510SOL    HW114429   2.776   6.813   6.412
 4510SOL    HW214430   2.624   6.808   6.473
 4511SOL     OW14431   0.649   2.451   0.093
 4511SOL    HW114432   0.663   2.543   0.132
 4511SOL    HW214433   0.579   2.456   0.022
 4512SOL     OW14434   2.128   4.070   0.080
 4512SOL    HW114435   2.192   4.024   0.019
 4512SOL    HW214436   2.087   4.003   0.142
 4513SOL     OW14437   6.294   1.418   2.717
 4513SOL    HW114438   6.202   1.459   2.717
 4513SOL    HW214439   6.322   1.401   2.812
 4514SOL     OW14440   2.101   0.544   4.920
 4514SOL    HW114441   2.132   0.510   5.009
 4514SOL    HW214442   2.169   0.521   4.850
 4515SOL     OW14443   0.100   4.840   0.583
 4515SOL    HW114444   0.184   4.851   0.637
 4515SOL    HW214445   0.028   4.803   0.642
 4516SOL     OW14446   0.576   6.889   3.942
 4516SOL    HW114447   0.519   6.961   3.981
 4516SOL    HW214448   0.571   6.892   3.843
 4517SOL     OW14449   2.675   0.861   0.050
 4517SOL    HW114450   2.722   0.774   0.034
 4517SOL    HW214451   2.677   0.915   6.987
 4518SOL     OW14452   1.246   0.654   3.593
 4518SOL    HW114453   1.315   0.671   3.523
 4518SOL    HW214454   1.161   0.626   3.550
 4519SOL     OW14455   6.533   2.294   4.743
 4519SOL    HW114456   6.607   2.231   4.768
 4519SOL    HW214457   6.446   2.256   4.771
 4520SOL     OW14458   6.884   3.554   2.786
 4520SOL    HW114459   6.878   3.473   2.844
 4520SOL    HW214460   6.944   3.535   2.709
 4521SOL     OW14461   5.322   1.761   6.401
 4521SOL    HW114462   5.246   1.801   6.452
 4521SOL    HW214463   5.368   1.693   6.458
 4522SOL     OW14464   5.254   6.761   3.549
 4522SOL    HW114465   5.293   6.822   3.480
 4522SOL    HW214466   5.163   6.792   3.574
 4523SOL     OW14467   4.811   1.852   5.637
 4523SOL    HW114468   4.732   1.828   5.695
 4523SOL    HW214469   4.839   1.946   5.656
 4524SOL     OW14470   5.403   1.242   5.508
 4524SOL    HW114471   5.473   1.266   5.575
 4524SOL    HW214472   5.316   1.285   5.532
 4525SOL     OW14473   6.717   1.394   3.873
 4525SOL    HW114474   6.774   1.430   3.947
 4525SOL    HW214475   6.742   1.440   3.787
 4526SOL     OW14476   2.683   1.568   1.421
 4526SOL    HW114477   2.612   1.500   1.408
 4526SOL    HW214478   2.696   1.586   1.518
 4527SOL     OW14479   4.542   6.680   3.648
 4527SOL    HW114480   4.618   6.744   3.640
 4527SOL    HW214481   4.530   6.630   3.561
 4528SOL     OW14482   4.494   0.418   6.426
 4528SOL    HW114483   4.586   0.418   6.387
 4528SOL    HW214484   4.485   0.495   6.489
 4529SOL     OW14485   3.349   0.374   4.290
 4529SOL    HW114486   3.292   0.428   4.352
 4529SOL    HW214487   3.390   0.435   4.222
 4530SOL     OW14488   6.599   2.657   4.085
 4530SOL    HW114489   6.505   2.691   4.078
 4530SOL    HW214490   6.603   2.588   4.157
 4531SOL     OW14491   0.166   4.082   3.550
 4531SOL    HW114492   0.184   4.058   3.645
 4531SOL    HW214493   0.181   4.181   3.537
 4532SOL     OW14494   0.419   2.487   0.443
 4532SOL    HW114495   0.374   2.466   0.530
 4532SOL    HW214496   0.405   2.583   0.421
 4533SOL     OW14497   3.576   6.435   1.974
 4533SOL    HW114498   3.534   6.515   2.017
 4533SOL    HW214499   3.631   6.464   1.896
 4534SOL     OW14500   6.921   3.895   6.022
 4534SOL    HW114501   6.822   3.902   6.033
 4534SOL    HW214502   6.962   3.986   6.026
 4535SOL     OW14503   4.837   1.912   2.764
 4535SOL    HW114504   4.768   1.982   2.778
 4535SOL    HW214505   4.861   1.907   2.667
 4536SOL     OW14506   6.935   0.066   3.648
 4536SOL    HW114507   6.963   0.127   3.722
 4536SOL    HW214508   6.836   0.063   3.642
 4537SOL     OW14509   5.040   2.925   5.410
 4537SOL    HW114510   5.137   2.947   5.408
 4537SOL    HW214511   4.987   3.006   5.436
 4538SOL     OW14512   3.831   2.017   1.835
 4538SOL    HW114513   3.881   2.050   1.755
 4538SOL    HW214514   3.779   2.093   1.874
 4539SOL     OW14515   2.527   3.425   1.453
 4539SOL    HW114516   2.452   3.398   1.513
 4539SOL    HW214517   2.535   3.359   1.379
 4540SOL     OW14518   3.889   3.056   4.587
 4540SOL    HW114519   3.894   3.124   4.513
 4540SOL    HW214520   3.902   2.965   4.549
 4541SOL     OW14521   6.246   1.188   1.565
 4541SOL    HW114522   6.270   1.201   1.662
 4541SOL    HW214523   6.167   1.126   1.559
 4542SOL     OW14524   5.270   6.516   3.646
 4542SOL    HW114525   5.275   6.525   3.745
 4542SOL    HW214526   5.273   6.607   3.604
 4543SOL     OW14527   5.234   2.467   2.699
 4543SOL    HW114528   5.240   2.368   2.712
 4543SOL    HW214529   5.141   2.498   2.721
 4544SOL     OW14530   5.687   4.805   6.540
 4544SOL    HW114531   5.629   4.841   6.613
 4544SOL    HW214532   5.677   4.705   6.536
 4545SOL     OW14533   4.206   3.603   0.005
 4545SOL    HW114534   4.188   3.551   6.942
 4545SOL    HW214535   4.132   3.585   0.071
 4546SOL     OW14536   0.705   5.975   0.618
 4546SOL    HW114537   0.790   6.014   0.652
 4546SOL    HW214538   0.631   6.040   0.631
 4547SOL     OW14539   4.594   1.493   2.583
 4547SOL    HW114540   4.688   1.525   2.593
 4547SOL    HW214541   4.576   1.420   2.649
 4548SOL     OW14542   0.891   3.318   4.317
 4548SOL    HW114543   0.916   3.398   4.263
 4548SOL    HW214544   0.974   3.266   4.339
 4549SOL     OW14545   5.713   1.318   2.635
 4549SOL    HW114546   5.758   1.241   2.682
 4549SOL    HW214547   5.757   1.335   2.548
 4550SOL     OW14548   2.394   5.378   5.134
 4550SOL    HW114549   2.465   5.369   5.064
 4550SOL    HW214550   2.312   5.329   5.105
 4551SOL     OW14551   6.692   3.673   0.589
 4551SOL    HW114552   6.689   3.625   0.677
 4551SOL    HW214553   6.776   3.727   0.584
 4552SOL     OW14554   0.169   3.402   4.983
 4552SOL    HW114555   0.093   3.391   5.046
 4552SOL    HW214556   0.203   3.312   4.954
 4553SOL     OW14557   5.562   5.053   6.660
 4553SOL    HW114558   5.568   5.149   6.686
 4553SOL    HW214559   5.584   4.995   6.739
 4554SOL     OW14560   6.561   6.615   3.971
 4554SOL    HW114561   6.583   6.578   3.880
 4554SOL    HW214562   6.624   6.689   3.993
 4555SOL     OW14563   4.001   2.752   0.391
 4555SOL    HW114564   3.941   2.775   0.468
 4555SOL    HW214565   3.980   2.812   0.314
 4556SOL     OW14566   4.435   0.440   5.422
 4556SOL    HW114567   4.385   0.488   5.350
 4556SOL    HW214568   4.377   0.431   5.503
 4557SOL     OW14569   5.402   1.158   4.146
 4557SOL    HW114570   5.491   1.118   4.170
 4557SOL    HW214571   5.408   1.258   4.155
 4558SOL     OW14572   0.360   2.893   6.366
 4558SOL    HW114573   0.324   2.899   6.273
 4558SOL    HW214574   0.285   2.876   6.430
 4559SOL     OW14575   1.711   6.765   1.460
 4559SOL    HW114576   1.739   6.805   1.372
 4559SOL    HW214577   1.719   6.666   1.455
 4560SOL     OW14578   6.074   2.503   3.106
 4560SOL    HW114579   6.047   2.579   3.166
 4560SOL    HW214580   6.066   2.417   3.156
 4561SOL     OW14581   3.175   6.241   6.301
 4561SOL    HW114582   3.221   6.327   6.280
 4561SOL    HW214583   3.113   6.217   6.227
 4562SOL     OW14584   2.585   3.976   5.842
 4562SOL    HW114585   2.526   4.008   5.768
 4562SOL    HW214586   2.552   3.887   5.875
 4563SOL     OW14587   5.856   2.600   7.016
 4563SOL    HW114588   5.779   2.646   6.972
 4563SOL    HW214589   5.942   2.644   6.990
 4564SOL     OW14590   7.009   5.176   0.209
 4564SOL    HW114591   0.005   5.173   0.308
 4564SOL    HW214592   6.990   5.084   0.175
 4565SOL     OW14593   3.603   1.078   3.786
 4565SOL    HW114594   3.567   1.157   3.836
 4565SOL    HW214595   3.672   1.031   3.841
 4566SOL     OW14596   1.878   0.943   1.047
 4566SOL    HW114597   1.842   0.953   1.140
 4566SOL    HW214598   1.804   0.916   0.985
 4567SOL     OW14599   5.642   2.128   0.543
 4567SOL    HW114600   5.619   2.202   0.481
 4567SOL    HW214601   5.738   2.103   0.531
 4568SOL     OW14602   4.471   4.546   4.030
 4568SOL    HW114603   4.480   4.643   4.052
 4568SOL    HW214604   4.380   4.514   4.056
 4569SOL     OW14605   1.461   1.793   3.972
 4569SOL    HW114606   1.523   1.762   3.900
 4569SOL    HW214607   1.375   1.742   3.966
 4570SOL     OW14608   5.428   5.810   5.150
 4570SOL    HW114609   5.384   5.891   5.188
 4570SOL    HW214610   5.398   5.796   5.056
 4571SOL     OW14611   3.988   3.127   3.954
 4571SOL    HW114612   4.048   3.140   3.875
 4571SOL    HW214613   3.937   3.042   3.944
 4572SOL     OW14614   2.889   5.559   0.860
 4572SOL    HW114615   2.932   5.576   0.771
 4572SOL    HW214616   2.789   5.561   0.849
 4573SOL     OW14617   4.968   0.052   1.414
 4573SOL    HW114618   5.033   0.117   1.373
 4573SOL    HW214619   4.883   0.052   1.362
 4574SOL     OW14620   6.996   4.748   2.040
 4574SOL    HW114621   6.939   4.683   1.990
 4574SOL    HW214622   6.970   4.841   2.013
 4575SOL     OW14623   6.962   5.957   1.858
 4575SOL    HW114624   0.011   5.990   1.795
 4575SOL    HW214625   6.892   5.907   1.807
 4576SOL     OW14626   3.273   6.709   4.279
 4576SOL    HW114627   3.177   6.731   4.295
 4576SOL    HW214628   3.330   6.787   4.306
 4577SOL     OW14629   2.304   4.247   3.840
 4577SOL    HW114630   2.207   4.270   3.843
 4577SOL    HW214631   2.356   4.314   3.893
 4578SOL     OW14632   6.064   5.599   3.618
 4578SOL    HW114633   6.062   5.501   3.598
 4578SOL    HW214634   5.989   5.645   3.571
 4579SOL     OW14635   4.517   1.885   3.554
 4579SOL    HW114636   4.516   1.983   3.534
 4579SOL    HW214637   4.455   1.865   3.629
 4580SOL     OW14638   0.284   5.464   0.078
 4580SOL    HW114639   0.277   5.388   0.143
 4580SOL    HW214640   0.301   5.427   7.007
 4581SOL     OW14641   3.498   5.909   4.988
 4581SOL    HW114642   3.553   5.873   4.913
 4581SOL    HW214643   3.403   5.880   4.978
 4582SOL     OW14644   4.847   6.593   3.266
 4582SOL    HW114645   4.753   6.592   3.234
 4582SOL    HW214646   4.849   6.602   3.366
 4583SOL     OW14647   3.573   0.120   5.639
 4583SOL    HW114648   3.539   0.036   5.597
 4583SOL    HW214649   3.569   0.195   5.573
 4584SOL     OW14650   6.781   5.111   5.979
 4584SOL    HW114651   6.848   5.058   6.030
 4584SOL    HW214652   6.694   5.111   6.027
 4585SOL     OW14653   2.856   6.464   2.331
 4585SOL    HW114654   2.819   6.464   2.424
 4585SOL    HW214655   2.852   6.372   2.293
 4586SOL     OW14656   2.313   6.126   1.648
 4586SOL    HW114657   2.378   6.171   1.587
 4586SOL    HW214658   2.221   6.133   1.610
 4587SOL     OW14659   3.083   4.808   0.681
 4587SOL    HW114660   3.096   4.837   0.776
 4587SOL    HW214661   3.127   4.719   0.667
 4588SOL     OW14662   3.438   4.140   4.927
 4588SOL    HW114663   3.510   4.078   4.958
 4588SOL    HW214664   3.441   4.224   4.981
 4589SOL     OW14665   2.003   2.311   3.542
 4589SOL    HW114666   1.962   2.255   3.615
 4589SOL    HW214667   2.055   2.385   3.583
 4590SOL     OW14668   4.280   6.261   2.773
 4590SOL    HW114669   4.308   6.166   2.758
 4590SOL    HW214670   4.284   6.282   2.870
 4591SOL     OW14671   4.654   6.225   5.122
 4591SOL    HW114672   4.657   6.151   5.189
 4591SOL    HW214673   4.740   6.276   5.124
 4592SOL     OW14674   3.319   1.848   5.809
 4592SOL    HW114675   3.418   1.856   5.799
 4592SOL    HW214676   3.278   1.939   5.806
 4593SOL     OW14677   4.312   5.940   1.886
 4593SOL    HW114678   4.221   5.936   1.928
 4593SOL    HW214679   4.375   5.988   1.947
 4594SOL     OW14680   3.810   2.005   2.326
 4594SOL    HW114681   3.761   1.972   2.407
 4594SOL    HW214682   3.751   1.996   2.245
 4595SOL     OW14683   4.253   2.997   5.315
 4595SOL    HW114684   4.175   3.054   5.290
 4595SOL    HW214685   4.230   2.941   5.394
 4596SOL     OW14686   4.915   0.606   2.751
 4596SOL    HW114687   4.833   0.550   2.738
 4596SOL    HW214688   4.993   0.561   2.709
 4597SOL     OW14689   6.550   3.771   6.223
 4597SOL    HW114690   6.622   3.728   6.278
 4597SOL    HW214691   6.583   3.786   6.130
 4598SOL     OW14692   2.418   3.841   6.610
 4598SOL    HW114693   2.468   3.913   6.657
 4598SOL    HW214694   2.415   3.861   6.512
 4599SOL     OW14695   3.388   5.065   0.406
 4599SOL    HW114696   3.312   5.028   0.459
 4599SOL    HW214697   3.403   5.010   0.324
 4600SOL     OW14698   2.610   3.805   0.727
 4600SOL    HW114699   2.535   3.749   0.691
 4600SOL    HW214700   2.590   3.830   0.822
 4601SOL     OW14701   2.022   5.275   3.452
 4601SOL    HW114702   1.979   5.351   3.403
 4601SOL    HW214703   2.062   5.308   3.537
 4602SOL     OW14704   1.749   6.872   1.724
 4602SOL    HW114705   1.743   6.851   1.627
 4602SOL    HW214706   1.723   6.968   1.739
 4603SOL     OW14707   3.163   1.392   1.784
 4603SOL    HW114708   3.107   1.315   1.815
 4603SOL    HW214709   3.108   1.475   1.782
 4604SOL     OW14710   1.405   6.822   3.280
 4604SOL    HW114711   1.377   6.906   3.327
 4604SOL    HW214712   1.341   6.804   3.205
 4605SOL     OW14713   5.664   6.592   5.445
 4605SOL    HW114714   5.673   6.601   5.346
 4605SOL    HW214715   5.713   6.510   5.476
 4606SOL     OW14716   6.292   6.487   4.559
 4606SOL    HW114717   6.376   6.512   4.606
 4606SOL    HW214718   6.302   6.396   4.518
 4607SOL     OW14719   3.127   3.602   0.765
 4607SOL    HW114720   3.144   3.511   0.802
 4607SOL    HW214721   3.047   3.641   0.810
 4608SOL     OW14722   1.378   3.132   6.195
 4608SOL    HW114723   1.332   3.136   6.106
 4608SOL    HW214724   1.443   3.056   6.196
 4609SOL     OW14725   3.297   0.154   0.608
 4609SOL    HW114726   3.330   0.235   0.656
 4609SOL    HW214727   3.221   0.180   0.548
 4610SOL     OW14728   6.891   3.781   0.247
 4610SOL    HW114729   6.969   3.823   0.294
 4610SOL    HW214730   6.886   3.684   0.270
 4611SOL     OW14731   1.893   5.243   6.647
 4611SOL    HW114732   1.934   5.266   6.736
 4611SOL    HW214733   1.957   5.185   6.595
 4612SOL     OW14734   1.776   0.657   6.803
 4612SOL    HW114735   1.866   0.700   6.813
 4612SOL    HW214736   1.732   0.691   6.721
 4613SOL     OW14737   3.934   4.895   1.345
 4613SOL    HW114738   3.926   4.949   1.261
 4613SOL    HW214739   3.873   4.816   1.340
 4614SOL     OW14740   1.972   4.402   0.166
 4614SOL    HW114741   2.009   4.433   0.078
 4614SOL    HW214742   2.027   4.326   0.200
 4615SOL     OW14743   5.770   3.219   6.388
 4615SOL    HW114744   5.718   3.283   6.331
 4615SOL    HW214745   5.718   3.199   6.471
 4616SOL     OW14746   5.476   0.589   6.811
 4616SOL    HW114747   5.418   0.616   6.887
 4616SOL    HW214748   5.528   0.668   6.779
 4617SOL     OW14749   0.486   3.908   1.587
 4617SOL    HW114750   0.429   3.841   1.539
 4617SOL    HW214751   0.515   3.979   1.523
 4618SOL     OW14752   0.958   3.402   6.530
 4618SOL    HW114753   1.041   3.452   6.505
 4618SOL    HW214754   0.946   3.324   6.469
 4619SOL     OW14755   4.207   1.037   4.086
 4619SOL    HW114756   4.161   0.999   4.166
 4619SOL    HW214757   4.141   1.048   4.012
 4620SOL     OW14758   1.888   5.950   0.369
 4620SOL    HW114759   1.938   6.034   0.390
 4620SOL    HW214760   1.790   5.967   0.377
 4621SOL     OW14761   6.507   0.554   6.845
 4621SOL    HW114762   6.423   0.608   6.843
 4621SOL    HW214763   6.485   0.458   6.857
 4622SOL     OW14764   1.436   4.380   0.381
 4622SOL    HW114765   1.515   4.400   0.323
 4622SOL    HW214766   1.463   4.385   0.477
 4623SOL     OW14767   5.476   3.274   3.821
 4623SOL    HW114768   5.479   3.371   3.796
 4623SOL    HW214769   5.389   3.253   3.866
 4624SOL     OW14770   4.450   6.367   6.192
 4624SOL    HW114771   4.452   6.461   6.157
 4624SOL    HW214772   4.495   6.365   6.281
 4625SOL     OW14773   1.211   4.037   6.532
 4625SOL    HW114774   1.136   4.023   6.468
 4625SOL    HW214775   1.199   3.978   6.612
 4626SOL     OW14776   6.033   4.402   2.177
 4626SOL    HW114777   5.953   4.413   2.118
 4626SOL    HW214778   6.070   4.492   2.200
 4627SOL     OW14779   2.020   7.017   4.670
 4627SOL    HW114780   2.026   6.953   4.747
 4627SOL    HW214781   1.924   0.010   4.645
 4628SOL     OW14782   6.521   2.725   2.162
 4628SOL    HW114783   6.587   2.760   2.095
 4628SOL    HW214784   6.447   2.791   2.173
 4629SOL     OW14785   4.194   5.291   4.094
 4629SOL    HW114786   4.283   5.273   4.136
 4629SOL    HW214787   4.185   5.238   4.010
 4630SOL     OW14788   2.757   5.992   2.323
 4630SOL    HW114789   2.658   5.996   2.336
 4630SOL    HW214790   2.787   6.076   2.277
 4631SOL     OW14791   1.939   1.306   2.505
 4631SOL    HW114792   2.029   1.346   2.487
 4631SOL    HW214793   1.878   1.323   2.427
 4632SOL     OW14794   5.809   6.125   3.588
 4632SOL    HW114795   5.751   6.044   3.594
 4632SOL    HW214796   5.901   6.099   3.560
 4633SOL     OW14797   5.050   2.819   6.271
 4633SOL    HW114798   5.052   2.889   6.342
 4633SOL    HW214799   4.980   2.751   6.292
 4634SOL     OW14800   2.772   4.152   0.558
 4634SOL    HW114801   2.737   4.061   0.537
 4634SOL    HW214802   2.713   4.195   0.627
 4635SOL     OW14803   4.911   3.374   1.539
 4635SOL    HW114804   4.900   3.343   1.633
 4635SOL    HW214805   4.863   3.311   1.478
 4636SOL     OW14806   1.224   4.997   2.142
 4636SOL    HW114807   1.291   5.039   2.081
 4636SOL    HW214808   1.145   4.968   2.089
 4637SOL     OW14809   0.725   0.886   5.719
 4637SOL    HW114810   0.673   0.831   5.785
 4637SOL    HW214811   0.823   0.874   5.735
 4638SOL     OW14812   4.320   4.801   5.712
 4638SOL    HW114813   4.355   4.821   5.620
 4638SOL    HW214814   4.225   4.830   5.718
 4639SOL     OW14815   6.659   2.250   5.322
 4639SOL    HW114816   6.580   2.190   5.311
 4639SOL    HW214817   6.741   2.195   5.340
 4640SOL     OW14818   6.604   5.210   2.811
 4640SOL    HW114819   6.677   5.273   2.840
 4640SOL    HW214820   6.531   5.262   2.767
 4641SOL     OW14821   2.389   3.762   5.298
 4641SOL    HW114822   2.295   3.731   5.293
 4641SOL    HW214823   2.397   3.855   5.261
 4642SOL     OW14824   5.743   5.499   4.361
 4642SOL    HW114825   5.817   5.488   4.295
 4642SOL    HW214826   5.696   5.585   4.343
 4643SOL     OW14827   4.552   3.580   1.349
 4643SOL    HW114828   4.645   3.558   1.320
 4643SOL    HW214829   4.538   3.550   1.444
 4644SOL     OW14830   3.402   5.023   5.559
 4644SOL    HW114831   3.472   5.093   5.574
 4644SOL    HW214832   3.361   5.035   5.469
 4645SOL     OW14833   1.791   6.567   4.641
 4645SOL    HW114834   1.862   6.551   4.572
 4645SOL    HW214835   1.732   6.487   4.647
 4646SOL     OW14836   3.233   1.104   0.989
 4646SOL    HW114837   3.238   1.202   1.009
 4646SOL    HW214838   3.153   1.065   1.035
 4647SOL     OW14839   6.737   0.458   5.320
 4647SOL    HW114840   6.653   0.413   5.290
 4647SOL    HW214841   6.736   0.467   5.419
 4648SOL     OW14842   2.502   6.329   3.284
 4648SOL    HW114843   2.528   6.282   3.199
 4648SOL    HW214844   2.404   6.345   3.284
 4649SOL     OW14845   6.057   5.581   5.778
 4649SOL    HW114846   6.143   5.629   5.760
 4649SOL    HW214847   5.981   5.646   5.777
 4650SOL     OW14848   6.349   4.919   1.499
 4650SOL    HW114849   6.345   4.819   1.501
 4650SOL    HW214850   6.437   4.947   1.462
 4651SOL     OW14851   5.880   2.002   2.032
 4651SOL    HW114852   5.975   1.972   2.026
 4651SOL    HW214853   5.826   1.933   2.080
 4652SOL     OW14854   0.073   6.013   5.471
 4652SOL    HW114855   0.009   5.941   5.498
 4652SOL    HW214856   0.133   5.979   5.399
 4653SOL     OW14857   1.643   4.788   0.272
 4653SOL    HW114858   1.675   4.700   0.306
 4653SOL    HW214859   1.700   4.817   0.195
 4654SOL     OW14860   1.583   1.983   0.495
 4654SOL    HW114861   1.496   1.942   0.468
 4654SOL    HW214862   1.657   1.943   0.440
 4655SOL     OW14863   0.743   4.970   4.094
 4655SOL    HW114864   0.693   4.992   4.010
 4655SOL    HW214865   0.772   4.874   4.091
 4656SOL     OW14866   2.785   0.539   3.235
 4656SOL    HW114867   2.685   0.537   3.239
 4656SOL    HW214868   2.814   0.527   3.140
 4657SOL     OW14869   6.598   0.614   5.939
 4657SOL    HW114870   6.550   0.642   6.022
 4657SOL    HW214871   6.632   0.521   5.951
 4658SOL     OW14872   5.329   0.376   3.419
 4658SOL    HW114873   5.317   0.439   3.343
 4658SOL    HW214874   5.281   0.290   3.400
 4659SOL     OW14875   2.121   3.438   4.310
 4659SOL    HW114876   2.046   3.380   4.339
 4659SOL    HW214877   2.151   3.495   4.386
 4660SOL     OW14878   6.790   1.098   4.899
 4660SOL    HW114879   6.852   1.040   4.953
 4660SOL    HW214880   6.844   1.163   4.846
 4661SOL     OW14881   3.773   2.928   3.942
 4661SOL    HW114882   3.773   2.965   3.849
 4661SOL    HW214883   3.718   2.844   3.944
 4662SOL     OW14884   6.593   6.458   4.421
 4662SOL    HW114885   6.671   6.452   4.483
 4662SOL    HW214886   6.609   6.532   4.355
 4663SOL     OW14887   0.859   2.329   2.483
 4663SOL    HW114888   0.907   2.275   2.414
 4663SOL    HW214889   0.895   2.307   2.574
 4664SOL     OW14890   3.766   4.236   0.206
 4664SOL    HW114891   3.754   4.141   0.177
 4664SOL    HW214892   3.739   4.245   0.301
 4665SOL     OW14893   5.811   0.543   5.750
 4665SOL    HW114894   5.872   0.488   5.692
 4665SOL    HW214895   5.863   0.615   5.796
 4666SOL     OW14896   1.706   1.310   0.470
 4666SOL    HW114897   1.675   1.236   0.411
 4666SOL    HW214898   1.804   1.300   0.487
 4667SOL     OW14899   0.401   5.969   3.847
 4667SOL    HW114900   0.336   5.901   3.881
 4667SOL    HW214901   0.383   5.987   3.751
 4668SOL     OW14902   5.374   0.976   4.961
 4668SOL    HW114903   5.464   1.004   4.995
 4668SOL    HW214904   5.381   0.948   4.866
 4669SOL     OW14905   2.141   1.659   2.428
 4669SOL    HW114906   2.081   1.686   2.354
 4669SOL    HW214907   2.233   1.695   2.412
 4670SOL     OW14908   2.378   1.734   4.614
 4670SOL    HW114909   2.328   1.768   4.534
 4670SOL    HW214910   2.358   1.637   4.627
 4671SOL     OW14911   6.108   1.777   2.685
 4671SOL    HW114912   6.201   1.760   2.653
 4671SOL    HW214913   6.092   1.876   2.688
 4672SOL     OW14914   2.818   2.195   5.188
 4672SOL    HW114915   2.734   2.211   5.137
 4672SOL    HW214916   2.834   2.272   5.250
 4673SOL     OW14917   5.252   0.330   2.072
 4673SOL    HW114918   5.235   0.268   2.149
 4673SOL    HW214919   5.348   0.357   2.072
 4674SOL     OW14920   4.655   6.419   5.377
 4674SOL    HW114921   4.641   6.511   5.413
 4674SOL    HW214922   4.631   6.417   5.280
 4675SOL     OW14923   0.777   4.307   6.925
 4675SOL    HW114924   0.862   4.332   6.879
 4675SOL    HW214925   0.782   4.211   6.954
 4676SOL     OW14926   1.212   4.624   3.566
 4676SOL    HW114927   1.307   4.612   3.595
 4676SOL    HW214928   1.208   4.624   3.466
 4677SOL     OW14929   1.147   3.624   0.632
 4677SOL    HW114930   1.230   3.651   0.681
 4677SOL    HW214931   1.170   3.603   0.537
 4678SOL     OW14932   1.248   2.787   1.305
 4678SOL    HW114933   1.212   2.702   1.269
 4678SOL    HW214934   1.221   2.798   1.401
 4679SOL     OW14935   4.637   0.590   2.162
 4679SOL    HW114936   4.543   0.604   2.194
 4679SOL    HW214937   4.643   0.612   2.065
 4680SOL     OW14938   2.778   0.867   6.645
 4680SOL    HW114939   2.713   0.937   6.613
 4680SOL    HW214940   2.730   0.801   6.703
 4681SOL     OW14941   4.613   5.843   2.447
 4681SOL    HW114942   4.561   5.816   2.528
 4681SOL    HW214943   4.613   5.768   2.381
 4682SOL     OW14944   3.469   3.052   6.160
 4682SOL    HW114945   3.498   2.996   6.083
 4682SOL    HW214946   3.405   3.122   6.129
 4683SOL     OW14947   6.572   4.363   4.325
 4683SOL    HW114948   6.624   4.429   4.381
 4683SOL    HW214949   6.635   4.293   4.291
 4684SOL     OW14950   5.540   0.239   5.687
 4684SOL    HW114951   5.500   0.170   5.627
 4684SOL    HW214952   5.612   0.288   5.637
 4685SOL     OW14953   3.156   4.024   4.284
 4685SOL    HW114954   3.202   3.935   4.285
 4685SOL    HW214955   3.133   4.051   4.378
 4686SOL     OW14956   1.274   0.053   6.733
 4686SOL    HW114957   1.182   0.090   6.722
 4686SOL    HW214958   1.285   6.994   6.673
 4687SOL     OW14959   1.410   0.542   2.744
 4687SOL    HW114960   1.315   0.548   2.713
 4687SOL    HW214961   1.423   0.457   2.795
 4688SOL     OW14962   4.740   2.892   4.817
 4688SOL    HW114963   4.673   2.954   4.859
 4688SOL    HW214964   4.707   2.798   4.823
 4689SOL     OW14965   0.022   0.665   1.215
 4689SOL    HW114966   0.103   0.714   1.246
 4689SOL    HW214967   0.049   0.589   1.156
 4690SOL     OW14968   3.630   2.765   1.232
 4690SOL    HW114969   3.715   2.785   1.184
 4690SOL    HW214970   3.632   2.808   1.323
 4691SOL     OW14971   6.386   3.675   1.774
 4691SOL    HW114972   6.419   3.768   1.763
 4691SOL    HW214973   6.348   3.663   1.866
 4692SOL     OW14974   5.638   2.951   2.772
 4692SOL    HW114975   5.597   2.991   2.690
 4692SOL    HW214976   5.700   3.017   2.814
 4693SOL     OW14977   7.007   0.157   3.906
 4693SOL    HW114978   0.009   0.248   3.939
 4693SOL    HW214979   0.062   0.094   3.924
 4694SOL     OW14980   2.343   6.676   5.775
 4694SOL    HW114981   2.270   6.634   5.721
 4694SOL    HW214982   2.426   6.681   5.719
 4695SOL     OW14983   2.112   4.900   1.824
 4695SOL    HW114984   2.134   4.959   1.746
 4695SOL    HW214985   2.196   4.860   1.860
 4696SOL     OW14986   2.001   6.389   6.275
 4696SOL    HW114987   2.038   6.308   6.320
 4696SOL    HW214988   2.068   6.463   6.278
 4697SOL     OW14989   4.700   5.637   1.141
 4697SOL    HW114990   4.626   5.604   1.200
 4697SOL    HW214991   4.755   5.560   1.111
 4698SOL     OW14992   5.425   1.552   4.516
 4698SOL    HW114993   5.460   1.642   4.539
 4698SOL    HW214994   5.326   1.550   4.531
 4699SOL     OW14995   0.965   1.448   2.597
 4699SOL    HW114996   0.973   1.353   2.629
 4699SOL    HW214997   0.870   1.466   2.571
 4700SOL     OW14998   6.927   1.780   3.490
 4700SOL    HW114999   6.883   1.838   3.558
 4700SOL    HW215000   7.010   1.826   3.456
 4701SOL     OW15001   3.109   2.609   1.744
 4701SOL    HW115002   3.079   2.542   1.812
 4701SOL    HW215003   3.043   2.611   1.668
 4702SOL     OW15004   6.204   4.981   1.158
 4702SOL    HW115005   6.148   4.933   1.226
 4702SOL    HW215006   6.198   5.079   1.172
 4703SOL     OW15007   0.416   5.182   3.732
 4703SOL    HW115008   0.372   5.136   3.655
 4703SOL    HW215009   0.345   5.224   3.790
 4704SOL     OW15010   1.608   4.592   4.926
 4704SOL    HW115011   1.596   4.690   4.942
 4704SOL    HW215012   1.694   4.576   4.877
 4705SOL     OW15013   3.443   2.013   1.678
 4705SOL    HW115014   3.365   1.999   1.617
 4705SOL    HW215015   3.458   2.111   1.691
 4706SOL     OW15016   1.674   2.271   0.785
 4706SOL    HW115017   1.633   2.362   0.795
 4706SOL    HW215018   1.715   2.264   0.694
 4707SOL     OW15019   1.828   5.394   2.392
 4707SOL    HW115020   1.913   5.410   2.343
 4707SOL    HW215021   1.830   5.443   2.479
 4708SOL     OW15022   2.047   2.868   6.557
 4708SOL    HW115023   2.068   2.812   6.637
 4708SOL    HW215024   1.953   2.901   6.563
 4709SOL     OW15025   5.436   3.588   4.832
 4709SOL    HW115026   5.342   3.621   4.842
 4709SOL    HW215027   5.499   3.654   4.871
 4710SOL     OW15028   5.798   5.326   5.439
 4710SOL    HW115029   5.814   5.368   5.350
 4710SOL    HW215030   5.749   5.239   5.426
 4711SOL     OW15031   4.820   4.503   2.888
 4711SOL    HW115032   4.919   4.515   2.881
 4711SOL    HW215033   4.797   4.407   2.876
 4712SOL     OW15034   3.779   4.764   5.959
 4712SOL    HW115035   3.691   4.778   5.914
 4712SOL    HW215036   3.843   4.835   5.928
 4713SOL     OW15037   5.439   4.873   1.030
 4713SOL    HW115038   5.526   4.917   1.006
 4713SOL    HW215039   5.457   4.786   1.077
 4714SOL     OW15040   4.553   1.792   6.041
 4714SOL    HW115041   4.624   1.832   6.100
 4714SOL    HW215042   4.535   1.698   6.070
 4715SOL     OW15043   6.554   1.928   2.226
 4715SOL    HW115044   6.464   1.925   2.271
 4715SOL    HW215045   6.564   2.015   2.178
 4716SOL     OW15046   3.849   4.463   5.895
 4716SOL    HW115047   3.754   4.488   5.914
 4716SOL    HW215048   3.872   4.380   5.946
 4717SOL     OW15049   1.843   4.990   6.194
 4717SOL    HW115050   1.800   4.924   6.132
 4717SOL    HW215051   1.840   5.081   6.153
 4718SOL     OW15052   4.850   3.889   2.669
 4718SOL    HW115053   4.900   3.859   2.587
 4718SOL    HW215054   4.762   3.843   2.673
 4719SOL     OW15055   6.045   4.065   4.072
 4719SOL    HW115056   5.964   4.022   4.112
 4719SOL    HW215057   6.070   4.016   3.988
 4720SOL     OW15058   1.116   1.894   6.187
 4720SOL    HW115059   1.167   1.853   6.112
 4720SOL    HW215060   1.019   1.871   6.179
 4721SOL     OW15061   0.492   2.878   2.593
 4721SOL    HW115062   0.518   2.822   2.672
 4721SOL    HW215063   0.436   2.955   2.624
 4722SOL     OW15064   1.616   5.380   5.805
 4722SOL    HW115065   1.655   5.460   5.759
 4722SOL    HW215066   1.665   5.364   5.891
 4723SOL     OW15067   2.872   4.438   5.938
 4723SOL    HW115068   2.914   4.526   5.962
 4723SOL    HW215069   2.884   4.421   5.840
 4724SOL     OW15070   7.007   0.010   4.277
 4724SOL    HW115071   6.917   0.044   4.305
 4724SOL    HW215072   6.998   6.935   4.249
 4725SOL     OW15073   6.210   5.248   1.212
 4725SOL    HW115074   6.117   5.243   1.248
 4725SOL    HW215075   6.272   5.279   1.284
 4726SOL     OW15076   1.757   2.700   6.025
 4726SOL    HW115077   1.812   2.648   6.090
 4726SOL    HW215078   1.813   2.726   5.946
 4727SOL     OW15079   6.136   5.667   1.538
 4727SOL    HW115080   6.050   5.616   1.527
 4727SOL    HW215081   6.125   5.758   1.498
 4728SOL     OW15082   4.494   0.859   3.509
 4728SOL    HW115083   4.517   0.933   3.446
 4728SOL    HW215084   4.494   0.894   3.603
 4729SOL     OW15085   0.161   1.352   2.673
 4729SOL    HW115086   0.174   1.308   2.762
 4729SOL    HW215087   0.091   1.424   2.681
 4730SOL     OW15088   3.005   0.531   3.715
 4730SOL    HW115089   2.940   0.606   3.705
 4730SOL    HW215090   3.054   0.518   3.628
 4731SOL     OW15091   3.438   6.714   2.011
 4731SOL    HW115092   3.360   6.759   1.969
 4731SOL    HW215093   3.504   6.783   2.041
 4732SOL     OW15094   0.200   4.971   4.789
 4732SOL    HW115095   0.296   4.944   4.795
 4732SOL    HW215096   0.143   4.907   4.840
 4733SOL     OW15097   1.920   4.078   3.078
 4733SOL    HW115098   1.891   4.006   3.141
 4733SOL    HW215099   2.014   4.060   3.048
 4734SOL     OW15100   4.949   4.287   6.394
 4734SOL    HW115101   4.898   4.342   6.461
 4734SOL    HW215102   4.889   4.265   6.317
 4735SOL     OW15103   6.696   0.796   5.412
 4735SOL    HW115104   6.675   0.779   5.508
 4735SOL    HW215105   6.794   0.780   5.397
 4736SOL     OW15106   6.490   0.372   4.947
 4736SOL    HW115107   6.538   0.309   5.009
 4736SOL    HW215108   6.391   0.361   4.958
 4737SOL     OW15109   2.299   5.210   0.208
 4737SOL    HW115110   2.230   5.280   0.228
 4737SOL    HW215111   2.379   5.225   0.266
 4738SOL     OW15112   0.236   5.410   3.374
 4738SOL    HW115113   0.267   5.347   3.302
 4738SOL    HW215114   0.310   5.425   3.439
 4739SOL     OW15115   5.780   3.508   3.273
 4739SOL    HW115116   5.751   3.437   3.337
 4739SOL    HW215117   5.702   3.563   3.246
 4740SOL     OW15118   2.097   6.489   0.826
 4740SOL    HW115119   2.002   6.519   0.837
 4740SOL    HW215120   2.155   6.545   0.885
 4741SOL     OW15121   5.778   4.814   1.844
 4741SOL    HW115122   5.694   4.763   1.826
 4741SOL    HW215123   5.758   4.912   1.846
 4742SOL     OW15124   2.055   5.546   2.296
 4742SOL    HW115125   1.981   5.611   2.314
 4742SOL    HW215126   2.143   5.593   2.307
 4743SOL     OW15127   2.648   3.913   0.488
 4743SOL    HW115128   2.717   3.868   0.431
 4743SOL    HW215129   2.641   3.864   0.576
 4744SOL     OW15130   2.946   1.454   5.982
 4744SOL    HW115131   2.997   1.518   6.040
 4744SOL    HW215132   2.848   1.465   5.999
 4745SOL     OW15133   4.488   5.790   4.348
 4745SOL    HW115134   4.540   5.810   4.264
 4745SOL    HW215135   4.395   5.824   4.338
 4746SOL     OW15136   5.618   1.163   0.867
 4746SOL    HW115137   5.560   1.197   0.941
 4746SOL    HW215138   5.679   1.093   0.903
 4747SOL     OW15139   1.174   2.558   2.348
 4747SOL    HW115140   1.190   2.655   2.331
 4747SOL    HW215141   1.081   2.534   2.319
 4748SOL     OW15142   2.211   6.237   0.277
 4748SOL    HW115143   2.148   6.272   0.207
 4748SOL    HW215144   2.230   6.141   0.259
 4749SOL     OW15145   3.437   1.074   6.998
 4749SOL    HW115146   3.534   1.070   6.972
 4749SOL    HW215147   3.408   1.170   7.004
 4750SOL     OW15148   0.662   2.233   4.962
 4750SOL    HW115149   0.697   2.315   5.008
 4750SOL    HW215150   0.659   2.158   5.027
 4751SOL     OW15151   1.303   4.341   6.808
 4751SOL    HW115152   1.331   4.437   6.797
 4751SOL    HW215153   1.211   4.329   6.771
 4752SOL     OW15154   2.061   6.065   1.328
 4752SOL    HW115155   2.060   6.154   1.374
 4752SOL    HW215156   1.983   6.060   1.266
 4753SOL     OW15157   0.136   0.718   6.450
 4753SOL    HW115158   0.144   0.629   6.406
 4753SOL    HW215159   0.058   0.718   6.512
 4754SOL     OW15160   1.431   1.169   6.363
 4754SOL    HW115161   1.391   1.078   6.360
 4754SOL    HW215162   1.369   1.234   6.319
 4755SOL     OW15163   2.940   0.119   2.999
 4755SOL    HW115164   2.891   0.035   2.977
 4755SOL    HW215165   3.031   0.116   2.957
 4756SOL     OW15166   5.951   2.336   1.090
 4756SOL    HW115167   5.862   2.291   1.080
 4756SOL    HW215168   5.975   2.382   1.004
 4757SOL     OW15169   2.541   2.718   0.720
 4757SOL    HW115170   2.595   2.635   0.731
 4757SOL    HW215171   2.513   2.751   0.811
 4758SOL     OW15172   6.241   3.538   6.584
 4758SOL    HW115173   6.222   3.635   6.600
 4758SOL    HW215174   6.248   3.521   6.486
 4759SOL     OW15175   6.984   4.085   6.641
 4759SOL    HW115176   6.938   4.174   6.652
 4759SOL    HW215177   0.010   4.083   6.552
 4760SOL     OW15178   1.026   2.610   0.401
 4760SOL    HW115179   0.938   2.648   0.429
 4760SOL    HW215180   1.084   2.683   0.364
 4761SOL     OW15181   2.750   6.090   6.493
 4761SOL    HW115182   2.841   6.052   6.476
 4761SOL    HW215183   2.760   6.180   6.538
 4762SOL     OW15184   3.577   0.061   2.505
 4762SOL    HW115185   3.535   0.002   2.574
 4762SOL    HW215186   3.625   0.005   2.437
 4763SOL     OW15187   4.952   5.159   4.739
 4763SOL    HW115188   5.033   5.200   4.782
 4763SOL    HW215189   4.981   5.090   4.673
 4764SOL     OW15190   3.569   3.542   3.777
 4764SOL    HW115191   3.646   3.596   3.742
 4764SOL    HW215192   3.598   3.491   3.858
 4765SOL     OW15193   5.807   5.646   6.116
 4765SOL    HW115194   5.716   5.630   6.153
 4765SOL    HW215195   5.864   5.693   6.184
 4766SOL     OW15196   2.912   1.437   3.351
 4766SOL    HW115197   2.868   1.490   3.423
 4766SOL    HW215198   2.983   1.378   3.390
 4767SOL     OW15199   4.514   0.948   7.010
 4767SOL    HW115200   4.423   0.931   6.972
 4767SOL    HW215201   4.505   0.981   0.083
 4768SOL     OW15202   1.843   0.619   5.549
 4768SOL    HW115203   1.939   0.645   5.559
 4768SOL    HW215204   1.792   0.694   5.507
 4769SOL     OW15205   4.680   0.730   1.918
 4769SOL    HW115206   4.717   0.816   1.883
 4769SOL    HW215207   4.694   0.657   1.851
 4770SOL     OW15208   2.109   1.320   3.895
 4770SOL    HW115209   2.083   1.399   3.951
 4770SOL    HW215210   2.031   1.292   3.839
 4771SOL     OW15211   4.125   4.379   6.058
 4771SOL    HW115212   4.034   4.362   6.097
 4771SOL    HW215213   4.128   4.470   6.019
 4772SOL     OW15214   3.390   2.664   0.157
 4772SOL    HW115215   3.371   2.684   0.061
 4772SOL    HW215216   3.389   2.566   0.173
 4773SOL     OW15217   6.866   4.944   5.055
 4773SOL    HW115218   6.827   5.012   4.993
 4773SOL    HW215219   6.792   4.900   5.106
 4774SOL     OW15220   1.703   4.543   6.796
 4774SOL    HW115221   1.628   4.588   6.748
 4774SOL    HW215222   1.667   4.496   6.877
 4775SOL     OW15223   1.929   2.668   2.139
 4775SOL    HW115224   1.973   2.671   2.228
 4775SOL    HW215225   1.926   2.759   2.099
 4776SOL     OW15226   4.058   5.231   1.754
 4776SOL    HW115227   4.084   5.247   1.849
 4776SOL    HW215228   4.132   5.181   1.708
 4777SOL     OW15229   2.087   4.490   1.307
 4777SOL    HW115230   1.996   4.476   1.268
 4777SOL    HW215231   2.087   4.463   1.403
 4778SOL     OW15232   5.132   3.398   2.776
 4778SOL    HW115233   5.208   3.370   2.836
 4778SOL    HW215234   5.153   3.373   2.682
 4779SOL     OW15235   5.318   1.359   2.851
 4779SOL    HW115236   5.235   1.304   2.856
 4779SOL    HW215237   5.368   1.336   2.768
 4780SOL     OW15238   1.815   1.654   5.607
 4780SOL    HW115239   1.765   1.721   5.553
 4780SOL    HW215240   1.861   1.699   5.684
 4781SOL     OW15241   2.422   5.409   3.011
 4781SOL    HW115242   2.514   5.448   3.014
 4781SOL    HW215243   2.369   5.456   2.940
 4782SOL     OW15244   6.025   6.179   6.945
 4782SOL    HW115245   6.080   6.257   6.974
 4782SOL    HW215246   6.078   6.122   6.882
 4783SOL     OW15247   5.780   4.062   2.878
 4783SOL    HW115248   5.801   3.999   2.803
 4783SOL    HW215249   5.737   4.011   2.952
 4784SOL     OW15250   5.321   4.692   4.802
 4784SOL    HW115251   5.366   4.752   4.868
 4784SOL    HW215252   5.372   4.606   4.795
 4785SOL     OW15253   5.670   6.316   0.737
 4785SOL    HW115254   5.618   6.270   0.665
 4785SOL    HW215255   5.746   6.367   0.695
 4786SOL     OW15256   1.414   3.900   2.307
 4786SOL    HW115257   1.333   3.905   2.365
 4786SOL    HW215258   1.471   3.822   2.335
 4787SOL     OW15259   3.786   2.088   2.778
 4787SOL    HW115260   3.824   2.143   2.852
 4787SOL    HW215261   3.860   2.041   2.730
 4788SOL     OW15262   2.345   0.532   4.450
 4788SOL    HW115263   2.292   0.615   4.467
 4788SOL    HW215264   2.308   0.485   4.370
 4789SOL     OW15265   5.119   6.000   7.020
 4789SOL    HW115266   5.094   5.968   0.090
 4789SOL    HW215267   5.079   6.090   7.004
 4790SOL     OW15268   5.143   0.045   6.633
 4790SOL    HW115269   5.076   7.013   6.580
 4790SOL    HW215270   5.136   0.019   6.730
 4791SOL     OW15271   4.387   2.361   3.202
 4791SOL    HW115272   4.458   2.426   3.227
 4791SOL    HW215273   4.414   2.312   3.120
 4792SOL     OW15274   3.165   3.324   0.823
 4792SOL    HW115275   3.098   3.251   0.837
 4792SOL    HW215276   3.251   3.285   0.791
 4793SOL     OW15277   0.458   0.794   0.255
 4793SOL    HW115278   0.512   0.822   0.176
 4793SOL    HW215279   0.362   0.786   0.229
 4794SOL     OW15280   5.632   1.103   2.029
 4794SOL    HW115281   5.590   1.166   2.094
 4794SOL    HW215282   5.699   1.152   1.973
 4795SOL     OW15283   5.932   2.733   4.261
 4795SOL    HW115284   5.997   2.658   4.250
 4795SOL    HW215285   5.981   2.816   4.287
 4796SOL     OW15286   4.963   3.776   0.377
 4796SOL    HW115287   5.048   3.790   0.327
 4796SOL    HW215288   4.918   3.864   0.394
 4797SOL     OW15289   1.469   5.731   4.782
 4797SOL    HW115290   1.500   5.705   4.690
 4797SOL    HW215291   1.380   5.690   4.799
 4798SOL     OW15292   6.923   5.320   6.223
 4798SOL    HW115293   6.945   5.223   6.215
 4798SOL    HW215294   6.829   5.330   6.257
 4799SOL     OW15295   4.963   1.750   3.942
 4799SOL    HW115296   5.016   1.698   4.009
 4799SOL    HW215297   4.879   1.701   3.919
 4800SOL     OW15298   1.745   2.690   3.483
 4800SOL    HW115299   1.650   2.711   3.459
 4800SOL    HW215300   1.783   2.767   3.535
 4801SOL     OW15301   0.147   1.951   0.580
 4801SOL    HW115302   0.066   1.901   0.547
 4801SOL    HW215303   0.222   1.938   0.515
 4802SOL     OW15304   1.795   0.182   2.087
 4802SOL    HW115305   1.773   0.264   2.139
 4802SOL    HW215306   1.727   0.111   2.106
 4803SOL     OW15307   1.263   6.759   0.998
 4803SOL    HW115308   1.218   6.751   1.088
 4803SOL    HW215309   1.194   6.771   0.927
 4804SOL     OW15310   4.305   5.716   0.447
 4804SOL    HW115311   4.257   5.788   0.497
 4804SOL    HW215312   4.370   5.671   0.508
 4805SOL     OW15313   0.440   6.973   1.968
 4805SOL    HW115314   0.381   6.913   1.914
 4805SOL    HW215315   0.464   6.927   2.054
 4806SOL     OW15316   0.339   2.359   3.832
 4806SOL    HW115317   0.406   2.397   3.769
 4806SOL    HW215318   0.255   2.335   3.781
 4807SOL     OW15319   1.135   0.377   2.925
 4807SOL    HW115320   1.122   0.432   3.008
 4807SOL    HW215321   1.190   0.297   2.947
 4808SOL     OW15322   6.718   2.097   0.286
 4808SOL    HW115323   6.640   2.034   0.292
 4808SOL    HW215324   6.720   2.154   0.368
 4809SOL     OW15325   4.625   7.002   0.331
 4809SOL    HW115326   4.676   7.010   0.246
 4809SOL    HW215327   4.584   0.069   0.355
 4810SOL     OW15328   2.017   6.334   6.842
 4810SOL    HW115329   2.090   6.270   6.819
 4810SOL    HW215330   1.929   6.287   6.836
 4811SOL     OW15331   5.165   4.127   4.188
 4811SOL    HW115332   5.231   4.100   4.118
 4811SOL    HW215333   5.186   4.079   4.274
 4812SOL     OW15334   6.531   5.093   4.098
 4812SOL    HW115335   6.525   5.191   4.082
 4812SOL    HW215336   6.439   5.056   4.114
 4813SOL     OW15337   5.685   3.502   2.808
 4813SOL    HW115338   5.652   3.430   2.747
 4813SOL    HW215339   5.622   3.580   2.806
 4814SOL     OW15340   0.514   2.853   1.434
 4814SOL    HW115341   0.473   2.879   1.347
 4814SOL    HW215342   0.506   2.754   1.446
 4815SOL     OW15343   4.661   0.638   3.678
 4815SOL    HW115344   4.701   0.599   3.761
 4815SOL    HW215345   4.689   0.733   3.668
 4816SOL     OW15346   5.813   4.351   4.400
 4816SOL    HW115347   5.733   4.310   4.443
 4816SOL    HW215348   5.792   4.373   4.305
 4817SOL     OW15349   6.190   1.642   6.844
 4817SOL    HW115350   6.119   1.710   6.823
 4817SOL    HW215351   6.244   1.673   6.921
 4818SOL     OW15352   6.763   5.981   3.409
 4818SOL    HW115353   6.831   5.996   3.481
 4818SOL    HW215354   6.731   5.886   3.411
 4819SOL     OW15355   1.897   3.260   0.446
 4819SOL    HW115356   1.948   3.232   0.365
 4819SOL    HW215357   1.844   3.182   0.480
 4820SOL     OW15358   6.941   3.626   1.857
 4820SOL    HW115359   6.883   3.581   1.925
 4820SOL    HW215360   7.017   3.673   1.903
 4821SOL     OW15361   0.590   5.501   4.007
 4821SOL    HW115362   0.644   5.448   3.942
 4821SOL    HW215363   0.572   5.445   4.089
 4822SOL     OW15364   2.812   4.762   4.341
 4822SOL    HW115365   2.807   4.815   4.257
 4822SOL    HW215366   2.749   4.685   4.337
 4823SOL     OW15367   1.380   2.188   0.588
 4823SOL    HW115368   1.472   2.190   0.549
 4823SOL    HW215369   1.332   2.272   0.565
 4824SOL     OW15370   6.734   2.225   6.690
 4824SOL    HW115371   6.634   2.221   6.689
 4824SOL    HW215372   6.770   2.148   6.741
 4825SOL     OW15373   1.307   6.248   3.829
 4825SOL    HW115374   1.245   6.251   3.750
 4825SOL    HW215375   1.360   6.333   3.832
 4826SOL     OW15376   4.080   6.695   0.330
 4826SOL    HW115377   4.076   6.667   0.426
 4826SOL    HW215378   4.082   6.614   0.271
 4827SOL     OW15379   5.724   1.327   1.841
 4827SOL    HW115380   5.626   1.341   1.853
 4827SOL    HW215381   5.775   1.391   1.899
 4828SOL     OW15382   5.485   1.176   6.639
 4828SOL    HW115383   5.400   1.124   6.641
 4828SOL    HW215384   5.491   1.227   6.553
 4829SOL     OW15385   4.435   5.715   5.064
 4829SOL    HW115386   4.496   5.759   5.131
 4829SOL    HW215387   4.369   5.657   5.112
 4830SOL     OW15388   1.956   6.790   3.361
 4830SOL    HW115389   2.002   6.724   3.302
 4830SOL    HW215390   1.861   6.800   3.332
 4831SOL     OW15391   3.289   4.696   5.495
 4831SOL    HW115392   3.245   4.715   5.407
 4831SOL    HW215393   3.243   4.748   5.567
 4832SOL     OW15394   4.067   3.349   4.052
 4832SOL    HW115395   4.095   3.341   4.148
 4832SOL    HW215396   4.041   3.259   4.017
 4833SOL     OW15397   5.789   2.243   5.003
 4833SOL    HW115398   5.830   2.307   4.939
 4833SOL    HW215399   5.794   2.280   5.096
 4834SOL     OW15400   0.761   5.154   1.132
 4834SOL    HW115401   0.856   5.124   1.122
 4834SOL    HW215402   0.742   5.228   1.066
 4835SOL     OW15403   6.989   3.356   6.071
 4835SOL    HW115404   0.023   3.434   6.041
 4835SOL    HW215405   6.953   3.374   6.163
 4836SOL     OW15406   4.387   0.986   5.480
 4836SOL    HW115407   4.374   1.083   5.503
 4836SOL    HW215408   4.331   0.963   5.401
 4837SOL     OW15409   1.382   3.441   4.739
 4837SOL    HW115410   1.406   3.526   4.785
 4837SOL    HW215411   1.416   3.363   4.791
 4838SOL     OW15412   2.293   4.245   5.995
 4838SOL    HW115413   2.278   4.156   5.953
 4838SOL    HW215414   2.342   4.305   5.932
 4839SOL     OW15415   2.506   0.790   2.178
 4839SOL    HW115416   2.480   0.856   2.108
 4839SOL    HW215417   2.427   0.733   2.202
 4840SOL     OW15418   5.044   2.391   3.415
 4840SOL    HW115419   5.011   2.416   3.324
 4840SOL    HW215420   4.994   2.311   3.448
 4841SOL     OW15421   2.669   5.479   3.076
 4841SOL    HW115422   2.640   5.406   3.138
 4841SOL    HW215423   2.732   5.540   3.124
 4842SOL     OW15424   4.575   5.108   3.433
 4842SOL    HW115425   4.673   5.098   3.419
 4842SOL    HW215426   4.528   5.022   3.411
 4843SOL     OW15427   5.760   2.352   0.133
 4843SOL    HW115428   5.796   2.270   0.088
 4843SOL    HW215429   5.792   2.433   0.085
 4844SOL     OW15430   0.750   5.132   6.653
 4844SOL    HW115431   0.699   5.050   6.630
 4844SOL    HW215432   0.729   5.160   6.746
 4845SOL     OW15433   5.384   4.321   5.038
 4845SOL    HW115434   5.284   4.322   5.048
 4845SOL    HW215435   5.410   4.366   4.953
 4846SOL     OW15436   6.456   4.223   4.739
 4846SOL    HW115437   6.440   4.322   4.744
 4846SOL    HW215438   6.552   4.206   4.718
 4847SOL     OW15439   2.954   6.957   6.963
 4847SOL    HW115440   2.875   6.917   6.916
 4847SOL    HW215441   2.995   6.889   0.003
 4848SOL     OW15442   4.539   1.460   3.669
 4848SOL    HW115443   4.455   1.507   3.696
 4848SOL    HW215444   4.519   1.363   3.657
 4849SOL     OW15445   1.566   5.534   1.835
 4849SOL    HW115446   1.491   5.468   1.821
 4849SOL    HW215447   1.545   5.591   1.914
 4850SOL     OW15448   3.455   0.206   2.196
 4850SOL    HW115449   3.489   0.285   2.144
 4850SOL    HW215450   3.374   0.233   2.248
 4851SOL     OW15451   4.839   4.419   6.585
 4851SOL    HW115452   4.777   4.416   6.663
 4851SOL    HW215453   4.893   4.503   6.588
 4852SOL     OW15454   4.946   3.802   5.498
 4852SOL    HW115455   4.865   3.757   5.461
 4852SOL    HW215456   5.026   3.779   5.443
 4853SOL     OW15457   4.200   0.575   2.943
 4853SOL    HW115458   4.164   0.668   2.952
 4853SOL    HW215459   4.132   0.509   2.974
 4854SOL     OW15460   4.190   6.795   2.425
 4854SOL    HW115461   4.193   6.810   2.327
 4854SOL    HW215462   4.207   6.699   2.445
 4855SOL     OW15463   4.266   4.972   5.420
 4855SOL    HW115464   4.191   4.907   5.405
 4855SOL    HW215465   4.288   5.018   5.335
 4856SOL     OW15466   1.149   2.377   2.055
 4856SOL    HW115467   1.221   2.353   2.121
 4856SOL    HW215468   1.074   2.421   2.103
 4857SOL     OW15469   2.622   1.762   5.893
 4857SOL    HW115470   2.582   1.753   5.801
 4857SOL    HW215471   2.595   1.850   5.932
 4858SOL     OW15472   2.346   5.182   4.865
 4858SOL    HW115473   2.376   5.091   4.891
 4858SOL    HW215474   2.415   5.225   4.808
 4859SOL     OW15475   6.573   5.620   3.433
 4859SOL    HW115476   6.492   5.561   3.429
 4859SOL    HW215477   6.558   5.701   3.375
 4860SOL     OW15478   4.176   5.215   1.193
 4860SOL    HW115479   4.165   5.298   1.247
 4860SOL    HW215480   4.262   5.218   1.143
 4861SOL     OW15481   5.924   4.956   4.776
 4861SOL    HW115482   5.868   4.972   4.694
 4861SOL    HW215483   5.997   4.891   4.754
 4862SOL     OW15484   1.405   5.324   4.461
 4862SOL    HW115485   1.467   5.317   4.383
 4862SOL    HW215486   1.400   5.419   4.491
 4863SOL     OW15487   5.636   1.704   1.406
 4863SOL    HW115488   5.709   1.741   1.464
 4863SOL    HW215489   5.583   1.637   1.459
 4864SOL     OW15490   2.357   2.734   1.527
 4864SOL    HW115491   2.329   2.825   1.555
 4864SOL    HW215492   2.384   2.681   1.607
 4865SOL     OW15493   3.912   6.816   5.222
 4865SOL    HW115494   3.929   6.914   5.226
 4865SOL    HW215495   3.944   6.780   5.134
 4866SOL     OW15496   0.608   4.935   1.855
 4866SOL    HW115497   0.557   4.999   1.797
 4866SOL    HW215498   0.677   4.889   1.799
 4867SOL     OW15499   5.738   4.587   5.977
 4867SOL    HW115500   5.755   4.490   5.990
 4867SOL    HW215501   5.649   4.600   5.932
 4868SOL     OW15502   2.190   5.741   1.931
 4868SOL    HW115503   2.250   5.796   1.874
 4868SOL    HW215504   2.230   5.651   1.944
 4869SOL     OW15505   0.575   1.982   1.706
 4869SOL    HW115506   0.553   1.942   1.795
 4869SOL    HW215507   0.501   2.041   1.675
 4870SOL     OW15508   6.033   1.153   0.996
 4870SOL    HW115509   6.021   1.119   0.903
 4870SOL    HW215510   6.031   1.253   0.994
 4871SOL     OW15511   1.966   2.601   5.239
 4871SOL    HW115512   1.896   2.669   5.214
 4871SOL    HW215513   2.044   2.648   5.280
 4872SOL     OW15514   2.322   2.780   2.514
 4872SOL    HW115515   2.384   2.718   2.467
 4872SOL    HW215516   2.283   2.735   2.594
 4873SOL     OW15517   0.754   6.793   5.680
 4873SOL    HW115518   0.706   6.881   5.684
 4873SOL    HW215519   0.763   6.757   5.773
 4874SOL     OW15520   5.782   1.624   4.055
 4874SOL    HW115521   5.819   1.714   4.030
 4874SOL    HW215522   5.843   1.579   4.120
 4875SOL     OW15523   6.718   3.238   0.715
 4875SOL    HW115524   6.810   3.226   0.754
 4875SOL    HW215525   6.665   3.155   0.728
 4876SOL     OW15526   6.631   1.077   6.963
 4876SOL    HW115527   6.661   1.172   6.970
 4876SOL    HW215528   6.550   1.072   6.904
 4877SOL     OW15529   4.416   1.800   1.498
 4877SOL    HW115530   4.429   1.896   1.520
 4877SOL    HW215531   4.394   1.749   1.582
 4878SOL     OW15532   1.169   2.819   2.288
 4878SOL    HW115533   1.070   2.817   2.271
 4878SOL    HW215534   1.200   2.913   2.298
 4879SOL     OW15535   3.606   6.316   3.235
 4879SOL    HW115536   3.546   6.270   3.300
 4879SOL    HW215537   3.644   6.398   3.277
 4880SOL     OW15538   6.454   1.868   5.915
 4880SOL    HW115539   6.489   1.939   5.976
 4880SOL    HW215540   6.403   1.911   5.840
 4881SOL     OW15541   2.974   6.309   5.773
 4881SOL    HW115542   2.932   6.262   5.696
 4881SOL    HW215543   3.031   6.384   5.740
 4882SOL     OW15544   5.428   5.916   6.712
 4882SOL    HW115545   5.403   5.933   6.808
 4882SOL    HW215546   5.526   5.934   6.700
 4883SOL     OW15547   5.955   5.654   0.068
 4883SOL    HW115548   5.976   5.631   0.163
 4883SOL    HW215549   5.954   5.571   0.013
 4884SOL     OW15550   4.129   6.177   1.459
 4884SOL    HW115551   4.116   6.152   1.555
 4884SOL    HW215552   4.135   6.277   1.451
 4885SOL     OW15553   1.588   0.737   2.579
 4885SOL    HW115554   1.495   0.700   2.584
 4885SOL    HW215555   1.591   0.826   2.625
 4886SOL     OW15556   6.075   1.104   5.730
 4886SOL    HW115557   6.128   1.141   5.654
 4886SOL    HW215558   5.996   1.162   5.748
 4887SOL     OW15559   0.068   2.153   5.546
 4887SOL    HW115560   0.098   2.101   5.626
 4887SOL    HW215561   7.006   2.113   5.509
 4888SOL     OW15562   4.454   6.035   1.147
 4888SOL    HW115563   4.547   6.045   1.182
 4888SOL    HW215564   4.428   6.118   1.098
 4889SOL     OW15565   1.392   3.504   6.328
 4889SOL    HW115566   1.435   3.415   6.341
 4889SOL    HW215567   1.459   3.568   6.290
 4890SOL     OW15568   6.901   0.483   4.372
 4890SOL    HW115569   6.850   0.546   4.432
 4890SOL    HW215570   6.999   0.497   4.385
 4891SOL     OW15571   1.000   4.860   0.429
 4891SOL    HW115572   1.057   4.809   0.364
 4891SOL    HW215573   1.007   4.958   0.410
 4892SOL     OW15574   1.900   5.771   2.262
 4892SOL    HW115575   1.914   5.827   2.180
 4892SOL    HW215576   1.804   5.742   2.266
 4893SOL     OW15577   0.262   4.341   6.414
 4893SOL    HW115578   0.225   4.332   6.506
 4893SOL    HW215579   0.360   4.363   6.419
 4894SOL     OW15580   0.517   6.929   3.686
 4894SOL    HW115581   0.530   6.892   3.594
 4894SOL    HW215582   0.438   6.991   3.686
 4895SOL     OW15583   6.447   3.980   6.615
 4895SOL    HW115584   6.368   3.919   6.627
 4895SOL    HW215585   6.476   4.015   6.703
 4896SOL     OW15586   3.908   0.646   4.715
 4896SOL    HW115587   3.986   0.653   4.653
 4896SOL    HW215588   3.845   0.723   4.699
 4897SOL     OW15589   2.536   5.417   6.999
 4897SOL    HW115590   2.450   5.463   0.000
 4897SOL    HW215591   2.580   5.387   0.063
 4898SOL     OW15592   4.837   2.668   4.510
 4898SOL    HW115593   4.919   2.664   4.566
 4898SOL    HW215594   4.773   2.597   4.540
 4899SOL     OW15595   0.013   3.661   4.691
 4899SOL    HW115596   0.079   3.624   4.756
 4899SOL    HW215597   6.964   3.713   4.740
 4900SOL     OW15598   0.448   6.629   5.858
 4900SOL    HW115599   0.412   6.722   5.859
 4900SOL    HW215600   0.402   6.576   5.788
 4901SOL     OW15601   6.070   6.314   3.156
 4901SOL    HW115602   6.146   6.282   3.212
 4901SOL    HW215603   5.985   6.269   3.186
 4902SOL     OW15604   3.742   5.456   0.440
 4902SOL    HW115605   3.670   5.399   0.400
 4902SOL    HW215606   3.736   5.454   0.540
 4903SOL     OW15607   5.965   4.616   6.494
 4903SOL    HW115608   6.059   4.625   6.525
 4903SOL    HW215609   5.962   4.619   6.394
 4904SOL     OW15610   3.129   1.037   3.867
 4904SOL    HW115611   3.106   0.991   3.781
 4904SOL    HW215612   3.175   0.972   3.928
 4905SOL     OW15613   5.952   3.895   3.242
 4905SOL    HW115614   5.914   3.835   3.172
 4905SOL    HW215615   5.961   3.988   3.205
 4906SOL     OW15616   4.643   0.078   1.782
 4906SOL    HW115617   4.712   0.051   1.849
 4906SOL    HW215618   4.619   0.000   1.725
 4907SOL     OW15619   2.607   2.529   1.269
 4907SOL    HW115620   2.684   2.519   1.332
 4907SOL    HW215621   2.523   2.497   1.314
 4908SOL     OW15622   5.502   4.574   6.223
 4908SOL    HW115623   5.463   4.644   6.164
 4908SOL    HW215624   5.462   4.581   6.314
 4909SOL     OW15625   6.169   6.587   5.766
 4909SOL    HW115626   6.080   6.549   5.794
 4909SOL    HW215627   6.157   6.645   5.686
 4910SOL     OW15628   5.445   6.701   5.557
 4910SOL    HW115629   5.493   6.639   5.495
 4910SOL    HW215630   5.488   6.791   5.554
 4911SOL     OW15631   0.150   4.368   6.649
 4911SOL    HW115632   0.055   4.338   6.649
 4911SOL    HW215633   0.184   4.373   6.743
 4912SOL     OW15634   1.981   3.258   1.573
 4912SOL    HW115635   2.020   3.224   1.659
 4912SOL    HW215636   1.895   3.210   1.555
 4913SOL     OW15637   2.835   3.352   1.976
 4913SOL    HW115638   2.752   3.402   1.953
 4913SOL    HW215639   2.877   3.317   1.892
 4914SOL     OW15640   1.041   0.023   2.775
 4914SOL    HW115641   0.946   7.020   2.753
 4914SOL    HW215642   1.053   0.025   2.874
 4915SOL     OW15643   4.023   6.491   3.916
 4915SOL    HW115644   4.013   6.560   3.988
 4915SOL    HW215645   4.118   6.460   3.912
 4916SOL     OW15646   1.161   1.569   1.913
 4916SOL    HW115647   1.216   1.627   1.973
 4916SOL    HW215648   1.201   1.568   1.822
 4917SOL     OW15649   0.921   5.027   6.056
 4917SOL    HW115650   0.959   5.071   6.138
 4917SOL    HW215651   0.822   5.016   6.068
 4918SOL     OW15652   2.322   6.813   4.351
 4918SOL    HW115653   2.277   6.731   4.315
 4918SOL    HW215654   2.333   6.804   4.450
 4919SOL     OW15655   2.281   3.100   0.839
 4919SOL    HW115656   2.270   3.047   0.755
 4919SOL    HW215657   2.258   3.042   0.917
 4920SOL     OW15658   3.346   1.912   6.657
 4920SOL    HW115659   3.265   1.887   6.604
 4920SOL    HW215660   3.325   1.908   6.754
 4921SOL     OW15661   6.520   4.859   2.618
 4921SOL    HW115662   6.576   4.830   2.541
 4921SOL    HW215663   6.434   4.898   2.584
 4922SOL     OW15664   0.799   3.275   6.201
 4922SOL    HW115665   0.805   3.374   6.211
 4922SOL    HW215666   0.826   3.249   6.108
 4923SOL     OW15667   3.282   2.174   6.668
 4923SOL    HW115668   3.350   2.246   6.679
 4923SOL    HW215669   3.329   2.085   6.667
 4924SOL     OW15670   0.073   3.097   4.330
 4924SOL    HW115671   0.087   3.098   4.231
 4924SOL    HW215672   0.008   3.169   4.355
 4925SOL     OW15673   4.625   5.082   5.365
 4925SOL    HW115674   4.569   5.059   5.286
 4925SOL    HW215675   4.722   5.081   5.338
 4926SOL     OW15676   4.257   3.409   0.527
 4926SOL    HW115677   4.341   3.420   0.473
 4926SOL    HW215678   4.277   3.354   0.608
 4927SOL     OW15679   3.021   3.577   1.853
 4927SOL    HW115680   3.050   3.483   1.874
 4927SOL    HW215681   3.084   3.641   1.897
 4928SOL     OW15682   6.858   1.494   6.673
 4928SOL    HW115683   6.813   1.544   6.747
 4928SOL    HW215684   6.938   1.545   6.641
 4929SOL     OW15685   1.251   4.225   4.324
 4929SOL    HW115686   1.304   4.306   4.299
 4929SOL    HW215687   1.167   4.253   4.371
 4930SOL     OW15688   0.381   3.838   0.282
 4930SOL    HW115689   0.354   3.907   0.214
 4930SOL    HW215690   0.418   3.758   0.234
 4931SOL     OW15691   5.386   6.725   1.081
 4931SOL    HW115692   5.304   6.689   1.036
 4931SOL    HW215693   5.359   6.782   1.158
 4932SOL     OW15694   3.548   1.757   0.708
 4932SOL    HW115695   3.636   1.803   0.725
 4932SOL    HW215696   3.480   1.793   0.771
 4933SOL     OW15697   2.780   6.966   5.120
 4933SOL    HW115698   2.823   0.033   5.097
 4933SOL    HW215699   2.693   6.958   5.070
 4934SOL     OW15700   2.177   6.123   5.502
 4934SOL    HW115701   2.141   6.104   5.593
 4934SOL    HW215702   2.239   6.050   5.475
 4935SOL     OW15703   2.067   2.334   0.757
 4935SOL    HW115704   2.153   2.307   0.715
 4935SOL    HW215705   2.035   2.419   0.717
 4936SOL     OW15706   6.846   4.086   1.113
 4936SOL    HW115707   6.759   4.101   1.066
 4936SOL    HW215708   6.903   4.024   1.059
 4937SOL     OW15709   0.633   3.804   5.427
 4937SOL    HW115710   0.632   3.759   5.517
 4937SOL    HW215711   0.634   3.735   5.355
 4938SOL     OW15712   3.617   4.414   0.846
 4938SOL    HW115713   3.561   4.413   0.929
 4938SOL    HW215714   3.642   4.321   0.822
 4939SOL     OW15715   0.772   1.545   1.270
 4939SOL    HW115716   0.697   1.493   1.312
 4939SOL    HW215717   0.776   1.636   1.310
 4940SOL     OW15718   1.617   1.402   5.241
 4940SOL    HW115719   1.698   1.456   5.219
 4940SOL    HW215720   1.640   1.305   5.239
 4941SOL     OW15721   3.535   2.016   6.322
 4941SOL    HW115722   3.605   2.085   6.339
 4941SOL    HW215723   3.452   2.061   6.289
 4942SOL     OW15724   0.238   1.123   2.301
 4942SOL    HW115725   0.192   1.065   2.369
 4942SOL    HW215726   0.265   1.209   2.344
 4943SOL     OW15727   4.592   2.459   6.624
 4943SOL    HW115728   4.621   2.455   6.529
 4943SOL    HW215729   4.530   2.537   6.637
 4944SOL     OW15730   0.621   5.012   0.602
 4944SOL    HW115731   0.685   4.996   0.677
 4944SOL    HW215732   0.558   5.085   0.627
 4945SOL     OW15733   2.336   0.347   6.432
 4945SOL    HW115734   2.255   0.381   6.385
 4945SOL    HW215735   2.417   0.358   6.374
 4946SOL     OW15736   2.682   5.844   6.922
 4946SOL    HW115737   2.670   5.942   6.901
 4946SOL    HW215738   2.654   5.790   6.842
 4947SOL     OW15739   1.240   0.207   1.394
 4947SOL    HW115740   1.332   0.191   1.358
 4947SOL    HW215741   1.243   0.282   1.460
 4948SOL     OW15742   1.284   3.104   2.161
 4948SOL    HW115743   1.216   3.099   2.088
 4948SOL    HW215744   1.339   3.187   2.151
 4949SOL     OW15745   6.540   5.012   6.848
 4949SOL    HW115746   6.452   5.005   6.803
 4949SOL    HW215747   6.600   5.072   6.795
 4950SOL     OW15748   4.072   3.920   6.166
 4950SOL    HW115749   4.170   3.897   6.171
 4950SOL    HW215750   4.025   3.877   6.243
 4951SOL     OW15751   4.765   5.038   3.691
 4951SOL    HW115752   4.785   5.136   3.693
 4951SOL    HW215753   4.801   4.998   3.607
 4952SOL     OW15754   0.823   0.969   6.780
 4952SOL    HW115755   0.877   0.886   6.790
 4952SOL    HW215756   0.727   0.945   6.764
 4953SOL     OW15757   1.227   0.918   6.116
 4953SOL    HW115758   1.144   0.935   6.063
 4953SOL    HW215759   1.294   0.990   6.096
 4954SOL     OW15760   3.520   3.870   5.729
 4954SOL    HW115761   3.498   3.884   5.632
 4954SOL    HW215762   3.619   3.872   5.742
 4955SOL     OW15763   3.559   6.141   6.947
 4955SOL    HW115764   3.632   6.083   6.982
 4955SOL    HW215765   3.490   6.154   7.018
 4956SOL     OW15766   2.491   0.523   3.991
 4956SOL    HW115767   2.545   0.484   4.066
 4956SOL    HW215768   2.415   0.576   4.029
 4957SOL     OW15769   5.846   5.388   0.007
 4957SOL    HW115770   5.793   5.306   0.033
 4957SOL    HW215771   5.934   5.360   6.990
 4958SOL     OW15772   3.231   5.192   0.202
 4958SOL    HW115773   3.267   5.285   0.207
 4958SOL    HW215774   3.258   5.141   0.283
 4959SOL     OW15775   1.283   1.939   3.140
 4959SOL    HW115776   1.232   1.957   3.056
 4959SOL    HW215777   1.332   1.853   3.131
 4960SOL     OW15778   4.798   3.930   4.319
 4960SOL    HW115779   4.844   3.843   4.338
 4960SOL    HW215780   4.727   3.945   4.388
 4961SOL     OW15781   3.619   2.809   2.067
 4961SOL    HW115782   3.575   2.719   2.066
 4961SOL    HW215783   3.673   2.821   1.984
 4962SOL     OW15784   2.023   2.083   0.600
 4962SOL    HW115785   2.059   2.173   0.624
 4962SOL    HW215786   1.934   2.094   0.555
 4963SOL     OW15787   0.814   3.668   6.574
 4963SOL    HW115788   0.850   3.583   6.535
 4963SOL    HW215789   0.721   3.653   6.606
 4964SOL     OW15790   1.256   5.208   3.837
 4964SOL    HW115791   1.207   5.125   3.861
 4964SOL    HW215792   1.224   5.284   3.894
 4965SOL     OW15793   2.250   0.534   3.145
 4965SOL    HW115794   2.218   0.600   3.077
 4965SOL    HW215795   2.199   0.546   3.230
 4966SOL     OW15796   4.292   6.753   5.374
 4966SOL    HW115797   4.384   6.790   5.375
 4966SOL    HW215798   4.233   6.807   5.434
 4967SOL     OW15799   4.457   4.510   3.130
 4967SOL    HW115800   4.378   4.541   3.076
 4967SOL    HW215801   4.446   4.541   3.225
 4968SOL     OW15802   6.609   3.042   3.513
 4968SOL    HW115803   6.532   3.104   3.526
 4968SOL    HW215804   6.576   2.948   3.512
 4969SOL     OW15805   1.453   6.206   4.507
 4969SOL    HW115806   1.453   6.132   4.574
 4969SOL    HW215807   1.379   6.192   4.442
 4970SOL     OW15808   2.075   1.166   1.379
 4970SOL    HW115809   2.097   1.164   1.282
 4970SOL    HW215810   2.106   1.082   1.422
 4971SOL     OW15811   0.432   6.191   1.834
 4971SOL    HW115812   0.393   6.177   1.743
 4971SOL    HW215813   0.418   6.286   1.862
 4972SOL     OW15814   0.312   3.722   0.573
 4972SOL    HW115815   0.285   3.680   0.659
 4972SOL    HW215816   0.379   3.664   0.527
 4973SOL     OW15817   5.440   2.381   0.049
 4973SOL    HW115818   5.383   2.317   7.018
 4973SOL    HW215819   5.536   2.355   0.040
 4974SOL     OW15820   3.336   0.444   5.525
 4974SOL    HW115821   3.273   0.376   5.564
 4974SOL    HW215822   3.285   0.503   5.461
 4975SOL     OW15823   5.731   4.312   1.166
 4975SOL    HW115824   5.782   4.397   1.179
 4975SOL    HW215825   5.660   4.325   1.097
 4976SOL     OW15826   0.930   0.338   3.810
 4976SOL    HW115827   0.983   0.410   3.855
 4976SOL    HW215828   0.867   0.298   3.876
 4977SOL     OW15829   1.202   3.665   4.965
 4977SOL    HW115830   1.107   3.681   4.994
 4977SOL    HW215831   1.208   3.669   4.865
 4978SOL     OW15832   6.506   5.359   4.736
 4978SOL    HW115833   6.505   5.307   4.651
 4978SOL    HW215834   6.576   5.431   4.731
 4979SOL     OW15835   3.737   6.236   6.191
 4979SOL    HW115836   3.712   6.147   6.230
 4979SOL    HW215837   3.837   6.246   6.191
 4980SOL     OW15838   5.707   2.638   3.799
 4980SOL    HW115839   5.652   2.707   3.752
 4980SOL    HW215840   5.655   2.554   3.809
 4981SOL     OW15841   3.142   6.255   3.041
 4981SOL    HW115842   3.149   6.169   2.991
 4981SOL    HW215843   3.175   6.330   2.984
 4982SOL     OW15844   4.204   1.788   4.767
 4982SOL    HW115845   4.223   1.839   4.683
 4982SOL    HW215846   4.227   1.845   4.846
 4983SOL     OW15847   5.590   3.636   3.132
 4983SOL    HW115848   5.533   3.682   3.200
 4983SOL    HW215849   5.533   3.577   3.075
 4984SOL     OW15850   4.998   3.595   5.177
 4984SOL    HW115851   5.046   3.508   5.171
 4984SOL    HW215852   4.918   3.594   5.118
 4985SOL     OW15853   5.183   0.263   2.505
 4985SOL    HW115854   5.091   0.224   2.496
 4985SOL    HW215855   5.176   0.360   2.527
 4986SOL     OW15856   1.456   5.620   1.088
 4986SOL    HW115857   1.370   5.631   1.038
 4986SOL    HW215858   1.451   5.669   1.175
 4987SOL     OW15859   2.145   3.974   1.954
 4987SOL    HW115860   2.157   4.037   2.030
 4987SOL    HW215861   2.148   3.880   1.988
 4988SOL     OW15862   6.543   5.366   4.024
 4988SOL    HW115863   6.605   5.437   3.991
 4988SOL    HW215864   6.458   5.407   4.054
 4989SOL     OW15865   6.981   6.825   3.810
 4989SOL    HW115866   6.959   6.745   3.755
 4989SOL    HW215867   6.965   6.908   3.756
 4990SOL     OW15868   5.227   1.943   5.645
 4990SOL    HW115869   5.142   1.904   5.680
 4990SOL    HW215870   5.250   1.901   5.558
 4991SOL     OW15871   2.597   5.617   5.455
 4991SOL    HW115872   2.527   5.549   5.434
 4991SOL    HW215873   2.609   5.678   5.377
 4992SOL     OW15874   2.625   2.933   5.615
 4992SOL    HW115875   2.532   2.904   5.593
 4992SOL    HW215876   2.622   3.023   5.658
 4993SOL     OW15877   2.169   5.279   3.981
 4993SOL    HW115878   2.170   5.301   4.079
 4993SOL    HW215879   2.213   5.190   3.967
 4994SOL     OW15880   2.914   4.836   5.642
 4994SOL    HW115881   3.004   4.872   5.666
 4994SOL    HW215882   2.924   4.748   5.596
 4995SOL     OW15883   0.419   2.017   5.403
 4995SOL    HW115884   0.385   2.102   5.362
 4995SOL    HW215885   0.346   1.949   5.403
 4996SOL     OW15886   0.154   0.560   4.748
 4996SOL    HW115887   0.194   0.510   4.671
 4996SOL    HW215888   0.192   0.524   4.834
 4997SOL     OW15889   3.908   1.308   0.412
 4997SOL    HW115890   3.853   1.286   0.493
 4997SOL    HW215891   3.854   1.294   0.329
 4998SOL     OW15892   1.182   3.609   3.563
 4998SOL    HW115893   1.198   3.628   3.660
 4998SOL    HW215894   1.227   3.680   3.508
 4999SOL     OW15895   0.019   2.603   3.424
 4999SOL    HW115896   0.002   2.670   3.351
 4999SOL    HW215897   6.972   2.530   3.419
 5000SOL     OW15898   2.839   6.629   3.006
 5000SOL    HW115899   2.887   6.548   2.973
 5000SOL    HW215900   2.744   6.605   3.027
 5001SOL     OW15901   0.132   5.933   3.286
 5001SOL    HW115902   0.079   5.999   3.340
 5001SOL    HW215903   0.196   5.983   3.227
 5002SOL     OW15904   1.118   4.896   3.625
 5002SOL    HW115905   1.073   4.932   3.708
 5002SOL    HW215906   1.155   4.806   3.644
 5003SOL     OW15907   3.562   1.146   1.110
 5003SOL    HW115908   3.525   1.070   1.164
 5003SOL    HW215909   3.501   1.225   1.118
 5004SOL     OW15910   4.381   6.326   0.287
 5004SOL    HW115911   4.381   6.281   0.376
 5004SOL    HW215912   4.466   6.378   0.276
 5005SOL     OW15913   4.488   2.938   1.016
 5005SOL    HW115914   4.413   2.872   1.014
 5005SOL    HW215915   4.570   2.893   1.050
 5006SOL     OW15916   4.869   0.925   2.910
 5006SOL    HW115917   4.968   0.925   2.928
 5006SOL    HW215918   4.836   1.020   2.909
 5007SOL     OW15919   6.434   5.377   2.293
 5007SOL    HW115920   6.453   5.423   2.206
 5007SOL    HW215921   6.467   5.282   2.288
 5008SOL     OW15922   4.864   6.640   3.762
 5008SOL    HW115923   4.863   6.584   3.679
 5008SOL    HW215924   4.771   6.645   3.800
 5009SOL     OW15925   0.556   1.638   6.568
 5009SOL    HW115926   0.594   1.726   6.597
 5009SOL    HW215927   0.594   1.614   6.478
 5010SOL     OW15928   4.960   4.178   1.172
 5010SOL    HW115929   4.954   4.192   1.271
 5010SOL    HW215930   4.939   4.083   1.150
 5011SOL     OW15931   1.556   2.294   5.985
 5011SOL    HW115932   1.515   2.231   6.052
 5011SOL    HW215933   1.650   2.266   5.966
 5012SOL     OW15934   5.965   2.643   6.054
 5012SOL    HW115935   6.025   2.709   6.009
 5012SOL    HW215936   5.954   2.669   6.150
 5013SOL     OW15937   5.582   6.184   5.038
 5013SOL    HW115938   5.569   6.102   4.981
 5013SOL    HW215939   5.625   6.157   5.125
 5014SOL     OW15940   6.171   3.612   0.746
 5014SOL    HW115941   6.205   3.532   0.796
 5014SOL    HW215942   6.241   3.683   0.746
 5015SOL     OW15943   6.281   5.371   4.282
 5015SOL    HW115944   6.272   5.280   4.240
 5015SOL    HW215945   6.251   5.366   4.377
 5016SOL     OW15946   1.341   2.052   6.534
 5016SOL    HW115947   1.316   2.031   6.628
 5016SOL    HW215948   1.395   1.977   6.496
 5017SOL     OW15949   1.250   3.220   1.800
 5017SOL    HW115950   1.273   3.285   1.727
 5017SOL    HW215951   1.334   3.186   1.843
 5018SOL     OW15952   0.690   0.566   0.158
 5018SOL    HW115953   0.730   0.656   0.140
 5018SOL    HW215954   0.718   0.535   0.249
 5019SOL     OW15955   2.043   4.313   3.811
 5019SOL    HW115956   2.031   4.357   3.723
 5019SOL    HW215957   1.954   4.301   3.855
 5020SOL     OW15958   2.083   0.152   3.659
 5020SOL    HW115959   2.039   0.240   3.645
 5020SOL    HW215960   2.124   0.150   3.750
 5021SOL     OW15961   2.669   0.516   1.647
 5021SOL    HW115962   2.725   0.510   1.730
 5021SOL    HW215963   2.681   0.432   1.593
 5022SOL     OW15964   0.164   3.090   1.165
 5022SOL    HW115965   0.137   3.005   1.210
 5022SOL    HW215966   0.153   3.167   1.229
 5023SOL     OW15967   0.869   2.608   2.834
 5023SOL    HW115968   0.887   2.511   2.848
 5023SOL    HW215969   0.837   2.649   2.919
 5024SOL     OW15970   4.399   4.195   6.904
 5024SOL    HW115971   4.456   4.249   6.966
 5024SOL    HW215972   4.373   4.251   6.826
 5025SOL     OW15973   5.321   2.042   4.931
 5025SOL    HW115974   5.402   2.092   4.901
 5025SOL    HW215975   5.294   1.976   4.860
 5026SOL     OW15976   4.830   5.981   5.062
 5026SOL    HW115977   4.743   5.932   5.059
 5026SOL    HW215978   4.893   5.933   5.123
 5027SOL     OW15979   5.175   6.296   0.824
 5027SOL    HW115980   5.236   6.371   0.850
 5027SOL    HW215981   5.158   6.300   0.726
 5028SOL     OW15982   6.711   1.705   2.212
 5028SOL    HW115983   6.639   1.775   2.210
 5028SOL    HW215984   6.692   1.640   2.286
 5029SOL     OW15985   5.508   2.500   2.781
 5029SOL    HW115986   5.573   2.425   2.765
 5029SOL    HW215987   5.429   2.489   2.721
 5030SOL     OW15988   0.762   3.346   1.103
 5030SOL    HW115989   0.732   3.440   1.092
 5030SOL    HW215990   0.848   3.344   1.155
 5031SOL     OW15991   6.556   6.829   6.078
 5031SOL    HW115992   6.564   6.807   5.981
 5031SOL    HW215993   6.495   6.907   6.090
 5032SOL     OW15994   2.368   4.503   6.165
 5032SOL    HW115995   2.361   4.436   6.091
 5032SOL    HW215996   2.464   4.522   6.184
 5033SOL     OW15997   1.830   6.997   4.439
 5033SOL    HW115998   1.760   6.941   4.395
 5033SOL    HW215999   1.917   6.986   4.390
 5034SOL     OW16000   4.456   5.532   3.868
 5034SOL    HW116001   4.479   5.440   3.901
 5034SOL    HW216002   4.449   5.594   3.946
 5035SOL     OW16003   1.749   3.697   3.403
 5035SOL    HW116004   1.782   3.745   3.484
 5035SOL    HW216005   1.769   3.600   3.411
 5036SOL     OW16006   1.490   3.166   4.808
 5036SOL    HW116007   1.451   3.090   4.755
 5036SOL    HW216008   1.498   3.139   4.904
 5037SOL     OW16009   5.491   4.665   1.205
 5037SOL    HW116010   5.413   4.667   1.268
 5037SOL    HW216011   5.485   4.583   1.148
 5038SOL     OW16012   3.083   3.808   4.807
 5038SOL    HW116013   3.147   3.746   4.762
 5038SOL    HW216014   3.121   3.901   4.808
 5039SOL     OW16015   0.687   3.341   0.041
 5039SOL    HW116016   0.691   3.250   0.082
 5039SOL    HW216017   0.777   3.383   0.044
 5040SOL     OW16018   0.633   2.001   5.124
 5040SOL    HW116019   0.633   1.904   5.103
 5040SOL    HW216020   0.542   2.028   5.156
 5041SOL     OW16021   6.964   2.440   1.302
 5041SOL    HW116022   6.996   2.399   1.387
 5041SOL    HW216023   6.977   2.539   1.305
 5042SOL     OW16024   0.969   1.828   5.801
 5042SOL    HW116025   0.948   1.746   5.748
 5042SOL    HW216026   0.897   1.896   5.790
 5043SOL     OW16027   3.074   6.527   1.754
 5043SOL    HW116028   3.107   6.445   1.706
 5043SOL    HW216029   3.052   6.503   1.849
 5044SOL     OW16030   0.608   5.851   0.864
 5044SOL    HW116031   0.546   5.915   0.909
 5044SOL    HW216032   0.645   5.893   0.781
 5045SOL     OW16033   5.831   2.978   1.609
 5045SOL    HW116034   5.738   3.004   1.582
 5045SOL    HW216035   5.835   2.963   1.708
 5046SOL     OW16036   3.832   3.163   2.002
 5046SOL    HW116037   3.806   3.237   2.063
 5046SOL    HW216038   3.789   3.176   1.913
 5047SOL     OW16039   1.806   4.361   3.947
 5047SOL    HW116040   1.756   4.411   4.018
 5047SOL    HW216041   1.789   4.403   3.858
 5048SOL     OW16042   2.284   0.026   5.597
 5048SOL    HW116043   2.313   0.116   5.627
 5048SOL    HW216044   2.248   6.995   5.675
 5049SOL     OW16045   3.783   1.445   6.922
 5049SOL    HW116046   3.828   1.388   6.990
 5049SOL    HW216047   3.702   1.398   6.886
 5050SOL     OW16048   1.029   0.523   1.046
 5050SOL    HW116049   1.046   0.565   1.135
 5050SOL    HW216050   1.042   0.591   0.974
 5051SOL     OW16051   4.489   4.538   1.131
 5051SOL    HW116052   4.558   4.467   1.139
 5051SOL    HW216053   4.403   4.507   1.173
 5052SOL     OW16054   1.711   3.497   4.289
 5052SOL    HW116055   1.713   3.591   4.256
 5052SOL    HW216056   1.649   3.491   4.368
 5053SOL     OW16057   6.484   0.663   0.837
 5053SOL    HW116058   6.522   0.577   0.871
 5053SOL    HW216059   6.458   0.721   0.914
 5054SOL     OW16060   4.254   5.281   3.425
 5054SOL    HW116061   4.165   5.326   3.431
 5054SOL    HW216062   4.300   5.285   3.514
 5055SOL     OW16063   0.240   4.298   5.429
 5055SOL    HW116064   0.332   4.322   5.459
 5055SOL    HW216065   0.203   4.226   5.489
 5056SOL     OW16066   6.621   4.397   3.035
 5056SOL    HW116067   6.662   4.355   2.954
 5056SOL    HW216068   6.592   4.490   3.014
 5057SOL     OW16069   0.218   6.101   2.316
 5057SOL    HW116070   0.152   6.090   2.242
 5057SOL    HW216071   0.300   6.147   2.281
 5058SOL     OW16072   2.731   5.437   5.609
 5058SOL    HW116073   2.723   5.500   5.532
 5058SOL    HW216074   2.770   5.350   5.578
 5059SOL     OW16075   6.855   0.181   2.038
 5059SOL    HW116076   6.765   0.213   2.007
 5059SOL    HW216077   6.919   0.181   1.961
 5060SOL     OW16078   0.244   2.929   6.130
 5060SOL    HW116079   0.144   2.932   6.139
 5060SOL    HW216080   0.269   2.859   6.064
 5061SOL     OW16081   6.010   2.940   0.670
 5061SOL    HW116082   6.040   2.880   0.596
 5061SOL    HW216083   5.937   3.000   0.636
 5062SOL     OW16084   6.256   6.959   7.019
 5062SOL    HW116085   6.330   7.013   0.038
 5062SOL    HW216086   6.206   6.913   0.071
 5063SOL     OW16087   0.955   6.371   2.948
 5063SOL    HW116088   0.978   6.298   2.884
 5063SOL    HW216089   1.033   6.433   2.958
 5064SOL     OW16090   5.297   3.980   7.019
 5064SOL    HW116091   5.329   3.908   6.958
 5064SOL    HW216092   5.244   4.047   6.968
 5065SOL     OW16093   2.924   6.521   6.053
 5065SOL    HW116094   2.874   6.495   6.136
 5065SOL    HW216095   3.016   6.484   6.057
 5066SOL     OW16096   4.994   4.523   0.674
 5066SOL    HW116097   5.021   4.441   0.623
 5066SOL    HW216098   5.075   4.571   0.706
 5067SOL     OW16099   5.709   1.001   6.530
 5067SOL    HW116100   5.663   0.942   6.464
 5067SOL    HW216101   5.641   1.048   6.586
 5068SOL     OW16102   3.528   4.739   1.214
 5068SOL    HW116103   3.615   4.704   1.247
 5068SOL    HW216104   3.500   4.818   1.269
 5069SOL     OW16105   6.720   5.267   3.261
 5069SOL    HW116106   6.703   5.362   3.235
 5069SOL    HW216107   6.634   5.222   3.282
 5070SOL     OW16108   5.188   2.372   3.867
 5070SOL    HW116109   5.185   2.281   3.825
 5070SOL    HW216110   5.095   2.409   3.873
 5071SOL     OW16111   5.408   0.813   1.478
 5071SOL    HW116112   5.454   0.815   1.390
 5071SOL    HW216113   5.322   0.762   1.470
 5072SOL     OW16114   0.705   4.138   1.942
 5072SOL    HW116115   0.662   4.115   2.029
 5072SOL    HW216116   0.687   4.065   1.875
 5073SOL     OW16117   3.903   2.127   3.432
 5073SOL    HW116118   3.933   2.175   3.350
 5073SOL    HW216119   3.808   2.150   3.453
 5074SOL     OW16120   4.232   4.295   5.323
 5074SOL    HW116121   4.216   4.198   5.305
 5074SOL    HW216122   4.236   4.345   5.237
 5075SOL     OW16123   6.643   0.320   4.289
 5075SOL    HW116124   6.709   0.386   4.324
 5075SOL    HW216125   6.647   0.318   4.189
 5076SOL     OW16126   5.393   0.574   1.262
 5076SOL    HW116127   5.352   0.644   1.205
 5076SOL    HW216128   5.490   0.565   1.239
 5077SOL     OW16129   6.870   2.329   2.948
 5077SOL    HW116130   6.938   2.391   2.987
 5077SOL    HW216131   6.911   2.239   2.934
 5078SOL     OW16132   0.264   1.688   4.848
 5078SOL    HW116133   0.354   1.652   4.825
 5078SOL    HW216134   0.256   1.782   4.817
 5079SOL     OW16135   4.682   5.089   4.800
 5079SOL    HW116136   4.613   5.161   4.801
 5079SOL    HW216137   4.773   5.130   4.786
 5080SOL     OW16138   5.660   0.497   6.329
 5080SOL    HW116139   5.647   0.573   6.266
 5080SOL    HW216140   5.686   0.415   6.277
 5081SOL     OW16141   3.012   3.408   3.196
 5081SOL    HW116142   2.962   3.432   3.113
 5081SOL    HW216143   2.947   3.381   3.267
 5082SOL     OW16144   0.796   2.005   5.404
 5082SOL    HW116145   0.723   1.946   5.369
 5082SOL    HW216146   0.846   2.045   5.328
 5083SOL     OW16147   0.855   4.233   2.327
 5083SOL    HW116148   0.946   4.194   2.342
 5083SOL    HW216149   0.807   4.239   2.415
 5084SOL     OW16150   1.135   5.725   2.250
 5084SOL    HW116151   1.138   5.809   2.304
 5084SOL    HW216152   1.193   5.736   2.169
 5085SOL     OW16153   6.189   3.884   0.517
 5085SOL    HW116154   6.212   3.878   0.420
 5085SOL    HW216155   6.265   3.850   0.572
 5086SOL     OW16156   6.224   5.380   4.750
 5086SOL    HW116157   6.188   5.288   4.766
 5086SOL    HW216158   6.323   5.381   4.766
 5087SOL     OW16159   5.205   5.290   5.600
 5087SOL    HW116160   5.189   5.371   5.656
 5087SOL    HW216161   5.287   5.304   5.544
 5088SOL     OW16162   6.131   1.016   6.729
 5088SOL    HW116163   6.114   1.115   6.737
 5088SOL    HW216164   6.085   0.981   6.647
 5089SOL     OW16165   5.402   2.781   3.808
 5089SOL    HW116166   5.319   2.837   3.799
 5089SOL    HW216167   5.479   2.839   3.831
 5090SOL     OW16168   1.083   5.000   0.068
 5090SOL    HW116169   1.151   4.997   7.015
 5090SOL    HW216170   1.124   4.962   0.151
 5091SOL     OW16171   0.801   6.080   3.769
 5091SOL    HW116172   0.710   6.118   3.785
 5091SOL    HW216173   0.839   6.049   3.856
 5092SOL     OW16174   3.230   2.891   1.186
 5092SOL    HW116175   3.295   2.817   1.197
 5092SOL    HW216176   3.166   2.892   1.263
 5093SOL     OW16177   0.784   1.152   1.990
 5093SOL    HW116178   0.688   1.123   1.996
 5093SOL    HW216179   0.840   1.097   2.053
 5094SOL     OW16180   0.116   0.182   6.664
 5094SOL    HW116181   0.154   0.265   6.623
 5094SOL    HW216182   0.189   0.117   6.682
 5095SOL     OW16183   3.144   0.196   5.565
 5095SOL    HW116184   3.145   0.177   5.467
 5095SOL    HW216185   3.082   0.272   5.583
 5096SOL     OW16186   3.654   6.200   2.099
 5096SOL    HW116187   3.584   6.129   2.098
 5096SOL    HW216188   3.621   6.280   2.049
 5097SOL     OW16189   1.134   2.163   6.851
 5097SOL    HW116190   1.195   2.217   6.909
 5097SOL    HW216191   1.173   2.072   6.838
 5098SOL     OW16192   0.920   2.326   2.933
 5098SOL    HW116193   0.991   2.385   2.970
 5098SOL    HW216194   0.945   2.230   2.948
 5099SOL     OW16195   0.620   1.401   4.046
 5099SOL    HW116196   0.705   1.406   3.994
 5099SOL    HW216197   0.580   1.310   4.037
 5100SOL     OW16198   4.550   4.793   5.559
 5100SOL    HW116199   4.497   4.821   5.480
 5100SOL    HW216200   4.590   4.703   5.543
 5101SOL     OW16201   5.431   6.136   0.582
 5101SOL    HW116202   5.354   6.198   0.570
 5101SOL    HW216203   5.477   6.122   0.494
 5102SOL     OW16204   3.278   6.241   3.803
 5102SOL    HW116205   3.256   6.151   3.765
 5102SOL    HW216206   3.262   6.239   3.902
 5103SOL     OW16207   1.309   2.467   3.487
 5103SOL    HW116208   1.238   2.408   3.448
 5103SOL    HW216209   1.394   2.415   3.496
 5104SOL     OW16210   0.491   0.651   0.497
 5104SOL    HW116211   0.459   0.684   0.409
 5104SOL    HW216212   0.576   0.598   0.484
 5105SOL     OW16213   1.692   3.060   6.876
 5105SOL    HW116214   1.745   3.105   6.803
 5105SOL    HW216215   1.751   3.046   6.955
 5106SOL     OW16216   2.082   6.833   2.172
 5106SOL    HW116217   2.021   6.882   2.109
 5106SOL    HW216218   2.173   6.875   2.169
 5107SOL     OW16219   1.723   6.990   6.266
 5107SOL    HW116220   1.815   6.950   6.263
 5107SOL    HW216221   1.727   0.058   6.312
 5108SOL     OW16222   3.772   3.857   4.764
 5108SOL    HW116223   3.856   3.852   4.818
 5108SOL    HW216224   3.769   3.943   4.714
 5109SOL     OW16225   0.391   2.129   2.497
 5109SOL    HW116226   0.348   2.044   2.470
 5109SOL    HW216227   0.482   2.136   2.454
 5110SOL     OW16228   2.239   5.687   5.666
 5110SOL    HW116229   2.306   5.614   5.658
 5110SOL    HW216230   2.162   5.668   5.605
 5111SOL     OW16231   1.037   0.287   6.415
 5111SOL    HW116232   1.014   0.191   6.402
 5111SOL    HW216233   0.964   0.344   6.378
 5112SOL     OW16234   0.106   6.829   3.141
 5112SOL    HW116235   0.099   6.920   3.101
 5112SOL    HW216236   0.192   6.820   3.190
 5113SOL     OW16237   0.618   1.201   6.709
 5113SOL    HW116238   0.574   1.240   6.628
 5113SOL    HW216239   0.717   1.199   6.695
 5114SOL     OW16240   4.999   5.493   6.519
 5114SOL    HW116241   5.096   5.503   6.538
 5114SOL    HW216242   4.986   5.453   6.429
 5115SOL     OW16243   2.664   4.026   5.313
 5115SOL    HW116244   2.706   3.938   5.333
 5115SOL    HW216245   2.573   4.012   5.275
 5116SOL     OW16246   6.953   3.725   1.156
 5116SOL    HW116247   6.983   3.779   1.235
 5116SOL    HW216248   6.854   3.716   1.157
 5117SOL     OW16249   2.369   5.294   3.257
 5117SOL    HW116250   2.349   5.372   3.316
 5117SOL    HW216251   2.367   5.323   3.162
 5118SOL     OW16252   4.000   0.212   1.164
 5118SOL    HW116253   4.092   0.232   1.196
 5118SOL    HW216254   3.945   0.177   1.239
 5119SOL     OW16255   6.050   0.678   2.595
 5119SOL    HW116256   5.997   0.592   2.595
 5119SOL    HW216257   6.147   0.657   2.609
 5120SOL     OW16258   3.502   1.538   1.389
 5120SOL    HW116259   3.473   1.446   1.415
 5120SOL    HW216260   3.591   1.534   1.344
 5121SOL     OW16261   0.756   4.154   4.196
 5121SOL    HW116262   0.712   4.069   4.166
 5121SOL    HW216263   0.799   4.198   4.117
 5122SOL     OW16264   2.335   5.550   2.792
 5122SOL    HW116265   2.333   5.646   2.822
 5122SOL    HW216266   2.261   5.535   2.727
 5123SOL     OW16267   6.191   3.008   2.536
 5123SOL    HW116268   6.251   2.928   2.531
 5123SOL    HW216269   6.236   3.081   2.587
 5124SOL     OW16270   3.290   6.786   0.673
 5124SOL    HW116271   3.198   6.783   0.636
 5124SOL    HW216272   3.288   6.829   0.764
 5125SOL     OW16273   0.636   1.973   6.059
 5125SOL    HW116274   0.662   2.006   5.968
 5125SOL    HW216275   0.586   2.045   6.107
 5126SOL     OW16276   4.512   1.598   0.724
 5126SOL    HW116277   4.531   1.621   0.820
 5126SOL    HW216278   4.597   1.603   0.672
 5127SOL     OW16279   4.796   3.627   6.167
 5127SOL    HW116280   4.882   3.625   6.220
 5127SOL    HW216281   4.818   3.636   6.070
 5128SOL     OW16282   6.994   0.482   6.963
 5128SOL    HW116283   7.015   0.393   7.004
 5128SOL    HW216284   6.978   0.470   6.865
 5129SOL     OW16285   4.681   2.458   3.794
 5129SOL    HW116286   4.605   2.409   3.837
 5129SOL    HW216287   4.663   2.556   3.796
 5130SOL     OW16288   2.408   6.702   4.916
 5130SOL    HW116289   2.358   6.788   4.909
 5130SOL    HW216290   2.345   6.628   4.939
 5131SOL     OW16291   2.933   5.290   3.106
 5131SOL    HW116292   2.979   5.358   3.163
 5131SOL    HW216293   2.838   5.316   3.092
 5132SOL     OW16294   3.111   1.887   6.442
 5132SOL    HW116295   3.145   1.834   6.364
 5132SOL    HW216296   3.084   1.979   6.411
 5133SOL     OW16297   4.198   4.453   6.349
 5133SOL    HW116298   4.224   4.372   6.296
 5133SOL    HW216299   4.126   4.428   6.414
 5134SOL     OW16300   5.833   5.973   0.873
 5134SOL    HW116301   5.867   5.913   0.945
 5134SOL    HW216302   5.747   5.936   0.838
 5135SOL     OW16303   0.658   2.648   2.105
 5135SOL    HW116304   0.639   2.662   2.203
 5135SOL    HW216305   0.623   2.725   2.053
 5136SOL     OW16306   6.757   0.074   4.367
 5136SOL    HW116307   6.697   0.008   4.412
 5136SOL    HW216308   6.705   0.155   4.341
 5137SOL     OW16309   5.297   0.806   2.981
 5137SOL    HW116310   5.217   0.863   2.960
 5137SOL    HW216311   5.278   0.711   2.960
 5138SOL     OW16312   3.348   3.657   2.764
 5138SOL    HW116313   3.261   3.682   2.722
 5138SOL    HW216314   3.405   3.738   2.773
 5139SOL     OW16315   4.875   0.810   4.820
 5139SOL    HW116316   4.912   0.769   4.903
 5139SOL    HW216317   4.846   0.904   4.838
 5140SOL     OW16318   2.582   3.684   6.013
 5140SOL    HW116319   2.605   3.658   5.919
 5140SOL    HW216320   2.649   3.750   6.047
 5141SOL     OW16321   1.142   3.001   1.132
 5141SOL    HW116322   1.153   3.001   1.231
 5141SOL    HW216323   1.199   2.929   1.092
 5142SOL     OW16324   6.971   6.674   2.983
 5142SOL    HW116325   6.979   6.580   3.015
 5142SOL    HW216326   7.009   6.736   3.052
 5143SOL     OW16327   6.540   6.362   2.445
 5143SOL    HW116328   6.451   6.407   2.456
 5143SOL    HW216329   6.544   6.319   2.354
 5144SOL     OW16330   1.763   2.780   5.103
 5144SOL    HW116331   1.670   2.812   5.085
 5144SOL    HW216332   1.819   2.857   5.134
 5145SOL     OW16333   0.946   5.199   5.839
 5145SOL    HW116334   0.969   5.293   5.862
 5145SOL    HW216335   0.926   5.147   5.922
 5146SOL     OW16336   5.222   6.234   6.674
 5146SOL    HW116337   5.304   6.258   6.622
 5146SOL    HW216338   5.249   6.187   6.758
 5147SOL     OW16339   4.733   1.228   2.666
 5147SOL    HW116340   4.829   1.242   2.643
 5147SOL    HW216341   4.699   1.144   2.623
 5148SOL     OW16342   6.083   1.348   0.736
 5148SOL    HW116343   6.046   1.259   0.708
 5148SOL    HW216344   6.008   1.413   0.746
 5149SOL     OW16345   2.955   6.572   3.768
 5149SOL    HW116346   2.894   6.495   3.784
 5149SOL    HW216347   2.985   6.571   3.672
 5150SOL     OW16348   6.655   0.701   4.168
 5150SOL    HW116349   6.667   0.604   4.189
 5150SOL    HW216350   6.617   0.748   4.248
 5151SOL     OW16351   5.209   4.502   2.206
 5151SOL    HW116352   5.158   4.417   2.191
 5151SOL    HW216353   5.306   4.485   2.191
 5152SOL     OW16354   2.188   1.720   0.250
 5152SOL    HW116355   2.270   1.758   0.293
 5152SOL    HW216356   2.138   1.664   0.318
 5153SOL     OW16357   2.361   2.247   0.282
 5153SOL    HW116358   2.450   2.203   0.297
 5153SOL    HW216359   2.363   2.339   0.319
 5154SOL     OW16360   0.605   2.886   0.358
 5154SOL    HW116361   0.513   2.850   0.378
 5154SOL    HW216362   0.597   2.959   0.290
 5155SOL     OW16363   1.275   0.652   0.201
 5155SOL    HW116364   1.253   0.572   0.256
 5155SOL    HW216365   1.338   0.711   0.253
 5156SOL     OW16366   5.324   4.665   5.924
 5156SOL    HW116367   5.249   4.599   5.927
 5156SOL    HW216368   5.406   4.619   5.889
 5157SOL     OW16369   3.826   1.177   1.689
 5157SOL    HW116370   3.795   1.100   1.744
 5157SOL    HW216371   3.783   1.261   1.722
 5158SOL     OW16372   1.865   3.236   2.536
 5158SOL    HW116373   1.823   3.275   2.455
 5158SOL    HW216374   1.854   3.137   2.536
 5159SOL     OW16375   6.746   2.845   5.640
 5159SOL    HW116376   6.720   2.911   5.570
 5159SOL    HW216377   6.682   2.851   5.717
 5160SOL     OW16378   6.711   0.321   2.785
 5160SOL    HW116379   6.632   0.293   2.731
 5160SOL    HW216380   6.688   0.402   2.839
 5161SOL     OW16381   0.888   2.034   6.567
 5161SOL    HW116382   0.897   2.032   6.467
 5161SOL    HW216383   0.830   2.111   6.593
 5162SOL     OW16384   0.321   6.859   5.806
 5162SOL    HW116385   0.269   6.908   5.876
 5162SOL    HW216386   0.266   6.849   5.723
 5163SOL     OW16387   2.980   0.967   1.396
 5163SOL    HW116388   2.915   0.898   1.363
 5163SOL    HW216389   3.005   1.028   1.321
 5164SOL     OW16390   2.549   3.023   0.225
 5164SOL    HW116391   2.587   3.072   0.303
 5164SOL    HW216392   2.609   2.947   0.200
 5165SOL     OW16393   1.047   5.083   5.387
 5165SOL    HW116394   1.122   5.084   5.453
 5165SOL    HW216395   1.073   5.029   5.307
 5166SOL     OW16396   6.727   6.218   5.445
 5166SOL    HW116397   6.821   6.208   5.415
 5166SOL    HW216398   6.679   6.131   5.436
 5167SOL     OW16399   6.449   3.431   5.957
 5167SOL    HW116400   6.470   3.519   5.914
 5167SOL    HW216401   6.496   3.426   6.046
 5168SOL     OW16402   5.294   1.619   3.369
 5168SOL    HW116403   5.254   1.666   3.290
 5168SOL    HW216404   5.300   1.682   3.446
 5169SOL     OW16405   5.106   5.694   4.698
 5169SOL    HW116406   5.054   5.611   4.680
 5169SOL    HW216407   5.050   5.774   4.677
 5170SOL     OW16408   2.425   3.711   6.238
 5170SOL    HW116409   2.465   3.779   6.301
 5170SOL    HW216410   2.482   3.704   6.157
 5171SOL     OW16411   2.155   6.584   5.594
 5171SOL    HW116412   2.121   6.648   5.524
 5171SOL    HW216413   2.153   6.491   5.557
 5172SOL     OW16414   4.829   5.189   5.678
 5172SOL    HW116415   4.868   5.097   5.666
 5172SOL    HW216416   4.729   5.182   5.677
 5173SOL     OW16417   4.008   6.353   4.262
 5173SOL    HW116418   4.030   6.446   4.231
 5173SOL    HW216419   4.036   6.343   4.357
 5174SOL     OW16420   0.471   5.605   3.106
 5174SOL    HW116421   0.407   5.654   3.165
 5174SOL    HW216422   0.532   5.549   3.163
 5175SOL     OW16423   2.936   1.656   6.276
 5175SOL    HW116424   2.864   1.718   6.306
 5175SOL    HW216425   2.905   1.561   6.287
 5176SOL     OW16426   5.622   6.467   6.419
 5176SOL    HW116427   5.705   6.422   6.385
 5176SOL    HW216428   5.636   6.497   6.513
 5177SOL     OW16429   5.400   5.483   1.191
 5177SOL    HW116430   5.451   5.492   1.106
 5177SOL    HW216431   5.304   5.508   1.175
 5178SOL     OW16432   0.978   4.271   0.519
 5178SOL    HW116433   1.065   4.261   0.567
 5178SOL    HW216434   0.903   4.259   0.584
 5179SOL     OW16435   3.690   5.380   2.717
 5179SOL    HW116436   3.629   5.332   2.654
 5179SOL    HW216437   3.776   5.329   2.726
 5180SOL     OW16438   2.892   5.336   2.072
 5180SOL    HW116439   2.860   5.404   2.005
 5180SOL    HW216440   2.877   5.371   2.165
 5181SOL     OW16441   6.469   1.267   5.814
 5181SOL    HW116442   6.515   1.181   5.792
 5181SOL    HW216443   6.388   1.277   5.756
 5182SOL     OW16444   2.207   6.221   2.512
 5182SOL    HW116445   2.114   6.188   2.527
 5182SOL    HW216446   2.255   6.226   2.599
 5183SOL     OW16447   5.342   1.762   3.618
 5183SOL    HW116448   5.432   1.805   3.622
 5183SOL    HW216449   5.339   1.683   3.679
 5184SOL     OW16450   3.336   1.175   2.088
 5184SOL    HW116451   3.336   1.232   2.169
 5184SOL    HW216452   3.374   1.085   2.110
 5185SOL     OW16453   6.316   0.355   1.329
 5185SOL    HW116454   6.327   0.442   1.378
 5185SOL    HW216455   6.257   0.294   1.382
 5186SOL     OW16456   5.804   2.512   6.670
 5186SOL    HW116457   5.826   2.455   6.591
 5186SOL    HW216458   5.834   2.466   6.754
 5187SOL     OW16459   1.344   4.695   4.665
 5187SOL    HW116460   1.328   4.604   4.702
 5187SOL    HW216461   1.337   4.763   4.738
 5188SOL     OW16462   0.229   0.551   2.028
 5188SOL    HW116463   0.306   0.572   1.968
 5188SOL    HW216464   0.261   0.538   2.121
 5189SOL     OW16465   5.543   6.106   6.352
 5189SOL    HW116466   5.592   6.152   6.278
 5189SOL    HW216467   5.463   6.059   6.314
 5190SOL     OW16468   1.388   5.296   0.616
 5190SOL    HW116469   1.366   5.295   0.714
 5190SOL    HW216470   1.354   5.212   0.573
 5191SOL     OW16471   2.913   4.113   1.653
 5191SOL    HW116472   3.009   4.107   1.680
 5191SOL    HW216473   2.899   4.195   1.599
 5192SOL     OW16474   0.743   4.244   2.856
 5192SOL    HW116475   0.715   4.315   2.791
 5192SOL    HW216476   0.766   4.161   2.805
 5193SOL     OW16477   3.904   0.271   4.494
 5193SOL    HW116478   3.901   0.171   4.489
 5193SOL    HW216479   3.992   0.302   4.458
 5194SOL     OW16480   4.618   1.610   5.343
 5194SOL    HW116481   4.676   1.691   5.346
 5194SOL    HW216482   4.596   1.589   5.247
 5195SOL     OW16483   1.558   1.140   5.316
 5195SOL    HW116484   1.465   1.108   5.299
 5195SOL    HW216485   1.583   1.122   5.411
 5196SOL     OW16486   5.698   6.435   3.075
 5196SOL    HW116487   5.792   6.463   3.059
 5196SOL    HW216488   5.636   6.490   3.019
 5197SOL     OW16489   1.977   3.874   5.662
 5197SOL    HW116490   2.036   3.936   5.610
 5197SOL    HW216491   2.033   3.807   5.711
 5198SOL     OW16492   6.272   5.797   3.996
 5198SOL    HW116493   6.344   5.791   3.927
 5198SOL    HW216494   6.288   5.876   4.055
 5199SOL     OW16495   0.918   5.660   1.787
 5199SOL    HW116496   0.929   5.750   1.745
 5199SOL    HW216497   0.891   5.593   1.717
 5200SOL     OW16498   6.693   3.927   5.228
 5200SOL    HW116499   6.744   3.843   5.215
 5200SOL    HW216500   6.613   3.909   5.284
 5201SOL     OW16501   0.966   6.048   4.424
 5201SOL    HW116502   0.988   6.141   4.453
 5201SOL    HW216503   0.907   6.005   4.492
 5202SOL     OW16504   0.180   4.757   1.633
 5202SOL    HW116505   0.197   4.720   1.542
 5202SOL    HW216506   0.094   4.720   1.668
 5203SOL     OW16507   6.627   3.212   6.389
 5203SOL    HW116508   6.606   3.127   6.339
 5203SOL    HW216509   6.721   3.208   6.423
 5204SOL     OW16510   5.726   5.254   6.266
 5204SOL    HW116511   5.676   5.307   6.196
 5204SOL    HW216512   5.790   5.192   6.221
 5205SOL     OW16513   2.673   6.061   0.359
 5205SOL    HW116514   2.701   6.146   0.314
 5205SOL    HW216515   2.672   6.074   0.458
 5206SOL     OW16516   0.455   4.233   4.835
 5206SOL    HW116517   0.469   4.248   4.933
 5206SOL    HW216518   0.426   4.138   4.820
 5207SOL     OW16519   1.478   6.249   2.524
 5207SOL    HW116520   1.431   6.288   2.603
 5207SOL    HW216521   1.504   6.322   2.461
 5208SOL     OW16522   4.390   1.772   0.090
 5208SOL    HW116523   4.299   1.773   0.049
 5208SOL    HW216524   4.452   1.720   0.031
 5209SOL     OW16525   6.252   5.487   3.186
 5209SOL    HW116526   6.294   5.455   3.271
 5209SOL    HW216527   6.160   5.448   3.177
 5210SOL     OW16528   5.210   3.761   3.421
 5210SOL    HW116529   5.130   3.738   3.365
 5210SOL    HW216530   5.186   3.832   3.486
 5211SOL     OW16531   3.194   4.015   2.023
 5211SOL    HW116532   3.168   4.013   2.119
 5211SOL    HW216533   3.136   4.080   1.974
 5212SOL     OW16534   0.596   0.418   6.584
 5212SOL    HW116535   0.610   0.341   6.521
 5212SOL    HW216536   0.683   0.464   6.600
 5213SOL     OW16537   4.869   2.083   6.429
 5213SOL    HW116538   4.803   2.126   6.491
 5213SOL    HW216539   4.925   2.153   6.385
 5214SOL     OW16540   4.707   2.164   0.244
 5214SOL    HW116541   4.684   2.102   0.169
 5214SOL    HW216542   4.705   2.114   0.330
 5215SOL     OW16543   5.503   5.364   4.203
 5215SOL    HW116544   5.541   5.272   4.209
 5215SOL    HW216545   5.536   5.418   4.280
 5216SOL     OW16546   3.918   5.461   1.352
 5216SOL    HW116547   3.872   5.468   1.440
 5216SOL    HW216548   3.850   5.451   1.279
 5217SOL     OW16549   3.029   5.211   3.855
 5217SOL    HW116550   3.092   5.258   3.794
 5217SOL    HW216551   3.061   5.118   3.872
 5218SOL     OW16552   1.153   0.425   3.203
 5218SOL    HW116553   1.248   0.416   3.171
 5218SOL    HW216554   1.151   0.483   3.285
 5219SOL     OW16555   3.106   0.120   0.960
 5219SOL    HW116556   3.132   0.065   0.881
 5219SOL    HW216557   3.186   0.170   0.994
 5220SOL     OW16558   0.803   6.438   2.628
 5220SOL    HW116559   0.756   6.438   2.716
 5220SOL    HW216560   0.746   6.391   2.560
 5221SOL     OW16561   4.656   0.864   0.583
 5221SOL    HW116562   4.752   0.881   0.608
 5221SOL    HW216563   4.653   0.795   0.511
 5222SOL     OW16564   0.474   6.369   2.516
 5222SOL    HW116565   0.497   6.278   2.550
 5222SOL    HW216566   0.395   6.405   2.566
 5223SOL     OW16567   4.204   6.667   1.357
 5223SOL    HW116568   4.240   6.613   1.281
 5223SOL    HW216569   4.212   6.764   1.336
 5224SOL     OW16570   5.657   0.763   3.826
 5224SOL    HW116571   5.587   0.820   3.784
 5224SOL    HW216572   5.649   0.769   3.926
 5225SOL     OW16573   0.102   6.699   5.588
 5225SOL    HW116574   0.113   6.743   5.499
 5225SOL    HW216575   0.054   6.761   5.650
 5226SOL     OW16576   2.069   0.951   3.715
 5226SOL    HW116577   2.125   1.013   3.661
 5226SOL    HW216578   2.086   0.967   3.813
 5227SOL     OW16579   5.406   3.464   4.434
 5227SOL    HW116580   5.438   3.468   4.529
 5227SOL    HW216581   5.364   3.375   4.417
 5228SOL     OW16582   4.691   6.781   1.855
 5228SOL    HW116583   4.663   6.685   1.845
 5228SOL    HW216584   4.768   6.799   1.794
 5229SOL     OW16585   0.768   4.158   3.728
 5229SOL    HW116586   0.672   4.151   3.752
 5229SOL    HW216587   0.808   4.066   3.719
 5230SOL     OW16588   0.356   1.568   6.879
 5230SOL    HW116589   0.449   1.566   6.841
 5230SOL    HW216590   0.292   1.535   6.810
 5231SOL     OW16591   3.268   3.968   3.629
 5231SOL    HW116592   3.327   4.048   3.636
 5231SOL    HW216593   3.243   3.953   3.533
 5232SOL     OW16594   5.369   2.902   4.578
 5232SOL    HW116595   5.373   2.826   4.512
 5232SOL    HW216596   5.456   2.909   4.627
 5233SOL     OW16597   0.982   6.973   3.116
 5233SOL    HW116598   1.021   6.896   3.166
 5233SOL    HW216599   1.014   0.038   3.156
 5234SOL     OW16600   3.820   4.413   1.281
 5234SOL    HW116601   3.761   4.340   1.315
 5234SOL    HW216602   3.909   4.408   1.325
 5235SOL     OW16603   1.263   2.325   1.491
 5235SOL    HW116604   1.201   2.288   1.422
 5235SOL    HW216605   1.310   2.251   1.538
 5236SOL     OW16606   6.460   3.229   0.340
 5236SOL    HW116607   6.458   3.229   0.240
 5236SOL    HW216608   6.372   3.261   0.376
 5237SOL     OW16609   1.967   1.799   2.269
 5237SOL    HW116610   1.903   1.773   2.341
 5237SOL    HW216611   1.958   1.896   2.249
 5238SOL     OW16612   2.187   3.353   0.739
 5238SOL    HW116613   2.201   3.414   0.817
 5238SOL    HW216614   2.201   3.258   0.768
 5239SOL     OW16615   2.772   3.301   5.319
 5239SOL    HW116616   2.830   3.347   5.252
 5239SOL    HW216617   2.763   3.204   5.295
 5240SOL     OW16618   4.035   2.017   4.205
 5240SOL    HW116619   4.001   1.966   4.283
 5240SOL    HW216620   3.988   1.987   4.122
 5241SOL     OW16621   3.786   5.728   5.411
 5241SOL    HW116622   3.780   5.762   5.318
 5241SOL    HW216623   3.703   5.753   5.461
 5242SOL     OW16624   4.048   0.308   5.695
 5242SOL    HW116625   4.146   0.328   5.684
 5242SOL    HW216626   4.014   0.357   5.775
 5243SOL     OW16627   1.159   4.086   0.636
 5243SOL    HW116628   1.109   4.003   0.660
 5243SOL    HW216629   1.225   4.107   0.707
 5244SOL     OW16630   6.027   3.082   6.543
 5244SOL    HW116631   5.979   3.069   6.456
 5244SOL    HW216632   6.121   3.112   6.525
 5245SOL     OW16633   4.657   3.999   6.035
 5245SOL    HW116634   4.635   3.947   6.117
 5245SOL    HW216635   4.740   3.961   5.993
 5246SOL     OW16636   1.479   3.589   3.610
 5246SOL    HW116637   1.426   3.652   3.552
 5246SOL    HW216638   1.566   3.569   3.566
 5247SOL     OW16639   0.533   4.824   0.267
 5247SOL    HW116640   0.563   4.732   0.246
 5247SOL    HW216641   0.434   4.824   0.284
 5248SOL     OW16642   4.988   1.291   0.439
 5248SOL    HW116643   4.950   1.222   0.501
 5248SOL    HW216644   4.957   1.382   0.468
 5249SOL     OW16645   0.982   5.399   0.187
 5249SOL    HW116646   0.906   5.464   0.195
 5249SOL    HW216647   0.974   5.349   0.101
 5250SOL     OW16648   1.082   1.516   5.958
 5250SOL    HW116649   0.998   1.565   5.933
 5250SOL    HW216650   1.071   1.419   5.939
 5251SOL     OW16651   0.820   2.870   1.420
 5251SOL    HW116652   0.721   2.863   1.413
 5251SOL    HW216653   0.860   2.866   1.328
 5252SOL     OW16654   5.200   5.962   0.813
 5252SOL    HW116655   5.171   6.050   0.776
 5252SOL    HW216656   5.142   5.889   0.777
 5253SOL     OW16657   5.909   3.039   3.844
 5253SOL    HW116658   5.946   3.089   3.765
 5253SOL    HW216659   5.831   2.983   3.814
 5254SOL     OW16660   5.318   0.536   4.402
 5254SOL    HW116661   5.281   0.530   4.495
 5254SOL    HW216662   5.324   0.444   4.363
 5255SOL     OW16663   2.419   6.004   2.937
 5255SOL    HW116664   2.400   6.102   2.928
 5255SOL    HW216665   2.518   5.990   2.941
 5256SOL     OW16666   4.864   6.073   2.118
 5256SOL    HW116667   4.829   5.992   2.072
 5256SOL    HW216668   4.939   6.047   2.180
 5257SOL     OW16669   3.318   1.283   2.790
 5257SOL    HW116670   3.232   1.286   2.738
 5257SOL    HW216671   3.323   1.364   2.850
 5258SOL     OW16672   5.673   2.046   1.614
 5258SOL    HW116673   5.690   2.109   1.538
 5258SOL    HW216674   5.744   1.975   1.615
 5259SOL     OW16675   6.100   5.014   1.487
 5259SOL    HW116676   6.198   4.997   1.481
 5259SOL    HW216677   6.077   5.049   1.578
 5260SOL     OW16678   4.879   2.870   1.850
 5260SOL    HW116679   4.921   2.791   1.896
 5260SOL    HW216680   4.802   2.903   1.905
 5261SOL     OW16681   2.360   2.721   5.031
 5261SOL    HW116682   2.382   2.806   5.078
 5261SOL    HW216683   2.368   2.734   4.932
 5262SOL     OW16684   1.219   0.081   1.708
 5262SOL    HW116685   1.267   0.066   1.794
 5262SOL    HW216686   1.276   0.134   1.646
 5263SOL     OW16687   1.334   0.108   6.999
 5263SOL    HW116688   1.379   0.027   0.015
 5263SOL    HW216689   1.300   0.089   6.907
 5264SOL     OW16690   0.780   0.480   0.729
 5264SOL    HW116691   0.726   0.408   0.773
 5264SOL    HW216692   0.836   0.527   0.797
 5265SOL     OW16693   5.470   4.816   3.989
 5265SOL    HW116694   5.429   4.893   3.939
 5265SOL    HW216695   5.399   4.765   4.037
 5266SOL     OW16696   1.845   0.253   1.365
 5266SOL    HW116697   1.840   0.200   1.449
 5266SOL    HW216698   1.867   0.348   1.387
 5267SOL     OW16699   3.862   4.195   5.136
 5267SOL    HW116700   3.914   4.268   5.180
 5267SOL    HW216701   3.870   4.204   5.037
 5268SOL     OW16702   5.677   4.995   5.814
 5268SOL    HW116703   5.730   4.984   5.898
 5268SOL    HW216704   5.680   5.091   5.784
 5269SOL     OW16705   2.742   5.401   5.287
 5269SOL    HW116706   2.664   5.351   5.325
 5269SOL    HW216707   2.801   5.337   5.236
 5270SOL     OW16708   6.983   2.004   3.140
 5270SOL    HW116709   7.017   2.053   3.060
 5270SOL    HW216710   0.034   1.945   3.176
 5271SOL     OW16711   5.522   3.539   5.366
 5271SOL    HW116712   5.604   3.481   5.361
 5271SOL    HW216713   5.550   3.635   5.363
 5272SOL     OW16714   2.384   2.240   3.769
 5272SOL    HW116715   2.469   2.218   3.721
 5272SOL    HW216716   2.313   2.175   3.742
 5273SOL     OW16717   6.594   0.684   5.681
 5273SOL    HW116718   6.507   0.645   5.650
 5273SOL    HW216719   6.595   0.686   5.781
 5274SOL     OW16720   0.649   5.243   4.451
 5274SOL    HW116721   0.695   5.289   4.528
 5274SOL    HW216722   0.700   5.161   4.427
 5275SOL     OW16723   2.376   6.448   7.002
 5275SOL    HW116724   2.289   6.441   0.031
 5275SOL    HW216725   2.389   6.543   6.973
 5276SOL     OW16726   0.135   0.084   0.548
 5276SOL    HW116727   0.135   0.096   0.448
 5276SOL    HW216728   0.119   0.172   0.592
 5277SOL     OW16729   0.462   1.133   1.644
 5277SOL    HW116730   0.416   1.055   1.601
 5277SOL    HW216731   0.404   1.214   1.638
 5278SOL     OW16732   0.402   4.766   6.145
 5278SOL    HW116733   0.358   4.846   6.103
 5278SOL    HW216734   0.332   4.699   6.169
 5279SOL     OW16735   2.648   6.491   0.074
 5279SOL    HW116736   2.655   6.491   0.174
 5279SOL    HW216737   2.556   6.463   0.047
 5280SOL     OW16738   4.583   6.023   6.018
 5280SOL    HW116739   4.613   6.088   5.948
 5280SOL    HW216740   4.534   6.071   6.090
 5281SOL     OW16741   2.187   6.482   4.706
 5281SOL    HW116742   2.138   6.402   4.673
 5281SOL    HW216743   2.166   6.498   4.802
 5282SOL     OW16744   6.586   5.717   1.048
 5282SOL    HW116745   6.598   5.709   0.949
 5282SOL    HW216746   6.660   5.773   1.086
 5283SOL     OW16747   1.472   0.392   4.431
 5283SOL    HW116748   1.398   0.451   4.397
 5283SOL    HW216749   1.492   0.321   4.364
 5284SOL     OW16750   4.758   2.852   2.283
 5284SOL    HW116751   4.826   2.779   2.283
 5284SOL    HW216752   4.747   2.888   2.190
 5285SOL     OW16753   1.732   1.750   4.172
 5285SOL    HW116754   1.641   1.726   4.206
 5285SOL    HW216755   1.729   1.840   4.130
 5286SOL     OW16756   0.239   3.304   1.343
 5286SOL    HW116757   0.320   3.265   1.298
 5286SOL    HW216758   0.246   3.288   1.441
 5287SOL     OW16759   0.549   4.907   2.248
 5287SOL    HW116760   0.492   4.870   2.174
 5287SOL    HW216761   0.643   4.877   2.236
 5288SOL     OW16762   4.179   0.813   1.249
 5288SOL    HW116763   4.174   0.752   1.170
 5288SOL    HW216764   4.148   0.904   1.224
 5289SOL     OW16765   1.709   5.287   6.359
 5289SOL    HW116766   1.648   5.211   6.382
 5289SOL    HW216767   1.785   5.290   6.423
 5290SOL     OW16768   1.614   2.969   5.487
 5290SOL    HW116769   1.568   2.979   5.575
 5290SOL    HW216770   1.684   2.898   5.494
 5291SOL     OW16771   2.966   5.792   4.718
 5291SOL    HW116772   3.028   5.868   4.738
 5291SOL    HW216773   2.885   5.828   4.670
 5292SOL     OW16774   0.959   4.011   4.870
 5292SOL    HW116775   0.967   4.039   4.775
 5292SOL    HW216776   0.985   4.088   4.929
 5293SOL     OW16777   2.349   0.723   3.518
 5293SOL    HW116778   2.371   0.642   3.573
 5293SOL    HW216779   2.279   0.700   3.451
 5294SOL     OW16780   5.073   6.922   3.960
 5294SOL    HW116781   5.000   6.972   3.915
 5294SOL    HW216782   5.113   6.978   4.033
 5295SOL     OW16783   2.095   0.604   1.071
 5295SOL    HW116784   2.010   0.606   1.020
 5295SOL    HW216785   2.116   0.510   1.098
 5296SOL     OW16786   4.565   5.083   2.248
 5296SOL    HW116787   4.656   5.050   2.226
 5296SOL    HW216788   4.497   5.016   2.219
 5297SOL     OW16789   3.509   4.841   6.120
 5297SOL    HW116790   3.573   4.905   6.077
 5297SOL    HW216791   3.529   4.835   6.218
 5298SOL     OW16792   3.365   1.355   0.058
 5298SOL    HW116793   3.421   1.347   0.140
 5298SOL    HW216794   3.283   1.408   0.078
 5299SOL     OW16795   2.149   0.376   1.200
 5299SOL    HW116796   2.156   0.345   1.294
 5299SOL    HW216797   2.087   0.317   1.149
 5300SOL     OW16798   2.985   5.068   6.531
 5300SOL    HW116799   2.896   5.055   6.575
 5300SOL    HW216800   3.048   5.109   6.597
 5301SOL     OW16801   6.554   6.757   5.823
 5301SOL    HW116802   6.520   6.666   5.797
 5301SOL    HW216803   6.549   6.818   5.743
 5302SOL     OW16804   4.961   5.177   3.061
 5302SOL    HW116805   4.951   5.173   2.962
 5302SOL    HW216806   4.870   5.177   3.104
 5303SOL     OW16807   1.558   6.331   4.957
 5303SOL    HW116808   1.602   6.413   4.993
 5303SOL    HW216809   1.496   6.293   5.026
 5304SOL     OW16810   0.169   0.460   3.415
 5304SOL    HW116811   0.119   0.374   3.420
 5304SOL    HW216812   0.172   0.491   3.320
 5305SOL     OW16813   6.984   5.208   4.600
 5305SOL    HW116814   6.986   5.110   4.619
 5305SOL    HW216815   6.969   5.222   4.502
 5306SOL     OW16816   0.869   2.074   6.271
 5306SOL    HW116817   0.800   2.054   6.202
 5306SOL    HW216818   0.886   2.173   6.273
 5307SOL     OW16819   0.599   1.390   1.438
 5307SOL    HW116820   0.580   1.302   1.395
 5307SOL    HW216821   0.659   1.376   1.517
 5308SOL     OW16822   1.899   4.340   2.617
 5308SOL    HW116823   1.922   4.286   2.536
 5308SOL    HW216824   1.933   4.293   2.699
 5309SOL     OW16825   5.478   6.411   3.488
 5309SOL    HW116826   5.395   6.432   3.539
 5309SOL    HW216827   5.548   6.377   3.551
 5310SOL     OW16828   6.459   1.688   2.943
 5310SOL    HW116829   6.408   1.774   2.946
 5310SOL    HW216830   6.541   1.697   3.000
 5311SOL     OW16831   6.047   6.971   0.316
 5311SOL    HW116832   5.980   6.961   0.389
 5311SOL    HW216833   6.054   0.047   0.290
 5312SOL     OW16834   6.005   6.844   0.995
 5312SOL    HW116835   6.085   6.784   0.987
 5312SOL    HW216836   5.950   6.837   0.913
 5313SOL     OW16837   1.601   6.725   5.989
 5313SOL    HW116838   1.648   6.668   6.057
 5313SOL    HW216839   1.572   6.668   5.913
 5314SOL     OW16840   6.002   2.323   1.612
 5314SOL    HW116841   6.027   2.393   1.545
 5314SOL    HW216842   6.066   2.246   1.606
 5315SOL     OW16843   4.193   2.315   3.391
 5315SOL    HW116844   4.269   2.340   3.331
 5315SOL    HW216845   4.122   2.270   3.337
 5316SOL     OW16846   0.369   2.772   4.834
 5316SOL    HW116847   0.467   2.752   4.824
 5316SOL    HW216848   0.322   2.750   4.749
 5317SOL     OW16849   5.829   3.133   0.560
 5317SOL    HW116850   5.850   3.139   0.462
 5317SOL    HW216851   5.831   3.225   0.599
 5318SOL     OW16852   6.947   4.194   5.732
 5318SOL    HW116853   0.014   4.190   5.686
 5318SOL    HW216854   6.961   4.191   5.831
 5319SOL     OW16855   3.892   6.252   2.228
 5319SOL    HW116856   3.799   6.246   2.194
 5319SOL    HW216857   3.891   6.274   2.326
 5320SOL     OW16858   4.711   5.938   0.748
 5320SOL    HW116859   4.750   5.886   0.672
 5320SOL    HW216860   4.642   5.882   0.794
 5321SOL     OW16861   1.775   4.000   6.050
 5321SOL    HW116862   1.709   4.051   6.105
 5321SOL    HW216863   1.800   3.915   6.098
 5322SOL     OW16864   3.787   6.248   1.783
 5322SOL    HW116865   3.701   6.198   1.771
 5322SOL    HW216866   3.863   6.184   1.793
 5323SOL     OW16867   4.220   0.527   6.575
 5323SOL    HW116868   4.206   0.447   6.518
 5323SOL    HW216869   4.253   0.499   6.665
 5324SOL     OW16870   1.535   1.789   1.492
 5324SOL    HW116871   1.442   1.823   1.504
 5324SOL    HW216872   1.555   1.720   1.562
 5325SOL     OW16873   2.125   2.659   4.725
 5325SOL    HW116874   2.065   2.630   4.651
 5325SOL    HW216875   2.080   2.730   4.779
 5326SOL     OW16876   6.111   6.848   1.248
 5326SOL    HW116877   6.046   6.837   1.172
 5326SOL    HW216878   6.204   6.854   1.211
 5327SOL     OW16879   0.766   2.648   5.367
 5327SOL    HW116880   0.794   2.731   5.416
 5327SOL    HW216881   0.780   2.569   5.427
 5328SOL     OW16882   4.419   5.364   0.556
 5328SOL    HW116883   4.450   5.453   0.592
 5328SOL    HW216884   4.321   5.354   0.570
 5329SOL     OW16885   2.415   6.237   6.215
 5329SOL    HW116886   2.424   6.192   6.127
 5329SOL    HW216887   2.506   6.249   6.256
 5330SOL     OW16888   2.691   5.131   1.291
 5330SOL    HW116889   2.682   5.032   1.280
 5330SOL    HW216890   2.629   5.177   1.228
 5331SOL     OW16891   6.466   1.277   6.799
 5331SOL    HW116892   6.544   1.335   6.821
 5331SOL    HW216893   6.388   1.335   6.774
 5332SOL     OW16894   0.825   4.478   1.517
 5332SOL    HW116895   0.802   4.569   1.551
 5332SOL    HW216896   0.825   4.413   1.593
 5333SOL     OW16897   0.931   6.331   4.708
 5333SOL    HW116898   0.937   6.384   4.793
 5333SOL    HW216899   0.927   6.233   4.730
 5334SOL     OW16900   3.869   0.276   5.519
 5334SOL    HW116901   3.919   0.305   5.601
 5334SOL    HW216902   3.771   0.295   5.532
 5335SOL     OW16903   6.735   6.026   0.843
 5335SOL    HW116904   6.640   6.054   0.857
 5335SOL    HW216905   6.763   5.966   0.919
 5336SOL     OW16906   1.257   4.354   1.290
 5336SOL    HW116907   1.161   4.364   1.317
 5336SOL    HW216908   1.264   4.288   1.215
 5337SOL     OW16909   4.944   4.454   1.831
 5337SOL    HW116910   4.861   4.399   1.830
 5337SOL    HW216911   5.022   4.399   1.802
 5338SOL     OW16912   5.386   2.846   0.406
 5338SOL    HW116913   5.377   2.754   0.442
 5338SOL    HW216914   5.468   2.889   0.443
 5339SOL     OW16915   6.577   0.278   1.944
 5339SOL    HW116916   6.501   0.244   1.889
 5339SOL    HW216917   6.620   0.355   1.897
 5340SOL     OW16918   4.748   2.686   6.661
 5340SOL    HW116919   4.659   2.721   6.630
 5340SOL    HW216920   4.746   2.586   6.661
 5341SOL     OW16921   4.573   0.382   1.143
 5341SOL    HW116922   4.626   0.385   1.058
 5341SOL    HW216923   4.481   0.417   1.126
 5342SOL     OW16924   2.478   0.570   5.788
 5342SOL    HW116925   2.443   0.508   5.858
 5342SOL    HW216926   2.542   0.635   5.829
 5343SOL     OW16927   3.357   3.903   1.611
 5343SOL    HW116928   3.432   3.837   1.609
 5343SOL    HW216929   3.287   3.872   1.676
 5344SOL     OW16930   2.163   2.297   2.418
 5344SOL    HW116931   2.116   2.305   2.506
 5344SOL    HW216932   2.115   2.229   2.361
 5345SOL     OW16933   4.718   0.536   3.425
 5345SOL    HW116934   4.664   0.452   3.431
 5345SOL    HW216935   4.716   0.582   3.514
 5346SOL     OW16936   3.105   0.640   4.109
 5346SOL    HW116937   3.014   0.679   4.093
 5346SOL    HW216938   3.108   0.603   4.202
 5347SOL     OW16939   6.738   1.433   1.749
 5347SOL    HW116940   6.667   1.503   1.751
 5347SOL    HW216941   6.696   1.343   1.756
 5348SOL     OW16942   6.419   1.433   0.097
 5348SOL    HW116943   6.419   1.427   0.197
 5348SOL    HW216944   6.492   1.375   0.060
 5349SOL     OW16945   5.834   0.198   1.329
 5349SOL    HW116946   5.870   0.143   1.253
 5349SOL    HW216947   5.900   0.198   1.404
 5350SOL     OW16948   2.756   0.653   6.829
 5350SOL    HW116949   2.816   0.610   6.761
 5350SOL    HW216950   2.785   0.627   6.920
 5351SOL     OW16951   4.441   1.150   2.181
 5351SOL    HW116952   4.366   1.214   2.198
 5351SOL    HW216953   4.420   1.062   2.224
 5352SOL     OW16954   3.516   0.049   3.313
 5352SOL    HW116955   3.593   0.010   3.262
 5352SOL    HW216956   3.436   0.054   3.253
 5353SOL     OW16957   5.914   0.293   5.998
 5353SOL    HW116958   6.014   0.292   6.001
 5353SOL    HW216959   5.882   0.379   5.960
 5354SOL     OW16960   1.737   3.368   0.886
 5354SOL    HW116961   1.750   3.279   0.843
 5354SOL    HW216962   1.797   3.435   0.842
 5355SOL     OW16963   4.738   1.517   5.910
 5355SOL    HW116964   4.805   1.467   5.854
 5355SOL    HW216965   4.655   1.531   5.858
 5356SOL     OW16966   6.367   3.057   1.462
 5356SOL    HW116967   6.300   3.014   1.523
 5356SOL    HW216968   6.336   3.049   1.367
 5357SOL     OW16969   3.835   6.038   0.036
 5357SOL    HW116970   3.834   6.103   0.112
 5357SOL    HW216971   3.914   6.056   6.999
 5358SOL     OW16972   5.194   4.307   1.929
 5358SOL    HW116973   5.285   4.344   1.951
 5358SOL    HW216974   5.142   4.296   2.014
 5359SOL     OW16975   3.657   0.299   5.893
 5359SOL    HW116976   3.611   0.222   5.848
 5359SOL    HW216977   3.589   0.355   5.940
 5360SOL     OW16978   4.458   1.489   0.107
 5360SOL    HW116979   4.443   1.395   0.137
 5360SOL    HW216980   4.396   1.550   0.156
 5361SOL     OW16981   1.293   0.937   6.414
 5361SOL    HW116982   1.251   0.879   6.344
 5361SOL    HW216983   1.309   0.883   6.496
 5362SOL     OW16984   4.190   5.856   3.453
 5362SOL    HW116985   4.235   5.789   3.394
 5362SOL    HW216986   4.238   5.859   3.541
 5363SOL     OW16987   0.840   5.862   4.607
 5363SOL    HW116988   0.899   5.784   4.585
 5363SOL    HW216989   0.757   5.858   4.552
 5364SOL     OW16990   1.127   6.220   6.995
 5364SOL    HW116991   1.195   6.170   6.942
 5364SOL    HW216992   1.075   6.281   6.935
 5365SOL     OW16993   3.878   2.180   5.926
 5365SOL    HW116994   3.803   2.230   5.967
 5365SOL    HW216995   3.938   2.145   5.998
 5366SOL     OW16996   3.586   3.811   6.060
 5366SOL    HW116997   3.549   3.801   5.967
 5366SOL    HW216998   3.518   3.857   6.117
 5367SOL     OW16999   0.266   4.970   0.940
 5367SOL    HW117000   0.337   5.015   0.993
 5367SOL    HW217001   0.254   4.876   0.971
 5368SOL     OW17002   0.763   0.595   3.685
 5368SOL    HW117003   0.787   0.597   3.588
 5368SOL    HW217004   0.693   0.525   3.700
 5369SOL     OW17005   2.112   3.472   2.357
 5369SOL    HW117006   2.139   3.566   2.338
 5369SOL    HW217007   2.040   3.471   2.426
 5370SOL     OW17008   3.662   2.860   1.482
 5370SOL    HW117009   3.661   2.960   1.473
 5370SOL    HW217010   3.572   2.828   1.511
 5371SOL     OW17011   1.933   4.222   4.881
 5371SOL    HW117012   1.948   4.256   4.788
 5371SOL    HW217013   2.021   4.220   4.930
 5372SOL     OW17014   3.139   6.316   2.511
 5372SOL    HW117015   3.051   6.273   2.490
 5372SOL    HW217016   3.140   6.409   2.476
 5373SOL     OW17017   1.785   5.393   3.884
 5373SOL    HW117018   1.752   5.423   3.795
 5373SOL    HW217019   1.770   5.294   3.894
 5374SOL     OW17020   2.968   2.439   0.529
 5374SOL    HW117021   2.873   2.464   0.544
 5374SOL    HW217022   3.020   2.451   0.614
 5375SOL     OW17023   1.172   3.945   5.149
 5375SOL    HW117024   1.212   4.015   5.090
 5375SOL    HW217025   1.223   3.860   5.140
 5376SOL     OW17026   2.718   4.804   5.816
 5376SOL    HW117027   2.800   4.812   5.760
 5376SOL    HW217028   2.721   4.873   5.889
 5377SOL     OW17029   0.626   2.248   1.798
 5377SOL    HW117030   0.541   2.261   1.747
 5377SOL    HW217031   0.668   2.161   1.772
 5378SOL     OW17032   5.009   0.607   6.718
 5378SOL    HW117033   5.023   0.663   6.800
 5378SOL    HW217034   5.035   0.659   6.637
 5379SOL     OW17035   6.811   6.710   0.501
 5379SOL    HW117036   6.793   6.623   0.455
 5379SOL    HW217037   6.763   6.711   0.589
 5380SOL     OW17038   1.855   1.522   5.230
 5380SOL    HW117039   1.909   1.596   5.270
 5380SOL    HW217040   1.903   1.486   5.150
 5381SOL     OW17041   6.237   3.924   1.931
 5381SOL    HW117042   6.207   3.830   1.946
 5381SOL    HW217043   6.284   3.930   1.843
 5382SOL     OW17044   1.976   6.713   1.617
 5382SOL    HW117045   1.880   6.687   1.622
 5382SOL    HW217046   1.987   6.787   1.551
 5383SOL     OW17047   2.174   1.972   4.939
 5383SOL    HW117048   2.138   1.954   4.848
 5383SOL    HW217049   2.111   2.032   4.989
 5384SOL     OW17050   5.179   6.460   4.687
 5384SOL    HW117051   5.251   6.414   4.739
 5384SOL    HW217052   5.090   6.426   4.717
 5385SOL     OW17053   3.682   4.107   2.926
 5385SOL    HW117054   3.652   4.197   2.895
 5385SOL    HW217055   3.754   4.073   2.864
 5386SOL     OW17056   6.102   6.339   6.076
 5386SOL    HW117057   6.165   6.393   6.019
 5386SOL    HW217058   6.014   6.386   6.080
 5387SOL     OW17059   3.765   5.021   0.797
 5387SOL    HW117060   3.861   5.038   0.775
 5387SOL    HW217061   3.752   4.924   0.816
 5388SOL     OW17062   5.760   5.937   3.101
 5388SOL    HW117063   5.714   6.026   3.099
 5388SOL    HW217064   5.765   5.904   3.195
 5389SOL     OW17065   5.727   3.248   1.529
 5389SOL    HW117066   5.791   3.245   1.605
 5389SOL    HW217067   5.668   3.167   1.532
 5390SOL     OW17068   6.535   4.885   6.509
 5390SOL    HW117069   6.481   4.962   6.543
 5390SOL    HW217070   6.628   4.891   6.546
 5391SOL     OW17071   3.516   3.966   0.105
 5391SOL    HW117072   3.608   3.987   0.073
 5391SOL    HW217073   3.450   4.020   0.054
 5392SOL     OW17074   0.269   2.559   3.216
 5392SOL    HW117075   0.351   2.520   3.172
 5392SOL    HW217076   0.247   2.506   3.297
 5393SOL     OW17077   6.456   6.857   6.452
 5393SOL    HW117078   6.435   6.766   6.418
 5393SOL    HW217079   6.384   6.886   6.516
 5394SOL     OW17080   1.841   3.771   6.170
 5394SOL    HW117081   1.821   3.806   6.262
 5394SOL    HW217082   1.911   3.699   6.176
 5395SOL     OW17083   4.344   0.552   1.380
 5395SOL    HW117084   4.368   0.550   1.476
 5395SOL    HW217085   4.385   0.633   1.337
 5396SOL     OW17086   5.074   2.309   1.270
 5396SOL    HW117087   5.000   2.246   1.293
 5396SOL    HW217088   5.063   2.342   1.176
 5397SOL     OW17089   1.531   2.719   1.908
 5397SOL    HW117090   1.599   2.653   1.878
 5397SOL    HW217091   1.439   2.679   1.898
 5398SOL     OW17092   3.521   3.494   2.577
 5398SOL    HW117093   3.608   3.521   2.619
 5398SOL    HW217094   3.449   3.499   2.646
 5399SOL     OW17095   0.570   5.270   0.309
 5399SOL    HW117096   0.544   5.354   0.357
 5399SOL    HW217097   0.488   5.219   0.284
 5400SOL     OW17098   2.204   3.320   6.740
 5400SOL    HW117099   2.154   3.354   6.660
 5400SOL    HW217100   2.144   3.261   6.793
 5401SOL     OW17101   6.565   1.715   0.719
 5401SOL    HW117102   6.555   1.626   0.674
 5401SOL    HW217103   6.661   1.731   0.741
 5402SOL     OW17104   0.832   5.827   2.242
 5402SOL    HW117105   0.898   5.752   2.252
 5402SOL    HW217106   0.879   5.909   2.210
 5403SOL     OW17107   6.325   2.688   6.276
 5403SOL    HW117108   6.373   2.604   6.253
 5403SOL    HW217109   6.358   2.724   6.363
 5404SOL     OW17110   0.921   3.076   3.097
 5404SOL    HW117111   1.010   3.043   3.129
 5404SOL    HW217112   0.923   3.176   3.090
 5405SOL     OW17113   6.483   4.421   5.403
 5405SOL    HW117114   6.412   4.486   5.430
 5405SOL    HW217115   6.549   4.409   5.477
 5406SOL     OW17116   1.552   0.331   3.611
 5406SOL    HW117117   1.625   0.268   3.639
 5406SOL    HW217118   1.481   0.279   3.564
 5407SOL     OW17119   4.236   3.367   6.476
 5407SOL    HW117120   4.141   3.342   6.494
 5407SOL    HW217121   4.297   3.296   6.512
 5408SOL     OW17122   3.618   1.110   6.444
 5408SOL    HW117123   3.577   1.169   6.374
 5408SOL    HW217124   3.573   1.128   6.532
 5409SOL     OW17125   4.758   0.445   1.785
 5409SOL    HW117126   4.710   0.387   1.719
 5409SOL    HW217127   4.768   0.396   1.871
 5410SOL     OW17128   1.413   2.796   3.019
 5410SOL    HW117129   1.337   2.791   2.954
 5410SOL    HW217130   1.468   2.712   3.012
 5411SOL     OW17131   2.496   4.678   4.984
 5411SOL    HW117132   2.574   4.691   5.045
 5411SOL    HW217133   2.450   4.766   4.971
 5412SOL     OW17134   6.282   1.879   2.337
 5412SOL    HW117135   6.252   1.936   2.415
 5412SOL    HW217136   6.284   1.783   2.365
 5413SOL     OW17137   1.374   6.915   2.948
 5413SOL    HW117138   1.339   6.912   2.855
 5413SOL    HW217139   1.458   6.969   2.951
 5414SOL     OW17140   4.142   0.280   6.149
 5414SOL    HW117141   4.194   0.260   6.066
 5414SOL    HW217142   4.202   0.272   6.229
 5415SOL     OW17143   6.310   3.477   2.785
 5415SOL    HW117144   6.253   3.455   2.865
 5415SOL    HW217145   6.405   3.487   2.814
 5416SOL     OW17146   4.141   5.031   4.321
 5416SOL    HW117147   4.072   5.103   4.312
 5416SOL    HW217148   4.125   4.961   4.252
 5417SOL     OW17149   2.877   0.056   5.651
 5417SOL    HW117150   2.972   0.062   5.680
 5417SOL    HW217151   2.871   0.004   5.566
 5418SOL     OW17152   3.909   1.117   3.238
 5418SOL    HW117153   3.920   1.075   3.328
 5418SOL    HW217154   3.822   1.166   3.235
 5419SOL     OW17155   3.350   4.198   6.672
 5419SOL    HW117156   3.305   4.264   6.612
 5419SOL    HW217157   3.349   4.108   6.628
 5420SOL     OW17158   1.212   2.558   2.995
 5420SOL    HW117159   1.279   2.531   2.926
 5420SOL    HW217160   1.211   2.658   3.003
 5421SOL     OW17161   2.316   2.339   0.632
 5421SOL    HW117162   2.351   2.361   0.541
 5421SOL    HW217163   2.388   2.299   0.687
 5422SOL     OW17164   0.764   3.294   0.425
 5422SOL    HW117165   0.775   3.393   0.433
 5422SOL    HW217166   0.835   3.248   0.477
 5423SOL     OW17167   4.405   3.013   5.897
 5423SOL    HW117168   4.321   2.995   5.846
 5423SOL    HW217169   4.465   2.934   5.892
 5424SOL     OW17170   5.376   3.080   5.753
 5424SOL    HW117171   5.402   2.983   5.754
 5424SOL    HW217172   5.449   3.133   5.710
 5425SOL     OW17173   4.850   1.059   4.858
 5425SOL    HW117174   4.885   1.138   4.909
 5425SOL    HW217175   4.840   1.083   4.762
 5426SOL     OW17176   0.173   0.084   4.595
 5426SOL    HW117177   0.163   0.010   4.660
 5426SOL    HW217178   0.233   0.054   4.520
 5427SOL     OW17179   4.075   0.132   0.296
 5427SOL    HW117180   4.116   0.210   0.250
 5427SOL    HW217181   4.073   0.053   0.234
 5428SOL     OW17182   1.687   0.869   0.314
 5428SOL    HW117183   1.661   0.774   0.298
 5428SOL    HW217184   1.761   0.873   0.381
 5429SOL     OW17185   1.074   2.404   5.997
 5429SOL    HW117186   1.173   2.415   6.000
 5429SOL    HW217187   1.040   2.383   6.089
 5430SOL     OW17188   2.153   2.728   5.442
 5430SOL    HW117189   2.155   2.818   5.398
 5430SOL    HW217190   2.236   2.677   5.417
 5431SOL     OW17191   3.758   5.569   4.177
 5431SOL    HW117192   3.857   5.565   4.164
 5431SOL    HW217193   3.726   5.663   4.170
 5432SOL     OW17194   5.915   4.819   1.596
 5432SOL    HW117195   5.889   4.797   1.690
 5432SOL    HW217196   5.952   4.911   1.591
 5433SOL     OW17197   1.080   2.003   3.322
 5433SOL    HW117198   1.151   1.979   3.256
 5433SOL    HW217199   1.035   2.088   3.292
 5434SOL     OW17200   2.215   6.304   5.098
 5434SOL    HW117201   2.244   6.317   5.193
 5434SOL    HW217202   2.239   6.212   5.068
 5435SOL     OW17203   4.357   0.843   2.273
 5435SOL    HW117204   4.386   0.908   2.343
 5435SOL    HW217205   4.368   0.750   2.308
 5436SOL     OW17206   5.337   4.222   2.933
 5436SOL    HW117207   5.308   4.138   2.980
 5436SOL    HW217208   5.299   4.222   2.840
 5437SOL     OW17209   3.801   4.642   6.200
 5437SOL    HW117210   3.706   4.625   6.226
 5437SOL    HW217211   3.803   4.689   6.111
 5438SOL     OW17212   6.754   0.776   0.761
 5438SOL    HW117213   6.690   0.804   0.833
 5438SOL    HW217214   6.827   0.720   0.800
 5439SOL     OW17215   1.489   3.139   0.456
 5439SOL    HW117216   1.420   3.163   0.525
 5439SOL    HW217217   1.487   3.205   0.382
 5440SOL     OW17218   1.911   0.775   1.658
 5440SOL    HW117219   1.903   0.749   1.561
 5440SOL    HW217220   2.007   0.771   1.686
 5441SOL     OW17221   3.668   1.946   4.577
 5441SOL    HW117222   3.710   2.024   4.531
 5441SOL    HW217223   3.740   1.885   4.610
 5442SOL     OW17224   3.307   1.014   1.838
 5442SOL    HW117225   3.300   1.103   1.882
 5442SOL    HW217226   3.379   0.961   1.882
 5443SOL     OW17227   1.594   6.550   5.776
 5443SOL    HW117228   1.659   6.480   5.805
 5443SOL    HW217229   1.537   6.514   5.701
 5444SOL     OW17230   0.328   0.878   3.561
 5444SOL    HW117231   0.308   0.781   3.553
 5444SOL    HW217232   0.346   0.916   3.470
 5445SOL     OW17233   6.223   3.668   2.004
 5445SOL    HW117234   6.264   3.649   2.093
 5445SOL    HW217235   6.144   3.607   1.991
 5446SOL     OW17236   6.525   5.930   5.856
 5446SOL    HW117237   6.618   5.962   5.873
 5446SOL    HW217238   6.475   5.923   5.942
 5447SOL     OW17239   3.065   2.412   1.100
 5447SOL    HW117240   3.070   2.405   1.200
 5447SOL    HW217241   3.153   2.385   1.060
 5448SOL     OW17242   5.470   1.634   6.596
 5448SOL    HW117243   5.396   1.624   6.662
 5448SOL    HW217244   5.521   1.718   6.615
 5449SOL     OW17245   0.250   2.727   0.070
 5449SOL    HW117246   0.220   2.632   0.069
 5449SOL    HW217247   0.187   2.782   0.015
 5450SOL     OW17248   2.321   6.177   1.001
 5450SOL    HW117249   2.317   6.218   1.093
 5450SOL    HW217250   2.417   6.161   0.976
 5451SOL     OW17251   2.736   0.356   2.587
 5451SOL    HW117252   2.779   0.297   2.656
 5451SOL    HW217253   2.637   0.361   2.605
 5452SOL     OW17254   2.478   3.676   5.633
 5452SOL    HW117255   2.435   3.763   5.659
 5452SOL    HW217256   2.524   3.687   5.545
 5453SOL     OW17257   0.452   5.398   5.417
 5453SOL    HW117258   0.512   5.429   5.492
 5453SOL    HW217259   0.422   5.477   5.364
 5454SOL     OW17260   0.920   3.777   5.612
 5454SOL    HW117261   0.821   3.765   5.605
 5454SOL    HW217262   0.950   3.840   5.541
 5455SOL     OW17263   6.777   1.963   0.903
 5455SOL    HW117264   6.707   1.957   0.974
 5455SOL    HW217265   6.804   2.059   0.891
 5456SOL     OW17266   3.582   6.924   1.373
 5456SOL    HW117267   3.554   6.868   1.295
 5456SOL    HW217268   3.601   6.865   1.452
 5457SOL     OW17269   6.327   3.372   1.249
 5457SOL    HW117270   6.360   3.318   1.172
 5457SOL    HW217271   6.405   3.411   1.298
 5458SOL     OW17272   1.761   4.365   5.694
 5458SOL    HW117273   1.796   4.283   5.649
 5458SOL    HW217274   1.826   4.396   5.763
 5459SOL     OW17275   2.193   3.784   6.110
 5459SOL    HW117276   2.273   3.749   6.159
 5459SOL    HW217277   2.120   3.716   6.113
 5460SOL     OW17278   4.017   0.223   4.076
 5460SOL    HW117279   3.959   0.165   4.018
 5460SOL    HW217280   4.105   0.178   4.091
 5461SOL     OW17281   4.314   6.749   4.974
 5461SOL    HW117282   4.361   6.677   5.024
 5461SOL    HW217283   4.371   6.830   4.970
 5462SOL     OW17284   0.231   0.666   1.562
 5462SOL    HW117285   0.326   0.636   1.574
 5462SOL    HW217286   0.176   0.630   1.638
 5463SOL     OW17287   6.810   2.921   1.109
 5463SOL    HW117288   6.779   2.882   1.022
 5463SOL    HW217289   6.868   3.000   1.092
 5464SOL     OW17290   1.747   6.809   4.675
 5464SOL    HW117291   1.769   6.714   4.650
 5464SOL    HW217292   1.752   6.866   4.593
 5465SOL     OW17293   2.961   5.838   6.962
 5465SOL    HW117294   3.027   5.805   6.894
 5465SOL    HW217295   2.871   5.797   6.943
 5466SOL     OW17296   5.296   6.094   4.520
 5466SOL    HW117297   5.229   6.049   4.580
 5466SOL    HW217298   5.357   6.150   4.575
 5467SOL     OW17299   5.884   1.813   1.557
 5467SOL    HW117300   5.876   1.810   1.656
 5467SOL    HW217301   5.973   1.778   1.529
 5468SOL     OW17302   4.371   1.381   6.520
 5468SOL    HW117303   4.468   1.363   6.503
 5468SOL    HW217304   4.338   1.322   6.593
 5469SOL     OW17305   4.849   4.848   1.912
 5469SOL    HW117306   4.779   4.906   1.868
 5469SOL    HW217307   4.882   4.781   1.846
 5470SOL     OW17308   0.099   4.861   3.358
 5470SOL    HW117309   0.091   4.790   3.428
 5470SOL    HW217310   0.034   4.844   3.284
 5471SOL     OW17311   6.530   4.308   2.272
 5471SOL    HW117312   6.614   4.287   2.321
 5471SOL    HW217313   6.521   4.407   2.262
 5472SOL     OW17314   3.751   5.427   5.246
 5472SOL    HW117315   3.669   5.373   5.224
 5472SOL    HW217316   3.762   5.433   5.345
 5473SOL     OW17317   1.931   4.689   4.051
 5473SOL    HW117318   1.873   4.771   4.053
 5473SOL    HW217319   1.890   4.617   4.107
 5474SOL     OW17320   0.857   5.847   3.033
 5474SOL    HW117321   0.924   5.822   3.102
 5474SOL    HW217322   0.833   5.944   3.043
 5475SOL     OW17323   3.113   2.908   1.457
 5475SOL    HW117324   3.170   2.988   1.436
 5475SOL    HW217325   3.108   2.895   1.556
 5476SOL     OW17326   2.032   3.181   6.911
 5476SOL    HW117327   2.039   3.222   7.002
 5476SOL    HW217328   2.027   3.081   6.920
 5477SOL     OW17329   2.286   2.489   2.184
 5477SOL    HW117330   2.273   2.510   2.281
 5477SOL    HW217331   2.379   2.456   2.169
 5478SOL     OW17332   0.173   5.619   5.257
 5478SOL    HW117333   0.144   5.536   5.305
 5478SOL    HW217334   0.144   5.614   5.161
 5479SOL     OW17335   4.272   6.291   5.703
 5479SOL    HW117336   4.270   6.215   5.638
 5479SOL    HW217337   4.360   6.338   5.697
 5480SOL     OW17338   0.209   2.364   5.750
 5480SOL    HW117339   0.123   2.405   5.718
 5480SOL    HW217340   0.196   2.265   5.762
 5481SOL     OW17341   4.292   6.384   3.017
 5481SOL    HW117342   4.194   6.402   3.013
 5481SOL    HW217343   4.318   6.362   3.111
 5482SOL     OW17344   1.551   6.058   2.118
 5482SOL    HW117345   1.646   6.089   2.115
 5482SOL    HW217346   1.522   6.032   2.026
 5483SOL     OW17347   0.825   2.271   6.812
 5483SOL    HW117348   0.909   2.217   6.814
 5483SOL    HW217349   0.838   2.354   6.866
 5484SOL     OW17350   5.232   7.005   4.806
 5484SOL    HW117351   5.151   0.039   4.789
 5484SOL    HW217352   5.307   0.045   4.836
 5485SOL     OW17353   3.538   0.855   4.742
 5485SOL    HW117354   3.513   0.942   4.698
 5485SOL    HW217355   3.629   0.864   4.783
 5486SOL     OW17356   3.075   5.006   3.403
 5486SOL    HW117357   3.130   5.089   3.396
 5486SOL    HW217358   3.115   4.945   3.472
 5487SOL     OW17359   3.527   6.159   5.071
 5487SOL    HW117360   3.559   6.188   5.162
 5487SOL    HW217361   3.514   6.060   5.070
 5488SOL     OW17362   4.727   2.185   6.654
 5488SOL    HW117363   4.694   2.270   6.696
 5488SOL    HW217364   4.749   2.119   6.725
 5489SOL     OW17365   6.600   2.714   3.735
 5489SOL    HW117366   6.696   2.740   3.728
 5489SOL    HW217367   6.556   2.766   3.809
 5490SOL     OW17368   0.664   5.155   2.056
 5490SOL    HW117369   0.651   5.089   1.982
 5490SOL    HW217370   0.618   5.121   2.139
 5491SOL     OW17371   6.078   4.162   0.681
 5491SOL    HW117372   6.098   4.139   0.776
 5491SOL    HW217373   6.135   4.106   0.621
 5492SOL     OW17374   0.761   1.889   6.979
 5492SOL    HW117375   0.821   1.869   0.035
 5492SOL    HW217376   0.668   1.860   7.000
 5493SOL     OW17377   4.253   3.962   6.520
 5493SOL    HW117378   4.183   3.918   6.464
 5493SOL    HW217379   4.214   4.040   6.568
 5494SOL     OW17380   5.775   2.336   5.254
 5494SOL    HW117381   5.729   2.252   5.282
 5494SOL    HW217382   5.807   2.385   5.335
 5495SOL     OW17383   5.769   0.678   0.893
 5495SOL    HW117384   5.779   0.585   0.928
 5495SOL    HW217385   5.726   0.675   0.803
 5496SOL     OW17386   4.258   6.179   6.135
 5496SOL    HW117387   4.338   6.238   6.134
 5496SOL    HW217388   4.277   6.099   6.193
 5497SOL     OW17389   0.864   6.948   6.146
 5497SOL    HW117390   0.918   7.020   6.104
 5497SOL    HW217391   0.893   6.935   6.241
 5498SOL     OW17392   0.324   6.005   2.019
 5498SOL    HW117393   0.375   6.044   1.942
 5498SOL    HW217394   0.371   6.026   2.104
 5499SOL     OW17395   2.288   0.382   3.448
 5499SOL    HW117396   2.345   0.353   3.525
 5499SOL    HW217397   2.267   0.303   3.390
 5500SOL     OW17398   1.390   6.176   1.807
 5500SOL    HW117399   1.382   6.161   1.708
 5500SOL    HW217400   1.443   6.101   1.847
 5501SOL     OW17401   5.662   3.535   0.713
 5501SOL    HW117402   5.687   3.611   0.652
 5501SOL    HW217403   5.564   3.516   0.704
 5502SOL     OW17404   4.603   3.850   0.371
 5502SOL    HW117405   4.646   3.761   0.354
 5502SOL    HW217406   4.559   3.882   0.287
 5503SOL     OW17407   6.238   2.828   1.562
 5503SOL    HW117408   6.297   2.759   1.603
 5503SOL    HW217409   6.142   2.803   1.575
 5504SOL     OW17410   3.393   2.144   6.941
 5504SOL    HW117411   3.394   2.216   6.872
 5504SOL    HW217412   3.326   2.167   7.012
 5505SOL     OW17413   2.588   5.410   2.109
 5505SOL    HW117414   2.658   5.419   2.179
 5505SOL    HW217415   2.516   5.348   2.141
 5506SOL     OW17416   6.493   2.533   5.892
 5506SOL    HW117417   6.499   2.548   5.991
 5506SOL    HW217418   6.547   2.452   5.867
 5507SOL     OW17419   3.883   6.313   0.168
 5507SOL    HW117420   3.815   6.383   0.146
 5507SOL    HW217421   3.974   6.348   0.148
 5508SOL     OW17422   6.581   2.078   6.130
 5508SOL    HW117423   6.615   1.986   6.152
 5508SOL    HW217424   6.634   2.146   6.180
 5509SOL     OW17425   6.020   4.206   0.414
 5509SOL    HW117426   6.094   4.264   0.380
 5509SOL    HW217427   6.025   4.202   0.514
 5510SOL     OW17428   5.633   5.938   0.107
 5510SOL    HW117429   5.683   6.016   0.071
 5510SOL    HW217430   5.551   5.922   0.052
 5511SOL     OW17431   0.920   2.640   6.391
 5511SOL    HW117432   0.925   2.614   6.487
 5511SOL    HW217433   0.832   2.610   6.353
 5512SOL     OW17434   3.172   6.874   2.169
 5512SOL    HW117435   3.150   6.896   2.264
 5512SOL    HW217436   3.265   6.904   2.148
 5513SOL     OW17437   4.218   4.676   6.853
 5513SOL    HW117438   4.253   4.652   6.763
 5513SOL    HW217439   4.273   4.629   6.923
 5514SOL     OW17440   3.684   1.569   0.304
 5514SOL    HW117441   3.645   1.477   0.309
 5514SOL    HW217442   3.758   1.577   0.371
 5515SOL     OW17443   3.332   5.038   2.502
 5515SOL    HW117444   3.250   5.078   2.460
 5515SOL    HW217445   3.307   4.999   2.591
 5516SOL     OW17446   0.691   2.524   6.330
 5516SOL    HW117447   0.662   2.431   6.353
 5516SOL    HW217448   0.619   2.588   6.357
 5517SOL     OW17449   1.114   1.830   4.277
 5517SOL    HW117450   1.097   1.888   4.357
 5517SOL    HW217451   1.209   1.839   4.249
 5518SOL     OW17452   4.236   4.192   5.898
 5518SOL    HW117453   4.211   4.198   5.801
 5518SOL    HW217454   4.208   4.276   5.944
 5519SOL     OW17455   5.310   2.575   5.575
 5519SOL    HW117456   5.239   2.549   5.639
 5519SOL    HW217457   5.273   2.638   5.507
 5520SOL     OW17458   5.129   5.685   1.639
 5520SOL    HW117459   5.220   5.682   1.598
 5520SOL    HW217460   5.114   5.774   1.682
 5521SOL     OW17461   4.425   0.452   2.291
 5521SOL    HW117462   4.454   0.402   2.372
 5521SOL    HW217463   4.336   0.417   2.261
 5522SOL     OW17464   4.538   6.420   6.684
 5522SOL    HW117465   4.465   6.376   6.737
 5522SOL    HW217466   4.624   6.412   6.734
 5523SOL     OW17467   5.185   1.505   0.952
 5523SOL    HW117468   5.117   1.550   0.895
 5523SOL    HW217469   5.276   1.542   0.932
 5524SOL     OW17470   2.162   1.727   2.836
 5524SOL    HW117471   2.115   1.662   2.778
 5524SOL    HW217472   2.258   1.732   2.809
 5525SOL     OW17473   6.963   0.986   1.022
 5525SOL    HW117474   6.927   1.018   0.934
 5525SOL    HW217475   6.924   0.897   1.044
 5526SOL     OW17476   5.019   4.221   3.914
 5526SOL    HW117477   5.097   4.199   3.972
 5526SOL    HW217478   5.052   4.259   3.828
 5527SOL     OW17479   6.144   0.313   2.477
 5527SOL    HW117480   6.078   0.310   2.552
 5527SOL    HW217481   6.158   0.220   2.442
 5528SOL     OW17482   1.519   1.265   0.106
 5528SOL    HW117483   1.451   1.322   0.152
 5528SOL    HW217484   1.474   1.184   0.068
 5529SOL     OW17485   3.685   0.477   2.181
 5529SOL    HW117486   3.639   0.493   2.268
 5529SOL    HW217487   3.779   0.511   2.185
 5530SOL     OW17488   1.084   1.804   0.999
 5530SOL    HW117489   1.065   1.732   1.066
 5530SOL    HW217490   1.023   1.882   1.016
 5531SOL     OW17491   1.403   4.949   0.230
 5531SOL    HW117492   1.328   4.894   0.194
 5531SOL    HW217493   1.476   4.889   0.263
 5532SOL     OW17494   0.230   4.507   6.205
 5532SOL    HW117495   0.243   4.451   6.287
 5532SOL    HW217496   0.245   4.451   6.124
 5533SOL     OW17497   2.887   0.979   3.654
 5533SOL    HW117498   2.817   0.994   3.724
 5533SOL    HW217499   2.875   1.047   3.581
 5534SOL     OW17500   1.314   0.709   4.632
 5534SOL    HW117501   1.254   0.629   4.626
 5534SOL    HW217502   1.406   0.680   4.657
 5535SOL     OW17503   0.281   1.911   2.408
 5535SOL    HW117504   0.258   1.870   2.320
 5535SOL    HW217505   0.299   1.838   2.475
 5536SOL     OW17506   4.723   0.366   4.324
 5536SOL    HW117507   4.786   0.395   4.396
 5536SOL    HW217508   4.755   0.279   4.285
 5537SOL     OW17509   2.721   2.406   2.848
 5537SOL    HW117510   2.692   2.311   2.831
 5537SOL    HW217511   2.647   2.455   2.894
 5538SOL     OW17512   4.059   5.439   3.542
 5538SOL    HW117513   4.099   5.521   3.583
 5538SOL    HW217514   4.030   5.377   3.615
 5539SOL     OW17515   2.546   4.070   0.032
 5539SOL    HW117516   2.567   4.003   0.103
 5539SOL    HW217517   2.460   4.046   7.008
 5540SOL     OW17518   3.539   5.375   1.015
 5540SOL    HW117519   3.518   5.423   1.101
 5540SOL    HW217520   3.637   5.355   1.011
 5541SOL     OW17521   4.531   0.670   6.623
 5541SOL    HW117522   4.458   0.734   6.598
 5541SOL    HW217523   4.619   0.718   6.623
 5542SOL     OW17524   5.652   3.685   6.661
 5542SOL    HW117525   5.714   3.742   6.716
 5542SOL    HW217526   5.705   3.615   6.613
 5543SOL     OW17527   0.741   2.475   5.103
 5543SOL    HW117528   0.833   2.509   5.122
 5543SOL    HW217529   0.674   2.532   5.151
 5544SOL     OW17530   5.466   0.239   0.275
 5544SOL    HW117531   5.505   0.174   0.209
 5544SOL    HW217532   5.366   0.230   0.274
 5545SOL     OW17533   2.539   2.430   2.146
 5545SOL    HW117534   2.617   2.386   2.192
 5545SOL    HW217535   2.573   2.485   2.069
 5546SOL     OW17536   3.335   5.613   4.798
 5546SOL    HW117537   3.311   5.701   4.840
 5546SOL    HW217538   3.306   5.614   4.702
 5547SOL     OW17539   2.795   4.772   3.707
 5547SOL    HW117540   2.748   4.723   3.634
 5547SOL    HW217541   2.777   4.870   3.699
 5548SOL     OW17542   6.777   1.647   4.604
 5548SOL    HW117543   6.805   1.632   4.699
 5548SOL    HW217544   6.708   1.579   4.578
 5549SOL     OW17545   3.255   5.110   6.057
 5549SOL    HW117546   3.262   5.094   6.156
 5549SOL    HW217547   3.322   5.178   6.029
 5550SOL     OW17548   2.935   5.960   2.506
 5550SOL    HW117549   2.861   5.973   2.440
 5550SOL    HW217550   3.021   5.943   2.457
 5551SOL     OW17551   0.669   1.482   2.604
 5551SOL    HW117552   0.650   1.384   2.608
 5551SOL    HW217553   0.628   1.527   2.683
 5552SOL     OW17554   1.965   2.135   2.278
 5552SOL    HW117555   1.886   2.197   2.282
 5552SOL    HW217556   1.988   2.116   2.182
 5553SOL     OW17557   5.028   6.646   6.386
 5553SOL    HW117558   4.989   6.680   6.300
 5553SOL    HW217559   5.066   6.555   6.372
 5554SOL     OW17560   3.022   0.432   5.647
 5554SOL    HW117561   3.046   0.527   5.670
 5554SOL    HW217562   2.949   0.400   5.707
 5555SOL     OW17563   1.332   5.795   1.721
 5555SOL    HW117564   1.307   5.699   1.724
 5555SOL    HW217565   1.314   5.831   1.629
 5556SOL     OW17566   6.491   1.465   4.836
 5556SOL    HW117567   6.433   1.543   4.814
 5556SOL    HW217568   6.579   1.497   4.871
 5557SOL     OW17569   3.793   0.927   2.415
 5557SOL    HW117570   3.763   0.955   2.506
 5557SOL    HW217571   3.883   0.966   2.396
 5558SOL     OW17572   4.954   2.554   6.066
 5558SOL    HW117573   4.910   2.551   6.155
 5558SOL    HW217574   4.960   2.649   6.035
 5559SOL     OW17575   3.067   0.960   0.658
 5559SOL    HW117576   3.075   1.060   0.666
 5559SOL    HW217577   3.067   0.919   0.749
 5560SOL     OW17578   0.119   1.919   4.687
 5560SOL    HW117579   0.110   1.992   4.619
 5560SOL    HW217580   0.065   1.840   4.657
 5561SOL     OW17581   2.140   4.563   1.853
 5561SOL    HW117582   2.221   4.579   1.908
 5561SOL    HW217583   2.118   4.465   1.853
 5562SOL     OW17584   3.988   2.331   0.336
 5562SOL    HW117585   3.934   2.313   0.253
 5562SOL    HW217586   4.076   2.284   0.330
 5563SOL     OW17587   3.700   4.706   0.764
 5563SOL    HW117588   3.608   4.687   0.797
 5563SOL    HW217589   3.730   4.632   0.704
 5564SOL     OW17590   6.326   1.073   2.190
 5564SOL    HW117591   6.407   1.052   2.135
 5564SOL    HW217592   6.351   1.072   2.287
 5565SOL     OW17593   1.367   2.725   5.957
 5565SOL    HW117594   1.438   2.769   6.013
 5565SOL    HW217595   1.279   2.769   5.974
 5566SOL     OW17596   2.487   4.304   0.512
 5566SOL    HW117597   2.522   4.279   0.602
 5566SOL    HW217598   2.561   4.296   0.445
 5567SOL     OW17599   1.349   5.555   3.105
 5567SOL    HW117600   1.300   5.481   3.059
 5567SOL    HW217601   1.285   5.609   3.158
 5568SOL     OW17602   3.953   2.907   6.924
 5568SOL    HW117603   4.041   2.874   6.959
 5568SOL    HW217604   3.879   2.871   6.981
 5569SOL     OW17605   4.974   1.530   6.397
 5569SOL    HW117606   4.965   1.487   6.307
 5569SOL    HW217607   4.940   1.624   6.393
 5570SOL     OW17608   1.926   2.544   6.196
 5570SOL    HW117609   1.918   2.451   6.159
 5570SOL    HW217610   2.021   2.574   6.190
 5571SOL     OW17611   0.503   4.562   6.425
 5571SOL    HW117612   0.602   4.553   6.413
 5571SOL    HW217613   0.467   4.627   6.359
 5572SOL     OW17614   1.035   3.488   5.488
 5572SOL    HW117615   1.107   3.542   5.532
 5572SOL    HW217616   0.982   3.546   5.427
 5573SOL     OW17617   6.915   3.421   6.318
 5573SOL    HW117618   6.894   3.353   6.388
 5573SOL    HW217619   6.991   3.478   6.349
 5574SOL     OW17620   2.275   6.112   4.526
 5574SOL    HW117621   2.306   6.021   4.499
 5574SOL    HW217622   2.275   6.120   4.626
 5575SOL     OW17623   1.409   1.265   2.762
 5575SOL    HW117624   1.442   1.267   2.857
 5575SOL    HW217625   1.373   1.174   2.741
 5576SOL     OW17626   5.290   6.733   6.117
 5576SOL    HW117627   5.325   6.713   6.026
 5576SOL    HW217628   5.329   6.668   6.182
 5577SOL     OW17629   1.338   5.039   4.621
 5577SOL    HW117630   1.373   5.077   4.707
 5577SOL    HW217631   1.336   4.940   4.627
 5578SOL     OW17632   4.313   1.790   6.275
 5578SOL    HW117633   4.316   1.871   6.216
 5578SOL    HW217634   4.268   1.715   6.227
 5579SOL     OW17635   4.686   4.787   2.322
 5579SOL    HW117636   4.754   4.858   2.304
 5579SOL    HW217637   4.713   4.702   2.275
 5580SOL     OW17638   6.625   1.224   1.864
 5580SOL    HW117639   6.529   1.239   1.842
 5580SOL    HW217640   6.643   1.126   1.868
 5581SOL     OW17641   3.417   3.344   0.526
 5581SOL    HW117642   3.436   3.429   0.576
 5581SOL    HW217643   3.481   3.273   0.556
 5582SOL     OW17644   2.935   3.431   5.141
 5582SOL    HW117645   2.953   3.494   5.066
 5582SOL    HW217646   2.956   3.337   5.111
 5583SOL     OW17647   3.920   1.138   6.454
 5583SOL    HW117648   3.957   1.219   6.409
 5583SOL    HW217649   3.822   1.149   6.470
 5584SOL     OW17650   4.895   3.363   4.224
 5584SOL    HW117651   4.896   3.320   4.314
 5584SOL    HW217652   4.835   3.311   4.163
 5585SOL     OW17653   0.065   0.813   3.389
 5585SOL    HW117654   0.089   0.877   3.316
 5585SOL    HW217655   0.033   0.864   3.469
 5586SOL     OW17656   1.585   0.696   0.000
 5586SOL    HW117657   1.645   0.658   6.951
 5586SOL    HW217658   1.495   0.714   6.981
 5587SOL     OW17659   3.475   6.195   3.025
 5587SOL    HW117660   3.523   6.214   3.110
 5587SOL    HW217661   3.536   6.213   2.948
 5588SOL     OW17662   4.944   5.379   0.032
 5588SOL    HW117663   5.004   5.403   6.977
 5588SOL    HW217664   4.851   5.409   0.012
 5589SOL     OW17665   1.496   2.493   6.687
 5589SOL    HW117666   1.533   2.555   6.617
 5589SOL    HW217667   1.411   2.530   6.724
 5590SOL     OW17668   6.134   0.671   3.497
 5590SOL    HW117669   6.134   0.751   3.557
 5590SOL    HW217670   6.224   0.661   3.454
 5591SOL     OW17671   5.280   1.391   6.530
 5591SOL    HW117672   5.223   1.441   6.594
 5591SOL    HW217673   5.241   1.397   6.438
 5592SOL     OW17674   1.335   3.595   2.524
 5592SOL    HW117675   1.238   3.619   2.514
 5592SOL    HW217676   1.353   3.567   2.618
 5593SOL     OW17677   2.147   3.624   5.320
 5593SOL    HW117678   2.064   3.633   5.374
 5593SOL    HW217679   2.160   3.528   5.294
 5594SOL     OW17680   3.070   0.605   6.367
 5594SOL    HW117681   3.044   0.702   6.370
 5594SOL    HW217682   3.165   0.598   6.335
 5595SOL     OW17683   6.699   3.357   0.465
 5595SOL    HW117684   6.635   3.312   0.402
 5595SOL    HW217685   6.691   3.316   0.555
 5596SOL     OW17686   4.932   3.664   4.395
 5596SOL    HW117687   4.891   3.629   4.480
 5596SOL    HW217688   4.918   3.598   4.322
 5597SOL     OW17689   0.135   1.947   6.592
 5597SOL    HW117690   0.231   1.935   6.567
 5597SOL    HW217691   0.111   1.884   6.666
 5598SOL     OW17692   6.483   6.832   3.379
 5598SOL    HW117693   6.516   6.747   3.419
 5598SOL    HW217694   6.547   6.906   3.401
 5599SOL     OW17695   5.019   3.116   3.125
 5599SOL    HW117696   5.078   3.042   3.155
 5599SOL    HW217697   4.928   3.080   3.104
 5600SOL     OW17698   2.081   3.239   1.837
 5600SOL    HW117699   1.995   3.220   1.885
 5600SOL    HW217700   2.135   3.304   1.890
 5601SOL     OW17701   5.064   2.504   6.618
 5601SOL    HW117702   5.031   2.458   6.700
 5601SOL    HW217703   5.045   2.602   6.624
 5602SOL     OW17704   5.859   1.076   2.695
 5602SOL    HW117705   5.934   1.075   2.760
 5602SOL    HW217706   5.803   0.994   2.708
 5603SOL     OW17707   3.788   1.176   6.218
 5603SOL    HW117708   3.779   1.143   6.312
 5603SOL    HW217709   3.853   1.119   6.169
 5604SOL     OW17710   1.590   4.330   3.613
 5604SOL    HW117711   1.577   4.408   3.552
 5604SOL    HW217712   1.688   4.315   3.628
 5605SOL     OW17713   3.586   6.661   4.610
 5605SOL    HW117714   3.520   6.601   4.564
 5605SOL    HW217715   3.575   6.651   4.709
 5606SOL     OW17716   4.641   4.304   1.144
 5606SOL    HW117717   4.621   4.213   1.109
 5606SOL    HW217718   4.734   4.307   1.180
 5607SOL     OW17719   1.462   2.089   2.363
 5607SOL    HW117720   1.428   2.138   2.283
 5607SOL    HW217721   1.496   2.154   2.431
 5608SOL     OW17722   6.516   6.394   3.793
 5608SOL    HW117723   6.525   6.421   3.697
 5608SOL    HW217724   6.538   6.297   3.802
 5609SOL     OW17725   6.833   1.116   0.467
 5609SOL    HW117726   6.842   1.017   0.464
 5609SOL    HW217727   6.916   1.157   0.504
 5610SOL     OW17728   5.528   6.777   6.788
 5610SOL    HW117729   5.447   6.807   6.738
 5610SOL    HW217730   5.556   6.687   6.755
 5611SOL     OW17731   6.858   4.057   1.640
 5611SOL    HW117732   6.805   4.047   1.724
 5611SOL    HW217733   6.911   3.974   1.623
 5612SOL     OW17734   5.279   1.933   1.396
 5612SOL    HW117735   5.335   1.889   1.326
 5612SOL    HW217736   5.334   1.951   1.477
 5613SOL     OW17737   6.714   5.170   5.503
 5613SOL    HW117738   6.773   5.181   5.423
 5613SOL    HW217739   6.770   5.150   5.583
 5614SOL     OW17740   5.576   2.714   4.355
 5614SOL    HW117741   5.594   2.736   4.259
 5614SOL    HW217742   5.650   2.750   4.412
 5615SOL     OW17743   0.790   3.182   2.502
 5615SOL    HW117744   0.855   3.199   2.428
 5615SOL    HW217745   0.720   3.253   2.501
 5616SOL     OW17746   1.768   3.099   1.491
 5616SOL    HW117747   1.678   3.072   1.525
 5616SOL    HW217748   1.824   3.018   1.475
 5617SOL     OW17749   0.304   5.238   4.801
 5617SOL    HW117750   0.230   5.172   4.813
 5617SOL    HW217751   0.343   5.227   4.709
 5618SOL     OW17752   5.073   1.157   3.022
 5618SOL    HW117753   4.992   1.215   3.009
 5618SOL    HW217754   5.053   1.088   3.092
 5619SOL     OW17755   4.009   3.972   4.493
 5619SOL    HW117756   4.078   3.975   4.566
 5619SOL    HW217757   3.986   3.877   4.474
 5620SOL     OW17758   4.611   4.523   5.580
 5620SOL    HW117759   4.605   4.480   5.671
 5620SOL    HW217760   4.632   4.453   5.512
 5621SOL     OW17761   1.011   3.372   0.088
 5621SOL    HW117762   0.999   3.279   0.124
 5621SOL    HW217763   1.107   3.385   0.062
 5622SOL     OW17764   5.551   5.791   3.316
 5622SOL    HW117765   5.457   5.767   3.340
 5622SOL    HW217766   5.552   5.876   3.264
 5623SOL     OW17767   4.472   4.828   3.539
 5623SOL    HW117768   4.517   4.796   3.622
 5623SOL    HW217769   4.396   4.889   3.564
 5624SOL     OW17770   4.776   4.090   3.863
 5624SOL    HW117771   4.860   4.128   3.901
 5624SOL    HW217772   4.718   4.056   3.937
 5625SOL     OW17773   4.041   7.007   6.401
 5625SOL    HW117774   3.986   0.005   6.320
 5625SOL    HW217775   3.993   6.944   6.461
 5626SOL     OW17776   1.925   4.386   5.912
 5626SOL    HW117777   1.942   4.292   5.944
 5626SOL    HW217778   2.009   4.424   5.874
 5627SOL     OW17779   0.814   5.614   0.916
 5627SOL    HW117780   0.751   5.691   0.912
 5627SOL    HW217781   0.879   5.620   0.840
 5628SOL     OW17782   0.973   2.498   6.982
 5628SOL    HW117783   1.046   2.562   6.960
 5628SOL    HW217784   0.989   2.460   0.053
 5629SOL     OW17785   0.660   3.435   4.700
 5629SOL    HW117786   0.671   3.365   4.629
 5629SOL    HW217787   0.587   3.409   4.763
 5630SOL     OW17788   1.112   4.697   6.587
 5630SOL    HW117789   1.069   4.693   6.677
 5630SOL    HW217790   1.128   4.604   6.554
 5631SOL     OW17791   3.155   0.889   3.613
 5631SOL    HW117792   3.067   0.936   3.612
 5631SOL    HW217793   3.144   0.797   3.574
 5632SOL     OW17794   3.203   6.551   6.153
 5632SOL    HW117795   3.172   6.642   6.125
 5632SOL    HW217796   3.281   6.524   6.097
 5633SOL     OW17797   2.186   5.768   4.942
 5633SOL    HW117798   2.233   5.761   4.854
 5633SOL    HW217799   2.226   5.703   5.007
 5634SOL     OW17800   2.580   0.159   1.384
 5634SOL    HW117801   2.541   0.187   1.471
 5634SOL    HW217802   2.512   0.171   1.312
 5635SOL     OW17803   4.252   1.306   2.292
 5635SOL    HW117804   4.251   1.402   2.262
 5635SOL    HW217805   4.186   1.294   2.366
 5636SOL     OW17806   5.128   0.472   4.098
 5636SOL    HW117807   5.069   0.538   4.144
 5636SOL    HW217808   5.088   0.381   4.104
 5637SOL     OW17809   5.940   6.797   5.582
 5637SOL    HW117810   5.891   6.849   5.511
 5637SOL    HW217811   5.997   6.860   5.635
 5638SOL     OW17812   1.296   5.836   0.021
 5638SOL    HW117813   1.206   5.793   0.011
 5638SOL    HW217814   1.309   5.904   6.970
 5639SOL     OW17815   3.340   6.744   1.563
 5639SOL    HW117816   3.435   6.717   1.580
 5639SOL    HW217817   3.279   6.691   1.623
 5640SOL     OW17818   4.384   6.802   4.110
 5640SOL    HW117819   4.467   6.858   4.112
 5640SOL    HW217820   4.375   6.751   4.196
 5641SOL     OW17821   6.390   5.005   3.662
 5641SOL    HW117822   6.459   5.040   3.725
 5641SOL    HW217823   6.392   4.905   3.664
 5642SOL     OW17824   2.222   1.914   6.346
 5642SOL    HW117825   2.297   1.971   6.377
 5642SOL    HW217826   2.146   1.971   6.315
 5643SOL     OW17827   5.178   2.766   3.445
 5643SOL    HW117828   5.169   2.695   3.515
 5643SOL    HW217829   5.274   2.772   3.416
 5644SOL     OW17830   3.117   0.940   5.959
 5644SOL    HW117831   3.199   0.939   6.016
 5644SOL    HW217832   3.144   0.928   5.863
 5645SOL     OW17833   6.601   6.201   4.327
 5645SOL    HW117834   6.670   6.152   4.380
 5645SOL    HW217835   6.597   6.297   4.356
 5646SOL     OW17836   6.436   1.050   2.449
 5646SOL    HW117837   6.517   0.992   2.453
 5646SOL    HW217838   6.406   1.072   2.542
 5647SOL     OW17839   5.665   3.416   6.218
 5647SOL    HW117840   5.568   3.389   6.215
 5647SOL    HW217841   5.674   3.512   6.193
 5648SOL     OW17842   1.555   1.531   3.466
 5648SOL    HW117843   1.641   1.513   3.513
 5648SOL    HW217844   1.553   1.625   3.434
 5649SOL     OW17845   6.738   0.655   4.506
 5649SOL    HW117846   6.678   0.709   4.448
 5649SOL    HW217847   6.711   0.663   4.601
 5650SOL     OW17848   6.274   4.737   5.729
 5650SOL    HW117849   6.310   4.698   5.814
 5650SOL    HW217850   6.180   4.706   5.714
 5651SOL     OW17851   5.799   0.476   3.131
 5651SOL    HW117852   5.896   0.487   3.153
 5651SOL    HW217853   5.746   0.550   3.172
 5652SOL     OW17854   4.356   4.311   6.643
 5652SOL    HW117855   4.279   4.251   6.623
 5652SOL    HW217856   4.335   4.404   6.614
 5653SOL     OW17857   2.168   6.405   6.578
 5653SOL    HW117858   2.132   6.483   6.526
 5653SOL    HW217859   2.138   6.412   6.674
 5654SOL     OW17860   2.565   6.971   0.235
 5654SOL    HW117861   2.624   0.003   0.297
 5654SOL    HW217862   2.609   6.883   0.215
 5655SOL     OW17863   6.420   5.854   2.371
 5655SOL    HW117864   6.443   5.760   2.395
 5655SOL    HW217865   6.435   5.914   2.450
 5656SOL     OW17866   3.274   5.122   6.337
 5656SOL    HW117867   3.372   5.135   6.347
 5656SOL    HW217868   3.252   5.025   6.339
 5657SOL     OW17869   5.084   5.506   2.107
 5657SOL    HW117870   5.065   5.483   2.011
 5657SOL    HW217871   5.179   5.536   2.116
 5658SOL     OW17872   4.826   6.376   6.077
 5658SOL    HW117873   4.816   6.302   6.010
 5658SOL    HW217874   4.923   6.390   6.096
 5659SOL     OW17875   2.860   3.458   2.314
 5659SOL    HW117876   2.867   3.456   2.214
 5659SOL    HW217877   2.765   3.478   2.340
 5660SOL     OW17878   0.139   5.478   1.857
 5660SOL    HW117879   0.236   5.482   1.880
 5660SOL    HW217880   0.128   5.446   1.763
 5661SOL     OW17881   6.166   5.638   4.397
 5661SOL    HW117882   6.075   5.678   4.390
 5661SOL    HW217883   6.171   5.555   4.341
 5662SOL     OW17884   1.571   3.859   4.643
 5662SOL    HW117885   1.551   3.783   4.706
 5662SOL    HW217886   1.558   3.828   4.549
 5663SOL     OW17887   2.424   3.887   0.301
 5663SOL    HW117888   2.446   3.791   0.287
 5663SOL    HW217889   2.502   3.933   0.343
 5664SOL     OW17890   6.440   6.880   1.496
 5664SOL    HW117891   6.523   6.914   1.540
 5664SOL    HW217892   6.461   6.794   1.449
 5665SOL     OW17893   1.688   0.540   5.795
 5665SOL    HW117894   1.740   0.508   5.715
 5665SOL    HW217895   1.677   0.639   5.791
 5666SOL     OW17896   5.064   6.443   6.744
 5666SOL    HW117897   5.075   6.470   6.840
 5666SOL    HW217898   5.134   6.376   6.721
 5667SOL     OW17899   5.191   4.373   3.137
 5667SOL    HW117900   5.165   4.466   3.113
 5667SOL    HW217901   5.224   4.325   3.056
 5668SOL     OW17902   6.256   2.408   6.643
 5668SOL    HW117903   6.197   2.451   6.575
 5668SOL    HW217904   6.221   2.426   6.735
 5669SOL     OW17905   0.364   2.111   5.101
 5669SOL    HW117906   0.367   2.204   5.138
 5669SOL    HW217907   0.392   2.112   5.005
 5670SOL     OW17908   1.534   3.162   1.818
 5670SOL    HW117909   1.586   3.092   1.865
 5670SOL    HW217910   1.510   3.130   1.726
 5671SOL     OW17911   0.913   0.573   5.737
 5671SOL    HW117912   0.823   0.529   5.740
 5671SOL    HW217913   0.954   0.557   5.647
 5672SOL     OW17914   4.324   4.517   5.818
 5672SOL    HW117915   4.367   4.533   5.729
 5672SOL    HW217916   4.229   4.548   5.816
 5673SOL     OW17917   2.181   6.551   1.529
 5673SOL    HW117918   2.258   6.533   1.591
 5673SOL    HW217919   2.109   6.600   1.578
 5674SOL     OW17920   0.683   2.869   0.772
 5674SOL    HW117921   0.626   2.940   0.812
 5674SOL    HW217922   0.736   2.907   0.696
 5675SOL     OW17923   4.190   1.197   5.370
 5675SOL    HW117924   4.153   1.201   5.277
 5675SOL    HW217925   4.128   1.145   5.429
 5676SOL     OW17926   2.223   6.404   2.315
 5676SOL    HW117927   2.221   6.325   2.377
 5676SOL    HW217928   2.229   6.488   2.368
 5677SOL     OW17929   5.953   0.139   2.856
 5677SOL    HW117930   5.953   0.040   2.842
 5677SOL    HW217931   5.865   0.167   2.896
 5678SOL     OW17932   1.635   5.328   2.708
 5678SOL    HW117933   1.664   5.422   2.692
 5678SOL    HW217934   1.538   5.327   2.732
 5679SOL     OW17935   3.610   5.877   5.675
 5679SOL    HW117936   3.709   5.870   5.674
 5679SOL    HW217937   3.583   5.973   5.683
 5680SOL     OW17938   1.685   0.175   6.457
 5680SOL    HW117939   1.670   0.124   6.542
 5680SOL    HW217940   1.618   0.249   6.450
 5681SOL     OW17941   3.135   3.454   0.400
 5681SOL    HW117942   3.224   3.461   0.354
 5681SOL    HW217943   3.133   3.518   0.477
 5682SOL     OW17944   2.182   3.642   4.483
 5682SOL    HW117945   2.220   3.717   4.430
 5682SOL    HW217946   2.177   3.669   4.580
 5683SOL     OW17947   3.411   3.740   5.014
 5683SOL    HW117948   3.409   3.813   4.947
 5683SOL    HW217949   3.500   3.694   5.011
 5684SOL     OW17950   3.416   4.143   3.106
 5684SOL    HW117951   3.451   4.178   3.193
 5684SOL    HW217952   3.484   4.082   3.065
 5685SOL     OW17953   0.453   0.181   1.621
 5685SOL    HW117954   0.391   0.186   1.699
 5685SOL    HW217955   0.405   0.211   1.538
 5686SOL     OW17956   3.298   4.823   6.371
 5686SOL    HW117957   3.236   4.792   6.443
 5686SOL    HW217958   3.274   4.778   6.285
 5687SOL     OW17959   4.446   6.057   6.434
 5687SOL    HW117960   4.383   6.041   6.510
 5687SOL    HW217961   4.472   6.154   6.433
 5688SOL     OW17962   5.172   1.748   2.565
 5688SOL    HW117963   5.253   1.749   2.506
 5688SOL    HW217964   5.159   1.655   2.601
 5689SOL     OW17965   3.763   3.113   5.015
 5689SOL    HW117966   3.665   3.129   5.025
 5689SOL    HW217967   3.807   3.121   5.104
 5690SOL     OW17968   3.988   0.418   3.076
 5690SOL    HW117969   3.977   0.336   3.021
 5690SOL    HW217970   3.994   0.394   3.173
 5691SOL     OW17971   3.504   0.598   4.613
 5691SOL    HW117972   3.447   0.536   4.667
 5691SOL    HW217973   3.502   0.689   4.654
 5692SOL     OW17974   6.171   2.820   0.436
 5692SOL    HW117975   6.101   2.792   0.370
 5692SOL    HW217976   6.260   2.823   0.390
 5693SOL     OW17977   5.326   3.273   1.867
 5693SOL    HW117978   5.311   3.355   1.922
 5693SOL    HW217979   5.357   3.300   1.776
 5694SOL     OW17980   1.802   2.094   4.898
 5694SOL    HW117981   1.712   2.126   4.867
 5694SOL    HW217982   1.863   2.086   4.819
 5695SOL     OW17983   2.075   3.364   3.505
 5695SOL    HW117984   1.977   3.383   3.499
 5695SOL    HW217985   2.096   3.323   3.594
 5696SOL     OW17986   3.523   1.378   6.871
 5696SOL    HW117987   3.452   1.364   6.940
 5696SOL    HW217988   3.497   1.331   6.786
 5697SOL     OW17989   6.665   3.897   0.368
 5697SOL    HW117990   6.639   3.823   0.430
 5697SOL    HW217991   6.754   3.877   0.327
 5698SOL     OW17992   1.787   4.518   4.251
 5698SOL    HW117993   1.790   4.504   4.350
 5698SOL    HW217994   1.719   4.456   4.211
 5699SOL     OW17995   1.198   2.690   5.038
 5699SOL    HW117996   1.273   2.714   5.100
 5699SOL    HW217997   1.116   2.741   5.064
 5700SOL     OW17998   1.330   5.125   4.246
 5700SOL    HW117999   1.347   5.159   4.153
 5700SOL    HW218000   1.331   5.202   4.310
 5701SOL     OW18001   4.725   2.347   2.455
 5701SOL    HW118002   4.637   2.311   2.485
 5701SOL    HW218003   4.718   2.446   2.441
 5702SOL     OW18004   3.898   0.546   6.831
 5702SOL    HW118005   3.905   0.594   6.918
 5702SOL    HW218006   3.968   0.474   6.827
 5703SOL     OW18007   5.181   4.185   2.708
 5703SOL    HW118008   5.108   4.251   2.690
 5703SOL    HW218009   5.221   4.156   2.621
 5704SOL     OW18010   5.155   4.006   3.526
 5704SOL    HW118011   5.230   4.063   3.559
 5704SOL    HW218012   5.126   4.037   3.436
 5705SOL     OW18013   7.012   0.956   3.633
 5705SOL    HW118014   0.076   0.992   3.672
 5705SOL    HW218015   6.945   0.942   3.705
 5706SOL     OW18016   2.155   1.357   6.054
 5706SOL    HW118017   2.225   1.378   6.123
 5706SOL    HW218018   2.200   1.341   5.966
 5707SOL     OW18019   4.099   1.103   0.976
 5707SOL    HW118020   4.051   1.118   0.890
 5707SOL    HW218021   4.103   1.188   1.028
 5708SOL     OW18022   0.956   6.894   0.548
 5708SOL    HW118023   0.871   6.887   0.497
 5708SOL    HW218024   1.034   6.884   0.486
 5709SOL     OW18025   0.452   2.695   0.797
 5709SOL    HW118026   0.389   2.772   0.803
 5709SOL    HW218027   0.546   2.727   0.804
 5710SOL     OW18028   3.549   5.080   6.789
 5710SOL    HW118029   3.607   5.150   6.831
 5710SOL    HW218030   3.600   5.033   6.717
 5711SOL     OW18031   4.622   1.680   4.810
 5711SOL    HW118032   4.694   1.649   4.872
 5711SOL    HW218033   4.587   1.768   4.841
 5712SOL     OW18034   5.341   6.720   6.603
 5712SOL    HW118035   5.336   6.788   6.530
 5712SOL    HW218036   5.273   6.649   6.587
 5713SOL     OW18037   0.201   4.051   2.776
 5713SOL    HW118038   0.184   3.959   2.742
 5713SOL    HW218039   0.257   4.047   2.858
 5714SOL     OW18040   2.279   0.805   1.119
 5714SOL    HW118041   2.332   0.766   1.044
 5714SOL    HW218042   2.190   0.759   1.124
 5715SOL     OW18043   0.419   6.072   3.487
 5715SOL    HW118044   0.385   6.078   3.393
 5715SOL    HW218045   0.518   6.081   3.488
 5716SOL     OW18046   1.750   2.415   5.338
 5716SOL    HW118047   1.829   2.465   5.305
 5716SOL    HW218048   1.756   2.319   5.312
 5717SOL     OW18049   0.803   3.535   5.894
 5717SOL    HW118050   0.854   3.548   5.979
 5717SOL    HW218051   0.854   3.473   5.834
 5718SOL     OW18052   3.221   5.885   5.879
 5718SOL    HW118053   3.273   5.847   5.956
 5718SOL    HW218054   3.204   5.982   5.895
 5719SOL     OW18055   2.513   1.014   6.833
 5719SOL    HW118056   2.554   1.103   6.852
 5719SOL    HW218057   2.438   1.025   6.767
 5720SOL     OW18058   2.496   5.977   4.096
 5720SOL    HW118059   2.551   5.950   4.174
 5720SOL    HW218060   2.543   5.951   4.011
 5721SOL     OW18061   6.352   5.052   6.620
 5721SOL    HW118062   6.352   5.152   6.623
 5721SOL    HW218063   6.274   5.020   6.565
 5722SOL     OW18064   5.236   1.125   4.613
 5722SOL    HW118065   5.313   1.189   4.606
 5722SOL    HW218066   5.235   1.065   4.534
 5723SOL     OW18067   6.724   4.752   1.087
 5723SOL    HW118068   6.731   4.672   1.148
 5723SOL    HW218069   6.637   4.798   1.103
 5724SOL     OW18070   4.771   2.838   6.126
 5724SOL    HW118071   4.871   2.838   6.129
 5724SOL    HW218072   4.736   2.792   6.208
 5725SOL     OW18073   5.979   6.517   5.463
 5725SOL    HW118074   5.925   6.600   5.474
 5725SOL    HW218075   6.071   6.541   5.432
 5726SOL     OW18076   3.855   5.002   5.441
 5726SOL    HW118077   3.830   4.932   5.509
 5726SOL    HW218078   3.781   5.011   5.374
 5727SOL     OW18079   5.874   2.115   3.887
 5727SOL    HW118080   5.787   2.131   3.841
 5727SOL    HW218081   5.948   2.157   3.833
 5728SOL     OW18082   3.756   1.154   5.364
 5728SOL    HW118083   3.793   1.190   5.450
 5728SOL    HW218084   3.738   1.229   5.301
 5729SOL     OW18085   2.605   2.339   4.057
 5729SOL    HW118086   2.646   2.271   3.996
 5729SOL    HW218087   2.672   2.366   4.126
 5730SOL     OW18088   4.139   4.688   0.527
 5730SOL    HW118089   4.229   4.649   0.505
 5730SOL    HW218090   4.129   4.694   0.627
 5731SOL     OW18091   4.618   1.188   5.340
 5731SOL    HW118092   4.550   1.167   5.270
 5731SOL    HW218093   4.575   1.240   5.414
 5732SOL     OW18094   6.718   4.135   4.179
 5732SOL    HW118095   6.619   4.133   4.164
 5732SOL    HW218096   6.761   4.057   4.134
 5733SOL     OW18097   2.203   6.717   1.274
 5733SOL    HW118098   2.209   6.662   1.357
 5733SOL    HW218099   2.212   6.814   1.298
 5734SOL     OW18100   1.964   0.209   5.413
 5734SOL    HW118101   1.971   0.222   5.314
 5734SOL    HW218102   2.029   0.139   5.442
 5735SOL     OW18103   5.218   1.337   0.632
 5735SOL    HW118104   5.173   1.308   0.548
 5735SOL    HW218105   5.301   1.388   0.610
 5736SOL     OW18106   4.640   3.298   6.776
 5736SOL    HW118107   4.695   3.347   6.707
 5736SOL    HW218108   4.701   3.256   6.843
 5737SOL     OW18109   5.158   5.739   2.587
 5737SOL    HW118110   5.121   5.748   2.680
 5737SOL    HW218111   5.095   5.782   2.522
 5738SOL     OW18112   3.443   1.643   0.966
 5738SOL    HW118113   3.387   1.725   0.955
 5738SOL    HW218114   3.532   1.668   1.004
 5739SOL     OW18115   2.273   1.254   5.810
 5739SOL    HW118116   2.368   1.283   5.821
 5739SOL    HW218117   2.255   1.232   5.714
 5740SOL     OW18118   4.888   2.911   2.727
 5740SOL    HW118119   4.900   2.846   2.801
 5740SOL    HW218120   4.856   2.998   2.764
 5741SOL     OW18121   1.678   3.374   4.046
 5741SOL    HW118122   1.705   3.413   4.135
 5741SOL    HW218123   1.661   3.448   3.981
 5742SOL     OW18124   6.118   5.013   2.281
 5742SOL    HW118125   6.185   4.954   2.236
 5742SOL    HW218126   6.129   5.107   2.247
 5743SOL     OW18127   3.822   6.670   6.620
 5743SOL    HW118128   3.907   6.618   6.625
 5743SOL    HW218129   3.744   6.610   6.637
 5744SOL     OW18130   5.282   5.785   3.382
 5744SOL    HW118131   5.258   5.722   3.456
 5744SOL    HW218132   5.238   5.873   3.398
 5745SOL     OW18133   1.011   3.203   1.943
 5745SOL    HW118134   1.095   3.211   1.890
 5745SOL    HW218135   0.948   3.277   1.918
 5746SOL     OW18136   5.465   1.018   3.492
 5746SOL    HW118137   5.455   0.923   3.520
 5746SOL    HW218138   5.489   1.074   3.572
 5747SOL     OW18139   1.378   6.564   2.093
 5747SOL    HW118140   1.452   6.534   2.033
 5747SOL    HW218141   1.290   6.535   2.055
 5748SOL     OW18142   6.354   6.576   0.078
 5748SOL    HW118143   6.452   6.571   0.097
 5748SOL    HW218144   6.314   6.654   0.127
 5749SOL     OW18145   2.054   6.623   6.463
 5749SOL    HW118146   2.121   6.672   6.407
 5749SOL    HW218147   1.962   6.652   6.438
 5750SOL     OW18148   6.342   2.289   4.061
 5750SOL    HW118149   6.340   2.334   4.151
 5750SOL    HW218150   6.270   2.326   4.003
 5751SOL     OW18151   0.276   3.939   3.759
 5751SOL    HW118152   0.231   3.875   3.697
 5751SOL    HW218153   0.241   3.928   3.851
 5752SOL     OW18154   5.684   1.468   6.625
 5752SOL    HW118155   5.720   1.404   6.693
 5752SOL    HW218156   5.589   1.491   6.648
 5753SOL     OW18157   3.548   3.308   4.313
 5753SOL    HW118158   3.521   3.393   4.269
 5753SOL    HW218159   3.644   3.290   4.296
 5754SOL     OW18160   6.314   0.104   0.869
 5754SOL    HW118161   6.346   0.181   0.815
 5754SOL    HW218162   6.255   0.137   0.943
 5755SOL     OW18163   0.574   3.549   6.578
 5755SOL    HW118164   0.483   3.588   6.592
 5755SOL    HW218165   0.610   3.514   6.665
 5756SOL     OW18166   6.055   6.497   1.840
 5756SOL    HW118167   6.129   6.431   1.851
 5756SOL    HW218168   5.976   6.453   1.798
 5757SOL     OW18169   1.380   1.975   3.448
 5757SOL    HW118170   1.325   2.019   3.377
 5757SOL    HW218171   1.363   1.877   3.448
 5758SOL     OW18172   5.905   6.800   3.064
 5758SOL    HW118173   5.913   6.846   3.152
 5758SOL    HW218174   5.910   6.701   3.078
 5759SOL     OW18175   2.337   6.298   2.726
 5759SOL    HW118176   2.304   6.385   2.688
 5759SOL    HW218177   2.373   6.314   2.818
 5760SOL     OW18178   0.588   1.982   0.236
 5760SOL    HW118179   0.555   2.077   0.239
 5760SOL    HW218180   0.538   1.932   0.165
 5761SOL     OW18181   6.241   6.905   5.525
 5761SOL    HW118182   6.341   6.911   5.532
 5761SOL    HW218183   6.201   6.932   5.612
 5762SOL     OW18184   0.896   6.094   5.532
 5762SOL    HW118185   0.875   6.070   5.627
 5762SOL    HW218186   0.835   6.042   5.471
 5763SOL     OW18187   4.979   0.642   0.094
 5763SOL    HW118188   4.947   0.682   0.008
 5763SOL    HW218189   4.912   0.577   0.129
 5764SOL     OW18190   3.532   6.541   4.246
 5764SOL    HW118191   3.574   6.621   4.203
 5764SOL    HW218192   3.435   6.536   4.220
 5765SOL     OW18193   6.960   6.690   2.516
 5765SOL    HW118194   0.009   6.619   2.509
 5765SOL    HW218195   6.964   6.731   2.608
 5766SOL     OW18196   0.678   0.845   4.701
 5766SOL    HW118197   0.758   0.874   4.648
 5766SOL    HW218198   0.709   0.797   4.783
 5767SOL     OW18199   6.288   6.503   0.462
 5767SOL    HW118200   6.293   6.421   0.405
 5767SOL    HW218201   6.358   6.498   0.533
 5768SOL     OW18202   0.953   0.584   4.739
 5768SOL    HW118203   0.967   0.679   4.766
 5768SOL    HW218204   0.977   0.524   4.816
 5769SOL     OW18205   1.333   2.456   6.034
 5769SOL    HW118206   1.406   2.400   5.996
 5769SOL    HW218207   1.337   2.547   5.993
 5770SOL     OW18208   1.178   3.909   2.486
 5770SOL    HW118209   1.211   3.966   2.562
 5770SOL    HW218210   1.155   3.818   2.521
 5771SOL     OW18211   2.405   6.317   2.982
 5771SOL    HW118212   2.390   6.414   3.002
 5771SOL    HW218213   2.503   6.298   2.980
 5772SOL     OW18214   2.498   0.578   3.296
 5772SOL    HW118215   2.467   0.599   3.389
 5772SOL    HW218216   2.420   0.549   3.240
 5773SOL     OW18217   5.797   0.522   4.530
 5773SOL    HW118218   5.792   0.432   4.486
 5773SOL    HW218219   5.810   0.511   4.629
 5774SOL     OW18220   0.965   5.907   3.427
 5774SOL    HW118221   1.007   5.918   3.517
 5774SOL    HW218222   0.960   5.996   3.382
 5775SOL     OW18223   5.171   4.699   2.680
 5775SOL    HW118224   5.200   4.739   2.767
 5775SOL    HW218225   5.071   4.699   2.676
 5776SOL     OW18226   3.544   0.754   3.968
 5776SOL    HW118227   3.630   0.803   3.951
 5776SOL    HW218228   3.503   0.728   3.881
 5777SOL     OW18229   0.772   0.800   1.905
 5777SOL    HW118230   0.678   0.815   1.937
 5777SOL    HW218231   0.771   0.762   1.813
 5778SOL     OW18232   0.153   0.890   0.228
 5778SOL    HW118233   0.211   0.932   0.297
 5778SOL    HW218234   0.183   0.919   0.137
 5779SOL     OW18235   5.628   1.514   0.318
 5779SOL    HW118236   5.683   1.595   0.295
 5779SOL    HW218237   5.609   1.463   0.234
 5780SOL     OW18238   5.190   4.992   4.508
 5780SOL    HW118239   5.133   4.976   4.427
 5780SOL    HW218240   5.208   5.090   4.517
 5781SOL     OW18241   1.334   6.189   6.008
 5781SOL    HW118242   1.287   6.245   6.075
 5781SOL    HW218243   1.321   6.227   5.916
 5782SOL     OW18244   6.180   0.782   1.262
 5782SOL    HW118245   6.154   0.876   1.243
 5782SOL    HW218246   6.280   0.776   1.269
 5783SOL     OW18247   2.468   2.509   6.481
 5783SOL    HW118248   2.439   2.605   6.487
 5783SOL    HW218249   2.482   2.484   6.386
 5784SOL     OW18250   6.786   6.356   0.637
 5784SOL    HW118251   6.793   6.404   0.550
 5784SOL    HW218252   6.805   6.419   0.712
 5785SOL     OW18253   1.760   1.501   1.918
 5785SOL    HW118254   1.796   1.580   1.967
 5785SOL    HW218255   1.821   1.479   1.841
 5786SOL     OW18256   6.278   5.686   2.056
 5786SOL    HW118257   6.239   5.653   1.970
 5786SOL    HW218258   6.236   5.638   2.133
 5787SOL     OW18259   1.828   3.222   6.693
 5787SOL    HW118260   1.862   3.198   6.602
 5787SOL    HW218261   1.904   3.224   6.758
 5788SOL     OW18262   3.242   0.317   3.283
 5788SOL    HW118263   3.333   0.341   3.316
 5788SOL    HW218264   3.185   0.289   3.360
 5789SOL     OW18265   2.946   4.662   6.140
 5789SOL    HW118266   2.964   4.759   6.127
 5789SOL    HW218267   2.937   4.642   6.238
 5790SOL     OW18268   1.647   3.761   4.006
 5790SOL    HW118269   1.617   3.819   4.081
 5790SOL    HW218270   1.712   3.810   3.948
 5791SOL     OW18271   1.239   0.960   3.530
 5791SOL    HW118272   1.180   1.037   3.506
 5791SOL    HW218273   1.274   0.918   3.446
 5792SOL     OW18274   0.509   2.441   3.192
 5792SOL    HW118275   0.551   2.411   3.278
 5792SOL    HW218276   0.548   2.390   3.116
 5793SOL     OW18277   6.077   1.202   5.448
 5793SOL    HW118278   6.138   1.125   5.428
 5793SOL    HW218279   6.022   1.221   5.367
 5794SOL     OW18280   7.016   3.784   6.457
 5794SOL    HW118281   6.938   3.765   6.517
 5794SOL    HW218282   6.995   3.753   6.364
 5795SOL     OW18283   6.821   4.619   6.475
 5795SOL    HW118284   6.767   4.649   6.553
 5795SOL    HW218285   6.766   4.623   6.392
 5796SOL     OW18286   2.553   2.142   0.776
 5796SOL    HW118287   2.638   2.090   0.764
 5796SOL    HW218288   2.484   2.085   0.820
 5797SOL     OW18289   3.139   3.197   5.401
 5797SOL    HW118290   3.235   3.177   5.382
 5797SOL    HW218291   3.124   3.296   5.391
 5798SOL     OW18292   6.729   4.902   4.071
 5798SOL    HW118293   6.787   4.923   3.992
 5798SOL    HW218294   6.695   4.988   4.110
 5799SOL     OW18295   5.507   0.369   4.011
 5799SOL    HW118296   5.573   0.308   4.055
 5799SOL    HW218297   5.550   0.413   3.932
 5800SOL     OW18298   5.658   6.491   6.695
 5800SOL    HW118299   5.653   6.412   6.756
 5800SOL    HW218300   5.744   6.540   6.711
 5801SOL     OW18301   1.474   1.345   1.918
 5801SOL    HW118302   1.454   1.339   2.015
 5801SOL    HW218303   1.560   1.395   1.904
 5802SOL     OW18304   0.101   2.508   4.428
 5802SOL    HW118305   0.120   2.581   4.363
 5802SOL    HW218306   0.005   2.513   4.457
 5803SOL     OW18307   1.406   5.352   1.180
 5803SOL    HW118308   1.454   5.375   1.265
 5803SOL    HW218309   1.407   5.432   1.119
 5804SOL     OW18310   0.273   3.194   6.109
 5804SOL    HW118311   0.261   3.095   6.117
 5804SOL    HW218312   0.301   3.217   6.016
 5805SOL     OW18313   5.043   3.424   6.847
 5805SOL    HW118314   4.963   3.477   6.816
 5805SOL    HW218315   5.023   3.327   6.837
 5806SOL     OW18316   6.364   6.636   6.281
 5806SOL    HW118317   6.387   6.586   6.198
 5806SOL    HW218318   6.273   6.677   6.272
 5807SOL     OW18319   2.650   4.090   1.580
 5807SOL    HW118320   2.613   4.004   1.616
 5807SOL    HW218321   2.749   4.094   1.597
 5808SOL     OW18322   6.580   1.839   3.390
 5808SOL    HW118323   6.623   1.928   3.371
 5808SOL    HW218324   6.481   1.847   3.376
 5809SOL     OW18325   0.672   2.602   4.011
 5809SOL    HW118326   0.749   2.661   3.987
 5809SOL    HW218327   0.676   2.581   4.109
 5810SOL     OW18328   2.961   2.060   2.724
 5810SOL    HW118329   3.059   2.066   2.704
 5810SOL    HW218330   2.913   2.020   2.645
 5811SOL     OW18331   2.571   0.229   1.654
 5811SOL    HW118332   2.542   0.281   1.734
 5811SOL    HW218333   2.659   0.184   1.674
 5812SOL     OW18334   4.486   0.427   4.444
 5812SOL    HW118335   4.569   0.395   4.398
 5812SOL    HW218336   4.425   0.349   4.458
 5813SOL     OW18337   1.814   1.908   5.174
 5813SOL    HW118338   1.770   1.894   5.085
 5813SOL    HW218339   1.790   1.999   5.209
 5814SOL     OW18340   0.338   5.216   1.459
 5814SOL    HW118341   0.275   5.166   1.517
 5814SOL    HW218342   0.382   5.153   1.395
 5815SOL     OW18343   4.234   6.755   4.551
 5815SOL    HW118344   4.230   6.680   4.617
 5815SOL    HW218345   4.288   6.830   4.590
 5816SOL     OW18346   5.474   6.419   0.320
 5816SOL    HW118347   5.435   6.343   0.268
 5816SOL    HW218348   5.573   6.420   0.309
 5817SOL     OW18349   5.927   2.751   6.302
 5817SOL    HW118350   5.844   2.724   6.350
 5817SOL    HW218351   5.921   2.846   6.274
 5818SOL     OW18352   6.359   6.813   5.144
 5818SOL    HW118353   6.367   6.837   5.047
 5818SOL    HW218354   6.304   6.882   5.191
 5819SOL     OW18355   6.883   0.027   1.274
 5819SOL    HW118356   6.954   0.073   1.220
 5819SOL    HW218357   6.901   0.040   1.371
 5820SOL     OW18358   5.379   4.887   1.918
 5820SOL    HW118359   5.330   4.841   1.992
 5820SOL    HW218360   5.440   4.821   1.873
 5821SOL     OW18361   2.869   6.793   2.561
 5821SOL    HW118362   2.894   6.783   2.465
 5821SOL    HW218363   2.832   6.885   2.576
 5822SOL     OW18364   0.117   0.947   2.481
 5822SOL    HW118365   0.052   1.021   2.498
 5822SOL    HW218366   0.076   0.860   2.509
 5823SOL     OW18367   1.726   2.668   3.876
 5823SOL    HW118368   1.654   2.734   3.898
 5823SOL    HW218369   1.688   2.593   3.823
 5824SOL     OW18370   4.879   0.151   3.598
 5824SOL    HW118371   4.798   0.205   3.622
 5824SOL    HW218372   4.873   0.123   3.502
 5825SOL     OW18373   3.467   1.274   1.514
 5825SOL    HW118374   3.515   1.193   1.479
 5825SOL    HW218375   3.370   1.252   1.527
 5826SOL     OW18376   0.454   6.657   3.775
 5826SOL    HW118377   0.361   6.647   3.739
 5826SOL    HW218378   0.487   6.750   3.758
 5827SOL     OW18379   1.978   4.804   5.602
 5827SOL    HW118380   1.938   4.713   5.610
 5827SOL    HW218381   2.066   4.799   5.555
 5828SOL     OW18382   6.249   1.995   1.278
 5828SOL    HW118383   6.347   2.015   1.269
 5828SOL    HW218384   6.223   1.926   1.209
 5829SOL     OW18385   2.113   1.427   1.494
 5829SOL    HW118386   2.094   1.339   1.450
 5829SOL    HW218387   2.051   1.496   1.459
 5830SOL     OW18388   1.577   0.797   5.919
 5830SOL    HW118389   1.489   0.756   5.897
 5830SOL    HW218390   1.580   0.821   6.016
 5831SOL     OW18391   5.817   5.286   2.941
 5831SOL    HW118392   5.837   5.335   2.856
 5831SOL    HW218393   5.725   5.310   2.972
 5832SOL     OW18394   3.598   3.459   4.714
 5832SOL    HW118395   3.542   3.376   4.715
 5832SOL    HW218396   3.597   3.499   4.622
 5833SOL     OW18397   3.094   3.067   4.812
 5833SOL    HW118398   3.071   2.970   4.809
 5833SOL    HW218399   3.080   3.108   4.722
 5834SOL     OW18400   6.099   0.969   7.010
 5834SOL    HW118401   6.049   0.890   0.024
 5834SOL    HW218402   6.073   0.985   6.914
 5835SOL     OW18403   5.354   2.558   3.966
 5835SOL    HW118404   5.287   2.497   3.923
 5835SOL    HW218405   5.369   2.638   3.908
 5836SOL     OW18406   3.583   0.210   3.807
 5836SOL    HW118407   3.664   0.155   3.787
 5836SOL    HW218408   3.566   0.210   3.906
 5837SOL     OW18409   4.447   3.671   6.356
 5837SOL    HW118410   4.530   3.620   6.379
 5837SOL    HW218411   4.473   3.756   6.311
 5838SOL     OW18412   0.667   1.349   6.080
 5838SOL    HW118413   0.572   1.378   6.086
 5838SOL    HW218414   0.675   1.275   6.012
 5839SOL     OW18415   6.894   2.396   2.412
 5839SOL    HW118416   6.946   2.341   2.345
 5839SOL    HW218417   6.814   2.344   2.441
 5840SOL     OW18418   3.582   5.705   0.619
 5840SOL    HW118419   3.521   5.737   0.691
 5840SOL    HW218420   3.528   5.663   0.546
 5841SOL     OW18421   6.343   1.923   3.358
 5841SOL    HW118422   6.308   1.847   3.302
 5841SOL    HW218423   6.267   1.964   3.409
 5842SOL     OW18424   3.803   1.879   1.214
 5842SOL    HW118425   3.730   1.866   1.281
 5842SOL    HW218426   3.891   1.888   1.261
 5843SOL     OW18427   0.215   2.585   1.149
 5843SOL    HW118428   0.272   2.667   1.158
 5843SOL    HW218429   0.270   2.511   1.110
 5844SOL     OW18430   1.598   6.461   6.312
 5844SOL    HW118431   1.561   6.406   6.387
 5844SOL    HW218432   1.582   6.413   6.226
 5845SOL     OW18433   1.824   2.905   4.648
 5845SOL    HW118434   1.843   2.835   4.717
 5845SOL    HW218435   1.904   2.965   4.639
 5846SOL     OW18436   0.341   3.707   6.948
 5846SOL    HW118437   0.398   3.627   6.968
 5846SOL    HW218438   0.384   3.789   6.984
 5847SOL     OW18439   1.555   2.491   4.399
 5847SOL    HW118440   1.593   2.579   4.427
 5847SOL    HW218441   1.615   2.448   4.332
 5848SOL     OW18442   0.738   4.637   3.483
 5848SOL    HW118443   0.779   4.723   3.452
 5848SOL    HW218444   0.776   4.613   3.572
 5849SOL     OW18445   2.637   0.160   5.938
 5849SOL    HW118446   2.630   0.174   6.037
 5849SOL    HW218447   2.557   0.201   5.894
 5850SOL     OW18448   0.764   4.242   3.122
 5850SOL    HW118449   0.749   4.261   3.025
 5850SOL    HW218450   0.734   4.148   3.143
 5851SOL     OW18451   6.285   2.810   1.887
 5851SOL    HW118452   6.268   2.718   1.850
 5851SOL    HW218453   6.384   2.826   1.889
 5852SOL     OW18454   4.000   6.249   2.930
 5852SOL    HW118455   3.997   6.170   2.991
 5852SOL    HW218456   4.046   6.225   2.845
 5853SOL     OW18457   4.977   3.949   5.282
 5853SOL    HW118458   4.962   3.891   5.362
 5853SOL    HW218459   5.057   4.007   5.298
 5854SOL     OW18460   1.204   1.433   6.670
 5854SOL    HW118461   1.295   1.443   6.710
 5854SOL    HW218462   1.142   1.501   6.710
 5855SOL     OW18463   1.473   1.781   4.487
 5855SOL    HW118464   1.569   1.754   4.495
 5855SOL    HW218465   1.416   1.719   4.540
 5856SOL     OW18466   0.983   6.170   3.348
 5856SOL    HW118467   0.964   6.227   3.269
 5856SOL    HW218468   0.946   6.213   3.430
 5857SOL     OW18469   0.079   2.381   5.088
 5857SOL    HW118470   0.155   2.445   5.096
 5857SOL    HW218471   0.109   2.290   5.116
 5858SOL     OW18472   2.918   6.783   3.957
 5858SOL    HW118473   2.993   6.849   3.956
 5858SOL    HW218474   2.941   6.706   3.898
 5859SOL     OW18475   5.684   5.638   1.968
 5859SOL    HW118476   5.664   5.700   2.044
 5859SOL    HW218477   5.651   5.546   1.990
 5860SOL     OW18478   6.918   4.456   0.754
 5860SOL    HW118479   6.968   4.382   0.800
 5860SOL    HW218480   6.820   4.446   0.772
 5861SOL     OW18481   6.229   1.413   4.100
 5861SOL    HW118482   6.272   1.333   4.057
 5861SOL    HW218483   6.132   1.395   4.114
 5862SOL     OW18484   5.846   5.090   3.859
 5862SOL    HW118485   5.856   5.177   3.907
 5862SOL    HW218486   5.822   5.018   3.924
 5863SOL     OW18487   2.212   1.209   0.255
 5863SOL    HW118488   2.282   1.280   0.261
 5863SOL    HW218489   2.124   1.246   0.285
 5864SOL     OW18490   4.741   5.142   0.822
 5864SOL    HW118491   4.758   5.057   0.872
 5864SOL    HW218492   4.704   5.121   0.732
 5865SOL     OW18493   4.461   1.019   2.850
 5865SOL    HW118494   4.500   1.035   2.940
 5865SOL    HW218495   4.526   0.969   2.793
 5866SOL     OW18496   3.276   1.590   6.779
 5866SOL    HW118497   3.371   1.614   6.797
 5866SOL    HW218498   3.216   1.633   6.847
 5867SOL     OW18499   6.573   2.919   1.930
 5867SOL    HW118500   6.605   2.895   1.838
 5867SOL    HW218501   6.639   2.979   1.974
 5868SOL     OW18502   0.270   6.268   5.192
 5868SOL    HW118503   0.299   6.239   5.101
 5868SOL    HW218504   0.303   6.202   5.260
 5869SOL     OW18505   2.477   4.921   4.223
 5869SOL    HW118506   2.449   4.838   4.271
 5869SOL    HW218507   2.449   5.001   4.277
 5870SOL     OW18508   5.037   5.747   3.965
 5870SOL    HW118509   4.967   5.681   3.992
 5870SOL    HW218510   4.997   5.839   3.965
 5871SOL     OW18511   3.457   4.410   0.375
 5871SOL    HW118512   3.539   4.385   0.426
 5871SOL    HW218513   3.481   4.420   0.278
 5872SOL     OW18514   4.302   5.860   3.725
 5872SOL    HW118515   4.348   5.848   3.813
 5872SOL    HW218516   4.247   5.779   3.705
 5873SOL     OW18517   2.262   2.748   0.273
 5873SOL    HW118518   2.348   2.761   0.323
 5873SOL    HW218519   2.226   2.836   0.244
 5874SOL     OW18520   0.778   4.500   6.427
 5874SOL    HW118521   0.874   4.474   6.420
 5874SOL    HW218522   0.770   4.599   6.426
 5875SOL     OW18523   4.119   1.909   1.105
 5875SOL    HW118524   4.108   1.940   1.200
 5875SOL    HW218525   4.212   1.928   1.074
 5876SOL     OW18526   4.464   3.723   5.833
 5876SOL    HW118527   4.414   3.804   5.866
 5876SOL    HW218528   4.449   3.647   5.895
 5877SOL     OW18529   5.262   0.157   2.923
 5877SOL    HW118530   5.216   0.238   2.960
 5877SOL    HW218531   5.200   0.110   2.860
 5878SOL     OW18532   4.882   3.234   2.781
 5878SOL    HW118533   4.812   3.304   2.771
 5878SOL    HW218534   4.972   3.275   2.772
 5879SOL     OW18535   3.035   4.850   5.013
 5879SOL    HW118536   3.062   4.876   4.921
 5879SOL    HW218537   2.972   4.772   5.009
 5880SOL     OW18538   6.136   2.346   0.209
 5880SOL    HW118539   6.172   2.296   0.287
 5880SOL    HW218540   6.045   2.380   0.230
 5881SOL     OW18541   1.048   5.870   2.835
 5881SOL    HW118542   1.079   5.775   2.829
 5881SOL    HW218543   0.969   5.875   2.896
 5882SOL     OW18544   1.729   5.589   5.428
 5882SOL    HW118545   1.634   5.571   5.404
 5882SOL    HW218546   1.736   5.608   5.526
 5883SOL     OW18547   0.295   5.750   0.374
 5883SOL    HW118548   0.243   5.687   0.316
 5883SOL    HW218549   0.237   5.826   0.402
 5884SOL     OW18550   0.516   1.310   2.216
 5884SOL    HW118551   0.519   1.382   2.147
 5884SOL    HW218552   0.436   1.322   2.274
 5885SOL     OW18553   6.805   5.750   1.763
 5885SOL    HW118554   6.842   5.760   1.671
 5885SOL    HW218555   6.829   5.660   1.799
 5886SOL     OW18556   1.755   4.807   3.488
 5886SOL    HW118557   1.841   4.819   3.536
 5886SOL    HW218558   1.769   4.748   3.408
 5887SOL     OW18559   2.378   4.035   0.817
 5887SOL    HW118560   2.440   4.040   0.896
 5887SOL    HW218561   2.414   3.969   0.751
 5888SOL     OW18562   2.823   6.105   1.632
 5888SOL    HW118563   2.897   6.123   1.698
 5888SOL    HW218564   2.838   6.160   1.550
 5889SOL     OW18565   4.908   1.612   1.968
 5889SOL    HW118566   4.894   1.515   1.948
 5889SOL    HW218567   4.971   1.651   1.901
 5890SOL     OW18568   2.446   4.590   3.133
 5890SOL    HW118569   2.367   4.577   3.193
 5890SOL    HW218570   2.442   4.681   3.092
 5891SOL     OW18571   2.622   2.785   6.884
 5891SOL    HW118572   2.672   2.733   6.815
 5891SOL    HW218573   2.524   2.766   6.876
 5892SOL     OW18574   0.073   2.717   0.960
 5892SOL    HW118575   0.111   2.658   1.032
 5892SOL    HW218576   7.012   2.675   0.922
 5893SOL     OW18577   0.257   6.133   1.265
 5893SOL    HW118578   0.310   6.217   1.255
 5893SOL    HW218579   0.302   6.072   1.330
 5894SOL     OW18580   2.471   4.891   6.048
 5894SOL    HW118581   2.376   4.919   6.064
 5894SOL    HW218582   2.486   4.801   6.088
 5895SOL     OW18583   6.107   2.846   3.900
 5895SOL    HW118584   6.170   2.862   3.824
 5895SOL    HW218585   6.018   2.886   3.878
 5896SOL     OW18586   5.482   2.514   1.055
 5896SOL    HW118587   5.385   2.514   1.035
 5896SOL    HW218588   5.532   2.550   0.976
 5897SOL     OW18589   3.683   3.268   0.181
 5897SOL    HW118590   3.596   3.316   0.172
 5897SOL    HW218591   3.673   3.191   0.244
 5898SOL     OW18592   3.467   0.675   6.692
 5898SOL    HW118593   3.499   0.733   6.618
 5898SOL    HW218594   3.369   0.688   6.705
 5899SOL     OW18595   0.486   0.396   0.089
 5899SOL    HW118596   0.513   0.366   7.018
 5899SOL    HW218597   0.540   0.476   0.115
 5900SOL     OW18598   5.482   6.552   2.920
 5900SOL    HW118599   5.472   6.559   2.821
 5900SOL    HW218600   5.412   6.489   2.956
 5901SOL     OW18601   1.213   0.783   4.927
 5901SOL    HW118602   1.284   0.768   4.858
 5901SOL    HW218603   1.201   0.700   4.981
 5902SOL     OW18604   3.961   3.504   6.179
 5902SOL    HW118605   4.050   3.548   6.191
 5902SOL    HW218606   3.891   3.555   6.228
 5903SOL     OW18607   5.794   1.607   5.280
 5903SOL    HW118608   5.701   1.571   5.285
 5903SOL    HW218609   5.842   1.565   5.203
 5904SOL     OW18610   6.901   4.973   1.927
 5904SOL    HW118611   6.928   5.057   1.880
 5904SOL    HW218612   6.807   4.982   1.959
 5905SOL     OW18613   6.278   2.136   4.614
 5905SOL    HW118614   6.227   2.122   4.529
 5905SOL    HW218615   6.228   2.200   4.672
 5906SOL     OW18616   4.115   0.678   4.534
 5906SOL    HW118617   4.153   0.586   4.541
 5906SOL    HW218618   4.037   0.678   4.471
 5907SOL     OW18619   0.568   3.307   5.908
 5907SOL    HW118620   0.479   3.297   5.864
 5907SOL    HW218621   0.610   3.393   5.879
 5908SOL     OW18622   4.447   3.203   6.584
 5908SOL    HW118623   4.507   3.193   6.505
 5908SOL    HW218624   4.502   3.225   6.665
 5909SOL     OW18625   6.346   4.794   3.381
 5909SOL    HW118626   6.322   4.769   3.287
 5909SOL    HW218627   6.429   4.850   3.381
 5910SOL     OW18628   2.624   4.346   1.682
 5910SOL    HW118629   2.529   4.373   1.702
 5910SOL    HW218630   2.625   4.253   1.647
 5911SOL     OW18631   6.348   0.545   5.634
 5911SOL    HW118632   6.268   0.591   5.672
 5911SOL    HW218633   6.322   0.454   5.602
 5912SOL     OW18634   0.680   3.737   6.098
 5912SOL    HW118635   0.719   3.691   6.018
 5912SOL    HW218636   0.657   3.670   6.168
 5913SOL     OW18637   1.639   2.747   4.534
 5913SOL    HW118638   1.707   2.810   4.570
 5913SOL    HW218639   1.599   2.694   4.609
 5914SOL     OW18640   1.351   5.722   0.351
 5914SOL    HW118641   1.255   5.694   0.358
 5914SOL    HW218642   1.404   5.649   0.309
 5915SOL     OW18643   5.582   4.247   4.496
 5915SOL    HW118644   5.498   4.300   4.506
 5915SOL    HW218645   5.562   4.150   4.508
 5916SOL     OW18646   3.098   1.098   6.401
 5916SOL    HW118647   3.093   1.086   6.500
 5916SOL    HW218648   3.183   1.059   6.367
 5917SOL     OW18649   3.422   3.865   2.173
 5917SOL    HW118650   3.467   3.954   2.177
 5917SOL    HW218651   3.426   3.821   2.263
 5918SOL     OW18652   2.844   1.656   4.231
 5918SOL    HW118653   2.929   1.687   4.273
 5918SOL    HW218654   2.855   1.562   4.199
 5919SOL     OW18655   1.746   1.939   6.688
 5919SOL    HW118656   1.738   2.007   6.761
 5919SOL    HW218657   1.663   1.883   6.684
 5920SOL     OW18658   2.122   4.574   6.618
 5920SOL    HW118659   2.158   4.617   6.701
 5920SOL    HW218660   2.195   4.526   6.570
 5921SOL     OW18661   3.752   6.109   4.747
 5921SOL    HW118662   3.685   6.172   4.788
 5921SOL    HW218663   3.835   6.160   4.725
 5922SOL     OW18664   6.791   5.498   2.140
 5922SOL    HW118665   6.696   5.519   2.114
 5922SOL    HW218666   6.793   5.454   2.230
 5923SOL     OW18667   0.419   0.667   3.125
 5923SOL    HW118668   0.446   0.641   3.033
 5923SOL    HW218669   0.324   0.642   3.140
 5924SOL     OW18670   5.653   2.005   4.689
 5924SOL    HW118671   5.623   2.085   4.742
 5924SOL    HW218672   5.678   2.033   4.597
 5925SOL     OW18673   6.657   5.883   0.621
 5925SOL    HW118674   6.712   5.908   0.541
 5925SOL    HW218675   6.672   5.950   0.693
 5926SOL     OW18676   2.889   6.301   1.848
 5926SOL    HW118677   2.790   6.292   1.854
 5926SOL    HW218678   2.922   6.358   1.924
 5927SOL     OW18679   2.092   5.123   1.152
 5927SOL    HW118680   2.028   5.162   1.086
 5927SOL    HW218681   2.178   5.102   1.106
 5928SOL     OW18682   6.729   6.167   1.200
 5928SOL    HW118683   6.788   6.243   1.228
 5928SOL    HW218684   6.653   6.201   1.145
 5929SOL     OW18685   0.116   6.962   5.987
 5929SOL    HW118686   0.181   6.958   6.063
 5929SOL    HW218687   0.052   6.885   5.995
 5930SOL     OW18688   6.315   1.315   5.138
 5930SOL    HW118689   6.234   1.345   5.088
 5930SOL    HW218690   6.376   1.393   5.154
 5931SOL     OW18691   5.356   4.722   0.512
 5931SOL    HW118692   5.281   4.661   0.487
 5931SOL    HW218693   5.442   4.685   0.477
 5932SOL     OW18694   2.395   0.331   0.343
 5932SOL    HW118695   2.495   0.324   0.338
 5932SOL    HW218696   2.356   0.323   0.251
 5933SOL     OW18697   6.190   2.087   3.071
 5933SOL    HW118698   6.146   2.006   3.108
 5933SOL    HW218699   6.165   2.167   3.127
 5934SOL     OW18700   4.172   3.219   2.047
 5934SOL    HW118701   4.238   3.160   2.095
 5934SOL    HW218702   4.181   3.205   1.949
 5935SOL     OW18703   3.736   2.881   2.603
 5935SOL    HW118704   3.667   2.953   2.611
 5935SOL    HW218705   3.740   2.849   2.509
 5936SOL     OW18706   6.361   6.259   6.746
 5936SOL    HW118707   6.313   6.171   6.743
 5936SOL    HW218708   6.385   6.280   6.841
 5937SOL     OW18709   0.819   4.222   0.174
 5937SOL    HW118710   0.738   4.255   0.221
 5937SOL    HW218711   0.838   4.282   0.095
 5938SOL     OW18712   2.742   5.062   0.783
 5938SOL    HW118713   2.766   4.979   0.833
 5938SOL    HW218714   2.642   5.069   0.776
 5939SOL     OW18715   1.168   0.592   2.468
 5939SOL    HW118716   1.164   0.612   2.370
 5939SOL    HW218717   1.195   0.497   2.482
 5940SOL     OW18718   4.009   4.823   3.051
 5940SOL    HW118719   3.945   4.817   2.975
 5940SOL    HW218720   4.010   4.916   3.088
 5941SOL     OW18721   6.214   2.643   3.602
 5941SOL    HW118722   6.254   2.730   3.634
 5941SOL    HW218723   6.253   2.619   3.514
 5942SOL     OW18724   6.947   1.265   4.697
 5942SOL    HW118725   0.023   1.266   4.723
 5942SOL    HW218726   6.909   1.357   4.710
 5943SOL     OW18727   1.739   5.450   0.963
 5943SOL    HW118728   1.790   5.518   0.911
 5943SOL    HW218729   1.655   5.492   1.000
 5944SOL     OW18730   5.416   2.806   2.828
 5944SOL    HW118731   5.512   2.807   2.802
 5944SOL    HW218732   5.360   2.776   2.750
 5945SOL     OW18733   6.691   5.680   6.134
 5945SOL    HW118734   6.620   5.615   6.160
 5945SOL    HW218735   6.741   5.645   6.055
 5946SOL     OW18736   3.904   2.448   5.351
 5946SOL    HW118737   3.849   2.526   5.382
 5946SOL    HW218738   3.974   2.480   5.287
 5947SOL     OW18739   5.325   3.787   2.613
 5947SOL    HW118740   5.268   3.771   2.533
 5947SOL    HW218741   5.409   3.733   2.604
 5948SOL     OW18742   2.641   5.862   3.141
 5948SOL    HW118743   2.630   5.877   3.239
 5948SOL    HW218744   2.717   5.799   3.126
 5949SOL     OW18745   4.772   4.239   2.853
 5949SOL    HW118746   4.853   4.183   2.872
 5949SOL    HW218747   4.724   4.258   2.939
 5950SOL     OW18748   6.746   2.017   4.492
 5950SOL    HW118749   6.666   1.984   4.542
 5950SOL    HW218750   6.809   2.061   4.557
 5951SOL     OW18751   2.187   1.111   3.467
 5951SOL    HW118752   2.143   1.199   3.486
 5951SOL    HW218753   2.119   1.048   3.429
 5952SOL     OW18754   0.384   6.356   4.034
 5952SOL    HW118755   0.448   6.430   4.014
 5952SOL    HW218756   0.293   6.395   4.051
 5953SOL     OW18757   0.626   3.538   6.297
 5953SOL    HW118758   0.628   3.508   6.392
 5953SOL    HW218759   0.582   3.467   6.241
 5954SOL     OW18760   1.368   4.999   6.235
 5954SOL    HW118761   1.331   4.914   6.272
 5954SOL    HW218762   1.418   5.048   6.306
 5955SOL     OW18763   3.950   5.563   2.484
 5955SOL    HW118764   3.929   5.573   2.581
 5955SOL    HW218765   3.977   5.469   2.465
 5956SOL     OW18766   0.320   2.145   0.128
 5956SOL    HW118767   0.296   2.052   0.154
 5956SOL    HW218768   0.373   2.188   0.202
 5957SOL     OW18769   4.173   6.445   5.963
 5957SOL    HW118770   4.216   6.358   5.937
 5957SOL    HW218771   4.197   6.515   5.895
 5958SOL     OW18772   1.239   5.507   2.389
 5958SOL    HW118773   1.268   5.427   2.336
 5958SOL    HW218774   1.231   5.586   2.328
 5959SOL     OW18775   1.781   0.477   6.065
 5959SOL    HW118776   1.714   0.408   6.091
 5959SOL    HW218777   1.788   0.481   5.965
 5960SOL     OW18778   3.573   6.002   5.358
 5960SOL    HW118779   3.636   5.956   5.294
 5960SOL    HW218780   3.621   6.077   5.404
 5961SOL     OW18781   2.717   0.910   5.501
 5961SOL    HW118782   2.758   0.965   5.573
 5961SOL    HW218783   2.636   0.862   5.537
 5962SOL     OW18784   5.449   4.394   2.477
 5962SOL    HW118785   5.516   4.443   2.421
 5962SOL    HW218786   5.358   4.434   2.464
 5963SOL     OW18787   4.247   4.320   1.634
 5963SOL    HW118788   4.191   4.237   1.632
 5963SOL    HW218789   4.304   4.319   1.716
 5964SOL     OW18790   1.483   3.422   5.343
 5964SOL    HW118791   1.545   3.488   5.302
 5964SOL    HW218792   1.443   3.460   5.426
 5965SOL     OW18793   2.003   1.796   4.169
 5965SOL    HW118794   2.007   1.894   4.189
 5965SOL    HW218795   1.908   1.770   4.151
 5966SOL     OW18796   1.775   6.365   4.342
 5966SOL    HW118797   1.856   6.412   4.377
 5966SOL    HW218798   1.761   6.280   4.393
 5967SOL     OW18799   4.829   5.408   1.084
 5967SOL    HW118800   4.827   5.444   1.177
 5967SOL    HW218801   4.790   5.317   1.082
 5968SOL     OW18802   1.413   1.924   4.232
 5968SOL    HW118803   1.485   1.882   4.287
 5968SOL    HW218804   1.422   1.894   4.137
 5969SOL     OW18805   0.722   2.154   2.718
 5969SOL    HW118806   0.708   2.251   2.700
 5969SOL    HW218807   0.816   2.139   2.749
 5970SOL     OW18808   2.165   3.936   3.540
 5970SOL    HW118809   2.169   3.929   3.440
 5970SOL    HW218810   2.202   4.025   3.569
 5971SOL     OW18811   2.827   5.735   3.418
 5971SOL    HW118812   2.916   5.697   3.443
 5971SOL    HW218813   2.791   5.789   3.493
 5972SOL     OW18814   5.942   0.206   1.585
 5972SOL    HW118815   5.995   0.277   1.632
 5972SOL    HW218816   5.906   0.142   1.653
 5973SOL     OW18817   2.477   4.963   3.315
 5973SOL    HW118818   2.569   4.968   3.353
 5973SOL    HW218819   2.480   4.917   3.226
 5974SOL     OW18820   1.032   4.426   6.428
 5974SOL    HW118821   1.122   4.462   6.407
 5974SOL    HW218822   1.041   4.336   6.470
 5975SOL     OW18823   2.185   2.430   6.434
 5975SOL    HW118824   2.217   2.517   6.398
 5975SOL    HW218825   2.085   2.431   6.439
 5976SOL     OW18826   3.607   3.544   4.455
 5976SOL    HW118827   3.574   3.525   4.363
 5976SOL    HW218828   3.607   3.642   4.472
 5977SOL     OW18829   0.601   3.414   2.536
 5977SOL    HW118830   0.517   3.404   2.591
 5977SOL    HW218831   0.580   3.467   2.454
 5978SOL     OW18832   5.118   5.503   1.836
 5978SOL    HW118833   5.115   5.571   1.763
 5978SOL    HW218834   5.102   5.412   1.798
 5979SOL     OW18835   0.700   1.341   1.703
 5979SOL    HW118836   0.788   1.358   1.748
 5979SOL    HW218837   0.690   1.243   1.686
 5980SOL     OW18838   5.917   2.834   5.414
 5980SOL    HW118839   5.948   2.751   5.368
 5980SOL    HW218840   5.846   2.811   5.480
 5981SOL     OW18841   3.338   2.180   0.542
 5981SOL    HW118842   3.241   2.205   0.540
 5981SOL    HW218843   3.393   2.254   0.503
 5982SOL     OW18844   6.294   2.756   6.850
 5982SOL    HW118845   6.360   2.728   6.919
 5982SOL    HW218846   6.325   2.840   6.805
 5983SOL     OW18847   0.547   0.320   4.493
 5983SOL    HW118848   0.551   0.230   4.537
 5983SOL    HW218849   0.625   0.330   4.431
 5984SOL     OW18850   0.650   0.276   5.898
 5984SOL    HW118851   0.638   0.365   5.854
 5984SOL    HW218852   0.746   0.260   5.916
 5985SOL     OW18853   6.098   3.093   4.065
 5985SOL    HW118854   6.027   3.046   4.012
 5985SOL    HW218855   6.150   3.025   4.117
 5986SOL     OW18856   3.195   3.814   2.635
 5986SOL    HW118857   3.132   3.832   2.560
 5986SOL    HW218858   3.245   3.898   2.657
 5987SOL     OW18859   4.246   0.155   5.427
 5987SOL    HW118860   4.307   0.125   5.501
 5987SOL    HW218861   4.212   0.247   5.448
 5988SOL     OW18862   3.876   6.635   6.034
 5988SOL    HW118863   3.838   6.690   5.959
 5988SOL    HW218864   3.863   6.538   6.014
 5989SOL     OW18865   2.952   1.767   6.644
 5989SOL    HW118866   2.919   1.683   6.600
 5989SOL    HW218867   3.021   1.810   6.586
 5990SOL     OW18868   3.301   5.728   3.129
 5990SOL    HW118869   3.252   5.655   3.082
 5990SOL    HW218870   3.360   5.777   3.064
 5991SOL     OW18871   3.555   4.871   3.053
 5991SOL    HW118872   3.558   4.970   3.066
 5991SOL    HW218873   3.460   4.840   3.052
 5992SOL     OW18874   3.901   1.869   4.371
 5992SOL    HW118875   3.828   1.817   4.327
 5992SOL    HW218876   3.915   1.834   4.464
 5993SOL     OW18877   2.817   5.098   3.668
 5993SOL    HW118878   2.864   5.180   3.701
 5993SOL    HW218879   2.762   5.060   3.742
 5994SOL     OW18880   6.414   2.198   0.050
 5994SOL    HW118881   6.388   2.163   0.140
 5994SOL    HW218882   6.343   2.173   7.004
 5995SOL     OW18883   0.373   3.779   2.029
 5995SOL    HW118884   0.344   3.792   2.124
 5995SOL    HW218885   0.469   3.750   2.027
 5996SOL     OW18886   1.441   5.983   6.203
 5996SOL    HW118887   1.495   5.921   6.146
 5996SOL    HW218888   1.405   6.057   6.147
 5997SOL     OW18889   0.782   0.714   1.651
 5997SOL    HW118890   0.739   0.720   1.561
 5997SOL    HW218891   0.803   0.618   1.672
 5998SOL     OW18892   5.263   3.065   3.389
 5998SOL    HW118893   5.326   3.069   3.311
 5998SOL    HW218894   5.239   2.970   3.407
 5999SOL     OW18895   2.263   2.834   3.095
 5999SOL    HW118896   2.342   2.884   3.130
 5999SOL    HW218897   2.182   2.893   3.097
 6000SOL     OW18898   5.016   1.464   3.247
 6000SOL    HW118899   5.084   1.475   3.174
 6000SOL    HW218900   4.936   1.520   3.227
 6001SOL     OW18901   6.090   1.256   0.338
 6001SOL    HW118902   6.005   1.216   0.371
 6001SOL    HW218903   6.132   1.194   0.272
 6002SOL     OW18904   2.452   0.185   2.132
 6002SOL    HW118905   2.368   0.235   2.110
 6002SOL    HW218906   2.529   0.248   2.132
 6003SOL     OW18907   4.639   4.349   3.811
 6003SOL    HW118908   4.695   4.424   3.774
 6003SOL    HW218909   4.695   4.266   3.815
 6004SOL     OW18910   0.512   3.196   1.824
 6004SOL    HW118911   0.577   3.128   1.859
 6004SOL    HW218912   0.552   3.287   1.832
 6005SOL     OW18913   1.938   6.095   2.497
 6005SOL    HW118914   1.902   6.164   2.561
 6005SOL    HW218915   1.910   6.004   2.528
 6006SOL     OW18916   2.335   5.684   0.004
 6006SOL    HW118917   2.390   5.767   7.019
 6006SOL    HW218918   2.270   5.693   0.080
 6007SOL     OW18919   5.609   3.825   4.618
 6007SOL    HW118920   5.519   3.834   4.660
 6007SOL    HW218921   5.648   3.736   4.643
 6008SOL     OW18922   4.850   3.974   1.847
 6008SOL    HW118923   4.858   4.072   1.831
 6008SOL    HW218924   4.778   3.936   1.789
 6009SOL     OW18925   4.046   1.409   4.730
 6009SOL    HW118926   3.960   1.447   4.764
 6009SOL    HW218927   4.060   1.439   4.636
 6010SOL     OW18928   1.784   4.601   3.289
 6010SOL    HW118929   1.735   4.604   3.202
 6010SOL    HW218930   1.835   4.515   3.296
 6011SOL     OW18931   6.214   1.929   2.070
 6011SOL    HW118932   6.265   1.855   2.024
 6011SOL    HW218933   6.227   1.921   2.169
 6012SOL     OW18934   0.870   2.855   1.163
 6012SOL    HW118935   0.941   2.915   1.125
 6012SOL    HW218936   0.846   2.785   1.096
 6013SOL     OW18937   5.449   0.409   2.555
 6013SOL    HW118938   5.368   0.350   2.560
 6013SOL    HW218939   5.422   0.504   2.570
 6014SOL     OW18940   6.448   0.873   0.613
 6014SOL    HW118941   6.424   0.961   0.655
 6014SOL    HW218942   6.466   0.806   0.685
 6015SOL     OW18943   6.020   0.210   4.467
 6015SOL    HW118944   5.935   0.242   4.425
 6015SOL    HW218945   6.086   0.186   4.396
 6016SOL     OW18946   1.582   0.343   5.531
 6016SOL    HW118947   1.670   0.351   5.578
 6016SOL    HW218948   1.536   0.431   5.530
 6017SOL     OW18949   6.993   3.738   2.413
 6017SOL    HW118950   6.998   3.638   2.423
 6017SOL    HW218951   0.008   3.764   2.324
 6018SOL     OW18952   3.246   5.042   1.128
 6018SOL    HW118953   3.213   5.075   1.216
 6018SOL    HW218954   3.338   5.076   1.112
 6019SOL     OW18955   6.298   6.666   3.074
 6019SOL    HW118956   6.304   6.678   2.974
 6019SOL    HW218957   6.258   6.749   3.114
 6020SOL     OW18958   2.226   6.545   2.671
 6020SOL    HW118959   2.175   6.547   2.585
 6020SOL    HW218960   2.170   6.584   2.744
 6021SOL     OW18961   3.151   0.628   3.478
 6021SOL    HW118962   3.156   0.627   3.379
 6021SOL    HW218963   3.059   0.656   3.507
 6022SOL     OW18964   3.839   1.304   5.577
 6022SOL    HW118965   3.786   1.267   5.654
 6022SOL    HW218966   3.936   1.288   5.592
 6023SOL     OW18967   0.528   1.959   1.996
 6023SOL    HW118968   0.460   2.032   2.007
 6023SOL    HW218969   0.481   1.871   1.984
 6024SOL     OW18970   6.196   5.690   2.879
 6024SOL    HW118971   6.137   5.769   2.897
 6024SOL    HW218972   6.221   5.688   2.782
 6025SOL     OW18973   4.379   2.038   2.740
 6025SOL    HW118974   4.332   2.119   2.706
 6025SOL    HW218975   4.410   1.982   2.663
 6026SOL     OW18976   0.793   4.487   5.645
 6026SOL    HW118977   0.869   4.456   5.587
 6026SOL    HW218978   0.800   4.586   5.659
 6027SOL     OW18979   4.503   4.337   0.532
 6027SOL    HW118980   4.478   4.428   0.499
 6027SOL    HW218981   4.431   4.272   0.508
 6028SOL     OW18982   0.555   4.161   6.739
 6028SOL    HW118983   0.596   4.214   6.813
 6028SOL    HW218984   0.599   4.186   6.652
 6029SOL     OW18985   1.185   5.336   1.558
 6029SOL    HW118986   1.268   5.356   1.610
 6029SOL    HW218987   1.191   5.243   1.521
 6030SOL     OW18988   1.749   6.487   2.103
 6030SOL    HW118989   1.840   6.529   2.103
 6030SOL    HW218990   1.680   6.558   2.090
 6031SOL     OW18991   5.068   0.912   4.137
 6031SOL    HW118992   4.979   0.871   4.113
 6031SOL    HW218993   5.121   0.847   4.191
 6032SOL     OW18994   1.379   2.436   2.221
 6032SOL    HW118995   1.464   2.488   2.214
 6032SOL    HW218996   1.323   2.472   2.295
 6033SOL     OW18997   0.012   6.715   4.232
 6033SOL    HW118998   7.014   6.654   4.309
 6033SOL    HW218999   0.052   6.662   4.157
 6034SOL     OW19000   2.585   4.644   4.731
 6034SOL    HW119001   2.535   4.597   4.659
 6034SOL    HW219002   2.533   4.641   4.817
 6035SOL     OW19003   4.853   0.042   3.867
 6035SOL    HW119004   4.840   0.130   3.911
 6035SOL    HW219005   4.885   0.056   3.773
 6036SOL     OW19006   5.795   0.399   5.007
 6036SOL    HW119007   5.784   0.469   4.936
 6036SOL    HW219008   5.869   0.425   5.068
 6037SOL     OW19009   0.636   5.768   4.427
 6037SOL    HW119010   0.603   5.695   4.488
 6037SOL    HW219011   0.604   5.751   4.334
 6038SOL     OW19012   0.318   4.070   6.796
 6038SOL    HW119013   0.409   4.102   6.770
 6038SOL    HW219014   0.273   4.030   6.716
 6039SOL     OW19015   3.297   3.313   4.084
 6039SOL    HW119016   3.373   3.311   4.019
 6039SOL    HW219017   3.232   3.385   4.058
 6040SOL     OW19018   1.233   0.785   0.872
 6040SOL    HW119019   1.298   0.777   0.796
 6040SOL    HW219020   1.152   0.835   0.841
 6041SOL     OW19021   0.937   3.001   0.408
 6041SOL    HW119022   0.871   3.056   0.459
 6041SOL    HW219023   0.936   2.907   0.441
 6042SOL     OW19024   5.266   5.778   4.902
 6042SOL    HW119025   5.204   5.757   4.978
 6042SOL    HW219026   5.223   5.749   4.816
 6043SOL     OW19027   0.222   4.359   3.683
 6043SOL    HW119028   0.179   4.429   3.627
 6043SOL    HW219029   0.317   4.346   3.653
 6044SOL     OW19030   1.531   0.445   1.410
 6044SOL    HW119031   1.506   0.399   1.496
 6044SOL    HW219032   1.617   0.494   1.423
 6045SOL     OW19033   6.521   4.375   6.703
 6045SOL    HW119034   6.441   4.319   6.726
 6045SOL    HW219035   6.600   4.343   6.754
 6046SOL     OW19036   1.219   3.583   6.765
 6046SOL    HW119037   1.282   3.509   6.741
 6046SOL    HW219038   1.125   3.552   6.752
 6047SOL     OW19039   1.227   5.627   5.040
 6047SOL    HW119040   1.308   5.568   5.036
 6047SOL    HW219041   1.157   5.590   4.979
 6048SOL     OW19042   4.453   5.869   3.965
 6048SOL    HW119043   4.538   5.847   4.012
 6048SOL    HW219044   4.394   5.923   4.026
 6049SOL     OW19045   6.690   5.591   0.160
 6049SOL    HW119046   6.766   5.650   0.132
 6049SOL    HW219047   6.716   5.540   0.242
 6050SOL     OW19048   6.003   4.651   5.352
 6050SOL    HW119049   5.970   4.557   5.341
 6050SOL    HW219050   6.103   4.651   5.350
 6051SOL     OW19051   2.996   1.936   3.622
 6051SOL    HW119052   3.008   1.930   3.523
 6051SOL    HW219053   2.903   1.906   3.646
 6052SOL     OW19054   0.294   1.834   6.831
 6052SOL    HW119055   0.302   1.741   6.867
 6052SOL    HW219056   0.385   1.871   6.814
 6053SOL     OW19057   1.004   0.147   6.100
 6053SOL    HW119058   0.969   0.241   6.093
 6053SOL    HW219059   1.078   0.134   6.034
 6054SOL     OW19060   0.750   4.322   5.860
 6054SOL    HW119061   0.714   4.229   5.854
 6054SOL    HW219062   0.767   4.357   5.768
 6055SOL     OW19063   5.465   6.894   2.894
 6055SOL    HW119064   5.423   6.976   2.933
 6055SOL    HW219065   5.467   6.822   2.962
 6056SOL     OW19066   5.393   2.942   6.339
 6056SOL    HW119067   5.367   2.847   6.321
 6056SOL    HW219068   5.427   2.983   6.254
 6057SOL     OW19069   4.187   1.051   6.516
 6057SOL    HW119070   4.237   1.107   6.582
 6057SOL    HW219071   4.098   1.093   6.497
 6058SOL     OW19072   5.254   2.013   5.288
 6058SOL    HW119073   5.259   2.036   5.190
 6058SOL    HW219074   5.214   2.090   5.338
 6059SOL     OW19075   0.091   6.550   6.781
 6059SOL    HW119076   0.188   6.534   6.799
 6059SOL    HW219077   0.064   6.498   6.700
 6060SOL     OW19078   2.897   5.596   6.348
 6060SOL    HW119079   2.862   5.628   6.436
 6060SOL    HW219080   2.970   5.658   6.318
 6061SOL     OW19081   1.734   1.476   0.129
 6061SOL    HW119082   1.679   1.397   0.102
 6061SOL    HW219083   1.790   1.505   0.052
 6062SOL     OW19084   1.452   0.308   3.891
 6062SOL    HW119085   1.487   0.383   3.947
 6062SOL    HW219086   1.492   0.314   3.799
 6063SOL     OW19087   5.862   5.770   6.849
 6063SOL    HW119088   5.904   5.735   6.933
 6063SOL    HW219089   5.923   5.753   6.772
 6064SOL     OW19090   1.158   5.381   2.626
 6064SOL    HW119091   1.164   5.444   2.549
 6064SOL    HW219092   1.070   5.394   2.673
 6065SOL     OW19093   5.314   6.892   1.658
 6065SOL    HW119094   5.235   6.954   1.657
 6065SOL    HW219095   5.385   6.930   1.718
 6066SOL     OW19096   4.345   1.989   5.782
 6066SOL    HW119097   4.264   1.938   5.813
 6066SOL    HW219098   4.427   1.934   5.799
 6067SOL     OW19099   4.815   1.956   6.778
 6067SOL    HW119100   4.813   1.874   6.835
 6067SOL    HW219101   4.910   1.984   6.764
 6068SOL     OW19102   5.095   0.485   5.687
 6068SOL    HW119103   5.073   0.501   5.590
 6068SOL    HW219104   5.037   0.544   5.744
 6069SOL     OW19105   6.580   5.096   3.829
 6069SOL    HW119106   6.558   5.098   3.926
 6069SOL    HW219107   6.667   5.142   3.813
 6070SOL     OW19108   5.111   3.356   0.718
 6070SOL    HW119109   5.066   3.432   0.670
 6070SOL    HW219110   5.209   3.358   0.699
 6071SOL     OW19111   4.817   6.889   5.225
 6071SOL    HW119112   4.805   6.943   5.309
 6071SOL    HW219113   4.834   6.951   5.148
 6072SOL     OW19114   6.137   1.721   1.482
 6072SOL    HW119115   6.229   1.750   1.511
 6072SOL    HW219116   6.141   1.628   1.446
 6073SOL     OW19117   6.067   0.844   0.990
 6073SOL    HW119118   6.077   0.788   0.908
 6073SOL    HW219119   6.009   0.797   1.056
 6074SOL     OW19120   0.612   0.533   5.815
 6074SOL    HW119121   0.555   0.537   5.733
 6074SOL    HW219122   0.595   0.615   5.871
 6075SOL     OW19123   5.114   3.477   5.844
 6075SOL    HW119124   5.206   3.511   5.864
 6075SOL    HW219125   5.104   3.385   5.881
 6076SOL     OW19126   2.614   0.776   4.055
 6076SOL    HW119127   2.599   0.679   4.072
 6076SOL    HW219128   2.574   0.801   3.966
 6077SOL     OW19129   5.157   4.979   3.372
 6077SOL    HW119130   5.243   4.929   3.366
 6077SOL    HW219131   5.156   5.053   3.304
 6078SOL     OW19132   1.875   4.637   4.736
 6078SOL    HW119133   1.965   4.609   4.770
 6078SOL    HW219134   1.842   4.715   4.790
 6079SOL     OW19135   3.138   2.004   0.842
 6079SOL    HW119136   3.109   2.098   0.857
 6079SOL    HW219137   3.065   1.941   0.869
 6080SOL     OW19138   5.718   3.200   3.699
 6080SOL    HW119139   5.629   3.175   3.737
 6080SOL    HW219140   5.762   3.267   3.758
 6081SOL     OW19141   0.338   4.309   1.777
 6081SOL    HW119142   0.362   4.217   1.808
 6081SOL    HW219143   0.338   4.311   1.677
 6082SOL     OW19144   4.174   1.873   5.121
 6082SOL    HW119145   4.084   1.851   5.085
 6082SOL    HW219146   4.210   1.954   5.074
 6083SOL     OW19147   1.859   6.919   6.849
 6083SOL    HW119148   1.923   6.869   6.792
 6083SOL    HW219149   1.872   6.893   6.945
 6084SOL     OW19150   0.043   5.645   6.025
 6084SOL    HW119151   0.113   5.702   5.982
 6084SOL    HW219152   6.981   5.647   5.969
 6085SOL     OW19153   5.053   4.902   1.464
 6085SOL    HW119154   5.041   4.818   1.411
 6085SOL    HW219155   5.141   4.900   1.511
 6086SOL     OW19156   3.328   1.816   2.321
 6086SOL    HW119157   3.359   1.911   2.321
 6086SOL    HW219158   3.361   1.770   2.403
 6087SOL     OW19159   3.643   0.576   0.520
 6087SOL    HW119160   3.702   0.496   0.531
 6087SOL    HW219161   3.550   0.553   0.548
 6088SOL     OW19162   0.257   0.493   4.983
 6088SOL    HW119163   0.246   0.409   5.035
 6088SOL    HW219164   0.349   0.529   4.998
 6089SOL     OW19165   6.505   3.806   0.945
 6089SOL    HW119166   6.579   3.764   0.997
 6089SOL    HW219167   6.419   3.761   0.968
 6090SOL     OW19168   6.834   6.087   4.443
 6090SOL    HW119169   6.818   6.121   4.536
 6090SOL    HW219170   6.798   5.994   4.435
 6091SOL     OW19171   6.751   2.330   2.075
 6091SOL    HW119172   6.821   2.269   2.037
 6091SOL    HW219173   6.791   2.420   2.093
 6092SOL     OW19174   0.998   3.857   0.687
 6092SOL    HW119175   1.054   3.784   0.647
 6092SOL    HW219176   0.903   3.828   0.692
 6093SOL     OW19177   0.783   4.781   0.567
 6093SOL    HW119178   0.729   4.865   0.562
 6093SOL    HW219179   0.874   4.797   0.527
 6094SOL     OW19180   0.391   1.307   1.043
 6094SOL    HW119181   0.330   1.383   1.068
 6094SOL    HW219182   0.421   1.260   1.126
 6095SOL     OW19183   6.771   3.655   5.202
 6095SOL    HW119184   6.741   3.615   5.115
 6095SOL    HW219185   6.708   3.629   5.275
 6096SOL     OW19186   5.419   1.594   2.764
 6096SOL    HW119187   5.439   1.497   2.776
 6096SOL    HW219188   5.365   1.608   2.681
 6097SOL     OW19189   3.724   1.579   2.620
 6097SOL    HW119190   3.781   1.632   2.558
 6097SOL    HW219191   3.686   1.638   2.691
 6098SOL     OW19192   0.575   0.774   6.700
 6098SOL    HW119193   0.495   0.828   6.673
 6098SOL    HW219194   0.553   0.722   6.782
 6099SOL     OW19195   6.010   4.250   4.798
 6099SOL    HW119196   6.089   4.189   4.809
 6099SOL    HW219197   5.991   4.263   4.701
 6100SOL     OW19198   0.280   3.173   0.920
 6100SOL    HW119199   0.271   3.271   0.934
 6100SOL    HW219200   0.252   3.125   1.004
 6101SOL     OW19201   6.322   6.083   3.463
 6101SOL    HW119202   6.258   6.158   3.479
 6101SOL    HW219203   6.373   6.064   3.546
 6102SOL     OW19204   3.454   6.683   5.012
 6102SOL    HW119205   3.528   6.686   5.079
 6102SOL    HW219206   3.378   6.628   5.048
 6103SOL     OW19207   5.781   1.868   5.363
 6103SOL    HW119208   5.781   1.875   5.462
 6103SOL    HW219209   5.808   1.775   5.336
 6104SOL     OW19210   2.036   3.084   1.321
 6104SOL    HW119211   2.061   3.157   1.384
 6104SOL    HW219212   1.953   3.109   1.272
 6105SOL     OW19213   3.299   4.940   4.395
 6105SOL    HW119214   3.212   4.894   4.408
 6105SOL    HW219215   3.367   4.875   4.363
 6106SOL     OW19216   1.968   5.074   4.017
 6106SOL    HW119217   1.888   5.062   3.958
 6106SOL    HW219218   1.986   5.172   4.029
 6107SOL     OW19219   2.105   5.299   6.203
 6107SOL    HW119220   2.139   5.393   6.195
 6107SOL    HW219221   2.058   5.273   6.119
 6108SOL     OW19222   5.473   1.905   5.107
 6108SOL    HW119223   5.399   1.957   5.065
 6108SOL    HW219224   5.547   1.893   5.041
 6109SOL     OW19225   6.946   4.299   1.517
 6109SOL    HW119226   0.020   4.313   1.547
 6109SOL    HW219227   6.895   4.249   1.587
 6110SOL     OW19228   3.385   2.081   3.715
 6110SOL    HW119229   3.405   2.066   3.812
 6110SOL    HW219230   3.296   2.125   3.706
 6111SOL     OW19231   0.510   4.391   3.649
 6111SOL    HW119232   0.529   4.324   3.577
 6111SOL    HW219233   0.486   4.479   3.607
 6112SOL     OW19234   1.395   1.129   1.449
 6112SOL    HW119235   1.454   1.140   1.370
 6112SOL    HW219236   1.418   1.199   1.518
 6113SOL     OW19237   1.381   4.862   5.260
 6113SOL    HW119238   1.440   4.941   5.246
 6113SOL    HW219239   1.388   4.832   5.356
 6114SOL     OW19240   3.833   4.532   1.003
 6114SOL    HW119241   3.774   4.496   0.931
 6114SOL    HW219242   3.809   4.490   1.090
 6115SOL     OW19243   6.935   5.003   2.460
 6115SOL    HW119244   6.940   5.099   2.488
 6115SOL    HW219245   6.996   4.988   2.383
 6116SOL     OW19246   3.966   2.436   1.271
 6116SOL    HW119247   3.922   2.367   1.214
 6116SOL    HW219248   3.901   2.508   1.293
 6117SOL     OW19249   5.289   5.658   4.031
 6117SOL    HW119250   5.193   5.656   4.004
 6117SOL    HW219251   5.324   5.751   4.024
 6118SOL     OW19252   6.476   0.465   3.553
 6118SOL    HW119253   6.392   0.426   3.591
 6118SOL    HW219254   6.541   0.392   3.534
 6119SOL     OW19255   5.873   5.255   4.468
 6119SOL    HW119256   5.813   5.307   4.407
 6119SOL    HW219257   5.819   5.185   4.515
 6120SOL     OW19258   2.314   1.819   3.217
 6120SOL    HW119259   2.394   1.824   3.157
 6120SOL    HW219260   2.291   1.910   3.251
 6121SOL     OW19261   0.104   2.000   3.628
 6121SOL    HW119262   0.074   1.952   3.711
 6121SOL    HW219263   0.202   1.988   3.616
 6122SOL     OW19264   4.019   5.752   3.940
 6122SOL    HW119265   4.037   5.731   4.036
 6122SOL    HW219266   3.963   5.834   3.934
 6123SOL     OW19267   5.840   1.698   2.670
 6123SOL    HW119268   5.940   1.695   2.661
 6123SOL    HW219269   5.816   1.704   2.767
 6124SOL     OW19270   3.182   0.291   5.164
 6124SOL    HW119271   3.164   0.215   5.226
 6124SOL    HW219272   3.280   0.302   5.150
 6125SOL     OW19273   1.394   4.366   2.353
 6125SOL    HW119274   1.459   4.441   2.346
 6125SOL    HW219275   1.355   4.364   2.445
 6126SOL     OW19276   3.364   6.480   3.047
 6126SOL    HW119277   3.350   6.512   2.953
 6126SOL    HW219278   3.426   6.402   3.048
 6127SOL     OW19279   1.991   5.439   1.533
 6127SOL    HW119280   2.021   5.517   1.588
 6127SOL    HW219281   1.930   5.471   1.460
 6128SOL     OW19282   5.588   4.358   1.553
 6128SOL    HW119283   5.554   4.391   1.641
 6128SOL    HW219284   5.512   4.338   1.492
 6129SOL     OW19285   6.374   3.574   3.444
 6129SOL    HW119286   6.293   3.603   3.494
 6129SOL    HW219287   6.420   3.655   3.405
 6130SOL     OW19288   5.191   3.673   2.818
 6130SOL    HW119289   5.162   3.579   2.797
 6130SOL    HW219290   5.221   3.718   2.734
 6131SOL     OW19291   6.647   1.031   5.305
 6131SOL    HW119292   6.660   0.943   5.352
 6131SOL    HW219293   6.557   1.032   5.261
 6132SOL     OW19294   0.134   2.777   0.574
 6132SOL    HW119295   0.053   2.770   0.515
 6132SOL    HW219296   0.145   2.692   0.625
 6133SOL     OW19297   1.547   5.153   0.088
 6133SOL    HW119298   1.477   5.103   0.139
 6133SOL    HW219299   1.538   5.251   0.107
 6134SOL     OW19300   4.810   3.659   6.521
 6134SOL    HW119301   4.790   3.561   6.529
 6134SOL    HW219302   4.897   3.679   6.566
 6135SOL     OW19303   5.926   6.745   2.425
 6135SOL    HW119304   5.919   6.838   2.461
 6135SOL    HW219305   5.969   6.748   2.334
 6136SOL     OW19306   1.363   1.845   2.420
 6136SOL    HW119307   1.373   1.934   2.375
 6136SOL    HW219308   1.321   1.858   2.510
 6137SOL     OW19309   3.494   6.839   6.364
 6137SOL    HW119310   3.546   6.818   6.281
 6137SOL    HW219311   3.557   6.866   6.437
 6138SOL     OW19312   4.632   0.728   2.874
 6138SOL    HW119313   4.705   0.797   2.869
 6138SOL    HW219314   4.579   0.741   2.958
 6139SOL     OW19315   2.437   6.197   3.699
 6139SOL    HW119316   2.365   6.216   3.766
 6139SOL    HW219317   2.405   6.129   3.633
 6140SOL     OW19318   2.497   5.669   1.212
 6140SOL    HW119319   2.542   5.665   1.301
 6140SOL    HW219320   2.479   5.764   1.188
 6141SOL     OW19321   1.000   6.017   5.034
 6141SOL    HW119322   1.077   5.960   5.060
 6141SOL    HW219323   0.915   5.978   5.070
 6142SOL     OW19324   6.862   3.484   3.783
 6142SOL    HW119325   6.794   3.449   3.847
 6142SOL    HW219326   6.904   3.567   3.820
 6143SOL     OW19327   6.205   5.636   6.458
 6143SOL    HW119328   6.299   5.610   6.482
 6143SOL    HW219329   6.202   5.662   6.362
 6144SOL     OW19330   0.330   5.684   4.303
 6144SOL    HW119331   0.418   5.683   4.256
 6144SOL    HW219332   0.318   5.772   4.349
 6145SOL     OW19333   6.038   5.024   3.695
 6145SOL    HW119334   5.971   5.075   3.750
 6145SOL    HW219335   6.113   5.085   3.668
 6146SOL     OW19336   5.924   2.052   3.436
 6146SOL    HW119337   5.834   2.097   3.435
 6146SOL    HW219338   5.913   1.956   3.459
 6147SOL     OW19339   1.238   3.696   3.818
 6147SOL    HW119340   1.315   3.633   3.809
 6147SOL    HW219341   1.236   3.733   3.911
 6148SOL     OW19342   6.290   6.441   2.783
 6148SOL    HW119343   6.339   6.366   2.827
 6148SOL    HW219344   6.338   6.527   2.799
 6149SOL     OW19345   1.213   5.843   4.460
 6149SOL    HW119346   1.157   5.788   4.522
 6149SOL    HW219347   1.229   5.933   4.500
 6150SOL     OW19348   4.643   6.789   6.268
 6150SOL    HW119349   4.602   6.712   6.316
 6150SOL    HW219350   4.673   6.759   6.177
 6151SOL     OW19351   4.359   0.327   4.824
 6151SOL    HW119352   4.377   0.329   4.922
 6151SOL    HW219353   4.288   0.259   4.804
 6152SOL     OW19354   6.346   3.927   6.363
 6152SOL    HW119355   6.404   3.961   6.437
 6152SOL    HW219356   6.398   3.862   6.307
 6153SOL     OW19357   3.627   5.555   5.788
 6153SOL    HW119358   3.712   5.605   5.799
 6153SOL    HW219359   3.551   5.619   5.779
 6154SOL     OW19360   5.409   3.080   3.154
 6154SOL    HW119361   5.408   3.178   3.132
 6154SOL    HW219362   5.367   3.028   3.080
 6155SOL     OW19363   2.825   4.742   4.634
 6155SOL    HW119364   2.748   4.702   4.683
 6155SOL    HW219365   2.825   4.710   4.540
 6156SOL     OW19366   5.584   0.643   4.395
 6156SOL    HW119367   5.496   0.612   4.433
 6156SOL    HW219368   5.659   0.601   4.447
 6157SOL     OW19369   1.000   1.277   4.887
 6157SOL    HW119370   0.901   1.266   4.883
 6157SOL    HW219371   1.023   1.354   4.947
 6158SOL     OW19372   5.140   6.953   6.923
 6158SOL    HW119373   5.125   0.026   6.955
 6158SOL    HW219374   5.234   6.926   6.940
 6159SOL     OW19375   5.219   3.699   6.070
 6159SOL    HW119376   5.164   3.776   6.103
 6159SOL    HW219377   5.204   3.620   6.130
 6160SOL     OW19378   6.471   5.462   6.994
 6160SOL    HW119379   6.531   5.485   0.049
 6160SOL    HW219380   6.376   5.470   0.002
 6161SOL     OW19381   5.462   0.170   6.252
 6161SOL    HW119382   5.550   0.218   6.254
 6161SOL    HW219383   5.395   0.220   6.306
 6162SOL     OW19384   6.042   5.287   3.983
 6162SOL    HW119385   6.116   5.256   3.924
 6162SOL    HW219386   5.970   5.328   3.926
 6163SOL     OW19387   6.817   3.835   2.804
 6163SOL    HW119388   6.735   3.876   2.764
 6163SOL    HW219389   6.804   3.736   2.811
 6164SOL     OW19390   4.710   2.796   1.104
 6164SOL    HW119391   4.779   2.779   1.034
 6164SOL    HW219392   4.755   2.825   1.189
 6165SOL     OW19393   3.935   0.095   0.903
 6165SOL    HW119394   3.962   0.168   0.839
 6165SOL    HW219395   3.946   0.128   0.997
 6166SOL     OW19396   3.011   0.398   0.068
 6166SOL    HW119397   3.104   0.413   0.104
 6166SOL    HW219398   2.967   0.325   0.120
 6167SOL     OW19399   6.936   5.180   3.396
 6167SOL    HW119400   6.935   5.087   3.360
 6167SOL    HW219401   6.863   5.233   3.353
 6168SOL     OW19402   0.048   2.652   1.771
 6168SOL    HW119403   0.107   2.630   1.849
 6168SOL    HW219404   6.990   2.590   1.770
 6169SOL     OW19405   1.191   4.199   1.067
 6169SOL    HW119406   1.138   4.123   1.028
 6169SOL    HW219407   1.152   4.286   1.035
 6170SOL     OW19408   6.769   1.990   3.632
 6170SOL    HW119409   6.809   2.076   3.663
 6170SOL    HW219410   6.670   2.002   3.619
 6171SOL     OW19411   5.640   2.125   6.323
 6171SOL    HW119412   5.702   2.049   6.301
 6171SOL    HW219413   5.545   2.096   6.309
 6172SOL     OW19414   0.614   5.048   3.865
 6172SOL    HW119415   0.603   4.951   3.841
 6172SOL    HW219416   0.540   5.101   3.824
 6173SOL     OW19417   5.320   6.386   3.102
 6173SOL    HW119418   5.333   6.309   3.164
 6173SOL    HW219419   5.246   6.444   3.138
 6174SOL     OW19420   0.263   2.278   3.438
 6174SOL    HW119421   0.184   2.304   3.383
 6174SOL    HW219422   0.271   2.178   3.439
 6175SOL     OW19423   4.205   2.455   6.604
 6175SOL    HW119424   4.275   2.418   6.665
 6175SOL    HW219425   4.220   2.553   6.591
 6176SOL     OW19426   3.116   5.114   5.818
 6176SOL    HW119427   3.028   5.160   5.823
 6176SOL    HW219428   3.154   5.105   5.910
 6177SOL     OW19429   5.873   5.432   1.608
 6177SOL    HW119430   5.819   5.507   1.570
 6177SOL    HW219431   5.835   5.345   1.577
 6178SOL     OW19432   4.450   4.783   1.843
 6178SOL    HW119433   4.453   4.683   1.847
 6178SOL    HW219434   4.408   4.812   1.758
 6179SOL     OW19435   4.581   5.238   5.072
 6179SOL    HW119436   4.560   5.328   5.036
 6179SOL    HW219437   4.621   5.247   5.164
 6180SOL     OW19438   2.305   3.725   6.901
 6180SOL    HW119439   2.258   3.691   6.982
 6180SOL    HW219440   2.238   3.755   6.834
 6181SOL     OW19441   0.105   6.275   0.245
 6181SOL    HW119442   0.079   6.364   0.208
 6181SOL    HW219443   0.204   6.266   0.245
 6182SOL     OW19444   3.010   2.880   6.097
 6182SOL    HW119445   2.958   2.811   6.044
 6182SOL    HW219446   3.108   2.868   6.081
 6183SOL     OW19447   0.220   0.563   0.600
 6183SOL    HW119448   0.314   0.590   0.619
 6183SOL    HW219449   0.159   0.639   0.622
 6184SOL     OW19450   3.614   6.471   5.497
 6184SOL    HW119451   3.526   6.505   5.467
 6184SOL    HW219452   3.685   6.540   5.482
 6185SOL     OW19453   3.105   3.034   3.876
 6185SOL    HW119454   3.177   3.072   3.818
 6185SOL    HW219455   3.147   2.976   3.946
 6186SOL     OW19456   0.985   1.471   2.295
 6186SOL    HW119457   0.983   1.464   2.395
 6186SOL    HW219458   0.959   1.563   2.267
 6187SOL     OW19459   3.582   1.878   5.859
 6187SOL    HW119460   3.648   1.942   5.820
 6187SOL    HW219461   3.591   1.877   5.958
 6188SOL     OW19462   1.707   1.277   5.921
 6188SOL    HW119463   1.694   1.241   6.014
 6188SOL    HW219464   1.733   1.374   5.926
 6189SOL     OW19465   6.703   5.623   0.717
 6189SOL    HW119466   6.782   5.627   0.779
 6189SOL    HW219467   6.690   5.713   0.675
 6190SOL     OW19468   0.915   2.665   3.671
 6190SOL    HW119469   0.907   2.718   3.755
 6190SOL    HW219470   0.993   2.604   3.677
 6191SOL     OW19471   3.182   4.503   6.830
 6191SOL    HW119472   3.204   4.599   6.850
 6191SOL    HW219473   3.179   4.451   6.915
 6192SOL     OW19474   2.844   1.880   1.403
 6192SOL    HW119475   2.888   1.968   1.386
 6192SOL    HW219476   2.837   1.829   1.317
 6193SOL     OW19477   4.827   5.646   6.948
 6193SOL    HW119478   4.895   5.679   6.884
 6193SOL    HW219479   4.749   5.608   6.898
 6194SOL     OW19480   5.478   6.985   5.884
 6194SOL    HW119481   5.498   0.043   5.826
 6194SOL    HW219482   5.535   6.988   5.965
 6195SOL     OW19483   4.493   5.582   5.775
 6195SOL    HW119484   4.586   5.547   5.776
 6195SOL    HW219485   4.488   5.667   5.827
 6196SOL     OW19486   6.922   3.488   3.141
 6196SOL    HW119487   6.924   3.582   3.174
 6196SOL    HW219488   6.964   3.428   3.209
 6197SOL     OW19489   0.637   5.751   0.509
 6197SOL    HW119490   0.701   5.683   0.546
 6197SOL    HW219491   0.658   5.841   0.548
 6198SOL     OW19492   6.461   1.615   6.276
 6198SOL    HW119493   6.468   1.612   6.176
 6198SOL    HW219494   6.510   1.537   6.315
 6199SOL     OW19495   2.379   0.122   6.132
 6199SOL    HW119496   2.290   0.107   6.088
 6199SOL    HW219497   2.377   0.209   6.181
 6200SOL     OW19498   1.603   6.790   6.851
 6200SOL    HW119499   1.693   6.830   6.833
 6200SOL    HW219500   1.570   6.820   6.940
 6201SOL     OW19501   0.660   4.688   3.955
 6201SOL    HW119502   0.675   4.591   3.938
 6201SOL    HW219503   0.619   4.730   3.873
 6202SOL     OW19504   5.823   0.830   1.418
 6202SOL    HW119505   5.784   0.853   1.329
 6202SOL    HW219506   5.784   0.743   1.449
 6203SOL     OW19507   0.101   1.152   2.086
 6203SOL    HW119508   0.166   1.177   2.014
 6203SOL    HW219509   0.151   1.132   2.170
 6204SOL     OW19510   1.236   6.063   4.634
 6204SOL    HW119511   1.174   6.124   4.584
 6204SOL    HW219512   1.245   6.096   4.728
 6205SOL     OW19513   6.976   3.944   3.447
 6205SOL    HW119514   0.017   4.003   3.498
 6205SOL    HW219515   6.919   3.999   3.386
 6206SOL     OW19516   5.309   2.210   3.490
 6206SOL    HW119517   5.289   2.165   3.403
 6206SOL    HW219518   5.231   2.266   3.517
 6207SOL     OW19519   1.533   5.736   3.592
 6207SOL    HW119520   1.563   5.678   3.516
 6207SOL    HW219521   1.584   5.712   3.674
 6208SOL     OW19522   3.460   4.462   6.569
 6208SOL    HW119523   3.366   4.446   6.598
 6208SOL    HW219524   3.507   4.517   6.638
 6209SOL     OW19525   3.612   0.944   2.632
 6209SOL    HW119526   3.557   0.963   2.550
 6209SOL    HW219527   3.560   0.968   2.714
 6210SOL     OW19528   5.611   0.484   3.802
 6210SOL    HW119529   5.659   0.572   3.801
 6210SOL    HW219530   5.526   0.491   3.749
 6211SOL     OW19531   4.948   2.635   5.014
 6211SOL    HW119532   5.029   2.685   4.982
 6211SOL    HW219533   4.907   2.684   5.091
 6212SOL     OW19534   5.336   3.802   4.684
 6212SOL    HW119535   5.283   3.873   4.730
 6212SOL    HW219536   5.281   3.759   4.613
 6213SOL     OW19537   5.610   5.916   0.683
 6213SOL    HW119538   5.533   5.871   0.727
 6213SOL    HW219539   5.578   5.995   0.631
 6214SOL     OW19540   6.827   6.407   6.464
 6214SOL    HW119541   6.731   6.428   6.484
 6214SOL    HW219542   6.831   6.321   6.412
 6215SOL     OW19543   5.598   2.520   5.022
 6215SOL    HW119544   5.627   2.464   5.100
 6215SOL    HW219545   5.610   2.617   5.044
 6216SOL     OW19546   5.131   2.502   5.772
 6216SOL    HW119547   5.081   2.553   5.841
 6216SOL    HW219548   5.192   2.436   5.816
 6217SOL     OW19549   6.951   4.244   2.226
 6217SOL    HW119550   0.026   4.225   2.248
 6217SOL    HW219551   6.940   4.341   2.204
 6218SOL     OW19552   4.703   6.747   1.296
 6218SOL    HW119553   4.758   6.734   1.212
 6218SOL    HW219554   4.706   6.843   1.322
 6219SOL     OW19555   2.391   0.739   0.550
 6219SOL    HW119556   2.488   0.719   0.542
 6219SOL    HW219557   2.362   0.796   0.474
 6220SOL     OW19558   3.264   0.611   2.696
 6220SOL    HW119559   3.341   0.574   2.748
 6220SOL    HW219560   3.237   0.699   2.734
 6221SOL     OW19561   4.498   4.949   5.173
 6221SOL    HW119562   4.457   4.858   5.168
 6221SOL    HW219563   4.564   4.960   5.099
 6222SOL     OW19564   6.796   0.984   1.894
 6222SOL    HW119565   6.860   0.996   1.819
 6222SOL    HW219566   6.818   1.048   1.968
 6223SOL     OW19567   6.784   5.178   4.064
 6223SOL    HW119568   6.715   5.229   4.115
 6223SOL    HW219569   6.872   5.186   4.111
 6224SOL     OW19570   3.856   0.122   0.103
 6224SOL    HW119571   3.879   0.073   0.187
 6224SOL    HW219572   3.801   0.063   0.044
 6225SOL     OW19573   5.230   5.754   6.591
 6225SOL    HW119574   5.169   5.752   6.670
 6225SOL    HW219575   5.319   5.791   6.619
 6226SOL     OW19576   1.078   1.220   4.407
 6226SOL    HW119577   1.118   1.178   4.326
 6226SOL    HW219578   0.992   1.264   4.382
 6227SOL     OW19579   2.061   4.247   6.156
 6227SOL    HW119580   2.134   4.281   6.097
 6227SOL    HW219581   1.997   4.322   6.176
 6228SOL     OW19582   0.506   2.927   3.999
 6228SOL    HW119583   0.443   2.994   3.961
 6228SOL    HW219584   0.503   2.843   3.945
 6229SOL     OW19585   0.100   4.519   5.023
 6229SOL    HW119586   0.125   4.615   5.016
 6229SOL    HW219587   0.069   4.486   4.934
 6230SOL     OW19588   0.757   0.592   1.160
 6230SOL    HW119589   0.664   0.564   1.138
 6230SOL    HW219590   0.813   0.595   1.077
 6231SOL     OW19591   2.439   5.461   5.715
 6231SOL    HW119592   2.537   5.450   5.726
 6231SOL    HW219593   2.395   5.371   5.719
 6232SOL     OW19594   3.789   0.779   6.689
 6232SOL    HW119595   3.816   0.688   6.718
 6232SOL    HW219596   3.821   0.796   6.596
 6233SOL     OW19597   7.000   4.247   0.924
 6233SOL    HW119598   6.965   4.226   1.015
 6233SOL    HW219599   7.003   4.164   0.869
 6234SOL     OW19600   4.764   5.483   2.925
 6234SOL    HW119601   4.669   5.462   2.950
 6234SOL    HW219602   4.821   5.484   3.007
 6235SOL     OW19603   0.348   0.876   1.876
 6235SOL    HW119604   0.267   0.851   1.929
 6235SOL    HW219605   0.323   0.887   1.780
 6236SOL     OW19606   6.402   5.821   1.481
 6236SOL    HW119607   6.458   5.851   1.404
 6236SOL    HW219608   6.306   5.831   1.458
 6237SOL     OW19609   4.237   1.185   2.545
 6237SOL    HW119610   4.191   1.113   2.493
 6237SOL    HW219611   4.186   1.203   2.629
 6238SOL     OW19612   2.533   0.202   3.935
 6238SOL    HW119613   2.595   0.125   3.949
 6238SOL    HW219614   2.567   0.282   3.985
 6239SOL     OW19615   3.802   1.608   4.382
 6239SOL    HW119616   3.743   1.591   4.460
 6239SOL    HW219617   3.752   1.657   4.311
 6240SOL     OW19618   3.655   3.350   3.985
 6240SOL    HW119619   3.627   3.258   4.013
 6240SOL    HW219620   3.680   3.403   4.066
 6241SOL     OW19621   4.070   0.085   3.491
 6241SOL    HW119622   4.132   0.148   3.537
 6241SOL    HW219623   4.107   7.013   3.496
 6242SOL     OW19624   3.353   2.106   4.497
 6242SOL    HW119625   3.380   2.135   4.589
 6242SOL    HW219626   3.256   2.126   4.483
 6243SOL     OW19627   3.096   0.720   0.187
 6243SOL    HW119628   3.156   0.793   0.156
 6243SOL    HW219629   3.064   0.739   0.280
 6244SOL     OW19630   4.623   2.533   1.472
 6244SOL    HW119631   4.604   2.598   1.546
 6244SOL    HW219632   4.722   2.516   1.468
 6245SOL     OW19633   6.934   4.776   1.720
 6245SOL    HW119634   6.933   4.695   1.778
 6245SOL    HW219635   6.911   4.856   1.775
 6246SOL     OW19636   0.968   5.669   4.879
 6246SOL    HW119637   0.938   5.629   4.965
 6246SOL    HW219638   1.010   5.758   4.896
 6247SOL     OW19639   5.874   5.425   2.712
 6247SOL    HW119640   5.781   5.448   2.683
 6247SOL    HW219641   5.936   5.434   2.634
 6248SOL     OW19642   4.337   2.772   6.129
 6248SOL    HW119643   4.358   2.870   6.127
 6248SOL    HW219644   4.263   2.753   6.065
 6249SOL     OW19645   5.653   2.510   3.187
 6249SOL    HW119646   5.680   2.596   3.231
 6249SOL    HW219647   5.601   2.454   3.253
 6250SOL     OW19648   5.373   6.731   5.215
 6250SOL    HW119649   5.316   6.737   5.133
 6250SOL    HW219650   5.467   6.711   5.189
 6251SOL     OW19651   2.548   1.220   3.891
 6251SOL    HW119652   2.611   1.168   3.949
 6251SOL    HW219653   2.454   1.208   3.925
 6252SOL     OW19654   2.867   4.994   0.328
 6252SOL    HW119655   2.836   4.980   0.423
 6252SOL    HW219656   2.914   4.912   0.296
 6253SOL     OW19657   5.070   6.057   3.200
 6253SOL    HW119658   5.037   6.150   3.187
 6253SOL    HW219659   5.140   6.056   3.272
 6254SOL     OW19660   7.006   6.840   1.922
 6254SOL    HW119661   7.003   6.904   2.000
 6254SOL    HW219662   0.023   6.753   1.953
 6255SOL     OW19663   2.128   0.988   0.981
 6255SOL    HW119664   2.165   0.925   1.050
 6255SOL    HW219665   2.030   1.000   0.995
 6256SOL     OW19666   6.841   4.539   2.222
 6256SOL    HW119667   6.879   4.618   2.176
 6256SOL    HW219668   6.788   4.569   2.302
 6257SOL     OW19669   4.019   3.816   0.514
 6257SOL    HW119670   3.981   3.906   0.491
 6257SOL    HW219671   4.096   3.796   0.452
 6258SOL     OW19672   4.108   4.854   4.072
 6258SOL    HW119673   4.010   4.851   4.092
 6258SOL    HW219674   4.158   4.805   4.143
 6259SOL     OW19675   4.875   0.469   4.534
 6259SOL    HW119676   4.796   0.464   4.595
 6259SOL    HW219677   4.956   0.499   4.585
 6260SOL     OW19678   3.605   2.109   0.065
 6260SOL    HW119679   3.518   2.125   0.017
 6260SOL    HW219680   3.679   2.102   7.019
 6261SOL     OW19681   4.662   6.480   1.298
 6261SOL    HW119682   4.590   6.461   1.364
 6261SOL    HW219683   4.689   6.576   1.305
 6262SOL     OW19684   6.085   1.301   3.314
 6262SOL    HW119685   6.180   1.315   3.286
 6262SOL    HW219686   6.025   1.352   3.253
 6263SOL     OW19687   6.439   6.435   6.124
 6263SOL    HW119688   6.365   6.370   6.143
 6263SOL    HW219689   6.518   6.386   6.089
 6264SOL     OW19690   1.158   6.415   1.429
 6264SOL    HW119691   1.109   6.416   1.341
 6264SOL    HW219692   1.145   6.503   1.475
 6265SOL     OW19693   3.954   6.539   7.002
 6265SOL    HW119694   4.052   6.543   7.019
 6265SOL    HW219695   3.936   6.479   6.924
 6266SOL     OW19696   2.736   5.378   3.489
 6266SOL    HW119697   2.738   5.278   3.490
 6266SOL    HW219698   2.695   5.409   3.403
 6267SOL     OW19699   0.831   6.454   4.005
 6267SOL    HW119700   0.889   6.505   3.941
 6267SOL    HW219701   0.735   6.469   3.982
 6268SOL     OW19702   3.130   1.499   1.468
 6268SOL    HW119703   3.062   1.437   1.508
 6268SOL    HW219704   3.129   1.586   1.518
 6269SOL     OW19705   0.154   5.990   0.429
 6269SOL    HW119706   0.161   5.974   0.330
 6269SOL    HW219707   0.176   6.085   0.449
 6270SOL     OW19708   1.792   6.214   1.027
 6270SOL    HW119709   1.879   6.186   0.986
 6270SOL    HW219710   1.717   6.191   0.964
 6271SOL     OW19711   0.134   3.575   6.019
 6271SOL    HW119712   0.129   3.639   5.942
 6271SOL    HW219713   0.228   3.543   6.030
 6272SOL     OW19714   0.052   1.164   0.568
 6272SOL    HW119715   0.016   1.071   0.574
 6272SOL    HW219716   0.152   1.160   0.562
 6273SOL     OW19717   0.553   6.215   2.973
 6273SOL    HW119718   0.560   6.188   3.069
 6273SOL    HW219719   0.478   6.164   2.930
 6274SOL     OW19720   3.445   5.768   4.113
 6274SOL    HW119721   3.448   5.668   4.117
 6274SOL    HW219722   3.536   5.805   4.131
 6275SOL     OW19723   3.023   5.543   1.413
 6275SOL    HW119724   3.072   5.521   1.497
 6275SOL    HW219725   2.929   5.508   1.419
 6276SOL     OW19726   1.533   4.453   2.075
 6276SOL    HW119727   1.520   4.552   2.071
 6276SOL    HW219728   1.539   4.424   2.170
 6277SOL     OW19729   5.475   2.382   1.295
 6277SOL    HW119730   5.426   2.298   1.270
 6277SOL    HW219731   5.473   2.446   1.218
 6278SOL     OW19732   3.708   2.852   0.075
 6278SOL    HW119733   3.628   2.910   0.065
 6278SOL    HW219734   3.681   2.764   0.114
 6279SOL     OW19735   1.130   6.625   2.255
 6279SOL    HW119736   1.140   6.527   2.271
 6279SOL    HW219737   1.076   6.640   2.172
 6280SOL     OW19738   4.964   0.855   6.908
 6280SOL    HW119739   5.057   0.887   6.887
 6280SOL    HW219740   4.925   0.911   6.981
 6281SOL     OW19741   5.731   3.690   6.216
 6281SOL    HW119742   5.665   3.748   6.264
 6281SOL    HW219743   5.823   3.723   6.233
 6282SOL     OW19744   0.603   4.076   5.809
 6282SOL    HW119745   0.570   4.007   5.745
 6282SOL    HW219746   0.695   4.054   5.838
 6283SOL     OW19747   2.331   0.202   4.665
 6283SOL    HW119748   2.235   0.228   4.673
 6283SOL    HW219749   2.380   0.270   4.610
 6284SOL     OW19750   1.825   3.864   6.422
 6284SOL    HW119751   1.758   3.885   6.493
 6284SOL    HW219752   1.854   3.768   6.430
 6285SOL     OW19753   1.792   4.512   3.727
 6285SOL    HW119754   1.731   4.591   3.735
 6285SOL    HW219755   1.859   4.528   3.655
 6286SOL     OW19756   0.990   3.192   6.712
 6286SOL    HW119757   0.924   3.130   6.669
 6286SOL    HW219758   0.993   3.278   6.661
 6287SOL     OW19759   4.121   5.275   5.186
 6287SOL    HW119760   4.074   5.256   5.272
 6287SOL    HW219761   4.195   5.340   5.203
 6288SOL     OW19762   3.404   4.042   5.946
 6288SOL    HW119763   3.499   4.072   5.935
 6288SOL    HW219764   3.379   3.980   5.871
 6289SOL     OW19765   2.536   4.930   5.415
 6289SOL    HW119766   2.451   4.935   5.361
 6289SOL    HW219767   2.562   4.834   5.425
 6290SOL     OW19768   6.317   0.405   2.837
 6290SOL    HW119769   6.331   0.438   2.930
 6290SOL    HW219770   6.250   0.330   2.838
 6291SOL     OW19771   3.055   3.051   2.506
 6291SOL    HW119772   2.962   3.017   2.517
 6291SOL    HW219773   3.116   3.005   2.572
 6292SOL     OW19774   1.068   4.254   5.018
 6292SOL    HW119775   1.114   4.277   4.933
 6292SOL    HW219776   1.136   4.236   5.089
 6293SOL     OW19777   2.633   1.072   0.432
 6293SOL    HW119778   2.595   0.980   0.443
 6293SOL    HW219779   2.724   1.066   0.391
 6294SOL     OW19780   1.766   0.396   2.232
 6294SOL    HW119781   1.858   0.427   2.256
 6294SOL    HW219782   1.700   0.440   2.293
 6295SOL     OW19783   4.431   2.601   5.550
 6295SOL    HW119784   4.378   2.524   5.515
 6295SOL    HW219785   4.406   2.620   5.645
 6296SOL     OW19786   0.008   1.924   0.217
 6296SOL    HW119787   6.962   1.949   0.287
 6296SOL    HW219788   6.989   1.941   0.126
 6297SOL     OW19789   0.181   1.155   4.196
 6297SOL    HW119790   0.084   1.178   4.193
 6297SOL    HW219791   0.206   1.107   4.112
 6298SOL     OW19792   6.637   0.674   6.630
 6298SOL    HW119793   6.604   0.611   6.700
 6298SOL    HW219794   6.660   0.762   6.672
 6299SOL     OW19795   3.160   1.413   3.714
 6299SOL    HW119796   3.108   1.343   3.762
 6299SOL    HW219797   3.239   1.440   3.769
 6300SOL     OW19798   2.956   2.133   1.350
 6300SOL    HW119799   3.025   2.136   1.422
 6300SOL    HW219800   2.892   2.209   1.362
 6301SOL     OW19801   3.897   6.520   0.939
 6301SOL    HW119802   3.994   6.540   0.930
 6301SOL    HW219803   3.846   6.566   0.866
 6302SOL     OW19804   1.627   3.595   0.346
 6302SOL    HW119805   1.652   3.685   0.383
 6302SOL    HW219806   1.581   3.542   0.417
 6303SOL     OW19807   6.515   4.705   4.975
 6303SOL    HW119808   6.521   4.618   4.926
 6303SOL    HW219809   6.585   4.707   5.047
 6304SOL     OW19810   2.174   2.545   4.420
 6304SOL    HW119811   2.197   2.468   4.360
 6304SOL    HW219812   2.208   2.630   4.380
 6305SOL     OW19813   1.226   5.887   5.109
 6305SOL    HW119814   1.313   5.906   5.154
 6305SOL    HW219815   1.224   5.791   5.079
 6306SOL     OW19816   1.192   4.212   3.772
 6306SOL    HW119817   1.187   4.122   3.728
 6306SOL    HW219818   1.164   4.204   3.868
 6307SOL     OW19819   3.393   3.427   2.933
 6307SOL    HW119820   3.369   3.503   2.872
 6307SOL    HW219821   3.346   3.344   2.902
 6308SOL     OW19822   1.048   0.766   1.283
 6308SOL    HW119823   1.113   0.696   1.253
 6308SOL    HW219824   1.097   0.838   1.333
 6309SOL     OW19825   1.812   5.910   5.364
 6309SOL    HW119826   1.754   5.921   5.445
 6309SOL    HW219827   1.770   5.844   5.301
 6310SOL     OW19828   1.106   6.774   3.288
 6310SOL    HW119829   1.127   6.690   3.237
 6310SOL    HW219830   1.057   6.750   3.372
 6311SOL     OW19831   5.682   1.505   6.175
 6311SOL    HW119832   5.626   1.478   6.254
 6311SOL    HW219833   5.653   1.595   6.143
 6312SOL     OW19834   3.828   5.386   1.831
 6312SOL    HW119835   3.890   5.459   1.860
 6312SOL    HW219836   3.860   5.348   1.744
 6313SOL     OW19837   5.433   4.974   2.791
 6313SOL    HW119838   5.387   4.994   2.704
 6313SOL    HW219839   5.530   4.994   2.783
 6314SOL     OW19840   1.956   6.396   2.987
 6314SOL    HW119841   2.016   6.444   2.924
 6314SOL    HW219842   2.004   6.317   3.025
 6315SOL     OW19843   2.235   2.580   2.991
 6315SOL    HW119844   2.237   2.526   3.075
 6315SOL    HW219845   2.215   2.675   3.013
 6316SOL     OW19846   4.722   0.570   4.763
 6316SOL    HW119847   4.751   0.662   4.789
 6316SOL    HW219848   4.624   0.570   4.746
 6317SOL     OW19849   4.906   3.692   3.313
 6317SOL    HW119850   4.961   3.634   3.252
 6317SOL    HW219851   4.866   3.767   3.261
 6318SOL     OW19852   5.613   0.008   0.224
 6318SOL    HW119853   5.664   0.028   0.141
 6318SOL    HW219854   5.640   6.940   0.260
 6319SOL     OW19855   4.631   2.689   4.194
 6319SOL    HW119856   4.555   2.668   4.255
 6319SOL    HW219857   4.716   2.658   4.235
 6320SOL     OW19858   5.808   2.301   6.451
 6320SOL    HW119859   5.725   2.267   6.408
 6320SOL    HW219860   5.885   2.294   6.388
 6321SOL     OW19861   0.962   4.023   0.367
 6321SOL    HW119862   0.896   4.054   0.299
 6321SOL    HW219863   0.982   4.098   0.430
 6322SOL     OW19864   2.159   1.257   2.856
 6322SOL    HW119865   2.180   1.182   2.919
 6322SOL    HW219866   2.241   1.277   2.802
 6323SOL     OW19867   2.004   6.027   0.928
 6323SOL    HW119868   2.101   6.043   0.944
 6323SOL    HW219869   1.983   5.931   0.949
 6324SOL     OW19870   5.229   3.911   1.635
 6324SOL    HW119871   5.199   3.848   1.564
 6324SOL    HW219872   5.307   3.872   1.684
 6325SOL     OW19873   1.135   3.352   4.071
 6325SOL    HW119874   1.229   3.348   4.106
 6325SOL    HW219875   1.094   3.261   4.077
 6326SOL     OW19876   5.163   5.440   4.976
 6326SOL    HW119877   5.156   5.438   5.076
 6326SOL    HW219878   5.150   5.533   4.944
 6327SOL     OW19879   0.837   0.953   2.800
 6327SOL    HW119880   0.813   0.860   2.770
 6327SOL    HW219881   0.755   0.998   2.837
 6328SOL     OW19882   4.115   3.372   4.996
 6328SOL    HW119883   4.083   3.298   4.936
 6328SOL    HW219884   4.205   3.349   5.032
 6329SOL     OW19885   0.407   3.039   4.796
 6329SOL    HW119886   0.389   2.940   4.800
 6329SOL    HW219887   0.477   3.057   4.727
 6330SOL     OW19888   4.227   2.059   3.218
 6330SOL    HW119889   4.295   2.048   3.145
 6330SOL    HW219890   4.270   2.042   3.306
 6331SOL     OW19891   1.784   3.401   3.525
 6331SOL    HW119892   1.748   3.350   3.447
 6331SOL    HW219893   1.769   3.349   3.609
 6332SOL     OW19894   4.514   2.346   0.269
 6332SOL    HW119895   4.505   2.387   0.360
 6332SOL    HW219896   4.594   2.286   0.268
 6333SOL     OW19897   5.892   1.356   0.047
 6333SOL    HW119898   5.988   1.383   0.041
 6333SOL    HW219899   5.839   1.429   0.090
 6334SOL     OW19900   2.266   1.039   1.625
 6334SOL    HW119901   2.357   1.076   1.647
 6334SOL    HW219902   2.196   1.106   1.651
 6335SOL     OW19903   5.688   2.768   5.112
 6335SOL    HW119904   5.736   2.764   5.200
 6335SOL    HW219905   5.624   2.845   5.113
 6336SOL     OW19906   0.752   5.519   5.996
 6336SOL    HW119907   0.713   5.608   5.972
 6336SOL    HW219908   0.692   5.446   5.965
 6337SOL     OW19909   6.296   0.270   5.558
 6337SOL    HW119910   6.286   0.215   5.640
 6337SOL    HW219911   6.223   0.247   5.493
 6338SOL     OW19912   0.751   0.696   2.703
 6338SOL    HW119913   0.725   0.638   2.781
 6338SOL    HW219914   0.807   0.644   2.640
 6339SOL     OW19915   6.949   3.734   3.266
 6339SOL    HW119916   6.962   3.792   3.347
 6339SOL    HW219917   7.000   3.772   3.189
 6340SOL     OW19918   2.204   5.505   6.556
 6340SOL    HW119919   2.209   5.406   6.555
 6340SOL    HW219920   2.253   5.540   6.636
 6341SOL     OW19921   0.990   4.390   2.929
 6341SOL    HW119922   1.082   4.411   2.895
 6341SOL    HW219923   0.944   4.329   2.865
 6342SOL     OW19924   2.529   6.888   1.443
 6342SOL    HW119925   2.615   6.840   1.423
 6342SOL    HW219926   2.545   6.987   1.442
 6343SOL     OW19927   1.486   4.608   6.651
 6343SOL    HW119928   1.524   4.547   6.581
 6343SOL    HW219929   1.458   4.694   6.608
 6344SOL     OW19930   1.859   1.340   4.104
 6344SOL    HW119931   1.768   1.381   4.099
 6344SOL    HW219932   1.862   1.259   4.045
 6345SOL     OW19933   0.499   3.106   3.156
 6345SOL    HW119934   0.465   3.158   3.234
 6345SOL    HW219935   0.557   3.031   3.189
 6346SOL     OW19936   0.643   4.420   3.884
 6346SOL    HW119937   0.592   4.409   3.799
 6346SOL    HW219938   0.590   4.382   3.960
 6347SOL     OW19939   2.092   1.536   2.659
 6347SOL    HW119940   2.127   1.569   2.572
 6347SOL    HW219941   2.108   1.437   2.665
 6348SOL     OW19942   1.586   2.678   0.378
 6348SOL    HW119943   1.560   2.739   0.304
 6348SOL    HW219944   1.525   2.691   0.456
 6349SOL     OW19945   6.344   1.392   0.833
 6349SOL    HW119946   6.366   1.410   0.929
 6349SOL    HW219947   6.247   1.368   0.825
 6350SOL     OW19948   0.255   0.017   1.437
 6350SOL    HW119949   0.171   0.047   1.484
 6350SOL    HW219950   0.321   7.005   1.505
 6351SOL     OW19951   6.212   2.572   2.194
 6351SOL    HW119952   6.124   2.619   2.181
 6351SOL    HW219953   6.277   2.634   2.239
 6352SOL     OW19954   4.191   0.608   5.381
 6352SOL    HW119955   4.204   0.584   5.285
 6352SOL    HW219956   4.213   0.704   5.395
 6353SOL     OW19957   3.907   5.981   5.836
 6353SOL    HW119958   3.854   6.059   5.868
 6353SOL    HW219959   4.003   5.993   5.861
 6354SOL     OW19960   5.783   5.018   2.626
 6354SOL    HW119961   5.869   4.976   2.596
 6354SOL    HW219962   5.756   5.089   2.561
 6355SOL     OW19963   4.772   6.425   6.845
 6355SOL    HW119964   4.759   6.343   6.900
 6355SOL    HW219965   4.847   6.411   6.780
 6356SOL     OW19966   0.617   6.831   6.139
 6356SOL    HW119967   0.705   6.871   6.113
 6356SOL    HW219968   0.633   6.749   6.194
 6357SOL     OW19969   4.648   1.493   2.959
 6357SOL    HW119970   4.642   1.580   2.911
 6357SOL    HW219971   4.573   1.487   3.026
 6358SOL     OW19972   1.495   1.435   4.841
 6358SOL    HW119973   1.419   1.377   4.812
 6358SOL    HW219974   1.483   1.461   4.936
 6359SOL     OW19975   6.543   4.294   0.783
 6359SOL    HW119976   6.469   4.295   0.849
 6359SOL    HW219977   6.552   4.385   0.742
 6360SOL     OW19978   2.970   3.116   0.824
 6360SOL    HW119979   2.873   3.136   0.840
 6360SOL    HW219980   3.003   3.052   0.893
 6361SOL     OW19981   0.124   2.606   2.745
 6361SOL    HW119982   0.133   2.668   2.667
 6361SOL    HW219983   0.051   2.540   2.727
 6362SOL     OW19984   2.112   5.571   0.634
 6362SOL    HW119985   2.133   5.494   0.574
 6362SOL    HW219986   2.099   5.654   0.578
 6363SOL     OW19987   0.837   2.359   1.268
 6363SOL    HW119988   0.853   2.298   1.345
 6363SOL    HW219989   0.870   2.315   1.184
 6364SOL     OW19990   2.786   2.096   4.153
 6364SOL    HW119991   2.821   2.163   4.218
 6364SOL    HW219992   2.807   2.126   4.060
 6365SOL     OW19993   6.357   6.701   1.968
 6365SOL    HW119994   6.393   6.792   1.989
 6365SOL    HW219995   6.292   6.708   1.893
 6366SOL     OW19996   5.886   1.174   5.228
 6366SOL    HW119997   5.916   1.260   5.186
 6366SOL    HW219998   5.912   1.097   5.170
 6367SOL     OW19999   1.660   3.081   4.515
 6367SOL    HW120000   1.668   3.020   4.594
 6367SOL    HW220001   1.655   3.027   4.431
 6368SOL     OW20002   5.427   3.413   5.060
 6368SOL    HW120003   5.365   3.461   5.122
 6368SOL    HW220004   5.426   3.459   4.971
 6369SOL     OW20005   3.459   4.659   0.465
 6369SOL    HW120006   3.433   4.675   0.560
 6369SOL    HW220007   3.452   4.561   0.445
 6370SOL     OW20008   6.176   3.695   4.854
 6370SOL    HW120009   6.212   3.776   4.808
 6370SOL    HW220010   6.253   3.638   4.885
 6371SOL     OW20011   6.114   4.592   1.109
 6371SOL    HW120012   6.125   4.632   1.200
 6371SOL    HW220013   6.186   4.626   1.048
 6372SOL     OW20014   6.177   1.437   1.458
 6372SOL    HW120015   6.160   1.339   1.470
 6372SOL    HW220016   6.261   1.463   1.507
 6373SOL     OW20017   5.798   1.591   1.133
 6373SOL    HW120018   5.820   1.687   1.117
 6373SOL    HW220019   5.775   1.578   1.230
 6374SOL     OW20020   3.593   3.212   6.355
 6374SOL    HW120021   3.650   3.159   6.418
 6374SOL    HW220022   3.572   3.158   6.274
 6375SOL     OW20023   5.525   0.984   1.653
 6375SOL    HW120024   5.471   0.946   1.728
 6375SOL    HW220025   5.506   0.934   1.569
 6376SOL     OW20026   3.035   6.738   0.103
 6376SOL    HW120027   3.014   6.667   0.035
 6376SOL    HW220028   3.118   6.712   0.153
 6377SOL     OW20029   6.999   1.157   0.172
 6377SOL    HW120030   0.034   1.162   0.089
 6377SOL    HW220031   0.031   1.188   0.250
 6378SOL     OW20032   5.687   3.865   3.373
 6378SOL    HW120033   5.595   3.891   3.342
 6378SOL    HW220034   5.753   3.882   3.300
 6379SOL     OW20035   2.455   4.947   6.475
 6379SOL    HW120036   2.445   4.922   6.379
 6379SOL    HW220037   2.407   4.880   6.532
 6380SOL     OW20038   1.937   2.601   4.524
 6380SOL    HW120039   1.891   2.660   4.457
 6380SOL    HW220040   2.020   2.563   4.484
 6381SOL     OW20041   3.461   4.299   1.070
 6381SOL    HW120042   3.368   4.334   1.075
 6381SOL    HW220043   3.464   4.224   1.004
 6382SOL     OW20044   1.609   1.161   1.112
 6382SOL    HW120045   1.679   1.117   1.168
 6382SOL    HW220046   1.653   1.214   1.040
 6383SOL     OW20047   2.706   1.926   2.588
 6383SOL    HW120048   2.728   1.844   2.642
 6383SOL    HW220049   2.782   1.946   2.527
 6384SOL     OW20050   0.276   1.691   2.225
 6384SOL    HW120051   0.267   1.634   2.144
 6384SOL    HW220052   0.354   1.660   2.279
 6385SOL     OW20053   0.123   3.834   1.553
 6385SOL    HW120054   0.145   3.738   1.540
 6385SOL    HW220055   0.098   3.851   1.648
 6386SOL     OW20056   2.943   4.384   0.540
 6386SOL    HW120057   2.894   4.460   0.582
 6386SOL    HW220058   2.881   4.307   0.528
 6387SOL     OW20059   6.286   1.030   5.457
 6387SOL    HW120060   6.347   1.051   5.534
 6387SOL    HW220061   6.332   1.055   5.372
 6388SOL     OW20062   6.286   5.055   1.982
 6388SOL    HW120063   6.321   4.967   1.949
 6388SOL    HW220064   6.339   5.129   1.943
 6389SOL     OW20065   6.746   6.466   0.994
 6389SOL    HW120066   6.653   6.474   0.957
 6389SOL    HW220067   6.797   6.401   0.938
 6390SOL     OW20068   4.763   6.162   0.410
 6390SOL    HW120069   4.720   6.108   0.482
 6390SOL    HW220070   4.706   6.241   0.388
 6391SOL     OW20071   1.221   1.864   5.019
 6391SOL    HW120072   1.132   1.901   5.046
 6391SOL    HW220073   1.256   1.804   5.091
 6392SOL     OW20074   4.757   6.334   3.331
 6392SOL    HW120075   4.699   6.255   3.314
 6392SOL    HW220076   4.829   6.339   3.262
 6393SOL     OW20077   2.459   4.938   0.018
 6393SOL    HW120078   2.521   4.973   0.088
 6393SOL    HW220079   2.448   5.007   6.967
 6394SOL     OW20080   1.591   5.273   2.322
 6394SOL    HW120081   1.667   5.333   2.346
 6394SOL    HW220082   1.622   5.178   2.327
 6395SOL     OW20083   1.011   3.935   5.388
 6395SOL    HW120084   1.057   3.961   5.303
 6395SOL    HW220085   0.971   3.844   5.378
 6396SOL     OW20086   1.127   3.210   4.445
 6396SOL    HW120087   1.134   3.274   4.521
 6396SOL    HW220088   1.215   3.165   4.430
 6397SOL     OW20089   0.323   3.426   4.495
 6397SOL    HW120090   0.409   3.438   4.446
 6397SOL    HW220091   0.263   3.504   4.474
 6398SOL     OW20092   0.648   0.121   2.942
 6398SOL    HW120093   0.662   0.080   2.852
 6398SOL    HW220094   0.724   0.182   2.963
 6399SOL     OW20095   2.736   6.954   6.727
 6399SOL    HW120096   2.675   0.011   6.741
 6399SOL    HW220097   2.720   6.915   6.637
 6400SOL     OW20098   0.806   6.115   3.003
 6400SOL    HW120099   0.721   6.162   2.981
 6400SOL    HW220100   0.878   6.182   3.019
 6401SOL     OW20101   4.068   4.827   1.577
 6401SOL    HW120102   4.042   4.856   1.484
 6401SOL    HW220103   3.989   4.784   1.621
 6402SOL     OW20104   3.255   3.244   6.088
 6402SOL    HW120105   3.227   3.179   6.017
 6402SOL    HW220106   3.173   3.283   6.131
 6403SOL     OW20107   3.639   5.165   5.661
 6403SOL    HW120108   3.664   5.210   5.747
 6403SOL    HW220109   3.696   5.084   5.648
 6404SOL     OW20110   5.350   5.980   5.937
 6404SOL    HW120111   5.255   5.967   5.909
 6404SOL    HW220112   5.401   6.021   5.862
 6405SOL     OW20113   4.589   0.797   3.142
 6405SOL    HW120114   4.679   0.784   3.185
 6405SOL    HW220115   4.566   0.894   3.144
 6406SOL     OW20116   0.423   3.380   2.143
 6406SOL    HW120117   0.515   3.404   2.173
 6406SOL    HW220118   0.367   3.462   2.138
 6407SOL     OW20119   0.195   0.115   2.694
 6407SOL    HW120120   0.180   0.158   2.604
 6407SOL    HW220121   0.109   0.115   2.745
 6408SOL     OW20122   6.691   1.372   2.119
 6408SOL    HW120123   6.770   1.417   2.160
 6408SOL    HW220124   6.703   1.369   2.019
 6409SOL     OW20125   6.607   4.311   3.986
 6409SOL    HW120126   6.603   4.409   4.001
 6409SOL    HW220127   6.538   4.266   4.042
 6410SOL     OW20128   1.361   0.747   6.903
 6410SOL    HW120129   1.320   0.666   6.945
 6410SOL    HW220130   1.297   0.787   6.837
 6411SOL     OW20131   1.128   2.253   4.383
 6411SOL    HW120132   1.159   2.214   4.469
 6411SOL    HW220133   1.029   2.267   4.386
 6412SOL     OW20134   4.170   0.326   0.105
 6412SOL    HW120135   4.219   0.402   0.148
 6412SOL    HW220136   4.236   0.261   0.068
 6413SOL     OW20137   4.626   5.898   3.212
 6413SOL    HW120138   4.722   5.887   3.188
 6413SOL    HW220139   4.603   5.837   3.288
 6414SOL     OW20140   3.400   0.427   0.450
 6414SOL    HW120141   3.353   0.483   0.381
 6414SOL    HW220142   3.473   0.376   0.406
 6415SOL     OW20143   0.159   1.848   3.327
 6415SOL    HW120144   0.230   1.896   3.379
 6415SOL    HW220145   0.175   1.749   3.332
 6416SOL     OW20146   3.049   4.315   0.210
 6416SOL    HW120147   2.976   4.264   0.257
 6416SOL    HW220148   3.037   4.413   0.226
 6417SOL     OW20149   4.644   3.419   6.182
 6417SOL    HW120150   4.582   3.432   6.105
 6417SOL    HW220151   4.710   3.493   6.185
 6418SOL     OW20152   5.094   5.125   0.492
 6418SOL    HW120153   5.022   5.065   0.526
 6418SOL    HW220154   5.066   5.168   0.407
 6419SOL     OW20155   1.554   6.873   6.475
 6419SOL    HW120156   1.534   6.951   6.534
 6419SOL    HW220157   1.603   6.905   6.394
 6420SOL     OW20158   1.996   5.013   3.582
 6420SOL    HW120159   1.978   5.110   3.570
 6420SOL    HW220160   2.092   4.993   3.561
 6421SOL     OW20161   5.020   6.675   1.728
 6421SOL    HW120162   5.027   6.577   1.747
 6421SOL    HW220163   5.040   6.726   1.811
 6422SOL     OW20164   1.061   0.853   5.270
 6422SOL    HW120165   0.995   0.924   5.293
 6422SOL    HW220166   1.140   0.894   5.225
 6423SOL     OW20167   1.232   3.831   4.326
 6423SOL    HW120168   1.282   3.744   4.331
 6423SOL    HW220169   1.293   3.906   4.353
 6424SOL     OW20170   6.312   4.192   5.421
 6424SOL    HW120171   6.380   4.264   5.434
 6424SOL    HW220172   6.322   4.123   5.492
 6425SOL     OW20173   0.817   6.973   5.020
 6425SOL    HW120174   0.751   6.907   5.056
 6425SOL    HW220175   0.875   7.007   5.094
 6426SOL     OW20176   3.296   5.180   3.445
 6426SOL    HW120177   3.341   5.153   3.530
 6426SOL    HW220178   3.363   5.218   3.382
 6427SOL     OW20179   3.273   3.527   3.194
 6427SOL    HW120180   3.306   3.449   3.140
 6427SOL    HW220181   3.173   3.521   3.203
 6428SOL     OW20182   6.426   2.969   6.721
 6428SOL    HW120183   6.379   3.058   6.719
 6428SOL    HW220184   6.525   2.984   6.716
 6429SOL     OW20185   2.842   1.720   4.684
 6429SOL    HW120186   2.803   1.655   4.750
 6429SOL    HW220187   2.768   1.767   4.636
 6430SOL     OW20188   6.620   1.364   4.560
 6430SOL    HW120189   6.640   1.325   4.650
 6430SOL    HW220190   6.524   1.391   4.556
 6431SOL     OW20191   3.256   4.850   3.081
 6431SOL    HW120192   3.267   4.779   3.150
 6431SOL    HW220193   3.162   4.885   3.084
 6432SOL     OW20194   4.373   3.415   6.797
 6432SOL    HW120195   4.356   3.461   6.710
 6432SOL    HW220196   4.468   3.383   6.799
 6433SOL     OW20197   4.037   5.007   6.237
 6433SOL    HW120198   4.075   5.099   6.229
 6433SOL    HW220199   3.938   5.012   6.243
 6434SOL     OW20200   6.645   4.652   6.285
 6434SOL    HW120201   6.695   4.681   6.204
 6434SOL    HW220202   6.564   4.709   6.297
 6435SOL     OW20203   4.443   1.273   0.671
 6435SOL    HW120204   4.444   1.189   0.616
 6435SOL    HW220205   4.359   1.324   0.652
 6436SOL     OW20206   0.949   1.812   3.991
 6436SOL    HW120207   0.892   1.817   3.909
 6436SOL    HW220208   1.042   1.789   3.966
 6437SOL     OW20209   1.174   2.805   6.730
 6437SOL    HW120210   1.259   2.755   6.717
 6437SOL    HW220211   1.103   2.768   6.669
 6438SOL     OW20212   0.607   5.752   1.269
 6438SOL    HW120213   0.627   5.710   1.358
 6438SOL    HW220214   0.514   5.729   1.241
 6439SOL     OW20215   4.588   6.382   2.965
 6439SOL    HW120216   4.594   6.353   2.870
 6439SOL    HW220217   4.493   6.404   2.987
 6440SOL     OW20218   2.275   2.422   5.748
 6440SOL    HW120219   2.210   2.365   5.799
 6440SOL    HW220220   2.330   2.364   5.688
 6441SOL     OW20221   1.333   1.819   1.062
 6441SOL    HW120222   1.237   1.815   1.034
 6441SOL    HW220223   1.356   1.737   1.115
 6442SOL     OW20224   3.012   1.692   4.428
 6442SOL    HW120225   3.104   1.719   4.456
 6442SOL    HW220226   2.952   1.692   4.508
 6443SOL     OW20227   2.658   2.317   5.864
 6443SOL    HW120228   2.615   2.286   5.780
 6443SOL    HW220229   2.755   2.337   5.847
 6444SOL     OW20230   0.121   4.089   5.559
 6444SOL    HW120231   0.055   4.063   5.488
 6444SOL    HW220232   0.200   4.027   5.554
 6445SOL     OW20233   3.389   3.110   3.744
 6445SOL    HW120234   3.467   3.073   3.694
 6445SOL    HW220235   3.354   3.191   3.696
 6446SOL     OW20236   1.151   0.389   2.016
 6446SOL    HW120237   1.072   0.407   2.075
 6446SOL    HW220238   1.154   0.291   1.995
 6447SOL     OW20239   6.796   3.714   1.421
 6447SOL    HW120240   6.753   3.684   1.336
 6447SOL    HW220241   6.851   3.639   1.458
 6448SOL     OW20242   4.018   4.096   1.581
 6448SOL    HW120243   4.074   4.020   1.613
 6448SOL    HW220244   3.922   4.066   1.573
 6449SOL     OW20245   4.546   5.753   0.278
 6449SOL    HW120246   4.605   5.685   0.323
 6449SOL    HW220247   4.461   5.762   0.330
 6450SOL     OW20248   4.477   3.333   0.979
 6450SOL    HW120249   4.475   3.244   0.932
 6450SOL    HW220250   4.453   3.320   1.075
 6451SOL     OW20251   4.520   3.139   1.461
 6451SOL    HW120252   4.595   3.076   1.482
 6451SOL    HW220253   4.438   3.086   1.440
 6452SOL     OW20254   4.258   1.709   4.443
 6452SOL    HW120255   4.259   1.805   4.415
 6452SOL    HW220256   4.351   1.673   4.442
 6453SOL     OW20257   3.495   1.020   3.109
 6453SOL    HW120258   3.498   1.100   3.168
 6453SOL    HW220259   3.588   0.988   3.091
 6454SOL     OW20260   4.719   3.498   5.567
 6454SOL    HW120261   4.692   3.414   5.521
 6454SOL    HW220262   4.704   3.576   5.507
 6455SOL     OW20263   0.303   2.991   5.333
 6455SOL    HW120264   0.302   3.091   5.342
 6455SOL    HW220265   0.394   2.956   5.355
 6456SOL     OW20266   6.391   1.952   2.941
 6456SOL    HW120267   6.472   2.002   2.971
 6456SOL    HW220268   6.309   2.003   2.969
 6457SOL     OW20269   1.477   6.397   3.359
 6457SOL    HW120270   1.435   6.308   3.343
 6457SOL    HW220271   1.521   6.399   3.448
 6458SOL     OW20272   0.969   0.234   5.090
 6458SOL    HW120273   0.970   0.203   5.185
 6458SOL    HW220274   0.875   0.235   5.057
 6459SOL     OW20275   0.483   3.538   3.188
 6459SOL    HW120276   0.575   3.498   3.184
 6459SOL    HW220277   0.437   3.506   3.271
 6460SOL     OW20278   1.614   5.068   5.757
 6460SOL    HW120279   1.592   5.163   5.778
 6460SOL    HW220280   1.598   5.011   5.838
 6461SOL     OW20281   0.217   6.711   2.383
 6461SOL    HW120282   0.226   6.797   2.433
 6461SOL    HW220283   0.137   6.715   2.322
 6462SOL     OW20284   2.522   4.162   5.551
 6462SOL    HW120285   2.618   4.145   5.525
 6462SOL    HW220286   2.467   4.174   5.468
 6463SOL     OW20287   4.875   3.235   1.790
 6463SOL    HW120288   4.799   3.170   1.800
 6463SOL    HW220289   4.958   3.194   1.827
 6464SOL     OW20290   0.993   3.234   3.508
 6464SOL    HW120291   0.918   3.248   3.443
 6464SOL    HW220292   1.061   3.306   3.495
 6465SOL     OW20293   2.446   1.325   2.705
 6465SOL    HW120294   2.478   1.374   2.785
 6465SOL    HW220295   2.433   1.229   2.728
 6466SOL     OW20296   6.642   5.247   6.731
 6466SOL    HW120297   6.651   5.221   6.635
 6466SOL    HW220298   6.708   5.320   6.751
 6467SOL     OW20299   2.768   3.282   5.855
 6467SOL    HW120300   2.848   3.250   5.906
 6467SOL    HW220301   2.797   3.320   5.768
 6468SOL     OW20302   0.855   0.971   0.168
 6468SOL    HW120303   0.938   0.918   0.186
 6468SOL    HW220304   0.880   1.063   0.137
 6469SOL     OW20305   2.577   1.093   0.963
 6469SOL    HW120306   2.507   1.058   0.901
 6469SOL    HW220307   2.542   1.092   1.057
 6470SOL     OW20308   5.955   0.618   6.469
 6470SOL    HW120309   5.917   0.561   6.396
 6470SOL    HW220310   5.917   0.590   6.557
 6471SOL     OW20311   1.117   6.549   5.560
 6471SOL    HW120312   1.053   6.474   5.578
 6471SOL    HW220313   1.067   6.636   5.557
 6472SOL     OW20314   0.902   6.327   1.491
 6472SOL    HW120315   0.853   6.363   1.571
 6472SOL    HW220316   0.985   6.381   1.476
 6473SOL     OW20317   2.751   1.811   3.993
 6473SOL    HW120318   2.703   1.884   4.040
 6473SOL    HW220319   2.803   1.757   4.059
 6474SOL     OW20320   3.782   0.434   4.007
 6474SOL    HW120321   3.822   0.525   4.002
 6474SOL    HW220322   3.846   0.372   4.053
 6475SOL     OW20323   5.387   5.963   3.638
 6475SOL    HW120324   5.484   5.937   3.640
 6475SOL    HW220325   5.331   5.884   3.661
 6476SOL     OW20326   5.374   3.890   5.250
 6476SOL    HW120327   5.347   3.986   5.245
 6476SOL    HW220328   5.454   3.874   5.192
 6477SOL     OW20329   1.369   6.813   0.737
 6477SOL    HW120330   1.289   6.766   0.699
 6477SOL    HW220331   1.366   6.807   0.837
 6478SOL     OW20332   1.982   6.028   6.825
 6478SOL    HW120333   2.021   5.951   6.774
 6478SOL    HW220334   1.979   6.005   6.922
 6479SOL     OW20335   4.642   5.304   4.281
 6479SOL    HW120336   4.738   5.278   4.269
 6479SOL    HW220337   4.626   5.326   4.378
 6480SOL     OW20338   3.099   0.966   5.309
 6480SOL    HW120339   3.062   1.059   5.301
 6480SOL    HW220340   3.058   0.921   5.388
 6481SOL     OW20341   3.946   3.775   1.718
 6481SOL    HW120342   3.900   3.755   1.805
 6481SOL    HW220343   3.909   3.717   1.646
 6482SOL     OW20344   5.220   2.989   3.746
 6482SOL    HW120345   5.220   3.080   3.788
 6482SOL    HW220346   5.247   2.996   3.650
 6483SOL     OW20347   1.882   6.470   5.655
 6483SOL    HW120348   1.871   6.462   5.556
 6483SOL    HW220349   1.940   6.549   5.675
 6484SOL     OW20350   4.002   0.330   3.342
 6484SOL    HW120351   4.060   0.371   3.412
 6484SOL    HW220352   3.928   0.278   3.385
 6485SOL     OW20353   1.980   4.914   5.085
 6485SOL    HW120354   1.989   4.974   5.164
 6485SOL    HW220355   1.945   4.825   5.114
 6486SOL     OW20356   6.789   4.013   2.191
 6486SOL    HW120357   6.847   4.094   2.196
 6486SOL    HW220358   6.733   4.007   2.274
 6487SOL     OW20359   6.311   5.514   4.031
 6487SOL    HW120360   6.277   5.602   4.065
 6487SOL    HW220361   6.272   5.440   4.085
 6488SOL     OW20362   3.028   5.036   3.127
 6488SOL    HW120363   3.029   4.993   3.217
 6488SOL    HW220364   2.975   5.121   3.131
 6489SOL     OW20365   6.168   3.547   5.578
 6489SOL    HW120366   6.254   3.597   5.594
 6489SOL    HW220367   6.121   3.586   5.499
 6490SOL     OW20368   1.660   3.696   6.805
 6490SOL    HW120369   1.654   3.597   6.799
 6490SOL    HW220370   1.654   3.725   6.901
 6491SOL     OW20371   1.277   0.338   2.539
 6491SOL    HW120372   1.337   0.326   2.618
 6491SOL    HW220373   1.328   0.320   2.455
 6492SOL     OW20374   3.736   2.978   3.029
 6492SOL    HW120375   3.694   3.026   3.105
 6492SOL    HW220376   3.832   3.006   3.020
 6493SOL     OW20377   1.540   4.955   4.288
 6493SOL    HW120378   1.451   5.001   4.285
 6493SOL    HW220379   1.572   4.952   4.383
 6494SOL     OW20380   6.567   1.020   1.573
 6494SOL    HW120381   6.595   1.094   1.511
 6494SOL    HW220382   6.474   0.991   1.550
 6495SOL     OW20383   6.024   6.465   2.517
 6495SOL    HW120384   5.995   6.375   2.482
 6495SOL    HW220385   5.991   6.536   2.455
 6496SOL     OW20386   2.801   2.826   1.197
 6496SOL    HW120387   2.756   2.877   1.124
 6496SOL    HW220388   2.808   2.884   1.279
 6497SOL     OW20389   0.034   2.935   0.809
 6497SOL    HW120390   7.010   2.890   0.732
 6497SOL    HW220391   0.061   2.867   0.877
 6498SOL     OW20392   2.496   5.151   4.424
 6498SOL    HW120393   2.547   5.103   4.496
 6498SOL    HW220394   2.482   5.247   4.451
 6499SOL     OW20395   5.634   2.257   2.659
 6499SOL    HW120396   5.710   2.290   2.603
 6499SOL    HW220397   5.579   2.192   2.606
 6500SOL     OW20398   1.738   3.967   2.681
 6500SOL    HW120399   1.740   3.873   2.647
 6500SOL    HW220400   1.685   4.024   2.618
 6501SOL     OW20401   6.631   1.563   2.416
 6501SOL    HW120402   6.599   1.584   2.509
 6501SOL    HW220403   6.641   1.465   2.406
 6502SOL     OW20404   0.974   2.834   2.733
 6502SOL    HW120405   0.951   2.749   2.780
 6502SOL    HW220406   0.908   2.850   2.660
 6503SOL     OW20407   0.510   2.423   5.436
 6503SOL    HW120408   0.582   2.354   5.446
 6503SOL    HW220409   0.511   2.459   5.343
 6504SOL     OW20410   3.938   5.812   6.432
 6504SOL    HW120411   3.895   5.767   6.511
 6504SOL    HW220412   3.867   5.854   6.375
 6505SOL     OW20413   0.450   6.894   0.079
 6505SOL    HW120414   0.491   6.985   0.080
 6505SOL    HW220415   0.492   6.839   0.007
 6506SOL     OW20416   0.478   4.507   1.933
 6506SOL    HW120417   0.503   4.581   1.871
 6506SOL    HW220418   0.453   4.426   1.880
 6507SOL     OW20419   5.547   5.483   0.952
 6507SOL    HW120420   5.504   5.480   0.862
 6507SOL    HW220421   5.629   5.424   0.952
 6508SOL     OW20422   0.095   0.844   4.084
 6508SOL    HW120423   0.054   0.866   4.172
 6508SOL    HW220424   0.194   0.836   4.094
 6509SOL     OW20425   2.362   1.615   6.955
 6509SOL    HW120426   2.289   1.556   6.991
 6509SOL    HW220427   2.329   1.660   6.872
 6510SOL     OW20428   3.781   4.947   4.031
 6510SOL    HW120429   3.686   4.964   4.055
 6510SOL    HW220430   3.841   4.989   4.099
 6511SOL     OW20431   3.518   3.029   6.989
 6511SOL    HW120432   3.487   2.992   6.901
 6511SOL    HW220433   3.495   3.127   6.994
 6512SOL     OW20434   5.281   1.398   1.858
 6512SOL    HW120435   5.211   1.423   1.791
 6512SOL    HW220436   5.277   1.461   1.936
 6513SOL     OW20437   3.442   4.960   2.081
 6513SOL    HW120438   3.513   4.893   2.063
 6513SOL    HW220439   3.466   5.047   2.037
 6514SOL     OW20440   5.056   5.727   5.784
 6514SOL    HW120441   5.058   5.763   5.691
 6514SOL    HW220442   5.071   5.801   5.850
 6515SOL     OW20443   0.885   5.085   2.503
 6515SOL    HW120444   0.981   5.113   2.502
 6515SOL    HW220445   0.864   5.037   2.418
 6516SOL     OW20446   5.744   1.109   3.517
 6516SOL    HW120447   5.805   1.187   3.528
 6516SOL    HW220448   5.667   1.118   3.580
 6517SOL     OW20449   6.716   4.186   0.422
 6517SOL    HW120450   6.655   4.266   0.416
 6517SOL    HW220451   6.662   4.106   0.448
 6518SOL     OW20452   0.886   1.710   1.923
 6518SOL    HW120453   0.805   1.666   1.884
 6518SOL    HW220454   0.966   1.654   1.905
 6519SOL     OW20455   1.536   2.095   3.658
 6519SOL    HW120456   1.468   2.078   3.729
 6519SOL    HW220457   1.528   2.025   3.586
 6520SOL     OW20458   6.054   6.431   6.754
 6520SOL    HW120459   6.121   6.465   6.820
 6520SOL    HW220460   5.975   6.492   6.753
 6521SOL     OW20461   1.499   4.504   4.477
 6521SOL    HW120462   1.460   4.593   4.501
 6521SOL    HW220463   1.597   4.513   4.464
 6522SOL     OW20464   2.185   2.933   5.255
 6522SOL    HW120465   2.113   2.956   5.189
 6522SOL    HW220466   2.274   2.949   5.214
 6523SOL     OW20467   5.250   6.665   0.638
 6523SOL    HW120468   5.176   6.610   0.599
 6523SOL    HW220469   5.228   6.688   0.733
 6524SOL     OW20470   3.477   2.372   0.757
 6524SOL    HW120471   3.571   2.341   0.769
 6524SOL    HW220472   3.461   2.392   0.660
 6525SOL     OW20473   2.782   4.834   3.221
 6525SOL    HW120474   2.799   4.800   3.128
 6525SOL    HW220475   2.740   4.761   3.276
 6526SOL     OW20476   6.509   6.499   0.627
 6526SOL    HW120477   6.505   6.399   0.619
 6526SOL    HW220478   6.513   6.525   0.723
 6527SOL     OW20479   5.582   2.423   0.384
 6527SOL    HW120480   5.485   2.429   0.405
 6527SOL    HW220481   5.595   2.441   0.286
 6528SOL     OW20482   4.727   0.062   0.101
 6528SOL    HW120483   4.776   0.143   0.135
 6528SOL    HW220484   4.700   0.077   0.006
 6529SOL     OW20485   4.082   6.431   1.421
 6529SOL    HW120486   4.057   6.412   1.326
 6529SOL    HW220487   4.116   6.524   1.429
 6530SOL     OW20488   6.982   2.480   4.141
 6530SOL    HW120489   0.046   2.475   4.088
 6530SOL    HW220490   6.932   2.394   4.132
 6531SOL     OW20491   2.945   3.826   4.078
 6531SOL    HW120492   2.915   3.881   4.155
 6531SOL    HW220493   3.038   3.853   4.052
 6532SOL     OW20494   0.891   6.033   6.960
 6532SOL    HW120495   0.799   6.072   6.958
 6532SOL    HW220496   0.948   6.086   0.002
 6533SOL     OW20497   5.281   4.652   1.378
 6533SOL    HW120498   5.205   4.700   1.336
 6533SOL    HW220499   5.260   4.554   1.385
 6534SOL     OW20500   6.533   3.406   4.791
 6534SOL    HW120501   6.486   3.328   4.750
 6534SOL    HW220502   6.529   3.484   4.728
 6535SOL     OW20503   5.582   3.576   6.965
 6535SOL    HW120504   5.655   3.517   6.930
 6535SOL    HW220505   5.494   3.533   6.949
 6536SOL     OW20506   6.844   5.193   5.264
 6536SOL    HW120507   6.920   5.130   5.282
 6536SOL    HW220508   6.880   5.286   5.257
 6537SOL     OW20509   6.702   5.381   4.395
 6537SOL    HW120510   6.622   5.428   4.357
 6537SOL    HW220511   6.771   5.449   4.421
 6538SOL     OW20512   1.351   3.736   3.404
 6538SOL    HW120513   1.360   3.834   3.393
 6538SOL    HW220514   1.369   3.690   3.317
 6539SOL     OW20515   5.641   6.665   5.151
 6539SOL    HW120516   5.665   6.743   5.093
 6539SOL    HW220517   5.686   6.583   5.115
 6540SOL     OW20518   1.016   2.457   5.274
 6540SOL    HW120519   0.952   2.464   5.351
 6540SOL    HW220520   1.110   2.459   5.307
 6541SOL     OW20521   3.750   1.624   5.353
 6541SOL    HW120522   3.718   1.593   5.442
 6541SOL    HW220523   3.840   1.668   5.363
 6542SOL     OW20524   1.924   4.759   1.932
 6542SOL    HW120525   1.953   4.681   1.987
 6542SOL    HW220526   2.005   4.805   1.896
 6543SOL     OW20527   3.698   1.746   4.181
 6543SOL    HW120528   3.604   1.720   4.202
 6543SOL    HW220529   3.706   1.766   4.083
 6544SOL     OW20530   1.092   0.611   1.689
 6544SOL    HW120531   1.089   0.703   1.649
 6544SOL    HW220532   1.003   0.567   1.676
 6545SOL     OW20533   5.944   4.856   0.974
 6545SOL    HW120534   5.975   4.848   1.068
 6545SOL    HW220535   5.983   4.938   0.932
 6546SOL     OW20536   3.927   5.256   3.970
 6546SOL    HW120537   3.994   5.292   4.035
 6546SOL    HW220538   3.844   5.231   4.019
 6547SOL     OW20539   0.600   6.834   5.173
 6547SOL    HW120540   0.667   6.759   5.167
 6547SOL    HW220541   0.534   6.814   5.245
 6548SOL     OW20542   1.128   1.494   5.594
 6548SOL    HW120543   1.199   1.426   5.610
 6548SOL    HW220544   1.170   1.582   5.573
 6549SOL     OW20545   2.903   1.568   2.500
 6549SOL    HW120546   2.854   1.499   2.553
 6549SOL    HW220547   2.997   1.537   2.485
 6550SOL     OW20548   5.685   6.859   1.946
 6550SOL    HW120549   5.682   6.783   1.881
 6550SOL    HW220550   5.654   6.828   2.036
 6551SOL     OW20551   2.377   5.422   1.214
 6551SOL    HW120552   2.370   5.360   1.292
 6551SOL    HW220553   2.422   5.506   1.242
 6552SOL     OW20554   2.472   3.522   6.747
 6552SOL    HW120555   2.565   3.532   6.783
 6552SOL    HW220556   2.419   3.604   6.768
 6553SOL     OW20557   0.219   1.577   3.341
 6553SOL    HW120558   0.286   1.530   3.285
 6553SOL    HW220559   0.205   1.527   3.426
 6554SOL     OW20560   2.081   2.114   3.945
 6554SOL    HW120561   2.083   2.210   3.917
 6554SOL    HW220562   2.020   2.063   3.884
 6555SOL     OW20563   2.119   3.729   2.049
 6555SOL    HW120564   2.171   3.644   2.036
 6555SOL    HW220565   2.085   3.733   2.142
 6556SOL     OW20566   4.889   3.031   3.385
 6556SOL    HW120567   4.917   3.102   3.321
 6556SOL    HW220568   4.876   3.071   3.476
 6557SOL     OW20569   1.765   6.796   2.308
 6557SOL    HW120570   1.731   6.777   2.216
 6557SOL    HW220571   1.815   6.716   2.342
 6558SOL     OW20572   5.059   5.269   1.265
 6558SOL    HW120573   4.969   5.298   1.297
 6558SOL    HW220574   5.115   5.241   1.344
 6559SOL     OW20575   6.966   1.671   6.010
 6559SOL    HW120576   6.913   1.634   6.086
 6559SOL    HW220577   0.006   1.743   6.044
 6560SOL     OW20578   6.840   4.740   6.070
 6560SOL    HW120579   6.829   4.701   5.978
 6560SOL    HW220580   6.904   4.683   6.122
 6561SOL     OW20581   2.880   5.255   6.966
 6561SOL    HW120582   2.869   5.158   6.942
 6561SOL    HW220583   2.901   5.263   0.043
 6562SOL     OW20584   4.804   2.406   1.055
 6562SOL    HW120585   4.733   2.443   1.115
 6562SOL    HW220586   4.792   2.307   1.044
 6563SOL     OW20587   5.886   4.536   5.712
 6563SOL    HW120588   5.792   4.569   5.727
 6563SOL    HW220589   5.890   4.486   5.625
 6564SOL     OW20590   5.998   3.854   1.651
 6564SOL    HW120591   6.068   3.786   1.631
 6564SOL    HW220592   5.956   3.834   1.739
 6565SOL     OW20593   5.353   5.528   2.012
 6565SOL    HW120594   5.409   5.446   2.022
 6565SOL    HW220595   5.319   5.534   1.919
 6566SOL     OW20596   5.563   5.357   3.928
 6566SOL    HW120597   5.547   5.364   4.026
 6566SOL    HW220598   5.480   5.327   3.882
 6567SOL     OW20599   2.969   0.833   2.699
 6567SOL    HW120600   3.066   0.840   2.719
 6567SOL    HW220601   2.921   0.912   2.738
 6568SOL     OW20602   5.193   1.611   0.400
 6568SOL    HW120603   5.110   1.580   0.446
 6568SOL    HW220604   5.274   1.582   0.452
 6569SOL     OW20605   1.615   4.072   3.094
 6569SOL    HW120606   1.655   4.109   3.010
 6569SOL    HW220607   1.674   4.000   3.131
 6570SOL     OW20608   4.052   0.245   2.724
 6570SOL    HW120609   4.048   0.216   2.820
 6570SOL    HW220610   3.968   0.218   2.677
 6571SOL     OW20611   2.622   6.814   2.922
 6571SOL    HW120612   2.569   6.745   2.970
 6571SOL    HW220613   2.708   6.830   2.970
 6572SOL     OW20614   1.076   6.711   3.596
 6572SOL    HW120615   1.149   6.656   3.556
 6572SOL    HW220616   1.114   6.797   3.630
 6573SOL     OW20617   1.122   2.495   3.692
 6573SOL    HW120618   1.127   2.433   3.770
 6573SOL    HW220619   1.211   2.499   3.647
 6574SOL     OW20620   0.902   5.158   1.626
 6574SOL    HW120621   0.979   5.170   1.563
 6574SOL    HW220622   0.836   5.095   1.586
 6575SOL     OW20623   6.486   1.098   4.096
 6575SOL    HW120624   6.566   1.062   4.049
 6575SOL    HW220625   6.504   1.104   4.194
 6576SOL     OW20626   3.966   0.379   2.389
 6576SOL    HW120627   3.911   0.463   2.392
 6576SOL    HW220628   3.936   0.317   2.461
 6577SOL     OW20629   3.340   1.106   5.352
 6577SOL    HW120630   3.252   1.059   5.345
 6577SOL    HW220631   3.388   1.076   5.433
 6578SOL     OW20632   0.989   5.728   0.275
 6578SOL    HW120633   0.911   5.667   0.292
 6578SOL    HW220634   1.071   5.673   0.257
 6579SOL     OW20635   1.976   1.888   2.991
 6579SOL    HW120636   2.047   1.829   2.952
 6579SOL    HW220637   2.002   1.915   3.083
 6580SOL     OW20638   3.643   2.546   0.032
 6580SOL    HW120639   3.692   2.577   6.971
 6580SOL    HW220640   3.546   2.540   0.012
 6581SOL     OW20641   0.687   2.516   1.839
 6581SOL    HW120642   0.677   2.548   1.933
 6581SOL    HW220643   0.662   2.419   1.834
 6582SOL     OW20644   3.967   6.441   3.094
 6582SOL    HW120645   3.906   6.509   3.053
 6582SOL    HW220646   3.980   6.365   3.031
 6583SOL     OW20647   2.667   4.154   1.311
 6583SOL    HW120648   2.646   4.127   1.405
 6583SOL    HW220649   2.703   4.075   1.261
 6584SOL     OW20650   4.414   3.295   5.841
 6584SOL    HW120651   4.424   3.199   5.866
 6584SOL    HW220652   4.344   3.304   5.770
 6585SOL     OW20653   5.097   6.860   1.904
 6585SOL    HW120654   5.087   6.938   1.842
 6585SOL    HW220655   5.171   6.879   1.970
 6586SOL     OW20656   6.720   1.613   6.855
 6586SOL    HW120657   6.739   1.649   6.946
 6586SOL    HW220658   6.644   1.665   6.814
 6587SOL     OW20659   2.574   4.637   5.448
 6587SOL    HW120660   2.592   4.546   5.410
 6587SOL    HW220661   2.598   4.638   5.545
 6588SOL     OW20662   0.866   2.506   0.726
 6588SOL    HW120663   0.842   2.499   0.629
 6588SOL    HW220664   0.948   2.452   0.744
 6589SOL     OW20665   5.739   0.204   0.999
 6589SOL    HW120666   5.652   0.156   0.999
 6589SOL    HW220667   5.812   0.141   1.025
 6590SOL     OW20668   1.267   6.431   4.535
 6590SOL    HW120669   1.289   6.457   4.441
 6590SOL    HW220670   1.339   6.372   4.570
 6591SOL     OW20671   6.495   3.316   3.302
 6591SOL    HW120672   6.399   3.288   3.301
 6591SOL    HW220673   6.529   3.321   3.209
 6592SOL     OW20674   0.146   0.487   4.401
 6592SOL    HW120675   0.203   0.559   4.360
 6592SOL    HW220676   0.200   0.437   4.468
 6593SOL     OW20677   0.958   0.728   3.094
 6593SOL    HW120678   0.916   0.785   3.165
 6593SOL    HW220679   0.908   0.642   3.088
 6594SOL     OW20680   5.216   0.204   6.415
 6594SOL    HW120681   5.211   0.301   6.441
 6594SOL    HW220682   5.173   0.148   6.486
 6595SOL     OW20683   0.747   0.421   5.148
 6595SOL    HW120684   0.730   0.428   5.049
 6595SOL    HW220685   0.827   0.475   5.171
 6596SOL     OW20686   5.048   0.705   3.006
 6596SOL    HW120687   4.997   0.727   3.090
 6596SOL    HW220688   4.984   0.674   2.936
 6597SOL     OW20689   1.141   5.520   1.366
 6597SOL    HW120690   1.165   5.466   1.446
 6597SOL    HW220691   1.056   5.486   1.326
 6598SOL     OW20692   1.612   5.233   1.622
 6598SOL    HW120693   1.701   5.250   1.664
 6598SOL    HW220694   1.584   5.139   1.640
 6599SOL     OW20695   0.500   6.225   6.237
 6599SOL    HW120696   0.411   6.218   6.283
 6599SOL    HW220697   0.571   6.246   6.304
 6600SOL     OW20698   4.993   0.076   4.481
 6600SOL    HW120699   4.957   0.125   4.402
 6600SOL    HW220700   5.053   0.002   4.450
 6601SOL     OW20701   0.662   2.664   3.058
 6601SOL    HW120702   0.748   2.691   3.102
 6601SOL    HW220703   0.623   2.586   3.108
 6602SOL     OW20704   5.882   6.092   0.621
 6602SOL    HW120705   5.843   6.085   0.713
 6602SOL    HW220706   5.939   6.012   0.603
 6603SOL     OW20707   6.697   4.510   2.496
 6603SOL    HW120708   6.739   4.597   2.472
 6603SOL    HW220709   6.638   4.521   2.575
 6604SOL     OW20710   2.107   5.055   2.394
 6604SOL    HW120711   2.189   5.007   2.363
 6604SOL    HW220712   2.121   5.154   2.387
 6605SOL     OW20713   6.847   5.573   1.171
 6605SOL    HW120714   6.829   5.664   1.135
 6605SOL    HW220715   6.819   5.504   1.104
 6606SOL     OW20716   1.351   4.848   2.802
 6606SOL    HW120717   1.351   4.917   2.875
 6606SOL    HW220718   1.429   4.787   2.814
 6607SOL     OW20719   6.783   3.321   4.622
 6607SOL    HW120720   6.718   3.397   4.621
 6607SOL    HW220721   6.822   3.312   4.713
 6608SOL     OW20722   1.626   0.741   5.303
 6608SOL    HW120723   1.588   0.792   5.226
 6608SOL    HW220724   1.674   0.660   5.269
 6609SOL     OW20725   2.727   1.746   0.399
 6609SOL    HW120726   2.730   1.781   0.492
 6609SOL    HW220727   2.801   1.787   0.345
 6610SOL     OW20728   3.397   5.739   0.981
 6610SOL    HW120729   3.345   5.671   0.929
 6610SOL    HW220730   3.337   5.780   1.050
 6611SOL     OW20731   3.158   1.512   4.699
 6611SOL    HW120732   3.145   1.609   4.721
 6611SOL    HW220733   3.074   1.462   4.721
 6612SOL     OW20734   6.228   0.540   0.291
 6612SOL    HW120735   6.267   0.476   0.226
 6612SOL    HW220736   6.169   0.491   0.355
 6613SOL     OW20737   4.725   0.133   1.030
 6613SOL    HW120738   4.801   0.197   1.027
 6613SOL    HW220739   4.733   0.066   0.956
 6614SOL     OW20740   4.757   4.887   0.958
 6614SOL    HW120741   4.764   4.853   0.864
 6614SOL    HW220742   4.822   4.838   1.016
 6615SOL     OW20743   3.384   5.774   6.067
 6615SOL    HW120744   3.399   5.677   6.051
 6615SOL    HW220745   3.468   5.825   6.049
 6616SOL     OW20746   3.976   2.183   6.279
 6616SOL    HW120747   4.032   2.115   6.232
 6616SOL    HW220748   4.000   2.275   6.247
 6617SOL     OW20749   3.466   1.644   4.274
 6617SOL    HW120750   3.408   1.586   4.217
 6617SOL    HW220751   3.412   1.721   4.308
 6618SOL     OW20752   6.595   2.726   3.464
 6618SOL    HW120753   6.692   2.706   3.448
 6618SOL    HW220754   6.566   2.685   3.550
 6619SOL     OW20755   4.309   4.872   3.841
 6619SOL    HW120756   4.259   4.861   3.927
 6619SOL    HW220757   4.402   4.903   3.861
 6620SOL     OW20758   1.260   2.762   3.654
 6620SOL    HW120759   1.210   2.847   3.670
 6620SOL    HW220760   1.260   2.741   3.556
 6621SOL     OW20761   3.543   3.804   3.224
 6621SOL    HW120762   3.543   3.704   3.219
 6621SOL    HW220763   3.630   3.839   3.192
 6622SOL     OW20764   6.774   4.769   2.443
 6622SOL    HW120765   6.852   4.821   2.476
 6622SOL    HW220766   6.711   4.830   2.394
 6623SOL     OW20767   3.616   3.092   4.068
 6623SOL    HW120768   3.685   3.044   4.012
 6623SOL    HW220769   3.639   3.082   4.164
 6624SOL     OW20770   2.373   2.319   2.635
 6624SOL    HW120771   2.325   2.306   2.548
 6624SOL    HW220772   2.472   2.324   2.618
 6625SOL     OW20773   0.696   4.920   5.445
 6625SOL    HW120774   0.597   4.931   5.430
 6625SOL    HW220775   0.732   5.003   5.489
 6626SOL     OW20776   3.406   5.734   5.746
 6626SOL    HW120777   3.334   5.783   5.795
 6626SOL    HW220778   3.486   5.793   5.736
 6627SOL     OW20779   2.811   0.153   4.775
 6627SOL    HW120780   2.884   0.132   4.840
 6627SOL    HW220781   2.723   0.156   4.824
 6628SOL     OW20782   3.982   6.296   3.617
 6628SOL    HW120783   4.064   6.350   3.598
 6628SOL    HW220784   3.926   6.343   3.685
 6629SOL     OW20785   4.719   6.063   5.366
 6629SOL    HW120786   4.743   6.003   5.442
 6629SOL    HW220787   4.782   6.141   5.365
 6630SOL     OW20788   2.128   0.039   0.622
 6630SOL    HW120789   2.211   0.084   0.589
 6630SOL    HW220790   2.053   0.058   0.559
 6631SOL     OW20791   1.725   1.480   6.183
 6631SOL    HW120792   1.776   1.425   6.250
 6631SOL    HW220793   1.627   1.471   6.200
 6632SOL     OW20794   1.471   0.540   6.004
 6632SOL    HW120795   1.553   0.567   5.955
 6632SOL    HW220796   1.485   0.451   6.048
 6633SOL     OW20797   4.810   6.627   5.983
 6633SOL    HW120798   4.808   6.530   6.011
 6633SOL    HW220799   4.889   6.671   6.026
 6634SOL     OW20800   2.898   2.291   4.306
 6634SOL    HW120801   2.947   2.378   4.308
 6634SOL    HW220802   2.801   2.307   4.327
 6635SOL     OW20803   4.711   5.396   6.235
 6635SOL    HW120804   4.688   5.466   6.167
 6635SOL    HW220805   4.702   5.436   6.327
 6636SOL     OW20806   4.547   1.480   1.259
 6636SOL    HW120807   4.540   1.423   1.177
 6636SOL    HW220808   4.507   1.570   1.241
 6637SOL     OW20809   0.380   3.217   6.791
 6637SOL    HW120810   0.320   3.265   6.856
 6637SOL    HW220811   0.413   3.132   6.833
 6638SOL     OW20812   2.973   3.705   4.552
 6638SOL    HW120813   3.061   3.715   4.599
 6638SOL    HW220814   2.903   3.760   4.598
 6639SOL     OW20815   5.107   3.117   1.896
 6639SOL    HW120816   5.175   3.190   1.887
 6639SOL    HW220817   5.119   3.050   1.824
 6640SOL     OW20818   0.868   3.702   4.009
 6640SOL    HW120819   0.916   3.649   4.079
 6640SOL    HW220820   0.925   3.780   3.982
 6641SOL     OW20821   5.192   2.294   6.998
 6641SOL    HW120822   5.205   2.213   0.035
 6641SOL    HW220823   5.114   2.347   0.012
 6642SOL     OW20824   0.660   5.063   6.092
 6642SOL    HW120825   0.584   5.047   6.154
 6642SOL    HW220826   0.631   5.126   6.019
 6643SOL     OW20827   4.697   5.649   6.063
 6643SOL    HW120828   4.729   5.700   5.984
 6643SOL    HW220829   4.597   5.643   6.062
 6644SOL     OW20830   1.743   6.557   3.284
 6644SOL    HW120831   1.690   6.587   3.364
 6644SOL    HW220832   1.681   6.515   3.218
 6645SOL     OW20833   4.953   2.855   5.159
 6645SOL    HW120834   4.969   2.840   5.256
 6645SOL    HW220835   4.866   2.902   5.145
 6646SOL     OW20836   4.602   0.152   6.057
 6646SOL    HW120837   4.578   0.238   6.102
 6646SOL    HW220838   4.589   0.076   6.121
 6647SOL     OW20839   3.678   4.780   0.359
 6647SOL    HW120840   3.688   4.873   0.393
 6647SOL    HW220841   3.588   4.744   0.386
 6648SOL     OW20842   3.359   5.828   5.297
 6648SOL    HW120843   3.352   5.755   5.365
 6648SOL    HW220844   3.438   5.886   5.317
 6649SOL     OW20845   5.522   2.971   5.116
 6649SOL    HW120846   5.559   3.060   5.142
 6649SOL    HW220847   5.464   2.981   5.035
 6650SOL     OW20848   2.704   0.768   4.915
 6650SOL    HW120849   2.637   0.830   4.957
 6650SOL    HW220850   2.769   0.738   4.985
 6651SOL     OW20851   6.403   0.938   3.443
 6651SOL    HW120852   6.442   1.017   3.488
 6651SOL    HW220853   6.373   0.871   3.511
 6652SOL     OW20854   6.900   5.489   6.629
 6652SOL    HW120855   6.815   5.494   6.576
 6652SOL    HW220856   6.878   5.498   6.726
 6653SOL     OW20857   5.774   3.731   0.142
 6653SOL    HW120858   5.708   3.702   0.072
 6653SOL    HW220859   5.831   3.653   0.169
 6654SOL     OW20860   6.894   1.608   3.270
 6654SOL    HW120861   6.807   1.636   3.227
 6654SOL    HW220862   6.921   1.677   3.337
 6655SOL     OW20863   6.932   5.792   1.458
 6655SOL    HW120864   6.996   5.720   1.431
 6655SOL    HW220865   6.952   5.875   1.407
 6656SOL     OW20866   5.282   1.020   2.241
 6656SOL    HW120867   5.255   1.079   2.165
 6656SOL    HW220868   5.326   0.937   2.205
 6657SOL     OW20869   4.571   1.691   4.394
 6657SOL    HW120870   4.572   1.790   4.385
 6657SOL    HW220871   4.597   1.649   4.307
 6658SOL     OW20872   6.380   5.963   4.243
 6658SOL    HW120873   6.383   6.054   4.201
 6658SOL    HW220874   6.293   5.952   4.291
 6659SOL     OW20875   0.931   6.724   1.190
 6659SOL    HW120876   0.896   6.762   1.105
 6659SOL    HW220877   1.012   6.774   1.218
 6660SOL     OW20878   1.242   0.557   4.269
 6660SOL    HW120879   1.256   0.463   4.238
 6660SOL    HW220880   1.166   0.598   4.218
 6661SOL     OW20881   3.545   6.508   3.720
 6661SOL    HW120882   3.626   6.458   3.749
 6661SOL    HW220883   3.483   6.520   3.798
 6662SOL     OW20884   3.789   6.816   1.754
 6662SOL    HW120885   3.841   6.879   1.697
 6662SOL    HW220886   3.744   6.868   1.828
 6663SOL     OW20887   1.806   3.960   5.226
 6663SOL    HW120888   1.754   4.046   5.233
 6663SOL    HW220889   1.790   3.905   5.307
 6664SOL     OW20890   3.185   0.038   1.817
 6664SOL    HW120891   3.198   6.961   1.830
 6664SOL    HW220892   3.133   0.076   1.893
 6665SOL     OW20893   2.551   0.313   6.748
 6665SOL    HW120894   2.631   0.324   6.689
 6665SOL    HW220895   2.568   0.359   6.835
 6666SOL     OW20896   2.730   6.617   5.837
 6666SOL    HW120897   2.712   6.715   5.842
 6666SOL    HW220898   2.801   6.593   5.904
 6667SOL     OW20899   1.970   5.956   0.052
 6667SOL    HW120900   2.047   5.976   0.112
 6667SOL    HW220901   1.887   5.998   0.089
 6668SOL     OW20902   0.382   3.737   5.749
 6668SOL    HW120903   0.410   3.743   5.845
 6668SOL    HW220904   0.284   3.722   5.744
 6669SOL     OW20905   0.765   3.227   3.777
 6669SOL    HW120906   0.688   3.280   3.810
 6669SOL    HW220907   0.850   3.277   3.792
 6670SOL     OW20908   2.171   4.333   0.584
 6670SOL    HW120909   2.161   4.240   0.549
 6670SOL    HW220910   2.267   4.352   0.602
 6671SOL     OW20911   4.870   4.943   0.593
 6671SOL    HW120912   4.886   4.886   0.512
 6671SOL    HW220913   4.781   4.987   0.586
 6672SOL     OW20914   2.303   2.435   1.090
 6672SOL    HW120915   2.321   2.373   1.014
 6672SOL    HW220916   2.322   2.388   1.177
 6673SOL     OW20917   5.844   3.945   4.690
 6673SOL    HW120918   5.886   3.917   4.776
 6673SOL    HW220919   5.747   3.919   4.691
 6674SOL     OW20920   6.485   1.104   0.227
 6674SOL    HW120921   6.401   1.139   0.186
 6674SOL    HW220922   6.511   1.162   0.304
 6675SOL     OW20923   4.906   1.562   0.439
 6675SOL    HW120924   4.829   1.539   0.499
 6675SOL    HW220925   4.874   1.569   0.345
 6676SOL     OW20926   1.217   3.406   5.263
 6676SOL    HW120927   1.315   3.406   5.278
 6676SOL    HW220928   1.172   3.455   5.338
 6677SOL     OW20929   0.391   2.157   6.895
 6677SOL    HW120930   0.344   2.150   6.983
 6677SOL    HW220931   0.483   2.195   6.909
 6678SOL     OW20932   3.273   3.935   6.590
 6678SOL    HW120933   3.218   3.880   6.527
 6678SOL    HW220934   3.343   3.878   6.632
 6679SOL     OW20935   1.527   0.558   3.947
 6679SOL    HW120936   1.514   0.630   3.880
 6679SOL    HW220937   1.501   0.591   4.038
 6680SOL     OW20938   6.242   5.979   1.748
 6680SOL    HW120939   6.312   5.922   1.790
 6680SOL    HW220940   6.153   5.958   1.790
 6681SOL     OW20941   3.641   5.857   0.999
 6681SOL    HW120942   3.549   5.822   1.019
 6681SOL    HW220943   3.637   5.920   0.921
 6682SOL     OW20944   2.266   4.803   6.276
 6682SOL    HW120945   2.291   4.706   6.271
 6682SOL    HW220946   2.186   4.813   6.335
 6683SOL     OW20947   0.074   6.408   6.532
 6683SOL    HW120948   0.113   6.383   6.443
 6683SOL    HW220949   6.997   6.389   6.531
 6684SOL     OW20950   2.912   0.070   5.979
 6684SOL    HW120951   2.849   0.134   5.935
 6684SOL    HW220952   2.951   0.112   6.061
 6685SOL     OW20953   3.669   2.926   0.903
 6685SOL    HW120954   3.723   2.955   0.982
 6685SOL    HW220955   3.572   2.924   0.928
 6686SOL     OW20956   4.577   4.214   5.322
 6686SOL    HW120957   4.546   4.306   5.298
 6686SOL    HW220958   4.626   4.217   5.409
 6687SOL     OW20959   6.843   2.620   0.721
 6687SOL    HW120960   6.882   2.555   0.787
 6687SOL    HW220961   6.862   2.589   0.628
 6688SOL     OW20962   5.615   5.484   0.490
 6688SOL    HW120963   5.603   5.489   0.390
 6688SOL    HW220964   5.552   5.415   0.527
 6689SOL     OW20965   3.249   4.761   6.115
 6689SOL    HW120966   3.341   4.799   6.108
 6689SOL    HW220967   3.183   4.831   6.088
 6690SOL     OW20968   1.165   0.316   0.065
 6690SOL    HW120969   1.196   0.339   0.157
 6690SOL    HW220970   1.223   0.244   0.026
 6691SOL     OW20971   2.219   2.007   2.001
 6691SOL    HW120972   2.122   2.030   1.996
 6691SOL    HW220973   2.263   2.060   2.073
 6692SOL     OW20974   4.025   6.394   1.937
 6692SOL    HW120975   3.933   6.355   1.934
 6692SOL    HW220976   4.021   6.493   1.926
 6693SOL     OW20977   2.738   1.094   5.723
 6693SOL    HW120978   2.811   1.149   5.763
 6693SOL    HW220979   2.651   1.120   5.764
 6694SOL     OW20980   4.488   4.094   1.647
 6694SOL    HW120981   4.473   4.145   1.732
 6694SOL    HW220982   4.440   4.138   1.572
 6695SOL     OW20983   3.387   2.404   0.166
 6695SOL    HW120984   3.329   2.413   0.085
 6695SOL    HW220985   3.387   2.308   0.195
 6696SOL     OW20986   3.503   3.028   4.941
 6696SOL    HW120987   3.555   2.976   4.873
 6696SOL    HW220988   3.412   2.988   4.951
 6697SOL     OW20989   5.033   1.212   2.612
 6697SOL    HW120990   5.110   1.189   2.671
 6697SOL    HW220991   5.027   1.145   2.538
 6698SOL     OW20992   2.952   3.845   1.623
 6698SOL    HW120993   2.917   3.782   1.691
 6698SOL    HW220994   2.927   3.939   1.648
 6699SOL     OW20995   1.660   3.441   6.869
 6699SOL    HW120996   1.724   3.378   6.825
 6699SOL    HW220997   1.577   3.448   6.814
 6700SOL     OW20998   5.092   0.270   1.275
 6700SOL    HW120999   5.078   0.320   1.190
 6700SOL    HW221000   5.086   0.333   1.352
 6701SOL     OW21001   6.166   6.822   1.517
 6701SOL    HW121002   6.131   6.834   1.424
 6701SOL    HW221003   6.263   6.848   1.520
 6702SOL     OW21004   5.260   2.582   0.747
 6702SOL    HW121005   5.186   2.526   0.710
 6702SOL    HW221006   5.235   2.678   0.743
 6703SOL     OW21007   0.326   1.495   0.340
 6703SOL    HW121008   0.361   1.480   0.432
 6703SOL    HW221009   0.248   1.557   0.343
 6704SOL     OW21010   2.670   6.202   6.273
 6704SOL    HW121011   2.716   6.153   6.199
 6704SOL    HW221012   2.699   6.164   6.361
 6705SOL     OW21013   1.019   4.334   2.639
 6705SOL    HW121014   0.975   4.419   2.607
 6705SOL    HW221015   1.112   4.329   2.603
 6706SOL     OW21016   0.449   6.024   1.024
 6706SOL    HW121017   0.411   6.112   0.997
 6706SOL    HW221018   0.392   5.983   1.095
 6707SOL     OW21019   5.206   1.088   2.761
 6707SOL    HW121020   5.160   1.105   2.848
 6707SOL    HW221021   5.266   1.008   2.771
 6708SOL     OW21022   0.970   3.614   1.085
 6708SOL    HW121023   1.010   3.605   0.994
 6708SOL    HW221024   0.872   3.593   1.081
 6709SOL     OW21025   2.033   4.317   1.919
 6709SOL    HW121026   1.963   4.381   1.950
 6709SOL    HW221027   1.993   4.226   1.908
 6710SOL     OW21028   4.425   2.053   1.605
 6710SOL    HW121029   4.328   2.050   1.581
 6710SOL    HW221030   4.461   2.145   1.590
 6711SOL     OW21031   4.639   5.513   6.455
 6711SOL    HW121032   4.627   5.605   6.419
 6711SOL    HW221033   4.551   5.478   6.489
 6712SOL     OW21034   5.595   3.631   0.977
 6712SOL    HW121035   5.583   3.728   0.954
 6712SOL    HW221036   5.630   3.582   0.898
 6713SOL     OW21037   2.359   4.668   4.362
 6713SOL    HW121038   2.293   4.690   4.434
 6713SOL    HW221039   2.316   4.611   4.293
 6714SOL     OW21040   6.144   1.211   2.386
 6714SOL    HW121041   6.058   1.254   2.413
 6714SOL    HW221042   6.138   1.113   2.400
 6715SOL     OW21043   1.148   6.919   5.772
 6715SOL    HW121044   1.176   6.998   5.827
 6715SOL    HW221045   1.230   6.872   5.739
 6716SOL     OW21046   1.378   4.365   1.877
 6716SOL    HW121047   1.410   4.415   1.797
 6716SOL    HW221048   1.423   4.400   1.959
 6717SOL     OW21049   6.077   2.276   5.156
 6717SOL    HW121050   6.126   2.240   5.077
 6717SOL    HW221051   6.000   2.216   5.177
 6718SOL     OW21052   4.287   2.067   0.787
 6718SOL    HW121053   4.248   2.146   0.834
 6718SOL    HW221054   4.317   2.093   0.696
 6719SOL     OW21055   1.376   0.733   0.625
 6719SOL    HW121056   1.394   0.701   0.532
 6719SOL    HW221057   1.371   0.833   0.625
 6720SOL     OW21058   1.460   1.612   4.248
 6720SOL    HW121059   1.435   1.643   4.340
 6720SOL    HW221060   1.455   1.513   4.244
 6721SOL     OW21061   6.153   6.744   0.517
 6721SOL    HW121062   6.073   6.725   0.574
 6721SOL    HW221063   6.175   6.662   0.464
 6722SOL     OW21064   6.093   4.393   1.419
 6722SOL    HW121065   6.007   4.362   1.458
 6722SOL    HW221066   6.091   4.493   1.409
 6723SOL     OW21067   1.906   3.309   4.384
 6723SOL    HW121068   1.843   3.372   4.339
 6723SOL    HW221069   1.892   3.312   4.483
 6724SOL     OW21070   1.914   3.009   5.163
 6724SOL    HW121071   1.893   3.076   5.235
 6724SOL    HW221072   1.886   3.046   5.074
 6725SOL     OW21073   4.616   2.676   3.382
 6725SOL    HW121074   4.592   2.762   3.336
 6725SOL    HW221075   4.712   2.678   3.409
 6726SOL     OW21076   6.834   1.607   0.248
 6726SOL    HW121077   6.917   1.569   0.207
 6726SOL    HW221078   6.765   1.535   0.256
 6727SOL     OW21079   1.106   5.543   5.630
 6727SOL    HW121080   1.184   5.483   5.609
 6727SOL    HW221081   1.059   5.508   5.711
 6728SOL     OW21082   3.640   1.762   5.170
 6728SOL    HW121083   3.680   1.725   5.253
 6728SOL    HW221084   3.558   1.816   5.193
 6729SOL     OW21085   4.410   1.295   2.751
 6729SOL    HW121086   4.365   1.289   2.662
 6729SOL    HW221087   4.466   1.213   2.765
 6730SOL     OW21088   0.523   1.862   1.437
 6730SOL    HW121089   0.429   1.864   1.403
 6730SOL    HW221090   0.526   1.898   1.531
 6731SOL     OW21091   3.945   0.112   6.195
 6731SOL    HW121092   4.011   0.179   6.162
 6731SOL    HW221093   3.870   0.160   6.240
 6732SOL     OW21094   6.001   5.037   5.859
 6732SOL    HW121095   6.067   5.078   5.796
 6732SOL    HW221096   6.010   4.937   5.856
 6733SOL     OW21097   5.151   4.732   5.515
 6733SOL    HW121098   5.104   4.818   5.499
 6733SOL    HW221099   5.134   4.701   5.609
 6734SOL     OW21100   5.688   2.163   5.536
 6734SOL    HW121101   5.687   2.064   5.550
 6734SOL    HW221102   5.776   2.200   5.564
 6735SOL     OW21103   5.827   3.011   4.530
 6735SOL    HW121104   5.755   3.046   4.469
 6735SOL    HW221105   5.819   2.912   4.538
 6736SOL     OW21106   3.838   3.431   0.626
 6736SOL    HW121107   3.793   3.366   0.687
 6736SOL    HW221108   3.902   3.487   0.678
 6737SOL     OW21109   6.149   3.104   1.249
 6737SOL    HW121110   6.184   3.197   1.255
 6737SOL    HW221111   6.091   3.085   1.328
 6738SOL     OW21112   2.262   0.112   3.899
 6738SOL    HW121113   2.331   0.168   3.946
 6738SOL    HW221114   2.307   0.055   3.830
 6739SOL     OW21115   0.382   0.267   5.812
 6739SOL    HW121116   0.389   0.246   5.714
 6739SOL    HW221117   0.472   0.288   5.848
 6740SOL     OW21118   0.939   6.882   1.867
 6740SOL    HW121119   0.900   6.790   1.869
 6740SOL    HW221120   0.873   6.947   1.906
 6741SOL     OW21121   3.061   2.201   0.409
 6741SOL    HW121122   3.040   2.293   0.443
 6741SOL    HW221123   2.983   2.167   0.357
 6742SOL     OW21124   6.573   4.954   2.321
 6742SOL    HW121125   6.474   4.959   2.304
 6742SOL    HW221126   6.603   5.036   2.369
 6743SOL     OW21127   3.793   4.072   6.635
 6743SOL    HW121128   3.757   4.103   6.547
 6743SOL    HW221129   3.738   3.995   6.668
 6744SOL     OW21130   6.844   6.254   5.759
 6744SOL    HW121131   6.791   6.331   5.794
 6744SOL    HW221132   6.840   6.252   5.659
 6745SOL     OW21133   5.400   3.154   5.355
 6745SOL    HW121134   5.345   3.090   5.303
 6745SOL    HW221135   5.364   3.247   5.343
 6746SOL     OW21136   1.271   2.286   2.869
 6746SOL    HW121137   1.239   2.294   2.963
 6746SOL    HW221138   1.344   2.353   2.852
 6747SOL     OW21139   1.148   6.041   5.395
 6747SOL    HW121140   1.059   6.077   5.419
 6747SOL    HW221141   1.154   6.031   5.295
 6748SOL     OW21142   1.811   2.311   4.362
 6748SOL    HW121143   1.792   2.214   4.345
 6748SOL    HW221144   1.860   2.321   4.448
 6749SOL     OW21145   4.036   4.892   2.459
 6749SOL    HW121146   4.082   4.808   2.431
 6749SOL    HW221147   3.965   4.916   2.392
 6750SOL     OW21148   4.316   0.359   5.645
 6750SOL    HW121149   4.366   0.272   5.640
 6750SOL    HW221150   4.344   0.408   5.727
 6751SOL     OW21151   3.847   1.009   4.236
 6751SOL    HW121152   3.795   0.974   4.314
 6751SOL    HW221153   3.944   1.014   4.261
 6752SOL     OW21154   2.232   5.025   3.449
 6752SOL    HW121155   2.315   4.976   3.421
 6752SOL    HW221156   2.231   5.115   3.407
 6753SOL     OW21157   3.503   4.366   0.105
 6753SOL    HW121158   3.586   4.317   0.130
 6753SOL    HW221159   3.451   4.310   0.040
 6754SOL     OW21160   6.064   0.875   0.519
 6754SOL    HW121161   6.023   0.785   0.510
 6754SOL    HW221162   6.126   0.892   0.443
 6755SOL     OW21163   3.768   5.399   5.536
 6755SOL    HW121164   3.716   5.476   5.576
 6755SOL    HW221165   3.719   5.314   5.554
 6756SOL     OW21166   3.991   3.483   5.744
 6756SOL    HW121167   4.027   3.573   5.720
 6756SOL    HW221168   3.926   3.492   5.819
 6757SOL     OW21169   4.124   0.031   2.004
 6757SOL    HW121170   4.195   7.004   1.953
 6757SOL    HW221171   4.080   0.098   1.944
 6758SOL     OW21172   4.936   2.753   2.941
 6758SOL    HW121173   4.844   2.718   2.959
 6758SOL    HW221174   4.991   2.746   3.024
 6759SOL     OW21175   1.601   2.598   2.188
 6759SOL    HW121176   1.685   2.572   2.140
 6759SOL    HW221177   1.544   2.654   2.127
 6760SOL     OW21178   5.118   1.789   5.867
 6760SOL    HW121179   5.047   1.823   5.930
 6760SOL    HW221180   5.199   1.764   5.919
 6761SOL     OW21181   2.714   0.517   4.816
 6761SOL    HW121182   2.706   0.614   4.842
 6761SOL    HW221183   2.806   0.499   4.782
 6762SOL     OW21184   5.528   4.916   4.395
 6762SOL    HW121185   5.577   4.845   4.343
 6762SOL    HW221186   5.470   4.872   4.464
 6763SOL     OW21187   5.769   5.570   3.596
 6763SOL    HW121188   5.697   5.505   3.573
 6763SOL    HW221189   5.754   5.605   3.689
 6764SOL     OW21190   0.962   4.663   1.824
 6764SOL    HW121191   1.030   4.690   1.756
 6764SOL    HW221192   0.964   4.564   1.836
 6765SOL     OW21193   6.801   4.094   3.313
 6765SOL    HW121194   6.750   4.178   3.330
 6765SOL    HW221195   6.826   4.089   3.216
 6766SOL     OW21196   6.271   0.051   1.364
 6766SOL    HW121197   6.337   7.014   1.412
 6766SOL    HW221198   6.193   7.017   1.335
 6767SOL     OW21199   3.370   0.299   1.452
 6767SOL    HW121200   3.415   0.386   1.431
 6767SOL    HW221201   3.283   0.317   1.498
 6768SOL     OW21202   1.551   0.029   6.669
 6768SOL    HW121203   1.462   0.067   6.697
 6768SOL    HW221204   1.565   6.962   6.714
 6769SOL     OW21205   5.205   2.922   1.157
 6769SOL    HW121206   5.156   2.840   1.126
 6769SOL    HW221207   5.170   2.950   1.246
 6770SOL     OW21208   0.338   1.678   1.663
 6770SOL    HW121209   0.344   1.625   1.578
 6770SOL    HW221210   0.269   1.750   1.653
 6771SOL     OW21211   4.715   1.527   3.485
 6771SOL    HW121212   4.635   1.511   3.544
 6771SOL    HW221213   4.760   1.612   3.513
 6772SOL     OW21214   3.443   1.089   4.939
 6772SOL    HW121215   3.364   1.140   4.906
 6772SOL    HW221216   3.465   1.016   4.875
 6773SOL     OW21217   0.149   3.816   1.888
 6773SOL    HW121218   0.154   3.911   1.856
 6773SOL    HW221219   0.229   3.796   1.945
 6774SOL     OW21220   1.499   2.073   6.159
 6774SOL    HW121221   1.532   2.116   6.243
 6774SOL    HW221222   1.401   2.088   6.150
 6775SOL     OW21223   0.608   3.622   0.651
 6775SOL    HW121224   0.584   3.652   0.743
 6775SOL    HW221225   0.598   3.523   0.645
 6776SOL     OW21226   5.771   5.999   6.730
 6776SOL    HW121227   5.810   5.927   6.787
 6776SOL    HW221228   5.749   5.963   6.640
 6777SOL     OW21229   4.275   4.731   0.229
 6777SOL    HW121230   4.187   4.777   0.214
 6777SOL    HW221231   4.332   4.741   0.148
 6778SOL     OW21232   6.209   5.783   3.269
 6778SOL    HW121233   6.205   5.686   3.244
 6778SOL    HW221234   6.154   5.836   3.205
 6779SOL     OW21235   5.418   3.327   6.529
 6779SOL    HW121236   5.400   3.364   6.437
 6779SOL    HW221237   5.479   3.249   6.522
 6780SOL     OW21238   1.067   3.054   1.427
 6780SOL    HW121239   1.001   2.981   1.443
 6780SOL    HW221240   1.136   3.053   1.500
 6781SOL     OW21241   5.144   4.293   5.671
 6781SOL    HW121242   5.166   4.314   5.766
 6781SOL    HW221243   5.094   4.206   5.667
 6782SOL     OW21244   6.206   1.668   3.571
 6782SOL    HW121245   6.178   1.576   3.599
 6782SOL    HW221246   6.306   1.676   3.578
 6783SOL     OW21247   1.219   5.610   6.544
 6783SOL    HW121248   1.144   5.676   6.547
 6783SOL    HW221249   1.223   5.568   6.453
 6784SOL     OW21250   4.369   3.507   0.232
 6784SOL    HW121251   4.455   3.474   0.194
 6784SOL    HW221252   4.319   3.558   0.162
 6785SOL     OW21253   5.409   5.816   2.030
 6785SOL    HW121254   5.394   5.718   2.047
 6785SOL    HW221255   5.507   5.834   2.024
 6786SOL     OW21256   1.627   3.625   5.253
 6786SOL    HW121257   1.660   3.668   5.337
 6786SOL    HW221258   1.684   3.655   5.176
 6787SOL     OW21259   0.998   4.145   1.705
 6787SOL    HW121260   1.088   4.115   1.674
 6787SOL    HW221261   0.996   4.149   1.805
 6788SOL     OW21262   2.765   3.919   1.177
 6788SOL    HW121263   2.760   3.891   1.273
 6788SOL    HW221264   2.839   3.870   1.131
 6789SOL     OW21265   1.722   4.446   3.005
 6789SOL    HW121266   1.775   4.504   2.943
 6789SOL    HW221267   1.704   4.358   2.961
 6790SOL     OW21268   1.117   3.116   0.220
 6790SOL    HW121269   1.204   3.099   0.174
 6790SOL    HW221270   1.099   3.044   0.286
 6791SOL     OW21271   3.854   4.039   5.999
 6791SOL    HW121272   3.946   4.015   6.029
 6791SOL    HW221273   3.797   3.957   5.998
 6792SOL     OW21274   0.381   5.227   0.832
 6792SOL    HW121275   0.329   5.146   0.860
 6792SOL    HW221276   0.393   5.227   0.733
 6793SOL     OW21277   5.305   1.104   0.815
 6793SOL    HW121278   5.258   1.023   0.780
 6793SOL    HW221279   5.269   1.186   0.770
 6794SOL     OW21280   3.412   1.492   4.764
 6794SOL    HW121281   3.417   1.529   4.857
 6794SOL    HW221282   3.317   1.497   4.731
 6795SOL     OW21283   3.485   5.629   6.894
 6795SOL    HW121284   3.421   5.560   6.860
 6795SOL    HW221285   3.577   5.610   6.859
 6796SOL     OW21286   4.247   2.053   2.436
 6796SOL    HW121287   4.252   1.986   2.510
 6796SOL    HW221288   4.179   2.024   2.369
 6797SOL     OW21289   6.430   2.443   2.565
 6797SOL    HW121290   6.454   2.528   2.517
 6797SOL    HW221291   6.427   2.368   2.500
 6798SOL     OW21292   6.189   0.050   2.409
 6798SOL    HW121293   6.242   6.989   2.388
 6798SOL    HW221294   6.095   0.023   2.433
 6799SOL     OW21295   5.127   6.187   2.158
 6799SOL    HW121296   5.032   6.203   2.130
 6799SOL    HW221297   5.133   6.101   2.207
 6800SOL     OW21298   3.326   4.108   6.330
 6800SOL    HW121299   3.271   4.182   6.292
 6800SOL    HW221300   3.292   4.083   6.421
 6801SOL     OW21301   0.693   3.335   3.135
 6801SOL    HW121302   0.688   3.362   3.039
 6801SOL    HW221303   0.641   3.251   3.149
 6802SOL     OW21304   3.051   4.843   2.611
 6802SOL    HW121305   3.064   4.839   2.512
 6802SOL    HW221306   2.972   4.787   2.637
 6803SOL     OW21307   4.058   2.043   0.502
 6803SOL    HW121308   4.047   1.977   0.576
 6803SOL    HW221309   4.074   2.134   0.541
 6804SOL     OW21310   1.544   6.160   3.708
 6804SOL    HW121311   1.455   6.144   3.752
 6804SOL    HW221312   1.546   6.254   3.673
 6805SOL     OW21313   5.804   1.240   5.702
 6805SOL    HW121314   5.794   1.224   5.604
 6805SOL    HW221315   5.734   1.187   5.752
 6806SOL     OW21316   4.875   6.516   4.936
 6806SOL    HW121317   4.877   6.420   4.906
 6806SOL    HW221318   4.831   6.571   4.865
 6807SOL     OW21319   3.998   3.541   0.190
 6807SOL    HW121320   3.992   3.477   0.267
 6807SOL    HW221321   3.946   3.505   0.113
 6808SOL     OW21322   2.316   4.240   4.415
 6808SOL    HW121323   2.401   4.290   4.433
 6808SOL    HW221324   2.313   4.215   4.318
 6809SOL     OW21325   1.281   3.632   0.021
 6809SOL    HW121326   1.265   3.659   6.947
 6809SOL    HW221327   1.310   3.712   0.074
 6810SOL     OW21328   5.787   1.172   3.834
 6810SOL    HW121329   5.785   1.228   3.917
 6810SOL    HW221330   5.881   1.167   3.799
 6811SOL     OW21331   5.207   6.188   1.884
 6811SOL    HW121332   5.296   6.143   1.876
 6811SOL    HW221333   5.172   6.179   1.977
 6812SOL     OW21334   3.327   2.948   2.940
 6812SOL    HW121335   3.411   2.907   2.904
 6812SOL    HW221336   3.337   2.962   3.039
 6813SOL     OW21337   5.283   3.685   0.952
 6813SOL    HW121338   5.310   3.769   0.905
 6813SOL    HW221339   5.185   3.687   0.971
 6814SOL     OW21340   2.263   2.602   0.689
 6814SOL    HW121341   2.280   2.510   0.655
 6814SOL    HW221342   2.317   2.618   0.772
 6815SOL     OW21343   1.593   0.399   0.611
 6815SOL    HW121344   1.645   0.330   0.661
 6815SOL    HW221345   1.507   0.417   0.658
 6816SOL     OW21346   4.955   4.686   1.730
 6816SOL    HW121347   4.982   4.595   1.760
 6816SOL    HW221348   5.035   4.734   1.694
 6817SOL     OW21349   1.139   2.880   6.018
 6817SOL    HW121350   1.131   2.917   6.110
 6817SOL    HW221351   1.050   2.846   5.988
 6818SOL     OW21352   3.729   5.166   1.300
 6818SOL    HW121353   3.792   5.203   1.368
 6818SOL    HW221354   3.778   5.149   1.214
 6819SOL     OW21355   2.317   1.853   3.674
 6819SOL    HW121356   2.406   1.811   3.657
 6819SOL    HW221357   2.250   1.782   3.695
 6820SOL     OW21358   1.784   5.148   4.878
 6820SOL    HW121359   1.883   5.140   4.886
 6820SOL    HW221360   1.740   5.103   4.956
 6821SOL     OW21361   2.020   3.087   3.784
 6821SOL    HW121362   2.069   3.017   3.835
 6821SOL    HW221363   2.075   3.171   3.779
 6822SOL     OW21364   5.173   1.381   5.590
 6822SOL    HW121365   5.220   1.448   5.647
 6822SOL    HW221366   5.157   1.421   5.499
 6823SOL     OW21367   4.022   3.457   2.056
 6823SOL    HW121368   4.039   3.359   2.044
 6823SOL    HW221369   4.084   3.493   2.127
 6824SOL     OW21370   0.468   5.632   5.058
 6824SOL    HW121371   0.490   5.665   5.149
 6824SOL    HW221372   0.412   5.700   5.010
 6825SOL     OW21373   5.353   0.287   4.234
 6825SOL    HW121374   5.398   0.334   4.159
 6825SOL    HW221375   5.319   0.199   4.202
 6826SOL     OW21376   1.139   3.053   3.284
 6826SOL    HW121377   1.090   3.127   3.330
 6826SOL    HW221378   1.237   3.059   3.307
 6827SOL     OW21379   4.329   5.460   5.293
 6827SOL    HW121380   4.263   5.510   5.349
 6827SOL    HW221381   4.384   5.400   5.351
 6828SOL     OW21382   2.407   1.794   1.248
 6828SOL    HW121383   2.347   1.858   1.201
 6828SOL    HW221384   2.432   1.832   1.337
 6829SOL     OW21385   5.696   5.040   3.614
 6829SOL    HW121386   5.747   5.066   3.695
 6829SOL    HW221387   5.722   4.947   3.587
 6830SOL     OW21388   5.129   1.925   3.762
 6830SOL    HW121389   5.060   1.874   3.812
 6830SOL    HW221390   5.180   1.863   3.702
 6831SOL     OW21391   0.197   1.846   5.676
 6831SOL    HW121392   0.216   1.827   5.580
 6831SOL    HW221393   0.257   1.791   5.734
 6832SOL     OW21394   3.331   4.645   1.017
 6832SOL    HW121395   3.373   4.685   1.098
 6832SOL    HW221396   3.269   4.571   1.044
 6833SOL     OW21397   4.076   6.158   0.548
 6833SOL    HW121398   3.992   6.108   0.527
 6833SOL    HW221399   4.074   6.248   0.505
 6834SOL     OW21400   2.551   5.050   2.455
 6834SOL    HW121401   2.564   5.134   2.403
 6834SOL    HW221402   2.593   5.059   2.546
 6835SOL     OW21403   3.825   0.000   4.445
 6835SOL    HW121404   3.750   6.991   4.504
 6835SOL    HW221405   3.844   6.951   4.377
 6836SOL     OW21406   3.822   5.754   0.067
 6836SOL    HW121407   3.800   5.851   0.059
 6836SOL    HW221408   3.772   5.715   0.145
 6837SOL     OW21409   0.618   3.214   2.813
 6837SOL    HW121410   0.686   3.143   2.834
 6837SOL    HW221411   0.558   3.182   2.739
 6838SOL     OW21412   2.911   1.859   1.018
 6838SOL    HW121413   2.894   1.943   1.070
 6838SOL    HW221414   2.839   1.846   0.950
 6839SOL     OW21415   3.791   0.932   1.837
 6839SOL    HW121416   3.857   0.874   1.789
 6839SOL    HW221417   3.780   0.899   1.931
 6840SOL     OW21418   0.961   1.006   5.942
 6840SOL    HW121419   1.006   0.920   5.919
 6840SOL    HW221420   0.883   0.988   6.001
 6841SOL     OW21421   0.314   3.184   5.796
 6841SOL    HW121422   0.216   3.171   5.781
 6841SOL    HW221423   0.364   3.106   5.759
 6842SOL     OW21424   2.768   4.709   2.554
 6842SOL    HW121425   2.674   4.680   2.573
 6842SOL    HW221426   2.790   4.689   2.458
 6843SOL     OW21427   4.438   0.163   1.300
 6843SOL    HW121428   4.517   0.219   1.275
 6843SOL    HW221429   4.371   0.220   1.347
 6844SOL     OW21430   5.684   0.433   5.535
 6844SOL    HW121431   5.760   0.402   5.479
 6844SOL    HW221432   5.717   0.498   5.604
 6845SOL     OW21433   5.455   2.074   2.540
 6845SOL    HW121434   5.425   1.980   2.555
 6845SOL    HW221435   5.476   2.087   2.443
 6846SOL     OW21436   2.008   3.437   0.155
 6846SOL    HW121437   2.064   3.354   0.149
 6846SOL    HW221438   1.915   3.414   0.181
 6847SOL     OW21439   0.095   2.289   3.728
 6847SOL    HW121440   0.010   2.281   3.781
 6847SOL    HW221441   0.104   2.209   3.669
 6848SOL     OW21442   6.947   4.728   4.183
 6848SOL    HW121443   6.858   4.759   4.150
 6848SOL    HW221444   6.973   4.645   4.134
 6849SOL     OW21445   2.803   4.234   5.453
 6849SOL    HW121446   2.761   4.149   5.423
 6849SOL    HW221447   2.892   4.246   5.409
 6850SOL     OW21448   5.211   0.046   4.204
 6850SOL    HW121449   5.198   7.008   4.284
 6850SOL    HW221450   5.283   0.008   4.145
 6851SOL     OW21451   1.740   4.167   2.852
 6851SOL    HW121452   1.837   4.188   2.867
 6851SOL    HW221453   1.732   4.086   2.794
 6852SOL     OW21454   4.428   3.624   0.635
 6852SOL    HW121455   4.352   3.594   0.693
 6852SOL    HW221456   4.425   3.723   0.624
 6853SOL     OW21457   4.145   4.828   6.048
 6853SOL    HW121458   4.097   4.837   6.135
 6853SOL    HW221459   4.117   4.742   6.004
 6854SOL     OW21460   5.073   6.392   5.318
 6854SOL    HW121461   5.124   6.313   5.282
 6854SOL    HW221462   5.136   6.454   5.365
 6855SOL     OW21463   3.509   5.226   3.052
 6855SOL    HW121464   3.601   5.204   3.084
 6855SOL    HW221465   3.459   5.274   3.125
 6856SOL     OW21466   6.502   2.374   0.792
 6856SOL    HW121467   6.523   2.412   0.702
 6856SOL    HW221468   6.431   2.305   0.782
 6857SOL     OW21469   1.748   4.815   5.954
 6857SOL    HW121470   1.750   4.731   6.008
 6857SOL    HW221471   1.834   4.826   5.905
 6858SOL     OW21472   1.204   3.850   1.541
 6858SOL    HW121473   1.285   3.801   1.575
 6858SOL    HW221474   1.219   3.948   1.551
 6859SOL     OW21475   2.456   2.167   1.125
 6859SOL    HW121476   2.442   2.118   1.039
 6859SOL    HW221477   2.373   2.161   1.180
 6860SOL     OW21478   0.271   6.703   0.124
 6860SOL    HW121479   0.339   6.775   0.116
 6860SOL    HW221480   0.217   6.698   0.040
 6861SOL     OW21481   6.590   3.252   6.918
 6861SOL    HW121482   6.554   3.326   6.862
 6861SOL    HW221483   6.645   3.290   6.992
 6862SOL     OW21484   0.568   4.258   3.414
 6862SOL    HW121485   0.576   4.320   3.335
 6862SOL    HW221486   0.631   4.182   3.402
 6863SOL     OW21487   5.018   1.055   5.397
 6863SOL    HW121488   4.960   0.989   5.444
 6863SOL    HW221489   4.974   1.145   5.397
 6864SOL     OW21490   1.889   3.497   6.369
 6864SOL    HW121491   1.963   3.474   6.432
 6864SOL    HW221492   1.842   3.414   6.341
 6865SOL     OW21493   1.760   0.590   3.772
 6865SOL    HW121494   1.702   0.557   3.846
 6865SOL    HW221495   1.727   0.680   3.742
 6866SOL     OW21496   2.159   4.857   0.165
 6866SOL    HW121497   2.062   4.876   0.156
 6866SOL    HW221498   2.210   4.914   0.100
 6867SOL     OW21499   2.184   2.844   6.319
 6867SOL    HW121500   2.134   2.858   6.404
 6867SOL    HW221501   2.126   2.868   6.241
 6868SOL     OW21502   3.794   4.879   2.859
 6868SOL    HW121503   3.742   4.832   2.930
 6868SOL    HW221504   3.735   4.899   2.781
 6869SOL     OW21505   1.474   0.610   5.515
 6869SOL    HW121506   1.503   0.674   5.444
 6869SOL    HW221507   1.425   0.659   5.586
 6870SOL     OW21508   5.213   2.918   6.651
 6870SOL    HW121509   5.274   2.872   6.587
 6870SOL    HW221510   5.237   2.894   6.744
 6871SOL     OW21511   6.284   2.187   2.785
 6871SOL    HW121512   6.301   2.184   2.884
 6871SOL    HW221513   6.235   2.271   2.763
 6872SOL     OW21514   1.415   4.595   0.857
 6872SOL    HW121515   1.461   4.608   0.769
 6872SOL    HW221516   1.462   4.647   0.928
 6873SOL     OW21517   0.418   3.922   2.525
 6873SOL    HW121518   0.362   4.000   2.552
 6873SOL    HW221519   0.432   3.862   2.604
 6874SOL     OW21520   3.977   5.616   1.664
 6874SOL    HW121521   4.031   5.672   1.602
 6874SOL    HW221522   3.881   5.621   1.640
 6875SOL     OW21523   2.420   1.425   6.620
 6875SOL    HW121524   2.404   1.515   6.581
 6875SOL    HW221525   2.332   1.382   6.642
 6876SOL     OW21526   5.806   5.214   3.443
 6876SOL    HW121527   5.742   5.245   3.373
 6876SOL    HW221528   5.763   5.143   3.499
 6877SOL     OW21529   0.603   4.389   1.378
 6877SOL    HW121530   0.684   4.421   1.426
 6877SOL    HW221531   0.601   4.428   1.286
 6878SOL     OW21532   1.904   0.748   4.012
 6878SOL    HW121533   1.971   0.716   3.944
 6878SOL    HW221534   1.870   0.670   4.064
 6879SOL     OW21535   0.982   1.450   1.534
 6879SOL    HW121536   0.982   1.362   1.581
 6879SOL    HW221537   1.070   1.463   1.489
 6880SOL     OW21538   1.798   6.368   0.436
 6880SOL    HW121539   1.761   6.375   0.344
 6880SOL    HW221540   1.883   6.316   0.434
 6881SOL     OW21541   6.961   3.762   0.640
 6881SOL    HW121542   6.990   3.752   0.735
 6881SOL    HW221543   0.004   3.821   0.591
 6882SOL     OW21544   2.876   6.711   0.332
 6882SOL    HW121545   2.904   6.743   0.241
 6882SOL    HW221546   2.804   6.643   0.322
 6883SOL     OW21547   4.514   6.914   0.891
 6883SOL    HW121548   4.611   6.926   0.872
 6883SOL    HW221549   4.502   6.847   0.964
 6884SOL     OW21550   1.380   5.017   3.029
 6884SOL    HW121551   1.385   5.108   2.989
 6884SOL    HW221552   1.467   4.995   3.073
 6885SOL     OW21553   5.587   4.779   4.714
 6885SOL    HW121554   5.614   4.874   4.697
 6885SOL    HW221555   5.498   4.762   4.673
 6886SOL     OW21556   5.287   3.894   0.751
 6886SOL    HW121557   5.246   3.977   0.788
 6886SOL    HW221558   5.385   3.910   0.735
 6887SOL     OW21559   5.300   6.634   5.820
 6887SOL    HW121560   5.292   6.732   5.800
 6887SOL    HW221561   5.362   6.592   5.754
 6888SOL     OW21562   6.344   4.514   0.497
 6888SOL    HW121563   6.356   4.424   0.456
 6888SOL    HW221564   6.246   4.534   0.507
 6889SOL     OW21565   0.138   2.714   5.258
 6889SOL    HW121566   0.136   2.669   5.168
 6889SOL    HW221567   0.221   2.770   5.265
 6890SOL     OW21568   4.761   4.654   4.148
 6890SOL    HW121569   4.668   4.683   4.172
 6890SOL    HW221570   4.758   4.564   4.106
 6891SOL     OW21571   1.710   1.887   0.794
 6891SOL    HW121572   1.660   1.860   0.712
 6891SOL    HW221573   1.730   1.984   0.791
 6892SOL     OW21574   1.771   0.896   4.952
 6892SOL    HW121575   1.817   0.807   4.949
 6892SOL    HW221576   1.803   0.947   5.031
 6893SOL     OW21577   6.030   3.103   0.297
 6893SOL    HW121578   6.088   3.147   0.366
 6893SOL    HW221579   5.959   3.166   0.267
 6894SOL     OW21580   5.437   5.299   0.003
 6894SOL    HW121581   5.431   5.367   6.950
 6894SOL    HW221582   5.366   5.231   7.011
 6895SOL     OW21583   1.495   5.523   2.442
 6895SOL    HW121584   1.548   5.452   2.396
 6895SOL    HW221585   1.397   5.507   2.426
 6896SOL     OW21586   5.354   0.782   6.552
 6896SOL    HW121587   5.286   0.852   6.575
 6896SOL    HW221588   5.308   0.693   6.544
 6897SOL     OW21589   4.308   2.332   4.798
 6897SOL    HW121590   4.264   2.368   4.880
 6897SOL    HW221591   4.370   2.402   4.761
 6898SOL     OW21592   2.022   6.936   1.420
 6898SOL    HW121593   1.940   6.914   1.368
 6898SOL    HW221594   2.002   7.009   1.485
 6899SOL     OW21595   5.302   5.315   2.492
 6899SOL    HW121596   5.309   5.381   2.568
 6899SOL    HW221597   5.304   5.364   2.405
 6900SOL     OW21598   0.181   4.094   4.502
 6900SOL    HW121599   0.163   4.174   4.559
 6900SOL    HW221600   0.179   4.012   4.559
 6901SOL     OW21601   5.336   4.442   6.432
 6901SOL    HW121602   5.272   4.444   6.356
 6901SOL    HW221603   5.286   4.433   6.518
 6902SOL     OW21604   0.291   6.052   5.905
 6902SOL    HW121605   0.207   6.105   5.899
 6902SOL    HW221606   0.331   6.044   5.814
 6903SOL     OW21607   1.521   6.422   5.384
 6903SOL    HW121608   1.465   6.457   5.309
 6903SOL    HW221609   1.614   6.406   5.352
 6904SOL     OW21610   0.915   0.453   6.210
 6904SOL    HW121611   0.824   0.468   6.248
 6904SOL    HW221612   0.939   0.529   6.150
 6905SOL     OW21613   4.326   5.955   5.694
 6905SOL    HW121614   4.376   6.005   5.624
 6905SOL    HW221615   4.250   5.905   5.652
 6906SOL     OW21616   3.205   1.771   3.295
 6906SOL    HW121617   3.171   1.851   3.344
 6906SOL    HW221618   3.217   1.694   3.359
 6907SOL     OW21619   6.024   2.819   0.204
 6907SOL    HW121620   5.999   2.906   0.246
 6907SOL    HW221621   6.027   2.829   0.104
 6908SOL     OW21622   3.793   6.074   0.532
 6908SOL    HW121623   3.788   6.027   0.444
 6908SOL    HW221624   3.773   6.171   0.519
 6909SOL     OW21625   5.738   4.444   2.421
 6909SOL    HW121626   5.786   4.454   2.509
 6909SOL    HW221627   5.730   4.347   2.399
 6910SOL     OW21628   1.705   2.445   1.832
 6910SOL    HW121629   1.675   2.355   1.803
 6910SOL    HW221630   1.762   2.437   1.914
 6911SOL     OW21631   2.670   6.724   4.967
 6911SOL    HW121632   2.570   6.720   4.958
 6911SOL    HW221633   2.697   6.818   4.989
 6912SOL     OW21634   2.800   4.186   6.286
 6912SOL    HW121635   2.803   4.119   6.360
 6912SOL    HW221636   2.758   4.146   6.205
 6913SOL     OW21637   4.064   5.601   5.999
 6913SOL    HW121638   4.133   5.585   5.928
 6913SOL    HW221639   4.104   5.655   6.073
 6914SOL     OW21640   0.638   2.190   2.369
 6914SOL    HW121641   0.700   2.245   2.425
 6914SOL    HW221642   0.632   2.230   2.277
 6915SOL     OW21643   0.013   3.350   4.526
 6915SOL    HW121644   6.945   3.349   4.573
 6915SOL    HW221645   0.054   3.440   4.536
 6916SOL     OW21646   4.661   6.176   5.810
 6916SOL    HW121647   4.599   6.224   5.749
 6916SOL    HW221648   4.756   6.196   5.785
 6917SOL     OW21649   4.023   6.008   2.281
 6917SOL    HW121650   3.973   6.094   2.275
 6917SOL    HW221651   3.959   5.931   2.272
 6918SOL     OW21652   2.123   3.678   0.048
 6918SOL    HW121653   2.106   3.594   0.101
 6918SOL    HW221654   2.048   3.743   0.065
 6919SOL     OW21655   6.307   6.097   3.188
 6919SOL    HW121656   6.231   6.048   3.145
 6919SOL    HW221657   6.306   6.081   3.287
 6920SOL     OW21658   0.446   2.877   5.096
 6920SOL    HW121659   0.425   2.841   5.005
 6920SOL    HW221660   0.381   2.949   5.119
 6921SOL     OW21661   3.556   0.556   4.974
 6921SOL    HW121662   3.534   0.602   5.060
 6921SOL    HW221663   3.482   0.492   4.952
 6922SOL     OW21664   3.071   4.794   6.532
 6922SOL    HW121665   3.034   4.887   6.526
 6922SOL    HW221666   3.015   4.732   6.477
 6923SOL     OW21667   5.056   0.059   3.178
 6923SOL    HW121668   5.130   0.098   3.231
 6923SOL    HW221669   5.003   0.132   3.135
 6924SOL     OW21670   2.998   4.965   1.820
 6924SOL    HW121671   2.930   4.964   1.747
 6924SOL    HW221672   3.008   4.872   1.857
 6925SOL     OW21673   6.775   6.435   4.663
 6925SOL    HW121674   6.798   6.457   4.758
 6925SOL    HW221675   6.848   6.465   4.603
 6926SOL     OW21676   3.052   2.739   0.326
 6926SOL    HW121677   3.069   2.677   0.403
 6926SOL    HW221678   3.058   2.687   0.240
 6927SOL     OW21679   3.250   0.113   5.799
 6927SOL    HW121680   3.344   0.080   5.797
 6927SOL    HW221681   3.224   0.147   5.709
 6928SOL     OW21682   4.245   5.924   0.610
 6928SOL    HW121683   4.183   6.000   0.588
 6928SOL    HW221684   4.257   5.918   0.709
 6929SOL     OW21685   4.505   5.332   2.954
 6929SOL    HW121686   4.462   5.389   2.883
 6929SOL    HW221687   4.434   5.299   3.017
 6930SOL     OW21688   1.022   6.010   2.126
 6930SOL    HW121689   1.093   6.075   2.153
 6930SOL    HW221690   1.043   5.973   2.036
 6931SOL     OW21691   3.356   3.133   0.772
 6931SOL    HW121692   3.375   3.052   0.828
 6931SOL    HW221693   3.387   3.116   0.679
 6932SOL     OW21694   3.970   0.951   6.836
 6932SOL    HW121695   3.942   0.893   6.759
 6932SOL    HW221696   3.911   0.932   6.914
 6933SOL     OW21697   3.626   6.113   5.905
 6933SOL    HW121698   3.603   6.127   5.809
 6933SOL    HW221699   3.564   6.166   5.962
 6934SOL     OW21700   4.731   5.070   0.173
 6934SOL    HW121701   4.782   5.155   0.161
 6934SOL    HW221702   4.643   5.091   0.216
 6935SOL     OW21703   4.150   5.724   2.646
 6935SOL    HW121704   4.121   5.700   2.554
 6935SOL    HW221705   4.229   5.785   2.641
 6936SOL     OW21706   0.919   1.850   6.764
 6936SOL    HW121707   0.871   1.894   6.840
 6936SOL    HW221708   0.928   1.914   6.688
 6937SOL     OW21709   5.574   4.529   0.639
 6937SOL    HW121710   5.639   4.499   0.708
 6937SOL    HW221711   5.622   4.578   0.566
 6938SOL     OW21712   3.076   0.064   5.293
 6938SOL    HW121713   3.098   0.017   5.209
 6938SOL    HW221714   3.015   0.007   5.349
 6939SOL     OW21715   5.660   2.931   3.535
 6939SOL    HW121716   5.629   3.021   3.564
 6939SOL    HW221717   5.759   2.924   3.547
 6940SOL     OW21718   1.515   6.417   1.885
 6940SOL    HW121719   1.601   6.410   1.835
 6940SOL    HW221720   1.473   6.327   1.892
 6941SOL     OW21721   3.466   2.932   2.473
 6941SOL    HW121722   3.536   2.876   2.428
 6941SOL    HW221723   3.509   3.011   2.515
 6942SOL     OW21724   6.928   4.935   2.895
 6942SOL    HW121725   6.944   4.879   2.976
 6942SOL    HW221726   6.831   4.957   2.888
 6943SOL     OW21727   3.248   5.476   5.222
 6943SOL    HW121728   3.311   5.516   5.288
 6943SOL    HW221729   3.155   5.478   5.260
 6944SOL     OW21730   0.755   4.699   5.067
 6944SOL    HW121731   0.813   4.741   5.137
 6944SOL    HW221732   0.808   4.686   4.983
 6945SOL     OW21733   4.265   1.509   0.794
 6945SOL    HW121734   4.195   1.577   0.773
 6945SOL    HW221735   4.353   1.539   0.756
 6946SOL     OW21736   5.229   5.569   3.211
 6946SOL    HW121737   5.244   5.635   3.285
 6946SOL    HW221738   5.230   5.618   3.123
 6947SOL     OW21739   6.461   3.852   5.407
 6947SOL    HW121740   6.462   3.942   5.452
 6947SOL    HW221741   6.368   3.831   5.377
 6948SOL     OW21742   0.160   4.760   6.657
 6948SOL    HW121743   0.208   4.690   6.710
 6948SOL    HW221744   0.226   4.812   6.603
 6949SOL     OW21745   2.498   1.416   3.296
 6949SOL    HW121746   2.574   1.457   3.245
 6949SOL    HW221747   2.462   1.484   3.360
 6950SOL     OW21748   1.855   1.433   4.514
 6950SOL    HW121749   1.885   1.423   4.420
 6950SOL    HW221750   1.934   1.427   4.575
 6951SOL     OW21751   1.070   3.862   6.992
 6951SOL    HW121752   0.989   3.807   6.972
 6951SOL    HW221753   1.110   3.832   0.058
 6952SOL     OW21754   4.058   4.808   3.360
 6952SOL    HW121755   3.999   4.769   3.289
 6952SOL    HW221756   4.042   4.761   3.447
 6953SOL     OW21757   0.521   0.640   1.924
 6953SOL    HW121758   0.453   0.711   1.905
 6953SOL    HW221759   0.564   0.657   2.012
 6954SOL     OW21760   6.475   5.206   6.190
 6954SOL    HW121761   6.399   5.261   6.157
 6954SOL    HW221762   6.517   5.157   6.114
 6955SOL     OW21763   4.078   6.029   2.597
 6955SOL    HW121764   4.132   6.010   2.679
 6955SOL    HW221765   4.121   5.986   2.518
 6956SOL     OW21766   6.016   5.073   2.008
 6956SOL    HW121767   6.115   5.088   2.005
 6956SOL    HW221768   5.996   4.997   2.069
 6957SOL     OW21769   5.894   4.174   5.143
 6957SOL    HW121770   5.960   4.215   5.205
 6957SOL    HW221771   5.849   4.246   5.090
 6958SOL     OW21772   3.547   3.680   1.994
 6958SOL    HW121773   3.508   3.630   2.072
 6958SOL    HW221774   3.525   3.778   2.003
 6959SOL     OW21775   0.845   3.502   2.635
 6959SOL    HW121776   0.754   3.478   2.599
 6959SOL    HW221777   0.903   3.421   2.635
 6960SOL     OW21778   5.545   4.695   1.794
 6960SOL    HW121779   5.549   4.745   1.708
 6960SOL    HW221780   5.513   4.602   1.776
 6961SOL     OW21781   5.307   2.365   4.832
 6961SOL    HW121782   5.252   2.400   4.757
 6961SOL    HW221783   5.258   2.377   4.918
 6962SOL     OW21784   2.156   6.485   0.533
 6962SOL    HW121785   2.132   6.537   0.615
 6962SOL    HW221786   2.180   6.548   0.459
 6963SOL     OW21787   0.628   6.739   6.966
 6963SOL    HW121788   0.632   6.689   0.031
 6963SOL    HW221789   0.709   6.798   6.959
 6964SOL     OW21790   2.403   1.404   5.276
 6964SOL    HW121791   2.479   1.377   5.217
 6964SOL    HW221792   2.353   1.479   5.233
 6965SOL     OW21793   1.843   1.178   6.894
 6965SOL    HW121794   1.761   1.126   6.914
 6965SOL    HW221795   1.922   1.117   6.893
 6966SOL     OW21796   1.680   6.567   0.942
 6966SOL    HW121797   1.776   6.573   0.969
 6966SOL    HW221798   1.628   6.640   0.987
 6967SOL     OW21799   3.796   0.028   6.678
 6967SOL    HW121800   3.789   6.976   6.609
 6967SOL    HW221801   3.772   0.115   6.636
 6968SOL     OW21802   3.992   0.504   2.130
 6968SOL    HW121803   3.996   0.452   2.215
 6968SOL    HW221804   4.046   0.459   2.060
 6969SOL     OW21805   1.613   3.468   2.924
 6969SOL    HW121806   1.697   3.433   2.883
 6969SOL    HW221807   1.613   3.449   3.022
 6970SOL     OW21808   3.640   5.847   6.007
 6970SOL    HW121809   3.656   5.934   5.961
 6970SOL    HW221810   3.695   5.775   5.964
 6971SOL     OW21811   6.929   3.546   6.925
 6971SOL    HW121812   6.971   3.619   6.871
 6971SOL    HW221813   6.968   3.548   7.018
 6972SOL     OW21814   5.767   3.814   1.934
 6972SOL    HW121815   5.815   3.789   2.018
 6972SOL    HW221816   5.733   3.731   1.889
 6973SOL     OW21817   1.138   1.431   3.127
 6973SOL    HW121818   1.207   1.495   3.161
 6973SOL    HW221819   1.159   1.339   3.161
 6974SOL     OW21820   3.969   3.068   3.011
 6974SOL    HW121821   4.051   3.101   2.964
 6974SOL    HW221822   3.980   3.081   3.110
 6975SOL     OW21823   3.273   5.154   4.770
 6975SOL    HW121824   3.203   5.093   4.805
 6975SOL    HW221825   3.282   5.234   4.830
 6976SOL     OW21826   4.789   5.288   5.984
 6976SOL    HW121827   4.774   5.307   6.081
 6976SOL    HW221828   4.886   5.299   5.962
 6977SOL     OW21829   4.134   4.767   2.106
 6977SOL    HW121830   4.034   4.761   2.102
 6977SOL    HW221831   4.174   4.680   2.076
 6978SOL     OW21832   1.311   3.987   1.245
 6978SOL    HW121833   1.227   3.934   1.244
 6978SOL    HW221834   1.294   4.079   1.209
 6979SOL     OW21835   1.226   4.058   2.713
 6979SOL    HW121836   1.268   4.006   2.787
 6979SOL    HW221837   1.235   4.156   2.732
 6980SOL     OW21838   2.319   4.442   3.605
 6980SOL    HW121839   2.344   4.346   3.590
 6980SOL    HW221840   2.400   4.499   3.592
 6981SOL     OW21841   4.008   2.236   6.555
 6981SOL    HW121842   4.080   2.301   6.580
 6981SOL    HW221843   4.020   2.207   6.460
 6982SOL     OW21844   6.457   6.958   2.004
 6982SOL    HW121845   6.409   0.013   1.959
 6982SOL    HW221846   6.553   6.959   1.977
 6983SOL     OW21847   6.957   0.686   3.890
 6983SOL    HW121848   7.002   0.752   3.951
 6983SOL    HW221849   6.932   0.604   3.942
 6984SOL     OW21850   1.913   4.371   3.343
 6984SOL    HW121851   1.985   4.306   3.367
 6984SOL    HW221852   1.829   4.320   3.321
 6985SOL     OW21853   5.415   3.369   0.941
 6985SOL    HW121854   5.346   3.307   0.978
 6985SOL    HW221855   5.504   3.324   0.941
 6986SOL     OW21856   3.708   5.829   5.186
 6986SOL    HW121857   3.624   5.833   5.131
 6986SOL    HW221858   3.787   5.846   5.128
 6987SOL     OW21859   7.015   1.224   6.617
 6987SOL    HW121860   6.949   1.160   6.576
 6987SOL    HW221861   6.969   1.309   6.641
 6988SOL     OW21862   1.830   0.145   5.902
 6988SOL    HW121863   1.827   0.214   5.829
 6988SOL    HW221864   1.876   0.183   5.982
 6989SOL     OW21865   0.737   3.430   2.155
 6989SOL    HW121866   0.761   3.402   2.063
 6989SOL    HW221867   0.807   3.400   2.219
 6990SOL     OW21868   3.928   4.749   6.737
 6990SOL    HW121869   3.946   4.701   6.651
 6990SOL    HW221870   3.938   4.685   6.813
 6991SOL     OW21871   5.089   4.120   3.258
 6991SOL    HW121872   4.996   4.082   3.265
 6991SOL    HW221873   5.084   4.218   3.241
 6992SOL     OW21874   1.996   5.321   5.949
 6992SOL    HW121875   2.027   5.410   5.918
 6992SOL    HW221876   1.977   5.263   5.870
 6993SOL     OW21877   4.397   2.073   1.280
 6993SOL    HW121878   4.371   2.030   1.193
 6993SOL    HW221879   4.407   2.171   1.267
 6994SOL     OW21880   3.092   1.168   2.996
 6994SOL    HW121881   3.005   1.212   3.018
 6994SOL    HW221882   3.102   1.161   2.897
 6995SOL     OW21883   6.865   5.279   0.688
 6995SOL    HW121884   6.950   5.235   0.717
 6995SOL    HW221885   6.799   5.209   0.661
 6996SOL     OW21886   0.610   1.693   6.295
 6996SOL    HW121887   0.600   1.741   6.208
 6996SOL    HW221888   0.660   1.607   6.281
 6997SOL     OW21889   6.052   6.033   5.877
 6997SOL    HW121890   6.052   6.058   5.973
 6997SOL    HW221891   6.048   6.115   5.820
 6998SOL     OW21892   0.513   1.154   6.962
 6998SOL    HW121893   0.448   1.228   6.983
 6998SOL    HW221894   0.553   1.170   6.872
 6999SOL     OW21895   0.333   2.800   0.401
 6999SOL    HW121896   0.260   2.796   0.468
 6999SOL    HW221897   0.297   2.832   0.313
 7000SOL     OW21898   0.579   4.815   3.221
 7000SOL    HW121899   0.499   4.760   3.245
 7000SOL    HW221900   0.567   4.908   3.256
 7001SOL     OW21901   0.808   1.276   4.617
 7001SOL    HW121902   0.782   1.268   4.521
 7001SOL    HW221903   0.818   1.184   4.657
 7002SOL     OW21904   1.292   4.408   3.035
 7002SOL    HW121905   1.270   4.475   2.964
 7002SOL    HW221906   1.350   4.451   3.104
 7003SOL     OW21907   0.508   5.497   6.211
 7003SOL    HW121908   0.607   5.505   6.224
 7003SOL    HW221909   0.471   5.432   6.277
 7004SOL     OW21910   1.198   0.877   6.689
 7004SOL    HW121911   1.232   0.965   6.723
 7004SOL    HW221912   1.117   0.850   6.741
 7005SOL     OW21913   1.699   5.383   7.015
 7005SOL    HW121914   1.688   5.369   6.916
 7005SOL    HW221915   1.786   5.345   0.024
 7006SOL     OW21916   0.532   0.468   3.734
 7006SOL    HW121917   0.440   0.463   3.693
 7006SOL    HW221918   0.542   0.555   3.783
 7007SOL     OW21919   1.990   0.074   6.568
 7007SOL    HW121920   1.929   0.134   6.620
 7007SOL    HW221921   1.983   7.002   6.604
 7008SOL     OW21922   5.379   3.169   2.531
 7008SOL    HW121923   5.297   3.126   2.569
 7008SOL    HW221924   5.441   3.098   2.499
 7009SOL     OW21925   5.383   5.568   2.678
 7009SOL    HW121926   5.321   5.632   2.633
 7009SOL    HW221927   5.330   5.502   2.732
 7010SOL     OW21928   5.138   3.067   2.629
 7010SOL    HW121929   5.120   3.072   2.530
 7010SOL    HW221930   5.054   3.086   2.679
 7011SOL     OW21931   2.079   5.939   6.415
 7011SOL    HW121932   2.115   6.032   6.401
 7011SOL    HW221933   1.981   5.938   6.395
 7012SOL     OW21934   6.993   4.120   0.483
 7012SOL    HW121935   6.898   4.140   0.459
 7012SOL    HW221936   0.032   4.188   0.441
 7013SOL     OW21937   2.957   2.560   6.931
 7013SOL    HW121938   2.877   2.574   6.872
 7013SOL    HW221939   2.952   2.470   6.974
 7014SOL     OW21940   6.667   3.508   0.799
 7014SOL    HW121941   6.689   3.505   0.896
 7014SOL    HW221942   6.687   3.419   0.758
 7015SOL     OW21943   5.709   6.176   1.292
 7015SOL    HW121944   5.784   6.236   1.321
 7015SOL    HW221945   5.747   6.093   1.251
 7016SOL     OW21946   3.356   5.238   0.854
 7016SOL    HW121947   3.264   5.234   0.893
 7016SOL    HW221948   3.414   5.297   0.911
 7017SOL     OW21949   6.256   4.608   6.474
 7017SOL    HW121950   6.294   4.618   6.566
 7017SOL    HW221951   6.282   4.519   6.437
 7018SOL     OW21952   6.102   3.107   4.478
 7018SOL    HW121953   6.025   3.066   4.526
 7018SOL    HW221954   6.161   3.155   4.543
 7019SOL     OW21955   3.328   5.873   2.428
 7019SOL    HW121956   3.288   5.805   2.367
 7019SOL    HW221957   3.423   5.889   2.402
 7020SOL     OW21958   0.033   1.615   0.853
 7020SOL    HW121959   0.022   1.541   0.787
 7020SOL    HW221960   6.971   1.624   0.907
 7021SOL     OW21961   0.651   2.559   4.618
 7021SOL    HW121962   0.725   2.507   4.662
 7021SOL    HW221963   0.585   2.495   4.577
 7022SOL     OW21964   1.826   3.958   0.817
 7022SOL    HW121965   1.903   3.989   0.761
 7022SOL    HW221966   1.828   4.005   0.905
 7023SOL     OW21967   6.947   2.024   1.491
 7023SOL    HW121968   6.928   2.089   1.564
 7023SOL    HW221969   6.951   2.073   1.403
 7024SOL     OW21970   3.616   4.209   5.939
 7024SOL    HW121971   3.714   4.188   5.945
 7024SOL    HW221972   3.602   4.284   5.874
 7025SOL     OW21973   2.809   0.993   1.043
 7025SOL    HW121974   2.721   1.020   1.003
 7025SOL    HW221975   2.863   0.945   0.974
 7026SOL     OW21976   2.714   2.358   1.578
 7026SOL    HW121977   2.741   2.312   1.662
 7026SOL    HW221978   2.711   2.292   1.503
 7027SOL     OW21979   2.734   4.597   0.841
 7027SOL    HW121980   2.797   4.521   0.828
 7027SOL    HW221981   2.640   4.565   0.831
 7028SOL     OW21982   3.449   0.536   2.888
 7028SOL    HW121983   3.479   0.609   2.950
 7028SOL    HW221984   3.521   0.468   2.880
 7029SOL     OW21985   3.540   3.871   3.801
 7029SOL    HW121986   3.578   3.780   3.819
 7029SOL    HW221987   3.452   3.862   3.754
 7030SOL     OW21988   6.264   6.546   4.923
 7030SOL    HW121989   6.354   6.545   4.879
 7030SOL    HW221990   6.261   6.473   4.992
 7031SOL     OW21991   5.710   5.125   0.666
 7031SOL    HW121992   5.630   5.183   0.683
 7031SOL    HW221993   5.776   5.136   0.740
 7032SOL     OW21994   4.028   4.829   3.731
 7032SOL    HW121995   4.104   4.793   3.676
 7032SOL    HW221996   4.062   4.854   3.822
 7033SOL     OW21997   2.132   1.802   5.575
 7033SOL    HW121998   2.175   1.712   5.583
 7033SOL    HW221999   2.104   1.833   5.665
 7034SOL     OW22000   6.535   2.198   2.104
 7034SOL    HW122001   6.614   2.259   2.095
 7034SOL    HW222002   6.451   2.248   2.084
 7035SOL     OW22003   3.395   2.390   1.268
 7035SOL    HW122004   3.489   2.380   1.298
 7035SOL    HW222005   3.334   2.394   1.347
 7036SOL     OW22006   6.587   1.674   1.704
 7036SOL    HW122007   6.590   1.715   1.613
 7036SOL    HW222008   6.553   1.741   1.770
 7037SOL     OW22009   0.696   0.973   6.094
 7037SOL    HW122010   0.753   1.033   6.151
 7037SOL    HW222011   0.649   0.907   6.153
 7038SOL     OW22012   0.601   4.354   0.278
 7038SOL    HW122013   0.629   4.420   0.209
 7038SOL    HW222014   0.616   4.393   0.369
 7039SOL     OW22015   6.953   0.114   1.542
 7039SOL    HW122016   6.891   0.193   1.541
 7039SOL    HW222017   6.977   0.092   1.637
 7040SOL     OW22018   4.915   3.186   4.448
 7040SOL    HW122019   4.880   3.097   4.478
 7040SOL    HW222020   4.968   3.228   4.522
 7041SOL     OW22021   0.714   6.991   3.394
 7041SOL    HW122022   0.753   6.972   3.304
 7041SOL    HW222023   0.623   6.952   3.400
 7042SOL     OW22024   5.607   5.688   5.492
 7042SOL    HW122025   5.614   5.774   5.442
 7042SOL    HW222026   5.692   5.636   5.482
 7043SOL     OW22027   2.123   5.794   0.501
 7043SOL    HW122028   2.177   5.863   0.550
 7043SOL    HW222029   2.042   5.837   0.462
 7044SOL     OW22030   4.073   6.374   4.779
 7044SOL    HW122031   4.007   6.443   4.809
 7044SOL    HW222032   4.089   6.309   4.853
 7045SOL     OW22033   5.330   6.613   1.717
 7045SOL    HW122034   5.258   6.594   1.784
 7045SOL    HW222035   5.319   6.706   1.683
 7046SOL     OW22036   3.061   1.171   2.722
 7046SOL    HW122037   3.079   1.128   2.633
 7046SOL    HW222038   3.001   1.250   2.710
 7047SOL     OW22039   1.746   0.147   0.693
 7047SOL    HW122040   1.707   0.057   0.674
 7047SOL    HW222041   1.810   0.172   0.620
 7048SOL     OW22042   0.563   5.724   4.176
 7048SOL    HW122043   0.598   5.654   4.114
 7048SOL    HW222044   0.558   5.812   4.128
 7049SOL     OW22045   2.930   1.344   4.704
 7049SOL    HW122046   2.877   1.343   4.620
 7049SOL    HW222047   2.875   1.385   4.777
 7050SOL     OW22048   4.298   4.598   0.797
 7050SOL    HW122049   4.316   4.509   0.755
 7050SOL    HW222050   4.201   4.603   0.822
 7051SOL     OW22051   1.870   1.146   2.084
 7051SOL    HW122052   1.961   1.166   2.121
 7051SOL    HW222053   1.879   1.110   1.991
 7052SOL     OW22054   4.954   2.052   3.074
 7052SOL    HW122055   4.937   2.141   3.031
 7052SOL    HW222056   5.004   1.993   3.010
 7053SOL     OW22057   0.813   4.519   3.693
 7053SOL    HW122058   0.906   4.486   3.710
 7053SOL    HW222059   0.750   4.474   3.756
 7054SOL     OW22060   5.511   0.120   0.519
 7054SOL    HW122061   5.477   0.046   0.461
 7054SOL    HW222062   5.528   0.201   0.463
 7055SOL     OW22063   2.083   0.411   6.992
 7055SOL    HW122064   2.136   0.491   6.964
 7055SOL    HW222065   1.986   0.429   6.978
 7056SOL     OW22066   6.792   5.354   0.946
 7056SOL    HW122067   6.846   5.277   0.981
 7056SOL    HW222068   6.797   5.354   0.846
 7057SOL     OW22069   3.141   5.565   4.590
 7057SOL    HW122070   3.064   5.502   4.601
 7057SOL    HW222071   3.117   5.654   4.630
 7058SOL     OW22072   5.779   2.461   5.979
 7058SOL    HW122073   5.750   2.470   5.884
 7058SOL    HW222074   5.842   2.535   6.002
 7059SOL     OW22075   1.284   1.268   4.789
 7059SOL    HW122076   1.185   1.282   4.786
 7059SOL    HW222077   1.309   1.191   4.730
 7060SOL     OW22078   3.011   2.247   1.654
 7060SOL    HW122079   3.100   2.292   1.643
 7060SOL    HW222080   2.950   2.306   1.707
 7061SOL     OW22081   1.876   0.501   1.454
 7061SOL    HW122082   1.897   0.593   1.420
 7061SOL    HW222083   1.961   0.457   1.485
 7062SOL     OW22084   3.607   0.966   5.248
 7062SOL    HW122085   3.558   1.006   5.171
 7062SOL    HW222086   3.668   1.034   5.288
 7063SOL     OW22087   0.218   1.295   1.612
 7063SOL    HW122088   0.179   1.229   1.548
 7063SOL    HW222089   0.145   1.342   1.661
 7064SOL     OW22090   2.916   1.578   5.359
 7064SOL    HW122091   2.981   1.515   5.317
 7064SOL    HW222092   2.961   1.664   5.381
 7065SOL     OW22093   3.328   0.018   4.189
 7065SOL    HW122094   3.248   7.001   4.238
 7065SOL    HW222095   3.388   0.064   4.254
 7066SOL     OW22096   3.878   0.955   1.057
 7066SOL    HW122097   3.859   0.942   1.155
 7066SOL    HW222098   3.960   1.012   1.046
 7067SOL     OW22099   2.751   4.184   5.992
 7067SOL    HW122100   2.799   4.272   5.987
 7067SOL    HW222101   2.719   4.159   5.901
 7068SOL     OW22102   4.615   4.747   2.810
 7068SOL    HW122103   4.681   4.716   2.879
 7068SOL    HW222104   4.593   4.844   2.826
 7069SOL     OW22105   4.047   1.223   5.103
 7069SOL    HW122106   3.977   1.236   5.033
 7069SOL    HW222107   4.136   1.208   5.059
 7070SOL     OW22108   6.707   1.171   5.630
 7070SOL    HW122109   6.630   1.110   5.614
 7070SOL    HW222110   6.785   1.142   5.576
 7071SOL     OW22111   4.571   5.620   6.837
 7071SOL    HW122112   4.533   5.657   6.922
 7071SOL    HW222113   4.565   5.689   6.764
 7072SOL     OW22114   1.073   3.820   6.288
 7072SOL    HW122115   1.168   3.803   6.314
 7072SOL    HW222116   1.011   3.782   6.357
 7073SOL     OW22117   3.950   1.363   4.204
 7073SOL    HW122118   3.999   1.292   4.254
 7073SOL    HW222119   3.885   1.408   4.265
 7074SOL     OW22120   5.903   3.305   2.337
 7074SOL    HW122121   5.909   3.205   2.339
 7074SOL    HW222122   5.903   3.340   2.431
 7075SOL     OW22123   2.160   4.793   2.648
 7075SOL    HW122124   2.121   4.726   2.585
 7075SOL    HW222125   2.233   4.844   2.602
 7076SOL     OW22126   6.462   2.630   0.834
 7076SOL    HW122127   6.489   2.535   0.851
 7076SOL    HW222128   6.389   2.632   0.766
 7077SOL     OW22129   3.644   5.810   1.795
 7077SOL    HW122130   3.601   5.731   1.840
 7077SOL    HW222131   3.687   5.781   1.710
 7078SOL     OW22132   0.064   1.895   6.942
 7078SOL    HW122133   0.148   1.873   6.893
 7078SOL    HW222134   0.082   1.967   7.009
 7079SOL     OW22135   2.882   5.427   5.884
 7079SOL    HW122136   2.861   5.336   5.847
 7079SOL    HW222137   2.808   5.490   5.863
 7080SOL     OW22138   4.093   1.937   6.425
 7080SOL    HW122139   4.110   1.846   6.387
 7080SOL    HW222140   4.004   1.937   6.472
 7081SOL     OW22141   2.778   6.234   0.163
 7081SOL    HW122142   2.878   6.247   0.165
 7081SOL    HW222143   2.741   6.278   0.082
 7082SOL     OW22144   1.664   4.985   2.188
 7082SOL    HW122145   1.583   4.927   2.181
 7082SOL    HW222146   1.708   4.970   2.276
 7083SOL     OW22147   5.829   3.132   2.858
 7083SOL    HW122148   5.902   3.063   2.859
 7083SOL    HW222149   5.861   3.214   2.906
 7084SOL     OW22150   1.320   5.336   0.049
 7084SOL    HW122151   1.222   5.334   0.067
 7084SOL    HW222152   1.345   5.257   7.014
 7085SOL     OW22153   0.057   3.472   2.280
 7085SOL    HW122154   7.005   3.490   2.215
 7085SOL    HW222155   0.044   3.382   2.322
 7086SOL     OW22156   4.275   1.250   3.830
 7086SOL    HW122157   4.360   1.287   3.866
 7086SOL    HW222158   4.210   1.237   3.905
 7087SOL     OW22159   5.986   2.694   3.297
 7087SOL    HW122160   5.901   2.683   3.348
 7087SOL    HW222161   5.975   2.764   3.226
 7088SOL     OW22162   5.980   2.008   5.237
 7088SOL    HW122163   6.067   1.996   5.284
 7088SOL    HW222164   5.908   1.962   5.289
 7089SOL     OW22165   3.068   6.150   1.222
 7089SOL    HW122166   3.006   6.079   1.256
 7089SOL    HW222167   3.036   6.240   1.253
 7090SOL     OW22168   5.212   3.676   1.462
 7090SOL    HW122169   5.181   3.654   1.369
 7090SOL    HW222170   5.312   3.669   1.465
 7091SOL     OW22171   5.914   0.297   6.983
 7091SOL    HW122172   5.825   0.341   6.975
 7091SOL    HW222173   5.944   0.300   0.058
 7092SOL     OW22174   4.189   6.725   6.443
 7092SOL    HW122175   4.159   6.740   6.348
 7092SOL    HW222176   4.260   6.790   6.466
 7093SOL     OW22177   4.046   3.181   0.654
 7093SOL    HW122178   3.949   3.166   0.635
 7093SOL    HW222179   4.098   3.172   0.569
 7094SOL     OW22180   4.513   0.604   5.022
 7094SOL    HW122181   4.478   0.668   4.954
 7094SOL    HW222182   4.585   0.648   5.076
 7095SOL     OW22183   2.408   4.711   3.801
 7095SOL    HW122184   2.389   4.789   3.862
 7095SOL    HW222185   2.328   4.652   3.798
 7096SOL     OW22186   6.932   5.664   0.390
 7096SOL    HW122187   6.878   5.581   0.399
 7096SOL    HW222188   7.019   5.643   0.345
 7097SOL     OW22189   4.677   2.061   3.104
 7097SOL    HW122190   4.634   1.972   3.117
 7097SOL    HW222191   4.775   2.049   3.085
 7098SOL     OW22192   0.653   1.218   2.588
 7098SOL    HW122193   0.742   1.216   2.633
 7098SOL    HW222194   0.662   1.182   2.495
 7099SOL     OW22195   3.327   1.818   4.945
 7099SOL    HW122196   3.384   1.743   4.979
 7099SOL    HW222197   3.271   1.785   4.869
 7100SOL     OW22198   0.372   4.437   1.534
 7100SOL    HW122199   0.462   4.444   1.492
 7100SOL    HW222200   0.303   4.422   1.463
 7101SOL     OW22201   3.302   5.979   4.530
 7101SOL    HW122202   3.297   5.893   4.480
 7101SOL    HW222203   3.363   5.968   4.609
 7102SOL     OW22204   5.461   1.353   2.630
 7102SOL    HW122205   5.452   1.410   2.549
 7102SOL    HW222206   5.556   1.321   2.638
 7103SOL     OW22207   6.755   3.642   4.526
 7103SOL    HW122208   6.851   3.649   4.554
 7103SOL    HW222209   6.700   3.707   4.578
 7104SOL     OW22210   4.343   2.390   4.161
 7104SOL    HW122211   4.342   2.440   4.248
 7104SOL    HW222212   4.275   2.317   4.164
 7105SOL     OW22213   3.072   3.814   2.408
 7105SOL    HW122214   3.108   3.736   2.357
 7105SOL    HW222215   3.056   3.891   2.345
 7106SOL     OW22216   2.340   2.037   2.793
 7106SOL    HW122217   2.309   2.114   2.849
 7106SOL    HW222218   2.288   2.035   2.708
 7107SOL     OW22219   4.027   0.550   0.609
 7107SOL    HW122220   4.023   0.500   0.695
 7107SOL    HW222221   3.979   0.499   0.538
 7108SOL     OW22222   3.194   6.800   1.892
 7108SOL    HW122223   3.159   6.714   1.856
 7108SOL    HW222224   3.148   6.821   1.979
 7109SOL     OW22225   2.483   4.899   5.691
 7109SOL    HW122226   2.514   4.943   5.607
 7109SOL    HW222227   2.562   4.865   5.742
 7110SOL     OW22228   2.935   5.577   5.417
 7110SOL    HW122229   2.984   5.647   5.365
 7110SOL    HW222230   2.858   5.544   5.363
 7111SOL     OW22231   6.158   1.454   4.750
 7111SOL    HW122232   6.126   1.359   4.751
 7111SOL    HW222233   6.200   1.474   4.662
 7112SOL     OW22234   6.364   5.024   4.628
 7112SOL    HW122235   6.418   5.008   4.710
 7112SOL    HW222236   6.387   5.113   4.589
 7113SOL     OW22237   3.413   6.911   4.923
 7113SOL    HW122238   3.394   6.915   4.825
 7113SOL    HW222239   3.415   6.815   4.952
 7114SOL     OW22240   5.405   4.032   0.257
 7114SOL    HW122241   5.320   4.057   0.304
 7114SOL    HW222242   5.396   4.053   0.159
 7115SOL     OW22243   5.148   2.865   6.026
 7115SOL    HW122244   5.141   2.841   6.123
 7115SOL    HW222245   5.242   2.848   5.995
 7116SOL     OW22246   6.110   5.378   4.502
 7116SOL    HW122247   6.131   5.365   4.599
 7116SOL    HW222248   6.019   5.342   4.483
 7117SOL     OW22249   3.607   0.312   2.889
 7117SOL    HW122250   3.596   0.213   2.894
 7117SOL    HW222251   3.616   0.349   2.982
 7118SOL     OW22252   4.696   4.241   5.580
 7118SOL    HW122253   4.706   4.154   5.627
 7118SOL    HW222254   4.668   4.311   5.645
 7119SOL     OW22255   2.576   6.524   4.353
 7119SOL    HW122256   2.592   6.621   4.333
 7119SOL    HW222257   2.511   6.487   4.286
 7120SOL     OW22258   4.595   1.732   2.150
 7120SOL    HW122259   4.628   1.717   2.057
 7120SOL    HW222260   4.510   1.784   2.148
 7121SOL     OW22261   1.456   6.001   2.384
 7121SOL    HW122262   1.478   6.070   2.453
 7121SOL    HW222263   1.501   6.023   2.298
 7122SOL     OW22264   3.076   2.358   6.590
 7122SOL    HW122265   3.126   2.273   6.606
 7122SOL    HW222266   2.979   2.344   6.607
 7123SOL     OW22267   5.339   4.270   6.903
 7123SOL    HW122268   5.308   4.327   6.828
 7123SOL    HW222269   5.292   4.297   6.987
 7124SOL     OW22270   2.968   2.874   6.370
 7124SOL    HW122271   3.040   2.832   6.425
 7124SOL    HW222272   2.991   2.864   6.273
 7125SOL     OW22273   1.297   6.173   1.528
 7125SOL    HW122274   1.237   6.237   1.480
 7125SOL    HW222275   1.390   6.183   1.493
 7126SOL     OW22276   4.029   4.675   0.794
 7126SOL    HW122277   4.006   4.731   0.873
 7126SOL    HW222278   3.946   4.655   0.742
 7127SOL     OW22279   3.005   0.114   4.969
 7127SOL    HW122280   3.028   0.198   5.017
 7127SOL    HW222281   3.066   0.040   4.998
 7128SOL     OW22282   3.957   4.039   0.368
 7128SOL    HW122283   4.009   4.001   0.292
 7128SOL    HW222284   3.972   4.138   0.372
 7129SOL     OW22285   0.275   1.882   0.205
 7129SOL    HW122286   0.300   1.855   0.299
 7129SOL    HW222287   0.178   1.904   0.202
 7130SOL     OW22288   3.629   0.171   4.082
 7130SOL    HW122289   3.610   0.140   4.176
 7130SOL    HW222290   3.689   0.251   4.085
 7131SOL     OW22291   2.094   2.181   3.118
 7131SOL    HW122292   2.035   2.244   3.067
 7131SOL    HW222293   2.163   2.143   3.057
 7132SOL     OW22294   5.468   4.856   2.318
 7132SOL    HW122295   5.556   4.819   2.348
 7132SOL    HW222296   5.412   4.782   2.282
 7133SOL     OW22297   3.183   6.112   2.327
 7133SOL    HW122298   3.178   6.174   2.405
 7133SOL    HW222299   3.250   6.039   2.346
 7134SOL     OW22300   5.491   5.068   6.384
 7134SOL    HW122301   5.516   5.033   6.474
 7134SOL    HW222302   5.570   5.113   6.343
 7135SOL     OW22303   2.087   4.753   0.595
 7135SOL    HW122304   2.167   4.704   0.628
 7135SOL    HW222305   2.115   4.825   0.531
 7136SOL     OW22306   1.354   2.859   2.591
 7136SOL    HW122307   1.363   2.879   2.494
 7136SOL    HW222308   1.440   2.879   2.638
 7137SOL     OW22309   1.610   0.006   2.233
 7137SOL    HW122310   1.523   6.987   2.206
 7137SOL    HW222311   1.651   6.973   2.306
 7138SOL     OW22312   6.436   4.034   0.349
 7138SOL    HW122313   6.392   4.013   0.262
 7138SOL    HW222314   6.509   3.968   0.366
 7139SOL     OW22315   5.438   6.158   0.924
 7139SOL    HW122316   5.399   6.132   0.836
 7139SOL    HW222317   5.414   6.089   0.993
 7140SOL     OW22318   6.997   4.662   0.142
 7140SOL    HW122319   0.071   4.656   0.174
 7140SOL    HW222320   6.947   4.579   0.168
 7141SOL     OW22321   2.949   1.858   0.589
 7141SOL    HW122322   2.965   1.896   0.498
 7141SOL    HW222323   2.997   1.771   0.598
 7142SOL     OW22324   4.535   6.636   5.685
 7142SOL    HW122325   4.576   6.696   5.754
 7142SOL    HW222326   4.554   6.673   5.594
 7143SOL     OW22327   3.380   2.784   5.701
 7143SOL    HW122328   3.427   2.807   5.616
 7143SOL    HW222329   3.281   2.790   5.687
 7144SOL     OW22330   6.190   1.523   5.856
 7144SOL    HW122331   6.189   1.469   5.772
 7144SOL    HW222332   6.107   1.578   5.862
 7145SOL     OW22333   0.141   2.995   0.262
 7145SOL    HW122334   0.093   3.050   0.330
 7145SOL    HW222335   0.090   2.910   0.246
 7146SOL     OW22336   0.139   1.603   4.417
 7146SOL    HW122337   0.228   1.647   4.402
 7146SOL    HW222338   0.074   1.639   4.350
 7147SOL     OW22339   6.803   6.839   0.218
 7147SOL    HW122340   6.876   6.780   0.252
 7147SOL    HW222341   6.829   6.935   0.228
 7148SOL     OW22342   5.385   6.453   0.906
 7148SOL    HW122343   5.421   6.364   0.875
 7148SOL    HW222344   5.439   6.526   0.865
 7149SOL     OW22345   6.797   3.718   6.597
 7149SOL    HW122346   6.762   3.633   6.636
 7149SOL    HW222347   6.767   3.795   6.653
 7150SOL     OW22348   2.859   2.164   0.237
 7150SOL    HW122349   2.889   2.222   0.161
 7150SOL    HW222350   2.759   2.162   0.239
 7151SOL     OW22351   5.402   2.326   6.771
 7151SOL    HW122352   5.322   2.352   6.826
 7151SOL    HW222353   5.381   2.243   6.719
 7152SOL     OW22354   5.556   0.277   4.924
 7152SOL    HW122355   5.633   0.308   4.979
 7152SOL    HW222356   5.585   0.201   4.866
 7153SOL     OW22357   5.358   5.313   0.468
 7153SOL    HW122358   5.365   5.221   0.429
 7153SOL    HW222359   5.374   5.381   0.397
 7154SOL     OW22360   4.802   6.997   1.990
 7154SOL    HW122361   4.793   6.898   1.977
 7154SOL    HW222362   4.830   7.016   2.084
 7155SOL     OW22363   1.713   0.427   1.671
 7155SOL    HW122364   1.782   0.421   1.742
 7155SOL    HW222365   1.757   0.434   1.581
 7156SOL     OW22366   6.412   2.977   5.681
 7156SOL    HW122367   6.353   3.012   5.755
 7156SOL    HW222368   6.465   2.900   5.714
 7157SOL     OW22369   6.707   3.477   5.656
 7157SOL    HW122370   6.670   3.385   5.641
 7157SOL    HW222371   6.694   3.532   5.573
 7158SOL     OW22372   5.125   6.863   4.378
 7158SOL    HW122373   5.102   6.788   4.316
 7158SOL    HW222374   5.180   6.828   4.455
 7159SOL     OW22375   0.498   6.844   3.410
 7159SOL    HW122376   0.547   6.785   3.346
 7159SOL    HW222377   0.422   6.889   3.362
 7160SOL     OW22378   5.478   6.570   2.629
 7160SOL    HW122379   5.547   6.574   2.557
 7160SOL    HW222380   5.387   6.559   2.589
 7161SOL     OW22381   3.997   2.955   1.884
 7161SOL    HW122382   3.938   3.032   1.909
 7161SOL    HW222383   3.942   2.872   1.875
 7162SOL     OW22384   0.887   6.176   0.713
 7162SOL    HW122385   0.831   6.248   0.756
 7162SOL    HW222386   0.969   6.217   0.674
 7163SOL     OW22387   6.987   6.031   0.157
 7163SOL    HW122388   7.012   6.124   0.185
 7163SOL    HW222389   0.004   6.012   0.067
 7164SOL     OW22390   0.777   6.319   6.975
 7164SOL    HW122391   0.821   6.370   6.901
 7164SOL    HW222392   0.692   6.279   6.942
 7165SOL     OW22393   4.079   2.441   6.213
 7165SOL    HW122394   4.051   2.536   6.227
 7165SOL    HW222395   4.173   2.429   6.244
 7166SOL     OW22396   6.905   6.444   4.933
 7166SOL    HW122397   6.931   6.349   4.949
 7166SOL    HW222398   6.897   6.493   5.020
 7167SOL     OW22399   0.648   3.648   5.211
 7167SOL    HW122400   0.599   3.565   5.237
 7167SOL    HW222401   0.691   3.635   5.122
 7168SOL     OW22402   0.760   6.907   2.736
 7168SOL    HW122403   0.745   6.902   2.834
 7168SOL    HW222404   0.831   6.841   2.710
 7169SOL     OW22405   1.887   5.088   5.635
 7169SOL    HW122406   1.795   5.062   5.666
 7169SOL    HW222407   1.935   5.006   5.602
 7170SOL     OW22408   4.161   1.900   1.722
 7170SOL    HW122409   4.095   1.971   1.699
 7170SOL    HW222410   4.124   1.841   1.794
 7171SOL     OW22411   0.804   5.593   2.014
 7171SOL    HW122412   0.856   5.570   2.096
 7171SOL    HW222413   0.868   5.616   1.940
 7172SOL     OW22414   1.328   2.612   3.877
 7172SOL    HW122415   1.404   2.667   3.912
 7172SOL    HW222416   1.294   2.651   3.792
 7173SOL     OW22417   3.463   5.503   4.130
 7173SOL    HW122418   3.436   5.441   4.203
 7173SOL    HW222419   3.559   5.488   4.107
 7174SOL     OW22420   6.836   3.552   2.150
 7174SOL    HW122421   6.791   3.516   2.232
 7174SOL    HW222422   6.866   3.646   2.168
 7175SOL     OW22423   5.890   3.029   6.201
 7175SOL    HW122424   5.976   3.055   6.156
 7175SOL    HW222425   5.844   3.111   6.235
 7176SOL     OW22426   6.332   1.947   6.484
 7176SOL    HW122427   6.298   1.874   6.426
 7176SOL    HW222428   6.421   1.920   6.522
 7177SOL     OW22429   1.138   5.957   3.711
 7177SOL    HW122430   1.167   5.922   3.800
 7177SOL    HW222431   1.192   6.038   3.688
 7178SOL     OW22432   1.323   6.283   5.752
 7178SOL    HW122433   1.348   6.347   5.679
 7178SOL    HW222434   1.226   6.292   5.773
 7179SOL     OW22435   4.945   4.477   5.691
 7179SOL    HW122436   4.918   4.474   5.595
 7179SOL    HW222437   5.029   4.425   5.704
 7180SOL     OW22438   0.181   2.637   2.021
 7180SOL    HW122439   0.157   2.700   2.095
 7180SOL    HW222440   0.273   2.602   2.035
 7181SOL     OW22441   3.273   0.169   0.176
 7181SOL    HW122442   3.329   0.097   0.217
 7181SOL    HW222443   3.231   0.224   0.249
 7182SOL     OW22444   2.354   1.049   2.607
 7182SOL    HW122445   2.450   1.022   2.597
 7182SOL    HW222446   2.308   1.040   2.520
 7183SOL     OW22447   1.929   0.203   1.106
 7183SOL    HW122448   1.852   0.219   1.044
 7183SOL    HW222449   1.899   0.214   1.200
 7184SOL     OW22450   0.015   1.380   3.187
 7184SOL    HW122451   7.008   1.471   3.217
 7184SOL    HW222452   6.970   1.346   3.120
 7185SOL     OW22453   3.861   0.178   3.668
 7185SOL    HW122454   3.856   0.138   3.760
 7185SOL    HW222455   3.949   0.154   3.626
 7186SOL     OW22456   6.286   2.202   6.367
 7186SOL    HW122457   6.329   2.113   6.380
 7186SOL    HW222458   6.353   2.267   6.332
 7187SOL     OW22459   3.463   3.542   4.231
 7187SOL    HW122460   3.464   3.592   4.144
 7187SOL    HW222461   3.369   3.538   4.265
 7188SOL     OW22462   4.895   4.849   0.119
 7188SOL    HW122463   4.863   4.934   0.161
 7188SOL    HW222464   4.828   4.776   0.135
 7189SOL     OW22465   6.848   2.284   5.778
 7189SOL    HW122466   6.909   2.327   5.711
 7189SOL    HW222467   6.809   2.201   5.738
 7190SOL     OW22468   5.778   5.688   0.604
 7190SOL    HW122469   5.737   5.629   0.535
 7190SOL    HW222470   5.709   5.751   0.640
 7191SOL     OW22471   0.329   5.092   2.806
 7191SOL    HW122472   0.241   5.059   2.772
 7191SOL    HW222473   0.389   5.015   2.824
 7192SOL     OW22474   3.799   3.830   5.779
 7192SOL    HW122475   3.845   3.747   5.812
 7192SOL    HW222476   3.867   3.899   5.755
 7193SOL     OW22477   3.772   1.118   3.568
 7193SOL    HW122478   3.863   1.079   3.579
 7193SOL    HW222479   3.719   1.103   3.651
 7194SOL     OW22480   3.436   2.499   5.346
 7194SOL    HW122481   3.477   2.414   5.313
 7194SOL    HW222482   3.346   2.478   5.385
 7195SOL     OW22483   0.172   4.291   5.167
 7195SOL    HW122484   0.176   4.300   5.267
 7195SOL    HW222485   0.158   4.382   5.126
 7196SOL     OW22486   3.108   4.234   1.796
 7196SOL    HW122487   3.207   4.248   1.788
 7196SOL    HW222488   3.066   4.315   1.835
 7197SOL     OW22489   3.232   4.394   6.328
 7197SOL    HW122490   3.219   4.406   6.426
 7197SOL    HW222491   3.151   4.351   6.289
 7198SOL     OW22492   1.078   0.030   2.422
 7198SOL    HW122493   1.028   6.965   2.435
 7198SOL    HW222494   1.176   0.013   2.431
 7199SOL     OW22495   6.030   1.021   3.371
 7199SOL    HW122496   6.051   0.981   3.282
 7199SOL    HW222497   6.053   1.119   3.370
 7200SOL     OW22498   0.927   4.176   6.509
 7200SOL    HW122499   0.946   4.081   6.532
 7200SOL    HW222500   0.829   4.193   6.513
 7201SOL     OW22501   5.820   5.778   4.574
 7201SOL    HW122502   5.722   5.764   4.557
 7201SOL    HW222503   5.835   5.800   4.670
 7202SOL     OW22504   4.636   0.499   5.696
 7202SOL    HW122505   4.699   0.574   5.718
 7202SOL    HW222506   4.671   0.448   5.618
 7203SOL     OW22507   0.776   1.351   0.658
 7203SOL    HW122508   0.810   1.395   0.574
 7203SOL    HW222509   0.787   1.413   0.735
 7204SOL     OW22510   5.486   0.921   2.851
 7204SOL    HW122511   5.512   1.003   2.903
 7204SOL    HW222512   5.432   0.860   2.910
 7205SOL     OW22513   2.728   1.371   4.189
 7205SOL    HW122514   2.702   1.275   4.185
 7205SOL    HW222515   2.759   1.401   4.099
 7206SOL     OW22516   2.380   2.778   6.779
 7206SOL    HW122517   2.388   2.780   6.679
 7206SOL    HW222518   2.294   2.735   6.805
 7207SOL     OW22519   1.913   2.362   3.059
 7207SOL    HW122520   1.887   2.425   3.132
 7207SOL    HW222521   1.832   2.340   3.005
 7208SOL     OW22522   3.114   6.951   3.921
 7208SOL    HW122523   3.096   0.028   3.915
 7208SOL    HW222524   3.207   6.932   3.889
 7209SOL     OW22525   4.551   1.222   1.908
 7209SOL    HW122526   4.493   1.194   1.985
 7209SOL    HW222527   4.603   1.303   1.934
 7210SOL     OW22528   3.193   1.207   4.900
 7210SOL    HW122529   3.134   1.127   4.907
 7210SOL    HW222530   3.143   1.283   4.859
 7211SOL     OW22531   4.881   6.017   6.096
 7211SOL    HW122532   4.894   5.991   6.191
 7211SOL    HW222533   4.784   6.038   6.080
 7212SOL     OW22534   0.573   5.968   4.071
 7212SOL    HW122535   0.578   6.051   4.127
 7212SOL    HW222536   0.510   5.983   3.995
 7213SOL     OW22537   4.786   2.757   6.925
 7213SOL    HW122538   4.752   2.680   6.979
 7213SOL    HW222539   4.795   2.729   6.829
 7214SOL     OW22540   6.687   1.287   5.971
 7214SOL    HW122541   6.608   1.298   5.911
 7214SOL    HW222542   6.692   1.193   6.005
 7215SOL     OW22543   6.338   1.371   2.357
 7215SOL    HW122544   6.264   1.305   2.369
 7215SOL    HW222545   6.426   1.325   2.367
 7216SOL     OW22546   5.536   6.292   4.258
 7216SOL    HW122547   5.551   6.197   4.286
 7216SOL    HW222548   5.608   6.350   4.296
 7217SOL     OW22549   1.214   3.367   3.498
 7217SOL    HW122550   1.273   3.366   3.417
 7217SOL    HW222551   1.200   3.462   3.528
 7218SOL     OW22552   6.608   2.675   5.199
 7218SOL    HW122553   6.663   2.685   5.116
 7218SOL    HW222554   6.654   2.613   5.262
 7219SOL     OW22555   3.488   5.531   1.221
 7219SOL    HW122556   3.552   5.605   1.242
 7219SOL    HW222557   3.396   5.569   1.211
 7220SOL     OW22558   0.098   3.365   3.857
 7220SOL    HW122559   0.089   3.350   3.956
 7220SOL    HW222560   0.009   3.386   3.818
 7221SOL     OW22561   4.788   4.780   3.881
 7221SOL    HW122562   4.788   4.773   3.980
 7221SOL    HW222563   4.827   4.868   3.853
 7222SOL     OW22564   6.439   6.052   3.737
 7222SOL    HW122565   6.460   5.960   3.704
 7222SOL    HW222566   6.383   6.045   3.820
 7223SOL     OW22567   6.486   5.681   1.700
 7223SOL    HW122568   6.519   5.740   1.773
 7223SOL    HW222569   6.438   5.735   1.631
 7224SOL     OW22570   5.498   2.853   2.334
 7224SOL    HW122571   5.521   2.756   2.332
 7224SOL    HW222572   5.448   2.877   2.251
 7225SOL     OW22573   1.148   5.517   0.335
 7225SOL    HW122574   1.082   5.482   0.269
 7225SOL    HW222575   1.177   5.443   0.396
 7226SOL     OW22576   6.315   6.262   0.332
 7226SOL    HW122577   6.294   6.168   0.361
 7226SOL    HW222578   6.404   6.289   0.368
 7227SOL     OW22579   1.998   0.869   2.101
 7227SOL    HW122580   1.963   0.910   2.185
 7227SOL    HW222581   1.958   0.915   2.022
 7228SOL     OW22582   6.142   3.403   2.980
 7228SOL    HW122583   6.137   3.410   3.079
 7228SOL    HW222584   6.050   3.394   2.942
 7229SOL     OW22585   6.513   0.151   5.107
 7229SOL    HW122586   6.573   0.194   5.174
 7229SOL    HW222587   6.564   0.082   5.055
 7230SOL     OW22588   2.318   4.922   5.240
 7230SOL    HW122589   2.259   4.843   5.224
 7230SOL    HW222590   2.263   5.005   5.245
 7231SOL     OW22591   3.664   3.538   6.478
 7231SOL    HW122592   3.721   3.542   6.561
 7231SOL    HW222593   3.654   3.443   6.449
 7232SOL     OW22594   4.565   6.139   3.353
 7232SOL    HW122595   4.597   6.055   3.308
 7232SOL    HW222596   4.545   6.119   3.449
 7233SOL     OW22597   0.154   1.823   6.134
 7233SOL    HW122598   0.168   1.913   6.092
 7233SOL    HW222599   0.242   1.779   6.150
 7234SOL     OW22600   5.815   4.772   3.236
 7234SOL    HW122601   5.908   4.788   3.266
 7234SOL    HW222602   5.756   4.758   3.316
 7235SOL     OW22603   6.856   0.351   0.934
 7235SOL    HW122604   6.895   0.405   1.009
 7235SOL    HW222605   6.760   0.375   0.923
 7236SOL     OW22606   0.410   3.767   2.750
 7236SOL    HW122607   0.383   3.696   2.815
 7236SOL    HW222608   0.503   3.750   2.718
 7237SOL     OW22609   5.116   1.147   0.236
 7237SOL    HW122610   5.050   1.193   0.295
 7237SOL    HW222611   5.202   1.134   0.286
 7238SOL     OW22612   4.572   3.186   0.152
 7238SOL    HW122613   4.633   3.157   0.225
 7238SOL    HW222614   4.537   3.278   0.172
 7239SOL     OW22615   5.721   3.072   1.854
 7239SOL    HW122616   5.777   3.131   1.796
 7239SOL    HW222617   5.744   3.088   1.950
 7240SOL     OW22618   0.449   1.903   0.474
 7240SOL    HW122619   0.488   1.828   0.528
 7240SOL    HW222620   0.508   1.924   0.397
 7241SOL     OW22621   2.145   0.454   2.679
 7241SOL    HW122622   2.156   0.374   2.738
 7241SOL    HW222623   2.051   0.460   2.646
 7242SOL     OW22624   6.249   3.846   6.022
 7242SOL    HW122625   6.226   3.925   5.964
 7242SOL    HW222626   6.348   3.845   6.040
 7243SOL     OW22627   5.942   4.583   6.224
 7243SOL    HW122628   5.981   4.628   6.143
 7243SOL    HW222629   5.862   4.530   6.196
 7244SOL     OW22630   6.664   6.209   6.891
 7244SOL    HW122631   6.740   6.266   6.923
 7244SOL    HW222632   6.584   6.224   6.950
 7245SOL     OW22633   1.833   2.288   6.931
 7245SOL    HW122634   1.823   2.335   6.844
 7245SOL    HW222635   1.929   2.290   6.959
 7246SOL     OW22636   4.709   6.803   4.467
 7246SOL    HW122637   4.665   6.715   4.485
 7246SOL    HW222638   4.802   6.801   4.504
 7247SOL     OW22639   3.462   4.083   4.661
 7247SOL    HW122640   3.553   4.114   4.633
 7247SOL    HW222641   3.450   4.101   4.759
 7248SOL     OW22642   2.251   1.619   5.199
 7248SOL    HW122643   2.213   1.647   5.111
 7248SOL    HW222644   2.181   1.628   5.270
 7249SOL     OW22645   3.201   5.636   2.622
 7249SOL    HW122646   3.272   5.706   2.613
 7249SOL    HW222647   3.243   5.546   2.627
 7250SOL     OW22648   5.034   5.915   5.571
 7250SOL    HW122649   4.934   5.909   5.574
 7250SOL    HW222650   5.062   6.011   5.573
 7251SOL     OW22651   0.951   6.010   4.025
 7251SOL    HW122652   0.882   5.986   4.093
 7251SOL    HW222653   1.035   5.958   4.044
 7252SOL     OW22654   3.870   3.685   1.967
 7252SOL    HW122655   3.915   3.614   2.021
 7252SOL    HW222656   3.789   3.718   2.015
 7253SOL     OW22657   1.542   5.186   5.503
 7253SOL    HW122658   1.467   5.249   5.522
 7253SOL    HW222659   1.586   5.160   5.590
 7254SOL     OW22660   6.802   3.580   4.059
 7254SOL    HW122661   6.779   3.645   4.131
 7254SOL    HW222662   6.725   3.519   4.043
 7255SOL     OW22663   4.624   3.910   0.667
 7255SOL    HW122664   4.618   3.920   0.568
 7255SOL    HW222665   4.538   3.940   0.709
 7256SOL     OW22666   3.039   0.035   4.305
 7256SOL    HW122667   3.028   0.054   4.402
 7256SOL    HW222668   3.011   6.962   4.286
 7257SOL     OW22669   0.593   1.378   5.362
 7257SOL    HW122670   0.598   1.477   5.351
 7257SOL    HW222671   0.658   1.349   5.432
 7258SOL     OW22672   6.212   2.448   2.718
 7258SOL    HW122673   6.220   2.509   2.797
 7258SOL    HW222674   6.295   2.452   2.663
 7259SOL     OW22675   1.139   4.153   2.370
 7259SOL    HW122676   1.207   4.173   2.440
 7259SOL    HW222677   1.106   4.060   2.380
 7260SOL     OW22678   6.300   2.881   1.092
 7260SOL    HW122679   6.229   2.945   1.123
 7260SOL    HW222680   6.348   2.844   1.172
 7261SOL     OW22681   0.095   4.283   0.094
 7261SOL    HW122682   0.078   4.308   0.189
 7261SOL    HW222683   0.035   4.208   0.067
 7262SOL     OW22684   3.657   0.278   5.344
 7262SOL    HW122685   3.752   0.248   5.356
 7262SOL    HW222686   3.644   0.366   5.389
 7263SOL     OW22687   6.085   5.727   4.919
 7263SOL    HW122688   6.101   5.691   4.827
 7263SOL    HW222689   6.036   5.658   4.973
 7264SOL     OW22690   5.387   1.221   1.434
 7264SOL    HW122691   5.338   1.135   1.446
 7264SOL    HW222692   5.461   1.227   1.501
 7265SOL     OW22693   3.920   0.406   5.924
 7265SOL    HW122694   3.956   0.443   6.009
 7265SOL    HW222695   3.831   0.362   5.941
 7266SOL     OW22696   6.734   0.698   3.044
 7266SOL    HW122697   6.827   0.681   3.077
 7266SOL    HW222698   6.683   0.748   3.114
 7267SOL     OW22699   7.017   3.571   5.255
 7267SOL    HW122700   6.933   3.626   5.251
 7267SOL    HW222701   0.075   3.629   5.236
 7268SOL     OW22702   5.578   5.927   3.931
 7268SOL    HW122703   5.646   6.001   3.929
 7268SOL    HW222704   5.486   5.966   3.930
 7269SOL     OW22705   2.991   5.364   4.103
 7269SOL    HW122706   2.941   5.450   4.097
 7269SOL    HW222707   2.995   5.321   4.012
 7270SOL     OW22708   0.429   0.947   4.652
 7270SOL    HW122709   0.420   0.994   4.564
 7270SOL    HW222710   0.518   0.902   4.657
 7271SOL     OW22711   0.689   4.612   3.044
 7271SOL    HW122712   0.669   4.694   3.097
 7271SOL    HW222713   0.684   4.632   2.946
 7272SOL     OW22714   6.096   4.067   1.448
 7272SOL    HW122715   6.061   4.023   1.531
 7272SOL    HW222716   6.162   4.137   1.474
 7273SOL     OW22717   0.229   1.192   4.829
 7273SOL    HW122718   0.167   1.119   4.858
 7273SOL    HW222719   0.318   1.180   4.873
 7274SOL     OW22720   0.325   5.726   6.252
 7274SOL    HW122721   0.393   5.790   6.289
 7274SOL    HW222722   0.370   5.639   6.230
 7275SOL     OW22723   0.785   4.989   3.060
 7275SOL    HW122724   0.779   4.949   3.151
 7275SOL    HW222725   0.774   5.088   3.066
 7276SOL     OW22726   5.122   6.337   3.459
 7276SOL    HW122727   5.120   6.397   3.539
 7276SOL    HW222728   5.064   6.375   3.387
 7277SOL     OW22729   5.185   0.946   0.571
 7277SOL    HW122730   5.249   1.000   0.515
 7277SOL    HW222731   5.187   0.851   0.540
 7278SOL     OW22732   3.700   2.864   2.339
 7278SOL    HW122733   3.772   2.921   2.300
 7278SOL    HW222734   3.649   2.819   2.265
 7279SOL     OW22735   3.594   6.469   6.206
 7279SOL    HW122736   3.619   6.373   6.217
 7279SOL    HW222737   3.665   6.527   6.245
 7280SOL     OW22738   4.518   0.992   5.800
 7280SOL    HW122739   4.589   1.062   5.795
 7280SOL    HW222740   4.429   1.033   5.779
 7281SOL     OW22741   5.546   0.839   6.340
 7281SOL    HW122742   5.489   0.793   6.408
 7281SOL    HW222743   5.497   0.847   6.254
 7282SOL     OW22744   6.088   5.980   2.850
 7282SOL    HW122745   6.001   5.970   2.803
 7282SOL    HW222746   6.150   6.035   2.795
 7283SOL     OW22747   2.112   1.680   3.741
 7283SOL    HW122748   2.136   1.621   3.664
 7283SOL    HW222749   2.056   1.630   3.806
 7284SOL     OW22750   1.366   1.580   4.641
 7284SOL    HW122751   1.430   1.522   4.692
 7284SOL    HW222752   1.292   1.524   4.603
 7285SOL     OW22753   5.771   5.841   1.819
 7285SOL    HW122754   5.719   5.852   1.734
 7285SOL    HW222755   5.750   5.752   1.859
 7286SOL     OW22756   1.700   4.210   0.478
 7286SOL    HW122757   1.615   4.255   0.506
 7286SOL    HW222758   1.778   4.254   0.524
 7287SOL     OW22759   6.431   1.611   5.993
 7287SOL    HW122760   6.351   1.572   5.947
 7287SOL    HW222761   6.446   1.704   5.961
 7288SOL     OW22762   2.641   0.394   7.009
 7288SOL    HW122763   2.694   0.465   0.033
 7288SOL    HW222764   2.608   0.328   0.056
 7289SOL     OW22765   4.419   2.153   3.766
 7289SOL    HW122766   4.331   2.112   3.788
 7289SOL    HW222767   4.406   2.225   3.698
 7290SOL     OW22768   2.803   5.698   4.323
 7290SOL    HW122769   2.902   5.687   4.332
 7290SOL    HW222770   2.772   5.653   4.239
 7291SOL     OW22771   3.496   5.135   1.137
 7291SOL    HW122772   3.505   5.214   1.077
 7291SOL    HW222773   3.573   5.133   1.201
 7292SOL     OW22774   3.638   0.270   4.538
 7292SOL    HW122775   3.733   0.252   4.513
 7292SOL    HW222776   3.626   0.368   4.554
 7293SOL     OW22777   2.319   1.292   6.265
 7293SOL    HW122778   2.266   1.216   6.302
 7293SOL    HW222779   2.399   1.308   6.323
 7294SOL     OW22780   5.597   5.326   6.754
 7294SOL    HW122781   5.542   5.410   6.747
 7294SOL    HW222782   5.662   5.323   6.678
 7295SOL     OW22783   4.703   0.004   1.281
 7295SOL    HW122784   4.622   0.027   1.334
 7295SOL    HW222785   4.703   0.057   1.196
 7296SOL     OW22786   4.270   4.943   0.945
 7296SOL    HW122787   4.211   4.881   0.995
 7296SOL    HW222788   4.307   4.897   0.864
 7297SOL     OW22789   4.705   6.712   2.193
 7297SOL    HW122790   4.671   6.728   2.286
 7297SOL    HW222791   4.633   6.734   2.127
 7298SOL     OW22792   6.570   3.453   4.439
 7298SOL    HW122793   6.638   3.521   4.469
 7298SOL    HW222794   6.558   3.461   4.340
 7299SOL     OW22795   5.791   3.190   6.705
 7299SOL    HW122796   5.747   3.102   6.721
 7299SOL    HW222797   5.857   3.181   6.631
 7300SOL     OW22798   4.643   5.554   1.520
 7300SOL    HW122799   4.634   5.463   1.559
 7300SOL    HW222800   4.701   5.611   1.579
 7301SOL     OW22801   6.739   1.309   6.503
 7301SOL    HW122802   6.695   1.347   6.421
 7301SOL    HW222803   6.794   1.380   6.547
 7302SOL     OW22804   6.271   0.611   6.328
 7302SOL    HW122805   6.320   0.557   6.395
 7302SOL    HW222806   6.280   0.708   6.350
 7303SOL     OW22807   4.370   0.716   0.857
 7303SOL    HW122808   4.312   0.798   0.861
 7303SOL    HW222809   4.359   0.663   0.941
 7304SOL     OW22810   3.954   3.193   4.846
 7304SOL    HW122811   3.969   3.135   4.766
 7304SOL    HW222812   3.872   3.163   4.895
 7305SOL     OW22813   5.654   2.187   6.838
 7305SOL    HW122814   5.596   2.264   6.810
 7305SOL    HW222815   5.708   2.157   6.759
 7306SOL     OW22816   5.017   5.015   2.042
 7306SOL    HW122817   4.929   4.981   2.010
 7306SOL    HW222818   5.088   4.949   2.020
 7307SOL     OW22819   4.268   6.400   2.014
 7307SOL    HW122820   4.273   6.371   2.109
 7307SOL    HW222821   4.174   6.390   1.981
 7308SOL     OW22822   5.617   0.708   4.087
 7308SOL    HW122823   5.638   0.696   4.184
 7308SOL    HW222824   5.522   0.680   4.070
 7309SOL     OW22825   4.587   4.886   1.419
 7309SOL    HW122826   4.559   4.861   1.326
 7309SOL    HW222827   4.676   4.845   1.439
 7310SOL     OW22828   2.379   5.875   1.763
 7310SOL    HW122829   2.378   5.957   1.707
 7310SOL    HW222830   2.470   5.863   1.803
 7311SOL     OW22831   3.102   1.952   2.213
 7311SOL    HW122832   3.170   1.985   2.278
 7311SOL    HW222833   3.102   2.010   2.132
 7312SOL     OW22834   6.970   2.465   6.249
 7312SOL    HW122835   6.963   2.552   6.298
 7312SOL    HW222836   6.921   2.473   6.162
 7313SOL     OW22837   3.439   2.346   6.376
 7313SOL    HW122838   3.494   2.297   6.445
 7313SOL    HW222839   3.383   2.415   6.421
 7314SOL     OW22840   1.069   2.103   4.596
 7314SOL    HW122841   1.081   2.150   4.684
 7314SOL    HW222842   0.981   2.055   4.595
 7315SOL     OW22843   0.136   0.991   5.956
 7315SOL    HW122844   0.206   0.942   5.904
 7315SOL    HW222845   0.053   1.000   5.900
 7316SOL     OW22846   4.144   3.415   4.322
 7316SOL    HW122847   4.201   3.487   4.284
 7316SOL    HW222848   4.086   3.452   4.395
 7317SOL     OW22849   2.866   0.817   4.118
 7317SOL    HW122850   2.770   0.801   4.096
 7317SOL    HW222851   2.873   0.871   4.202
 7318SOL     OW22852   1.256   1.403   1.418
 7318SOL    HW122853   1.281   1.439   1.508
 7318SOL    HW222854   1.251   1.303   1.423
 7319SOL     OW22855   0.205   4.178   6.206
 7319SOL    HW122856   0.155   4.103   6.249
 7319SOL    HW222857   0.242   4.239   6.277
 7320SOL     OW22858   0.712   1.882   2.245
 7320SOL    HW122859   0.707   1.878   2.344
 7320SOL    HW222860   0.632   1.931   2.209
 7321SOL     OW22861   2.859   1.488   3.975
 7321SOL    HW122862   2.915   1.564   4.010
 7321SOL    HW222863   2.918   1.420   3.932
 7322SOL     OW22864   1.027   3.562   1.739
 7322SOL    HW122865   0.975   3.586   1.657
 7322SOL    HW222866   1.116   3.524   1.713
 7323SOL     OW22867   2.192   4.090   3.039
 7323SOL    HW122868   2.220   4.010   2.985
 7323SOL    HW222869   2.246   4.169   3.012
 7324SOL     OW22870   5.092   5.003   3.798
 7324SOL    HW122871   5.059   4.911   3.779
 7324SOL    HW222872   5.099   5.055   3.712
 7325SOL     OW22873   2.767   6.257   0.791
 7325SOL    HW122874   2.704   6.215   0.856
 7325SOL    HW222875   2.734   6.349   0.767
 7326SOL     OW22876   2.139   0.915   3.995
 7326SOL    HW122877   2.217   0.856   3.972
 7326SOL    HW222878   2.061   0.858   4.021
 7327SOL     OW22879   1.467   3.149   5.658
 7327SOL    HW122880   1.427   3.126   5.747
 7327SOL    HW222881   1.397   3.141   5.588
 7328SOL     OW22882   2.056   6.764   6.723
 7328SOL    HW122883   2.037   6.700   6.649
 7328SOL    HW222884   2.146   6.805   6.711
 7329SOL     OW22885   4.641   3.590   1.731
 7329SOL    HW122886   4.656   3.684   1.701
 7329SOL    HW222887   4.569   3.549   1.676
 7330SOL     OW22888   3.946   1.960   0.909
 7330SOL    HW122889   4.013   1.927   0.975
 7330SOL    HW222890   3.876   2.013   0.957
 7331SOL     OW22891   5.122   1.684   1.780
 7331SOL    HW122892   5.072   1.649   1.701
 7331SOL    HW222893   5.221   1.676   1.763
 7332SOL     OW22894   3.444   6.394   0.382
 7332SOL    HW122895   3.407   6.417   0.293
 7332SOL    HW222896   3.379   6.420   0.454
 7333SOL     OW22897   0.499   4.743   2.478
 7333SOL    HW122898   0.583   4.691   2.493
 7333SOL    HW222899   0.508   4.797   2.394
 7334SOL     OW22900   3.075   0.573   4.667
 7334SOL    HW122901   2.994   0.604   4.617
 7334SOL    HW222902   3.078   0.473   4.668
 7335SOL     OW22903   1.998   3.195   2.841
 7335SOL    HW122904   2.027   3.110   2.798
 7335SOL    HW222905   2.051   3.271   2.802
 7336SOL     OW22906   1.937   6.479   4.103
 7336SOL    HW122907   1.882   6.422   4.164
 7336SOL    HW222908   2.007   6.422   4.060
 7337SOL     OW22909   4.895   2.527   1.473
 7337SOL    HW122910   4.959   2.539   1.398
 7337SOL    HW222911   4.944   2.534   1.560
 7338SOL     OW22912   0.082   3.434   0.562
 7338SOL    HW122913   0.162   3.455   0.618
 7338SOL    HW222914   0.038   3.519   0.533
 7339SOL     OW22915   1.490   6.017   4.740
 7339SOL    HW122916   1.562   5.965   4.788
 7339SOL    HW222917   1.423   5.953   4.702
 7340SOL     OW22918   2.856   6.584   6.544
 7340SOL    HW122919   2.953   6.606   6.544
 7340SOL    HW222920   2.804   6.667   6.566
 7341SOL     OW22921   6.327   2.168   0.761
 7341SOL    HW122922   6.336   2.173   0.860
 7341SOL    HW222923   6.366   2.083   0.727
 7342SOL     OW22924   0.350   6.418   2.002
 7342SOL    HW122925   0.325   6.440   2.097
 7342SOL    HW222926   0.345   6.501   1.946
 7343SOL     OW22927   6.453   2.753   0.311
 7343SOL    HW122928   6.525   2.684   0.302
 7343SOL    HW222929   6.486   2.830   0.365
 7344SOL     OW22930   2.582   6.782   6.085
 7344SOL    HW122931   2.563   6.867   6.133
 7344SOL    HW222932   2.569   6.796   5.987
 7345SOL     OW22933   3.830   5.586   6.183
 7345SOL    HW122934   3.897   5.579   6.109
 7345SOL    HW222935   3.827   5.680   6.217
 7346SOL     OW22936   4.189   5.027   2.158
 7346SOL    HW122937   4.152   4.936   2.140
 7346SOL    HW222938   4.170   5.053   2.252
 7347SOL     OW22939   5.779   1.247   6.800
 7347SOL    HW122940   5.799   1.293   6.886
 7347SOL    HW222941   5.701   1.185   6.813
 7348SOL     OW22942   0.184   5.341   0.451
 7348SOL    HW122943   0.106   5.395   0.484
 7348SOL    HW222944   0.164   5.244   0.461
 7349SOL     OW22945   4.339   1.484   1.442
 7349SOL    HW122946   4.431   1.500   1.405
 7349SOL    HW222947   4.318   1.553   1.511
 7350SOL     OW22948   4.080   0.880   4.888
 7350SOL    HW122949   4.043   0.823   4.961
 7350SOL    HW222950   4.010   0.945   4.857
 7351SOL     OW22951   2.201   4.722   4.563
 7351SOL    HW122952   2.114   4.767   4.586
 7351SOL    HW222953   2.225   4.658   4.635
 7352SOL     OW22954   6.036   3.299   4.263
 7352SOL    HW122955   6.025   3.274   4.359
 7352SOL    HW222956   6.062   3.219   4.209
 7353SOL     OW22957   6.533   1.441   5.191
 7353SOL    HW122958   6.556   1.509   5.122
 7353SOL    HW222959   6.579   1.354   5.169
 7354SOL     OW22960   0.945   1.745   2.657
 7354SOL    HW122961   0.993   1.658   2.651
 7354SOL    HW222962   0.880   1.743   2.733
 7355SOL     OW22963   3.271   1.860   0.620
 7355SOL    HW122964   3.210   1.911   0.680
 7355SOL    HW222965   3.266   1.762   0.642
 7356SOL     OW22966   3.926   4.342   6.480
 7356SOL    HW122967   3.912   4.338   6.381
 7356SOL    HW222968   3.839   4.327   6.527
 7357SOL     OW22969   4.205   6.455   1.667
 7357SOL    HW122970   4.169   6.433   1.577
 7357SOL    HW222971   4.139   6.429   1.737
 7358SOL     OW22972   4.293   6.807   3.241
 7358SOL    HW122973   4.386   6.825   3.210
 7358SOL    HW222974   4.241   6.761   3.169
 7359SOL     OW22975   3.845   0.201   2.105
 7359SOL    HW122976   3.796   0.286   2.120
 7359SOL    HW222977   3.792   0.125   2.141
 7360SOL     OW22978   2.726   3.587   5.751
 7360SOL    HW122979   2.657   3.634   5.695
 7360SOL    HW222980   2.792   3.542   5.691
 7361SOL     OW22981   6.363   0.623   3.347
 7361SOL    HW122982   6.429   0.568   3.398
 7361SOL    HW222983   6.394   0.718   3.345
 7362SOL     OW22984   3.474   5.842   0.395
 7362SOL    HW122985   3.517   5.888   0.473
 7362SOL    HW222986   3.398   5.786   0.428
 7363SOL     OW22987   4.482   0.752   1.278
 7363SOL    HW122988   4.553   0.737   1.209
 7363SOL    HW222989   4.401   0.789   1.233
 7364SOL     OW22990   5.786   6.264   1.888
 7364SOL    HW122991   5.797   6.333   1.816
 7364SOL    HW222992   5.781   6.310   1.977
 7365SOL     OW22993   4.841   3.028   2.446
 7365SOL    HW122994   4.800   2.971   2.374
 7365SOL    HW222995   4.841   2.978   2.532
 7366SOL     OW22996   2.449   0.015   3.598
 7366SOL    HW122997   2.408   6.947   3.615
 7366SOL    HW222998   2.548   0.009   3.609
 7367SOL     OW22999   4.647   1.136   6.872
 7367SOL    HW123000   4.611   1.082   6.949
 7367SOL    HW223001   4.607   1.227   6.874
 7368SOL     OW23002   3.112   3.908   3.198
 7368SOL    HW123003   3.042   3.880   3.264
 7368SOL    HW223004   3.200   3.918   3.244
 7369SOL     OW23005   6.009   3.543   0.107
 7369SOL    HW123006   6.053   3.619   0.060
 7369SOL    HW223007   5.956   3.489   0.042
 7370SOL     OW23008   1.686   0.973   4.262
 7370SOL    HW123009   1.588   0.956   4.266
 7370SOL    HW223010   1.716   0.974   4.167
 7371SOL     OW23011   4.154   0.694   3.590
 7371SOL    HW123012   4.188   0.755   3.662
 7371SOL    HW223013   4.231   0.665   3.532
 7372SOL     OW23014   4.870   1.273   5.426
 7372SOL    HW123015   4.872   1.297   5.523
 7372SOL    HW223016   4.775   1.256   5.399
 7373SOL     OW23017   6.444   3.167   3.853
 7373SOL    HW123018   6.357   3.215   3.847
 7373SOL    HW223019   6.488   3.166   3.763
 7374SOL     OW23020   0.494   2.666   6.440
 7374SOL    HW123021   0.409   2.641   6.487
 7374SOL    HW223022   0.494   2.764   6.421
 7375SOL     OW23023   2.355   2.992   0.605
 7375SOL    HW123024   2.407   3.076   0.616
 7375SOL    HW223025   2.419   2.916   0.590
 7376SOL     OW23026   6.603   5.128   0.640
 7376SOL    HW123027   6.644   5.089   0.557
 7376SOL    HW223028   6.504   5.124   0.634
 7377SOL     OW23029   2.518   5.841   0.822
 7377SOL    HW123030   2.565   5.848   0.910
 7377SOL    HW223031   2.459   5.761   0.821
 7378SOL     OW23032   2.249   5.270   5.734
 7378SOL    HW123033   2.176   5.257   5.666
 7378SOL    HW223034   2.242   5.199   5.804
 7379SOL     OW23035   5.241   2.237   2.296
 7379SOL    HW123036   5.274   2.174   2.367
 7379SOL    HW223037   5.180   2.188   2.233
 7380SOL     OW23038   5.138   3.572   1.745
 7380SOL    HW123039   5.138   3.531   1.836
 7380SOL    HW223040   5.046   3.600   1.720
 7381SOL     OW23041   3.640   6.719   1.559
 7381SOL    HW123042   3.676   6.730   1.651
 7381SOL    HW223043   3.670   6.631   1.522
 7382SOL     OW23044   0.287   2.586   6.596
 7382SOL    HW123045   0.320   2.492   6.586
 7382SOL    HW223046   0.188   2.588   6.582
 7383SOL     OW23047   2.251   6.823   1.009
 7383SOL    HW123048   2.256   6.788   1.102
 7383SOL    HW223049   2.331   6.881   0.990
 7384SOL     OW23050   6.599   6.636   0.223
 7384SOL    HW123051   6.579   6.579   0.302
 7384SOL    HW223052   6.688   6.680   0.234
 7385SOL     OW23053   6.281   4.736   3.103
 7385SOL    HW123054   6.199   4.779   3.065
 7385SOL    HW223055   6.266   4.638   3.112
 7386SOL     OW23056   6.149   4.589   0.101
 7386SOL    HW123057   6.233   4.623   0.059
 7386SOL    HW223058   6.168   4.558   0.194
 7387SOL     OW23059   6.654   5.604   4.107
 7387SOL    HW123060   6.745   5.566   4.094
 7387SOL    HW223061   6.622   5.581   4.199
 7388SOL     OW23062   2.522   4.601   2.583
 7388SOL    HW123063   2.474   4.587   2.497
 7388SOL    HW223064   2.501   4.526   2.645
 7389SOL     OW23065   6.701   2.777   0.893
 7389SOL    HW123066   6.765   2.716   0.845
 7389SOL    HW223067   6.609   2.737   0.890
 7390SOL     OW23068   3.499   2.070   3.954
 7390SOL    HW123069   3.487   2.097   4.049
 7390SOL    HW223070   3.530   1.975   3.950
 7391SOL     OW23071   3.779   3.942   3.127
 7391SOL    HW123072   3.770   4.015   3.058
 7391SOL    HW223073   3.798   3.984   3.216
 7392SOL     OW23074   3.435   6.303   0.963
 7392SOL    HW123075   3.409   6.285   1.057
 7392SOL    HW223076   3.410   6.397   0.938
 7393SOL     OW23077   4.946   5.452   3.147
 7393SOL    HW123078   5.034   5.493   3.174
 7393SOL    HW223079   4.962   5.363   3.105
 7394SOL     OW23080   1.942   2.268   6.149
 7394SOL    HW123081   1.866   2.242   6.089
 7394SOL    HW223082   1.929   2.226   6.239
 7395SOL     OW23083   2.617   6.061   1.342
 7395SOL    HW123084   2.614   5.980   1.400
 7395SOL    HW223085   2.709   6.072   1.304
 7396SOL     OW23086   1.320   5.261   2.260
 7396SOL    HW123087   1.309   5.260   2.161
 7396SOL    HW223088   1.414   5.235   2.284
 7397SOL     OW23089   6.032   4.517   4.046
 7397SOL    HW123090   6.070   4.589   3.988
 7397SOL    HW223091   5.935   4.504   4.022
 7398SOL     OW23092   3.112   5.118   2.308
 7398SOL    HW123093   3.134   5.035   2.257
 7398SOL    HW223094   3.017   5.112   2.341
 7399SOL     OW23095   6.178   1.651   5.199
 7399SOL    HW123096   6.183   1.737   5.148
 7399SOL    HW223097   6.139   1.580   5.140
 7400SOL     OW23098   3.841   3.780   5.363
 7400SOL    HW123099   3.767   3.714   5.351
 7400SOL    HW223100   3.927   3.738   5.334
 7401SOL     OW23101   1.717   2.477   3.649
 7401SOL    HW123102   1.659   2.411   3.600
 7401SOL    HW223103   1.764   2.536   3.583
 7402SOL     OW23104   3.650   5.235   4.071
 7402SOL    HW123105   3.576   5.180   4.034
 7402SOL    HW223106   3.628   5.262   4.165
 7403SOL     OW23107   1.779   4.778   4.402
 7403SOL    HW123108   1.750   4.693   4.358
 7403SOL    HW223109   1.829   4.834   4.336
 7404SOL     OW23110   2.090   3.795   0.941
 7404SOL    HW123111   2.122   3.852   0.865
 7404SOL    HW223112   2.008   3.836   0.981
 7405SOL     OW23113   3.758   6.736   5.683
 7405SOL    HW123114   3.752   6.651   5.736
 7405SOL    HW223115   3.795   6.716   5.593
 7406SOL     OW23116   0.314   2.802   4.137
 7406SOL    HW123117   0.362   2.754   4.211
 7406SOL    HW223118   0.360   2.889   4.119
 7407SOL     OW23119   0.978   6.366   5.004
 7407SOL    HW123120   1.018   6.280   4.973
 7407SOL    HW223121   0.911   6.347   5.076
 7408SOL     OW23122   3.975   5.425   5.731
 7408SOL    HW123123   4.057   5.480   5.722
 7408SOL    HW223124   3.928   5.420   5.643
 7409SOL     OW23125   6.537   5.186   1.857
 7409SOL    HW123126   6.536   5.281   1.826
 7409SOL    HW223127   6.474   5.132   1.802
 7410SOL     OW23128   6.388   0.860   1.032
 7410SOL    HW123129   6.413   0.822   1.122
 7410SOL    HW223130   6.293   0.889   1.034
 7411SOL     OW23131   3.810   1.943   5.464
 7411SOL    HW123132   3.856   2.013   5.409
 7411SOL    HW223133   3.714   1.939   5.438
 7412SOL     OW23134   4.343   6.940   7.016
 7412SOL    HW123135   4.394   6.854   7.021
 7412SOL    HW223136   4.302   6.950   6.926
 7413SOL     OW23137   5.305   0.822   3.782
 7413SOL    HW123138   5.340   0.825   3.689
 7413SOL    HW223139   5.321   0.911   3.826
 7414SOL     OW23140   2.639   1.072   4.153
 7414SOL    HW123141   2.693   0.989   4.164
 7414SOL    HW223142   2.574   1.080   4.228
 7415SOL     OW23143   3.893   0.858   6.430
 7415SOL    HW123144   3.913   0.954   6.444
 7415SOL    HW223145   3.920   0.831   6.337
 7416SOL     OW23146   1.165   0.110   2.048
 7416SOL    HW123147   1.147   0.084   2.142
 7416SOL    HW223148   1.172   0.028   1.991
 7417SOL     OW23149   0.669   0.454   2.301
 7417SOL    HW123150   0.641   0.413   2.214
 7417SOL    HW223151   0.615   0.537   2.316
 7418SOL     OW23152   1.553   3.635   6.144
 7418SOL    HW123153   1.640   3.684   6.141
 7418SOL    HW223154   1.488   3.680   6.084
 7419SOL     OW23155   6.542   2.901   4.573
 7419SOL    HW123156   6.549   2.912   4.474
 7419SOL    HW223157   6.470   2.834   4.594
 7420SOL     OW23158   6.865   6.715   0.986
 7420SOL    HW123159   6.846   6.617   0.996
 7420SOL    HW223160   6.897   6.752   1.073
 7421SOL     OW23161   6.427   3.801   1.271
 7421SOL    HW123162   6.412   3.776   1.367
 7421SOL    HW223163   6.345   3.777   1.218
 7422SOL     OW23164   5.752   3.289   1.272
 7422SOL    HW123165   5.749   3.298   1.372
 7422SOL    HW223166   5.812   3.212   1.248
 7423SOL     OW23167   4.552   2.196   6.162
 7423SOL    HW123168   4.462   2.209   6.121
 7423SOL    HW223169   4.612   2.272   6.135
 7424SOL     OW23170   0.465   1.927   3.957
 7424SOL    HW123171   0.474   2.001   4.024
 7424SOL    HW223172   0.540   1.862   3.970
 7425SOL     OW23173   5.563   0.141   1.286
 7425SOL    HW123174   5.519   0.182   1.366
 7425SOL    HW223175   5.662   0.158   1.291
 7426SOL     OW23176   3.348   3.406   5.035
 7426SOL    HW123177   3.332   3.495   5.078
 7426SOL    HW223178   3.377   3.341   5.105
 7427SOL     OW23179   2.891   0.608   2.218
 7427SOL    HW123180   2.977   0.631   2.265
 7427SOL    HW223181   2.877   0.509   2.220
 7428SOL     OW23182   2.341   6.861   5.253
 7428SOL    HW123183   2.275   6.834   5.182
 7428SOL    HW223184   2.320   6.954   5.283
 7429SOL     OW23185   1.025   1.117   2.411
 7429SOL    HW123186   0.966   1.037   2.398
 7429SOL    HW223187   1.021   1.174   2.329
 7430SOL     OW23188   6.755   4.311   2.813
 7430SOL    HW123189   6.798   4.398   2.790
 7430SOL    HW223190   6.825   4.242   2.829
 7431SOL     OW23191   0.874   2.409   4.665
 7431SOL    HW123192   0.835   2.317   4.659
 7431SOL    HW223193   0.961   2.405   4.713
 7432SOL     OW23194   1.863   1.140   3.010
 7432SOL    HW123195   1.878   1.238   3.009
 7432SOL    HW223196   1.933   1.094   2.955
 7433SOL     OW23197   3.519   0.128   6.640
 7433SOL    HW123198   3.552   0.183   6.716
 7433SOL    HW223199   3.446   0.067   6.671
 7434SOL     OW23200   4.192   0.239   3.702
 7434SOL    HW123201   4.269   0.262   3.761
 7434SOL    HW223202   4.142   0.322   3.678
 7435SOL     OW23203   5.084   4.557   2.913
 7435SOL    HW123204   5.118   4.604   2.994
 7435SOL    HW223205   5.156   4.555   2.843
 7436SOL     OW23206   4.589   2.830   5.910
 7436SOL    HW123207   4.642   2.844   5.827
 7436SOL    HW223208   4.651   2.825   5.989
 7437SOL     OW23209   3.367   0.781   1.518
 7437SOL    HW123210   3.445   0.732   1.557
 7437SOL    HW223211   3.372   0.777   1.419
 7438SOL     OW23212   1.803   0.419   6.925
 7438SOL    HW123213   1.794   0.511   6.886
 7438SOL    HW223214   1.713   0.386   6.953
 7439SOL     OW23215   1.725   4.449   6.319
 7439SOL    HW123216   1.811   4.443   6.371
 7439SOL    HW223217   1.651   4.408   6.372
 7440SOL     OW23218   5.642   2.935   3.888
 7440SOL    HW123219   5.640   3.033   3.908
 7440SOL    HW223220   5.664   2.884   3.971
 7441SOL     OW23221   4.209   6.451   0.562
 7441SOL    HW123222   4.303   6.468   0.530
 7441SOL    HW223223   4.211   6.390   0.641
 7442SOL     OW23224   6.159   0.947   5.937
 7442SOL    HW123225   6.099   0.969   6.014
 7442SOL    HW223226   6.134   1.002   5.858
 7443SOL     OW23227   0.413   6.877   1.015
 7443SOL    HW123228   0.321   6.916   1.013
 7443SOL    HW223229   0.442   6.864   1.110
 7444SOL     OW23230   1.373   5.824   6.664
 7444SOL    HW123231   1.311   5.753   6.630
 7444SOL    HW223232   1.464   5.811   6.626
 7445SOL     OW23233   3.078   5.856   2.247
 7445SOL    HW123234   3.095   5.950   2.218
 7445SOL    HW223235   3.147   5.796   2.207
 7446SOL     OW23236   6.713   5.012   0.382
 7446SOL    HW123237   6.710   4.915   0.357
 7446SOL    HW223238   6.721   5.068   0.299
 7447SOL     OW23239   0.774   5.501   0.590
 7447SOL    HW123240   0.752   5.408   0.620
 7447SOL    HW223241   0.855   5.533   0.639
 7448SOL     OW23242   4.622   4.689   6.735
 7448SOL    HW123243   4.701   4.750   6.729
 7448SOL    HW223244   4.652   4.597   6.761
 7449SOL     OW23245   6.793   3.932   6.762
 7449SOL    HW123246   6.795   3.962   6.857
 7449SOL    HW223247   6.859   3.985   6.709
 7450SOL     OW23248   5.618   2.910   0.514
 7450SOL    HW123249   5.637   2.837   0.581
 7450SOL    HW223250   5.666   2.993   0.541
 7451SOL     OW23251   4.545   4.993   2.878
 7451SOL    HW123252   4.446   5.000   2.866
 7451SOL    HW223253   4.571   5.033   2.966
 7452SOL     OW23254   6.600   5.846   6.379
 7452SOL    HW123255   6.642   5.936   6.380
 7452SOL    HW223256   6.604   5.808   6.287
 7453SOL     OW23257   4.163   5.481   6.374
 7453SOL    HW123258   4.087   5.481   6.438
 7453SOL    HW223259   4.249   5.472   6.424
 7454SOL     OW23260   3.789   1.915   0.699
 7454SOL    HW123261   3.746   1.994   0.656
 7454SOL    HW223262   3.846   1.945   0.776
 7455SOL     OW23263   6.307   0.247   3.276
 7455SOL    HW123264   6.393   0.241   3.326
 7455SOL    HW223265   6.309   0.185   3.198
 7456SOL     OW23266   3.021   1.379   5.738
 7456SOL    HW123267   3.085   1.437   5.686
 7456SOL    HW223268   3.004   1.420   5.827
 7457SOL     OW23269   1.261   1.548   2.459
 7457SOL    HW123270   1.293   1.633   2.417
 7457SOL    HW223271   1.244   1.564   2.556
 7458SOL     OW23272   0.208   5.891   5.272
 7458SOL    HW123273   0.214   5.910   5.174
 7458SOL    HW223274   0.206   5.792   5.286
 7459SOL     OW23275   5.416   6.925   3.323
 7459SOL    HW123276   5.490   6.962   3.378
 7459SOL    HW223277   5.453   6.857   3.259
 7460SOL     OW23278   0.711   0.086   1.175
 7460SOL    HW123279   0.772   0.163   1.155
 7460SOL    HW223280   0.664   0.103   1.262
 7461SOL     OW23281   2.000   4.287   4.605
 7461SOL    HW123282   2.071   4.356   4.589
 7461SOL    HW223283   2.033   4.198   4.572
 7462SOL     OW23284   1.871   4.910   0.130
 7462SOL    HW123285   1.881   4.877   0.036
 7462SOL    HW223286   1.867   5.010   0.131
 7463SOL     OW23287   4.823   5.061   1.492
 7463SOL    HW123288   4.755   4.997   1.455
 7463SOL    HW223289   4.914   5.020   1.488
 7464SOL     OW23290   5.289   5.011   5.248
 7464SOL    HW123291   5.350   4.951   5.300
 7464SOL    HW223292   5.255   5.084   5.307
 7465SOL     OW23293   1.452   4.097   6.815
 7465SOL    HW123294   1.431   4.187   6.776
 7465SOL    HW223295   1.410   4.089   6.905
 7466SOL     OW23296   0.474   0.393   5.306
 7466SOL    HW123297   0.513   0.484   5.291
 7466SOL    HW223298   0.491   0.336   5.225
 7467SOL     OW23299   1.044   3.605   4.176
 7467SOL    HW123300   1.098   3.649   4.248
 7467SOL    HW223301   1.096   3.530   4.136
 7468SOL     OW23302   5.609   2.862   4.698
 7468SOL    HW123303   5.707   2.856   4.718
 7468SOL    HW223304   5.560   2.793   4.750
 7469SOL     OW23305   0.010   2.208   0.437
 7469SOL    HW123306   0.022   2.111   0.455
 7469SOL    HW223307   6.938   2.236   0.461
 7470SOL     OW23308   4.948   2.491   3.892
 7470SOL    HW123309   4.949   2.482   3.991
 7470SOL    HW223310   4.855   2.472   3.858
 7471SOL     OW23311   3.347   6.585   6.393
 7471SOL    HW123312   3.424   6.650   6.388
 7471SOL    HW223313   3.311   6.569   6.301
 7472SOL     OW23314   0.058   0.525   5.617
 7472SOL    HW123315   0.031   0.621   5.609
 7472SOL    HW223316   0.141   0.509   5.563
 7473SOL     OW23317   4.255   6.173   3.642
 7473SOL    HW123318   4.251   6.100   3.711
 7473SOL    HW223319   4.188   6.154   3.570
 7474SOL     OW23320   6.211   2.208   0.474
 7474SOL    HW123321   6.268   2.215   0.556
 7474SOL    HW223322   6.114   2.207   0.500
 7475SOL     OW23323   4.978   2.423   0.774
 7475SOL    HW123324   5.015   2.417   0.867
 7475SOL    HW223325   4.920   2.505   0.767
 7476SOL     OW23326   2.778   1.360   2.634
 7476SOL    HW123327   2.791   1.282   2.573
 7476SOL    HW223328   2.757   1.327   2.726
 7477SOL     OW23329   2.390   3.359   5.652
 7477SOL    HW123330   2.460   3.362   5.581
 7477SOL    HW223331   2.387   3.448   5.699
 7478SOL     OW23332   0.455   2.346   6.425
 7478SOL    HW123333   0.385   2.388   6.368
 7478SOL    HW223334   0.414   2.308   6.508
 7479SOL     OW23335   5.078   3.021   1.394
 7479SOL    HW123336   4.988   3.064   1.391
 7479SOL    HW223337   5.092   2.977   1.483
 7480SOL     OW23338   3.474   6.184   2.537
 7480SOL    HW123339   3.448   6.207   2.443
 7480SOL    HW223340   3.395   6.198   2.597
 7481SOL     OW23341   0.293   3.610   6.667
 7481SOL    HW123342   0.256   3.693   6.626
 7481SOL    HW223343   0.309   3.625   6.764
 7482SOL     OW23344   4.397   1.968   4.617
 7482SOL    HW123345   4.445   1.998   4.700
 7482SOL    HW223346   4.461   1.968   4.540
 7483SOL     OW23347   5.246   1.281   5.865
 7483SOL    HW123348   5.183   1.227   5.809
 7483SOL    HW223349   5.255   1.373   5.826
 7484SOL     OW23350   2.293   0.831   4.292
 7484SOL    HW123351   2.392   0.836   4.304
 7484SOL    HW223352   2.262   0.907   4.236
 7485SOL     OW23353   4.368   0.263   6.742
 7485SOL    HW123354   4.370   0.186   6.678
 7485SOL    HW223355   4.273   0.286   6.763
 7486SOL     OW23356   4.292   6.504   1.130
 7486SOL    HW123357   4.286   6.406   1.110
 7486SOL    HW223358   4.261   6.556   1.051
 7487SOL     OW23359   3.141   6.533   4.533
 7487SOL    HW123360   3.221   6.479   4.558
 7487SOL    HW223361   3.077   6.536   4.610
 7488SOL     OW23362   1.602   6.197   4.189
 7488SOL    HW123363   1.664   6.260   4.236
 7488SOL    HW223364   1.654   6.123   4.147
 7489SOL     OW23365   4.966   3.195   6.464
 7489SOL    HW123366   5.039   3.166   6.525
 7489SOL    HW223367   5.003   3.209   6.372
 7490SOL     OW23368   2.008   2.301   1.346
 7490SOL    HW123369   1.994   2.212   1.303
 7490SOL    HW223370   1.973   2.373   1.286
 7491SOL     OW23371   4.888   4.001   6.389
 7491SOL    HW123372   4.888   3.982   6.487
 7491SOL    HW223373   4.815   4.065   6.367
 7492SOL     OW23374   1.427   0.744   3.775
 7492SOL    HW123375   1.351   0.692   3.735
 7492SOL    HW223376   1.396   0.837   3.794
 7493SOL     OW23377   6.292   4.879   4.400
 7493SOL    HW123378   6.380   4.862   4.357
 7493SOL    HW223379   6.306   4.926   4.487
 7494SOL     OW23380   6.061   1.247   2.121
 7494SOL    HW123381   6.127   1.232   2.195
 7494SOL    HW223382   6.051   1.162   2.068
 7495SOL     OW23383   1.420   3.206   4.495
 7495SOL    HW123384   1.393   3.242   4.584
 7495SOL    HW223385   1.510   3.163   4.503
 7496SOL     OW23386   6.123   3.014   3.298
 7496SOL    HW123387   6.205   2.979   3.253
 7496SOL    HW223388   6.045   3.005   3.236
 7497SOL     OW23389   6.677   0.032   1.613
 7497SOL    HW123390   6.649   0.117   1.658
 7497SOL    HW223391   6.739   0.054   1.537
 7498SOL     OW23392   2.172   6.660   3.878
 7498SOL    HW123393   2.240   6.660   3.952
 7498SOL    HW223394   2.217   6.680   3.791
 7499SOL     OW23395   2.849   1.492   3.637
 7499SOL    HW123396   2.831   1.577   3.686
 7499SOL    HW223397   2.879   1.422   3.702
 7500SOL     OW23398   3.620   1.315   4.755
 7500SOL    HW123399   3.538   1.369   4.773
 7500SOL    HW223400   3.678   1.362   4.689
 7501SOL     OW23401   6.151   2.088   3.803
 7501SOL    HW123402   6.131   2.185   3.793
 7501SOL    HW223403   6.194   2.072   3.892
 7502SOL     OW23404   4.045   1.062   3.613
 7502SOL    HW123405   4.130   1.052   3.561
 7502SOL    HW223406   4.007   0.972   3.633
 7503SOL     OW23407   1.451   5.970   0.998
 7503SOL    HW123408   1.505   5.893   1.031
 7503SOL    HW223409   1.354   5.955   1.020
 7504SOL     OW23410   5.702   6.052   4.411
 7504SOL    HW123411   5.636   5.977   4.414
 7504SOL    HW223412   5.755   6.053   4.496
 7505SOL     OW23413   0.652   6.485   5.952
 7505SOL    HW123414   0.657   6.524   6.044
 7505SOL    HW223415   0.560   6.498   5.915
 7506SOL     OW23416   3.497   2.102   4.218
 7506SOL    HW123417   3.477   2.104   4.316
 7506SOL    HW223418   3.596   2.096   4.204
 7507SOL     OW23419   6.963   3.675   6.174
 7507SOL    HW123420   6.946   3.760   6.123
 7507SOL    HW223421   0.009   3.620   6.125
 7508SOL     OW23422   3.033   6.284   0.199
 7508SOL    HW123423   3.059   6.345   0.273
 7508SOL    HW223424   3.075   6.194   0.213
 7509SOL     OW23425   5.863   4.575   2.653
 7509SOL    HW123426   5.933   4.645   2.663
 7509SOL    HW223427   5.792   4.588   2.722
 7510SOL     OW23428   3.130   4.392   1.527
 7510SOL    HW123429   3.093   4.440   1.447
 7510SOL    HW223430   3.055   4.361   1.585
 7511SOL     OW23431   4.698   6.037   3.851
 7511SOL    HW123432   4.626   6.106   3.856
 7511SOL    HW223433   4.662   5.954   3.809
 7512SOL     OW23434   4.159   6.685   0.935
 7512SOL    HW123435   4.136   6.722   0.845
 7512SOL    HW223436   4.151   6.757   1.004
 7513SOL     OW23437   0.750   0.367   2.584
 7513SOL    HW123438   0.841   0.332   2.563
 7513SOL    HW223439   0.691   0.357   2.503
 7514SOL     OW23440   0.221   0.301   0.725
 7514SOL    HW123441   0.165   0.267   0.801
 7514SOL    HW223442   0.199   0.397   0.708
 7515SOL     OW23443   0.014   4.790   4.887
 7515SOL    HW123444   6.996   4.704   4.855
 7515SOL    HW223445   6.980   4.825   4.963
 7516SOL     OW23446   2.029   6.029   5.239
 7516SOL    HW123447   2.085   6.036   5.322
 7516SOL    HW223448   1.942   5.985   5.261
 7517SOL     OW23449   0.465   2.484   6.900
 7517SOL    HW123450   0.462   2.583   6.915
 7517SOL    HW223451   0.406   2.459   6.824
 7518SOL     OW23452   3.879   2.162   4.563
 7518SOL    HW123453   3.829   2.144   4.648
 7518SOL    HW223454   3.977   2.144   4.578
 7519SOL     OW23455   3.590   6.698   5.239
 7519SOL    HW123456   3.626   6.788   5.262
 7519SOL    HW223457   3.517   6.674   5.304
 7520SOL     OW23458   1.781   1.248   0.931
 7520SOL    HW123459   1.854   1.185   0.957
 7520SOL    HW223460   1.821   1.333   0.898
 7521SOL     OW23461   4.201   1.677   5.780
 7521SOL    HW123462   4.252   1.688   5.695
 7521SOL    HW223463   4.250   1.614   5.841
 7522SOL     OW23464   2.054   6.908   4.274
 7522SOL    HW123465   2.042   6.933   4.178
 7522SOL    HW223466   2.148   6.930   4.302
 7523SOL     OW23467   5.730   1.705   6.934
 7523SOL    HW123468   5.659   1.775   6.927
 7523SOL    HW223469   5.801   1.724   6.866
 7524SOL     OW23470   0.326   3.977   4.878
 7524SOL    HW123471   0.333   3.956   4.975
 7524SOL    HW223472   0.354   3.897   4.825
 7525SOL     OW23473   1.863   4.533   5.472
 7525SOL    HW123474   1.939   4.491   5.422
 7525SOL    HW223475   1.817   4.464   5.527
 7526SOL     OW23476   1.549   4.388   0.623
 7526SOL    HW123477   1.550   4.343   0.713
 7526SOL    HW223478   1.606   4.469   0.626
 7527SOL     OW23479   2.782   5.394   2.349
 7527SOL    HW123480   2.824   5.481   2.372
 7527SOL    HW223481   2.829   5.320   2.398
 7528SOL     OW23482   6.157   2.512   6.889
 7528SOL    HW123483   6.252   2.542   6.879
 7528SOL    HW223484   6.097   2.591   6.894
 7529SOL     OW23485   5.752   3.598   4.670
 7529SOL    HW123486   5.777   3.618   4.765
 7529SOL    HW223487   5.760   3.499   4.654
 7530SOL     OW23488   1.051   2.786   3.276
 7530SOL    HW123489   1.126   2.722   3.254
 7530SOL    HW223490   1.087   2.879   3.277
 7531SOL     OW23491   3.908   1.963   3.974
 7531SOL    HW123492   3.893   2.056   3.941
 7531SOL    HW223493   3.820   1.915   3.979
 7532SOL     OW23494   4.579   5.115   6.323
 7532SOL    HW123495   4.611   5.188   6.262
 7532SOL    HW223496   4.654   5.089   6.384
 7533SOL     OW23497   4.350   4.831   1.595
 7533SOL    HW123498   4.421   4.817   1.526
 7533SOL    HW223499   4.261   4.840   1.550
 7534SOL     OW23500   4.481   5.974   5.484
 7534SOL    HW123501   4.513   5.881   5.498
 7534SOL    HW223502   4.550   6.026   5.433
 7535SOL     OW23503   0.580   6.754   4.215
 7535SOL    HW123504   0.641   6.810   4.272
 7535SOL    HW223505   0.562   6.801   4.129
 7536SOL     OW23506   6.297   6.947   2.735
 7536SOL    HW123507   6.328   0.013   2.772
 7536SOL    HW223508   6.204   6.928   2.767
 7537SOL     OW23509   1.910   0.125   2.354
 7537SOL    HW123510   1.846   0.199   2.375
 7537SOL    HW223511   1.918   0.116   2.255
 7538SOL     OW23512   0.264   4.848   0.189
 7538SOL    HW123513   0.327   4.905   0.138
 7538SOL    HW223514   0.247   4.763   0.139
 7539SOL     OW23515   6.397   0.509   4.710
 7539SOL    HW123516   6.445   0.469   4.789
 7539SOL    HW223517   6.434   0.471   4.626
 7540SOL     OW23518   4.823   4.068   3.346
 7540SOL    HW123519   4.845   4.039   3.439
 7540SOL    HW223520   4.778   4.157   3.348
 7541SOL     OW23521   2.376   4.387   0.089
 7541SOL    HW123522   2.388   4.290   0.113
 7541SOL    HW223523   2.355   4.395   7.013
 7542SOL     OW23524   6.216   5.629   4.662
 7542SOL    HW123525   6.206   5.535   4.695
 7542SOL    HW223526   6.195   5.633   4.564
 7543SOL     OW23527   1.930   1.447   0.818
 7543SOL    HW123528   1.883   1.524   0.860
 7543SOL    HW223529   2.028   1.453   0.838
 7544SOL     OW23530   5.803   1.159   4.793
 7544SOL    HW123531   5.749   1.227   4.842
 7544SOL    HW223532   5.899   1.186   4.794
 7545SOL     OW23533   1.668   5.735   5.169
 7545SOL    HW123534   1.589   5.703   5.220
 7545SOL    HW223535   1.731   5.659   5.153
 7546SOL     OW23536   2.525   2.698   1.760
 7546SOL    HW123537   2.436   2.719   1.800
 7546SOL    HW223538   2.583   2.655   1.828
 7547SOL     OW23539   4.252   0.238   2.551
 7547SOL    HW123540   4.177   0.244   2.617
 7547SOL    HW223541   4.225   0.284   2.466
 7548SOL     OW23542   2.748   2.309   6.334
 7548SOL    HW123543   2.808   2.377   6.291
 7548SOL    HW223544   2.694   2.263   6.263
 7549SOL     OW23545   5.249   0.744   4.237
 7549SOL    HW123546   5.280   0.682   4.309
 7549SOL    HW223547   5.289   0.716   4.150
 7550SOL     OW23548   2.209   6.038   5.027
 7550SOL    HW123549   2.141   6.035   5.100
 7550SOL    HW223550   2.212   5.949   4.981
 7551SOL     OW23551   6.199   3.248   6.364
 7551SOL    HW123552   6.182   3.186   6.288
 7551SOL    HW223553   6.216   3.340   6.329
 7552SOL     OW23554   2.722   6.534   4.765
 7552SOL    HW123555   2.757   6.453   4.812
 7552SOL    HW223556   2.674   6.593   4.831
 7553SOL     OW23557   6.207   6.791   5.965
 7553SOL    HW123558   6.178   6.839   5.883
 7553SOL    HW223559   6.223   6.694   5.944
 7554SOL     OW23560   5.273   1.487   1.362
 7554SOL    HW123561   5.303   1.391   1.359
 7554SOL    HW223562   5.182   1.495   1.320
 7555SOL     OW23563   4.420   5.177   4.170
 7555SOL    HW123564   4.422   5.088   4.215
 7555SOL    HW223565   4.509   5.222   4.183
 7556SOL     OW23566   1.162   6.155   0.938
 7556SOL    HW123567   1.089   6.087   0.943
 7556SOL    HW223568   1.235   6.122   0.878
 7557SOL     OW23569   4.561   6.550   1.018
 7557SOL    HW123570   4.487   6.486   1.035
 7557SOL    HW223571   4.533   6.641   1.049
 7558SOL     OW23572   1.098   1.551   3.698
 7558SOL    HW123573   1.115   1.536   3.601
 7558SOL    HW223574   1.000   1.567   3.712
 7559SOL     OW23575   2.330   0.207   4.994
 7559SOL    HW123576   2.282   0.290   4.965
 7559SOL    HW223577   2.378   0.225   5.079
 7560SOL     OW23578   1.088   0.798   5.839
 7560SOL    HW123579   1.072   0.817   5.742
 7560SOL    HW223580   1.162   0.731   5.848
 7561SOL     OW23581   4.904   1.313   4.957
 7561SOL    HW123582   4.959   1.261   5.023
 7561SOL    HW223583   4.903   1.410   4.984
 7562SOL     OW23584   1.995   5.621   3.592
 7562SOL    HW123585   1.967   5.596   3.499
 7562SOL    HW223586   1.969   5.716   3.610
 7563SOL     OW23587   2.499   6.599   3.051
 7563SOL    HW123588   2.406   6.625   3.078
 7563SOL    HW223589   2.551   6.575   3.133
 7564SOL     OW23590   4.927   2.723   5.842
 7564SOL    HW123591   4.868   2.683   5.771
 7564SOL    HW223592   4.919   2.823   5.838
 7565SOL     OW23593   6.692   3.145   5.579
 7565SOL    HW123594   6.624   3.167   5.650
 7565SOL    HW223595   6.650   3.155   5.489
 7566SOL     OW23596   4.713   4.266   1.533
 7566SOL    HW123597   4.707   4.366   1.533
 7566SOL    HW223598   4.639   4.228   1.477
 7567SOL     OW23599   1.591   0.631   3.521
 7567SOL    HW123600   1.605   0.658   3.616
 7567SOL    HW223601   1.567   0.534   3.517
 7568SOL     OW23602   6.655   4.050   0.877
 7568SOL    HW123603   6.605   4.120   0.826
 7568SOL    HW223604   6.591   3.985   0.917
 7569SOL     OW23605   4.297   3.581   1.304
 7569SOL    HW123606   4.245   3.568   1.388
 7569SOL    HW223607   4.394   3.593   1.326
 7570SOL     OW23608   1.014   2.713   1.831
 7570SOL    HW123609   1.069   2.727   1.913
 7570SOL    HW223610   1.073   2.690   1.754
 7571SOL     OW23611   4.826   1.652   3.096
 7571SOL    HW123612   4.907   1.658   3.037
 7571SOL    HW223613   4.759   1.591   3.054
 7572SOL     OW23614   4.508   6.529   3.425
 7572SOL    HW123615   4.579   6.458   3.423
 7572SOL    HW223616   4.498   6.568   3.334
 7573SOL     OW23617   4.138   6.661   6.694
 7573SOL    HW123618   4.146   6.686   6.598
 7573SOL    HW223619   4.167   6.567   6.708
 7574SOL     OW23620   0.701   3.125   4.048
 7574SOL    HW123621   0.613   3.080   4.062
 7574SOL    HW223622   0.690   3.200   3.983
 7575SOL     OW23623   0.181   6.737   0.782
 7575SOL    HW123624   0.192   6.703   0.876
 7575SOL    HW223625   0.223   6.827   0.775
 7576SOL     OW23626   4.455   2.700   0.171
 7576SOL    HW123627   4.384   2.654   0.224
 7576SOL    HW223628   4.434   2.798   0.167
 7577SOL     OW23629   6.873   0.466   6.703
 7577SOL    HW123630   6.874   0.401   6.627
 7577SOL    HW223631   6.884   0.559   6.669
 7578SOL     OW23632   5.967   5.592   2.910
 7578SOL    HW123633   5.959   5.531   2.831
 7578SOL    HW223634   6.063   5.605   2.932
 7579SOL     OW23635   1.523   1.777   6.666
 7579SOL    HW123636   1.533   1.800   6.569
 7579SOL    HW223637   1.582   1.699   6.688
 7580SOL     OW23638   1.966   4.847   3.068
 7580SOL    HW123639   1.910   4.875   2.990
 7580SOL    HW223640   2.034   4.780   3.039
 7581SOL     OW23641   0.370   7.005   0.657
 7581SOL    HW123642   0.275   0.006   0.635
 7581SOL    HW223643   0.422   0.068   0.669
 7582SOL     OW23644   2.181   1.062   6.280
 7582SOL    HW123645   2.167   0.979   6.334
 7582SOL    HW223646   2.093   1.092   6.242
 7583SOL     OW23647   5.391   3.735   2.299
 7583SOL    HW123648   5.304   3.696   2.330
 7583SOL    HW223649   5.463   3.711   2.363
 7584SOL     OW23650   6.975   0.978   3.175
 7584SOL    HW123651   0.043   1.022   3.167
 7584SOL    HW223652   6.933   0.970   3.085
 7585SOL     OW23653   1.175   1.193   5.606
 7585SOL    HW123654   1.264   1.208   5.649
 7585SOL    HW223655   1.155   1.095   5.604
 7586SOL     OW23656   1.775   6.907   3.746
 7586SOL    HW123657   1.695   6.906   3.687
 7586SOL    HW223658   1.798   6.814   3.774
 7587SOL     OW23659   4.962   6.994   2.248
 7587SOL    HW123660   4.985   6.910   2.198
 7587SOL    HW223661   4.873   6.982   2.294
 7588SOL     OW23662   2.140   3.416   4.792
 7588SOL    HW123663   2.106   3.330   4.754
 7588SOL    HW223664   2.132   3.488   4.724
 7589SOL     OW23665   6.579   6.990   2.263
 7589SOL    HW123666   6.508   6.983   2.193
 7589SOL    HW223667   6.537   6.988   2.353
 7590SOL     OW23668   5.842   1.116   0.460
 7590SOL    HW123669   5.883   1.088   0.547
 7590SOL    HW223670   5.815   1.212   0.465
 7591SOL     OW23671   3.149   4.095   4.828
 7591SOL    HW123672   3.147   4.101   4.928
 7591SOL    HW223673   3.125   4.184   4.788
 7592SOL     OW23674   0.786   6.607   3.530
 7592SOL    HW123675   0.745   6.672   3.466
 7592SOL    HW223676   0.714   6.553   3.574
 7593SOL     OW23677   6.649   1.409   6.241
 7593SOL    HW123678   6.697   1.384   6.157
 7593SOL    HW223679   6.580   1.341   6.263
 7594SOL     OW23680   6.637   3.874   5.974
 7594SOL    HW123681   6.641   3.974   5.968
 7594SOL    HW223682   6.651   3.835   5.883
 7595SOL     OW23683   0.414   3.037   0.201
 7595SOL    HW123684   0.437   3.132   0.223
 7595SOL    HW223685   0.315   3.026   0.199
 7596SOL     OW23686   3.038   1.591   6.999
 7596SOL    HW123687   2.954   1.644   7.004
 7596SOL    HW223688   3.035   1.531   6.919
 7597SOL     OW23689   2.341   4.696   0.679
 7597SOL    HW123690   2.384   4.718   0.767
 7597SOL    HW223691   2.411   4.694   0.607
 7598SOL     OW23692   5.049   0.622   2.027
 7598SOL    HW123693   5.090   0.533   2.006
 7598SOL    HW223694   5.072   0.687   1.955
 7599SOL     OW23695   3.088   3.482   6.938
 7599SOL    HW123696   3.078   3.582   6.934
 7599SOL    HW223697   3.002   3.442   6.971
 7600SOL     OW23698   0.931   0.333   3.545
 7600SOL    HW123699   0.834   0.330   3.520
 7600SOL    HW223700   0.940   0.360   3.641
 7601SOL     OW23701   2.868   6.280   1.441
 7601SOL    HW123702   2.809   6.357   1.417
 7601SOL    HW223703   2.957   6.314   1.471
 7602SOL     OW23704   0.762   1.550   1.013
 7602SOL    HW123705   0.742   1.514   1.105
 7602SOL    HW223706   0.860   1.567   1.006
 7603SOL     OW23707   4.448   1.094   6.408
 7603SOL    HW123708   4.474   1.084   6.504
 7603SOL    HW223709   4.350   1.074   6.398
 7604SOL     OW23710   2.349   2.595   5.293
 7604SOL    HW123711   2.347   2.607   5.194
 7604SOL    HW223712   2.327   2.500   5.316
 7605SOL     OW23713   2.905   5.680   0.350
 7605SOL    HW123714   2.829   5.681   0.285
 7605SOL    HW223715   2.992   5.686   0.299
 7606SOL     OW23716   6.345   0.468   3.113
 7606SOL    HW123717   6.300   0.397   3.167
 7606SOL    HW223718   6.353   0.551   3.168
 7607SOL     OW23719   1.890   5.779   5.632
 7607SOL    HW123720   1.901   5.827   5.544
 7607SOL    HW223721   1.918   5.840   5.706
 7608SOL     OW23722   0.221   2.409   6.285
 7608SOL    HW123723   0.243   2.446   6.195
 7608SOL    HW223724   0.121   2.399   6.294
 7609SOL     OW23725   3.453   0.265   5.107
 7609SOL    HW123726   3.492   0.180   5.072
 7609SOL    HW223727   3.506   0.297   5.185
 7610SOL     OW23728   4.079   4.784   4.514
 7610SOL    HW123729   4.125   4.734   4.588
 7610SOL    HW223730   4.068   4.880   4.541
 7611SOL     OW23731   4.252   2.206   0.251
 7611SOL    HW123732   4.319   2.257   0.197
 7611SOL    HW223733   4.290   2.118   0.278
 7612SOL     OW23734   4.670   1.832   2.397
 7612SOL    HW123735   4.765   1.852   2.422
 7612SOL    HW223736   4.664   1.819   2.298
 7613SOL     OW23737   0.184   0.794   6.792
 7613SOL    HW123738   0.268   0.838   6.761
 7613SOL    HW223739   0.205   0.728   6.864
 7614SOL     OW23740   5.889   5.046   6.620
 7614SOL    HW123741   5.976   5.064   6.576
 7614SOL    HW223742   5.839   4.976   6.568
 7615SOL     OW23743   4.842   2.625   6.364
 7615SOL    HW123744   4.866   2.666   6.452
 7615SOL    HW223745   4.845   2.526   6.371
 7616SOL     OW23746   6.666   6.715   2.347
 7616SOL    HW123747   6.713   6.800   2.321
 7616SOL    HW223748   6.636   6.668   2.264
 7617SOL     OW23749   6.213   4.465   3.094
 7617SOL    HW123750   6.282   4.397   3.070
 7617SOL    HW223751   6.139   4.462   3.028
 7618SOL     OW23752   2.730   2.138   6.797
 7618SOL    HW123753   2.765   2.048   6.825
 7618SOL    HW223754   2.728   2.199   6.876
 7619SOL     OW23755   0.529   0.702   5.358
 7619SOL    HW123756   0.539   0.789   5.406
 7619SOL    HW223757   0.514   0.720   5.260
 7620SOL     OW23758   3.228   3.772   0.141
 7620SOL    HW123759   3.167   3.848   0.163
 7620SOL    HW223760   3.257   3.728   0.226
 7621SOL     OW23761   6.076   5.107   0.568
 7621SOL    HW123762   6.049   5.181   0.506
 7621SOL    HW223763   6.079   5.021   0.517
 7622SOL     OW23764   3.335   4.102   1.380
 7622SOL    HW123765   3.271   4.171   1.413
 7622SOL    HW223766   3.352   4.035   1.452
 7623SOL     OW23767   5.224   4.535   2.469
 7623SOL    HW123768   5.183   4.565   2.383
 7623SOL    HW223769   5.199   4.599   2.542
 7624SOL     OW23770   0.107   2.752   2.976
 7624SOL    HW123771   0.205   2.770   2.969
 7624SOL    HW223772   0.075   2.703   2.895
 7625SOL     OW23773   5.102   0.280   1.865
 7625SOL    HW123774   5.012   0.313   1.894
 7625SOL    HW223775   5.167   0.288   1.940
 7626SOL     OW23776   4.801   6.605   0.130
 7626SOL    HW123777   4.762   6.585   0.040
 7626SOL    HW223778   4.864   6.681   0.122
 7627SOL     OW23779   4.349   2.436   5.923
 7627SOL    HW123780   4.253   2.407   5.916
 7627SOL    HW223781   4.365   2.474   6.014
 7628SOL     OW23782   3.231   2.743   0.713
 7628SOL    HW123783   3.173   2.823   0.729
 7628SOL    HW223784   3.280   2.754   0.626
 7629SOL     OW23785   5.481   2.789   3.421
 7629SOL    HW123786   5.491   2.691   3.438
 7629SOL    HW223787   5.558   2.838   3.461
 7630SOL     OW23788   1.507   6.686   3.929
 7630SOL    HW123789   1.601   6.717   3.942
 7630SOL    HW223790   1.444   6.761   3.948
 7631SOL     OW23791   1.399   1.126   6.022
 7631SOL    HW123792   1.449   1.107   5.938
 7631SOL    HW223793   1.447   1.196   6.074
 7632SOL     OW23794   4.078   5.673   0.944
 7632SOL    HW123795   4.143   5.611   0.988
 7632SOL    HW223796   4.074   5.654   0.846
 7633SOL     OW23797   5.101   0.851   1.609
 7633SOL    HW123798   5.113   0.797   1.525
 7633SOL    HW223799   5.004   0.867   1.624
 7634SOL     OW23800   0.321   2.307   6.669
 7634SOL    HW123801   0.242   2.261   6.628
 7634SOL    HW223802   0.353   2.254   6.747
 7635SOL     OW23803   1.364   3.512   5.568
 7635SOL    HW123804   1.448   3.521   5.622
 7635SOL    HW223805   1.310   3.596   5.577
 7636SOL     OW23806   6.757   3.145   3.298
 7636SOL    HW123807   6.855   3.144   3.318
 7636SOL    HW223808   6.706   3.125   3.381
 7637SOL     OW23809   1.188   4.080   5.555
 7637SOL    HW123810   1.155   4.175   5.555
 7637SOL    HW223811   1.180   4.042   5.463
 7638SOL     OW23812   0.687   6.346   1.288
 7638SOL    HW123813   0.764   6.352   1.352
 7638SOL    HW223814   0.700   6.267   1.228
 7639SOL     OW23815   2.466   6.331   0.322
 7639SOL    HW123816   2.461   6.336   0.422
 7639SOL    HW223817   2.376   6.305   0.286
 7640SOL     OW23818   2.930   0.789   0.869
 7640SOL    HW123819   3.013   0.758   0.915
 7640SOL    HW223820   2.862   0.716   0.869
 7641SOL     OW23821   6.564   5.003   4.816
 7641SOL    HW123822   6.582   5.094   4.852
 7641SOL    HW223823   6.650   4.951   4.813
 7642SOL     OW23824   5.822   0.859   4.080
 7642SOL    HW123825   5.894   0.814   4.028
 7642SOL    HW223826   5.746   0.795   4.094
 7643SOL     OW23827   5.004   2.339   4.219
 7643SOL    HW123828   5.081   2.398   4.244
 7643SOL    HW223829   5.034   2.271   4.152
 7644SOL     OW23830   5.360   3.791   0.429
 7644SOL    HW123831   5.414   3.718   0.471
 7644SOL    HW223832   5.415   3.874   0.423
 7645SOL     OW23833   4.840   5.048   6.530
 7645SOL    HW123834   4.933   5.050   6.494
 7645SOL    HW223835   4.819   5.137   6.571
 7646SOL     OW23836   6.938   2.010   1.923
 7646SOL    HW123837   6.987   1.993   2.009
 7646SOL    HW223838   6.999   2.055   1.858
 7647SOL     OW23839   6.814   1.897   4.090
 7647SOL    HW123840   6.852   1.823   4.145
 7647SOL    HW223841   6.818   1.872   3.993
 7648SOL     OW23842   1.946   2.477   1.128
 7648SOL    HW123843   1.873   2.430   1.078
 7648SOL    HW223844   2.035   2.449   1.092
 7649SOL     OW23845   3.987   0.633   0.062
 7649SOL    HW123846   3.998   0.696   0.139
 7649SOL    HW223847   4.064   0.643   7.020
 7650SOL     OW23848   3.489   2.398   0.495
 7650SOL    HW123849   3.480   2.492   0.463
 7650SOL    HW223850   3.560   2.352   0.441
 7651SOL     OW23851   3.580   5.430   6.452
 7651SOL    HW123852   3.604   5.511   6.398
 7651SOL    HW223853   3.481   5.421   6.456
 7652SOL     OW23854   7.002   0.781   5.366
 7652SOL    HW123855   0.046   0.705   5.356
 7652SOL    HW223856   7.018   0.848   5.294
 7653SOL     OW23857   1.642   6.572   6.676
 7653SOL    HW123858   1.679   6.609   6.591
 7653SOL    HW223859   1.644   6.642   6.747
 7654SOL     OW23860   6.563   2.432   5.525
 7654SOL    HW123861   6.632   2.459   5.592
 7654SOL    HW223862   6.608   2.401   5.441
 7655SOL     OW23863   3.123   1.451   5.219
 7655SOL    HW123864   3.208   1.500   5.235
 7655SOL    HW223865   3.097   1.459   5.123
 7656SOL     OW23866   6.095   3.696   6.903
 7656SOL    HW123867   6.093   3.752   6.821
 7656SOL    HW223868   6.148   3.612   6.886
 7657SOL     OW23869   1.154   3.683   4.628
 7657SOL    HW123870   1.156   3.592   4.588
 7657SOL    HW223871   1.078   3.735   4.590
 7658SOL     OW23872   2.814   0.558   1.145
 7658SOL    HW123873   2.808   0.559   1.046
 7658SOL    HW223874   2.723   0.541   1.184
 7659SOL     OW23875   5.376   4.162   5.256
 7659SOL    HW123876   5.443   4.205   5.316
 7659SOL    HW223877   5.382   4.201   5.165
 7660SOL     OW23878   0.167   6.437   5.398
 7660SOL    HW123879   0.172   6.534   5.376
 7660SOL    HW223880   0.199   6.383   5.320
 7661SOL     OW23881   1.788   0.469   5.244
 7661SOL    HW123882   1.787   0.391   5.182
 7661SOL    HW223883   1.863   0.459   5.309
 7662SOL     OW23884   0.170   6.498   1.414
 7662SOL    HW123885   0.243   6.430   1.404
 7662SOL    HW223886   0.178   6.567   1.342
 7663SOL     OW23887   1.754   6.114   4.504
 7663SOL    HW123888   1.660   6.146   4.513
 7663SOL    HW223889   1.802   6.124   4.591
 7664SOL     OW23890   5.769   2.189   2.901
 7664SOL    HW123891   5.715   2.184   2.817
 7664SOL    HW223892   5.817   2.277   2.905
 7665SOL     OW23893   2.735   0.585   5.210
 7665SOL    HW123894   2.692   0.495   5.209
 7665SOL    HW223895   2.811   0.586   5.144
 7666SOL     OW23896   5.975   5.438   4.211
 7666SOL    HW123897   6.031   5.401   4.285
 7666SOL    HW223898   5.989   5.385   4.128
 7667SOL     OW23899   4.182   5.476   1.319
 7667SOL    HW123900   4.233   5.489   1.403
 7667SOL    HW223901   4.084   5.482   1.338
 7668SOL     OW23902   1.750   5.653   0.283
 7668SOL    HW123903   1.767   5.584   0.353
 7668SOL    HW223904   1.793   5.740   0.310
 7669SOL     OW23905   3.072   2.159   6.868
 7669SOL    HW123906   3.011   2.088   6.903
 7669SOL    HW223907   3.128   2.122   6.794
 7670SOL     OW23908   0.621   0.260   0.781
 7670SOL    HW123909   0.577   0.210   0.855
 7670SOL    HW223910   0.573   0.241   0.695
 7671SOL     OW23911   3.834   0.325   1.597
 7671SOL    HW123912   3.747   0.291   1.562
 7671SOL    HW223913   3.825   0.422   1.619
 7672SOL     OW23914   5.477   3.375   2.161
 7672SOL    HW123915   5.512   3.347   2.250
 7672SOL    HW223916   5.535   3.447   2.123
 7673SOL     OW23917   1.982   6.347   5.392
 7673SOL    HW123918   1.971   6.251   5.418
 7673SOL    HW223919   2.077   6.364   5.365
 7674SOL     OW23920   3.469   5.684   3.667
 7674SOL    HW123921   3.548   5.625   3.650
 7674SOL    HW223922   3.474   5.765   3.609
 7675SOL     OW23923   3.862   6.216   3.381
 7675SOL    HW123924   3.811   6.290   3.337
 7675SOL    HW223925   3.889   6.243   3.473
 7676SOL     OW23926   2.899   3.351   4.790
 7676SOL    HW123927   2.933   3.308   4.707
 7676SOL    HW223928   2.919   3.293   4.869
 7677SOL     OW23929   0.368   6.320   6.997
 7677SOL    HW123930   0.390   6.257   6.923
 7677SOL    HW223931   0.425   6.299   0.056
 7678SOL     OW23932   3.677   1.525   5.607
 7678SOL    HW123933   3.667   1.425   5.609
 7678SOL    HW223934   3.589   1.567   5.588
 7679SOL     OW23935   2.650   5.095   4.150
 7679SOL    HW123936   2.739   5.050   4.146
 7679SOL    HW223937   2.582   5.031   4.186
 7680SOL     OW23938   1.798   6.724   3.988
 7680SOL    HW123939   1.863   6.796   4.010
 7680SOL    HW223940   1.794   6.658   4.063
 7681SOL     OW23941   1.912   2.125   5.609
 7681SOL    HW123942   1.816   2.103   5.597
 7681SOL    HW223943   1.960   2.116   5.522
 7682SOL     OW23944   3.514   0.458   1.929
 7682SOL    HW123945   3.559   0.485   2.014
 7682SOL    HW223946   3.441   0.523   1.908
 7683SOL     OW23947   0.878   4.453   4.558
 7683SOL    HW123948   0.798   4.450   4.616
 7683SOL    HW223949   0.923   4.542   4.567
 7684SOL     OW23950   4.845   3.504   1.869
 7684SOL    HW123951   4.763   3.542   1.827
 7684SOL    HW223952   4.846   3.405   1.856
 7685SOL     OW23953   2.405   0.059   0.050
 7685SOL    HW123954   2.468   0.021   0.117
 7685SOL    HW223955   2.321   0.004   0.050
 7686SOL     OW23956   5.943   0.534   4.265
 7686SOL    HW123957   5.975   0.624   4.236
 7686SOL    HW223958   5.892   0.543   4.351
 7687SOL     OW23959   5.282   3.243   5.951
 7687SOL    HW123960   5.306   3.176   5.880
 7687SOL    HW223961   5.312   3.334   5.922
 7688SOL     OW23962   6.579   2.987   0.447
 7688SOL    HW123963   6.592   2.975   0.546
 7688SOL    HW223964   6.540   3.078   0.430
 7689SOL     OW23965   5.673   0.321   2.696
 7689SOL    HW123966   5.698   0.233   2.656
 7689SOL    HW223967   5.581   0.346   2.664
 7690SOL     OW23968   6.096   4.630   2.364
 7690SOL    HW123969   6.054   4.703   2.418
 7690SOL    HW223970   6.092   4.545   2.416
 7691SOL     OW23971   5.044   2.908   3.928
 7691SOL    HW123972   5.113   2.924   3.857
 7691SOL    HW223973   4.953   2.909   3.887
 7692SOL     OW23974   2.033   6.542   2.116
 7692SOL    HW123975   2.024   6.641   2.129
 7692SOL    HW223976   2.092   6.504   2.187
 7693SOL     OW23977   2.587   2.185   1.363
 7693SOL    HW123978   2.580   2.090   1.394
 7693SOL    HW223979   2.531   2.197   1.280
 7694SOL     OW23980   4.159   2.294   0.966
 7694SOL    HW123981   4.186   2.385   0.996
 7694SOL    HW223982   4.193   2.226   1.031
 7695SOL     OW23983   5.301   6.285   4.132
 7695SOL    HW123984   5.231   6.239   4.186
 7695SOL    HW223985   5.386   6.291   4.184
 7696SOL     OW23986   2.918   1.300   5.510
 7696SOL    HW123987   2.826   1.326   5.480
 7696SOL    HW223988   2.936   1.339   5.600
 7697SOL     OW23989   5.481   6.703   3.163
 7697SOL    HW123990   5.470   6.645   3.082
 7697SOL    HW223991   5.535   6.655   3.231
 7698SOL     OW23992   6.237   2.319   1.285
 7698SOL    HW123993   6.210   2.236   1.335
 7698SOL    HW223994   6.162   2.384   1.284
 7699SOL     OW23995   3.741   5.841   6.258
 7699SOL    HW123996   3.732   5.858   6.160
 7699SOL    HW223997   3.680   5.902   6.308
 7700SOL     OW23998   6.596   5.467   1.808
 7700SOL    HW123999   6.572   5.539   1.744
 7700SOL    HW224000   6.696   5.456   1.810
 7701SOL     OW24001   3.173   1.366   6.646
 7701SOL    HW124002   3.205   1.446   6.697
 7701SOL    HW224003   3.143   1.394   6.555
 7702SOL     OW24004   6.290   5.925   5.713
 7702SOL    HW124005   6.380   5.901   5.748
 7702SOL    HW224006   6.239   5.976   5.782
 7703SOL     OW24007   0.129   6.470   6.273
 7703SOL    HW124008   0.092   6.556   6.308
 7703SOL    HW224009   0.211   6.489   6.220
 7704SOL     OW24010   2.047   1.956   4.699
 7704SOL    HW124011   2.085   2.021   4.632
 7704SOL    HW224012   1.962   1.918   4.662
 7705SOL     OW24013   0.680   4.513   0.497
 7705SOL    HW124014   0.703   4.606   0.471
 7705SOL    HW224015   0.762   4.463   0.523
 7706SOL     OW24016   3.205   4.111   2.313
 7706SOL    HW124017   3.156   4.196   2.333
 7706SOL    HW224018   3.275   4.096   2.383
 7707SOL     OW24019   0.256   5.372   5.804
 7707SOL    HW124020   0.199   5.355   5.885
 7707SOL    HW224021   0.317   5.450   5.822
 7708SOL     OW24022   0.290   0.352   4.590
 7708SOL    HW124023   0.230   0.272   4.602
 7708SOL    HW224024   0.372   0.325   4.539
 7709SOL     OW24025   6.328   4.743   1.078
 7709SOL    HW124026   6.368   4.758   0.987
 7709SOL    HW224027   6.285   4.827   1.109
 7710SOL     OW24028   6.562   3.065   2.629
 7710SOL    HW124029   6.620   3.135   2.671
 7710SOL    HW224030   6.467   3.094   2.631
 7711SOL     OW24031   0.937   3.864   3.284
 7711SOL    HW124032   0.914   3.847   3.380
 7711SOL    HW224033   1.014   3.928   3.279
 7712SOL     OW24034   1.091   4.522   4.316
 7712SOL    HW124035   1.165   4.517   4.248
 7712SOL    HW224036   1.046   4.434   4.323
 7713SOL     OW24037   1.138   5.789   0.571
 7713SOL    HW124038   1.079   5.842   0.509
 7713SOL    HW224039   1.233   5.819   0.560
 7714SOL     OW24040   5.550   1.488   5.229
 7714SOL    HW124041   5.494   1.406   5.242
 7714SOL    HW224042   5.532   1.527   5.139
 7715SOL     OW24043   4.025   3.732   6.676
 7715SOL    HW124044   4.041   3.804   6.743
 7715SOL    HW224045   4.113   3.697   6.643
 7716SOL     OW24046   1.342   1.116   6.751
 7716SOL    HW124047   1.386   1.206   6.749
 7716SOL    HW224048   1.244   1.128   6.770
 7717SOL     OW24049   1.013   1.566   6.240
 7717SOL    HW124050   1.047   1.637   6.300
 7717SOL    HW224051   1.050   1.579   6.148
 7718SOL     OW24052   0.358   3.757   3.470
 7718SOL    HW124053   0.282   3.745   3.535
 7718SOL    HW224054   0.422   3.825   3.506
 7719SOL     OW24055   1.962   6.313   4.987
 7719SOL    HW124056   1.904   6.240   5.023
 7719SOL    HW224057   2.057   6.296   5.013
 7720SOL     OW24058   4.634   1.463   6.592
 7720SOL    HW124059   4.698   1.386   6.585
 7720SOL    HW224060   4.685   1.548   6.598
 7721SOL     OW24061   6.208   5.584   2.583
 7721SOL    HW124062   6.297   5.604   2.542
 7721SOL    HW224063   6.176   5.495   2.553
 7722SOL     OW24064   0.202   5.886   4.681
 7722SOL    HW124065   0.189   5.981   4.709
 7722SOL    HW224066   0.266   5.842   4.744
 7723SOL     OW24067   4.274   4.461   0.058
 7723SOL    HW124068   4.232   4.374   0.031
 7723SOL    HW224069   4.214   4.508   0.123
 7724SOL     OW24070   1.170   4.795   0.241
 7724SOL    HW124071   1.208   4.738   0.313
 7724SOL    HW224072   1.128   4.737   0.171
 7725SOL     OW24073   5.264   3.167   4.694
 7725SOL    HW124074   5.300   3.077   4.669
 7725SOL    HW224075   5.340   3.230   4.708
 7726SOL     OW24076   2.181   3.047   0.381
 7726SOL    HW124077   2.264   3.026   0.433
 7726SOL    HW224078   2.102   3.044   0.442
 7727SOL     OW24079   5.322   0.563   3.196
 7727SOL    HW124080   5.344   0.522   3.107
 7727SOL    HW224081   5.366   0.652   3.203
 7728SOL     OW24082   2.176   3.342   5.232
 7728SOL    HW124083   2.255   3.295   5.271
 7728SOL    HW224084   2.159   3.308   5.140
 7729SOL     OW24085   6.832   1.218   2.756
 7729SOL    HW124086   6.739   1.248   2.778
 7729SOL    HW224087   6.846   1.124   2.789
 7730SOL     OW24088   6.077   3.670   6.145
 7730SOL    HW124089   6.057   3.575   6.120
 7730SOL    HW224090   6.136   3.710   6.075
 7731SOL     OW24091   6.766   0.650   6.362
 7731SOL    HW124092   6.724   0.640   6.452
 7731SOL    HW224093   6.789   0.746   6.347
 7732SOL     OW24094   4.245   1.195   7.006
 7732SOL    HW124095   4.191   1.276   6.981
 7732SOL    HW224096   4.306   1.218   0.061
 7733SOL     OW24097   6.218   6.228   1.044
 7733SOL    HW124098   6.188   6.151   1.100
 7733SOL    HW224099   6.140   6.285   1.021
 7734SOL     OW24100   4.111   3.327   3.465
 7734SOL    HW124101   4.105   3.311   3.564
 7734SOL    HW224102   4.125   3.425   3.448
 7735SOL     OW24103   0.948   5.972   0.941
 7735SOL    HW124104   0.880   5.953   1.012
 7735SOL    HW224105   0.962   5.891   0.885
 7736SOL     OW24106   1.528   1.332   1.305
 7736SOL    HW124107   1.542   1.277   1.223
 7736SOL    HW224108   1.480   1.416   1.281
 7737SOL     OW24109   4.668   4.480   6.351
 7737SOL    HW124110   4.574   4.450   6.337
 7737SOL    HW224111   4.710   4.427   6.425
 7738SOL     OW24112   1.392   1.284   5.748
 7738SOL    HW124113   1.442   1.349   5.805
 7738SOL    HW224114   1.430   1.192   5.761
 7739SOL     OW24115   0.780   3.020   6.588
 7739SOL    HW124116   0.720   3.096   6.612
 7739SOL    HW224117   0.742   2.935   6.626
 7740SOL     OW24118   1.956   1.016   4.319
 7740SOL    HW124119   1.859   1.039   4.327
 7740SOL    HW224120   1.965   0.920   4.289
 7741SOL     OW24121   6.758   3.966   6.286
 7741SOL    HW124122   6.682   3.914   6.247
 7741SOL    HW224123   6.734   3.997   6.377
 7742SOL     OW24124   4.812   2.184   3.958
 7742SOL    HW124125   4.753   2.264   3.954
 7742SOL    HW224126   4.762   2.103   3.928
 7743SOL     OW24127   3.535   0.822   6.452
 7743SOL    HW124128   3.602   0.771   6.398
 7743SOL    HW224129   3.569   0.914   6.468
 7744SOL     OW24130   0.418   6.425   4.651
 7744SOL    HW124131   0.331   6.435   4.601
 7744SOL    HW224132   0.424   6.495   4.721
 7745SOL     OW24133   2.828   0.117   0.407
 7745SOL    HW124134   2.919   0.155   0.423
 7745SOL    HW224135   2.765   0.150   0.478
 7746SOL     OW24136   0.189   6.259   0.627
 7746SOL    HW124137   0.096   6.227   0.613
 7746SOL    HW224138   0.191   6.359   0.619
 7747SOL     OW24139   0.084   6.050   1.621
 7747SOL    HW124140   0.048   6.026   1.531
 7747SOL    HW224141   0.079   6.149   1.633
 7748SOL     OW24142   4.303   1.105   6.099
 7748SOL    HW124143   4.321   1.189   6.150
 7748SOL    HW224144   4.336   1.116   6.005
 7749SOL     OW24145   3.311   4.093   2.723
 7749SOL    HW124146   3.393   4.049   2.759
 7749SOL    HW224147   3.242   4.100   2.796
 7750SOL     OW24148   5.416   4.360   6.090
 7750SOL    HW124149   5.439   4.444   6.139
 7750SOL    HW224150   5.482   4.345   6.016
 7751SOL     OW24151   0.294   1.584   5.279
 7751SOL    HW124152   0.208   1.586   5.228
 7751SOL    HW224153   0.279   1.547   5.370
 7752SOL     OW24154   5.732   4.039   5.872
 7752SOL    HW124155   5.696   4.126   5.838
 7752SOL    HW224156   5.671   4.003   5.942
 7753SOL     OW24157   2.973   0.885   5.084
 7753SOL    HW124158   2.984   0.948   5.007
 7753SOL    HW224159   2.999   0.931   5.169
 7754SOL     OW24160   6.547   1.105   0.947
 7754SOL    HW124161   6.494   1.097   0.862
 7754SOL    HW224162   6.526   1.027   1.006
 7755SOL     OW24163   1.591   5.977   5.548
 7755SOL    HW124164   1.619   6.056   5.602
 7755SOL    HW224165   1.514   5.931   5.592
 7756SOL     OW24166   3.706   6.197   2.867
 7756SOL    HW124167   3.724   6.099   2.874
 7756SOL    HW224168   3.782   6.248   2.906
 7757SOL     OW24169   3.622   0.954   5.750
 7757SOL    HW124170   3.603   0.889   5.823
 7757SOL    HW224171   3.697   0.920   5.694
 7758SOL     OW24172   2.440   2.054   6.410
 7758SOL    HW124173   2.485   2.020   6.493
 7758SOL    HW224174   2.418   2.151   6.421
 7759SOL     OW24175   2.129   0.811   4.730
 7759SOL    HW124176   2.044   0.759   4.741
 7759SOL    HW224177   2.166   0.794   4.638
 7760SOL     OW24178   5.432   2.222   2.993
 7760SOL    HW124179   5.504   2.265   3.047
 7760SOL    HW224180   5.405   2.283   2.919
 7761SOL     OW24181   4.508   1.360   6.858
 7761SOL    HW124182   4.471   1.397   6.943
 7761SOL    HW224183   4.539   1.435   6.800
 7762SOL     OW24184   1.534   2.516   0.842
 7762SOL    HW124185   1.477   2.547   0.766
 7762SOL    HW224186   1.624   2.558   0.836
 7763SOL     OW24187   2.725   2.534   0.867
 7763SOL    HW124188   2.781   2.583   0.934
 7763SOL    HW224189   2.679   2.457   0.911
 7764SOL     OW24190   3.404   3.012   1.954
 7764SOL    HW124191   3.315   3.010   2.000
 7764SOL    HW224192   3.467   2.951   2.001
 7765SOL     OW24193   6.913   1.511   2.197
 7765SOL    HW124194   6.936   1.479   2.289
 7765SOL    HW224195   6.852   1.589   2.203
 7766SOL     OW24196   0.217   2.892   6.649
 7766SOL    HW124197   0.226   2.799   6.612
 7766SOL    HW224198   0.291   2.910   6.714
 7767SOL     OW24199   5.660   4.031   5.202
 7767SOL    HW124200   5.744   4.085   5.194
 7767SOL    HW224201   5.604   4.045   5.120
 7768SOL     OW24202   3.485   4.901   1.426
 7768SOL    HW124203   3.527   4.989   1.405
 7768SOL    HW224204   3.491   4.884   1.525
 7769SOL     OW24205   5.413   1.954   3.076
 7769SOL    HW124206   5.438   2.030   3.136
 7769SOL    HW224207   5.394   1.989   2.984
 7770SOL     OW24208   3.566   6.499   1.193
 7770SOL    HW124209   3.599   6.421   1.139
 7770SOL    HW224210   3.612   6.500   1.282
 7771SOL     OW24211   1.820   1.083   4.571
 7771SOL    HW124212   1.806   1.147   4.647
 7771SOL    HW224213   1.912   1.094   4.535
 7772SOL     OW24214   5.421   0.418   5.374
 7772SOL    HW124215   5.345   0.406   5.438
 7772SOL    HW224216   5.500   0.455   5.423
 7773SOL     OW24217   4.058   4.627   5.884
 7773SOL    HW124218   4.039   4.692   5.810
 7773SOL    HW224219   3.974   4.578   5.907
 7774SOL     OW24220   4.936   1.714   6.865
 7774SOL    HW124221   5.006   1.743   6.930
 7774SOL    HW224222   4.978   1.654   6.796
 7775SOL     OW24223   1.552   6.872   2.480
 7775SOL    HW124224   1.486   6.799   2.459
 7775SOL    HW224225   1.643   6.843   2.451
 7776SOL     OW24226   3.396   4.692   0.741
 7776SOL    HW124227   3.374   4.656   0.832
 7776SOL    HW224228   3.368   4.788   0.736
 7777SOL     OW24229   0.464   0.562   6.355
 7777SOL    HW124230   0.382   0.510   6.333
 7777SOL    HW224231   0.496   0.537   6.447
 7778SOL     OW24232   4.731   2.054   2.091
 7778SOL    HW124233   4.799   1.982   2.102
 7778SOL    HW224234   4.652   2.019   2.042
 7779SOL     OW24235   4.238   3.147   0.432
 7779SOL    HW124236   4.225   3.246   0.430
 7779SOL    HW224237   4.193   3.105   0.353
 7780SOL     OW24238   0.775   0.338   4.358
 7780SOL    HW124239   0.793   0.287   4.274
 7780SOL    HW224240   0.844   0.315   4.426
 7781SOL     OW24241   1.951   4.089   5.870
 7781SOL    HW124242   1.886   4.066   5.942
 7781SOL    HW224243   1.926   4.043   5.785
 7782SOL     OW24244   4.661   4.829   0.380
 7782SOL    HW124245   4.683   4.732   0.393
 7782SOL    HW224246   4.635   4.845   0.285
 7783SOL     OW24247   3.233   5.800   6.844
 7783SOL    HW124248   3.251   5.736   6.919
 7783SOL    HW224249   3.318   5.845   6.817
 7784SOL     OW24250   6.249   3.644   0.321
 7784SOL    HW124251   6.346   3.659   0.343
 7784SOL    HW224252   6.225   3.695   0.239
 7785SOL     OW24253   1.274   6.384   6.190
 7785SOL    HW124254   1.311   6.358   6.280
 7785SOL    HW224255   1.304   6.477   6.168
 7786SOL     OW24256   3.970   4.392   5.317
 7786SOL    HW124257   4.059   4.365   5.354
 7786SOL    HW224258   3.978   4.484   5.277
 7787SOL     OW24259   3.304   2.166   5.579
 7787SOL    HW124260   3.296   2.130   5.486
 7787SOL    HW224261   3.400   2.166   5.606
 7788SOL     OW24262   6.926   2.463   0.949
 7788SOL    HW124263   6.925   2.472   1.048
 7788SOL    HW224264   6.850   2.405   0.920
 7789SOL     OW24265   1.758   0.124   1.809
 7789SOL    HW124266   1.798   0.150   1.897
 7789SOL    HW224267   1.683   0.186   1.787
 7790SOL     OW24268   0.073   3.820   2.704
 7790SOL    HW124269   0.076   3.789   2.609
 7790SOL    HW224270   7.002   3.804   2.741
 7791SOL     OW24271   6.983   5.396   5.539
 7791SOL    HW124272   6.933   5.431   5.460
 7791SOL    HW224273   0.050   5.360   5.509
 7792SOL     OW24274   1.836   5.864   6.307
 7792SOL    HW124275   1.810   5.800   6.234
 7792SOL    HW224276   1.799   5.955   6.286
 7793SOL     OW24277   2.582   1.034   6.516
 7793SOL    HW124278   2.610   1.013   6.422
 7793SOL    HW224279   2.523   1.115   6.516
 7794SOL     OW24280   5.318   5.009   2.545
 7794SOL    HW124281   5.373   4.953   2.482
 7794SOL    HW224282   5.316   5.103   2.513
 7795SOL     OW24283   1.301   4.527   6.360
 7795SOL    HW124284   1.385   4.538   6.412
 7795SOL    HW224285   1.299   4.438   6.316
 7796SOL     OW24286   3.943   3.343   5.183
 7796SOL    HW124287   3.851   3.347   5.143
 7796SOL    HW224288   4.010   3.368   5.114
 7797SOL     OW24289   1.280   6.551   3.864
 7797SOL    HW124290   1.226   6.554   3.948
 7797SOL    HW224291   1.345   6.627   3.864
 7798SOL     OW24292   4.049   5.275   6.201
 7798SOL    HW124293   4.104   5.346   6.244
 7798SOL    HW224294   3.953   5.301   6.205
 7799SOL     OW24295   6.005   5.976   1.884
 7799SOL    HW124296   5.927   5.914   1.876
 7799SOL    HW224297   5.975   6.060   1.931
 7800SOL     OW24298   0.684   6.137   1.919
 7800SOL    HW124299   0.715   6.042   1.923
 7800SOL    HW224300   0.602   6.142   1.862
 7801SOL     OW24301   4.569   2.321   5.335
 7801SOL    HW124302   4.526   2.327   5.425
 7801SOL    HW224303   4.644   2.255   5.338
 7802SOL     OW24304   5.557   2.687   6.670
 7802SOL    HW124305   5.476   2.643   6.630
 7802SOL    HW224306   5.638   2.633   6.647
 7803SOL     OW24307   3.452   3.378   5.880
 7803SOL    HW124308   3.414   3.467   5.853
 7803SOL    HW224309   3.393   3.337   5.951
 7804SOL     OW24310   5.129   1.050   6.165
 7804SOL    HW124311   5.166   1.135   6.128
 7804SOL    HW224312   5.065   1.072   6.239
 7805SOL     OW24313   5.569   2.976   1.487
 7805SOL    HW124314   5.486   2.930   1.517
 7805SOL    HW224315   5.619   2.916   1.423
 7806SOL     OW24316   5.022   2.657   0.477
 7806SOL    HW124317   5.031   2.721   0.400
 7806SOL    HW224318   5.017   2.707   0.563
 7807SOL     OW24319   0.396   4.003   0.059
 7807SOL    HW124320   0.496   3.996   0.050
 7807SOL    HW224321   0.357   4.029   6.992
 7808SOL     OW24322   0.045   1.401   5.032
 7808SOL    HW124323   0.044   1.474   5.101
 7808SOL    HW224324   0.024   1.314   5.077
 7809SOL     OW24325   1.287   5.705   5.486
 7809SOL    HW124326   1.291   5.794   5.532
 7809SOL    HW224327   1.216   5.649   5.528
 7810SOL     OW24328   2.678   1.550   6.693
 7810SOL    HW124329   2.678   1.564   6.792
 7810SOL    HW224330   2.587   1.523   6.662
 7811SOL     OW24331   6.410   4.988   5.117
 7811SOL    HW124332   6.483   4.977   5.050
 7811SOL    HW224333   6.348   4.909   5.111
 7812SOL     OW24334   0.374   1.998   3.413
 7812SOL    HW124335   0.431   2.024   3.491
 7812SOL    HW224336   0.433   1.968   3.338
 7813SOL     OW24337   6.316   1.691   0.860
 7813SOL    HW124338   6.400   1.699   0.806
 7813SOL    HW224339   6.268   1.607   0.835
 7814SOL     OW24340   2.009   2.843   4.197
 7814SOL    HW124341   2.046   2.871   4.286
 7814SOL    HW224342   1.914   2.814   4.209
 7815SOL     OW24343   6.854   2.046   5.441
 7815SOL    HW124344   6.804   2.061   5.526
 7815SOL    HW224345   6.860   1.948   5.424
 7816SOL     OW24346   0.484   4.659   4.999
 7816SOL    HW124347   0.580   4.651   5.024
 7816SOL    HW224348   0.428   4.665   5.081
 7817SOL     OW24349   5.591   3.076   5.547
 7817SOL    HW124350   5.518   3.114   5.490
 7817SOL    HW224351   5.676   3.127   5.531
 7818SOL     OW24352   5.664   3.190   3.993
 7818SOL    HW124353   5.592   3.217   3.930
 7818SOL    HW224354   5.745   3.247   3.978
 7819SOL     OW24355   0.912   0.900   1.104
 7819SOL    HW124356   0.981   0.862   1.164
 7819SOL    HW224357   0.918   0.858   1.014
 7820SOL     OW24358   2.850   6.801   6.254
 7820SOL    HW124359   2.798   6.770   6.175
 7820SOL    HW224360   2.940   6.758   6.254
 7821SOL     OW24361   3.058   6.371   0.771
 7821SOL    HW124362   3.039   6.274   0.756
 7821SOL    HW224363   3.042   6.393   0.868
 7822SOL     OW24364   1.420   6.539   5.153
 7822SOL    HW124365   1.478   6.576   5.081
 7822SOL    HW224366   1.360   6.612   5.187
 7823SOL     OW24367   1.882   3.198   5.370
 7823SOL    HW124368   1.895   3.295   5.348
 7823SOL    HW224369   1.883   3.186   5.469
 7824SOL     OW24370   1.160   3.106   5.219
 7824SOL    HW124371   1.199   3.194   5.246
 7824SOL    HW224372   1.156   3.045   5.298
 7825SOL     OW24373   2.410   0.879   0.091
 7825SOL    HW124374   2.373   0.800   0.139
 7825SOL    HW224375   2.507   0.864   0.071
 7826SOL     OW24376   0.860   4.044   5.909
 7826SOL    HW124377   0.867   4.073   6.004
 7826SOL    HW224378   0.929   3.975   5.889
 7827SOL     OW24379   6.206   4.876   3.868
 7827SOL    HW124380   6.274   4.842   3.803
 7827SOL    HW224381   6.130   4.918   3.818
 7828SOL     OW24382   1.117   6.031   5.829
 7828SOL    HW124383   1.072   6.096   5.768
 7828SOL    HW224384   1.106   6.062   5.924
 7829SOL     OW24385   4.621   5.040   0.572
 7829SOL    HW124386   4.543   5.095   0.542
 7829SOL    HW224387   4.631   4.962   0.510
 7830SOL     OW24388   1.810   5.405   4.481
 7830SOL    HW124389   1.824   5.504   4.484
 7830SOL    HW224390   1.727   5.385   4.429
 7831SOL     OW24391   1.930   0.295   6.353
 7831SOL    HW124392   1.850   0.260   6.401
 7831SOL    HW224393   1.991   0.339   6.420
 7832SOL     OW24394   6.738   1.229   5.171
 7832SOL    HW124395   6.765   1.193   5.082
 7832SOL    HW224396   6.699   1.156   5.227
 7833SOL     OW24397   0.876   0.265   2.959
 7833SOL    HW124398   0.961   0.298   2.917
 7833SOL    HW224399   0.857   0.317   3.041
 7834SOL     OW24400   6.957   3.315   5.118
 7834SOL    HW124401   6.975   3.236   5.177
 7834SOL    HW224402   6.936   3.395   5.175
 7835SOL     OW24403   3.178   2.499   5.716
 7835SOL    HW124404   3.254   2.453   5.760
 7835SOL    HW224405   3.176   2.475   5.619
 7836SOL     OW24406   2.938   3.597   4.910
 7836SOL    HW124407   2.987   3.667   4.858
 7836SOL    HW224408   2.920   3.518   4.852
 7837SOL     OW24409   1.045   5.527   6.876
 7837SOL    HW124410   0.961   5.528   6.822
 7837SOL    HW224411   1.053   5.612   6.927
 7838SOL     OW24412   4.331   5.152   1.541
 7838SOL    HW124413   4.274   5.110   1.470
 7838SOL    HW224414   4.361   5.081   1.606
 7839SOL     OW24415   6.383   3.577   5.005
 7839SOL    HW124416   6.396   3.481   5.029
 7839SOL    HW224417   6.456   3.606   4.943
 7840SOL     OW24418   2.262   2.464   3.267
 7840SOL    HW124419   2.212   2.496   3.348
 7840SOL    HW224420   2.254   2.364   3.260
 7841SOL     OW24421   4.751   1.836   5.378
 7841SOL    HW124422   4.697   1.919   5.391
 7841SOL    HW224423   4.791   1.808   5.465
 7842SOL     OW24424   0.917   0.270   1.119
 7842SOL    HW124425   0.902   0.360   1.078
 7842SOL    HW224426   0.940   0.205   1.047
 7843SOL     OW24427   6.505   6.514   1.670
 7843SOL    HW124428   6.408   6.537   1.670
 7843SOL    HW224429   6.521   6.438   1.733
 7844SOL     OW24430   3.984   7.009   2.443
 7844SOL    HW124431   4.010   6.934   2.504
 7844SOL    HW224432   3.994   6.979   2.348
 7845SOL     OW24433   6.625   3.104   1.587
 7845SOL    HW124434   6.712   3.090   1.540
 7845SOL    HW224435   6.550   3.074   1.528
 7846SOL     OW24436   0.568   1.588   0.212
 7846SOL    HW124437   0.646   1.604   0.273
 7846SOL    HW224438   0.493   1.548   0.264
 7847SOL     OW24439   5.504   3.925   6.033
 7847SOL    HW124440   5.419   3.918   5.982
 7847SOL    HW224441   5.496   3.995   6.103
 7848SOL     OW24442   4.327   5.036   0.524
 7848SOL    HW124443   4.265   5.113   0.511
 7848SOL    HW224444   4.338   5.018   0.622
 7849SOL     OW24445   4.468   4.903   6.831
 7849SOL    HW124446   4.371   4.880   6.823
 7849SOL    HW224447   4.524   4.826   6.800
 7850SOL     OW24448   6.611   0.805   3.250
 7850SOL    HW124449   6.629   0.727   3.311
 7850SOL    HW224450   6.580   0.883   3.304
 7851SOL     OW24451   0.360   4.847   0.666
 7851SOL    HW124452   0.349   4.880   0.760
 7851SOL    HW224453   0.450   4.873   0.632
 7852SOL     OW24454   1.121   3.406   6.047
 7852SOL    HW124455   1.145   3.322   6.097
 7852SOL    HW224456   1.166   3.406   5.958
 7853SOL     OW24457   4.449   2.964   1.703
 7853SOL    HW124458   4.534   2.992   1.749
 7853SOL    HW224459   4.372   3.016   1.740
 7854SOL     OW24460   4.364   1.028   1.101
 7854SOL    HW124461   4.357   1.087   1.181
 7854SOL    HW224462   4.275   1.022   1.056
 7855SOL     OW24463   5.059   6.266   4.002
 7855SOL    HW124464   5.158   6.265   3.989
 7855SOL    HW224465   5.035   6.332   4.074
 7856SOL     OW24466   2.166   6.197   6.384
 7856SOL    HW124467   2.144   6.263   6.455
 7856SOL    HW224468   2.250   6.224   6.338
 7857SOL     OW24469   6.973   5.062   0.461
 7857SOL    HW124470   6.875   5.041   0.459
 7857SOL    HW224471   0.004   4.977   0.473
 7858SOL     OW24472   0.775   3.996   6.196
 7858SOL    HW124473   0.760   3.904   6.160
 7858SOL    HW224474   0.691   4.049   6.187
 7859SOL     OW24475   4.805   2.170   1.284
 7859SOL    HW124476   4.741   2.197   1.356
 7859SOL    HW224477   4.753   2.138   1.205
 7860SOL     OW24478   2.676   1.827   3.190
 7860SOL    HW124479   2.615   1.888   3.140
 7860SOL    HW224480   2.706   1.872   3.275
 7861SOL     OW24481   1.736   5.827   0.819
 7861SOL    HW124482   1.780   5.740   0.800
 7861SOL    HW224483   1.737   5.844   0.918
 7862SOL     OW24484   1.244   6.629   0.281
 7862SOL    HW124485   1.237   6.539   0.239
 7862SOL    HW224486   1.202   6.697   0.221
 7863SOL     OW24487   0.109   3.761   3.588
 7863SOL    HW124488   0.045   3.814   3.532
 7863SOL    HW224489   0.062   3.725   3.668
 7864SOL     OW24490   3.343   5.387   4.960
 7864SOL    HW124491   3.339   5.472   4.907
 7864SOL    HW224492   3.337   5.408   5.057
 7865SOL     OW24493   6.259   5.190   3.824
 7865SOL    HW124494   6.339   5.250   3.815
 7865SOL    HW224495   6.267   5.114   3.759
 7866SOL     OW24496   0.570   0.943   5.461
 7866SOL    HW124497   0.567   1.032   5.416
 7866SOL    HW224498   0.649   0.940   5.522
 7867SOL     OW24499   3.920   5.194   2.778
 7867SOL    HW124500   4.006   5.230   2.813
 7867SOL    HW224501   3.934   5.100   2.747
 7868SOL     OW24502   3.893   5.927   1.409
 7868SOL    HW124503   3.931   5.860   1.345
 7868SOL    HW224504   3.922   6.019   1.382
 7869SOL     OW24505   5.670   4.890   6.858
 7869SOL    HW124506   5.699   4.795   6.854
 7869SOL    HW224507   5.703   4.932   6.942
 7870SOL     OW24508   6.610   0.224   3.505
 7870SOL    HW124509   6.631   0.155   3.436
 7870SOL    HW224510   6.676   0.299   3.500
 7871SOL     OW24511   4.455   1.037   0.544
 7871SOL    HW124512   4.381   0.994   0.492
 7871SOL    HW224513   4.532   0.974   0.551
 7872SOL     OW24514   6.987   4.502   4.023
 7872SOL    HW124515   0.035   4.444   3.979
 7872SOL    HW224516   6.927   4.445   4.079
 7873SOL     OW24517   4.352   2.431   0.021
 7873SOL    HW124518   4.358   2.525   7.007
 7873SOL    HW224519   4.394   2.426   0.111
 7874SOL     OW24520   6.487   2.421   6.941
 7874SOL    HW124521   6.473   2.500   7.001
 7874SOL    HW224522   6.478   2.337   6.994
 7875SOL     OW24523   6.942   4.917   0.090
 7875SOL    HW124524   6.945   4.823   0.123
 7875SOL    HW224525   6.977   4.920   7.017
 7876SOL     OW24526   1.111   6.488   3.225
 7876SOL    HW124527   1.175   6.484   3.302
 7876SOL    HW224528   1.156   6.454   3.142
 7877SOL     OW24529   0.841   2.901   1.713
 7877SOL    HW124530   0.910   2.848   1.763
 7877SOL    HW224531   0.846   2.880   1.616
 7878SOL     OW24532   3.834   0.614   2.368
 7878SOL    HW124533   3.874   0.701   2.340
 7878SOL    HW224534   3.760   0.631   2.434
 7879SOL     OW24535   2.626   5.488   1.850
 7879SOL    HW124536   2.615   5.397   1.810
 7879SOL    HW224537   2.618   5.481   1.950
 7880SOL     OW24538   1.232   4.592   2.098
 7880SOL    HW124539   1.251   4.621   2.005
 7880SOL    HW224540   1.299   4.523   2.126
 7881SOL     OW24541   4.999   2.745   3.216
 7881SOL    HW124542   4.992   2.646   3.227
 7881SOL    HW224543   5.052   2.783   3.292
 7882SOL     OW24544   0.155   2.478   6.946
 7882SOL    HW124545   0.146   2.395   7.001
 7882SOL    HW224546   0.092   2.474   6.868
 7883SOL     OW24547   0.208   6.774   4.503
 7883SOL    HW124548   0.159   6.856   4.473
 7883SOL    HW224549   0.282   6.754   4.439
 7884SOL     OW24550   1.492   2.800   4.001
 7884SOL    HW124551   1.444   2.875   3.955
 7884SOL    HW224552   1.539   2.836   4.082
 7885SOL     OW24553   6.929   5.718   0.066
 7885SOL    HW124554   6.897   5.812   0.079
 7885SOL    HW224555   6.928   5.697   6.989
 7886SOL     OW24556   4.865   4.039   0.357
 7886SOL    HW124557   4.901   4.095   0.282
 7886SOL    HW224558   4.765   4.045   0.359
 7887SOL     OW24559   4.550   2.010   6.537
 7887SOL    HW124560   4.619   2.071   6.577
 7887SOL    HW224561   4.557   1.920   6.579
 7888SOL     OW24562   4.069   5.720   4.213
 7888SOL    HW124563   4.042   5.679   4.300
 7888SOL    HW224564   4.146   5.670   4.175
 7889SOL     OW24565   6.393   4.728   3.702
 7889SOL    HW124566   6.485   4.706   3.671
 7889SOL    HW224567   6.346   4.644   3.731
 7890SOL     OW24568   2.053   3.651   2.596
 7890SOL    HW124569   2.017   3.718   2.660
 7890SOL    HW224570   2.048   3.687   2.503
 7891SOL     OW24571   0.279   4.303   3.110
 7891SOL    HW124572   0.315   4.277   3.021
 7891SOL    HW224573   0.352   4.339   3.167
 7892SOL     OW24574   2.270   2.254   5.026
 7892SOL    HW124575   2.323   2.224   5.105
 7892SOL    HW224576   2.328   2.251   4.944
 7893SOL     OW24577   5.087   6.593   1.125
 7893SOL    HW124578   5.086   6.505   1.077
 7893SOL    HW224579   5.116   6.580   1.219
 7894SOL     OW24580   2.919   0.051   1.157
 7894SOL    HW124581   2.980   0.039   1.078
 7894SOL    HW224582   2.836   7.018   1.143
 7895SOL     OW24583   0.689   1.593   4.256
 7895SOL    HW124584   0.783   1.627   4.251
 7895SOL    HW224585   0.663   1.552   4.169
 7896SOL     OW24586   3.773   2.605   6.395
 7896SOL    HW124587   3.694   2.600   6.334
 7896SOL    HW224588   3.798   2.701   6.409
 7897SOL     OW24589   2.876   3.843   0.377
 7897SOL    HW124590   2.968   3.857   0.411
 7897SOL    HW224591   2.873   3.759   0.322
 7898SOL     OW24592   5.088   1.358   4.296
 7898SOL    HW124593   5.068   1.308   4.212
 7898SOL    HW224594   5.015   1.341   4.363
 7899SOL     OW24595   4.567   0.877   1.501
 7899SOL    HW124596   4.540   0.832   1.415
 7899SOL    HW224597   4.498   0.860   1.571
 7900SOL     OW24598   0.404   5.970   1.432
 7900SOL    HW124599   0.402   5.892   1.494
 7900SOL    HW224600   0.486   5.966   1.375
 7901SOL     OW24601   5.900   4.990   1.279
 7901SOL    HW124602   5.960   5.007   1.358
 7901SOL    HW224603   5.811   4.957   1.312
 7902SOL     OW24604   4.845   4.691   6.330
 7902SOL    HW124605   4.875   4.698   6.425
 7902SOL    HW224606   4.764   4.633   6.324
 7903SOL     OW24607   0.501   2.669   1.780
 7903SOL    HW124608   0.566   2.599   1.808
 7903SOL    HW224609   0.485   2.663   1.682
 7904SOL     OW24610   5.779   2.402   3.508
 7904SOL    HW124611   5.710   2.459   3.552
 7904SOL    HW224612   5.856   2.458   3.479
 7905SOL     OW24613   2.314   1.677   2.042
 7905SOL    HW124614   2.363   1.662   2.129
 7905SOL    HW224615   2.272   1.768   2.043
 7906SOL     OW24616   1.555   4.864   6.870
 7906SOL    HW124617   1.596   4.952   6.892
 7906SOL    HW224618   1.549   4.854   6.771
 7907SOL     OW24619   0.515   2.705   2.380
 7907SOL    HW124620   0.434   2.647   2.390
 7907SOL    HW224621   0.511   2.779   2.446
 7908SOL     OW24622   0.729   1.622   3.032
 7908SOL    HW124623   0.750   1.648   2.937
 7908SOL    HW224624   0.630   1.616   3.043
 7909SOL     OW24625   4.313   6.274   5.214
 7909SOL    HW124626   4.353   6.365   5.201
 7909SOL    HW224627   4.292   6.261   5.311
 7910SOL     OW24628   6.166   3.084   6.142
 7910SOL    HW124629   6.207   3.000   6.107
 7910SOL    HW224630   6.187   3.160   6.080
 7911SOL     OW24631   6.886   5.875   6.088
 7911SOL    HW124632   6.813   5.809   6.105
 7911SOL    HW224633   6.879   5.909   5.994
 7912SOL     OW24634   0.144   5.529   4.742
 7912SOL    HW124635   0.199   5.537   4.659
 7912SOL    HW224636   0.149   5.435   4.776
 7913SOL     OW24637   1.754   6.350   6.539
 7913SOL    HW124638   1.701   6.430   6.568
 7913SOL    HW224639   1.802   6.371   6.454
 7914SOL     OW24640   5.960   4.714   0.730
 7914SOL    HW124641   5.995   4.750   0.817
 7914SOL    HW224642   5.934   4.791   0.671
 7915SOL     OW24643   3.264   1.345   3.104
 7915SOL    HW124644   3.202   1.418   3.132
 7915SOL    HW224645   3.211   1.267   3.070
 7916SOL     OW24646   4.285   3.625   5.309
 7916SOL    HW124647   4.359   3.560   5.323
 7916SOL    HW224648   4.321   3.707   5.263
 7917SOL     OW24649   3.765   4.082   4.078
 7917SOL    HW124650   3.708   4.030   4.142
 7917SOL    HW224651   3.712   4.157   4.040
 7918SOL     OW24652   5.662   2.347   2.194
 7918SOL    HW124653   5.682   2.293   2.276
 7918SOL    HW224654   5.748   2.371   2.148
 7919SOL     OW24655   5.370   4.134   2.508
 7919SOL    HW124656   5.411   4.224   2.492
 7919SOL    HW224657   5.407   4.069   2.442
 7920SOL     OW24658   0.026   6.413   1.096
 7920SOL    HW124659   6.986   6.362   1.036
 7920SOL    HW224660   0.009   6.387   1.191
 7921SOL     OW24661   3.528   4.947   2.350
 7921SOL    HW124662   3.446   4.971   2.403
 7921SOL    HW224663   3.509   4.958   2.252
 7922SOL     OW24664   1.106   4.319   4.734
 7922SOL    HW124665   1.190   4.283   4.693
 7922SOL    HW224666   1.046   4.353   4.661
 7923SOL     OW24667   1.264   2.612   3.256
 7923SOL    HW124668   1.243   2.548   3.182
 7923SOL    HW224669   1.283   2.562   3.340
 7924SOL     OW24670   2.710   1.197   3.664
 7924SOL    HW124671   2.646   1.236   3.729
 7924SOL    HW224672   2.666   1.190   3.574
 7925SOL     OW24673   1.211   1.070   0.299
 7925SOL    HW124674   1.178   1.092   0.390
 7925SOL    HW224675   1.241   1.154   0.253
 7926SOL     OW24676   3.188   0.827   1.715
 7926SOL    HW124677   3.232   0.820   1.625
 7926SOL    HW224678   3.235   0.896   1.770
 7927SOL     OW24679   4.443   5.254   4.778
 7927SOL    HW124680   4.372   5.319   4.752
 7927SOL    HW224681   4.413   5.202   4.858
 7928SOL     OW24682   0.327   4.020   0.495
 7928SOL    HW124683   0.348   4.074   0.413
 7928SOL    HW224684   0.316   3.924   0.469
 7929SOL     OW24685   3.566   4.224   5.166
 7929SOL    HW124686   3.652   4.262   5.133
 7929SOL    HW224687   3.561   4.235   5.266
 7930SOL     OW24688   3.900   6.866   2.157
 7930SOL    HW124689   3.936   6.774   2.171
 7930SOL    HW224690   3.952   6.911   2.084
 7931SOL     OW24691   3.067   3.167   5.655
 7931SOL    HW124692   3.091   3.180   5.559
 7931SOL    HW224693   3.014   3.082   5.665
 7932SOL     OW24694   3.073   1.217   0.638
 7932SOL    HW124695   3.021   1.237   0.555
 7932SOL    HW224696   3.064   1.292   0.703
 7933SOL     OW24697   2.051   1.606   6.138
 7933SOL    HW124698   2.069   1.509   6.120
 7933SOL    HW224699   2.040   1.655   6.051
 7934SOL     OW24700   4.326   2.013   6.121
 7934SOL    HW124701   4.372   2.016   6.032
 7934SOL    HW224702   4.394   2.026   6.194
 7935SOL     OW24703   4.729   5.853   2.018
 7935SOL    HW124704   4.698   5.847   1.923
 7935SOL    HW224705   4.664   5.907   2.070
 7936SOL     OW24706   4.078   6.086   1.703
 7936SOL    HW124707   4.089   6.051   1.796
 7936SOL    HW224708   4.038   6.015   1.645
 7937SOL     OW24709   5.741   1.859   6.372
 7937SOL    HW124710   5.824   1.908   6.344
 7937SOL    HW224711   5.700   1.816   6.292
 7938SOL     OW24712   6.560   4.794   4.257
 7938SOL    HW124713   6.594   4.822   4.347
 7938SOL    HW224714   6.626   4.818   4.187
 7939SOL     OW24715   6.810   6.195   3.189
 7939SOL    HW124716   6.743   6.178   3.261
 7939SOL    HW224717   6.866   6.113   3.175
 7940SOL     OW24718   2.004   6.212   0.726
 7940SOL    HW124719   2.013   6.310   0.744
 7940SOL    HW224720   2.002   6.162   0.812
 7941SOL     OW24721   0.887   0.735   0.858
 7941SOL    HW124722   0.931   0.775   0.777
 7941SOL    HW224723   0.803   0.786   0.877
 7942SOL     OW24724   1.058   6.917   1.609
 7942SOL    HW124725   1.120   6.993   1.626
 7942SOL    HW224726   0.999   6.903   1.688
 7943SOL     OW24727   5.930   1.845   6.803
 7943SOL    HW124728   5.938   1.935   6.761
 7943SOL    HW224729   5.916   1.776   6.731
 7944SOL     OW24730   6.946   4.283   1.944
 7944SOL    HW124731   6.849   4.271   1.925
 7944SOL    HW224732   6.971   4.226   2.022
 7945SOL     OW24733   5.505   6.901   0.926
 7945SOL    HW124734   5.477   6.819   0.976
 7945SOL    HW224735   5.461   6.981   0.966
 7946SOL     OW24736   2.215   1.530   5.552
 7946SOL    HW124737   2.298   1.476   5.565
 7946SOL    HW224738   2.145   1.472   5.509
 7947SOL     OW24739   4.392   5.411   6.546
 7947SOL    HW124740   4.325   5.447   6.611
 7947SOL    HW224741   4.384   5.312   6.542
 7948SOL     OW24742   1.144   5.116   4.957
 7948SOL    HW124743   1.140   5.033   5.014
 7948SOL    HW224744   1.092   5.189   5.001
 7949SOL     OW24745   6.849   3.045   4.468
 7949SOL    HW124746   6.796   3.121   4.506
 7949SOL    HW224747   6.935   3.035   4.519
 7950SOL     OW24748   2.866   5.715   3.751
 7950SOL    HW124749   2.956   5.759   3.751
 7950SOL    HW224750   2.873   5.625   3.708
 7951SOL     OW24751   2.222   3.513   0.364
 7951SOL    HW124752   2.158   3.457   0.311
 7951SOL    HW224753   2.264   3.582   0.304
 7952SOL     OW24754   5.757   4.154   0.590
 7952SOL    HW124755   5.713   4.183   0.505
 7952SOL    HW224756   5.813   4.073   0.573
 7953SOL     OW24757   1.834   4.214   1.411
 7953SOL    HW124758   1.908   4.147   1.398
 7953SOL    HW224759   1.874   4.302   1.435
 7954SOL     OW24760   5.969   4.703   3.845
 7954SOL    HW124761   6.035   4.776   3.829
 7954SOL    HW224762   5.882   4.741   3.876
 7955SOL     OW24763   1.753   6.662   6.437
 7955SOL    HW124764   1.697   6.745   6.443
 7955SOL    HW224765   1.705   6.593   6.383
 7956SOL     OW24766   5.554   5.623   3.087
 7956SOL    HW124767   5.581   5.674   3.168
 7956SOL    HW224768   5.526   5.687   3.015
 7957SOL     OW24769   2.041   2.772   0.618
 7957SOL    HW124770   2.126   2.744   0.664
 7957SOL    HW224771   2.028   2.870   0.630
 7958SOL     OW24772   2.076   5.358   3.711
 7958SOL    HW124773   2.040   5.448   3.687
 7958SOL    HW224774   2.077   5.347   3.811
 7959SOL     OW24775   4.667   5.417   2.064
 7959SOL    HW124776   4.748   5.420   2.122
 7959SOL    HW224777   4.672   5.337   2.004
 7960SOL     OW24778   1.601   2.249   1.455
 7960SOL    HW124779   1.571   2.340   1.425
 7960SOL    HW224780   1.692   2.255   1.495
 7961SOL     OW24781   1.119   6.171   0.571
 7961SOL    HW124782   1.195   6.157   0.634
 7961SOL    HW224783   1.078   6.083   0.547
 7962SOL     OW24784   1.584   0.064   2.693
 7962SOL    HW124785   1.644   0.142   2.675
 7962SOL    HW224786   1.602   7.013   2.626
 7963SOL     OW24787   0.093   6.070   6.199
 7963SOL    HW124788   0.071   5.973   6.195
 7963SOL    HW224789   0.057   6.116   6.118
 7964SOL     OW24790   5.982   5.585   3.189
 7964SOL    HW124791   5.959   5.596   3.092
 7964SOL    HW224792   5.990   5.488   3.211
 7965SOL     OW24793   3.919   1.486   0.661
 7965SOL    HW124794   3.854   1.552   0.622
 7965SOL    HW224795   3.940   1.416   0.593
 7966SOL     OW24796   0.214   1.334   4.435
 7966SOL    HW124797   0.215   1.296   4.343
 7966SOL    HW224798   0.181   1.429   4.432
 7967SOL     OW24799   2.523   0.825   3.802
 7967SOL    HW124800   2.496   0.743   3.752
 7967SOL    HW224801   2.507   0.906   3.744
 7968SOL     OW24802   2.176   1.149   0.618
 7968SOL    HW124803   2.276   1.151   0.611
 7968SOL    HW224804   2.147   1.065   0.662
 7969SOL     OW24805   3.489   1.648   3.585
 7969SOL    HW124806   3.541   1.563   3.578
 7969SOL    HW224807   3.469   1.668   3.681
 7970SOL     OW24808   0.503   4.452   3.191
 7970SOL    HW124809   0.441   4.523   3.223
 7970SOL    HW224810   0.570   4.491   3.128
 7971SOL     OW24811   3.198   2.079   2.491
 7971SOL    HW124812   3.286   2.105   2.451
 7971SOL    HW224813   3.214   2.027   2.575
 7972SOL     OW24814   5.509   6.062   1.616
 7972SOL    HW124815   5.533   6.152   1.579
 7972SOL    HW224816   5.494   6.069   1.714
 7973SOL     OW24817   5.506   1.688   3.024
 7973SOL    HW124818   5.489   1.674   2.927
 7973SOL    HW224819   5.492   1.785   3.047
 7974SOL     OW24820   4.760   6.095   4.831
 7974SOL    HW124821   4.668   6.065   4.808
 7974SOL    HW224822   4.785   6.059   4.921
 7975SOL     OW24823   2.048   1.502   2.129
 7975SOL    HW124824   1.992   1.583   2.148
 7975SOL    HW224825   2.137   1.531   2.094
 7976SOL     OW24826   0.588   0.196   6.439
 7976SOL    HW124827   0.632   0.109   6.460
 7976SOL    HW224828   0.554   0.195   6.345
 7977SOL     OW24829   4.961   6.053   1.208
 7977SOL    HW124830   4.871   6.016   1.230
 7977SOL    HW224831   4.967   6.070   1.109
 7978SOL     OW24832   2.930   1.808   6.057
 7978SOL    HW124833   2.877   1.882   6.099
 7978SOL    HW224834   2.941   1.734   6.122
 7979SOL     OW24835   4.834   5.509   4.405
 7979SOL    HW124836   4.828   5.448   4.325
 7979SOL    HW224837   4.879   5.460   4.480
 7980SOL     OW24838   2.739   0.724   2.038
 7980SOL    HW124839   2.652   0.747   2.083
 7980SOL    HW224840   2.796   0.672   2.101
 7981SOL     OW24841   0.630   6.570   2.320
 7981SOL    HW124842   0.585   6.581   2.408
 7981SOL    HW224843   0.720   6.613   2.322
 7982SOL     OW24844   0.490   3.351   1.201
 7982SOL    HW124845   0.588   3.336   1.195
 7982SOL    HW224846   0.471   3.433   1.256
 7983SOL     OW24847   5.539   2.239   0.758
 7983SOL    HW124848   5.597   2.197   0.687
 7983SOL    HW224849   5.457   2.183   0.770
 7984SOL     OW24850   6.165   0.673   0.753
 7984SOL    HW124851   6.250   0.624   0.737
 7984SOL    HW224852   6.146   0.734   0.676
 7985SOL     OW24853   1.001   1.183   0.785
 7985SOL    HW124854   1.021   1.216   0.878
 7985SOL    HW224855   0.920   1.230   0.750
 7986SOL     OW24856   4.734   3.678   0.759
 7986SOL    HW124857   4.722   3.611   0.685
 7986SOL    HW224858   4.708   3.769   0.726
 7987SOL     OW24859   0.699   3.663   4.905
 7987SOL    HW124860   0.710   3.569   4.872
 7987SOL    HW224861   0.631   3.710   4.849
 7988SOL     OW24862   2.619   1.053   5.267
 7988SOL    HW124863   2.665   1.052   5.356
 7988SOL    HW224864   2.599   0.960   5.238
 7989SOL     OW24865   3.659   3.602   6.848
 7989SOL    HW124866   3.571   3.554   6.843
 7989SOL    HW224867   3.652   3.691   6.804
 7990SOL     OW24868   2.347   2.773   4.375
 7990SOL    HW124869   2.317   2.858   4.418
 7990SOL    HW224870   2.385   2.793   4.285
 7991SOL     OW24871   2.278   3.077   5.891
 7991SOL    HW124872   2.219   3.153   5.864
 7991SOL    HW224873   2.373   3.107   5.889
 7992SOL     OW24874   2.806   1.502   0.473
 7992SOL    HW124875   2.784   1.594   0.439
 7992SOL    HW224876   2.737   1.437   0.439
 7993SOL     OW24877   2.554   5.610   6.338
 7993SOL    HW124878   2.514   5.523   6.310
 7993SOL    HW224879   2.484   5.665   6.385
 7994SOL     OW24880   5.828   0.147   4.890
 7994SOL    HW124881   5.914   0.099   4.871
 7994SOL    HW224882   5.848   0.238   4.927
 7995SOL     OW24883   4.471   5.127   2.502
 7995SOL    HW124884   4.520   5.097   2.420
 7995SOL    HW224885   4.493   5.066   2.578
 7996SOL     OW24886   4.350   1.667   5.565
 7996SOL    HW124887   4.392   1.757   5.556
 7996SOL    HW224888   4.314   1.637   5.477
 7997SOL     OW24889   5.412   3.095   0.769
 7997SOL    HW124890   5.497   3.147   0.764
 7997SOL    HW224891   5.344   3.148   0.820
 7998SOL     OW24892   6.671   5.219   6.419
 7998SOL    HW124893   6.715   5.135   6.452
 7998SOL    HW224894   6.605   5.195   6.347
 7999SOL     OW24895   2.676   2.658   5.616
 7999SOL    HW124896   2.650   2.751   5.590
 7999SOL    HW224897   2.621   2.630   5.695
 8000SOL     OW24898   4.751   0.209   5.814
 8000SOL    HW124899   4.697   0.186   5.895
 8000SOL    HW224900   4.735   0.305   5.789
 8001SOL     OW24901   2.483   4.711   0.459
 8001SOL    HW124902   2.428   4.688   0.379
 8001SOL    HW224903   2.507   4.808   0.457
 8002SOL     OW24904   4.572   1.799   5.766
 8002SOL    HW124905   4.540   1.707   5.743
 8002SOL    HW224906   4.578   1.808   5.866
 8003SOL     OW24907   4.739   5.401   3.419
 8003SOL    HW124908   4.759   5.497   3.401
 8003SOL    HW224909   4.748   5.349   3.334
 8004SOL     OW24910   1.176   4.102   3.410
 8004SOL    HW124911   1.269   4.131   3.432
 8004SOL    HW224912   1.138   4.161   3.339
 8005SOL     OW24913   1.861   1.082   2.661
 8005SOL    HW124914   1.927   1.011   2.687
 8005SOL    HW224915   1.910   1.160   2.623
 8006SOL     OW24916   4.279   5.668   2.282
 8006SOL    HW124917   4.314   5.685   2.190
 8006SOL    HW224918   4.263   5.570   2.294
 8007SOL     OW24919   0.446   1.197   3.989
 8007SOL    HW124920   0.423   1.130   4.060
 8007SOL    HW224921   0.363   1.229   3.944
 8008SOL     OW24922   5.732   5.216   1.566
 8008SOL    HW124923   5.733   5.214   1.666
 8008SOL    HW224924   5.689   5.133   1.531
 8009SOL     OW24925   6.626   6.536   2.843
 8009SOL    HW124926   6.681   6.485   2.777
 8009SOL    HW224927   6.562   6.595   2.794
 8010SOL     OW24928   2.141   2.259   6.929
 8010SOL    HW124929   2.202   2.183   6.954
 8010SOL    HW224930   2.096   2.294   7.011
 8011SOL     OW24931   2.341   2.941   0.053
 8011SOL    HW124932   2.400   2.974   0.127
 8011SOL    HW224933   2.383   2.965   6.986
 8012SOL     OW24934   2.187   6.272   3.350
 8012SOL    HW124935   2.215   6.357   3.394
 8012SOL    HW224936   2.145   6.212   3.418
 8013SOL     OW24937   6.485   5.361   5.025
 8013SOL    HW124938   6.406   5.303   5.048
 8013SOL    HW224939   6.472   5.399   4.934
 8014SOL     OW24940   2.794   0.354   6.635
 8014SOL    HW124941   2.830   0.445   6.616
 8014SOL    HW224942   2.858   0.285   6.601
 8015SOL     OW24943   1.111   1.861   0.365
 8015SOL    HW124944   1.108   1.947   0.314
 8015SOL    HW224945   1.040   1.861   0.435
 8016SOL     OW24946   4.069   5.959   2.008
 8016SOL    HW124947   3.971   5.968   1.987
 8016SOL    HW224948   4.085   5.981   2.104
 8017SOL     OW24949   6.630   3.729   5.719
 8017SOL    HW124950   6.534   3.708   5.701
 8017SOL    HW224951   6.679   3.645   5.741
 8018SOL     OW24952   4.811   2.951   3.764
 8018SOL    HW124953   4.790   2.865   3.718
 8018SOL    HW224954   4.850   3.015   3.698
 8019SOL     OW24955   3.150   5.312   1.016
 8019SOL    HW124956   3.190   5.372   1.085
 8019SOL    HW224957   3.107   5.234   1.061
 8020SOL     OW24958   5.413   6.933   6.436
 8020SOL    HW124959   5.492   6.893   6.389
 8020SOL    HW224960   5.361   6.989   6.371
 8021SOL     OW24961   6.375   1.199   1.325
 8021SOL    HW124962   6.334   1.199   1.416
 8021SOL    HW224963   6.475   1.196   1.333
 8022SOL     OW24964   5.354   4.992   3.837
 8022SOL    HW124965   5.384   5.066   3.776
 8022SOL    HW224966   5.255   4.983   3.831
 8023SOL     OW24967   0.368   5.542   3.576
 8023SOL    HW124968   0.374   5.553   3.675
 8023SOL    HW224969   0.279   5.574   3.544
 8024SOL     OW24970   4.265   5.540   4.172
 8024SOL    HW124971   4.212   5.468   4.128
 8024SOL    HW224972   4.333   5.500   4.233
 8025SOL     OW24973   3.139   6.047   0.652
 8025SOL    HW124974   3.114   6.007   0.564
 8025SOL    HW224975   3.234   6.079   0.648
 8026SOL     OW24976   2.241   2.205   6.573
 8026SOL    HW124977   2.237   2.304   6.555
 8026SOL    HW224978   2.323   2.184   6.626
 8027SOL     OW24979   4.517   2.973   5.312
 8027SOL    HW124980   4.423   2.993   5.339
 8027SOL    HW224981   4.578   2.990   5.388
 8028SOL     OW24982   6.326   5.534   0.791
 8028SOL    HW124983   6.381   5.535   0.708
 8028SOL    HW224984   6.321   5.441   0.827
 8029SOL     OW24985   3.274   4.309   5.936
 8029SOL    HW124986   3.316   4.220   5.955
 8029SOL    HW224987   3.306   4.376   6.004
 8030SOL     OW24988   0.010   3.439   1.257
 8030SOL    HW124989   0.093   3.386   1.274
 8030SOL    HW224990   0.031   3.536   1.258
 8031SOL     OW24991   4.098   6.304   0.777
 8031SOL    HW124992   4.016   6.360   0.764
 8031SOL    HW224993   4.099   6.231   0.709
 8032SOL     OW24994   4.717   3.719   5.755
 8032SOL    HW124995   4.625   3.730   5.794
 8032SOL    HW224996   4.714   3.651   5.682
 8033SOL     OW24997   6.355   1.298   1.804
 8033SOL    HW124998   6.305   1.352   1.872
 8033SOL    HW224999   6.378   1.355   1.726
 8034SOL     OW25000   6.455   1.886   5.616
 8034SOL    HW125001   6.441   1.985   5.613
 8034SOL    HW225002   6.450   1.849   5.523
 8035SOL     OW25003   5.622   6.047   5.811
 8035SOL    HW125004   5.589   6.128   5.861
 8035SOL    HW225005   5.661   5.982   5.876
 8036SOL     OW25006   1.664   4.618   1.311
 8036SOL    HW125007   1.711   4.638   1.397
 8036SOL    HW225008   1.575   4.577   1.331
 8037SOL     OW25009   2.351   2.960   1.641
 8037SOL    HW125010   2.331   2.913   1.727
 8037SOL    HW225011   2.364   3.058   1.659
 8038SOL     OW25012   5.751   1.296   4.076
 8038SOL    HW125013   5.684   1.368   4.057
 8038SOL    HW225014   5.708   1.223   4.129
 8039SOL     OW25015   2.179   5.878   3.417
 8039SOL    HW125016   2.143   5.815   3.348
 8039SOL    HW225017   2.238   5.827   3.481
 8040SOL     OW25018   5.975   6.224   6.587
 8040SOL    HW125019   5.901   6.192   6.646
 8040SOL    HW225020   6.017   6.305   6.628
 8041SOL     OW25021   3.368   2.678   1.198
 8041SOL    HW125022   3.360   2.578   1.197
 8041SOL    HW225023   3.463   2.703   1.214
 8042SOL     OW25024   2.060   4.976   6.694
 8042SOL    HW125025   2.124   4.913   6.739
 8042SOL    HW225026   2.099   5.007   6.607
 8043SOL     OW25027   3.147   0.717   1.021
 8043SOL    HW125028   3.223   0.778   0.996
 8043SOL    HW225029   3.176   0.655   1.093
 8044SOL     OW25030   3.151   3.006   2.066
 8044SOL    HW125031   3.174   2.959   2.151
 8044SOL    HW225032   3.055   3.032   2.067
 8045SOL     OW25033   6.262   2.935   3.700
 8045SOL    HW125034   6.337   2.898   3.754
 8045SOL    HW225035   6.299   2.995   3.629
 8046SOL     OW25036   6.630   5.617   5.165
 8046SOL    HW125037   6.588   5.528   5.152
 8046SOL    HW225038   6.589   5.683   5.102
 8047SOL     OW25039   2.686   0.230   4.375
 8047SOL    HW125040   2.657   0.266   4.463
 8047SOL    HW225041   2.719   0.136   4.386
 8048SOL     OW25042   5.368   0.055   5.577
 8048SOL    HW125043   5.302   0.105   5.634
 8048SOL    HW225044   5.320   0.012   5.501
 8049SOL     OW25045   2.018   0.133   6.999
 8049SOL    HW125046   2.041   0.226   6.970
 8049SOL    HW225047   1.954   0.092   6.934
 8050SOL     OW25048   0.286   3.234   1.978
 8050SOL    HW125049   0.351   3.210   1.906
 8050SOL    HW225050   0.329   3.296   2.043
 8051SOL     OW25051   2.464   2.030   4.234
 8051SOL    HW125052   2.544   2.090   4.229
 8051SOL    HW225053   2.459   1.975   4.151
 8052SOL     OW25054   4.154   1.758   2.764
 8052SOL    HW125055   4.249   1.773   2.738
 8052SOL    HW225056   4.116   1.843   2.801
 8053SOL     OW25057   4.451   3.498   1.577
 8053SOL    HW125058   4.474   3.406   1.608
 8053SOL    HW225059   4.359   3.522   1.609
 8054SOL     OW25060   4.879   5.915   4.621
 8054SOL    HW125061   4.826   5.963   4.690
 8054SOL    HW225062   4.830   5.832   4.594
 8055SOL     OW25063   1.662   0.015   5.178
 8055SOL    HW125064   1.578   6.984   5.163
 8055SOL    HW225065   1.741   6.979   5.154
 8056SOL     OW25066   4.456   1.019   2.446
 8056SOL    HW125067   4.534   1.025   2.509
 8056SOL    HW225068   4.394   1.095   2.463
 8057SOL     OW25069   3.584   6.773   3.832
 8057SOL    HW125070   3.569   6.674   3.828
 8057SOL    HW225071   3.502   6.819   3.867
 8058SOL     OW25072   1.850   0.175   3.047
 8058SOL    HW125073   1.868   0.138   3.137
 8058SOL    HW225074   1.830   0.273   3.055
 8059SOL     OW25075   1.553   1.263   3.895
 8059SOL    HW125076   1.574   1.345   3.947
 8059SOL    HW225077   1.611   1.260   3.813
 8060SOL     OW25078   0.536   2.640   5.231
 8060SOL    HW125079   0.609   2.655   5.298
 8060SOL    HW225080   0.508   2.729   5.193
 8061SOL     OW25081   5.782   6.608   3.552
 8061SOL    HW125082   5.734   6.554   3.622
 8061SOL    HW225083   5.752   6.579   3.461
 8062SOL     OW25084   1.456   2.588   1.648
 8062SOL    HW125085   1.454   2.569   1.550
 8062SOL    HW225086   1.533   2.539   1.690
 8063SOL     OW25087   2.341   2.835   5.673
 8063SOL    HW125088   2.293   2.873   5.594
 8063SOL    HW225089   2.297   2.866   5.757
 8064SOL     OW25090   6.010   2.610   5.295
 8064SOL    HW125091   6.089   2.618   5.234
 8064SOL    HW225092   5.987   2.514   5.307
 8065SOL     OW25093   4.251   0.284   6.407
 8065SOL    HW125094   4.236   0.246   6.498
 8065SOL    HW225095   4.341   0.328   6.404
 8066SOL     OW25096   1.511   0.248   1.705
 8066SOL    HW125097   1.431   0.262   1.763
 8066SOL    HW225098   1.571   0.328   1.710
 8067SOL     OW25099   4.645   2.097   2.772
 8067SOL    HW125100   4.651   2.196   2.762
 8067SOL    HW225101   4.549   2.071   2.781
 8068SOL     OW25102   6.915   4.357   4.244
 8068SOL    HW125103   6.908   4.281   4.179
 8068SOL    HW225104   7.010   4.367   4.275
 8069SOL     OW25105   0.593   6.585   2.002
 8069SOL    HW125106   0.562   6.549   2.090
 8069SOL    HW225107   0.513   6.613   1.948
 8070SOL     OW25108   3.573   0.555   2.453
 8070SOL    HW125109   3.614   0.613   2.523
 8070SOL    HW225110   3.565   0.461   2.487
 8071SOL     OW25111   5.449   4.483   0.229
 8071SOL    HW125112   5.522   4.418   0.250
 8071SOL    HW225113   5.488   4.568   0.194
 8072SOL     OW25114   4.042   0.445   3.630
 8072SOL    HW125115   4.075   0.535   3.602
 8072SOL    HW225116   3.958   0.454   3.682
 8073SOL     OW25117   5.001   7.000   6.192
 8073SOL    HW125118   4.966   0.040   6.263
 8073SOL    HW225119   5.092   0.009   6.165
 8074SOL     OW25120   3.301   4.175   6.959
 8074SOL    HW125121   3.204   4.199   6.955
 8074SOL    HW225122   3.333   4.150   6.867
 8075SOL     OW25123   6.408   1.585   4.265
 8075SOL    HW125124   6.341   1.554   4.197
 8075SOL    HW225125   6.498   1.548   4.241
 8076SOL     OW25126   4.986   3.135   6.806
 8076SOL    HW125127   4.992   3.071   6.883
 8076SOL    HW225128   5.075   3.144   6.763
 8077SOL     OW25129   0.995   0.798   6.915
 8077SOL    HW125130   1.006   0.849   7.000
 8077SOL    HW225131   1.025   0.703   6.929
 8078SOL     OW25132   5.837   3.562   1.252
 8078SOL    HW125133   5.812   3.657   1.233
 8078SOL    HW225134   5.765   3.502   1.215
 8079SOL     OW25135   1.794   2.655   0.691
 8079SOL    HW125136   1.885   2.679   0.659
 8079SOL    HW225137   1.748   2.735   0.728
 8080SOL     OW25138   4.046   4.889   0.181
 8080SOL    HW125139   4.048   4.913   0.278
 8080SOL    HW225140   4.090   4.961   0.128
 8081SOL     OW25141   5.709   2.460   4.416
 8081SOL    HW125142   5.670   2.551   4.404
 8081SOL    HW225143   5.651   2.392   4.372
 8082SOL     OW25144   6.730   3.508   4.983
 8082SOL    HW125145   6.805   3.442   4.985
 8082SOL    HW225146   6.646   3.462   4.952
 8083SOL     OW25147   5.678   1.832   4.907
 8083SOL    HW125148   5.765   1.856   4.951
 8083SOL    HW225149   5.679   1.865   4.812
 8084SOL     OW25150   6.001   0.227   0.211
 8084SOL    HW125151   5.907   0.220   0.244
 8084SOL    HW225152   6.057   0.269   0.282
 8085SOL     OW25153   5.066   1.994   0.897
 8085SOL    HW125154   5.077   1.918   0.961
 8085SOL    HW225155   4.982   2.044   0.917
 8086SOL     OW25156   2.674   5.053   5.961
 8086SOL    HW125157   2.587   5.016   5.995
 8086SOL    HW225158   2.726   5.091   6.038
 8087SOL     OW25159   2.377   3.775   0.553
 8087SOL    HW125160   2.281   3.753   0.571
 8087SOL    HW225161   2.383   3.830   0.470
 8088SOL     OW25162   4.554   0.243   3.388
 8088SOL    HW125163   4.486   0.290   3.331
 8088SOL    HW225164   4.508   0.175   3.444
 8089SOL     OW25165   6.880   2.850   0.514
 8089SOL    HW125166   6.784   2.873   0.525
 8089SOL    HW225167   6.901   2.836   0.417
 8090SOL     OW25168   4.645   1.392   5.133
 8090SOL    HW125169   4.712   1.330   5.174
 8090SOL    HW225170   4.563   1.341   5.108
 8091SOL     OW25171   1.705   3.799   5.447
 8091SOL    HW125172   1.749   3.798   5.536
 8091SOL    HW225173   1.625   3.859   5.450
 8092SOL     OW25174   6.338   1.876   4.320
 8092SOL    HW125175   6.346   1.778   4.340
 8092SOL    HW225176   6.427   1.913   4.296
 8093SOL     OW25177   6.045   5.480   0.752
 8093SOL    HW125178   6.037   5.423   0.834
 8093SOL    HW225179   6.118   5.546   0.764
 8094SOL     OW25180   0.346   3.136   3.941
 8094SOL    HW125181   0.360   3.223   3.990
 8094SOL    HW225182   0.373   3.147   3.846
 8095SOL     OW25183   6.459   3.117   5.355
 8095SOL    HW125184   6.524   3.152   5.288
 8095SOL    HW225185   6.454   3.017   5.347
 8096SOL     OW25186   4.439   0.493   0.475
 8096SOL    HW125187   4.405   0.520   0.385
 8096SOL    HW225188   4.384   0.537   0.546
 8097SOL     OW25189   4.605   1.995   3.876
 8097SOL    HW125190   4.552   2.060   3.822
 8097SOL    HW225191   4.597   1.903   3.836
 8098SOL     OW25192   2.043   2.379   3.889
 8098SOL    HW125193   1.954   2.394   3.933
 8098SOL    HW225194   2.116   2.407   3.950
 8099SOL     OW25195   3.889   6.867   4.225
 8099SOL    HW125196   3.917   6.778   4.261
 8099SOL    HW225197   3.939   6.885   4.140
 8100SOL     OW25198   6.580   6.353   1.431
 8100SOL    HW125199   6.530   6.414   1.494
 8100SOL    HW225200   6.519   6.278   1.403
 8101SOL     OW25201   0.985   4.830   2.056
 8101SOL    HW125202   0.952   4.812   1.963
 8101SOL    HW225203   0.976   4.747   2.111
 8102SOL     OW25204   6.982   7.016   5.380
 8102SOL    HW125205   6.998   7.009   5.281
 8102SOL    HW225206   6.912   6.949   5.407
 8103SOL     OW25207   2.633   2.384   2.538
 8103SOL    HW125208   2.690   2.362   2.459
 8103SOL    HW225209   2.678   2.351   2.621
 8104SOL     OW25210   2.670   6.906   5.797
 8104SOL    HW125211   2.651   6.983   5.859
 8104SOL    HW225212   2.736   6.935   5.728
 8105SOL     OW25213   2.310   2.306   2.901
 8105SOL    HW125214   2.240   2.374   2.921
 8105SOL    HW225215   2.340   2.317   2.807
 8106SOL     OW25216   0.653   3.671   5.665
 8106SOL    HW125217   0.683   3.592   5.717
 8106SOL    HW225218   0.563   3.701   5.698
 8107SOL     OW25219   0.993   5.255   6.971
 8107SOL    HW125220   1.032   5.287   6.885
 8107SOL    HW225221   1.030   5.165   6.993
 8108SOL     OW25222   2.381   2.779   6.503
 8108SOL    HW125223   2.477   2.797   6.483
 8108SOL    HW225224   2.324   2.855   6.470
 8109SOL     OW25225   0.890   5.585   5.140
 8109SOL    HW125226   0.830   5.527   5.195
 8109SOL    HW225227   0.913   5.667   5.192
 8110SOL     OW25228   1.294   5.033   0.480
 8110SOL    HW125229   1.204   5.047   0.440
 8110SOL    HW225230   1.344   4.963   0.428
 8111SOL     OW25231   3.218   6.222   4.070
 8111SOL    HW125232   3.234   6.301   4.129
 8111SOL    HW225233   3.299   6.162   4.072
 8112SOL     OW25234   3.807   1.231   3.993
 8112SOL    HW125235   3.720   1.201   4.031
 8112SOL    HW225236   3.858   1.282   4.062
 8113SOL     OW25237   2.910   2.349   5.704
 8113SOL    HW125238   2.855   2.398   5.637
 8113SOL    HW225239   2.986   2.407   5.734
 8114SOL     OW25240   3.253   3.919   1.180
 8114SOL    HW125241   3.280   3.988   1.247
 8114SOL    HW225242   3.194   3.852   1.224
 8115SOL     OW25243   4.126   2.933   1.249
 8115SOL    HW125244   4.199   2.882   1.295
 8115SOL    HW225245   4.166   3.010   1.199
 8116SOL     OW25246   5.512   1.695   5.757
 8116SOL    HW125247   5.520   1.677   5.659
 8116SOL    HW225248   5.573   1.634   5.807
 8117SOL     OW25249   2.815   2.700   5.375
 8117SOL    HW125250   2.743   2.754   5.332
 8117SOL    HW225251   2.787   2.674   5.467
 8118SOL     OW25252   0.959   1.614   4.275
 8118SOL    HW125253   1.020   1.693   4.274
 8118SOL    HW225254   0.971   1.561   4.191
 8119SOL     OW25255   1.279   6.933   2.694
 8119SOL    HW125256   1.188   6.967   2.716
 8119SOL    HW225257   1.303   6.959   2.601
 8120SOL     OW25258   4.783   4.208   2.390
 8120SOL    HW125259   4.740   4.270   2.456
 8120SOL    HW225260   4.802   4.120   2.435
 8121SOL     OW25261   6.848   5.646   3.492
 8121SOL    HW125262   6.758   5.627   3.452
 8121SOL    HW225263   6.918   5.637   3.421
 8122SOL     OW25264   0.075   5.180   1.874
 8122SOL    HW125265   0.130   5.122   1.935
 8122SOL    HW225266   0.100   5.276   1.886
 8123SOL     OW25267   1.298   5.362   6.311
 8123SOL    HW125268   1.381   5.415   6.328
 8123SOL    HW225269   1.289   5.291   6.380
 8124SOL     OW25270   1.830   5.874   2.628
 8124SOL    HW125271   1.802   5.928   2.708
 8124SOL    HW225272   1.850   5.780   2.656
 8125SOL     OW25273   5.124   5.172   3.563
 8125SOL    HW125274   5.110   5.102   3.492
 8125SOL    HW225275   5.210   5.220   3.546
 8126SOL     OW25276   0.484   4.891   1.600
 8126SOL    HW125277   0.438   4.877   1.512
 8126SOL    HW225278   0.442   4.967   1.648
 8127SOL     OW25279   4.397   5.206   1.015
 8127SOL    HW125280   4.366   5.114   0.988
 8127SOL    HW225281   4.446   5.200   1.102
 8128SOL     OW25282   3.919   2.186   5.276
 8128SOL    HW125283   3.912   2.278   5.314
 8128SOL    HW225284   3.837   2.166   5.221
 8129SOL     OW25285   4.582   5.817   6.641
 8129SOL    HW125286   4.670   5.772   6.628
 8129SOL    HW225287   4.564   5.877   6.563
 8130SOL     OW25288   0.349   0.677   6.086
 8130SOL    HW125289   0.361   0.638   6.177
 8130SOL    HW225290   0.277   0.626   6.038
 8131SOL     OW25291   2.514   1.816   1.709
 8131SOL    HW125292   2.508   1.717   1.719
 8131SOL    HW225293   2.437   1.859   1.756
 8132SOL     OW25294   5.650   4.427   3.418
 8132SOL    HW125295   5.706   4.347   3.396
 8132SOL    HW225296   5.561   4.419   3.373
 8133SOL     OW25297   0.418   5.650   2.499
 8133SOL    HW125298   0.451   5.608   2.415
 8133SOL    HW225299   0.450   5.598   2.578
 8134SOL     OW25300   3.159   3.455   1.523
 8134SOL    HW125301   3.062   3.478   1.516
 8134SOL    HW225302   3.171   3.381   1.590
 8135SOL     OW25303   4.227   6.299   2.250
 8135SOL    HW125304   4.317   6.256   2.260
 8135SOL    HW225305   4.157   6.229   2.235
 8136SOL     OW25306   2.817   5.612   1.664
 8136SOL    HW125307   2.745   5.607   1.732
 8136SOL    HW225308   2.837   5.520   1.629
 8137SOL     OW25309   3.153   4.189   5.485
 8137SOL    HW125310   3.105   4.214   5.401
 8137SOL    HW225311   3.156   4.268   5.547
 8138SOL     OW25312   4.215   1.007   3.378
 8138SOL    HW125313   4.161   0.943   3.323
 8138SOL    HW225314   4.289   1.045   3.323
 8139SOL     OW25315   1.814   3.158   5.831
 8139SOL    HW125316   1.759   3.213   5.768
 8139SOL    HW225317   1.856   3.082   5.781
 8140SOL     OW25318   5.520   1.853   1.225
 8140SOL    HW125319   5.596   1.900   1.181
 8140SOL    HW225320   5.554   1.774   1.277
 8141SOL     OW25321   5.689   1.146   5.453
 8141SOL    HW125322   5.750   1.156   5.375
 8141SOL    HW225323   5.596   1.126   5.422
 8142SOL     OW25324   3.916   5.891   0.378
 8142SOL    HW125325   3.917   5.837   0.463
 8142SOL    HW225326   3.948   5.834   0.302
 8143SOL     OW25327   5.697   5.132   0.014
 8143SOL    HW125328   5.655   5.079   0.088
 8143SOL    HW225329   5.633   5.203   7.005
 8144SOL     OW25330   1.778   5.613   6.162
 8144SOL    HW125331   1.854   5.597   6.099
 8144SOL    HW225332   1.804   5.585   6.254
 8145SOL     OW25333   5.096   5.681   5.114
 8145SOL    HW125334   5.120   5.719   5.203
 8145SOL    HW225335   5.007   5.636   5.120
 8146SOL     OW25336   6.897   6.167   5.085
 8146SOL    HW125337   6.799   6.157   5.071
 8146SOL    HW225338   6.915   6.189   5.181
 8147SOL     OW25339   2.376   6.733   4.620
 8147SOL    HW125340   2.433   6.696   4.693
 8147SOL    HW225341   2.298   6.672   4.603
 8148SOL     OW25342   5.338   4.410   0.703
 8148SOL    HW125343   5.284   4.455   0.774
 8148SOL    HW225344   5.425   4.458   0.692
 8149SOL     OW25345   1.611   6.644   4.988
 8149SOL    HW125346   1.688   6.667   4.927
 8149SOL    HW225347   1.625   6.687   5.077
 8150SOL     OW25348   0.223   4.368   0.930
 8150SOL    HW125349   0.129   4.362   0.961
 8150SOL    HW225350   0.240   4.300   0.859
 8151SOL     OW25351   6.138   3.943   2.209
 8151SOL    HW125352   6.099   4.029   2.241
 8151SOL    HW225353   6.171   3.955   2.115
 8152SOL     OW25354   5.130   2.137   4.071
 8152SOL    HW125355   5.040   2.100   4.049
 8152SOL    HW225356   5.195   2.062   4.083
 8153SOL     OW25357   0.440   1.875   1.045
 8153SOL    HW125358   0.361   1.835   0.998
 8153SOL    HW225359   0.473   1.954   0.993
 8154SOL     OW25360   6.992   0.578   3.591
 8154SOL    HW125361   0.057   0.576   3.541
 8154SOL    HW225362   7.008   0.612   3.684
 8155SOL     OW25363   1.121   5.189   4.556
 8155SOL    HW125364   1.049   5.129   4.522
 8155SOL    HW225365   1.208   5.139   4.558
 8156SOL     OW25366   1.219   3.957   0.371
 8156SOL    HW125367   1.231   3.952   0.470
 8156SOL    HW225368   1.122   3.968   0.349
 8157SOL     OW25369   6.232   4.466   5.154
 8157SOL    HW125370   6.310   4.441   5.211
 8157SOL    HW225371   6.160   4.397   5.162
 8158SOL     OW25372   6.224   5.321   6.126
 8158SOL    HW125373   6.151   5.302   6.061
 8158SOL    HW225374   6.186   5.364   6.208
 8159SOL     OW25375   1.815   6.521   5.226
 8159SOL    HW125376   1.803   6.469   5.141
 8159SOL    HW225377   1.888   6.479   5.280
 8160SOL     OW25378   5.298   3.026   2.865
 8160SOL    HW125379   5.229   3.022   2.792
 8160SOL    HW225380   5.353   2.943   2.864
 8161SOL     OW25381   0.454   2.372   1.044
 8161SOL    HW125382   0.520   2.421   1.101
 8161SOL    HW225383   0.501   2.335   0.963
 8162SOL     OW25384   0.267   5.910   5.019
 8162SOL    HW125385   0.172   5.934   5.003
 8162SOL    HW225386   0.300   5.851   4.945
 8163SOL     OW25387   3.183   4.904   5.670
 8163SOL    HW125388   3.146   4.970   5.735
 8163SOL    HW225389   3.257   4.945   5.618
 8164SOL     OW25390   5.377   1.922   0.128
 8164SOL    HW125391   5.328   1.932   0.215
 8164SOL    HW225392   5.449   1.854   0.137
 8165SOL     OW25393   0.859   2.895   6.040
 8165SOL    HW125394   0.850   2.796   6.029
 8165SOL    HW225395   0.867   2.917   6.137
 8166SOL     OW25396   3.078   2.161   4.459
 8166SOL    HW125397   3.038   2.111   4.537
 8166SOL    HW225398   3.005   2.208   4.409
 8167SOL     OW25399   1.978   2.612   2.607
 8167SOL    HW125400   1.906   2.624   2.539
 8167SOL    HW225401   1.952   2.539   2.671
 8168SOL     OW25402   1.171   6.161   2.901
 8168SOL    HW125403   1.111   6.082   2.884
 8168SOL    HW225404   1.250   6.156   2.840
 8169SOL     OW25405   5.438   4.758   6.723
 8169SOL    HW125406   5.450   4.832   6.790
 8169SOL    HW225407   5.472   4.672   6.763
 8170SOL     OW25408   6.777   4.452   3.246
 8170SOL    HW125409   6.864   4.429   3.203
 8170SOL    HW225410   6.703   4.439   3.180
 8171SOL     OW25411   2.109   1.649   1.844
 8171SOL    HW125412   2.201   1.654   1.883
 8171SOL    HW225413   2.079   1.741   1.818
 8172SOL     OW25414   1.606   5.300   0.433
 8172SOL    HW125415   1.661   5.367   0.484
 8172SOL    HW225416   1.532   5.267   0.492
 8173SOL     OW25417   5.603   6.708   1.730
 8173SOL    HW125418   5.514   6.664   1.745
 8173SOL    HW225419   5.645   6.671   1.647
 8174SOL     OW25420   2.420   6.634   4.059
 8174SOL    HW125421   2.376   6.548   4.085
 8174SOL    HW225422   2.509   6.641   4.105
 8175SOL     OW25423   0.641   2.282   5.963
 8175SOL    HW125424   0.598   2.346   5.899
 8175SOL    HW225425   0.588   2.278   6.047
 8176SOL     OW25426   2.831   4.568   7.014
 8176SOL    HW125427   2.892   4.489   7.012
 8176SOL    HW225428   2.876   4.647   6.972
 8177SOL     OW25429   3.447   1.032   2.432
 8177SOL    HW125430   3.464   1.123   2.395
 8177SOL    HW225431   3.357   1.000   2.402
 8178SOL     OW25432   2.335   6.247   1.254
 8178SOL    HW125433   2.249   6.273   1.299
 8178SOL    HW225434   2.410   6.250   1.320
 8179SOL     OW25435   6.260   6.986   3.928
 8179SOL    HW125436   6.212   6.932   3.997
 8179SOL    HW225437   6.196   7.015   3.857
 8180SOL     OW25438   4.948   5.309   0.874
 8180SOL    HW125439   4.887   5.235   0.844
 8180SOL    HW225440   4.894   5.383   0.914
 8181SOL     OW25441   6.406   0.487   6.530
 8181SOL    HW125442   6.479   0.547   6.564
 8181SOL    HW225443   6.334   0.478   6.599
 8182SOL     OW25444   3.786   3.481   2.834
 8182SOL    HW125445   3.853   3.518   2.899
 8182SOL    HW225446   3.725   3.418   2.881
 8183SOL     OW25447   0.380   0.179   5.122
 8183SOL    HW125448   0.467   0.132   5.136
 8183SOL    HW225449   0.351   0.169   5.027
 8184SOL     OW25450   7.017   5.723   4.606
 8184SOL    HW125451   0.033   5.647   4.659
 8184SOL    HW225452   0.058   5.801   4.612
 8185SOL     OW25453   0.165   6.161   4.716
 8185SOL    HW125454   0.066   6.177   4.709
 8185SOL    HW225455   0.209   6.192   4.632
 8186SOL     OW25456   1.541   5.846   0.165
 8186SOL    HW125457   1.533   5.880   0.258
 8186SOL    HW225458   1.450   5.831   0.127
 8187SOL     OW25459   1.626   6.336   4.687
 8187SOL    HW125460   1.556   6.284   4.638
 8187SOL    HW225461   1.599   6.344   4.784
 8188SOL     OW25462   1.617   2.899   2.671
 8188SOL    HW125463   1.715   2.903   2.652
 8188SOL    HW225464   1.572   2.976   2.625
 8189SOL     OW25465   6.918   5.461   4.102
 8189SOL    HW125466   6.923   5.368   4.139
 8189SOL    HW225467   6.999   5.512   4.131
 8190SOL     OW25468   5.636   3.892   3.020
 8190SOL    HW125469   5.597   3.806   3.053
 8190SOL    HW225470   5.597   3.914   2.931
 8191SOL     OW25471   5.072   5.130   1.039
 8191SOL    HW125472   5.032   5.196   0.976
 8191SOL    HW225473   5.070   5.166   1.132
 8192SOL     OW25474   0.095   5.444   2.904
 8192SOL    HW125475   0.044   5.527   2.924
 8192SOL    HW225476   0.071   5.373   2.971
 8193SOL     OW25477   0.960   4.954   4.497
 8193SOL    HW125478   0.986   4.858   4.497
 8193SOL    HW225479   0.864   4.963   4.471
 8194SOL     OW25480   5.405   0.116   2.471
 8194SOL    HW125481   5.396   0.032   2.525
 8194SOL    HW225482   5.326   0.175   2.487
 8195SOL     OW25483   6.686   6.717   3.098
 8195SOL    HW125484   6.664   6.814   3.095
 8195SOL    HW225485   6.735   6.691   3.015
 8196SOL     OW25486   4.865   6.897   3.074
 8196SOL    HW125487   4.924   6.967   3.114
 8196SOL    HW225488   4.920   6.818   3.047
 8197SOL     OW25489   4.140   1.236   3.151
 8197SOL    HW125490   4.180   1.181   3.077
 8197SOL    HW225491   4.053   1.196   3.179
 8198SOL     OW25492   2.107   5.433   0.259
 8198SOL    HW125493   2.154   5.518   0.281
 8198SOL    HW225494   2.061   5.443   0.171
 8199SOL     OW25495   6.513   2.509   0.527
 8199SOL    HW125496   6.587   2.550   0.474
 8199SOL    HW225497   6.441   2.577   0.542
 8200SOL     OW25498   5.807   4.732   0.079
 8200SOL    HW125499   5.837   4.640   0.107
 8200SOL    HW225500   5.872   4.800   0.112
 8201SOL     OW25501   5.284   0.975   5.346
 8201SOL    HW125502   5.285   0.940   5.253
 8201SOL    HW225503   5.191   0.975   5.382
 8202SOL     OW25504   0.378   5.543   1.962
 8202SOL    HW125505   0.392   5.636   1.996
 8202SOL    HW225506   0.466   5.497   1.953
 8203SOL     OW25507   1.463   2.901   0.262
 8203SOL    HW125508   1.430   2.940   0.176
 8203SOL    HW225509   1.473   2.974   0.329
 8204SOL     OW25510   1.535   3.559   0.629
 8204SOL    HW125511   1.617   3.615   0.621
 8204SOL    HW225512   1.471   3.603   0.692
 8205SOL     OW25513   7.014   4.055   6.367
 8205SOL    HW125514   6.928   4.058   6.316
 8205SOL    HW225515   0.012   3.961   6.395
 8206SOL     OW25516   3.378   0.873   1.024
 8206SOL    HW125517   3.447   0.844   0.956
 8206SOL    HW225518   3.355   0.969   1.009
 8207SOL     OW25519   4.008   3.634   4.407
 8207SOL    HW125520   4.052   3.605   4.492
 8207SOL    HW225521   3.919   3.674   4.428
 8208SOL     OW25522   3.035   0.220   6.198
 8208SOL    HW125523   2.993   0.310   6.185
 8208SOL    HW225524   2.990   0.172   6.274
 8209SOL     OW25525   5.988   2.289   3.693
 8209SOL    HW125526   5.913   2.295   3.628
 8209SOL    HW225527   6.012   2.381   3.725
 8210SOL     OW25528   1.881   2.386   6.475
 8210SOL    HW125529   1.796   2.357   6.431
 8210SOL    HW225530   1.862   2.415   6.569
 8211SOL     OW25531   3.827   4.802   1.007
 8211SOL    HW125532   3.745   4.835   1.054
 8211SOL    HW225533   3.810   4.713   0.967
 8212SOL     OW25534   1.824   3.422   2.746
 8212SOL    HW125535   1.810   3.339   2.692
 8212SOL    HW225536   1.899   3.476   2.706
 8213SOL     OW25537   6.430   4.616   0.770
 8213SOL    HW125538   6.410   4.548   0.841
 8213SOL    HW225539   6.383   4.590   0.685
 8214SOL     OW25540   4.907   3.181   3.643
 8214SOL    HW125541   4.915   3.249   3.716
 8214SOL    HW225542   4.956   3.215   3.562
 8215SOL     OW25543   3.776   4.967   1.568
 8215SOL    HW125544   3.692   4.915   1.553
 8215SOL    HW225545   3.830   4.967   1.484
 8216SOL     OW25546   5.580   3.338   4.243
 8216SOL    HW125547   5.483   3.318   4.256
 8216SOL    HW225548   5.615   3.283   4.167
 8217SOL     OW25549   2.296   5.950   0.182
 8217SOL    HW125550   2.372   5.998   0.139
 8217SOL    HW225551   2.332   5.874   0.237
 8218SOL     OW25552   4.911   2.154   6.975
 8218SOL    HW125553   4.817   2.127   6.997
 8218SOL    HW225554   4.974   2.112   0.019
 8219SOL     OW25555   5.278   2.600   0.109
 8219SOL    HW125556   5.342   2.525   0.096
 8219SOL    HW225557   5.184   2.565   0.100
 8220SOL     OW25558   3.806   3.587   1.567
 8220SOL    HW125559   3.758   3.534   1.497
 8220SOL    HW225560   3.819   3.530   1.649
 8221SOL     OW25561   5.720   4.119   3.723
 8221SOL    HW125562   5.718   4.028   3.766
 8221SOL    HW225563   5.778   4.116   3.642
 8222SOL     OW25564   5.749   0.850   2.802
 8222SOL    HW125565   5.652   0.859   2.823
 8222SOL    HW225566   5.769   0.755   2.780
 8223SOL     OW25567   0.627   4.614   0.138
 8223SOL    HW125568   0.719   4.575   0.139
 8223SOL    HW225569   0.585   4.600   0.048
 8224SOL     OW25570   0.772   3.830   2.425
 8224SOL    HW125571   0.842   3.857   2.359
 8224SOL    HW225572   0.788   3.878   2.511
 8225SOL     OW25573   4.864   0.662   1.284
 8225SOL    HW125574   4.792   0.704   1.228
 8225SOL    HW225575   4.830   0.651   1.378
 8226SOL     OW25576   3.622   0.612   6.936
 8226SOL    HW125577   3.551   0.642   6.872
 8226SOL    HW225578   3.700   0.576   6.886
 8227SOL     OW25579   5.992   4.205   3.215
 8227SOL    HW125580   5.979   4.305   3.218
 8227SOL    HW225581   6.087   4.185   3.192
 8228SOL     OW25582   0.362   1.346   3.549
 8228SOL    HW125583   0.370   1.387   3.640
 8228SOL    HW225584   0.266   1.328   3.529
 8229SOL     OW25585   5.505   5.470   0.216
 8229SOL    HW125586   5.484   5.410   0.139
 8229SOL    HW225587   5.579   5.532   0.191
 8230SOL     OW25588   5.094   0.397   3.001
 8230SOL    HW125589   5.027   0.468   3.021
 8230SOL    HW225590   5.176   0.439   2.963
 8231SOL     OW25591   4.032   5.754   1.220
 8231SOL    HW125592   4.060   5.790   1.131
 8231SOL    HW225593   3.989   5.664   1.207
 8232SOL     OW25594   2.370   1.418   0.251
 8232SOL    HW125595   2.414   1.475   0.181
 8232SOL    HW225596   2.312   1.476   0.308
 8233SOL     OW25597   0.960   5.795   5.731
 8233SOL    HW125598   1.001   5.875   5.775
 8233SOL    HW225599   1.032   5.740   5.688
 8234SOL     OW25600   2.069   3.467   6.556
 8234SOL    HW125601   2.156   3.501   6.522
 8234SOL    HW225602   2.034   3.529   6.626
 8235SOL     OW25603   4.382   2.323   6.792
 8235SOL    HW125604   4.376   2.388   6.867
 8235SOL    HW225605   4.455   2.350   6.730
 8236SOL     OW25606   6.072   2.303   1.922
 8236SOL    HW125607   6.027   2.346   1.844
 8236SOL    HW225608   6.014   2.309   2.003
 8237SOL     OW25609   3.555   6.182   5.644
 8237SOL    HW125610   3.619   6.246   5.603
 8237SOL    HW225611   3.462   6.208   5.619
 8238SOL     OW25612   0.886   1.111   6.242
 8238SOL    HW125613   0.890   1.061   6.329
 8238SOL    HW225614   0.848   1.202   6.258
 8239SOL     OW25615   5.459   1.341   6.851
 8239SOL    HW125616   5.454   1.281   6.772
 8239SOL    HW225617   5.401   1.304   6.924
 8240SOL     OW25618   3.718   3.191   2.853
 8240SOL    HW125619   3.818   3.196   2.841
 8240SOL    HW225620   3.691   3.096   2.863
 8241SOL     OW25621   4.667   6.195   1.198
 8241SOL    HW125622   4.701   6.164   1.109
 8241SOL    HW225623   4.735   6.255   1.241
 8242SOL     OW25624   1.619   4.192   5.213
 8242SOL    HW125625   1.582   4.207   5.121
 8242SOL    HW225626   1.579   4.258   5.276
 8243SOL     OW25627   0.477   3.358   4.896
 8243SOL    HW125628   0.469   3.441   4.951
 8243SOL    HW225629   0.406   3.293   4.922
 8244SOL     OW25630   3.011   5.393   4.935
 8244SOL    HW125631   2.964   5.306   4.926
 8244SOL    HW225632   3.099   5.380   4.981
 8245SOL     OW25633   4.515   3.851   1.287
 8245SOL    HW125634   4.424   3.873   1.321
 8245SOL    HW225635   4.538   3.757   1.312
 8246SOL     OW25636   5.480   3.358   4.687
 8246SOL    HW125637   5.575   3.328   4.692
 8246SOL    HW225638   5.470   3.447   4.732
 8247SOL     OW25639   0.926   6.503   6.790
 8247SOL    HW125640   0.982   6.583   6.809
 8247SOL    HW225641   0.978   6.440   6.732
 8248SOL     OW25642   0.311   4.047   3.307
 8248SOL    HW125643   0.246   4.030   3.381
 8248SOL    HW225644   0.333   4.145   3.304
 8249SOL     OW25645   1.027   5.309   2.958
 8249SOL    HW125646   0.969   5.297   3.039
 8249SOL    HW225647   0.969   5.318   2.877
 8250SOL     OW25648   2.916   3.292   2.780
 8250SOL    HW125649   2.958   3.299   2.690
 8250SOL    HW225650   2.982   3.253   2.845
 8251SOL     OW25651   5.421   0.926   4.683
 8251SOL    HW125652   5.480   0.946   4.605
 8251SOL    HW225653   5.348   0.994   4.688
 8252SOL     OW25654   1.242   3.891   4.020
 8252SOL    HW125655   1.182   3.971   4.024
 8252SOL    HW225656   1.245   3.848   4.110
 8253SOL     OW25657   3.238   3.075   5.873
 8253SOL    HW125658   3.285   3.096   5.788
 8253SOL    HW225659   3.143   3.104   5.866
 8254SOL     OW25660   5.006   5.520   2.806
 8254SOL    HW125661   5.021   5.619   2.815
 8254SOL    HW225662   4.915   5.497   2.841
 8255SOL     OW25663   3.665   4.929   3.362
 8255SOL    HW125664   3.646   4.892   3.271
 8255SOL    HW225665   3.650   5.027   3.362
 8256SOL     OW25666   5.302   2.435   3.257
 8256SOL    HW125667   5.304   2.491   3.175
 8256SOL    HW225668   5.208   2.428   3.291
 8257SOL     OW25669   6.445   4.166   4.465
 8257SOL    HW125670   6.481   4.232   4.399
 8257SOL    HW225671   6.432   4.211   4.554
 8258SOL     OW25672   5.313   1.941   6.847
 8258SOL    HW125673   5.392   1.993   6.813
 8258SOL    HW225674   5.229   1.984   6.813
 8259SOL     OW25675   4.722   0.459   0.890
 8259SOL    HW125676   4.795   0.477   0.825
 8259SOL    HW225677   4.652   0.403   0.847
 8260SOL     OW25678   3.264   5.516   6.505
 8260SOL    HW125679   3.219   5.455   6.440
 8260SOL    HW225680   3.281   5.605   6.462
 8261SOL     OW25681   5.101   1.453   1.625
 8261SOL    HW125682   5.089   1.482   1.530
 8261SOL    HW225683   5.131   1.358   1.628
 8262SOL     OW25684   6.414   2.629   1.673
 8262SOL    HW125685   6.473   2.578   1.736
 8262SOL    HW225686   6.393   2.572   1.594
 8263SOL     OW25687   5.615   1.700   0.597
 8263SOL    HW125688   5.697   1.731   0.644
 8263SOL    HW225689   5.582   1.771   0.536
 8264SOL     OW25690   1.402   4.533   1.425
 8264SOL    HW125691   1.341   4.460   1.395
 8264SOL    HW225692   1.463   4.498   1.496
 8265SOL     OW25693   1.805   0.506   2.809
 8265SOL    HW125694   1.743   0.444   2.857
 8265SOL    HW225695   1.788   0.600   2.839
 8266SOL     OW25696   3.215   0.861   2.771
 8266SOL    HW125697   3.257   0.853   2.861
 8266SOL    HW225698   3.240   0.950   2.731
 8267SOL     OW25699   0.172   3.987   0.830
 8267SOL    HW125700   0.113   3.908   0.844
 8267SOL    HW225701   0.173   4.011   0.732
 8268SOL     OW25702   2.734   4.965   6.603
 8268SOL    HW125703   2.697   4.872   6.599
 8268SOL    HW225704   2.668   5.028   6.561
 8269SOL     OW25705   6.067   1.887   0.042
 8269SOL    HW125706   5.999   1.864   6.993
 8269SOL    HW225707   6.152   1.917   7.018
 8270SOL     OW25708   2.549   6.212   4.485
 8270SOL    HW125709   2.466   6.170   4.521
 8270SOL    HW225710   2.546   6.211   4.385
 8271SOL     OW25711   0.668   2.436   2.717
 8271SOL    HW125712   0.748   2.474   2.669
 8271SOL    HW225713   0.586   2.487   2.690
 8272SOL     OW25714   3.285   1.243   3.968
 8272SOL    HW125715   3.232   1.159   3.957
 8272SOL    HW225716   3.311   1.278   3.878
 8273SOL     OW25717   1.777   6.214   2.120
 8273SOL    HW125718   1.853   6.212   2.185
 8273SOL    HW225719   1.743   6.307   2.111
 8274SOL     OW25720   5.165   3.872   3.796
 8274SOL    HW125721   5.132   3.778   3.806
 8274SOL    HW225722   5.148   3.902   3.702
 8275SOL     OW25723   5.838   2.122   0.007
 8275SOL    HW125724   5.933   2.125   6.996
 8275SOL    HW225725   5.778   2.103   6.950
 8276SOL     OW25726   0.729   1.915   2.553
 8276SOL    HW125727   0.725   2.007   2.592
 8276SOL    HW225728   0.807   1.866   2.592
 8277SOL     OW25729   0.038   1.456   0.195
 8277SOL    HW125730   0.069   1.506   0.114
 8277SOL    HW225731   0.086   1.368   0.200
 8278SOL     OW25732   1.345   2.666   0.629
 8278SOL    HW125733   1.402   2.739   0.667
 8278SOL    HW225734   1.253   2.701   0.612
 8279SOL     OW25735   0.208   5.965   3.636
 8279SOL    HW125736   0.150   6.043   3.661
 8279SOL    HW225737   0.288   5.997   3.586
 8280SOL     OW25738   3.183   2.576   6.268
 8280SOL    HW125739   3.165   2.508   6.197
 8280SOL    HW225740   3.180   2.668   6.228
 8281SOL     OW25741   4.189   5.356   2.290
 8281SOL    HW125742   4.180   5.280   2.354
 8281SOL    HW225743   4.282   5.359   2.254
 8282SOL     OW25744   6.317   2.874   6.054
 8282SOL    HW125745   6.316   2.802   6.124
 8282SOL    HW225746   6.399   2.929   6.065
 8283SOL     OW25747   2.100   2.956   6.074
 8283SOL    HW125748   2.167   3.004   6.017
 8283SOL    HW225749   2.042   2.899   6.015
 8284SOL     OW25750   6.310   4.506   1.864
 8284SOL    HW125751   6.399   4.462   1.872
 8284SOL    HW225752   6.238   4.436   1.866
 8285SOL     OW25753   3.803   3.035   3.708
 8285SOL    HW125754   3.801   3.133   3.726
 8285SOL    HW225755   3.839   3.018   3.617
 8286SOL     OW25756   0.713   2.706   0.158
 8286SOL    HW125757   0.693   2.765   0.237
 8286SOL    HW225758   0.805   2.727   0.124
 8287SOL     OW25759   1.532   0.198   4.220
 8287SOL    HW125760   1.568   0.258   4.148
 8287SOL    HW225761   1.520   0.105   4.183
 8288SOL     OW25762   3.059   1.536   3.147
 8288SOL    HW125763   3.002   1.506   3.224
 8288SOL    HW225764   3.102   1.623   3.169
 8289SOL     OW25765   0.370   6.568   6.885
 8289SOL    HW125766   0.346   6.480   6.927
 8289SOL    HW225767   0.453   6.557   6.830
 8290SOL     OW25768   6.572   2.023   1.100
 8290SOL    HW125769   6.531   2.106   1.063
 8290SOL    HW225770   6.612   2.042   1.189
 8291SOL     OW25771   4.065   0.748   0.824
 8291SOL    HW125772   4.123   0.825   0.798
 8291SOL    HW225773   3.981   0.750   0.769
 8292SOL     OW25774   2.950   0.711   5.938
 8292SOL    HW125775   2.986   0.801   5.962
 8292SOL    HW225776   2.981   0.687   5.846
 8293SOL     OW25777   6.149   5.394   5.367
 8293SOL    HW125778   6.137   5.335   5.287
 8293SOL    HW225779   6.092   5.360   5.442
 8294SOL     OW25780   6.378   2.611   0.086
 8294SOL    HW125781   6.291   2.561   0.083
 8294SOL    HW225782   6.382   2.666   0.169
 8295SOL     OW25783   4.997   2.769   6.564
 8295SOL    HW125784   4.913   2.811   6.599
 8295SOL    HW225785   5.075   2.829   6.582
 8296SOL     OW25786   0.319   5.003   5.262
 8296SOL    HW125787   0.366   5.018   5.349
 8296SOL    HW225788   0.341   4.912   5.227
 8297SOL     OW25789   1.413   3.076   3.981
 8297SOL    HW125790   1.422   3.155   3.920
 8297SOL    HW225791   1.318   3.069   4.012
 8298SOL     OW25792   4.737   1.832   1.838
 8298SOL    HW125793   4.783   1.835   1.749
 8298SOL    HW225794   4.800   1.861   1.909
 8299SOL     OW25795   5.698   2.165   1.899
 8299SOL    HW125796   5.749   2.117   1.971
 8299SOL    HW225797   5.672   2.100   1.827
 8300SOL     OW25798   1.817   5.283   3.134
 8300SOL    HW125799   1.824   5.275   3.034
 8300SOL    HW225800   1.869   5.209   3.177
 8301SOL     OW25801   2.688   1.514   6.011
 8301SOL    HW125802   2.641   1.470   6.088
 8301SOL    HW225803   2.641   1.599   5.987
 8302SOL     OW25804   5.915   5.872   5.711
 8302SOL    HW125805   5.860   5.925   5.647
 8302SOL    HW225806   5.966   5.934   5.771
 8303SOL     OW25807   0.011   0.189   6.927
 8303SOL    HW125808   0.055   0.178   6.838
 8303SOL    HW225809   0.018   0.104   6.978
 8304SOL     OW25810   6.998   3.240   0.764
 8304SOL    HW125811   0.030   3.316   0.726
 8304SOL    HW225812   0.037   3.161   0.778
 8305SOL     OW25813   3.069   5.224   2.878
 8305SOL    HW125814   3.077   5.136   2.831
 8305SOL    HW225815   3.025   5.211   2.967
 8306SOL     OW25816   1.980   2.769   3.825
 8306SOL    HW125817   1.887   2.736   3.842
 8306SOL    HW225818   2.034   2.763   3.909
 8307SOL     OW25819   3.893   6.123   0.996
 8307SOL    HW125820   3.890   6.083   0.904
 8307SOL    HW225821   3.801   6.154   1.022
 8308SOL     OW25822   3.032   0.753   2.436
 8308SOL    HW125823   2.996   0.742   2.528
 8308SOL    HW225824   3.101   0.682   2.418
 8309SOL     OW25825   5.863   6.565   2.154
 8309SOL    HW125826   5.768   6.595   2.158
 8309SOL    HW225827   5.919   6.637   2.113
 8310SOL     OW25828   6.444   4.653   6.678
 8310SOL    HW125829   6.513   4.703   6.627
 8310SOL    HW225830   6.476   4.559   6.696
 8311SOL     OW25831   6.440   0.013   6.207
 8311SOL    HW125832   6.452   6.964   6.278
 8311SOL    HW225833   6.444   0.104   6.248
 8312SOL     OW25834   4.900   6.366   1.341
 8312SOL    HW125835   4.806   6.393   1.322
 8312SOL    HW225836   4.952   6.445   1.374
 8313SOL     OW25837   4.083   1.528   2.637
 8313SOL    HW125838   4.016   1.470   2.684
 8313SOL    HW225839   4.123   1.592   2.703
 8314SOL     OW25840   0.212   6.955   3.425
 8314SOL    HW125841   0.250   6.936   3.515
 8314SOL    HW225842   0.270   7.021   3.377
 8315SOL     OW25843   5.008   4.628   6.567
 8315SOL    HW125844   5.013   4.705   6.631
 8315SOL    HW225845   5.101   4.597   6.545
 8316SOL     OW25846   2.759   5.418   6.783
 8316SOL    HW125847   2.841   5.384   6.830
 8316SOL    HW225848   2.680   5.410   6.844
 8317SOL     OW25849   2.602   4.633   1.239
 8317SOL    HW125850   2.568   4.652   1.331
 8317SOL    HW225851   2.616   4.535   1.228
 8318SOL     OW25852   3.124   1.133   5.630
 8318SOL    HW125853   3.066   1.151   5.550
 8318SOL    HW225854   3.087   1.180   5.710
 8319SOL     OW25855   2.504   0.668   5.329
 8319SOL    HW125856   2.591   0.648   5.284
 8319SOL    HW225857   2.519   0.732   5.405
 8320SOL     OW25858   3.913   5.108   1.109
 8320SOL    HW125859   4.012   5.117   1.121
 8320SOL    HW225860   3.894   5.065   1.021
 8321SOL     OW25861   6.822   0.740   1.070
 8321SOL    HW125862   6.883   0.712   1.144
 8321SOL    HW225863   6.729   0.709   1.091
 8322SOL     OW25864   5.346   6.901   0.491
 8322SOL    HW125865   5.290   6.821   0.512
 8322SOL    HW225866   5.352   6.960   0.571
 8323SOL     OW25867   1.850   0.641   1.965
 8323SOL    HW125868   1.898   0.714   2.014
 8323SOL    HW225869   1.764   0.622   2.012
 8324SOL     OW25870   6.716   0.991   2.366
 8324SOL    HW125871   6.708   0.892   2.373
 8324SOL    HW225872   6.709   1.018   2.270
 8325SOL     OW25873   4.052   3.808   4.730
 8325SOL    HW125874   4.126   3.835   4.790
 8325SOL    HW225875   4.055   3.709   4.715
 8326SOL     OW25876   4.248   3.011   6.293
 8326SOL    HW125877   4.173   3.076   6.284
 8326SOL    HW225878   4.267   2.995   6.391
 8327SOL     OW25879   5.149   2.260   6.069
 8327SOL    HW125880   5.063   2.257   6.018
 8327SOL    HW225881   5.196   2.346   6.051
 8328SOL     OW25882   2.259   2.833   3.713
 8328SOL    HW125883   2.313   2.779   3.778
 8328SOL    HW225884   2.183   2.876   3.762
 8329SOL     OW25885   0.575   3.046   4.557
 8329SOL    HW125886   0.485   3.032   4.515
 8329SOL    HW225887   0.629   2.963   4.548
 8330SOL     OW25888   2.312   6.929   0.338
 8330SOL    HW125889   2.313   7.003   0.405
 8330SOL    HW225890   2.384   6.944   0.270
 8331SOL     OW25891   2.685   6.935   1.080
 8331SOL    HW125892   2.606   6.963   1.026
 8331SOL    HW225893   2.744   6.876   1.025
 8332SOL     OW25894   4.525   6.181   3.657
 8332SOL    HW125895   4.559   6.274   3.669
 8332SOL    HW225896   4.425   6.182   3.656
 8333SOL     OW25897   2.029   5.287   5.561
 8333SOL    HW125898   1.983   5.375   5.560
 8333SOL    HW225899   1.963   5.215   5.582
 8334SOL     OW25900   6.586   6.688   3.637
 8334SOL    HW125901   6.493   6.722   3.643
 8334SOL    HW225902   6.588   6.604   3.583
 8335SOL     OW25903   6.611   6.457   5.180
 8335SOL    HW125904   6.677   6.465   5.255
 8335SOL    HW225905   6.538   6.394   5.206
 8336SOL     OW25906   1.317   1.940   2.780
 8336SOL    HW125907   1.389   1.971   2.717
 8336SOL    HW225908   1.245   2.008   2.785
 8337SOL     OW25909   0.002   6.369   2.263
 8337SOL    HW125910   6.964   6.307   2.315
 8337SOL    HW225911   0.088   6.324   2.243
 8338SOL     OW25912   2.192   5.126   0.813
 8338SOL    HW125913   2.275   5.097   0.860
 8338SOL    HW225914   2.125   5.052   0.815
 8339SOL     OW25915   5.449   0.812   3.207
 8339SOL    HW125916   5.425   0.887   3.269
 8339SOL    HW225917   5.401   0.825   3.120
 8340SOL     OW25918   4.680   3.848   1.644
 8340SOL    HW125919   4.614   3.920   1.625
 8340SOL    HW225920   4.744   3.841   1.568
 8341SOL     OW25921   2.365   0.137   0.521
 8341SOL    HW125922   2.377   0.225   0.475
 8341SOL    HW225923   2.454   0.106   0.557
 8342SOL     OW25924   5.111   6.879   1.270
 8342SOL    HW125925   5.048   6.944   1.314
 8342SOL    HW225926   5.201   6.886   1.313
 8343SOL     OW25927   0.359   4.706   5.238
 8343SOL    HW125928   0.449   4.685   5.278
 8343SOL    HW225929   0.288   4.657   5.289
 8344SOL     OW25930   3.856   6.915   4.758
 8344SOL    HW125931   3.917   6.956   4.690
 8344SOL    HW225932   3.853   6.974   4.839
 8345SOL     OW25933   6.389   1.436   2.990
 8345SOL    HW125934   6.379   1.534   2.977
 8345SOL    HW225935   6.385   1.414   3.088
 8346SOL     OW25936   4.185   5.118   2.428
 8346SOL    HW125937   4.283   5.109   2.444
 8346SOL    HW225938   4.138   5.035   2.458
 8347SOL     OW25939   3.445   5.097   4.543
 8347SOL    HW125940   3.411   5.099   4.637
 8347SOL    HW225941   3.376   5.052   4.484
 8348SOL     OW25942   1.828   0.534   0.961
 8348SOL    HW125943   1.824   0.579   0.871
 8348SOL    HW225944   1.820   0.435   0.949
 8349SOL     OW25945   6.050   5.393   1.814
 8349SOL    HW125946   6.129   5.439   1.772
 8349SOL    HW225947   5.967   5.420   1.766
 8350SOL     OW25948   6.230   0.977   4.778
 8350SOL    HW125949   6.313   0.991   4.724
 8350SOL    HW225950   6.253   0.932   4.865
 8351SOL     OW25951   3.136   6.280   2.111
 8351SOL    HW125952   3.144   6.221   2.191
 8351SOL    HW225953   3.216   6.268   2.052
 8352SOL     OW25954   6.495   6.073   1.583
 8352SOL    HW125955   6.542   6.011   1.520
 8352SOL    HW225956   6.408   6.032   1.610
 8353SOL     OW25957   1.746   3.703   1.926
 8353SOL    HW125958   1.777   3.691   1.831
 8353SOL    HW225959   1.780   3.628   1.982
 8354SOL     OW25960   2.879   0.497   0.439
 8354SOL    HW125961   2.924   0.496   0.528
 8354SOL    HW225962   2.913   0.574   0.385
 8355SOL     OW25963   3.003   1.345   0.862
 8355SOL    HW125964   2.912   1.380   0.841
 8355SOL    HW225965   2.997   1.274   0.932
 8356SOL     OW25966   2.947   5.341   0.225
 8356SOL    HW125967   2.919   5.265   0.283
 8356SOL    HW225968   3.044   5.361   0.240
 8357SOL     OW25969   4.413   5.720   2.988
 8357SOL    HW125970   4.509   5.729   2.959
 8357SOL    HW225971   4.377   5.810   3.011
 8358SOL     OW25972   3.448   1.982   5.152
 8358SOL    HW125973   3.409   1.901   5.197
 8358SOL    HW225974   3.438   1.973   5.053
 8359SOL     OW25975   3.645   5.050   3.791
 8359SOL    HW125976   3.718   5.011   3.848
 8359SOL    HW225977   3.638   4.998   3.706
 8360SOL     OW25978   4.441   0.544   3.105
 8360SOL    HW125979   4.504   0.616   3.133
 8360SOL    HW225980   4.377   0.581   3.037
 8361SOL     OW25981   1.389   0.479   3.108
 8361SOL    HW125982   1.332   0.555   3.078
 8361SOL    HW225983   1.473   0.514   3.149
 8362SOL     OW25984   2.639   3.154   0.453
 8362SOL    HW125985   2.680   3.109   0.532
 8362SOL    HW225986   2.554   3.199   0.479
 8363SOL     OW25987   0.677   3.626   1.643
 8363SOL    HW125988   0.658   3.722   1.623
 8363SOL    HW225989   0.752   3.593   1.584
 8364SOL     OW25990   6.832   4.698   5.599
 8364SOL    HW125991   6.932   4.688   5.593
 8364SOL    HW225992   6.795   4.722   5.510
 8365SOL     OW25993   1.357   3.732   5.972
 8365SOL    HW125994   1.305   3.655   5.935
 8365SOL    HW225995   1.338   3.814   5.917
 8366SOL     OW25996   2.328   6.962   2.223
 8366SOL    HW125997   2.346   0.039   2.209
 8366SOL    HW225998   2.383   6.929   2.300
 8367SOL     OW25999   5.115   5.593   3.531
 8367SOL    HW126000   5.026   5.619   3.493
 8367SOL    HW226001   5.110   5.500   3.566
 8368SOL     OW26002   3.092   5.771   6.276
 8368SOL    HW126003   3.172   5.768   6.336
 8368SOL    HW226004   3.102   5.703   6.204
 8369SOL     OW26005   2.664   1.736   1.196
 8369SOL    HW126006   2.701   1.679   1.270
 8369SOL    HW226007   2.573   1.769   1.222
 8370SOL     OW26008   1.967   1.346   0.193
 8370SOL    HW126009   1.880   1.392   0.174
 8370SOL    HW226010   2.028   1.356   0.114
 8371SOL     OW26011   1.623   2.402   0.345
 8371SOL    HW126012   1.541   2.373   0.294
 8371SOL    HW226013   1.608   2.493   0.382
 8372SOL     OW26014   6.426   0.508   0.485
 8372SOL    HW126015   6.381   0.568   0.418
 8372SOL    HW226016   6.419   0.413   0.454
 8373SOL     OW26017   1.581   6.860   4.379
 8373SOL    HW126018   1.602   6.762   4.368
 8373SOL    HW226019   1.537   6.894   4.296
 8374SOL     OW26020   6.877   0.755   6.053
 8374SOL    HW126021   6.912   0.792   5.967
 8374SOL    HW226022   6.865   0.657   6.046
 8375SOL     OW26023   4.303   0.806   6.531
 8375SOL    HW126024   4.245   0.887   6.541
 8375SOL    HW226025   4.246   0.724   6.530
 8376SOL     OW26026   4.350   0.551   4.214
 8376SOL    HW126027   4.376   0.485   4.284
 8376SOL    HW226028   4.260   0.527   4.177
 8377SOL     OW26029   5.655   4.979   0.919
 8377SOL    HW126030   5.631   4.923   0.840
 8377SOL    HW226031   5.749   4.961   0.946
 8378SOL     OW26032   4.858   2.739   3.521
 8378SOL    HW126033   4.891   2.828   3.487
 8378SOL    HW226034   4.930   2.696   3.574
 8379SOL     OW26035   5.268   2.773   2.525
 8379SOL    HW126036   5.308   2.694   2.479
 8379SOL    HW226037   5.299   2.857   2.479
 8380SOL     OW26038   5.861   1.554   3.771
 8380SOL    HW126039   5.826   1.569   3.864
 8380SOL    HW226040   5.961   1.544   3.775
 8381SOL     OW26041   1.604   5.352   4.267
 8381SOL    HW126042   1.615   5.443   4.228
 8381SOL    HW226043   1.567   5.290   4.197
 8382SOL     OW26044   0.569   4.592   2.222
 8382SOL    HW126045   0.486   4.631   2.261
 8382SOL    HW226046   0.546   4.509   2.170
 8383SOL     OW26047   3.396   1.466   5.557
 8383SOL    HW126048   3.311   1.513   5.581
 8383SOL    HW226049   3.403   1.381   5.610
 8384SOL     OW26050   0.928   0.114   1.472
 8384SOL    HW126051   0.948   0.032   1.526
 8384SOL    HW226052   0.995   0.185   1.493
 8385SOL     OW26053   4.177   1.612   1.180
 8385SOL    HW126054   4.126   1.642   1.099
 8385SOL    HW226055   4.208   1.518   1.167
 8386SOL     OW26056   0.382   2.952   2.112
 8386SOL    HW126057   0.335   2.998   2.036
 8386SOL    HW226058   0.460   2.902   2.076
 8387SOL     OW26059   0.836   2.042   1.709
 8387SOL    HW126060   0.849   1.996   1.797
 8387SOL    HW226061   0.743   2.027   1.676
 8388SOL     OW26062   1.065   6.666   2.905
 8388SOL    HW126063   1.005   6.703   2.975
 8388SOL    HW226064   1.018   6.668   2.816
 8389SOL     OW26065   5.994   3.200   3.636
 8389SOL    HW126066   5.897   3.213   3.654
 8389SOL    HW226067   6.006   3.139   3.558
 8390SOL     OW26068   6.165   2.127   6.603
 8390SOL    HW126069   6.226   2.066   6.553
 8390SOL    HW226070   6.187   2.222   6.582
 8391SOL     OW26071   6.656   6.936   1.169
 8391SOL    HW126072   6.725   6.974   1.230
 8391SOL    HW226073   6.565   6.964   1.201
 8392SOL     OW26074   3.689   2.928   4.778
 8392SOL    HW126075   3.691   2.965   4.685
 8392SOL    HW226076   3.754   2.978   4.835
 8393SOL     OW26077   5.949   0.068   1.097
 8393SOL    HW126078   5.968   6.998   1.062
 8393SOL    HW226079   6.027   0.128   1.080
 8394SOL     OW26080   5.830   2.839   2.532
 8394SOL    HW126081   5.841   2.752   2.485
 8394SOL    HW226082   5.856   2.829   2.628
 8395SOL     OW26083   2.215   0.887   5.009
 8395SOL    HW126084   2.179   0.841   4.927
 8395SOL    HW226085   2.148   0.956   5.040
 8396SOL     OW26086   4.927   5.347   4.128
 8396SOL    HW126087   4.965   5.308   4.044
 8396SOL    HW226088   4.880   5.433   4.108
 8397SOL     OW26089   6.060   6.840   2.839
 8397SOL    HW126090   6.062   6.755   2.786
 8397SOL    HW226091   5.997   6.829   2.916
 8398SOL     OW26092   5.859   1.683   6.598
 8398SOL    HW126093   5.787   1.615   6.586
 8398SOL    HW226094   5.907   1.696   6.511
 8399SOL     OW26095   0.383   4.456   2.672
 8399SOL    HW126096   0.354   4.552   2.664
 8399SOL    HW226097   0.483   4.451   2.665
 8400SOL     OW26098   0.738   1.001   4.989
 8400SOL    HW126099   0.818   0.945   4.968
 8400SOL    HW226100   0.766   1.097   4.997
 8401SOL     OW26101   2.079   0.454   5.793
 8401SOL    HW126102   2.106   0.538   5.839
 8401SOL    HW226103   2.095   0.376   5.853
 8402SOL     OW26104   2.913   0.469   6.144
 8402SOL    HW126105   2.956   0.540   6.200
 8402SOL    HW226106   2.881   0.510   6.058
 8403SOL     OW26107   5.998   4.832   5.558
 8403SOL    HW126108   5.906   4.870   5.546
 8403SOL    HW226109   6.011   4.755   5.496
 8404SOL     OW26110   1.314   1.358   0.288
 8404SOL    HW126111   1.221   1.393   0.274
 8404SOL    HW226112   1.334   1.355   0.385
 8405SOL     OW26113   4.111   6.869   5.748
 8405SOL    HW126114   4.079   6.877   5.653
 8405SOL    HW226115   4.145   6.777   5.764
 8406SOL     OW26116   5.922   0.767   5.893
 8406SOL    HW126117   6.022   0.766   5.884
 8406SOL    HW226118   5.898   0.763   5.990
 8407SOL     OW26119   4.370   0.812   4.818
 8407SOL    HW126120   4.387   0.723   4.777
 8407SOL    HW226121   4.354   0.880   4.746
 8408SOL     OW26122   3.997   2.102   1.612
 8408SOL    HW126123   4.081   2.084   1.561
 8408SOL    HW226124   3.998   2.196   1.646
 8409SOL     OW26125   4.257   2.346   1.793
 8409SOL    HW126126   4.158   2.332   1.797
 8409SOL    HW226127   4.278   2.424   1.734
 8410SOL     OW26128   0.114   1.832   1.599
 8410SOL    HW126129   0.094   1.736   1.576
 8410SOL    HW226130   0.046   1.891   1.556
 8411SOL     OW26131   1.218   5.824   0.989
 8411SOL    HW126132   1.228   5.739   0.938
 8411SOL    HW226133   1.134   5.822   1.042
 8412SOL     OW26134   2.776   2.755   0.418
 8412SOL    HW126135   2.838   2.764   0.339
 8412SOL    HW226136   2.789   2.833   0.479
 8413SOL     OW26137   3.632   5.786   4.797
 8413SOL    HW126138   3.677   5.845   4.731
 8413SOL    HW226139   3.626   5.693   4.761
 8414SOL     OW26140   2.086   6.859   0.803
 8414SOL    HW126141   2.121   6.936   0.748
 8414SOL    HW226142   2.154   6.833   0.871
 8415SOL     OW26143   3.356   1.675   6.354
 8415SOL    HW126144   3.316   1.746   6.296
 8415SOL    HW226145   3.284   1.635   6.411
 8416SOL     OW26146   0.622   2.724   4.820
 8416SOL    HW126147   0.712   2.755   4.850
 8416SOL    HW226148   0.632   2.654   4.749
 8417SOL     OW26149   2.039   3.577   6.150
 8417SOL    HW126150   2.085   3.514   6.087
 8417SOL    HW226151   2.010   3.527   6.231
 8418SOL     OW26152   6.997   6.106   2.520
 8418SOL    HW126153   0.055   6.085   2.463
 8418SOL    HW226154   6.915   6.111   2.463
 8419SOL     OW26155   3.570   1.599   4.551
 8419SOL    HW126156   3.521   1.567   4.632
 8419SOL    HW226157   3.519   1.574   4.469
 8420SOL     OW26158   3.466   0.940   2.085
 8420SOL    HW126159   3.493   0.858   2.135
 8420SOL    HW226160   3.547   0.988   2.052
 8421SOL     OW26161   4.720   0.267   6.628
 8421SOL    HW126162   4.632   0.301   6.596
 8421SOL    HW226163   4.776   0.241   6.549
 8422SOL     OW26164   5.277   1.950   4.417
 8422SOL    HW126165   5.223   1.974   4.498
 8422SOL    HW226166   5.314   2.033   4.375
 8423SOL     OW26167   6.187   5.804   6.971
 8423SOL    HW126168   6.260   5.749   6.932
 8423SOL    HW226169   6.108   5.745   6.992
 8424SOL     OW26170   2.979   0.391   5.338
 8424SOL    HW126171   3.015   0.456   5.405
 8424SOL    HW226172   3.040   0.387   5.259
 8425SOL     OW26173   3.547   3.287   2.029
 8425SOL    HW126174   3.525   3.193   2.004
 8425SOL    HW226175   3.464   3.333   2.061
 8426SOL     OW26176   3.626   3.122   1.516
 8426SOL    HW126177   3.555   3.116   1.585
 8426SOL    HW226178   3.585   3.147   1.428
 8427SOL     OW26179   3.972   3.012   2.717
 8427SOL    HW126180   3.960   2.964   2.803
 8427SOL    HW226181   3.912   2.972   2.647
 8428SOL     OW26182   5.781   0.251   1.894
 8428SOL    HW126183   5.817   0.167   1.853
 8428SOL    HW226184   5.684   0.239   1.917
 8429SOL     OW26185   3.281   6.099   5.368
 8429SOL    HW126186   3.364   6.045   5.354
 8429SOL    HW226187   3.287   6.145   5.457
 8430SOL     OW26188   5.233   6.909   5.356
 8430SOL    HW126189   5.189   6.974   5.294
 8430SOL    HW226190   5.293   6.848   5.304
 8431SOL     OW26191   2.063   3.223   6.220
 8431SOL    HW126192   2.094   3.279   6.144
 8431SOL    HW226193   2.122   3.143   6.230
 8432SOL     OW26194   6.563   5.317   5.850
 8432SOL    HW126195   6.573   5.220   5.875
 8432SOL    HW226196   6.649   5.365   5.868
 8433SOL     OW26197   5.047   1.811   1.095
 8433SOL    HW126198   5.126   1.779   1.147
 8433SOL    HW226199   4.964   1.768   1.132
 8434SOL     OW26200   2.924   6.345   4.860
 8434SOL    HW126201   2.892   6.256   4.830
 8434SOL    HW226202   3.024   6.342   4.873
 8435SOL     OW26203   6.651   1.700   3.163
 8435SOL    HW126204   6.600   1.735   3.242
 8435SOL    HW226205   6.691   1.776   3.113
 8436SOL     OW26206   1.772   5.127   2.894
 8436SOL    HW126207   1.820   5.051   2.850
 8436SOL    HW226208   1.712   5.172   2.826
 8437SOL     OW26209   1.767   6.030   0.634
 8437SOL    HW126210   1.861   6.061   0.628
 8437SOL    HW226211   1.763   5.947   0.691
 8438SOL     OW26212   0.857   4.090   2.662
 8438SOL    HW126213   0.903   4.014   2.707
 8438SOL    HW226214   0.926   4.155   2.629
 8439SOL     OW26215   6.342   4.026   2.451
 8439SOL    HW126216   6.303   3.935   2.463
 8439SOL    HW226217   6.325   4.057   2.357
 8440SOL     OW26218   1.575   1.713   2.318
 8440SOL    HW126219   1.492   1.768   2.328
 8440SOL    HW226220   1.582   1.647   2.393
 8441SOL     OW26221   6.929   2.719   5.824
 8441SOL    HW126222   7.014   2.723   5.771
 8441SOL    HW226223   6.851   2.717   5.762
 8442SOL     OW26224   3.803   2.411   6.578
 8442SOL    HW126225   3.874   2.341   6.574
 8442SOL    HW226226   3.806   2.467   6.496
 8443SOL     OW26227   2.027   4.214   2.822
 8443SOL    HW126228   2.066   4.254   2.906
 8443SOL    HW226229   2.066   4.123   2.807
 8444SOL     OW26230   5.559   5.440   4.990
 8444SOL    HW126231   5.524   5.490   4.911
 8444SOL    HW226232   5.533   5.487   5.074
 8445SOL     OW26233   4.300   6.308   6.845
 8445SOL    HW126234   4.343   6.254   6.917
 8445SOL    HW226235   4.277   6.248   6.768
 8446SOL     OW26236   6.618   5.870   4.417
 8446SOL    HW126237   6.607   5.870   4.516
 8446SOL    HW226238   6.527   5.872   4.374
 8447SOL     OW26239   3.354   1.817   4.546
 8447SOL    HW126240   3.447   1.808   4.582
 8447SOL    HW226241   3.344   1.905   4.500
 8448SOL     OW26242   3.302   6.538   2.739
 8448SOL    HW126243   3.297   6.438   2.737
 8448SOL    HW226244   3.210   6.576   2.728
 8449SOL     OW26245   1.319   2.485   4.286
 8449SOL    HW126246   1.249   2.436   4.339
 8449SOL    HW226247   1.404   2.490   4.338
 8450SOL     OW26248   6.842   1.047   0.781
 8450SOL    HW126249   6.772   1.108   0.741
 8450SOL    HW226250   6.822   0.953   0.755
 8451SOL     OW26251   3.912   2.786   1.408
 8451SOL    HW126252   3.830   2.840   1.425
 8451SOL    HW226253   3.968   2.830   1.338
 8452SOL     OW26254   5.173   0.764   5.862
 8452SOL    HW126255   5.240   0.779   5.789
 8452SOL    HW226256   5.176   0.667   5.889
 8453SOL     OW26257   0.121   0.408   0.395
 8453SOL    HW126258   0.166   0.469   0.461
 8453SOL    HW226259   0.022   0.418   0.403
 8454SOL     OW26260   6.260   6.003   6.751
 8454SOL    HW126261   6.216   5.938   6.813
 8454SOL    HW226262   6.313   5.953   6.682
 8455SOL     OW26263   6.184   0.725   2.891
 8455SOL    HW126264   6.235   0.691   2.811
 8455SOL    HW226265   6.088   0.701   2.882
 8456SOL     OW26266   6.885   0.692   2.242
 8456SOL    HW126267   6.905   0.759   2.313
 8456SOL    HW226268   6.944   0.613   2.254
 8457SOL     OW26269   6.628   6.984   4.968
 8457SOL    HW126270   6.660   6.947   5.055
 8457SOL    HW226271   6.574   6.916   4.920
 8458SOL     OW26272   1.087   6.777   0.113
 8458SOL    HW126273   1.005   6.731   0.144
 8458SOL    HW226274   1.074   6.876   0.117
 8459SOL     OW26275   0.786   5.625   2.827
 8459SOL    HW126276   0.772   5.681   2.746
 8459SOL    HW226277   0.821   5.682   2.902
 8460SOL     OW26278   3.991   3.181   3.282
 8460SOL    HW126279   3.921   3.248   3.259
 8460SOL    HW226280   4.052   3.218   3.351
 8461SOL     OW26281   6.319   3.347   3.624
 8461SOL    HW126282   6.265   3.333   3.708
 8461SOL    HW226283   6.329   3.446   3.608
 8462SOL     OW26284   2.617   2.508   1.912
 8462SOL    HW126285   2.694   2.451   1.886
 8462SOL    HW226286   2.531   2.459   1.894
 8463SOL     OW26287   6.304   0.513   1.584
 8463SOL    HW126288   6.360   0.577   1.636
 8463SOL    HW226289   6.218   0.558   1.559
 8464SOL     OW26290   0.035   0.890   4.349
 8464SOL    HW126291   6.990   0.815   4.361
 8464SOL    HW226292   0.052   0.934   4.436
 8465SOL     OW26293   1.958   1.327   0.562
 8465SOL    HW126294   1.922   1.344   0.654
 8465SOL    HW226295   2.036   1.266   0.568
 8466SOL     OW26296   0.803   6.924   4.176
 8466SOL    HW126297   0.878   6.913   4.242
 8466SOL    HW226298   0.825   6.872   4.093
 8467SOL     OW26299   4.094   5.558   0.616
 8467SOL    HW126300   4.131   5.571   0.524
 8467SOL    HW226301   4.007   5.607   0.624
 8468SOL     OW26302   3.886   2.337   0.102
 8468SOL    HW126303   3.963   2.312   0.043
 8468SOL    HW226304   3.810   2.371   0.047
 8469SOL     OW26305   4.532   2.154   5.594
 8469SOL    HW126306   4.491   2.123   5.680
 8469SOL    HW226307   4.525   2.081   5.526
 8470SOL     OW26308   2.052   2.913   6.987
 8470SOL    HW126309   2.021   2.852   6.915
 8470SOL    HW226310   2.147   2.893   7.011
 8471SOL     OW26311   4.199   1.537   4.916
 8471SOL    HW126312   4.151   1.475   4.855
 8471SOL    HW226313   4.191   1.631   4.881
 8472SOL     OW26314   1.240   6.399   3.000
 8472SOL    HW126315   1.328   6.417   2.956
 8472SOL    HW226316   1.208   6.307   2.976
 8473SOL     OW26317   6.620   5.940   6.967
 8473SOL    HW126318   6.634   6.017   6.904
 8473SOL    HW226319   6.600   5.976   0.037
 8474SOL     OW26320   4.024   5.624   6.998
 8474SOL    HW126321   3.963   5.683   0.030
 8474SOL    HW226322   4.040   5.539   0.027
 8475SOL     OW26323   4.615   1.709   2.822
 8475SOL    HW126324   4.630   1.676   2.729
 8475SOL    HW226325   4.663   1.796   2.835
 8476SOL     OW26326   4.680   0.184   2.959
 8476SOL    HW126327   4.681   0.280   2.930
 8476SOL    HW226328   4.772   0.146   2.950
 8477SOL     OW26329   3.361   0.014   3.071
 8477SOL    HW126330   3.313   6.951   3.097
 8477SOL    HW226331   3.305   0.065   3.006
 8478SOL     OW26332   1.264   0.101   5.943
 8478SOL    HW126333   1.312   0.163   5.880
 8478SOL    HW226334   1.331   0.059   6.004
 8479SOL     OW26335   5.346   0.654   2.257
 8479SOL    HW126336   5.259   0.618   2.225
 8479SOL    HW226337   5.420   0.619   2.199
 8480SOL     OW26338   1.959   1.008   1.859
 8480SOL    HW126339   2.016   1.086   1.835
 8480SOL    HW226340   1.964   0.939   1.786
 8481SOL     OW26341   4.441   0.116   5.628
 8481SOL    HW126342   4.541   0.119   5.621
 8481SOL    HW226343   4.414   0.035   5.679
 8482SOL     OW26344   6.981   0.516   1.505
 8482SOL    HW126345   0.009   0.508   1.592
 8482SOL    HW226346   0.025   0.536   1.432
 8483SOL     OW26347   5.155   6.512   1.932
 8483SOL    HW126348   5.151   6.413   1.929
 8483SOL    HW226349   5.194   6.541   2.020
 8484SOL     OW26350   6.650   4.864   5.762
 8484SOL    HW126351   6.728   4.822   5.715
 8484SOL    HW226352   6.572   4.868   5.700
 8485SOL     OW26353   1.750   3.250   6.263
 8485SOL    HW126354   1.700   3.238   6.177
 8485SOL    HW226355   1.845   3.222   6.251
 8486SOL     OW26356   4.311   0.856   2.674
 8486SOL    HW126357   4.344   0.949   2.656
 8486SOL    HW226358   4.218   0.860   2.711
 8487SOL     OW26359   4.276   0.674   0.612
 8487SOL    HW126360   4.330   0.690   0.695
 8487SOL    HW226361   4.185   0.641   0.638
 8488SOL     OW26362   6.632   3.637   5.444
 8488SOL    HW126363   6.584   3.566   5.392
 8488SOL    HW226364   6.570   3.713   5.463
 8489SOL     OW26365   3.190   6.910   3.326
 8489SOL    HW126366   3.119   6.981   3.328
 8489SOL    HW226367   3.223   6.894   3.419
 8490SOL     OW26368   4.008   4.946   2.719
 8490SOL    HW126369   3.997   4.938   2.620
 8490SOL    HW226370   3.938   4.891   2.765
 8491SOL     OW26371   1.034   0.860   1.591
 8491SOL    HW126372   1.032   0.926   1.666
 8491SOL    HW226373   0.949   0.807   1.591
 8492SOL     OW26374   5.686   4.239   4.746
 8492SOL    HW126375   5.774   4.192   4.756
 8492SOL    HW226376   5.670   4.259   4.650
 8493SOL     OW26377   3.390   2.910   0.925
 8493SOL    HW126378   3.329   2.945   0.997
 8493SOL    HW226379   3.372   2.813   0.911
 8494SOL     OW26380   3.596   6.488   6.688
 8494SOL    HW126381   3.601   6.577   6.733
 8494SOL    HW226382   3.500   6.466   6.670
 8495SOL     OW26383   0.692   2.754   6.628
 8495SOL    HW126384   0.620   2.701   6.582
 8495SOL    HW226385   0.735   2.697   6.698
 8496SOL     OW26386   1.086   2.294   3.445
 8496SOL    HW126387   1.081   2.295   3.545
 8496SOL    HW226388   1.000   2.327   3.407
 8497SOL     OW26389   5.968   3.883   3.581
 8497SOL    HW126390   5.922   3.848   3.500
 8497SOL    HW226391   5.963   3.983   3.582
 8498SOL     OW26392   6.713   0.634   1.509
 8498SOL    HW126393   6.681   0.686   1.589
 8498SOL    HW226394   6.813   0.637   1.506
 8499SOL     OW26395   6.959   4.588   0.487
 8499SOL    HW126396   6.951   4.558   0.582
 8499SOL    HW226397   0.008   4.659   0.480
 8500SOL     OW26398   2.324   0.437   5.438
 8500SOL    HW126399   2.407   0.493   5.433
 8500SOL    HW226400   2.332   0.372   5.513
 8501SOL     OW26401   2.666   3.825   6.340
 8501SOL    HW126402   2.708   3.852   6.254
 8501SOL    HW226403   2.680   3.727   6.355
 8502SOL     OW26404   0.875   6.607   1.720
 8502SOL    HW126405   0.841   6.517   1.748
 8502SOL    HW226406   0.806   6.653   1.665
 8503SOL     OW26407   3.919   5.360   3.269
 8503SOL    HW126408   3.945   5.415   3.349
 8503SOL    HW226409   3.938   5.412   3.186
 8504SOL     OW26410   1.376   4.839   3.275
 8504SOL    HW126411   1.364   4.889   3.190
 8504SOL    HW226412   1.438   4.890   3.335
 8505SOL     OW26413   4.436   2.128   3.479
 8505SOL    HW126414   4.511   2.194   3.468
 8505SOL    HW226415   4.355   2.175   3.513
 8506SOL     OW26416   0.584   5.626   6.843
 8506SOL    HW126417   0.586   5.620   6.943
 8506SOL    HW226418   0.528   5.552   6.806
 8507SOL     OW26419   1.701   0.520   4.518
 8507SOL    HW126420   1.684   0.581   4.596
 8507SOL    HW226421   1.618   0.468   4.499
 8508SOL     OW26422   0.642   3.298   5.493
 8508SOL    HW126423   0.621   3.333   5.401
 8508SOL    HW226424   0.562   3.249   5.529
 8509SOL     OW26425   6.117   2.243   4.811
 8509SOL    HW126426   6.066   2.160   4.787
 8509SOL    HW226427   6.059   2.323   4.794
 8510SOL     OW26428   5.046   0.045   2.728
 8510SOL    HW126429   5.015   0.100   2.651
 8510SOL    HW226430   5.027   6.970   2.711
 8511SOL     OW26431   6.647   5.369   1.482
 8511SOL    HW126432   6.548   5.364   1.467
 8511SOL    HW226433   6.673   5.465   1.498
 8512SOL     OW26434   4.291   3.117   1.108
 8512SOL    HW126435   4.324   3.166   1.189
 8512SOL    HW226436   4.366   3.067   1.065
 8513SOL     OW26437   0.677   3.344   0.831
 8513SOL    HW126438   0.695   3.246   0.839
 8513SOL    HW226439   0.673   3.385   0.922
 8514SOL     OW26440   2.249   2.961   4.804
 8514SOL    HW126441   2.314   2.921   4.739
 8514SOL    HW226442   2.290   2.963   4.895
 8515SOL     OW26443   2.894   1.089   0.312
 8515SOL    HW126444   2.893   1.119   0.216
 8515SOL    HW226445   2.988   1.080   0.343
 8516SOL     OW26446   6.406   3.314   5.080
 8516SOL    HW126447   6.307   3.301   5.090
 8516SOL    HW226448   6.449   3.226   5.060
 8517SOL     OW26449   1.532   1.805   6.088
 8517SOL    HW126450   1.447   1.760   6.062
 8517SOL    HW226451   1.515   1.903   6.104
 8518SOL     OW26452   5.523   4.745   0.129
 8518SOL    HW126453   5.607   4.713   0.085
 8518SOL    HW226454   5.538   4.837   0.165
 8519SOL     OW26455   0.721   3.863   0.574
 8519SOL    HW126456   0.667   3.795   0.623
 8519SOL    HW226457   0.701   3.859   0.476
 8520SOL     OW26458   3.259   3.605   6.182
 8520SOL    HW126459   3.324   3.680   6.170
 8520SOL    HW226460   3.309   3.520   6.200
 8521SOL     OW26461   1.962   6.844   4.868
 8521SOL    HW126462   1.877   6.894   4.881
 8521SOL    HW226463   1.944   6.745   4.869
 8522SOL     OW26464   0.206   0.630   0.067
 8522SOL    HW126465   0.119   0.679   0.068
 8522SOL    HW226466   0.190   0.532   0.075
 8523SOL     OW26467   4.084   1.808   1.355
 8523SOL    HW126468   4.123   1.747   1.286
 8523SOL    HW226469   4.018   1.758   1.411
 8524SOL     OW26470   3.132   6.332   5.340
 8524SOL    HW126471   3.047   6.339   5.392
 8524SOL    HW226472   3.164   6.237   5.343
 8525SOL     OW26473   6.274   2.807   2.834
 8525SOL    HW126474   6.307   2.719   2.866
 8525SOL    HW226475   6.305   2.821   2.739
 8526SOL     OW26476   0.414   4.528   6.679
 8526SOL    HW126477   0.333   4.472   6.660
 8526SOL    HW226478   0.452   4.563   6.594
 8527SOL     OW26479   2.675   0.759   5.899
 8527SOL    HW126480   2.767   0.720   5.906
 8527SOL    HW226481   2.682   0.855   5.871
 8528SOL     OW26482   5.617   0.451   1.000
 8528SOL    HW126483   5.524   0.449   0.965
 8528SOL    HW226484   5.665   0.368   0.974
 8529SOL     OW26485   0.893   6.439   6.462
 8529SOL    HW126486   0.940   6.517   6.421
 8529SOL    HW226487   0.943   6.410   6.545
 8530SOL     OW26488   4.012   3.780   2.866
 8530SOL    HW126489   4.025   3.704   2.803
 8530SOL    HW226490   4.053   3.758   2.954
 8531SOL     OW26491   6.490   5.844   3.287
 8531SOL    HW126492   6.497   5.934   3.245
 8531SOL    HW226493   6.396   5.811   3.280
 8532SOL     OW26494   3.525   5.299   0.335
 8532SOL    HW126495   3.462   5.352   0.278
 8532SOL    HW226496   3.478   5.220   0.373
 8533SOL     OW26497   2.610   6.091   5.080
 8533SOL    HW126498   2.553   6.060   5.156
 8533SOL    HW226499   2.701   6.052   5.088
 8534SOL     OW26500   1.777   3.461   2.073
 8534SOL    HW126501   1.713   3.461   1.996
 8534SOL    HW226502   1.847   3.392   2.057
 8535SOL     OW26503   6.175   0.201   2.155
 8535SOL    HW126504   6.179   0.137   2.232
 8535SOL    HW226505   6.092   0.257   2.163
 8536SOL     OW26506   1.714   0.929   3.993
 8536SOL    HW126507   1.618   0.903   4.001
 8536SOL    HW226508   1.772   0.850   4.013
 8537SOL     OW26509   5.853   0.962   3.046
 8537SOL    HW126510   5.786   0.984   3.116
 8537SOL    HW226511   5.806   0.942   2.960
 8538SOL     OW26512   0.654   2.209   6.551
 8538SOL    HW126513   0.687   2.251   6.636
 8538SOL    HW226514   0.592   2.272   6.505
 8539SOL     OW26515   5.274   3.211   2.186
 8539SOL    HW126516   5.333   3.289   2.165
 8539SOL    HW226517   5.256   3.160   2.102
 8540SOL     OW26518   4.209   0.319   1.352
 8540SOL    HW126519   4.278   0.392   1.361
 8540SOL    HW226520   4.148   0.321   1.432
 8541SOL     OW26521   1.693   3.117   3.389
 8541SOL    HW126522   1.786   3.093   3.362
 8541SOL    HW226523   1.664   3.060   3.465
 8542SOL     OW26524   2.921   4.568   6.412
 8542SOL    HW126525   2.915   4.536   6.507
 8542SOL    HW226526   2.884   4.498   6.351
 8543SOL     OW26527   3.627   2.173   6.652
 8543SOL    HW126528   3.627   2.090   6.596
 8543SOL    HW226529   3.705   2.172   6.714
 8544SOL     OW26530   5.995   1.645   4.239
 8544SOL    HW126531   6.057   1.585   4.290
 8544SOL    HW226532   6.007   1.739   4.270
 8545SOL     OW26533   4.458   6.551   5.191
 8545SOL    HW126534   4.513   6.604   5.127
 8545SOL    HW226535   4.404   6.613   5.248
 8546SOL     OW26536   4.092   2.034   0.043
 8546SOL    HW126537   4.092   2.123   0.088
 8546SOL    HW226538   3.999   2.009   0.016
 8547SOL     OW26539   1.804   4.391   2.288
 8547SOL    HW126540   1.741   4.429   2.356
 8547SOL    HW226541   1.753   4.343   2.217
 8548SOL     OW26542   6.174   2.005   5.426
 8548SOL    HW126543   6.199   2.098   5.452
 8548SOL    HW226544   6.143   1.954   5.506
 8549SOL     OW26545   5.170   3.025   5.123
 8549SOL    HW126546   5.100   2.957   5.141
 8549SOL    HW226547   5.231   2.993   5.051
 8550SOL     OW26548   1.535   4.637   5.225
 8550SOL    HW126549   1.457   4.700   5.216
 8550SOL    HW226550   1.540   4.577   5.145
 8551SOL     OW26551   2.210   4.770   1.093
 8551SOL    HW126552   2.140   4.824   1.139
 8551SOL    HW226553   2.174   4.680   1.069
 8552SOL     OW26554   2.859   6.758   4.582
 8552SOL    HW126555   2.786   6.727   4.643
 8552SOL    HW226556   2.830   6.841   4.536
 8553SOL     OW26557   6.276   5.576   0.136
 8553SOL    HW126558   6.235   5.536   0.218
 8553SOL    HW226559   6.340   5.648   0.164
 8554SOL     OW26560   5.903   3.906   0.562
 8554SOL    HW126561   6.002   3.916   0.556
 8554SOL    HW226562   5.875   3.821   0.515
 8555SOL     OW26563   2.127   6.615   4.251
 8555SOL    HW126564   2.074   6.699   4.267
 8555SOL    HW226565   2.092   6.569   4.170
 8556SOL     OW26566   5.733   6.837   4.969
 8556SOL    HW126567   5.673   6.906   4.929
 8556SOL    HW226568   5.746   6.762   4.904
 8557SOL     OW26569   6.553   1.746   1.043
 8557SOL    HW126570   6.470   1.712   0.999
 8557SOL    HW226571   6.537   1.838   1.078
 8558SOL     OW26572   1.515   4.073   2.492
 8558SOL    HW126573   1.481   4.010   2.423
 8558SOL    HW226574   1.472   4.163   2.481
 8559SOL     OW26575   0.955   1.561   5.230
 8559SOL    HW126576   1.030   1.551   5.164
 8559SOL    HW226577   0.968   1.646   5.282
 8560SOL     OW26578   6.496   2.585   6.667
 8560SOL    HW126579   6.567   2.603   6.734
 8560SOL    HW226580   6.424   2.529   6.708
 8561SOL     OW26581   4.889   5.965   6.390
 8561SOL    HW126582   4.914   6.041   6.451
 8561SOL    HW226583   4.962   5.897   6.391
 8562SOL     OW26584   3.890   0.622   4.379
 8562SOL    HW126585   3.894   0.523   4.372
 8562SOL    HW226586   3.896   0.662   4.287
 8563SOL     OW26587   2.757   3.013   6.482
 8563SOL    HW126588   2.834   2.968   6.438
 8563SOL    HW226589   2.673   2.962   6.463
 8564SOL     OW26590   0.627   5.459   3.271
 8564SOL    HW126591   0.725   5.462   3.255
 8564SOL    HW226592   0.610   5.452   3.370
 8565SOL     OW26593   3.571   1.013   1.433
 8565SOL    HW126594   3.504   0.941   1.451
 8565SOL    HW226595   3.660   0.971   1.413
 8566SOL     OW26596   1.672   4.179   4.426
 8566SOL    HW126597   1.740   4.105   4.423
 8566SOL    HW226598   1.655   4.213   4.334
 8567SOL     OW26599   5.402   6.508   6.255
 8567SOL    HW126600   5.322   6.481   6.309
 8567SOL    HW226601   5.485   6.473   6.298
 8568SOL     OW26602   5.669   0.029   0.748
 8568SOL    HW126603   5.605   7.009   0.814
 8568SOL    HW226604   5.618   0.064   0.670
 8569SOL     OW26605   3.141   0.653   5.387
 8569SOL    HW126606   3.042   0.663   5.401
 8569SOL    HW226607   3.169   0.710   5.310
 8570SOL     OW26608   6.542   3.402   6.241
 8570SOL    HW126609   6.575   3.318   6.284
 8570SOL    HW226610   6.605   3.477   6.263
 8571SOL     OW26611   6.565   4.398   5.912
 8571SOL    HW126612   6.561   4.498   5.912
 8571SOL    HW226613   6.608   4.367   5.997
 8572SOL     OW26614   2.704   4.814   6.292
 8572SOL    HW126615   2.711   4.808   6.392
 8572SOL    HW226616   2.717   4.909   6.263
 8573SOL     OW26617   3.424   6.040   4.054
 8573SOL    HW126618   3.486   6.061   3.979
 8573SOL    HW226619   3.418   5.941   4.066
 8574SOL     OW26620   1.097   4.110   4.034
 8574SOL    HW126621   1.089   4.055   4.117
 8574SOL    HW226622   1.017   4.169   4.025
 8575SOL     OW26623   3.035   3.352   6.250
 8575SOL    HW126624   3.052   3.444   6.286
 8575SOL    HW226625   2.951   3.354   6.195
 8576SOL     OW26626   2.123   0.227   0.838
 8576SOL    HW126627   2.117   0.147   0.779
 8576SOL    HW226628   2.032   0.266   0.849
 8577SOL     OW26629   6.498   5.575   4.354
 8577SOL    HW126630   6.534   5.641   4.420
 8577SOL    HW226631   6.418   5.614   4.308
 8578SOL     OW26632   4.777   0.520   3.959
 8578SOL    HW126633   4.699   0.480   4.006
 8578SOL    HW226634   4.836   0.567   4.026
 8579SOL     OW26635   0.680   4.432   2.645
 8579SOL    HW126636   0.764   4.474   2.611
 8579SOL    HW226637   0.648   4.363   2.580
 8580SOL     OW26638   2.379   5.640   5.930
 8580SOL    HW126639   2.476   5.660   5.920
 8580SOL    HW226640   2.345   5.596   5.847
 8581SOL     OW26641   3.428   3.414   0.256
 8581SOL    HW126642   3.399   3.373   0.343
 8581SOL    HW226643   3.411   3.512   0.258
 8582SOL     OW26644   3.878   4.680   0.146
 8582SOL    HW126645   3.939   4.759   0.135
 8582SOL    HW226646   3.799   4.707   0.202
 8583SOL     OW26647   5.558   6.863   4.462
 8583SOL    HW126648   5.543   6.961   4.450
 8583SOL    HW226649   5.650   6.847   4.497
 8584SOL     OW26650   0.051   5.767   6.297
 8584SOL    HW126651   7.009   5.768   6.220
 8584SOL    HW226652   0.145   5.756   6.264
 8585SOL     OW26653   1.398   1.532   0.779
 8585SOL    HW126654   1.322   1.596   0.768
 8585SOL    HW226655   1.484   1.576   0.754
 8586SOL     OW26656   3.909   5.000   3.529
 8586SOL    HW126657   3.834   4.963   3.475
 8586SOL    HW226658   3.934   4.935   3.600
 8587SOL     OW26659   6.735   1.482   1.405
 8587SOL    HW126660   6.665   1.546   1.374
 8587SOL    HW226661   6.734   1.478   1.505
 8588SOL     OW26662   3.599   2.867   6.365
 8588SOL    HW126663   3.531   2.920   6.416
 8588SOL    HW226664   3.674   2.928   6.338
 8589SOL     OW26665   2.632   1.807   4.518
 8589SOL    HW126666   2.546   1.791   4.568
 8589SOL    HW226667   2.621   1.778   4.423
 8590SOL     OW26668   5.658   4.777   5.650
 8590SOL    HW126669   5.600   4.824   5.583
 8590SOL    HW226670   5.672   4.837   5.729
 8591SOL     OW26671   0.697   3.053   0.565
 8591SOL    HW126672   0.688   3.149   0.588
 8591SOL    HW226673   0.609   3.016   0.536
 8592SOL     OW26674   6.455   6.237   0.028
 8592SOL    HW126675   6.441   6.305   0.099
 8592SOL    HW226676   6.401   6.155   0.049
 8593SOL     OW26677   0.701   5.280   3.046
 8593SOL    HW126678   0.677   5.245   2.955
 8593SOL    HW226679   0.620   5.319   3.089
 8594SOL     OW26680   4.109   3.249   2.677
 8594SOL    HW126681   4.075   3.159   2.705
 8594SOL    HW226682   4.110   3.254   2.578
 8595SOL     OW26683   1.698   2.938   1.903
 8595SOL    HW126684   1.642   2.857   1.922
 8595SOL    HW226685   1.769   2.914   1.836
 8596SOL     OW26686   6.642   4.019   2.428
 8596SOL    HW126687   6.689   4.104   2.453
 8596SOL    HW226688   6.545   4.038   2.417
 8597SOL     OW26689   1.802   1.630   0.981
 8597SOL    HW126690   1.704   1.647   0.986
 8597SOL    HW226691   1.850   1.716   0.962
 8598SOL     OW26692   6.025   2.809   1.737
 8598SOL    HW126693   5.957   2.754   1.784
 8598SOL    HW226694   6.110   2.810   1.790
 8599SOL     OW26695   1.110   2.588   0.895
 8599SOL    HW126696   1.112   2.493   0.866
 8599SOL    HW226697   1.100   2.647   0.815
 8600SOL     OW26698   6.871   2.461   5.997
 8600SOL    HW126699   6.865   2.388   5.929
 8600SOL    HW226700   6.880   2.549   5.951
 8601SOL     OW26701   0.726   0.469   4.882
 8601SOL    HW126702   0.779   0.529   4.822
 8601SOL    HW226703   0.732   0.375   4.849
 8602SOL     OW26704   1.119   6.321   2.307
 8602SOL    HW126705   1.191   6.253   2.290
 8602SOL    HW226706   1.035   6.293   2.260
 8603SOL     OW26707   4.951   3.772   1.989
 8603SOL    HW126708   4.950   3.691   1.930
 8603SOL    HW226709   4.911   3.849   1.939
 8604SOL     OW26710   6.163   2.032   3.532
 8604SOL    HW126711   6.071   2.026   3.496
 8604SOL    HW226712   6.161   2.072   3.624
 8605SOL     OW26713   2.727   5.174   1.541
 8605SOL    HW126714   2.722   5.168   1.441
 8605SOL    HW226715   2.760   5.087   1.578
 8606SOL     OW26716   4.028   5.296   4.448
 8606SOL    HW126717   3.938   5.266   4.417
 8606SOL    HW226718   4.064   5.231   4.515
 8607SOL     OW26719   2.694   6.473   0.352
 8607SOL    HW126720   2.762   6.412   0.392
 8607SOL    HW226721   2.611   6.421   0.332
 8608SOL     OW26722   5.659   6.662   2.436
 8608SOL    HW126723   5.637   6.642   2.341
 8608SOL    HW226724   5.758   6.663   2.448
 8609SOL     OW26725   5.499   0.429   6.008
 8609SOL    HW126726   5.529   0.361   5.942
 8609SOL    HW226727   5.399   0.436   6.005
 8610SOL     OW26728   6.801   6.481   5.390
 8610SOL    HW126729   6.834   6.541   5.463
 8610SOL    HW226730   6.767   6.396   5.430
 8611SOL     OW26731   1.867   1.949   2.701
 8611SOL    HW126732   1.868   1.951   2.801
 8611SOL    HW226733   1.876   1.854   2.670
 8612SOL     OW26734   5.368   3.190   4.328
 8612SOL    HW126735   5.420   3.122   4.380
 8612SOL    HW226736   5.297   3.143   4.275
 8613SOL     OW26737   1.044   0.366   0.539
 8613SOL    HW126738   0.994   0.423   0.605
 8613SOL    HW226739   1.026   0.270   0.558
 8614SOL     OW26740   1.665   3.113   2.915
 8614SOL    HW126741   1.733   3.040   2.910
 8614SOL    HW226742   1.703   3.190   2.967
 8615SOL     OW26743   4.950   1.826   6.105
 8615SOL    HW126744   4.937   1.821   6.204
 8615SOL    HW226745   4.877   1.882   6.065
 8616SOL     OW26746   0.969   3.213   0.669
 8616SOL    HW126747   0.995   3.130   0.717
 8616SOL    HW226748   1.035   3.233   0.597
 8617SOL     OW26749   6.246   3.014   0.816
 8617SOL    HW126750   6.157   3.022   0.772
 8617SOL    HW226751   6.259   2.920   0.848
 8618SOL     OW26752   3.742   1.220   2.921
 8618SOL    HW126753   3.656   1.182   2.889
 8618SOL    HW226754   3.744   1.221   3.021
 8619SOL     OW26755   3.702   6.642   0.785
 8619SOL    HW126756   3.742   6.729   0.813
 8619SOL    HW226757   3.705   6.634   0.686
 8620SOL     OW26758   6.068   6.056   3.893
 8620SOL    HW126759   6.085   5.993   3.817
 8620SOL    HW226760   6.052   6.003   3.976
 8621SOL     OW26761   4.975   1.200   3.325
 8621SOL    HW126762   5.032   1.189   3.406
 8621SOL    HW226763   4.998   1.285   3.278
 8622SOL     OW26764   5.107   5.436   6.101
 8622SOL    HW126765   5.129   5.426   6.004
 8622SOL    HW226766   5.072   5.348   6.136
 8623SOL     OW26767   6.099   1.800   3.787
 8623SOL    HW126768   6.135   1.893   3.786
 8623SOL    HW226769   6.131   1.751   3.706
 8624SOL     OW26770   6.332   3.115   3.514
 8624SOL    HW126771   6.290   3.110   3.424
 8624SOL    HW226772   6.321   3.208   3.551
 8625SOL     OW26773   3.614   1.597   6.368
 8625SOL    HW126774   3.647   1.572   6.459
 8625SOL    HW226775   3.526   1.644   6.376
 8626SOL     OW26776   3.223   3.756   1.953
 8626SOL    HW126777   3.320   3.733   1.950
 8626SOL    HW226778   3.211   3.847   1.994
 8627SOL     OW26779   3.207   0.316   6.893
 8627SOL    HW126780   3.130   0.354   6.944
 8627SOL    HW226781   3.210   0.217   6.906
 8628SOL     OW26782   6.485   1.616   1.372
 8628SOL    HW126783   6.439   1.597   1.286
 8628SOL    HW226784   6.451   1.701   1.410
 8629SOL     OW26785   1.755   5.866   3.414
 8629SOL    HW126786   1.735   5.769   3.401
 8629SOL    HW226787   1.675   5.911   3.454
 8630SOL     OW26788   5.077   4.890   4.111
 8630SOL    HW126789   5.114   4.982   4.101
 8630SOL    HW226790   5.148   4.823   4.089
 8631SOL     OW26791   3.990   6.530   3.358
 8631SOL    HW126792   4.059   6.497   3.421
 8631SOL    HW226793   4.024   6.523   3.264
 8632SOL     OW26794   3.298   0.836   3.024
 8632SOL    HW126795   3.278   0.771   3.098
 8632SOL    HW226796   3.352   0.911   3.060
 8633SOL     OW26797   6.411   6.700   2.724
 8633SOL    HW126798   6.355   6.781   2.710
 8633SOL    HW226799   6.429   6.656   2.637
 8634SOL     OW26800   6.155   6.170   1.567
 8634SOL    HW126801   6.176   6.116   1.648
 8634SOL    HW226802   6.230   6.235   1.550
 8635SOL     OW26803   5.911   3.855   5.781
 8635SOL    HW126804   5.843   3.788   5.750
 8635SOL    HW226805   5.864   3.936   5.816
 8636SOL     OW26806   5.691   5.254   0.977
 8636SOL    HW126807   5.651   5.164   0.959
 8636SOL    HW226808   5.789   5.245   0.993
 8637SOL     OW26809   0.929   0.480   2.191
 8637SOL    HW126810   0.922   0.576   2.165
 8637SOL    HW226811   0.837   0.441   2.201
 8638SOL     OW26812   5.840   4.565   1.220
 8638SOL    HW126813   5.786   4.600   1.144
 8638SOL    HW226814   5.936   4.557   1.193
 8639SOL     OW26815   5.934   2.449   2.718
 8639SOL    HW126816   6.034   2.454   2.713
 8639SOL    HW226817   5.904   2.479   2.808
 8640SOL     OW26818   4.912   6.078   1.518
 8640SOL    HW126819   4.860   5.998   1.488
 8640SOL    HW226820   4.918   6.078   1.618
 8641SOL     OW26821   5.545   4.559   3.676
 8641SOL    HW126822   5.527   4.472   3.721
 8641SOL    HW226823   5.573   4.543   3.581
 8642SOL     OW26824   4.657   1.293   0.840
 8642SOL    HW126825   4.657   1.202   0.881
 8642SOL    HW226826   4.576   1.304   0.782
 8643SOL     OW26827   4.669   0.096   6.840
 8643SOL    HW126828   4.706   0.004   6.823
 8643SOL    HW226829   4.661   0.145   6.754
 8644SOL     OW26830   6.392   3.314   5.551
 8644SOL    HW126831   6.301   3.344   5.581
 8644SOL    HW226832   6.387   3.216   5.528
 8645SOL     OW26833   6.581   3.536   1.624
 8645SOL    HW126834   6.668   3.584   1.634
 8645SOL    HW226835   6.508   3.589   1.667
 8646SOL     OW26836   5.027   6.597   0.503
 8646SOL    HW126837   5.038   6.588   0.404
 8646SOL    HW226838   4.930   6.588   0.527
 8647SOL     OW26839   4.838   5.009   2.263
 8647SOL    HW126840   4.883   5.021   2.352
 8647SOL    HW226841   4.902   5.034   2.190
 8648SOL     OW26842   6.118   0.469   3.945
 8648SOL    HW126843   6.120   0.559   3.988
 8648SOL    HW226844   6.050   0.469   3.872
 8649SOL     OW26845   6.194   4.099   5.899
 8649SOL    HW126846   6.151   4.187   5.882
 8649SOL    HW226847   6.240   4.102   5.988
 8650SOL     OW26848   0.424   5.622   1.589
 8650SOL    HW126849   0.512   5.668   1.600
 8650SOL    HW226850   0.357   5.665   1.649
 8651SOL     OW26851   4.380   3.301   1.259
 8651SOL    HW126852   4.464   3.284   1.312
 8651SOL    HW226853   4.344   3.391   1.282
 8652SOL     OW26854   0.614   2.338   4.312
 8652SOL    HW126855   0.628   2.432   4.279
 8652SOL    HW226856   0.559   2.340   4.395
 8653SOL     OW26857   5.205   3.182   6.617
 8653SOL    HW126858   5.291   3.228   6.594
 8653SOL    HW226859   5.224   3.088   6.645
 8654SOL     OW26860   1.571   4.927   1.633
 8654SOL    HW126861   1.534   4.941   1.541
 8654SOL    HW226862   1.645   4.859   1.629
 8655SOL     OW26863   5.465   5.933   2.994
 8655SOL    HW126864   5.498   6.027   2.991
 8655SOL    HW226865   5.521   5.875   2.935
 8656SOL     OW26866   6.298   2.343   2.077
 8656SOL    HW126867   6.216   2.306   2.034
 8656SOL    HW226868   6.272   2.419   2.138
 8657SOL     OW26869   3.054   5.227   0.509
 8657SOL    HW126870   2.998   5.232   0.592
 8657SOL    HW226871   3.065   5.131   0.482
 8658SOL     OW26872   1.277   5.764   5.865
 8658SOL    HW126873   1.263   5.669   5.896
 8658SOL    HW226874   1.235   5.827   5.931
 8659SOL     OW26875   4.121   0.011   4.669
 8659SOL    HW126876   4.149   0.106   4.684
 8659SOL    HW226877   4.202   6.976   4.655
 8660SOL     OW26878   4.712   4.651   0.130
 8660SOL    HW126879   4.682   4.559   0.155
 8660SOL    HW226880   4.633   4.705   0.101
 8661SOL     OW26881   6.310   3.318   2.068
 8661SOL    HW126882   6.368   3.398   2.055
 8661SOL    HW226883   6.347   3.262   2.142
 8662SOL     OW26884   0.254   0.983   7.017
 8662SOL    HW126885   0.189   0.944   6.952
 8662SOL    HW226886   0.308   1.054   6.971
 8663SOL     OW26887   2.547   5.259   1.052
 8663SOL    HW126888   2.485   5.320   1.102
 8663SOL    HW226889   2.631   5.307   1.029
 8664SOL     OW26890   4.798   4.746   1.509
 8664SOL    HW126891   4.844   4.745   1.598
 8664SOL    HW226892   4.864   4.724   1.437
 8665SOL     OW26893   5.273   5.250   4.498
 8665SOL    HW126894   5.324   5.325   4.542
 8665SOL    HW226895   5.192   5.287   4.453
 8666SOL     OW26896   6.816   4.391   4.509
 8666SOL    HW126897   6.850   4.387   4.415
 8666SOL    HW226898   6.834   4.482   4.546
 8667SOL     OW26899   5.488   2.476   3.498
 8667SOL    HW126900   5.414   2.459   3.433
 8667SOL    HW226901   5.464   2.434   3.586
 8668SOL     OW26902   3.533   0.707   5.264
 8668SOL    HW126903   3.436   0.707   5.238
 8668SOL    HW226904   3.569   0.800   5.259
 8669SOL     OW26905   3.780   6.874   6.448
 8669SOL    HW126906   3.755   6.848   6.355
 8669SOL    HW226907   3.813   6.793   6.497
 8670SOL     OW26908   4.422   4.541   2.407
 8670SOL    HW126909   4.460   4.535   2.499
 8670SOL    HW226910   4.488   4.506   2.341
 8671SOL     OW26911   6.167   6.154   2.059
 8671SOL    HW126912   6.175   6.055   2.068
 8671SOL    HW226913   6.092   6.187   2.117
 8672SOL     OW26914   3.854   4.965   4.487
 8672SOL    HW126915   3.901   4.879   4.507
 8672SOL    HW226916   3.797   4.991   4.565
 8673SOL     OW26917   4.949   2.433   6.839
 8673SOL    HW126918   4.970   2.486   6.921
 8673SOL    HW226919   4.922   2.340   6.867
 8674SOL     OW26920   0.733   6.906   3.039
 8674SOL    HW126921   0.830   6.924   3.056
 8674SOL    HW226922   0.682   6.992   3.039
 8675SOL     OW26923   2.437   1.759   2.733
 8675SOL    HW126924   2.431   1.857   2.713
 8675SOL    HW226925   2.470   1.710   2.652
 8676SOL     OW26926   4.535   1.151   3.964
 8676SOL    HW126927   4.503   1.145   4.059
 8676SOL    HW226928   4.595   1.230   3.954
 8677SOL     OW26929   2.158   3.681   5.780
 8677SOL    HW126930   2.200   3.604   5.827
 8677SOL    HW226931   2.229   3.738   5.739
 8678SOL     OW26932   1.322   0.652   5.818
 8678SOL    HW126933   1.280   0.581   5.761
 8678SOL    HW226934   1.367   0.609   5.897
 8679SOL     OW26935   6.101   1.854   4.784
 8679SOL    HW126936   6.015   1.898   4.810
 8679SOL    HW226937   6.092   1.811   4.695
 8680SOL     OW26938   0.907   3.753   0.339
 8680SOL    HW126939   0.812   3.754   0.310
 8680SOL    HW226940   0.943   3.847   0.338
 8681SOL     OW26941   4.256   4.034   1.351
 8681SOL    HW126942   4.196   4.085   1.289
 8681SOL    HW226943   4.202   3.996   1.426
 8682SOL     OW26944   1.427   6.096   2.774
 8682SOL    HW126945   1.427   6.131   2.680
 8682SOL    HW226946   1.407   5.998   2.772
 8683SOL     OW26947   4.790   3.173   7.013
 8683SOL    HW126948   4.819   3.077   0.004
 8683SOL    HW226949   4.709   3.190   0.048
 8684SOL     OW26950   6.314   2.576   3.370
 8684SOL    HW126951   6.305   2.638   3.291
 8684SOL    HW226952   6.409   2.546   3.378
 8685SOL     OW26953   6.990   1.763   5.500
 8685SOL    HW126954   7.014   1.776   5.596
 8685SOL    HW226955   6.906   1.709   5.493
 8686SOL     OW26956   6.406   1.331   3.812
 8686SOL    HW126957   6.439   1.250   3.862
 8686SOL    HW226958   6.479   1.399   3.807
 8687SOL     OW26959   3.746   0.945   3.013
 8687SOL    HW126960   3.786   0.939   3.105
 8687SOL    HW226961   3.810   0.988   2.951
 8688SOL     OW26962   0.936   6.708   2.670
 8688SOL    HW126963   0.953   6.743   2.578
 8688SOL    HW226964   0.889   6.620   2.663
 8689SOL     OW26965   5.423   4.034   1.468
 8689SOL    HW126966   5.513   3.990   1.467
 8689SOL    HW226967   5.365   3.992   1.538
 8690SOL     OW26968   1.678   0.883   2.339
 8690SOL    HW126969   1.770   0.908   2.370
 8690SOL    HW226970   1.629   0.839   2.414
 8691SOL     OW26971   6.173   1.467   0.460
 8691SOL    HW126972   6.145   1.439   0.552
 8691SOL    HW226973   6.132   1.406   0.392
 8692SOL     OW26974   1.568   0.948   3.545
 8692SOL    HW126975   1.647   0.904   3.588
 8692SOL    HW226976   1.486   0.894   3.562
 8693SOL     OW26977   5.075   2.047   6.745
 8693SOL    HW126978   5.044   2.109   6.818
 8693SOL    HW226979   5.084   2.098   6.660
 8694SOL     OW26980   3.997   0.090   6.881
 8694SOL    HW126981   3.961   0.100   6.974
 8694SOL    HW226982   3.921   0.088   6.816
 8695SOL     OW26983   4.525   4.481   5.292
 8695SOL    HW126984   4.445   4.473   5.233
 8695SOL    HW226985   4.580   4.559   5.264
 8696SOL     OW26986   2.314   5.294   0.598
 8696SOL    HW126987   2.412   5.287   0.577
 8696SOL    HW226988   2.284   5.209   0.642
 8697SOL     OW26989   5.117   5.051   6.430
 8697SOL    HW126990   5.172   5.124   6.472
 8697SOL    HW226991   5.162   4.963   6.445
 8698SOL     OW26992   5.690   5.809   5.246
 8698SOL    HW126993   5.599   5.794   5.206
 8698SOL    HW226994   5.759   5.773   5.184
 8699SOL     OW26995   1.726   1.302   4.733
 8699SOL    HW126996   1.647   1.347   4.774
 8699SOL    HW226997   1.754   1.351   4.651
 8700SOL     OW26998   2.599   2.217   6.136
 8700SOL    HW126999   2.627   2.233   6.041
 8700SOL    HW227000   2.525   2.280   6.160
 8701SOL     OW27001   1.228   1.218   3.705
 8701SOL    HW127002   1.276   1.271   3.636
 8701SOL    HW227003   1.251   1.121   3.695
 8702SOL     OW27004   4.936   6.705   6.702
 8702SOL    HW127005   4.960   6.630   6.640
 8702SOL    HW227006   5.000   6.706   6.779
 8703SOL     OW27007   1.173   5.081   1.427
 8703SOL    HW127008   1.141   5.079   1.333
 8703SOL    HW227009   1.262   5.036   1.434
 8704SOL     OW27010   1.064   4.391   1.867
 8704SOL    HW127011   1.163   4.400   1.877
 8704SOL    HW227012   1.024   4.375   1.957
 8705SOL     OW27013   4.563   6.459   4.457
 8705SOL    HW127014   4.563   6.441   4.556
 8705SOL    HW227015   4.619   6.391   4.411
 8706SOL     OW27016   4.853   0.653   5.769
 8706SOL    HW127017   4.863   0.714   5.690
 8706SOL    HW227018   4.780   0.688   5.828
 8707SOL     OW27019   4.024   1.772   5.965
 8707SOL    HW127020   3.937   1.742   5.926
 8707SOL    HW227021   4.099   1.739   5.908
 8708SOL     OW27022   3.969   1.582   0.902
 8708SOL    HW127023   3.945   1.555   0.809
 8708SOL    HW227024   3.984   1.501   0.958
 8709SOL     OW27025   5.377   3.401   0.519
 8709SOL    HW127026   5.287   3.401   0.477
 8709SOL    HW227027   5.379   3.467   0.594
 8710SOL     OW27028   6.499   3.479   4.169
 8710SOL    HW127029   6.408   3.502   4.203
 8710SOL    HW227030   6.493   3.457   4.071
 8711SOL     OW27031   1.069   1.023   4.593
 8711SOL    HW127032   1.066   1.101   4.531
 8711SOL    HW227033   1.156   0.975   4.582
 8712SOL     OW27034   3.490   0.253   6.904
 8712SOL    HW127035   3.522   0.212   6.989
 8712SOL    HW227036   3.390   0.254   6.903
 8713SOL     OW27037   6.265   4.899   2.833
 8713SOL    HW127038   6.325   4.979   2.829
 8713SOL    HW227039   6.259   4.866   2.927
 8714SOL     OW27040   1.684   1.714   3.769
 8714SOL    HW127041   1.702   1.744   3.676
 8714SOL    HW227042   1.760   1.741   3.828
 8715SOL     OW27043   5.729   1.052   2.455
 8715SOL    HW127044   5.806   1.081   2.511
 8715SOL    HW227045   5.755   0.972   2.401
 8716SOL     OW27046   0.534   1.041   2.003
 8716SOL    HW127047   0.517   1.058   2.100
 8716SOL    HW227048   0.466   0.977   1.968
 8717SOL     OW27049   4.236   3.592   0.883
 8717SOL    HW127050   4.212   3.502   0.848
 8717SOL    HW227051   4.323   3.587   0.931
 8718SOL     OW27052   0.125   2.736   5.615
 8718SOL    HW127053   0.204   2.687   5.578
 8718SOL    HW227054   0.121   2.828   5.577
 8719SOL     OW27055   6.204   0.699   5.826
 8719SOL    HW127056   6.194   0.798   5.834
 8719SOL    HW227057   6.242   0.662   5.911
 8720SOL     OW27058   5.112   3.312   5.110
 8720SOL    HW127059   5.193   3.350   5.153
 8720SOL    HW227060   5.120   3.212   5.105
 8721SOL     OW27061   6.935   0.560   5.146
 8721SOL    HW127062   7.017   0.578   5.201
 8721SOL    HW227063   6.864   0.522   5.205
 8722SOL     OW27064   3.064   2.925   0.585
 8722SOL    HW127065   2.979   2.941   0.637
 8722SOL    HW227066   3.099   3.012   0.552
 8723SOL     OW27067   0.334   5.689   0.727
 8723SOL    HW127068   0.408   5.660   0.666
 8723SOL    HW227069   0.346   5.646   0.816
 8724SOL     OW27070   4.811   5.664   6.603
 8724SOL    HW127071   4.741   5.616   6.551
 8724SOL    HW227072   4.896   5.610   6.601
 8725SOL     OW27073   2.447   6.563   1.192
 8725SOL    HW127074   2.403   6.473   1.195
 8725SOL    HW227075   2.378   6.634   1.206
 8726SOL     OW27076   0.301   0.280   1.008
 8726SOL    HW127077   0.262   0.243   1.091
 8726SOL    HW227078   0.370   0.217   0.972
 8727SOL     OW27079   5.592   6.526   1.164
 8727SOL    HW127080   5.528   6.603   1.164
 8727SOL    HW227081   5.542   6.441   1.147
 8728SOL     OW27082   2.627   5.878   5.324
 8728SOL    HW127083   2.622   5.827   5.238
 8728SOL    HW227084   2.720   5.912   5.337
 8729SOL     OW27085   4.662   5.666   4.535
 8729SOL    HW127086   4.730   5.618   4.480
 8729SOL    HW227087   4.598   5.714   4.476
 8730SOL     OW27088   6.156   5.980   1.136
 8730SOL    HW127089   6.067   5.936   1.132
 8730SOL    HW227090   6.221   5.929   1.078
 8731SOL     OW27091   0.437   1.610   2.418
 8731SOL    HW127092   0.510   1.542   2.428
 8731SOL    HW227093   0.436   1.669   2.499
 8732SOL     OW27094   6.678   6.060   1.915
 8732SOL    HW127095   6.665   6.131   1.985
 8732SOL    HW227096   6.766   6.016   1.929
 8733SOL     OW27097   6.996   0.457   0.714
 8733SOL    HW127098   6.938   0.407   0.779
 8733SOL    HW227099   6.984   0.419   0.623
 8734SOL     OW27100   6.480   6.128   0.881
 8734SOL    HW127101   6.444   6.174   0.800
 8734SOL    HW227102   6.491   6.194   0.955
 8735SOL     OW27103   0.570   3.158   6.383
 8735SOL    HW127104   0.608   3.164   6.291
 8735SOL    HW227105   0.479   3.116   6.380
 8736SOL     OW27106   0.290   5.000   6.027
 8736SOL    HW127107   0.314   5.027   5.934
 8736SOL    HW227108   0.195   4.971   6.030
 8737SOL     OW27109   3.823   5.778   6.681
 8737SOL    HW127110   3.797   5.683   6.699
 8737SOL    HW227111   3.904   5.801   6.736
 8738SOL     OW27112   0.887   4.172   5.445
 8738SOL    HW127113   0.957   4.238   5.474
 8738SOL    HW227114   0.928   4.080   5.442
 8739SOL     OW27115   1.195   3.720   5.611
 8739SOL    HW127116   1.100   3.734   5.637
 8739SOL    HW227117   1.237   3.809   5.588
 8740SOL     OW27118   1.825   6.508   0.697
 8740SOL    HW127119   1.750   6.514   0.762
 8740SOL    HW227120   1.794   6.462   0.613
 8741SOL     OW27121   1.310   3.797   2.026
 8741SOL    HW127122   1.334   3.828   2.118
 8741SOL    HW227123   1.329   3.870   1.960
 8742SOL     OW27124   4.668   5.655   2.271
 8742SOL    HW127125   4.626   5.681   2.184
 8742SOL    HW227126   4.716   5.568   2.260
 8743SOL     OW27127   2.722   4.927   2.237
 8743SOL    HW127128   2.775   4.996   2.188
 8743SOL    HW227129   2.679   4.967   2.318
 8744SOL     OW27130   2.847   3.356   5.611
 8744SOL    HW127131   2.802   3.342   5.522
 8744SOL    HW227132   2.946   3.353   5.598
 8745SOL     OW27133   5.446   2.062   6.603
 8745SOL    HW127134   5.515   1.997   6.635
 8745SOL    HW227135   5.450   2.069   6.503
 8746SOL     OW27136   5.535   3.720   4.309
 8746SOL    HW127137   5.496   3.639   4.353
 8746SOL    HW227138   5.592   3.770   4.374
 8747SOL     OW27139   0.355   1.576   4.039
 8747SOL    HW127140   0.402   1.490   4.054
 8747SOL    HW227141   0.373   1.638   4.116
 8748SOL     OW27142   2.921   0.094   6.604
 8748SOL    HW127143   3.005   0.039   6.605
 8748SOL    HW227144   2.858   0.060   6.675
 8749SOL     OW27145   3.942   1.335   3.485
 8749SOL    HW127146   4.037   1.330   3.516
 8749SOL    HW227147   3.887   1.269   3.537
 8750SOL     OW27148   1.861   0.637   5.007
 8750SOL    HW127149   1.883   0.653   5.103
 8750SOL    HW227150   1.941   0.597   4.962
 8751SOL     OW27151   1.677   6.369   2.889
 8751SOL    HW127152   1.769   6.372   2.929
 8751SOL    HW227153   1.620   6.437   2.935
 8752SOL     OW27154   2.090   0.757   5.945
 8752SOL    HW127155   2.130   0.847   5.963
 8752SOL    HW227156   1.992   0.759   5.966
 8753SOL     OW27157   5.530   1.202   5.073
 8753SOL    HW127158   5.534   1.284   5.015
 8753SOL    HW227159   5.449   1.207   5.132
 8754SOL     OW27160   1.620   0.981   5.552
 8754SOL    HW127161   1.717   0.997   5.535
 8754SOL    HW227162   1.597   1.013   5.644
 8755SOL     OW27163   2.235   1.901   0.556
 8755SOL    HW127164   2.158   1.965   0.555
 8755SOL    HW227165   2.210   1.819   0.608
 8756SOL     OW27166   2.769   5.295   4.529
 8756SOL    HW127167   2.857   5.247   4.533
 8756SOL    HW227168   2.721   5.269   4.445
 8757SOL     OW27169   3.140   5.355   3.600
 8757SOL    HW127170   3.166   5.346   3.504
 8757SOL    HW227171   3.222   5.356   3.657
 8758SOL     OW27172   5.017   6.522   2.435
 8758SOL    HW127173   4.991   6.483   2.346
 8758SOL    HW227174   4.935   6.540   2.488
 8759SOL     OW27175   5.385   0.504   6.403
 8759SOL    HW127176   5.340   0.562   6.335
 8759SOL    HW227177   5.484   0.513   6.394
 8760SOL     OW27178   1.839   2.925   3.572
 8760SOL    HW127179   1.767   2.981   3.613
 8760SOL    HW227180   1.901   2.893   3.644
 8761SOL     OW27181   5.236   6.052   1.478
 8761SOL    HW127182   5.153   6.027   1.528
 8761SOL    HW227183   5.314   6.050   1.540
 8762SOL     OW27184   1.128   5.278   1.199
 8762SOL    HW127185   1.220   5.316   1.191
 8762SOL    HW227186   1.064   5.350   1.228
 8763SOL     OW27187   0.637   6.268   6.726
 8763SOL    HW127188   0.625   6.367   6.714
 8763SOL    HW227189   0.548   6.226   6.746
 8764SOL     OW27190   3.300   2.164   6.205
 8764SOL    HW127191   3.362   2.233   6.244
 8764SOL    HW227192   3.263   2.199   6.119
 8765SOL     OW27193   6.071   0.026   4.868
 8765SOL    HW127194   6.068   6.968   4.930
 8765SOL    HW227195   6.112   0.104   4.915
 8766SOL     OW27196   2.315   4.340   2.306
 8766SOL    HW127197   2.300   4.438   2.321
 8766SOL    HW227198   2.412   4.323   2.291
 8767SOL     OW27199   4.508   0.342   5.116
 8767SOL    HW127200   4.420   0.337   5.162
 8767SOL    HW227201   4.518   0.430   5.070
 8768SOL     OW27202   0.377   4.224   0.300
 8768SOL    HW127203   0.467   4.267   0.289
 8768SOL    HW227204   0.356   4.170   0.219
 8769SOL     OW27205   1.812   0.569   6.337
 8769SOL    HW127206   1.813   0.558   6.237
 8769SOL    HW227207   1.858   0.492   6.380
 8770SOL     OW27208   5.763   1.513   3.100
 8770SOL    HW127209   5.674   1.488   3.137
 8770SOL    HW227210   5.751   1.577   3.023
 8771SOL     OW27211   2.993   3.008   5.243
 8771SOL    HW127212   3.066   3.062   5.285
 8771SOL    HW227213   2.908   3.020   5.295
 8772SOL     OW27214   6.537   6.702   6.769
 8772SOL    HW127215   6.477   6.677   6.693
 8772SOL    HW227216   6.524   6.799   6.791
 8773SOL     OW27217   2.984   1.603   2.877
 8773SOL    HW127218   2.997   1.556   2.964
 8773SOL    HW227219   3.071   1.639   2.844
 8774SOL     OW27220   1.418   1.468   6.860
 8774SOL    HW127221   1.364   1.542   6.900
 8774SOL    HW227222   1.435   1.399   6.930
 8775SOL     OW27223   6.676   6.148   4.074
 8775SOL    HW127224   6.653   6.053   4.054
 8775SOL    HW227225   6.648   6.170   4.167
 8776SOL     OW27226   3.064   3.724   5.391
 8776SOL    HW127227   3.093   3.733   5.295
 8776SOL    HW227228   3.128   3.772   5.450
 8777SOL     OW27229   6.057   5.993   3.115
 8777SOL    HW127230   5.962   5.999   3.142
 8777SOL    HW227231   6.064   6.000   3.015
 8778SOL     OW27232   1.282   3.153   2.765
 8778SOL    HW127233   1.338   3.167   2.682
 8778SOL    HW227234   1.337   3.106   2.834
 8779SOL     OW27235   1.633   4.716   1.056
 8779SOL    HW127236   1.649   4.814   1.045
 8779SOL    HW227237   1.620   4.695   1.153
 8780SOL     OW27238   2.182   5.754   5.243
 8780SOL    HW127239   2.146   5.810   5.168
 8780SOL    HW227240   2.110   5.693   5.276
 8781SOL     OW27241   1.700   2.615   2.478
 8781SOL    HW127242   1.657   2.673   2.547
 8781SOL    HW227243   1.656   2.630   2.389
 8782SOL     OW27244   5.524   1.500   3.716
 8782SOL    HW127245   5.513   1.482   3.813
 8782SOL    HW227246   5.599   1.565   3.702
 8783SOL     OW27247   6.226   2.490   5.801
 8783SOL    HW127248   6.307   2.486   5.860
 8783SOL    HW227249   6.253   2.516   5.709
 8784SOL     OW27250   5.613   4.235   5.683
 8784SOL    HW127251   5.515   4.248   5.666
 8784SOL    HW227252   5.657   4.200   5.600
 8785SOL     OW27253   5.325   4.073   6.372
 8785SOL    HW127254   5.420   4.078   6.402
 8785SOL    HW227255   5.321   4.086   6.272
 8786SOL     OW27256   1.547   6.130   6.800
 8786SOL    HW127257   1.579   6.223   6.823
 8786SOL    HW227258   1.615   6.086   6.742
 8787SOL     OW27259   1.254   2.501   6.807
 8787SOL    HW127260   1.251   2.458   6.896
 8787SOL    HW227261   1.218   2.439   6.738
 8788SOL     OW27262   1.258   2.153   5.251
 8788SOL    HW127263   1.175   2.110   5.215
 8788SOL    HW227264   1.334   2.136   5.187
 8789SOL     OW27265   6.764   1.330   0.638
 8789SOL    HW127266   6.843   1.391   0.640
 8789SOL    HW227267   6.783   1.253   0.576
 8790SOL     OW27268   4.082   1.380   6.367
 8790SOL    HW127269   4.164   1.368   6.311
 8790SOL    HW227270   4.108   1.401   6.461
 8791SOL     OW27271   5.241   6.169   5.246
 8791SOL    HW127272   5.295   6.231   5.189
 8791SOL    HW227273   5.300   6.125   5.314
 8792SOL     OW27274   5.073   6.804   2.637
 8792SOL    HW127275   5.030   6.757   2.560
 8792SOL    HW227276   5.164   6.837   2.609
 8793SOL     OW27277   0.862   4.459   3.322
 8793SOL    HW127278   0.861   4.367   3.361
 8793SOL    HW227279   0.811   4.522   3.381
 8794SOL     OW27280   2.885   6.212   2.540
 8794SOL    HW127281   2.907   6.116   2.525
 8794SOL    HW227282   2.786   6.223   2.549
 8795SOL     OW27283   2.993   6.602   4.798
 8795SOL    HW127284   2.957   6.672   4.736
 8795SOL    HW227285   2.937   6.519   4.791
 8796SOL     OW27286   4.769   2.242   4.690
 8796SOL    HW127287   4.789   2.265   4.785
 8796SOL    HW227288   4.851   2.258   4.634
 8797SOL     OW27289   0.330   5.543   6.615
 8797SOL    HW127290   0.402   5.611   6.604
 8797SOL    HW227291   0.240   5.587   6.608
 8798SOL     OW27292   3.095   3.457   5.382
 8798SOL    HW127293   3.129   3.547   5.410
 8798SOL    HW227294   3.017   3.470   5.319
 8799SOL     OW27295   3.778   0.865   2.100
 8799SOL    HW127296   3.705   0.844   2.166
 8799SOL    HW227297   3.864   0.877   2.149
 8800SOL     OW27298   3.738   3.737   0.644
 8800SOL    HW127299   3.749   3.719   0.546
 8800SOL    HW227300   3.826   3.721   0.691
 8801SOL     OW27301   3.169   6.516   5.685
 8801SOL    HW127302   3.243   6.584   5.684
 8801SOL    HW227303   3.081   6.564   5.681
 8802SOL     OW27304   1.716   6.487   1.454
 8802SOL    HW127305   1.620   6.469   1.431
 8802SOL    HW227306   1.775   6.432   1.394
 8803SOL     OW27307   3.808   5.978   1.966
 8803SOL    HW127308   3.742   5.926   1.912
 8803SOL    HW227309   3.762   6.055   2.011
 8804SOL     OW27310   2.531   0.751   1.628
 8804SOL    HW127311   2.527   0.794   1.719
 8804SOL    HW227312   2.585   0.667   1.634
 8805SOL     OW27313   0.582   0.303   3.924
 8805SOL    HW127314   0.570   0.360   3.843
 8805SOL    HW227315   0.556   0.209   3.904
 8806SOL     OW27316   2.241   4.790   6.820
 8806SOL    HW127317   2.246   4.839   6.907
 8806SOL    HW227318   2.317   4.726   6.814
 8807SOL     OW27319   2.307   5.311   6.842
 8807SOL    HW127320   2.258   5.273   6.763
 8807SOL    HW227321   2.349   5.237   6.894
 8808SOL     OW27322   6.009   2.506   0.714
 8808SOL    HW127323   5.994   2.581   0.778
 8808SOL    HW227324   5.937   2.505   0.646
 8809SOL     OW27325   6.474   4.849   0.260
 8809SOL    HW127326   6.507   4.768   0.211
 8809SOL    HW227327   6.518   4.931   0.223
 8810SOL     OW27328   5.003   1.436   3.794
 8810SOL    HW127329   4.934   1.502   3.820
 8810SOL    HW227330   5.007   1.428   3.694
 8811SOL     OW27331   0.855   0.909   3.282
 8811SOL    HW127332   0.767   0.946   3.312
 8811SOL    HW227333   0.929   0.962   3.322
 8812SOL     OW27334   2.584   1.272   0.043
 8812SOL    HW127335   2.583   1.264   0.143
 8812SOL    HW227336   2.495   1.242   0.007
 8813SOL     OW27337   1.067   5.770   1.249
 8813SOL    HW127338   1.080   5.673   1.269
 8813SOL    HW227339   1.103   5.824   1.324
 8814SOL     OW27340   5.614   6.951   5.593
 8814SOL    HW127341   5.694   7.010   5.583
 8814SOL    HW227342   5.532   7.007   5.606
 8815SOL     OW27343   6.259   5.058   3.198
 8815SOL    HW127344   6.200   4.987   3.158
 8815SOL    HW227345   6.288   5.121   3.127
 8816SOL     OW27346   0.732   5.547   2.444
 8816SOL    HW127347   0.715   5.479   2.516
 8816SOL    HW227348   0.806   5.608   2.473
 8817SOL     OW27349   2.149   3.921   5.232
 8817SOL    HW127350   2.248   3.932   5.218
 8817SOL    HW227351   2.118   3.837   5.187
 8818SOL     OW27352   6.695   4.757   5.175
 8818SOL    HW127353   6.770   4.693   5.196
 8818SOL    HW227354   6.674   4.812   5.256
 8819SOL     OW27355   0.175   0.818   4.830
 8819SOL    HW127356   0.232   0.875   4.771
 8819SOL    HW227357   0.155   0.731   4.784
 8820SOL     OW27358   0.947   2.596   3.120
 8820SOL    HW127359   1.028   2.573   3.066
 8820SOL    HW227360   0.968   2.671   3.182
 8821SOL     OW27361   1.045   6.737   6.858
 8821SOL    HW127362   0.970   6.796   6.885
 8821SOL    HW227363   1.105   6.720   6.936
 8822SOL     OW27364   1.176   2.636   4.102
 8822SOL    HW127365   1.215   2.642   4.010
 8822SOL    HW227366   1.231   2.574   4.158
 8823SOL     OW27367   2.371   5.062   1.005
 8823SOL    HW127368   2.408   4.972   1.029
 8823SOL    HW227369   2.437   5.132   1.032
 8824SOL     OW27370   4.896   3.863   1.436
 8824SOL    HW127371   4.867   3.907   1.351
 8824SOL    HW227372   4.973   3.913   1.475
 8825SOL     OW27373   2.569   2.069   0.286
 8825SOL    HW127374   2.544   1.976   0.259
 8825SOL    HW227375   2.543   2.084   0.382
 8826SOL     OW27376   5.586   0.198   1.621
 8826SOL    HW127377   5.669   0.250   1.601
 8826SOL    HW227378   5.506   0.252   1.597
 8827SOL     OW27379   6.519   1.797   3.856
 8827SOL    HW127380   6.502   1.780   3.759
 8827SOL    HW227381   6.444   1.756   3.910
 8828SOL     OW27382   1.732   5.958   3.745
 8828SOL    HW127383   1.677   6.042   3.750
 8828SOL    HW227384   1.763   5.944   3.651
 8829SOL     OW27385   0.883   0.473   1.402
 8829SOL    HW127386   0.963   0.453   1.346
 8829SOL    HW227387   0.805   0.495   1.342
 8830SOL     OW27388   1.371   1.355   0.969
 8830SOL    HW127389   1.380   1.415   0.889
 8830SOL    HW227390   1.419   1.269   0.952
 8831SOL     OW27391   6.471   0.692   1.739
 8831SOL    HW127392   6.457   0.781   1.696
 8831SOL    HW227393   6.480   0.704   1.838
 8832SOL     OW27394   6.212   1.442   1.985
 8832SOL    HW127395   6.297   1.459   2.034
 8832SOL    HW227396   6.155   1.380   2.039
 8833SOL     OW27397   0.910   5.304   2.064
 8833SOL    HW127398   0.923   5.373   2.136
 8833SOL    HW227399   0.836   5.242   2.091
 8834SOL     OW27400   6.733   4.621   3.847
 8834SOL    HW127401   6.705   4.584   3.935
 8834SOL    HW227402   6.822   4.584   3.821
 8835SOL     OW27403   0.505   1.432   0.560
 8835SOL    HW127404   0.546   1.418   0.650
 8835SOL    HW227405   0.557   1.383   0.491
 8836SOL     OW27406   4.625   1.564   1.737
 8836SOL    HW127407   4.540   1.601   1.775
 8836SOL    HW227408   4.703   1.603   1.786
 8837SOL     OW27409   0.262   2.543   2.377
 8837SOL    HW127410   0.278   2.496   2.290
 8837SOL    HW227411   0.230   2.477   2.445
 8838SOL     OW27412   1.417   0.060   3.438
 8838SOL    HW127413   1.485   0.098   3.376
 8838SOL    HW227414   1.345   0.129   3.455
 8839SOL     OW27415   5.505   5.143   4.691
 8839SOL    HW127416   5.437   5.131   4.619
 8839SOL    HW227417   5.460   5.148   4.780
 8840SOL     OW27418   4.432   0.834   1.969
 8840SOL    HW127419   4.399   0.858   2.060
 8840SOL    HW227420   4.520   0.786   1.977
 8841SOL     OW27421   3.691   6.836   3.428
 8841SOL    HW127422   3.623   6.861   3.497
 8841SOL    HW227423   3.779   6.819   3.473
 8842SOL     OW27424   1.413   1.845   1.918
 8842SOL    HW127425   1.365   1.813   1.836
 8842SOL    HW227426   1.360   1.918   1.962
 8843SOL     OW27427   6.787   2.994   4.202
 8843SOL    HW127428   6.822   2.908   4.166
 8843SOL    HW227429   6.820   3.008   4.295
 8844SOL     OW27430   6.073   1.741   0.293
 8844SOL    HW127431   6.145   1.673   0.284
 8844SOL    HW227432   6.072   1.799   0.211
 8845SOL     OW27433   4.992   2.521   0.103
 8845SOL    HW127434   4.973   2.465   0.183
 8845SOL    HW227435   4.913   2.579   0.082
 8846SOL     OW27436   3.067   5.076   4.188
 8846SOL    HW127437   3.157   5.048   4.223
 8846SOL    HW227438   3.060   5.175   4.190
 8847SOL     OW27439   0.911   1.502   3.352
 8847SOL    HW127440   0.945   1.586   3.309
 8847SOL    HW227441   0.815   1.489   3.327
 8848SOL     OW27442   0.636   1.395   3.515
 8848SOL    HW127443   0.538   1.378   3.515
 8848SOL    HW227444   0.672   1.381   3.423
 8849SOL     OW27445   3.063   6.847   1.346
 8849SOL    HW127446   3.144   6.901   1.368
 8849SOL    HW227447   2.992   6.906   1.309
 8850SOL     OW27448   3.099   1.829   0.106
 8850SOL    HW127449   3.143   1.859   0.022
 8850SOL    HW227450   3.115   1.731   0.118
 8851SOL     OW27451   1.887   4.020   1.864
 8851SOL    HW127452   1.854   3.945   1.806
 8851SOL    HW227453   1.978   3.998   1.898
 8852SOL     OW27454   0.951   2.556   4.450
 8852SOL    HW127455   0.935   2.500   4.532
 8852SOL    HW227456   0.990   2.644   4.477
 8853SOL     OW27457   4.456   0.554   1.681
 8853SOL    HW127458   4.501   0.474   1.642
 8853SOL    HW227459   4.440   0.539   1.779
 8854SOL     OW27460   6.611   2.297   5.021
 8854SOL    HW127461   6.625   2.214   5.074
 8854SOL    HW227462   6.691   2.315   4.964
 8855SOL     OW27463   4.991   4.663   1.339
 8855SOL    HW127464   5.020   4.568   1.343
 8855SOL    HW227465   4.980   4.691   1.244
 8856SOL     OW27466   5.979   0.890   5.549
 8856SOL    HW127467   5.894   0.924   5.510
 8856SOL    HW227468   6.010   0.952   5.621
 8857SOL     OW27469   6.990   2.155   6.279
 8857SOL    HW127470   6.940   2.125   6.197
 8857SOL    HW227471   6.985   2.254   6.286
 8858SOL     OW27472   6.715   5.526   4.683
 8858SOL    HW127473   6.771   5.498   4.761
 8858SOL    HW227474   6.775   5.551   4.607
 8859SOL     OW27475   0.343   5.408   2.978
 8859SOL    HW127476   0.374   5.501   2.992
 8859SOL    HW227477   0.260   5.409   2.921
 8860SOL     OW27478   6.415   2.836   2.558
 8860SOL    HW127479   6.485   2.903   2.532
 8860SOL    HW227480   6.445   2.744   2.531
 8861SOL     OW27481   3.088   2.415   1.396
 8861SOL    HW127482   3.053   2.508   1.404
 8861SOL    HW227483   3.136   2.390   1.481
 8862SOL     OW27484   4.500   4.608   4.666
 8862SOL    HW127485   4.512   4.705   4.684
 8862SOL    HW227486   4.408   4.580   4.693
 8863SOL     OW27487   1.618   3.420   1.862
 8863SOL    HW127488   1.549   3.348   1.859
 8863SOL    HW227489   1.633   3.455   1.769
 8864SOL     OW27490   6.362   1.721   4.770
 8864SOL    HW127491   6.417   1.750   4.849
 8864SOL    HW227492   6.266   1.739   4.789
 8865SOL     OW27493   2.717   1.376   0.867
 8865SOL    HW127494   2.659   1.439   0.919
 8865SOL    HW227495   2.701   1.282   0.898
 8866SOL     OW27496   6.362   0.144   1.823
 8866SOL    HW127497   6.414   0.177   1.744
 8866SOL    HW227498   6.289   0.209   1.844
 8867SOL     OW27499   6.032   2.268   3.265
 8867SOL    HW127500   6.047   2.223   3.353
 8867SOL    HW227501   5.947   2.235   3.225
 8868SOL     OW27502   0.509   2.792   3.518
 8868SOL    HW127503   0.605   2.806   3.494
 8868SOL    HW227504   0.451   2.819   3.442
 8869SOL     OW27505   4.418   7.013   3.776
 8869SOL    HW127506   4.355   6.936   3.767
 8869SOL    HW227507   4.496   6.986   3.833
 8870SOL     OW27508   0.932   0.738   2.126
 8870SOL    HW127509   0.896   0.785   2.046
 8870SOL    HW227510   1.030   0.722   2.114
 8871SOL     OW27511   0.168   6.643   1.026
 8871SOL    HW127512   0.112   6.566   1.057
 8871SOL    HW227513   0.193   6.700   1.104
 8872SOL     OW27514   6.698   4.822   3.670
 8872SOL    HW127515   6.698   4.914   3.709
 8872SOL    HW227516   6.754   4.761   3.727
 8873SOL     OW27517   1.773   1.778   3.531
 8873SOL    HW127518   1.758   1.872   3.501
 8873SOL    HW227519   1.818   1.727   3.458
 8874SOL     OW27520   2.666   6.012   0.636
 8874SOL    HW127521   2.680   6.100   0.683
 8874SOL    HW227522   2.644   5.942   0.703
 8875SOL     OW27523   6.299   2.777   4.098
 8875SOL    HW127524   6.223   2.810   4.042
 8875SOL    HW227525   6.297   2.823   4.186
 8876SOL     OW27526   4.565   0.355   0.684
 8876SOL    HW127527   4.612   0.285   0.631
 8876SOL    HW227528   4.513   0.414   0.623
 8877SOL     OW27529   0.993   4.337   1.338
 8877SOL    HW127530   0.968   4.241   1.350
 8877SOL    HW227531   0.950   4.392   1.409
 8878SOL     OW27532   4.912   3.807   2.405
 8878SOL    HW127533   4.866   3.853   2.329
 8878SOL    HW227534   4.877   3.714   2.414
 8879SOL     OW27535   0.173   4.346   3.936
 8879SOL    HW127536   0.098   4.286   3.966
 8879SOL    HW227537   0.184   4.339   3.837
 8880SOL     OW27538   3.965   2.027   2.597
 8880SOL    HW127539   3.935   1.938   2.565
 8880SOL    HW227540   3.990   2.084   2.518
 8881SOL     OW27541   3.792   5.162   3.022
 8881SOL    HW127542   3.848   5.185   2.942
 8881SOL    HW227543   3.828   5.079   3.065
 8882SOL     OW27544   4.090   1.475   0.284
 8882SOL    HW127545   4.178   1.493   0.328
 8882SOL    HW227546   4.037   1.410   0.339
 8883SOL     OW27547   0.686   6.695   3.252
 8883SOL    HW127548   0.720   6.602   3.236
 8883SOL    HW227549   0.690   6.746   3.166
 8884SOL     OW27550   4.703   1.973   6.191
 8884SOL    HW127551   4.724   1.987   6.288
 8884SOL    HW227552   4.664   2.058   6.154
 8885SOL     OW27553   5.991   5.092   0.823
 8885SOL    HW127554   6.012   5.176   0.873
 8885SOL    HW227555   6.021   5.102   0.728
 8886SOL     OW27556   4.646   6.431   0.320
 8886SOL    HW127557   4.674   6.470   0.232
 8886SOL    HW227558   4.710   6.460   0.391
 8887SOL     OW27559   4.121   0.408   1.898
 8887SOL    HW127560   4.210   0.363   1.913
 8887SOL    HW227561   4.136   0.496   1.854
 8888SOL     OW27562   3.962   2.170   2.061
 8888SOL    HW127563   3.963   2.073   2.036
 8888SOL    HW227564   3.886   2.215   2.015
 8889SOL     OW27565   1.775   4.821   6.432
 8889SOL    HW127566   1.787   4.878   6.351
 8889SOL    HW227567   1.756   4.727   6.405
 8890SOL     OW27568   1.687   6.034   0.042
 8890SOL    HW127569   1.643   6.054   6.975
 8890SOL    HW227570   1.641   5.955   0.084
 8891SOL     OW27571   5.461   3.435   5.612
 8891SOL    HW127572   5.380   3.393   5.570
 8891SOL    HW227573   5.513   3.485   5.543
 8892SOL     OW27574   2.711   5.347   4.981
 8892SOL    HW127575   2.766   5.265   4.999
 8892SOL    HW227576   2.720   5.410   5.058
 8893SOL     OW27577   0.552   4.660   5.423
 8893SOL    HW127578   0.578   4.566   5.399
 8893SOL    HW227579   0.631   4.706   5.464
 8894SOL     OW27580   5.483   2.358   1.581
 8894SOL    HW127581   5.495   2.365   1.482
 8894SOL    HW227582   5.563   2.311   1.621
 8895SOL     OW27583   0.310   3.534   1.844
 8895SOL    HW127584   0.311   3.634   1.855
 8895SOL    HW227585   0.216   3.503   1.829
 8896SOL     OW27586   0.867   0.996   3.683
 8896SOL    HW127587   0.858   1.043   3.595
 8896SOL    HW227588   0.782   1.005   3.734
 8897SOL     OW27589   1.642   5.124   4.533
 8897SOL    HW127590   1.548   5.159   4.528
 8897SOL    HW227591   1.706   5.201   4.523
 8898SOL     OW27592   6.070   5.183   2.990
 8898SOL    HW127593   6.083   5.223   3.081
 8898SOL    HW227594   5.986   5.219   2.949
 8899SOL     OW27595   2.280   4.585   1.518
 8899SOL    HW127596   2.242   4.592   1.426
 8899SOL    HW227597   2.209   4.607   1.586
 8900SOL     OW27598   3.883   1.800   4.667
 8900SOL    HW127599   3.919   1.842   4.750
 8900SOL    HW227600   3.891   1.700   4.674
 8901SOL     OW27601   0.901   4.817   5.272
 8901SOL    HW127602   0.958   4.768   5.338
 8901SOL    HW227603   0.824   4.860   5.320
 8902SOL     OW27604   0.638   4.817   6.666
 8902SOL    HW127605   0.680   4.797   6.577
 8902SOL    HW227606   0.695   4.778   6.738
 8903SOL     OW27607   0.739   0.567   4.127
 8903SOL    HW127608   0.643   0.562   4.099
 8903SOL    HW227609   0.755   0.501   4.200
 8904SOL     OW27610   6.918   1.526   2.733
 8904SOL    HW127611   6.938   1.530   2.830
 8904SOL    HW227612   6.820   1.538   2.719
 8905SOL     OW27613   1.795   5.006   1.418
 8905SOL    HW127614   1.789   5.104   1.398
 8905SOL    HW227615   1.870   4.966   1.366
 8906SOL     OW27616   6.196   0.508   6.697
 8906SOL    HW127617   6.204   0.519   6.796
 8906SOL    HW227618   6.099   0.502   6.672
 8907SOL     OW27619   2.747   3.032   5.337
 8907SOL    HW127620   2.668   3.023   5.276
 8907SOL    HW227621   2.720   3.004   5.430
 8908SOL     OW27622   1.681   5.626   5.706
 8908SOL    HW127623   1.612   5.687   5.745
 8908SOL    HW227624   1.768   5.675   5.698
 8909SOL     OW27625   2.254   6.202   1.988
 8909SOL    HW127626   2.308   6.213   1.905
 8909SOL    HW227627   2.160   6.180   1.964
 8910SOL     OW27628   1.075   0.851   3.774
 8910SOL    HW127629   0.990   0.898   3.753
 8910SOL    HW227630   1.136   0.855   3.695
 8911SOL     OW27631   5.008   2.766   4.147
 8911SOL    HW127632   4.930   2.810   4.191
 8911SOL    HW227633   5.044   2.825   4.075
 8912SOL     OW27634   3.536   2.966   3.547
 8912SOL    HW127635   3.554   2.997   3.454
 8912SOL    HW227636   3.617   2.980   3.604
 8913SOL     OW27637   5.002   5.677   1.046
 8913SOL    HW127638   4.999   5.728   0.960
 8913SOL    HW227639   5.049   5.732   1.115
 8914SOL     OW27640   4.896   5.042   5.298
 8914SOL    HW127641   4.925   5.123   5.350
 8914SOL    HW227642   4.963   5.022   5.227
 8915SOL     OW27643   2.599   1.168   3.404
 8915SOL    HW127644   2.526   1.106   3.377
 8915SOL    HW227645   2.592   1.254   3.352
 8916SOL     OW27646   5.965   0.374   2.149
 8916SOL    HW127647   6.002   0.460   2.116
 8916SOL    HW227648   5.891   0.344   2.088
 8917SOL     OW27649   5.917   2.243   0.409
 8917SOL    HW127650   5.858   2.192   0.346
 8917SOL    HW227651   5.875   2.332   0.429
 8918SOL     OW27652   1.492   3.193   2.583
 8918SOL    HW127653   1.542   3.230   2.661
 8918SOL    HW227654   1.508   3.250   2.503
 8919SOL     OW27655   6.418   2.329   3.025
 8919SOL    HW127656   6.463   2.256   3.077
 8919SOL    HW227657   6.472   2.351   2.944
 8920SOL     OW27658   0.965   1.985   0.591
 8920SOL    HW127659   0.927   1.999   0.682
 8920SOL    HW227660   0.895   2.006   0.522
 8921SOL     OW27661   0.650   2.534   1.154
 8921SOL    HW127662   0.717   2.482   1.206
 8921SOL    HW227663   0.697   2.589   1.085
 8922SOL     OW27664   2.721   5.046   3.372
 8922SOL    HW127665   2.754   4.976   3.309
 8922SOL    HW227666   2.772   5.040   3.458
 8923SOL     OW27667   2.551   1.695   3.652
 8923SOL    HW127668   2.550   1.621   3.719
 8923SOL    HW227669   2.510   1.664   3.566
 8924SOL     OW27670   6.130   5.133   4.763
 8924SOL    HW127671   6.197   5.059   4.758
 8924SOL    HW227672   6.039   5.095   4.779
 8925SOL     OW27673   0.588   6.428   3.657
 8925SOL    HW127674   0.537   6.498   3.708
 8925SOL    HW227675   0.588   6.342   3.708
 8926SOL     OW27676   5.899   2.150   6.685
 8926SOL    HW127677   5.993   2.122   6.664
 8926SOL    HW227678   5.861   2.200   6.608
 8927SOL     OW27679   1.508   1.854   6.396
 8927SOL    HW127680   1.587   1.898   6.352
 8927SOL    HW227681   1.456   1.804   6.327
 8928SOL     OW27682   0.823   6.686   5.129
 8928SOL    HW127683   0.917   6.721   5.127
 8928SOL    HW227684   0.811   6.618   5.056
 8929SOL     OW27685   6.531   1.423   3.475
 8929SOL    HW127686   6.497   1.335   3.508
 8929SOL    HW227687   6.624   1.413   3.441
 8930SOL     OW27688   2.175   5.256   2.630
 8930SOL    HW127689   2.260   5.207   2.649
 8930SOL    HW227690   2.144   5.302   2.713
 8931SOL     OW27691   4.401   2.968   0.161
 8931SOL    HW127692   4.476   3.031   0.142
 8931SOL    HW227693   4.314   3.017   0.157
 8932SOL     OW27694   0.616   3.621   2.366
 8932SOL    HW127695   0.655   3.706   2.400
 8932SOL    HW227696   0.641   3.608   2.270
 8933SOL     OW27697   4.924   2.297   5.912
 8933SOL    HW127698   4.832   2.263   5.892
 8933SOL    HW227699   4.917   2.383   5.963
 8934SOL     OW27700   2.568   6.174   2.595
 8934SOL    HW127701   2.487   6.205   2.644
 8934SOL    HW227702   2.540   6.125   2.512
 8935SOL     OW27703   0.085   5.680   6.582
 8935SOL    HW127704   0.085   5.702   6.484
 8935SOL    HW227705   0.014   5.612   6.601
 8936SOL     OW27706   4.552   3.130   0.800
 8936SOL    HW127707   4.536   3.047   0.853
 8936SOL    HW227708   4.541   3.111   0.703
 8937SOL     OW27709   0.112   1.188   6.323
 8937SOL    HW127710   0.021   1.193   6.364
 8937SOL    HW227711   0.121   1.103   6.271
 8938SOL     OW27712   4.514   5.516   1.846
 8938SOL    HW127713   4.541   5.593   1.788
 8938SOL    HW227714   4.588   5.496   1.910
 8939SOL     OW27715   5.779   2.063   4.434
 8939SOL    HW127716   5.798   2.129   4.360
 8939SOL    HW227717   5.778   1.971   4.396
 8940SOL     OW27718   5.515   6.854   2.592
 8940SOL    HW127719   5.492   6.818   2.682
 8940SOL    HW227720   5.566   6.786   2.541
 8941SOL     OW27721   3.890   1.921   0.308
 8941SOL    HW127722   3.951   1.851   0.271
 8941SOL    HW227723   3.941   1.977   0.374
 8942SOL     OW27724   1.177   2.163   5.841
 8942SOL    HW127725   1.098   2.133   5.787
 8942SOL    HW227726   1.215   2.246   5.802
 8943SOL     OW27727   5.377   3.594   0.720
 8943SOL    HW127728   5.364   3.582   0.818
 8943SOL    HW227729   5.328   3.676   0.689
 8944SOL     OW27730   4.271   5.552   1.072
 8944SOL    HW127731   4.315   5.642   1.067
 8944SOL    HW227732   4.251   5.531   1.168
 8945SOL     OW27733   2.283   1.410   3.681
 8945SOL    HW127734   2.207   1.386   3.741
 8945SOL    HW227735   2.368   1.415   3.734
 8946SOL     OW27736   3.737   0.951   4.920
 8946SOL    HW127737   3.721   1.046   4.947
 8946SOL    HW227738   3.774   0.901   4.999
 8947SOL     OW27739   3.660   3.574   5.323
 8947SOL    HW127740   3.706   3.510   5.261
 8947SOL    HW227741   3.582   3.529   5.367
 8948SOL     OW27742   5.383   4.810   3.606
 8948SOL    HW127743   5.453   4.739   3.615
 8948SOL    HW227744   5.401   4.884   3.671
 8949SOL     OW27745   1.605   5.828   6.062
 8949SOL    HW127746   1.575   5.807   5.968
 8949SOL    HW227747   1.667   5.756   6.093
 8950SOL     OW27748   4.817   2.943   4.560
 8950SOL    HW127749   4.764   2.941   4.645
 8950SOL    HW227750   4.823   2.851   4.522
 8951SOL     OW27751   2.965   1.853   5.521
 8951SOL    HW127752   2.927   1.853   5.613
 8951SOL    HW227753   2.890   1.858   5.454
 8952SOL     OW27754   6.103   6.806   3.447
 8952SOL    HW127755   6.068   6.790   3.540
 8952SOL    HW227756   6.040   6.866   3.398
 8953SOL     OW27757   1.237   5.106   5.567
 8953SOL    HW127758   1.268   5.200   5.583
 8953SOL    HW227759   1.250   5.053   5.651
 8954SOL     OW27760   2.483   6.645   6.348
 8954SOL    HW127761   2.419   6.571   6.330
 8954SOL    HW227762   2.515   6.683   6.261
 8955SOL     OW27763   0.043   3.936   4.196
 8955SOL    HW127764   0.128   3.937   4.143
 8955SOL    HW227765   0.064   3.949   4.293
 8956SOL     OW27766   0.823   0.743   4.357
 8956SOL    HW127767   0.912   0.711   4.389
 8956SOL    HW227768   0.786   0.679   4.289
 8957SOL     OW27769   3.461   6.009   2.113
 8957SOL    HW127770   3.420   5.929   2.068
 8957SOL    HW227771   3.489   5.984   2.205
 8958SOL     OW27772   3.276   0.727   5.103
 8958SOL    HW127773   3.222   0.811   5.102
 8958SOL    HW227774   3.235   0.660   5.041
 8959SOL     OW27775   3.934   4.968   6.906
 8959SOL    HW127776   4.019   5.021   6.908
 8959SOL    HW227777   3.947   4.887   6.850
 8960SOL     OW27778   4.130   5.726   0.246
 8960SOL    HW127779   4.141   5.807   0.187
 8960SOL    HW227780   4.205   5.722   0.312
 8961SOL     OW27781   0.689   2.865   4.227
 8961SOL    HW127782   0.739   2.948   4.253
 8961SOL    HW227783   0.631   2.884   4.147
 8962SOL     OW27784   4.935   0.288   3.958
 8962SOL    HW127785   4.993   0.284   3.877
 8962SOL    HW227786   4.885   0.375   3.959
 8963SOL     OW27787   1.015   0.904   4.067
 8963SOL    HW127788   0.985   0.823   4.117
 8963SOL    HW227789   1.013   0.886   3.969
 8964SOL     OW27790   0.720   2.970   3.266
 8964SOL    HW127791   0.728   2.902   3.339
 8964SOL    HW227792   0.808   2.977   3.217
 8965SOL     OW27793   1.772   5.249   1.268
 8965SOL    HW127794   1.850   5.300   1.231
 8965SOL    HW227795   1.711   5.311   1.317
 8966SOL     OW27796   3.953   2.046   4.824
 8966SOL    HW127797   3.971   2.122   4.887
 8966SOL    HW227798   4.011   2.055   4.744
 8967SOL     OW27799   5.495   6.598   0.511
 8967SOL    HW127800   5.483   6.548   0.426
 8967SOL    HW227801   5.405   6.613   0.554
 8968SOL     OW27802   6.084   3.814   3.827
 8968SOL    HW127803   6.050   3.851   3.741
 8968SOL    HW227804   6.184   3.807   3.824
 8969SOL     OW27805   6.465   6.995   4.141
 8969SOL    HW127806   6.539   0.038   4.121
 8969SOL    HW227807   6.404   6.988   4.061
 8970SOL     OW27808   3.002   2.653   1.463
 8970SOL    HW127809   2.903   2.658   1.473
 8970SOL    HW227810   3.038   2.742   1.437
 8971SOL     OW27811   3.793   6.672   2.977
 8971SOL    HW127812   3.749   6.665   2.888
 8971SOL    HW227813   3.744   6.739   3.033
 8972SOL     OW27814   5.095   0.403   4.963
 8972SOL    HW127815   5.086   0.344   5.043
 8972SOL    HW227816   5.192   0.419   4.945
 8973SOL     OW27817   2.036   4.765   6.437
 8973SOL    HW127818   2.045   4.693   6.505
 8973SOL    HW227819   1.960   4.826   6.461
 8974SOL     OW27820   0.228   2.481   4.041
 8974SOL    HW127821   0.297   2.527   4.097
 8974SOL    HW227822   0.259   2.479   3.945
 8975SOL     OW27823   3.561   0.792   5.960
 8975SOL    HW127824   3.514   0.711   5.995
 8975SOL    HW227825   3.659   0.772   5.951
 8976SOL     OW27826   1.509   5.996   3.496
 8976SOL    HW127827   1.533   6.056   3.573
 8976SOL    HW227828   1.495   5.903   3.530
 8977SOL     OW27829   5.223   1.579   0.140
 8977SOL    HW127830   5.308   1.530   0.122
 8977SOL    HW227831   5.204   1.579   0.238
 8978SOL     OW27832   5.576   5.051   1.423
 8978SOL    HW127833   5.529   5.074   1.337
 8978SOL    HW227834   5.624   4.964   1.412
 8979SOL     OW27835   0.911   4.774   4.840
 8979SOL    HW127836   0.918   4.862   4.793
 8979SOL    HW227837   0.941   4.701   4.779
 8980SOL     OW27838   2.962   3.410   4.211
 8980SOL    HW127839   3.000   3.421   4.303
 8980SOL    HW227840   2.985   3.319   4.176
 8981SOL     OW27841   2.798   1.956   5.316
 8981SOL    HW127842   2.794   1.889   5.242
 8981SOL    HW227843   2.802   2.048   5.276
 8982SOL     OW27844   3.698   5.026   0.533
 8982SOL    HW127845   3.600   5.040   0.523
 8982SOL    HW227846   3.721   5.021   0.630
 8983SOL     OW27847   4.868   4.537   0.913
 8983SOL    HW127848   4.900   4.530   0.819
 8983SOL    HW227849   4.773   4.566   0.915
 8984SOL     OW27850   1.592   6.701   3.454
 8984SOL    HW127851   1.529   6.757   3.399
 8984SOL    HW227852   1.561   6.700   3.549
 8985SOL     OW27853   3.362   3.002   6.412
 8985SOL    HW127854   3.401   2.996   6.320
 8985SOL    HW227855   3.280   3.059   6.410
 8986SOL     OW27856   2.603   6.041   1.993
 8986SOL    HW127857   2.620   5.961   1.936
 8986SOL    HW227858   2.512   6.033   2.035
 8987SOL     OW27859   4.972   6.745   2.170
 8987SOL    HW127860   4.880   6.713   2.191
 8987SOL    HW227861   5.000   6.710   2.080
 8988SOL     OW27862   0.368   4.498   4.790
 8988SOL    HW127863   0.363   4.406   4.828
 8988SOL    HW227864   0.416   4.558   4.855
 8989SOL     OW27865   2.430   2.167   6.781
 8989SOL    HW127866   2.398   2.161   6.876
 8989SOL    HW227867   2.527   2.145   6.777
 8990SOL     OW27868   0.449   4.916   4.347
 8990SOL    HW127869   0.379   4.883   4.410
 8990SOL    HW227870   0.464   4.848   4.275
 8991SOL     OW27871   1.547   2.498   5.153
 8991SOL    HW127872   1.601   2.447   5.219
 8991SOL    HW227873   1.586   2.487   5.061
 8992SOL     OW27874   6.163   2.074   1.796
 8992SOL    HW127875   6.240   2.042   1.851
 8992SOL    HW227876   6.126   2.157   1.837
 8993SOL     OW27877   4.371   1.965   1.035
 8993SOL    HW127878   4.358   2.016   0.950
 8993SOL    HW227879   4.462   1.923   1.036
 8994SOL     OW27880   1.868   5.497   2.653
 8994SOL    HW127881   1.937   5.456   2.713
 8994SOL    HW227882   1.831   5.579   2.697
 8995SOL     OW27883   0.486   0.580   1.622
 8995SOL    HW127884   0.510   0.587   1.719
 8995SOL    HW227885   0.519   0.494   1.585
 8996SOL     OW27886   4.087   5.785   5.599
 8996SOL    HW127887   4.040   5.867   5.569
 8996SOL    HW227888   4.077   5.713   5.530
 8997SOL     OW27889   6.209   0.151   5.093
 8997SOL    HW127890   6.185   0.069   5.144
 8997SOL    HW227891   6.308   0.164   5.094
 8998SOL     OW27892   6.797   4.171   5.176
 8998SOL    HW127893   6.739   4.249   5.153
 8998SOL    HW227894   6.744   4.103   5.226
 8999SOL     OW27895   4.136   5.697   6.231
 8999SOL    HW127896   4.148   5.616   6.289
 8999SOL    HW227897   4.080   5.765   6.280
 9000SOL     OW27898   0.681   4.345   1.086
 9000SOL    HW127899   0.721   4.257   1.060
 9000SOL    HW227900   0.582   4.343   1.068
 9001SOL     OW27901   1.502   5.850   0.683
 9001SOL    HW127902   1.472   5.758   0.658
 9001SOL    HW227903   1.575   5.843   0.751
 9002SOL     OW27904   6.677   5.613   6.520
 9002SOL    HW127905   6.691   5.644   6.614
 9002SOL    HW227906   6.652   5.692   6.463
 9003SOL     OW27907   4.968   6.855   0.655
 9003SOL    HW127908   5.011   6.770   0.625
 9003SOL    HW227909   4.880   6.866   0.609
 9004SOL     OW27910   6.045   5.129   1.741
 9004SOL    HW127911   6.021   5.072   1.819
 9004SOL    HW227912   6.042   5.225   1.767
 9005SOL     OW27913   4.938   0.798   4.366
 9005SOL    HW127914   4.888   0.877   4.400
 9005SOL    HW227915   5.034   0.807   4.389
 9006SOL     OW27916   3.694   6.314   0.417
 9006SOL    HW127917   3.744   6.323   0.331
 9006SOL    HW227918   3.597   6.334   0.402
 9007SOL     OW27919   0.347   0.606   3.552
 9007SOL    HW127920   0.274   0.570   3.494
 9007SOL    HW227921   0.320   0.599   3.648
 9008SOL     OW27922   6.821   5.384   2.383
 9008SOL    HW127923   6.774   5.303   2.417
 9008SOL    HW227924   6.914   5.387   2.419
 9009SOL     OW27925   2.943   6.518   2.024
 9009SOL    HW127926   2.970   6.475   2.110
 9009SOL    HW227927   2.902   6.607   2.042
 9010SOL     OW27928   1.638   5.695   4.579
 9010SOL    HW127929   1.632   5.777   4.522
 9010SOL    HW227930   1.733   5.684   4.611
 9011SOL     OW27931   2.312   2.135   2.212
 9011SOL    HW127932   2.292   2.214   2.271
 9011SOL    HW227933   2.385   2.080   2.253
 9012SOL     OW27934   2.544   6.351   6.810
 9012SOL    HW127935   2.491   6.321   6.731
 9012SOL    HW227936   2.483   6.394   6.877
 9013SOL     OW27937   2.012   0.482   4.522
 9013SOL    HW127938   1.913   0.473   4.517
 9013SOL    HW227939   2.039   0.573   4.490
 9014SOL     OW27940   5.252   3.383   3.664
 9014SOL    HW127941   5.185   3.377   3.591
 9014SOL    HW227942   5.206   3.401   3.751
 9015SOL     OW27943   4.141   6.659   6.116
 9015SOL    HW127944   4.049   6.683   6.084
 9015SOL    HW227945   4.161   6.564   6.092
 9016SOL     OW27946   5.176   4.405   5.935
 9016SOL    HW127947   5.244   4.382   6.005
 9016SOL    HW227948   5.086   4.414   5.977
 9017SOL     OW27949   2.749   0.235   5.321
 9017SOL    HW127950   2.765   0.136   5.331
 9017SOL    HW227951   2.835   0.284   5.338
 9018SOL     OW27952   4.001   5.025   0.474
 9018SOL    HW127953   4.029   4.964   0.548
 9018SOL    HW227954   3.902   5.042   0.481
 9019SOL     OW27955   0.568   3.414   4.149
 9019SOL    HW127956   0.564   3.468   4.232
 9019SOL    HW227957   0.656   3.366   4.144
 9020SOL     OW27958   5.752   4.776   3.580
 9020SOL    HW127959   5.822   4.725   3.530
 9020SOL    HW227960   5.734   4.732   3.667
 9021SOL     OW27961   6.923   1.222   4.156
 9021SOL    HW127962   6.863   1.183   4.226
 9021SOL    HW227963   6.893   1.315   4.135
 9022SOL     OW27964   4.558   3.437   0.052
 9022SOL    HW127965   4.653   3.453   0.024
 9022SOL    HW227966   4.501   3.514   0.024
 9023SOL     OW27967   6.905   4.747   0.726
 9023SOL    HW127968   6.891   4.649   0.740
 9023SOL    HW227969   6.817   4.791   0.704
 9024SOL     OW27970   2.320   4.698   5.883
 9024SOL    HW127971   2.334   4.678   5.980
 9024SOL    HW227972   2.316   4.797   5.870
 9025SOL     OW27973   0.895   6.280   1.036
 9025SOL    HW127974   0.812   6.229   1.061
 9025SOL    HW227975   0.970   6.215   1.020
 9026SOL     OW27976   5.724   1.060   0.097
 9026SOL    HW127977   5.764   1.005   0.170
 9026SOL    HW227978   5.775   1.146   0.088
 9027SOL     OW27979   0.083   3.843   3.074
 9027SOL    HW127980   0.108   3.799   2.988
 9027SOL    HW227981   0.166   3.881   3.117
 9028SOL     OW27982   3.247   4.777   6.739
 9028SOL    HW127983   3.324   4.751   6.681
 9028SOL    HW227984   3.168   4.798   6.682
 9029SOL     OW27985   4.156   6.161   4.997
 9029SOL    HW127986   4.199   6.206   5.075
 9029SOL    HW227987   4.075   6.111   5.026
 9030SOL     OW27988   2.780   2.314   2.256
 9030SOL    HW127989   2.851   2.348   2.316
 9030SOL    HW227990   2.819   2.292   2.166
 9031SOL     OW27991   5.140   0.178   5.174
 9031SOL    HW127992   5.234   0.209   5.185
 9031SOL    HW227993   5.101   0.156   5.263
 9032SOL     OW27994   5.447   2.870   1.048
 9032SOL    HW127995   5.371   2.896   1.107
 9032SOL    HW227996   5.421   2.883   0.952
 9033SOL     OW27997   1.345   6.400   2.706
 9033SOL    HW127998   1.370   6.496   2.717
 9033SOL    HW227999   1.248   6.393   2.680
 9034SOL     OW28000   4.654   6.748   5.040
 9034SOL    HW128001   4.722   6.793   5.098
 9034SOL    HW228002   4.694   6.731   4.949
 9035SOL     OW28003   2.904   5.219   6.079
 9035SOL    HW128004   2.854   5.280   6.141
 9035SOL    HW228005   2.912   5.262   5.989
 9036SOL     OW28006   0.712   5.408   5.228
 9036SOL    HW128007   0.622   5.394   5.268
 9036SOL    HW228008   0.744   5.323   5.186
 9037SOL     OW28009   0.229   0.370   2.264
 9037SOL    HW128010   0.268   0.308   2.196
 9037SOL    HW228011   0.176   0.318   2.331
 9038SOL     OW28012   3.845   3.263   5.568
 9038SOL    HW128013   3.918   3.239   5.504
 9038SOL    HW228014   3.872   3.345   5.619
 9039SOL     OW28015   4.316   6.053   6.677
 9039SOL    HW128016   4.217   6.054   6.664
 9039SOL    HW228017   4.344   5.968   6.721
 9040SOL     OW28018   2.100   2.201   1.769
 9040SOL    HW128019   2.100   2.102   1.755
 9040SOL    HW228020   2.193   2.231   1.790
 9041SOL     OW28021   6.037   2.045   2.755
 9041SOL    HW128022   6.107   2.111   2.780
 9041SOL    HW228023   5.952   2.067   2.803
 9042SOL     OW28024   5.614   5.620   6.564
 9042SOL    HW128025   5.561   5.624   6.648
 9042SOL    HW228026   5.711   5.637   6.584
 9043SOL     OW28027   2.689   2.921   1.519
 9043SOL    HW128028   2.715   2.825   1.524
 9043SOL    HW228029   2.591   2.931   1.535
 9044SOL     OW28030   1.626   0.609   0.267
 9044SOL    HW128031   1.717   0.568   0.258
 9044SOL    HW228032   1.604   0.662   0.186
 9045SOL     OW28033   3.679   0.706   3.684
 9045SOL    HW128034   3.601   0.744   3.634
 9045SOL    HW228035   3.676   0.606   3.678
 9046SOL     OW28036   3.930   3.664   2.429
 9046SOL    HW128037   3.852   3.638   2.373
 9046SOL    HW228038   3.934   3.605   2.510
 9047SOL     OW28039   0.459   4.598   5.761
 9047SOL    HW128040   0.495   4.574   5.671
 9047SOL    HW228041   0.519   4.667   5.803
 9048SOL     OW28042   6.920   1.844   5.155
 9048SOL    HW128043   6.897   1.854   5.058
 9048SOL    HW228044   6.982   1.917   5.183
 9049SOL     OW28045   1.514   6.881   5.493
 9049SOL    HW128046   1.452   6.867   5.570
 9049SOL    HW228047   1.517   6.978   5.470
 9050SOL     OW28048   1.180   4.575   0.052
 9050SOL    HW128049   1.195   4.531   0.141
 9050SOL    HW228050   1.268   4.594   0.009
 9051SOL     OW28051   2.172   0.816   1.753
 9051SOL    HW128052   2.220   0.892   1.708
 9051SOL    HW228053   2.183   0.824   1.852
 9052SOL     OW28054   2.034   3.167   6.474
 9052SOL    HW128055   2.017   3.167   6.376
 9052SOL    HW228056   2.010   3.256   6.513
 9053SOL     OW28057   0.306   1.349   7.012
 9053SOL    HW128058   0.348   1.437   6.991
 9053SOL    HW228059   0.327   1.324   0.086
 9054SOL     OW28060   1.563   5.727   3.037
 9054SOL    HW128061   1.507   5.753   2.959
 9054SOL    HW228062   1.511   5.668   3.098
 9055SOL     OW28063   0.909   2.627   5.970
 9055SOL    HW128064   0.971   2.560   6.011
 9055SOL    HW228065   0.815   2.595   5.977
 9056SOL     OW28066   5.755   1.795   4.293
 9056SOL    HW128067   5.813   1.738   4.235
 9056SOL    HW228068   5.665   1.805   4.252
 9057SOL     OW28069   5.026   1.444   3.533
 9057SOL    HW128070   4.971   1.472   3.455
 9057SOL    HW228071   5.119   1.424   3.502
 9058SOL     OW28072   2.161   0.123   5.918
 9058SOL    HW128073   2.083   0.128   5.980
 9058SOL    HW228074   2.161   0.034   5.872
 9059SOL     OW28075   1.334   2.100   3.819
 9059SOL    HW128076   1.328   2.177   3.883
 9059SOL    HW228077   1.265   2.032   3.843
 9060SOL     OW28078   5.306   2.702   5.081
 9060SOL    HW128079   5.312   2.622   5.021
 9060SOL    HW228080   5.322   2.785   5.028
 9061SOL     OW28081   2.120   4.620   3.802
 9061SOL    HW128082   2.105   4.567   3.718
 9061SOL    HW228083   2.097   4.563   3.881
 9062SOL     OW28084   1.517   5.941   1.855
 9062SOL    HW128085   1.461   5.880   1.799
 9062SOL    HW228086   1.612   5.934   1.826
 9063SOL     OW28087   3.281   1.748   2.031
 9063SOL    HW128088   3.182   1.735   2.024
 9063SOL    HW228089   3.305   1.771   2.125
 9064SOL     OW28090   4.419   3.928   6.789
 9064SOL    HW128091   4.474   4.012   6.789
 9064SOL    HW228092   4.464   3.859   6.732
 9065SOL     OW28093   2.603   0.902   1.425
 9065SOL    HW128094   2.669   0.856   1.365
 9065SOL    HW228095   2.577   0.840   1.499
 9066SOL     OW28096   4.895   6.864   0.081
 9066SOL    HW128097   4.825   6.934   0.081
 9066SOL    HW228098   4.898   6.819   7.013
 9067SOL     OW28099   0.828   0.462   1.661
 9067SOL    HW128100   0.809   0.378   1.711
 9067SOL    HW228101   0.848   0.440   1.566
 9068SOL     OW28102   1.170   6.060   6.483
 9068SOL    HW128103   1.252   6.030   6.532
 9068SOL    HW228104   1.128   5.981   6.437
 9069SOL     OW28105   1.219   2.139   6.165
 9069SOL    HW128106   1.174   2.159   6.078
 9069SOL    HW228107   1.173   2.062   6.209
 9070SOL     OW28108   1.496   4.715   4.091
 9070SOL    HW128109   1.397   4.711   4.106
 9070SOL    HW228110   1.540   4.757   4.170
 9071SOL     OW28111   4.994   5.013   6.917
 9071SOL    HW128112   5.029   5.106   6.908
 9071SOL    HW228113   4.942   5.005   7.002
 9072SOL     OW28114   5.064   4.378   1.025
 9072SOL    HW128115   5.043   4.305   1.090
 9072SOL    HW228116   4.979   4.421   0.993
 9073SOL     OW28117   2.084   0.360   1.531
 9073SOL    HW128118   2.183   0.377   1.528
 9073SOL    HW228119   2.067   0.264   1.555
 9074SOL     OW28120   0.277   0.951   1.610
 9074SOL    HW128121   0.185   0.928   1.578
 9074SOL    HW228122   0.344   0.901   1.555
 9075SOL     OW28123   0.166   0.125   1.205
 9075SOL    HW128124   0.160   0.050   1.139
 9075SOL    HW228125   0.199   0.089   1.293
 9076SOL     OW28126   1.259   2.413   5.383
 9076SOL    HW128127   1.260   2.323   5.340
 9076SOL    HW228128   1.301   2.480   5.321
 9077SOL     OW28129   5.907   6.229   2.434
 9077SOL    HW128130   5.902   6.251   2.337
 9077SOL    HW228131   5.821   6.190   2.464
 9078SOL     OW28132   4.707   3.285   5.432
 9078SOL    HW128133   4.768   3.304   5.355
 9078SOL    HW228134   4.726   3.194   5.468
 9079SOL     OW28135   2.412   6.620   5.358
 9079SOL    HW128136   2.375   6.707   5.327
 9079SOL    HW228137   2.481   6.636   5.428
 9080SOL     OW28138   4.647   1.085   0.225
 9080SOL    HW128139   4.667   1.147   0.301
 9080SOL    HW228140   4.690   0.997   0.242
 9081SOL     OW28141   5.506   7.019   3.561
 9081SOL    HW128142   5.567   6.971   3.624
 9081SOL    HW228143   5.411   7.002   3.588
 9082SOL     OW28144   2.325   0.583   2.209
 9082SOL    HW128145   2.279   0.506   2.167
 9082SOL    HW228146   2.348   0.561   2.304
 9083SOL     OW28147   4.427   5.220   3.689
 9083SOL    HW128148   4.355   5.163   3.727
 9083SOL    HW228149   4.483   5.167   3.626
 9084SOL     OW28150   3.445   3.510   2.210
 9084SOL    HW128151   3.350   3.518   2.239
 9084SOL    HW228152   3.477   3.416   2.226
 9085SOL     OW28153   1.240   1.991   0.718
 9085SOL    HW128154   1.311   2.051   0.681
 9085SOL    HW228155   1.162   1.991   0.656
 9086SOL     OW28156   6.803   3.502   0.250
 9086SOL    HW128157   6.784   3.449   0.333
 9086SOL    HW228158   6.730   3.485   0.183
 9087SOL     OW28159   5.152   3.482   2.032
 9087SOL    HW128160   5.082   3.422   2.073
 9087SOL    HW228161   5.146   3.573   2.074
 9088SOL     OW28162   5.883   4.839   2.147
 9088SOL    HW128163   5.888   4.813   2.244
 9088SOL    HW228164   5.907   4.760   2.090
 9089SOL     OW28165   3.926   1.097   5.834
 9089SOL    HW128166   3.970   1.085   5.923
 9089SOL    HW228167   3.846   1.157   5.844
 9090SOL     OW28168   6.854   1.791   3.852
 9090SOL    HW128169   6.918   1.729   3.807
 9090SOL    HW228170   6.776   1.809   3.791
 9091SOL     OW28171   4.215   2.850   5.558
 9091SOL    HW128172   4.259   2.787   5.622
 9091SOL    HW228173   4.179   2.928   5.608
 9092SOL     OW28174   6.761   3.557   6.022
 9092SOL    HW128175   6.764   3.647   5.979
 9092SOL    HW228176   6.819   3.557   6.104
 9093SOL     OW28177   2.572   6.343   4.935
 9093SOL    HW128178   2.635   6.278   4.978
 9093SOL    HW228179   2.544   6.411   5.003
 9094SOL     OW28180   1.759   3.725   0.697
 9094SOL    HW128181   1.770   3.802   0.759
 9094SOL    HW228182   1.818   3.737   0.617
 9095SOL     OW28183   0.492   0.207   6.122
 9095SOL    HW128184   0.559   0.230   6.052
 9095SOL    HW228185   0.401   0.239   6.093
 9096SOL     OW28186   6.762   5.486   3.850
 9096SOL    HW128187   6.762   5.579   3.812
 9096SOL    HW228188   6.820   5.483   3.931
 9097SOL     OW28189   0.663   4.016   0.032
 9097SOL    HW128190   0.714   3.939   7.013
 9097SOL    HW228191   0.726   4.072   0.086
 9098SOL     OW28192   1.879   5.338   4.155
 9098SOL    HW128193   1.813   5.349   4.081
 9098SOL    HW228194   1.836   5.365   4.242
 9099SOL     OW28195   2.315   1.721   6.185
 9099SOL    HW128196   2.295   1.781   6.262
 9099SOL    HW228197   2.234   1.668   6.161
 9100SOL     OW28198   2.000   4.981   4.656
 9100SOL    HW128199   1.906   4.952   4.671
 9100SOL    HW228200   2.009   5.079   4.676
 9101SOL     OW28201   6.768   1.830   1.428
 9101SOL    HW128202   6.838   1.900   1.444
 9101SOL    HW228203   6.797   1.771   1.353
 9102SOL     OW28204   3.666   0.617   3.134
 9102SOL    HW128205   3.651   0.526   3.173
 9102SOL    HW228206   3.737   0.611   3.063
 9103SOL     OW28207   6.529   0.292   1.136
 9103SOL    HW128208   6.442   0.302   1.184
 9103SOL    HW228209   6.568   0.202   1.155
 9104SOL     OW28210   5.707   2.456   5.711
 9104SOL    HW128211   5.729   2.362   5.734
 9104SOL    HW228212   5.722   2.471   5.613
 9105SOL     OW28213   2.816   0.591   0.080
 9105SOL    HW128214   2.890   0.524   0.076
 9105SOL    HW228215   2.836   0.659   0.151
 9106SOL     OW28216   2.353   3.138   6.259
 9106SOL    HW128217   2.340   3.207   6.188
 9106SOL    HW228218   2.419   3.069   6.227
 9107SOL     OW28219   3.718   0.652   1.061
 9107SOL    HW128220   3.772   0.719   1.010
 9107SOL    HW228221   3.770   0.568   1.073
 9108SOL     OW28222   6.212   6.606   5.382
 9108SOL    HW128223   6.176   6.654   5.302
 9108SOL    HW228224   6.307   6.632   5.398
 9109SOL     OW28225   5.419   4.303   3.282
 9109SOL    HW128226   5.336   4.352   3.256
 9109SOL    HW228227   5.472   4.282   3.200
 9110SOL     OW28228   1.400   6.637   2.398
 9110SOL    HW128229   1.456   6.561   2.365
 9110SOL    HW228230   1.315   6.641   2.346
 9111SOL     OW28231   4.520   2.684   5.293
 9111SOL    HW128232   4.512   2.783   5.304
 9111SOL    HW228233   4.491   2.639   5.378
 9112SOL     OW28234   0.483   4.650   1.712
 9112SOL    HW128235   0.472   4.750   1.713
 9112SOL    HW228236   0.420   4.610   1.646
 9113SOL     OW28237   5.550   0.095   4.323
 9113SOL    HW128238   5.620   0.090   4.251
 9113SOL    HW228239   5.491   0.174   4.306
 9114SOL     OW28240   0.335   1.329   6.375
 9114SOL    HW128241   0.254   1.273   6.358
 9114SOL    HW228242   0.365   1.371   6.289
 9115SOL     OW28243   5.481   3.979   4.430
 9115SOL    HW128244   5.530   3.923   4.497
 9115SOL    HW228245   5.502   3.947   4.338
 9116SOL     OW28246   0.709   5.369   3.810
 9116SOL    HW128247   0.794   5.343   3.763
 9116SOL    HW228248   0.636   5.306   3.784
 9117SOL     OW28249   1.882   6.805   0.098
 9117SOL    HW128250   1.850   6.790   0.191
 9117SOL    HW228251   1.978   6.780   0.092
 9118SOL     OW28252   6.635   5.053   1.114
 9118SOL    HW128253   6.622   5.152   1.116
 9118SOL    HW228254   6.726   5.033   1.078
 9119SOL     OW28255   3.573   1.439   0.772
 9119SOL    HW128256   3.566   1.519   0.833
 9119SOL    HW228257   3.606   1.361   0.824
 9120SOL     OW28258   6.593   4.360   5.166
 9120SOL    HW128259   6.585   4.448   5.119
 9120SOL    HW228260   6.571   4.372   5.263
 9121SOL     OW28261   4.235   1.010   4.690
 9121SOL    HW128262   4.183   1.058   4.619
 9121SOL    HW228263   4.174   0.947   4.739
 9122SOL     OW28264   0.198   1.494   2.019
 9122SOL    HW128265   0.194   1.395   2.001
 9122SOL    HW228266   0.105   1.531   2.021
 9123SOL     OW28267   0.622   6.262   4.710
 9123SOL    HW128268   0.546   6.324   4.692
 9123SOL    HW228269   0.699   6.285   4.650
 9124SOL     OW28270   3.370   5.567   0.482
 9124SOL    HW128271   3.340   5.545   0.389
 9124SOL    HW228272   3.356   5.487   0.541
 9125SOL     OW28273   4.894   6.399   1.744
 9125SOL    HW128274   4.808   6.444   1.721
 9125SOL    HW228275   4.896   6.380   1.842
 9126SOL     OW28276   3.753   5.090   0.295
 9126SOL    HW128277   3.741   5.062   0.391
 9126SOL    HW228278   3.680   5.152   0.268
 9127SOL     OW28279   6.168   4.406   5.637
 9127SOL    HW128280   6.086   4.351   5.621
 9127SOL    HW228281   6.194   4.399   5.733
 9128SOL     OW28282   5.366   3.398   6.915
 9128SOL    HW128283   5.267   3.404   6.929
 9128SOL    HW228284   5.393   3.458   6.840
 9129SOL     OW28285   0.730   3.263   1.460
 9129SOL    HW128286   0.648   3.211   1.484
 9129SOL    HW228287   0.811   3.208   1.477
 9130SOL     OW28288   2.859   3.511   6.048
 9130SOL    HW128289   2.945   3.562   6.042
 9130SOL    HW228290   2.795   3.544   5.978
 9131SOL     OW28291   6.383   3.192   1.010
 9131SOL    HW128292   6.445   3.129   1.057
 9131SOL    HW228293   6.330   3.142   0.941
 9132SOL     OW28294   0.922   3.924   3.694
 9132SOL    HW128295   0.900   3.856   3.623
 9132SOL    HW228296   1.021   3.938   3.697
 9133SOL     OW28297   5.089   0.053   0.556
 9133SOL    HW128298   5.121   0.041   0.462
 9133SOL    HW228299   5.068   6.985   0.596
 9134SOL     OW28300   4.824   4.246   6.938
 9134SOL    HW128301   4.774   4.321   6.894
 9134SOL    HW228302   4.858   4.184   6.868
 9135SOL     OW28303   6.884   5.539   2.650
 9135SOL    HW128304   6.972   5.586   2.661
 9135SOL    HW228305   6.815   5.585   2.706
 9136SOL     OW28306   0.505   5.348   6.865
 9136SOL    HW128307   0.556   5.308   6.789
 9136SOL    HW228308   0.544   5.319   6.952
 9137SOL     OW28309   5.606   5.321   6.030
 9137SOL    HW128310   5.521   5.300   5.982
 9137SOL    HW228311   5.682   5.325   5.965
 9138SOL     OW28312   1.475   4.051   6.447
 9138SOL    HW128313   1.379   4.037   6.473
 9138SOL    HW228314   1.534   3.999   6.510
 9139SOL     OW28315   0.526   6.654   0.839
 9139SOL    HW128316   0.503   6.735   0.894
 9139SOL    HW228317   0.544   6.682   0.745
 9140SOL     OW28318   0.693   3.852   2.997
 9140SOL    HW128319   0.709   3.800   2.913
 9140SOL    HW228320   0.604   3.827   3.035
 9141SOL     OW28321   0.527   6.200   4.205
 9141SOL    HW128322   0.495   6.246   4.122
 9141SOL    HW228323   0.521   6.263   4.282
 9142SOL     OW28324   1.557   5.412   3.205
 9142SOL    HW128325   1.620   5.384   3.133
 9142SOL    HW228326   1.464   5.420   3.167
 9143SOL     OW28327   5.180   3.380   2.489
 9143SOL    HW128328   5.099   3.324   2.472
 9143SOL    HW228329   5.262   3.328   2.467
 9144SOL     OW28330   2.459   4.425   5.033
 9144SOL    HW128331   2.537   4.391   4.980
 9144SOL    HW228332   2.453   4.524   5.023
 9145SOL     OW28333   3.037   6.060   6.524
 9145SOL    HW128334   3.070   6.147   6.562
 9145SOL    HW228335   3.049   6.060   6.425
 9146SOL     OW28336   5.511   1.783   4.614
 9146SOL    HW128337   5.580   1.852   4.632
 9146SOL    HW228338   5.444   1.782   4.688
 9147SOL     OW28339   4.306   0.041   6.327
 9147SOL    HW128340   4.227   7.003   6.345
 9147SOL    HW228341   4.288   0.133   6.363
 9148SOL     OW28342   3.567   5.679   2.586
 9148SOL    HW128343   3.652   5.641   2.622
 9148SOL    HW228344   3.566   5.778   2.603
 9149SOL     OW28345   1.473   4.160   1.461
 9149SOL    HW128346   1.513   4.250   1.480
 9149SOL    HW228347   1.537   4.088   1.486
 9150SOL     OW28348   3.859   3.514   6.699
 9150SOL    HW128349   3.915   3.595   6.681
 9150SOL    HW228350   3.806   3.528   6.783
 9151SOL     OW28351   2.064   3.850   3.777
 9151SOL    HW128352   2.128   3.902   3.833
 9151SOL    HW228353   2.081   3.868   3.680
 9152SOL     OW28354   1.875   5.274   1.730
 9152SOL    HW128355   1.922   5.321   1.656
 9152SOL    HW228356   1.891   5.175   1.723
 9153SOL     OW28357   0.648   3.888   0.310
 9153SOL    HW128358   0.553   3.888   0.341
 9153SOL    HW228359   0.664   3.967   0.249
 9154SOL     OW28360   4.346   5.339   2.698
 9154SOL    HW128361   4.355   5.262   2.636
 9154SOL    HW228362   4.280   5.317   2.770
 9155SOL     OW28363   0.714   6.428   2.890
 9155SOL    HW128364   0.808   6.418   2.923
 9155SOL    HW228365   0.655   6.364   2.939
 9156SOL     OW28366   6.716   4.395   5.587
 9156SOL    HW128367   6.703   4.466   5.656
 9156SOL    HW228368   6.766   4.318   5.628
 9157SOL     OW28369   1.883   4.670   5.145
 9157SOL    HW128370   1.893   4.668   5.245
 9157SOL    HW228371   1.865   4.577   5.112
 9158SOL     OW28372   6.984   2.530   3.810
 9158SOL    HW128373   0.004   2.463   3.748
 9158SOL    HW228374   0.019   2.536   3.893
 9159SOL     OW28375   2.399   0.982   3.401
 9159SOL    HW128376   2.322   1.035   3.437
 9159SOL    HW228377   2.391   0.887   3.430
 9160SOL     OW28378   0.706   3.429   6.801
 9160SOL    HW128379   0.684   3.392   6.891
 9160SOL    HW228380   0.703   3.356   6.733
 9161SOL     OW28381   5.470   3.424   2.653
 9161SOL    HW128382   5.433   3.437   2.745
 9161SOL    HW228383   5.422   3.349   2.608
 9162SOL     OW28384   5.396   2.086   1.955
 9162SOL    HW128385   5.303   2.115   1.932
 9162SOL    HW228386   5.456   2.166   1.959
 9163SOL     OW28387   2.161   3.630   2.994
 9163SOL    HW128388   2.168   3.565   2.918
 9163SOL    HW228389   2.149   3.580   3.080
 9164SOL     OW28390   3.492   0.746   0.756
 9164SOL    HW128391   3.537   0.658   0.769
 9164SOL    HW228392   3.541   0.799   0.687
 9165SOL     OW28393   6.457   0.239   6.387
 9165SOL    HW128394   6.513   0.172   6.436
 9165SOL    HW228395   6.441   0.318   6.446
 9166SOL     OW28396   4.054   5.601   1.921
 9166SOL    HW128397   4.035   5.599   1.822
 9166SOL    HW228398   4.092   5.689   1.946
 9167SOL     OW28399   0.896   2.756   4.843
 9167SOL    HW128400   0.950   2.693   4.898
 9167SOL    HW228401   0.924   2.750   4.748
 9168SOL     OW28402   5.902   5.780   4.313
 9168SOL    HW128403   5.888   5.769   4.412
 9168SOL    HW228404   5.814   5.794   4.268
 9169SOL     OW28405   5.653   5.766   0.309
 9169SOL    HW128406   5.725   5.805   0.367
 9169SOL    HW228407   5.638   5.827   0.230
 9170SOL     OW28408   1.510   0.122   5.384
 9170SOL    HW128409   1.571   0.106   5.306
 9170SOL    HW228410   1.540   0.204   5.433
 9171SOL     OW28411   4.761   5.852   0.095
 9171SOL    HW128412   4.675   5.833   0.142
 9171SOL    HW228413   4.788   5.772   0.041
 9172SOL     OW28414   5.182   0.517   6.015
 9172SOL    HW128415   5.138   0.430   6.039
 9172SOL    HW228416   5.221   0.558   6.098
 9173SOL     OW28417   5.903   3.899   6.560
 9173SOL    HW128418   5.954   3.879   6.477
 9173SOL    HW228419   5.916   3.995   6.585
 9174SOL     OW28420   6.179   4.887   7.008
 9174SOL    HW128421   6.121   4.952   6.959
 9174SOL    HW228422   6.183   4.912   0.083
 9175SOL     OW28423   1.952   0.744   1.380
 9175SOL    HW128424   1.896   0.792   1.312
 9175SOL    HW228425   2.045   0.780   1.377
 9176SOL     OW28426   1.348   0.023   2.463
 9176SOL    HW128427   1.432   6.991   2.455
 9176SOL    HW228428   1.353   0.104   2.405
 9177SOL     OW28429   0.628   5.863   3.286
 9177SOL    HW128430   0.648   5.874   3.189
 9177SOL    HW228431   0.537   5.823   3.297
 9178SOL     OW28432   1.071   3.853   1.164
 9178SOL    HW128433   1.049   3.756   1.155
 9178SOL    HW228434   1.034   3.904   1.087
 9179SOL     OW28435   3.757   5.933   2.947
 9179SOL    HW128436   3.805   5.878   2.880
 9179SOL    HW228437   3.664   5.897   2.959
 9180SOL     OW28438   0.014   1.109   5.123
 9180SOL    HW128439   0.032   1.014   5.098
 9180SOL    HW228440   0.071   1.135   5.201
 9181SOL     OW28441   3.300   2.075   3.018
 9181SOL    HW128442   3.339   2.070   3.110
 9181SOL    HW228443   3.374   2.080   2.951
 9182SOL     OW28444   6.823   1.297   3.029
 9182SOL    HW128445   6.757   1.297   3.104
 9182SOL    HW228446   6.782   1.337   2.947
 9183SOL     OW28447   3.180   1.631   5.677
 9183SOL    HW128448   3.237   1.670   5.751
 9183SOL    HW228449   3.100   1.689   5.664
 9184SOL     OW28450   2.786   5.873   0.884
 9184SOL    HW128451   2.800   5.834   0.792
 9184SOL    HW228452   2.873   5.879   0.931
 9185SOL     OW28453   0.220   1.483   5.510
 9185SOL    HW128454   0.151   1.441   5.569
 9185SOL    HW228455   0.310   1.448   5.535
 9186SOL     OW28456   5.396   6.420   5.994
 9186SOL    HW128457   5.405   6.452   6.088
 9186SOL    HW228458   5.320   6.468   5.950
 9187SOL     OW28459   5.188   3.493   1.179
 9187SOL    HW128460   5.169   3.424   1.249
 9187SOL    HW228461   5.126   3.480   1.101
 9188SOL     OW28462   0.923   1.182   2.655
 9188SOL    HW128463   0.920   1.099   2.710
 9188SOL    HW228464   0.984   1.168   2.577
 9189SOL     OW28465   3.096   0.646   6.936
 9189SOL    HW128466   3.033   0.568   6.942
 9189SOL    HW228467   3.117   0.679   0.007
 9190SOL     OW28468   3.689   1.210   5.784
 9190SOL    HW128469   3.622   1.248   5.848
 9190SOL    HW228470   3.656   1.121   5.752
 9191SOL     OW28471   5.125   0.063   1.697
 9191SOL    HW128472   5.120   0.123   1.777
 9191SOL    HW228473   5.112   0.117   1.614
 9192SOL     OW28474   4.188   4.706   4.283
 9192SOL    HW128475   4.141   4.740   4.364
 9192SOL    HW228476   4.210   4.609   4.294
 9193SOL     OW28477   4.156   3.547   2.307
 9193SOL    HW128478   4.226   3.617   2.303
 9193SOL    HW228479   4.073   3.585   2.350
 9194SOL     OW28480   2.894   5.439   3.695
 9194SOL    HW128481   2.975   5.381   3.689
 9194SOL    HW228482   2.838   5.428   3.613
 9195SOL     OW28483   0.499   3.215   3.487
 9195SOL    HW128484   0.593   3.245   3.472
 9195SOL    HW228485   0.493   3.164   3.573
 9196SOL     OW28486   5.531   5.434   3.570
 9196SOL    HW128487   5.492   5.445   3.478
 9196SOL    HW228488   5.493   5.503   3.631
 9197SOL     OW28489   4.131   1.997   6.734
 9197SOL    HW128490   4.174   2.041   6.812
 9197SOL    HW228491   4.110   2.067   6.664
 9198SOL     OW28492   6.343   2.708   4.513
 9198SOL    HW128493   6.311   2.679   4.604
 9198SOL    HW228494   6.329   2.633   4.448
 9199SOL     OW28495   0.798   3.803   6.958
 9199SOL    HW128496   0.777   3.706   6.970
 9199SOL    HW228497   0.765   3.834   6.869
 9200SOL     OW28498   4.530   5.986   2.171
 9200SOL    HW128499   4.476   5.950   2.247
 9200SOL    HW228500   4.479   6.058   2.124
 9201SOL     OW28501   0.082   2.744   2.275
 9201SOL    HW128502   0.117   2.659   2.315
 9201SOL    HW228503   0.000   2.773   2.324
 9202SOL     OW28504   1.751   5.880   3.131
 9202SOL    HW128505   1.691   5.807   3.100
 9202SOL    HW228506   1.768   5.870   3.229
 9203SOL     OW28507   4.991   2.092   0.471
 9203SOL    HW128508   5.075   2.144   0.454
 9203SOL    HW228509   5.012   2.012   0.526
 9204SOL     OW28510   4.613   4.547   1.563
 9204SOL    HW128511   4.661   4.632   1.544
 9204SOL    HW228512   4.575   4.550   1.656
 9205SOL     OW28513   4.131   2.354   0.668
 9205SOL    HW128514   4.129   2.384   0.763
 9205SOL    HW228515   4.064   2.406   0.615
 9206SOL     OW28516   0.025   0.298   5.092
 9206SOL    HW128517   7.016   0.232   5.023
 9206SOL    HW228518   6.982   0.374   5.097
 9207SOL     OW28519   5.881   6.371   0.561
 9207SOL    HW128520   5.850   6.370   0.466
 9207SOL    HW228521   5.912   6.279   0.587
 9208SOL     OW28522   6.007   4.520   1.719
 9208SOL    HW128523   6.029   4.434   1.764
 9208SOL    HW228524   5.948   4.503   1.640
 9209SOL     OW28525   5.083   0.799   4.604
 9209SOL    HW128526   5.167   0.758   4.638
 9209SOL    HW228527   5.008   0.778   4.667
 9210SOL     OW28528   1.526   6.713   0.275
 9210SOL    HW128529   1.433   6.677   0.285
 9210SOL    HW228530   1.573   6.709   0.364
 9211SOL     OW28531   5.256   1.318   6.140
 9211SOL    HW128532   5.250   1.415   6.160
 9211SOL    HW228533   5.247   1.303   6.041
 9212SOL     OW28534   6.184   3.462   6.830
 9212SOL    HW128535   6.149   3.375   6.865
 9212SOL    HW228536   6.171   3.466   6.731
 9213SOL     OW28537   0.325   5.241   3.189
 9213SOL    HW128538   0.333   5.306   3.114
 9213SOL    HW228539   0.297   5.152   3.153
 9214SOL     OW28540   1.555   1.057   5.804
 9214SOL    HW128541   1.546   0.959   5.820
 9214SOL    HW228542   1.628   1.094   5.861
 9215SOL     OW28543   6.710   3.860   3.813
 9215SOL    HW128544   6.762   3.871   3.898
 9215SOL    HW228545   6.619   3.899   3.825
 9216SOL     OW28546   1.763   0.130   3.620
 9216SOL    HW128547   1.735   0.066   3.692
 9216SOL    HW228548   1.856   0.108   3.591
 9217SOL     OW28549   3.723   2.520   0.306
 9217SOL    HW128550   3.820   2.501   0.291
 9217SOL    HW228551   3.674   2.510   0.219
 9218SOL     OW28552   5.061   6.024   5.889
 9218SOL    HW128553   4.997   6.003   5.963
 9218SOL    HW228554   5.024   6.099   5.834
 9219SOL     OW28555   3.907   3.214   6.180
 9219SOL    HW128556   3.829   3.226   6.119
 9219SOL    HW228557   3.946   3.304   6.202
 9220SOL     OW28558   0.858   6.862   3.693
 9220SOL    HW128559   0.866   6.769   3.657
 9220SOL    HW228560   0.802   6.917   3.631
 9221SOL     OW28561   2.513   1.472   2.213
 9221SOL    HW128562   2.600   1.520   2.219
 9221SOL    HW228563   2.501   1.415   2.295
 9222SOL     OW28564   2.092   6.095   3.545
 9222SOL    HW128565   2.134   6.010   3.514
 9222SOL    HW228566   2.001   6.104   3.505
 9223SOL     OW28567   5.884   2.437   4.802
 9223SOL    HW128568   5.905   2.447   4.704
 9223SOL    HW228569   5.913   2.519   4.851
 9224SOL     OW28570   1.800   5.669   2.857
 9224SOL    HW128571   1.866   5.642   2.928
 9224SOL    HW228572   1.716   5.699   2.900
 9225SOL     OW28573   0.481   5.907   5.323
 9225SOL    HW128574   0.391   5.921   5.283
 9225SOL    HW228575   0.474   5.843   5.400
 9226SOL     OW28576   0.770   6.687   4.750
 9226SOL    HW128577   0.860   6.701   4.709
 9226SOL    HW228578   0.710   6.642   4.684
 9227SOL     OW28579   4.397   2.817   0.669
 9227SOL    HW128580   4.438   2.732   0.636
 9227SOL    HW228581   4.328   2.796   0.739
 9228SOL     OW28582   3.850   3.391   4.446
 9228SOL    HW128583   3.758   3.432   4.441
 9228SOL    HW228584   3.880   3.389   4.541
 9229SOL     OW28585   0.675   6.117   1.128
 9229SOL    HW128586   0.587   6.087   1.093
 9229SOL    HW228587   0.734   6.038   1.144
 9230SOL     OW28588   3.655   6.991   6.011
 9230SOL    HW128589   3.745   6.967   5.974
 9230SOL    HW228590   3.661   0.057   6.061
 9231SOL     OW28591   5.840   6.395   1.666
 9231SOL    HW128592   5.752   6.440   1.651
 9231SOL    HW228593   5.879   6.368   1.578
 9232SOL     OW28594   1.412   5.048   1.971
 9232SOL    HW128595   1.497   5.099   1.958
 9232SOL    HW228596   1.390   4.998   1.887
 9233SOL     OW28597   1.390   6.757   5.748
 9233SOL    HW128598   1.453   6.832   5.771
 9233SOL    HW228599   1.443   6.676   5.722
 9234SOL     OW28600   3.312   3.909   6.894
 9234SOL    HW128601   3.225   3.958   6.887
 9234SOL    HW228602   3.303   3.835   6.961
 9235SOL     OW28603   2.023   2.422   2.812
 9235SOL    HW128604   2.055   2.342   2.762
 9235SOL    HW228605   1.980   2.392   2.898
 9236SOL     OW28606   1.526   4.352   6.467
 9236SOL    HW128607   1.481   4.266   6.443
 9236SOL    HW228608   1.610   4.332   6.517
 9237SOL     OW28609   7.018   5.426   3.757
 9237SOL    HW128610   0.012   5.512   3.709
 9237SOL    HW228611   6.920   5.415   3.775
 9238SOL     OW28612   1.864   2.745   4.866
 9238SOL    HW128613   1.872   2.646   4.862
 9238SOL    HW228614   1.828   2.772   4.956
 9239SOL     OW28615   1.792   6.139   6.305
 9239SOL    HW128616   1.793   6.121   6.404
 9239SOL    HW228617   1.711   6.193   6.282
 9240SOL     OW28618   3.779   1.221   4.982
 9240SOL    HW128619   3.759   1.299   5.042
 9240SOL    HW228620   3.713   1.220   4.907
 9241SOL     OW28621   5.355   6.173   0.196
 9241SOL    HW128622   5.408   6.100   0.240
 9241SOL    HW228623   5.259   6.163   0.219
 9242SOL     OW28624   2.680   2.358   6.961
 9242SOL    HW128625   2.643   2.382   6.871
 9242SOL    HW228626   2.661   2.432   0.005
 9243SOL     OW28627   1.950   0.195   0.495
 9243SOL    HW128628   1.941   0.154   0.404
 9243SOL    HW228629   1.946   0.295   0.487
 9244SOL     OW28630   3.341   6.415   6.604
 9244SOL    HW128631   3.283   6.466   6.667
 9244SOL    HW228632   3.315   6.437   6.510
 9245SOL     OW28633   0.752   3.651   3.203
 9245SOL    HW128634   0.804   3.649   3.288
 9245SOL    HW228635   0.761   3.742   3.161
 9246SOL     OW28636   4.927   1.114   6.372
 9246SOL    HW128637   4.908   1.177   6.447
 9246SOL    HW228638   4.843   1.100   6.319
 9247SOL     OW28639   2.949   6.440   2.798
 9247SOL    HW128640   2.935   6.366   2.864
 9247SOL    HW228641   2.874   6.442   2.732
 9248SOL     OW28642   2.832   0.098   6.348
 9248SOL    HW128643   2.815   0.003   6.321
 9248SOL    HW228644   2.852   0.101   6.446
 9249SOL     OW28645   3.260   1.468   0.753
 9249SOL    HW128646   3.213   1.400   0.809
 9249SOL    HW228647   3.358   1.466   0.774
 9250SOL     OW28648   0.856   3.420   1.876
 9250SOL    HW128649   0.920   3.482   1.831
 9250SOL    HW228650   0.762   3.447   1.854
 9251SOL     OW28651   4.038   1.151   0.722
 9251SOL    HW128652   3.967   1.096   0.678
 9251SOL    HW228653   4.082   1.211   0.655
 9252SOL     OW28654   5.576   1.358   4.875
 9252SOL    HW128655   5.536   1.449   4.877
 9252SOL    HW228656   5.541   1.307   4.796
 9253SOL     OW28657   2.296   5.167   3.684
 9253SOL    HW128658   2.229   5.238   3.707
 9253SOL    HW228659   2.265   5.115   3.605
 9254SOL     OW28660   6.816   6.177   2.332
 9254SOL    HW128661   6.864   6.136   2.255
 9254SOL    HW228662   6.736   6.122   2.355
 9255SOL     OW28663   0.481   3.107   1.556
 9255SOL    HW128664   0.493   3.011   1.530
 9255SOL    HW228665   0.499   3.117   1.654
 9256SOL     OW28666   2.094   6.336   1.395
 9256SOL    HW128667   2.039   6.353   1.313
 9256SOL    HW228668   2.112   6.423   1.442
 9257SOL     OW28669   6.455   6.248   5.331
 9257SOL    HW128670   6.525   6.261   5.401
 9257SOL    HW228671   6.446   6.151   5.310
 9258SOL     OW28672   5.064   3.653   3.067
 9258SOL    HW128673   5.119   3.658   2.983
 9258SOL    HW228674   4.996   3.726   3.065
 9259SOL     OW28675   0.930   3.161   6.382
 9259SOL    HW128676   0.857   3.185   6.318
 9259SOL    HW228677   0.894   3.099   6.452
 9260SOL     OW28678   5.109   4.965   5.052
 9260SOL    HW128679   5.172   4.976   5.129
 9260SOL    HW228680   5.134   5.030   4.979
 9261SOL     OW28681   1.488   3.140   1.068
 9261SOL    HW128682   1.513   3.080   1.144
 9261SOL    HW228683   1.514   3.098   0.982
 9262SOL     OW28684   6.793   6.533   6.075
 9262SOL    HW128685   6.822   6.459   6.137
 9262SOL    HW228686   6.732   6.595   6.124
 9263SOL     OW28687   2.491   4.833   2.735
 9263SOL    HW128688   2.580   4.878   2.726
 9263SOL    HW228689   2.487   4.755   2.673
 9264SOL     OW28690   5.968   3.743   5.385
 9264SOL    HW128691   5.987   3.807   5.310
 9264SOL    HW228692   5.985   3.650   5.355
 9265SOL     OW28693   4.414   0.402   1.937
 9265SOL    HW128694   4.478   0.328   1.959
 9265SOL    HW228695   4.387   0.448   2.022
 9266SOL     OW28696   0.263   4.656   0.953
 9266SOL    HW128697   0.205   4.575   0.947
 9266SOL    HW228698   0.355   4.633   0.922
 9267SOL     OW28699   6.668   1.209   3.262
 9267SOL    HW128700   6.575   1.175   3.250
 9267SOL    HW228701   6.717   1.150   3.326
 9268SOL     OW28702   0.119   6.958   1.024
 9268SOL    HW128703   0.056   6.882   1.004
 9268SOL    HW228704   0.091   0.018   0.973
 9269SOL     OW28705   3.331   6.158   1.217
 9269SOL    HW128706   3.231   6.168   1.215
 9269SOL    HW228707   3.355   6.064   1.193
 9270SOL     OW28708   1.923   1.452   5.466
 9270SOL    HW128709   1.900   1.525   5.532
 9270SOL    HW228710   1.864   1.461   5.386
 9271SOL     OW28711   1.456   5.162   5.248
 9271SOL    HW128712   1.479   5.185   5.343
 9271SOL    HW228713   1.364   5.195   5.228
 9272SOL     OW28714   6.136   6.761   6.225
 9272SOL    HW128715   6.178   6.799   6.143
 9272SOL    HW228716   6.081   6.830   6.270
 9273SOL     OW28717   6.336   3.947   3.556
 9273SOL    HW128718   6.281   3.909   3.482
 9273SOL    HW228719   6.432   3.949   3.528
 9274SOL     OW28720   6.903   3.173   1.050
 9274SOL    HW128721   6.925   3.219   0.964
 9274SOL    HW228722   6.961   3.208   1.123
 9275SOL     OW28723   4.698   2.054   0.487
 9275SOL    HW128724   4.745   2.110   0.555
 9275SOL    HW228725   4.711   1.957   0.508
 9276SOL     OW28726   1.259   4.212   0.272
 9276SOL    HW128727   1.339   4.240   0.326
 9276SOL    HW228728   1.237   4.116   0.293
 9277SOL     OW28729   3.311   5.957   2.699
 9277SOL    HW128730   3.404   5.977   2.729
 9277SOL    HW228731   3.310   5.943   2.600
 9278SOL     OW28732   1.619   0.151   4.532
 9278SOL    HW128733   1.525   0.118   4.539
 9278SOL    HW228734   1.675   0.085   4.482
 9279SOL     OW28735   3.554   6.073   1.720
 9279SOL    HW128736   3.499   6.055   1.638
 9279SOL    HW228737   3.558   5.989   1.775
 9280SOL     OW28738   1.130   4.780   1.631
 9280SOL    HW128739   1.134   4.686   1.598
 9280SOL    HW228740   1.068   4.833   1.573
 9281SOL     OW28741   1.325   6.105   0.708
 9281SOL    HW128742   1.378   6.185   0.678
 9281SOL    HW228743   1.387   6.026   0.717
 9282SOL     OW28744   1.787   0.882   3.716
 9282SOL    HW128745   1.874   0.925   3.693
 9282SOL    HW228746   1.750   0.924   3.799
 9283SOL     OW28747   5.713   4.854   6.273
 9283SOL    HW128748   5.621   4.845   6.234
 9283SOL    HW228749   5.708   4.840   6.372
 9284SOL     OW28750   3.692   6.499   1.428
 9284SOL    HW128751   3.697   6.400   1.439
 9284SOL    HW228752   3.777   6.532   1.386
 9285SOL     OW28753   0.030   5.684   3.319
 9285SOL    HW128754   0.070   5.610   3.266
 9285SOL    HW228755   0.072   5.771   3.293
 9286SOL     OW28756   5.434   6.045   1.876
 9286SOL    HW128757   5.391   5.960   1.906
 9286SOL    HW228758   5.520   6.057   1.926
 9287SOL     OW28759   4.601   4.501   0.858
 9287SOL    HW128760   4.550   4.476   0.940
 9287SOL    HW228761   4.622   4.419   0.805
 9288SOL     OW28762   3.771   0.854   3.269
 9288SOL    HW128763   3.741   0.786   3.202
 9288SOL    HW228764   3.692   0.890   3.319
 9289SOL     OW28765   4.449   6.174   2.372
 9289SOL    HW128766   4.390   6.100   2.403
 9289SOL    HW228767   4.540   6.138   2.352
 9290SOL     OW28768   5.474   0.751   3.556
 9290SOL    HW128769   5.434   0.669   3.598
 9290SOL    HW228770   5.571   0.736   3.540
 9291SOL     OW28771   0.088   4.715   5.608
 9291SOL    HW128772   0.130   4.799   5.572
 9291SOL    HW228773   0.140   4.683   5.687
 9292SOL     OW28774   1.753   2.137   0.252
 9292SOL    HW128775   1.833   2.088   0.287
 9292SOL    HW228776   1.782   2.210   0.190
 9293SOL     OW28777   4.023   1.105   6.090
 9293SOL    HW128778   4.021   1.194   6.046
 9293SOL    HW228779   4.117   1.082   6.115
 9294SOL     OW28780   5.730   5.917   6.061
 9294SOL    HW128781   5.798   5.954   6.125
 9294SOL    HW228782   5.726   5.818   6.071
 9295SOL     OW28783   6.202   0.180   2.879
 9295SOL    HW128784   6.104   0.159   2.876
 9295SOL    HW228785   6.237   0.158   2.970
 9296SOL     OW28786   2.548   3.151   5.778
 9296SOL    HW128787   2.480   3.209   5.733
 9296SOL    HW228788   2.622   3.208   5.814
 9297SOL     OW28789   6.884   5.502   1.853
 9297SOL    HW128790   6.873   5.486   1.952
 9297SOL    HW228791   6.981   5.507   1.831
 9298SOL     OW28792   6.677   4.814   0.023
 9298SOL    HW128793   6.773   4.842   0.018
 9298SOL    HW228794   6.619   4.886   7.006
 9299SOL     OW28795   3.233   2.202   4.217
 9299SOL    HW128796   3.331   2.184   4.224
 9299SOL    HW228797   3.194   2.214   4.308
 9300SOL     OW28798   2.722   5.979   6.033
 9300SOL    HW128799   2.803   5.940   5.991
 9300SOL    HW228800   2.694   5.923   6.111
 9301SOL     OW28801   0.040   3.489   4.145
 9301SOL    HW128802   6.974   3.517   4.103
 9301SOL    HW228803   0.032   3.395   4.177
 9302SOL     OW28804   3.022   6.034   4.004
 9302SOL    HW128805   3.072   6.120   4.014
 9302SOL    HW228806   2.947   6.032   4.070
 9303SOL     OW28807   3.056   3.991   6.850
 9303SOL    HW128808   2.969   4.039   6.860
 9303SOL    HW228809   3.075   3.977   6.752
 9304SOL     OW28810   6.036   5.776   6.635
 9304SOL    HW128811   6.108   5.732   6.580
 9304SOL    HW228812   6.020   5.868   6.601
 9305SOL     OW28813   2.362   1.990   0.891
 9305SOL    HW128814   2.291   2.007   0.959
 9305SOL    HW228815   2.351   1.899   0.852
 9306SOL     OW28816   6.714   6.130   3.806
 9306SOL    HW128817   6.623   6.093   3.793
 9306SOL    HW228818   6.734   6.136   3.904
 9307SOL     OW28819   1.612   4.301   0.947
 9307SOL    HW128820   1.669   4.272   1.025
 9307SOL    HW228821   1.618   4.400   0.937
 9308SOL     OW28822   2.483   3.265   0.883
 9308SOL    HW128823   2.451   3.331   0.952
 9308SOL    HW228824   2.407   3.209   0.852
 9309SOL     OW28825   3.657   5.040   5.967
 9309SOL    HW128826   3.630   5.137   5.970
 9309SOL    HW228827   3.735   5.026   6.027
 9310SOL     OW28828   6.406   6.198   5.687
 9310SOL    HW128829   6.327   6.151   5.649
 9310SOL    HW228830   6.458   6.135   5.744
 9311SOL     OW28831   5.656   4.591   6.823
 9311SOL    HW128832   5.727   4.552   6.881
 9311SOL    HW228833   5.669   4.560   6.728
 9312SOL     OW28834   6.071   3.523   3.980
 9312SOL    HW128835   6.137   3.537   4.054
 9312SOL    HW228836   6.121   3.504   3.895
 9313SOL     OW28837   0.579   0.350   2.044
 9313SOL    HW128838   0.620   0.294   1.973
 9313SOL    HW228839   0.562   0.443   2.009
 9314SOL     OW28840   5.213   4.839   1.687
 9314SOL    HW128841   5.288   4.821   1.623
 9314SOL    HW228842   5.247   4.894   1.764
 9315SOL     OW28843   5.710   5.512   5.727
 9315SOL    HW128844   5.768   5.546   5.654
 9315SOL    HW228845   5.624   5.563   5.728
 9316SOL     OW28846   5.484   5.579   6.809
 9316SOL    HW128847   5.552   5.574   6.883
 9316SOL    HW228848   5.394   5.554   6.845
 9317SOL     OW28849   2.274   6.890   3.308
 9317SOL    HW128850   2.362   6.916   3.347
 9317SOL    HW228851   2.201   6.934   3.361
 9318SOL     OW28852   3.148   0.266   3.535
 9318SOL    HW128853   3.239   0.292   3.568
 9318SOL    HW228854   3.103   0.208   3.604
 9319SOL     OW28855   3.831   2.268   0.828
 9319SOL    HW128856   3.858   2.248   0.734
 9319SOL    HW228857   3.848   2.364   0.848
 9320SOL     OW28858   6.503   6.970   6.756
 9320SOL    HW128859   6.538   7.019   6.676
 9320SOL    HW228860   6.403   6.971   6.755
 9321SOL     OW28861   1.387   2.229   4.542
 9321SOL    HW128862   1.448   2.265   4.471
 9321SOL    HW228863   1.412   2.135   4.563
 9322SOL     OW28864   5.618   3.496   0.368
 9322SOL    HW128865   5.589   3.503   0.273
 9322SOL    HW228866   5.550   3.446   0.421
 9323SOL     OW28867   0.726   2.807   4.519
 9323SOL    HW128868   0.722   2.714   4.554
 9323SOL    HW228869   0.745   2.806   4.421
 9324SOL     OW28870   0.889   4.511   1.155
 9324SOL    HW128871   0.915   4.479   1.246
 9324SOL    HW228872   0.810   4.459   1.123
 9325SOL     OW28873   6.937   4.567   2.950
 9325SOL    HW128874   7.014   4.597   2.895
 9325SOL    HW228875   6.968   4.499   3.017
 9326SOL     OW28876   4.097   4.784   1.098
 9326SOL    HW128877   4.133   4.834   1.177
 9326SOL    HW228878   3.997   4.783   1.102
 9327SOL     OW28879   1.857   1.641   3.306
 9327SOL    HW128880   1.944   1.605   3.272
 9327SOL    HW228881   1.793   1.651   3.230
 9328SOL     OW28882   1.064   0.538   3.436
 9328SOL    HW128883   0.987   0.582   3.389
 9328SOL    HW228884   1.031   0.461   3.491
 9329SOL     OW28885   1.347   5.227   6.092
 9329SOL    HW128886   1.359   5.132   6.119
 9329SOL    HW228887   1.318   5.281   6.172
 9330SOL     OW28888   0.954   6.481   0.893
 9330SOL    HW128889   0.912   6.412   0.952
 9330SOL    HW228890   1.042   6.447   0.859
 9331SOL     OW28891   2.584   5.299   4.759
 9331SOL    HW128892   2.646   5.320   4.683
 9331SOL    HW228893   2.613   5.351   4.840
 9332SOL     OW28894   6.295   5.990   0.459
 9332SOL    HW128895   6.208   5.944   0.472
 9332SOL    HW228896   6.370   5.924   0.469
 9333SOL     OW28897   1.260   5.571   0.867
 9333SOL    HW128898   1.266   5.471   0.877
 9333SOL    HW228899   1.309   5.598   0.784
 9334SOL     OW28900   0.516   6.010   0.382
 9334SOL    HW128901   0.525   5.915   0.413
 9334SOL    HW228902   0.530   6.072   0.459
 9335SOL     OW28903   6.911   4.038   0.780
 9335SOL    HW128904   6.917   4.064   0.684
 9335SOL    HW228905   6.815   4.030   0.807
 9336SOL     OW28906   3.957   5.234   5.410
 9336SOL    HW128907   3.926   5.139   5.415
 9336SOL    HW228908   3.916   5.287   5.485
 9337SOL     OW28909   3.144   1.775   4.714
 9337SOL    HW128910   3.093   1.862   4.714
 9337SOL    HW228911   3.218   1.780   4.648
 9338SOL     OW28912   4.246   6.943   1.278
 9338SOL    HW128913   4.300   0.002   1.254
 9338SOL    HW228914   4.169   6.935   1.214
 9339SOL     OW28915   0.463   3.752   4.787
 9339SOL    HW128916   0.380   3.703   4.812
 9339SOL    HW228917   0.460   3.776   4.691
 9340SOL     OW28918   2.562   4.606   2.136
 9340SOL    HW128919   2.641   4.576   2.083
 9340SOL    HW228920   2.589   4.619   2.232
 9341SOL     OW28921   5.034   5.417   1.549
 9341SOL    HW128922   5.110   5.354   1.540
 9341SOL    HW228923   5.068   5.509   1.570
 9342SOL     OW28924   3.368   0.339   4.865
 9342SOL    HW128925   3.383   0.305   4.958
 9342SOL    HW228926   3.396   0.270   4.799
 9343SOL     OW28927   5.388   3.770   1.214
 9343SOL    HW128928   5.477   3.779   1.259
 9343SOL    HW228929   5.361   3.859   1.178
 9344SOL     OW28930   5.382   6.368   5.093
 9344SOL    HW128931   5.370   6.433   5.018
 9344SOL    HW228932   5.461   6.310   5.074
 9345SOL     OW28933   6.978   4.556   6.220
 9345SOL    HW128934   6.949   4.579   6.312
 9345SOL    HW228935   0.054   4.530   6.221
 9346SOL     OW28936   5.032   0.872   2.186
 9346SOL    HW128937   5.117   0.894   2.234
 9346SOL    HW228938   5.040   0.783   2.142
 9347SOL     OW28939   4.490   6.808   2.040
 9347SOL    HW128940   4.524   6.873   2.108
 9347SOL    HW228941   4.549   6.810   1.960
 9348SOL     OW28942   2.595   5.208   1.835
 9348SOL    HW128943   2.632   5.202   1.743
 9348SOL    HW228944   2.671   5.207   1.901
 9349SOL     OW28945   0.008   5.117   1.258
 9349SOL    HW128946   7.002   5.081   1.347
 9349SOL    HW228947   7.018   5.216   1.258
 9350SOL     OW28948   6.413   0.290   6.862
 9350SOL    HW128949   6.488   0.225   6.875
 9350SOL    HW228950   6.358   0.261   6.783
 9351SOL     OW28951   4.387   3.954   6.299
 9351SOL    HW128952   4.336   3.962   6.384
 9351SOL    HW228953   4.484   3.943   6.320
 9352SOL     OW28954   2.631   1.813   6.622
 9352SOL    HW128955   2.711   1.868   6.645
 9352SOL    HW228956   2.649   1.717   6.642
 9353SOL     OW28957   0.903   2.799   2.251
 9353SOL    HW128958   0.836   2.812   2.177
 9353SOL    HW228959   0.861   2.823   2.338
 9354SOL     OW28960   5.861   1.969   2.525
 9354SOL    HW128961   5.810   1.890   2.561
 9354SOL    HW228962   5.939   1.988   2.584
 9355SOL     OW28963   0.423   1.733   1.918
 9355SOL    HW128964   0.468   1.649   1.947
 9355SOL    HW228965   0.394   1.725   1.823
 9356SOL     OW28966   4.504   2.479   2.155
 9356SOL    HW128967   4.488   2.386   2.188
 9356SOL    HW228968   4.452   2.495   2.072
 9357SOL     OW28969   2.092   4.498   6.967
 9357SOL    HW128970   2.064   4.406   6.938
 9357SOL    HW228971   2.187   4.514   6.939
 9358SOL     OW28972   5.688   4.515   2.830
 9358SOL    HW128973   5.601   4.544   2.790
 9358SOL    HW228974   5.671   4.467   2.916
 9359SOL     OW28975   4.289   5.148   5.627
 9359SOL    HW128976   4.275   5.105   5.716
 9359SOL    HW228977   4.257   5.086   5.555
 9360SOL     OW28978   1.097   0.242   5.538
 9360SOL    HW128979   1.136   0.199   5.457
 9360SOL    HW228980   1.004   0.208   5.552
 9361SOL     OW28981   1.435   1.287   2.184
 9361SOL    HW128982   1.496   1.208   2.173
 9361SOL    HW228983   1.404   1.293   2.279
 9362SOL     OW28984   1.328   1.618   3.159
 9362SOL    HW128985   1.300   1.652   3.070
 9362SOL    HW228986   1.397   1.547   3.147
 9363SOL     OW28987   1.304   6.177   2.189
 9363SOL    HW128988   1.351   6.100   2.232
 9363SOL    HW228989   1.360   6.211   2.113
 9364SOL     OW28990   5.496   4.315   1.009
 9364SOL    HW128991   5.509   4.256   0.930
 9364SOL    HW228992   5.424   4.382   0.990
 9365SOL     OW28993   2.158   1.603   4.265
 9365SOL    HW128994   2.114   1.669   4.204
 9365SOL    HW228995   2.237   1.562   4.219
 9366SOL     OW28996   2.895   1.401   1.554
 9366SOL    HW128997   2.827   1.387   1.482
 9366SOL    HW228998   2.859   1.466   1.621
 9367SOL     OW28999   5.526   6.621   4.335
 9367SOL    HW129000   5.547   6.709   4.378
 9367SOL    HW229001   5.445   6.582   4.378
 9368SOL     OW29002   5.700   2.738   0.722
 9368SOL    HW129003   5.800   2.731   0.714
 9368SOL    HW229004   5.663   2.649   0.748
 9369SOL     OW29005   0.134   2.003   5.177
 9369SOL    HW129006   0.218   2.008   5.124
 9369SOL    HW229007   0.155   1.980   5.272
 9370SOL     OW29008   5.645   5.810   2.209
 9370SOL    HW129009   5.742   5.833   2.214
 9370SOL    HW229010   5.611   5.789   2.301
 9371SOL     OW29011   1.878   6.670   0.356
 9371SOL    HW129012   1.916   6.698   0.444
 9371SOL    HW229013   1.842   6.577   0.362
 9372SOL     OW29014   5.486   5.289   0.716
 9372SOL    HW129015   5.417   5.307   0.646
 9372SOL    HW229016   5.442   5.265   0.802
 9373SOL     OW29017   4.808   2.945   4.226
 9373SOL    HW129018   4.815   3.009   4.302
 9373SOL    HW229019   4.712   2.924   4.208
 9374SOL     OW29020   5.429   3.826   6.822
 9374SOL    HW129021   5.525   3.799   6.815
 9374SOL    HW229022   5.372   3.765   6.768
 9375SOL     OW29023   6.462   6.835   4.339
 9375SOL    HW129024   6.456   6.901   4.264
 9375SOL    HW229025   6.385   6.850   4.402
 9376SOL     OW29026   2.618   3.445   1.697
 9376SOL    HW129027   2.589   3.428   1.602
 9376SOL    HW229028   2.540   3.432   1.758
 9377SOL     OW29029   6.901   4.445   3.715
 9377SOL    HW129030   6.833   4.459   3.642
 9377SOL    HW229031   6.886   4.356   3.757
 9378SOL     OW29032   4.276   6.259   1.033
 9378SOL    HW129033   4.213   6.283   0.958
 9378SOL    HW229034   4.232   6.192   1.092
 9379SOL     OW29035   4.717   4.671   5.224
 9379SOL    HW129036   4.783   4.641   5.293
 9379SOL    HW229037   4.761   4.735   5.161
 9380SOL     OW29038   6.866   5.353   5.783
 9380SOL    HW129039   6.882   5.256   5.800
 9380SOL    HW229040   6.903   5.377   5.694
 9381SOL     OW29041   0.942   0.666   0.388
 9381SOL    HW129042   0.973   0.729   0.317
 9381SOL    HW229043   1.020   0.613   0.422
 9382SOL     OW29044   5.819   1.754   2.939
 9382SOL    HW129045   5.905   1.792   2.972
 9382SOL    HW229046   5.747   1.770   3.007
 9383SOL     OW29047   6.943   5.174   6.746
 9383SOL    HW129048   7.014   5.207   6.684
 9383SOL    HW229049   6.961   5.208   6.839
 9384SOL     OW29050   3.699   6.870   2.354
 9384SOL    HW129051   3.729   6.807   2.425
 9384SOL    HW229052   3.756   6.860   2.273
 9385SOL     OW29053   3.711   6.560   3.355
 9385SOL    HW129054   3.682   6.640   3.408
 9385SOL    HW229055   3.810   6.563   3.342
 9386SOL     OW29056   3.597   0.042   5.021
 9386SOL    HW129057   3.531   7.004   4.974
 9386SOL    HW229058   3.659   0.083   4.954
 9387SOL     OW29059   5.046   5.737   0.735
 9387SOL    HW129060   5.076   5.642   0.732
 9387SOL    HW229061   4.965   5.748   0.678
 9388SOL     OW29062   6.733   6.904   1.894
 9388SOL    HW129063   6.829   6.878   1.896
 9388SOL    HW229064   6.710   6.937   1.802
 9389SOL     OW29065   3.108   0.758   0.469
 9389SOL    HW129066   3.180   0.710   0.519
 9389SOL    HW229067   3.095   0.849   0.508
 9390SOL     OW29068   3.813   5.676   0.888
 9390SOL    HW129069   3.893   5.669   0.947
 9390SOL    HW229070   3.743   5.732   0.933
 9391SOL     OW29071   6.021   0.742   3.958
 9391SOL    HW129072   5.982   0.731   3.867
 9391SOL    HW229073   6.119   0.762   3.951
 9392SOL     OW29074   0.897   0.050   5.295
 9392SOL    HW129075   0.829   0.007   5.355
 9392SOL    HW229076   0.982   7.018   5.297
 9393SOL     OW29077   4.478   1.530   5.755
 9393SOL    HW129078   4.432   1.557   5.670
 9393SOL    HW229079   4.409   1.513   5.825
 9394SOL     OW29080   6.287   1.611   2.438
 9394SOL    HW129081   6.324   1.624   2.531
 9394SOL    HW229082   6.298   1.515   2.412
 9395SOL     OW29083   2.073   2.679   6.732
 9395SOL    HW129084   1.986   2.677   6.780
 9395SOL    HW229085   2.117   2.590   6.738
 9396SOL     OW29086   0.368   1.185   5.802
 9396SOL    HW129087   0.460   1.166   5.836
 9396SOL    HW229088   0.302   1.173   5.877
 9397SOL     OW29089   2.097   1.654   0.633
 9397SOL    HW129090   2.016   1.644   0.691
 9397SOL    HW229091   2.076   1.624   0.540
 9398SOL     OW29092   2.722   1.580   1.704
 9398SOL    HW129093   2.801   1.581   1.765
 9398SOL    HW229094   2.638   1.572   1.758
 9399SOL     OW29095   0.300   0.817   5.787
 9399SOL    HW129096   0.265   0.818   5.693
 9399SOL    HW229097   0.382   0.760   5.791
 9400SOL     OW29098   3.720   1.574   3.856
 9400SOL    HW129099   3.776   1.641   3.806
 9400SOL    HW229100   3.776   1.495   3.879
 9401SOL     OW29101   4.361   6.365   4.171
 9401SOL    HW129102   4.312   6.392   4.088
 9401SOL    HW229103   4.316   6.404   4.251
 9402SOL     OW29104   2.657   4.399   6.409
 9402SOL    HW129105   2.675   4.483   6.357
 9402SOL    HW229106   2.695   4.320   6.359
 9403SOL     OW29107   6.095   6.896   4.234
 9403SOL    HW129108   6.138   6.821   4.284
 9403SOL    HW229109   6.010   6.863   4.192
 9404SOL     OW29110   1.552   4.277   4.942
 9404SOL    HW129111   1.585   4.366   4.975
 9404SOL    HW229112   1.624   4.231   4.891
 9405SOL     OW29113   0.505   0.809   1.452
 9405SOL    HW129114   0.503   0.724   1.505
 9405SOL    HW229115   0.589   0.813   1.398
 9406SOL     OW29116   6.475   1.195   4.790
 9406SOL    HW129117   6.481   1.284   4.835
 9406SOL    HW229118   6.537   1.131   4.836
 9407SOL     OW29119   3.657   5.762   3.184
 9407SOL    HW129120   3.582   5.787   3.122
 9407SOL    HW229121   3.699   5.845   3.221
 9408SOL     OW29122   3.712   2.207   6.383
 9408SOL    HW129123   3.791   2.194   6.323
 9408SOL    HW229124   3.743   2.234   6.474
 9409SOL     OW29125   6.132   3.629   3.556
 9409SOL    HW129126   6.046   3.578   3.563
 9409SOL    HW229127   6.142   3.687   3.637
 9410SOL     OW29128   4.292   6.899   1.831
 9410SOL    HW129129   4.314   6.802   1.829
 9410SOL    HW229130   4.295   6.935   1.738
 9411SOL     OW29131   5.421   5.158   2.011
 9411SOL    HW129132   5.331   5.169   1.969
 9411SOL    HW229133   5.433   5.063   2.040
 9412SOL     OW29134   6.755   2.053   3.360
 9412SOL    HW129135   6.790   2.049   3.454
 9412SOL    HW229136   6.832   2.049   3.296
 9413SOL     OW29137   3.863   5.655   3.026
 9413SOL    HW129138   3.939   5.635   3.088
 9413SOL    HW229139   3.786   5.692   3.077
 9414SOL     OW29140   2.156   0.383   2.155
 9414SOL    HW129141   2.111   0.329   2.083
 9414SOL    HW229142   2.088   0.413   2.221
 9415SOL     OW29143   1.538   0.564   2.386
 9415SOL    HW129144   1.567   0.630   2.455
 9415SOL    HW229145   1.513   0.612   2.302
 9416SOL     OW29146   1.644   2.108   1.224
 9416SOL    HW129147   1.653   2.008   1.228
 9416SOL    HW229148   1.619   2.142   1.315
 9417SOL     OW29149   1.059   0.457   4.968
 9417SOL    HW129150   1.031   0.387   5.033
 9417SOL    HW229151   1.136   0.509   5.005
 9418SOL     OW29152   4.277   4.091   0.963
 9418SOL    HW129153   4.253   4.143   0.881
 9418SOL    HW229154   4.235   4.134   1.043
 9419SOL     OW29155   2.379   5.687   3.801
 9419SOL    HW129156   2.318   5.642   3.866
 9419SOL    HW229157   2.474   5.669   3.826
 9420SOL     OW29158   2.103   0.706   3.349
 9420SOL    HW129159   2.089   0.805   3.360
 9420SOL    HW229160   2.015   0.660   3.350
 9421SOL     OW29161   1.718   5.016   5.380
 9421SOL    HW129162   1.641   5.062   5.424
 9421SOL    HW229163   1.723   4.921   5.410
 9422SOL     OW29164   4.214   1.054   2.955
 9422SOL    HW129165   4.302   1.025   2.916
 9422SOL    HW229166   4.159   1.097   2.883
 9423SOL     OW29167   4.623   0.265   4.679
 9423SOL    HW129168   4.666   0.222   4.759
 9423SOL    HW229169   4.559   0.335   4.710
 9424SOL     OW29170   3.188   5.920   3.277
 9424SOL    HW129171   3.103   5.920   3.224
 9424SOL    HW229172   3.252   5.855   3.236
 9425SOL     OW29173   0.701   5.287   2.565
 9425SOL    HW129174   0.623   5.259   2.509
 9425SOL    HW229175   0.781   5.234   2.539
 9426SOL     OW29176   3.690   6.046   0.792
 9426SOL    HW129177   3.719   6.024   0.699
 9426SOL    HW229178   3.658   6.141   0.796
 9427SOL     OW29179   2.648   5.053   3.881
 9427SOL    HW129180   2.564   4.999   3.872
 9427SOL    HW229181   2.656   5.086   3.975
 9428SOL     OW29182   4.628   6.722   2.463
 9428SOL    HW129183   4.556   6.773   2.509
 9428SOL    HW229184   4.627   6.627   2.494
 9429SOL     OW29185   0.634   3.459   2.898
 9429SOL    HW129186   0.626   3.379   2.838
 9429SOL    HW229187   0.545   3.479   2.939
 9430SOL     OW29188   6.237   6.584   1.648
 9430SOL    HW129189   6.186   6.534   1.718
 9430SOL    HW229190   6.180   6.656   1.610
 9431SOL     OW29191   6.606   4.427   0.409
 9431SOL    HW129192   6.562   4.464   0.327
 9431SOL    HW229193   6.569   4.472   0.490
 9432SOL     OW29194   6.759   6.823   4.049
 9432SOL    HW129195   6.857   6.834   4.037
 9432SOL    HW229196   6.711   6.883   3.984
 9433SOL     OW29197   2.733   5.571   4.079
 9433SOL    HW129198   2.710   5.485   4.123
 9433SOL    HW229199   2.693   5.574   3.988
 9434SOL     OW29200   6.426   4.533   3.454
 9434SOL    HW129201   6.365   4.473   3.401
 9434SOL    HW229202   6.386   4.624   3.460
 9435SOL     OW29203   2.390   2.117   5.287
 9435SOL    HW129204   2.415   2.049   5.219
 9435SOL    HW229205   2.462   2.122   5.357
 9436SOL     OW29206   3.789   1.686   5.826
 9436SOL    HW129207   3.753   1.611   5.772
 9436SOL    HW229208   3.714   1.738   5.866
 9437SOL     OW29209   0.435   6.084   4.533
 9437SOL    HW129210   0.499   6.128   4.471
 9437SOL    HW229211   0.454   6.113   4.627
 9438SOL     OW29212   0.542   6.423   1.519
 9438SOL    HW129213   0.598   6.388   1.443
 9438SOL    HW229214   0.518   6.347   1.580
 9439SOL     OW29215   1.802   3.208   1.194
 9439SOL    HW129216   1.730   3.205   1.263
 9439SOL    HW229217   1.763   3.197   1.103
 9440SOL     OW29218   3.115   6.030   3.571
 9440SOL    HW129219   3.090   5.966   3.643
 9440SOL    HW229220   3.129   5.980   3.485
 9441SOL     OW29221   1.330   5.397   5.525
 9441SOL    HW129222   1.289   5.393   5.434
 9441SOL    HW229223   1.373   5.487   5.538
 9442SOL     OW29224   0.679   3.780   1.268
 9442SOL    HW129225   0.754   3.796   1.332
 9442SOL    HW229226   0.643   3.867   1.236
 9443SOL     OW29227   1.476   2.480   1.401
 9443SOL    HW129228   1.417   2.409   1.441
 9443SOL    HW229229   1.455   2.490   1.304
 9444SOL     OW29230   1.319   4.497   5.562
 9444SOL    HW129231   1.364   4.471   5.648
 9444SOL    HW229232   1.327   4.596   5.549
 9445SOL     OW29233   5.929   2.274   2.156
 9445SOL    HW129234   5.901   2.180   2.134
 9445SOL    HW229235   5.987   2.274   2.237
 9446SOL     OW29236   5.633   4.245   0.131
 9446SOL    HW129237   5.645   4.185   0.210
 9446SOL    HW229238   5.598   4.192   0.053
 9447SOL     OW29239   5.784   1.119   1.684
 9447SOL    HW129240   5.765   1.202   1.736
 9447SOL    HW229241   5.702   1.062   1.680
 9448SOL     OW29242   5.820   5.987   0.375
 9448SOL    HW129243   5.909   5.968   0.333
 9448SOL    HW229244   5.834   6.040   0.459
 9449SOL     OW29245   5.868   5.653   5.127
 9449SOL    HW129246   5.917   5.657   5.215
 9449SOL    HW229247   5.837   5.559   5.111
 9450SOL     OW29248   2.222   5.957   3.984
 9450SOL    HW129249   2.173   5.962   4.071
 9450SOL    HW229250   2.321   5.954   4.002
 9451SOL     OW29251   3.738   4.027   5.356
 9451SOL    HW129252   3.775   4.085   5.284
 9451SOL    HW229253   3.785   3.938   5.356
 9452SOL     OW29254   3.711   4.342   0.493
 9452SOL    HW129255   3.746   4.435   0.480
 9452SOL    HW229256   3.731   4.311   0.585
 9453SOL     OW29257   3.718   5.694   1.319
 9453SOL    HW129258   3.793   5.734   1.371
 9453SOL    HW229259   3.700   5.750   1.238
 9454SOL     OW29260   2.161   2.611   5.998
 9454SOL    HW129261   2.189   2.517   6.017
 9454SOL    HW229262   2.146   2.621   5.900
 9455SOL     OW29263   1.705   2.263   2.250
 9455SOL    HW129264   1.659   2.312   2.324
 9455SOL    HW229265   1.640   2.244   2.176
 9456SOL     OW29266   1.342   3.077   0.075
 9456SOL    HW129267   1.384   3.162   0.043
 9456SOL    HW229268   1.289   3.036   0.001
 9457SOL     OW29269   6.174   3.854   0.110
 9457SOL    HW129270   6.140   3.811   0.026
 9457SOL    HW229271   6.102   3.911   0.149
 9458SOL     OW29272   1.376   6.409   4.277
 9458SOL    HW129273   1.445   6.337   4.267
 9458SOL    HW229274   1.301   6.392   4.213
 9459SOL     OW29275   4.440   6.185   0.511
 9459SOL    HW129276   4.400   6.097   0.535
 9459SOL    HW229277   4.500   6.215   0.585
 9460SOL     OW29278   1.518   4.038   5.645
 9460SOL    HW129279   1.442   4.002   5.591
 9460SOL    HW229280   1.483   4.095   5.720
 9461SOL     OW29281   1.389   0.221   2.841
 9461SOL    HW129282   1.299   0.185   2.863
 9461SOL    HW229283   1.443   0.150   2.795
 9462SOL     OW29284   0.541   3.046   3.735
 9462SOL    HW129285   0.637   3.063   3.760
 9462SOL    HW229286   0.528   2.947   3.722
 9463SOL     OW29287   5.332   2.352   6.356
 9463SOL    HW129288   5.309   2.279   6.292
 9463SOL    HW229289   5.417   2.397   6.326
 9464SOL     OW29290   4.028   6.442   6.451
 9464SOL    HW129291   4.066   6.532   6.425
 9464SOL    HW229292   4.001   6.393   6.368
 9465SOL     OW29293   4.563   6.009   4.476
 9465SOL    HW129294   4.537   5.928   4.424
 9465SOL    HW229295   4.492   6.030   4.544
 9466SOL     OW29296   3.312   1.881   6.922
 9466SOL    HW129297   3.371   1.822   6.977
 9466SOL    HW229298   3.342   1.976   6.931
 9467SOL     OW29299   1.442   2.972   2.355
 9467SOL    HW129300   1.540   2.982   2.337
 9467SOL    HW229301   1.390   3.009   2.277
 9468SOL     OW29302   0.889   2.215   5.852
 9468SOL    HW129303   0.940   2.298   5.871
 9468SOL    HW229304   0.796   2.223   5.888
 9469SOL     OW29305   0.283   4.200   2.565
 9469SOL    HW129306   0.309   4.295   2.582
 9469SOL    HW229307   0.235   4.164   2.645
 9470SOL     OW29308   0.126   3.573   1.509
 9470SOL    HW129309   0.178   3.488   1.514
 9470SOL    HW229310   0.030   3.553   1.489
 9471SOL     OW29311   0.323   2.567   5.562
 9471SOL    HW129312   0.399   2.537   5.505
 9471SOL    HW229313   0.314   2.506   5.641
 9472SOL     OW29314   6.432   2.097   5.274
 9472SOL    HW129315   6.353   2.152   5.303
 9472SOL    HW229316   6.408   2.000   5.276
 9473SOL     OW29317   2.763   5.101   5.532
 9473SOL    HW129318   2.786   5.006   5.511
 9473SOL    HW229319   2.668   5.119   5.509
 9474SOL     OW29320   4.074   5.717   3.681
 9474SOL    HW129321   4.039   5.778   3.609
 9474SOL    HW229322   4.036   5.744   3.769
 9475SOL     OW29323   2.014   3.456   1.184
 9475SOL    HW129324   1.972   3.367   1.168
 9475SOL    HW229325   2.087   3.447   1.251
 9476SOL     OW29326   2.598   3.649   5.393
 9476SOL    HW129327   2.675   3.662   5.330
 9476SOL    HW229328   2.515   3.684   5.351
 9477SOL     OW29329   0.866   2.255   0.207
 9477SOL    HW129330   0.804   2.283   0.135
 9477SOL    HW229331   0.818   2.198   0.274
 9478SOL     OW29332   5.548   3.804   6.421
 9478SOL    HW129333   5.551   3.900   6.394
 9478SOL    HW229334   5.588   3.793   6.512
 9479SOL     OW29335   5.480   4.802   5.234
 9479SOL    HW129336   5.443   4.724   5.285
 9479SOL    HW229337   5.577   4.787   5.215
 9480SOL     OW29338   6.722   3.622   6.375
 9480SOL    HW129339   6.754   3.666   6.459
 9480SOL    HW229340   6.791   3.557   6.344
 9481SOL     OW29341   0.369   2.503   2.808
 9481SOL    HW129342   0.276   2.531   2.787
 9481SOL    HW229343   0.426   2.584   2.822
 9482SOL     OW29344   4.775   0.802   2.262
 9482SOL    HW129345   4.860   0.834   2.219
 9482SOL    HW229346   4.751   0.713   2.225
 9483SOL     OW29347   1.139   1.181   0.524
 9483SOL    HW129348   1.074   1.191   0.600
 9483SOL    HW229349   1.212   1.248   0.534
 9484SOL     OW29350   6.040   0.464   3.671
 9484SOL    HW129351   6.097   0.530   3.621
 9484SOL    HW229352   5.944   0.476   3.644
 9485SOL     OW29353   0.337   0.043   2.905
 9485SOL    HW129354   0.292   0.066   2.818
 9485SOL    HW229355   0.420   0.097   2.914
 9486SOL     OW29356   2.803   6.789   2.092
 9486SOL    HW129357   2.793   6.887   2.107
 9486SOL    HW229358   2.714   6.744   2.102
 9487SOL     OW29359   3.402   3.302   3.359
 9487SOL    HW129360   3.322   3.300   3.299
 9487SOL    HW229361   3.373   3.289   3.454
 9488SOL     OW29362   1.509   0.742   1.898
 9488SOL    HW129363   1.572   0.761   1.823
 9488SOL    HW229364   1.423   0.791   1.883
 9489SOL     OW29365   3.002   4.723   0.333
 9489SOL    HW129366   3.074   4.663   0.369
 9489SOL    HW229367   2.913   4.680   0.348
 9490SOL     OW29368   4.812   1.578   0.200
 9490SOL    HW129369   4.783   1.640   0.127
 9490SOL    HW229370   4.857   1.499   0.160
 9491SOL     OW29371   5.867   5.952   6.309
 9491SOL    HW129372   5.790   5.948   6.373
 9491SOL    HW229373   5.953   5.954   6.359
 9492SOL     OW29374   2.665   4.880   1.136
 9492SOL    HW129375   2.736   4.887   1.066
 9492SOL    HW229376   2.651   4.783   1.159
 9493SOL     OW29377   5.129   6.253   2.812
 9493SOL    HW129378   5.184   6.244   2.895
 9493SOL    HW229379   5.059   6.323   2.826
 9494SOL     OW29380   3.987   3.292   6.594
 9494SOL    HW129381   4.014   3.228   6.665
 9494SOL    HW229382   3.939   3.370   6.636
 9495SOL     OW29383   5.708   2.742   4.087
 9495SOL    HW129384   5.720   2.677   4.012
 9495SOL    HW229385   5.795   2.757   4.133
 9496SOL     OW29386   6.631   4.271   6.973
 9496SOL    HW129387   6.680   4.227   0.028
 9496SOL    HW229388   6.661   4.366   6.965
 9497SOL     OW29389   1.014   6.275   6.081
 9497SOL    HW129390   1.084   6.337   6.117
 9497SOL    HW229391   0.991   6.207   6.150
 9498SOL     OW29392   4.201   0.095   6.618
 9498SOL    HW129393   4.174   0.039   6.697
 9498SOL    HW229394   4.159   0.059   6.535
 9499SOL     OW29395   4.727   4.007   5.730
 9499SOL    HW129396   4.643   4.033   5.777
 9499SOL    HW229397   4.733   3.907   5.725
 9500SOL     OW29398   4.866   6.092   0.918
 9500SOL    HW129399   4.869   6.181   0.872
 9500SOL    HW229400   4.816   6.026   0.862
 9501SOL     OW29401   3.492   1.604   5.001
 9501SOL    HW129402   3.467   1.546   5.079
 9501SOL    HW229403   3.582   1.645   5.018
 9502SOL     OW29404   3.468   3.155   5.711
 9502SOL    HW129405   3.515   3.097   5.777
 9502SOL    HW229406   3.487   3.251   5.732
 9503SOL     OW29407   1.398   6.713   1.787
 9503SOL    HW129408   1.492   6.723   1.818
 9503SOL    HW229409   1.373   6.616   1.787
 9504SOL     OW29410   0.470   3.330   0.669
 9504SOL    HW129411   0.451   3.234   0.647
 9504SOL    HW229412   0.552   3.335   0.725
 9505SOL     OW29413   5.403   3.366   3.175
 9505SOL    HW129414   5.308   3.393   3.191
 9505SOL    HW229415   5.454   3.372   3.261
 9506SOL     OW29416   6.639   2.227   1.464
 9506SOL    HW129417   6.730   2.222   1.506
 9506SOL    HW229418   6.585   2.298   1.509
 9507SOL     OW29419   1.539   2.939   5.114
 9507SOL    HW129420   1.547   3.012   5.182
 9507SOL    HW229421   1.456   2.954   5.060
 9508SOL     OW29422   4.919   1.380   5.737
 9508SOL    HW129423   4.970   1.464   5.719
 9508SOL    HW229424   4.976   1.301   5.713
 9509SOL     OW29425   3.726   6.814   6.196
 9509SOL    HW129426   3.696   6.890   6.138
 9509SOL    HW229427   3.780   6.750   6.141
 9510SOL     OW29428   6.403   3.836   3.064
 9510SOL    HW129429   6.421   3.934   3.072
 9510SOL    HW229430   6.412   3.809   2.968
 9511SOL     OW29431   2.274   1.593   1.123
 9511SOL    HW129432   2.254   1.522   1.191
 9511SOL    HW229433   2.307   1.675   1.169
 9512SOL     OW29434   1.393   3.876   5.405
 9512SOL    HW129435   1.393   3.816   5.325
 9512SOL    HW229436   1.388   3.971   5.375
 9513SOL     OW29437   2.468   4.433   4.568
 9513SOL    HW129438   2.374   4.464   4.583
 9513SOL    HW229439   2.487   4.355   4.627
 9514SOL     OW29440   3.081   2.741   5.607
 9514SOL    HW129441   3.107   2.650   5.640
 9514SOL    HW229442   3.089   2.743   5.507
 9515SOL     OW29443   2.159   5.942   5.719
 9515SOL    HW129444   2.176   5.848   5.691
 9515SOL    HW229445   2.072   5.947   5.768
 9516SOL     OW29446   6.000   4.570   4.548
 9516SOL    HW129447   5.928   4.511   4.512
 9516SOL    HW229448   6.088   4.544   4.508
 9517SOL     OW29449   0.725   4.969   2.685
 9517SOL    HW129450   0.719   5.021   2.770
 9517SOL    HW229451   0.750   5.030   2.610
 9518SOL     OW29452   1.130   2.823   5.626
 9518SOL    HW129453   1.218   2.784   5.599
 9518SOL    HW229454   1.123   2.917   5.593
 9519SOL     OW29455   3.314   3.619   3.422
 9519SOL    HW129456   3.313   3.578   3.331
 9519SOL    HW229457   3.262   3.704   3.420
 9520SOL     OW29458   5.265   1.012   6.639
 9520SOL    HW129459   5.172   0.990   6.612
 9520SOL    HW229460   5.274   1.004   6.738
 9521SOL     OW29461   3.692   1.248   0.917
 9521SOL    HW129462   3.638   1.213   0.994
 9521SOL    HW229463   3.756   1.177   0.886
 9522SOL     OW29464   3.509   6.759   1.170
 9522SOL    HW129465   3.475   6.813   1.092
 9522SOL    HW229466   3.545   6.672   1.136
 9523SOL     OW29467   2.646   5.020   4.631
 9523SOL    HW129468   2.683   4.947   4.689
 9523SOL    HW229469   2.638   5.104   4.683
 9524SOL     OW29470   1.962   3.800   0.488
 9524SOL    HW129471   1.990   3.789   0.393
 9524SOL    HW229472   2.039   3.781   0.548
 9525SOL     OW29473   2.293   3.043   6.504
 9525SOL    HW129474   2.195   3.022   6.498
 9525SOL    HW229475   2.327   3.070   6.414
 9526SOL     OW29476   5.346   5.328   5.911
 9526SOL    HW129477   5.305   5.238   5.904
 9526SOL    HW229478   5.288   5.396   5.867
 9527SOL     OW29479   3.995   6.636   4.428
 9527SOL    HW129480   3.936   6.634   4.508
 9527SOL    HW229481   4.082   6.679   4.451
 9528SOL     OW29482   4.931   2.347   0.294
 9528SOL    HW129483   4.876   2.278   0.246
 9528SOL    HW229484   4.880   2.380   0.374
 9529SOL     OW29485   5.565   0.612   2.105
 9529SOL    HW129486   5.535   0.665   2.026
 9529SOL    HW229487   5.656   0.642   2.133
 9530SOL     OW29488   1.081   5.699   3.728
 9530SOL    HW129489   1.091   5.792   3.695
 9530SOL    HW229490   1.124   5.690   3.818
 9531SOL     OW29491   3.227   5.768   1.460
 9531SOL    HW129492   3.159   5.711   1.413
 9531SOL    HW229493   3.182   5.828   1.525
 9532SOL     OW29494   0.003   4.897   4.544
 9532SOL    HW129495   0.093   4.889   4.588
 9532SOL    HW229496   0.016   4.916   4.447
 9533SOL     OW29497   1.190   3.962   3.666
 9533SOL    HW129498   1.231   3.977   3.576
 9533SOL    HW229499   1.221   3.874   3.703
 9534SOL     OW29500   4.666   5.913   4.160
 9534SOL    HW129501   4.760   5.928   4.129
 9534SOL    HW229502   4.622   6.000   4.181
 9535SOL     OW29503   0.350   1.810   4.511
 9535SOL    HW129504   0.268   1.842   4.559
 9535SOL    HW229505   0.431   1.840   4.560
 9536SOL     OW29506   3.986   3.924   5.555
 9536SOL    HW129507   3.919   3.875   5.500
 9536SOL    HW229508   4.054   3.859   5.591
 9537SOL     OW29509   7.007   1.054   3.949
 9537SOL    HW129510   6.944   1.103   4.009
 9537SOL    HW229511   0.045   0.995   4.005
 9538SOL     OW29512   5.557   0.676   4.974
 9538SOL    HW129513   5.529   0.772   4.971
 9538SOL    HW229514   5.637   0.667   5.033
 9539SOL     OW29515   3.447   3.718   2.433
 9539SOL    HW129516   3.352   3.693   2.414
 9539SOL    HW229517   3.492   3.642   2.480
 9540SOL     OW29518   3.997   5.044   3.232
 9540SOL    HW129519   3.982   5.142   3.244
 9540SOL    HW229520   4.020   5.003   3.320
 9541SOL     OW29521   1.536   5.849   5.797
 9541SOL    HW129522   1.437   5.835   5.808
 9541SOL    HW229523   1.554   5.945   5.780
 9542SOL     OW29524   6.358   3.776   2.799
 9542SOL    HW129525   6.335   3.683   2.772
 9542SOL    HW229526   6.443   3.804   2.755
 9543SOL     OW29527   2.392   0.264   5.670
 9543SOL    HW129528   2.376   0.278   5.767
 9543SOL    HW229529   2.471   0.319   5.641
 9544SOL     OW29530   6.519   3.687   4.747
 9544SOL    HW129531   6.436   3.728   4.709
 9544SOL    HW229532   6.569   3.756   4.800
 9545SOL     OW29533   6.654   4.247   1.987
 9545SOL    HW129534   6.615   4.330   1.947
 9545SOL    HW229535   6.652   4.255   2.087
 9546SOL     OW29536   3.002   2.924   1.015
 9546SOL    HW129537   3.014   2.940   1.113
 9546SOL    HW229538   3.028   2.829   0.994
 9547SOL     OW29539   4.348   0.633   3.432
 9547SOL    HW129540   4.388   0.608   3.344
 9547SOL    HW229541   4.404   0.703   3.475
 9548SOL     OW29542   0.594   5.265   5.896
 9548SOL    HW129543   0.494   5.275   5.889
 9548SOL    HW229544   0.621   5.178   5.856
 9549SOL     OW29545   4.305   1.167   1.768
 9549SOL    HW129546   4.389   1.205   1.805
 9549SOL    HW229547   4.226   1.203   1.819
 9550SOL     OW29548   6.626   2.819   1.660
 9550SOL    HW129549   6.545   2.762   1.651
 9550SOL    HW229550   6.605   2.912   1.628
 9551SOL     OW29551   5.937   2.876   6.673
 9551SOL    HW129552   5.959   2.973   6.663
 9551SOL    HW229553   5.965   2.826   6.590
 9552SOL     OW29554   2.884   1.909   6.882
 9552SOL    HW129555   2.919   1.851   6.808
 9552SOL    HW229556   2.840   1.852   6.951
 9553SOL     OW29557   5.474   1.517   0.045
 9553SOL    HW129558   5.453   1.474   6.978
 9553SOL    HW229559   5.532   1.597   0.030
 9554SOL     OW29560   2.819   1.113   4.668
 9554SOL    HW129561   2.885   1.187   4.675
 9554SOL    HW229562   2.733   1.148   4.629
 9555SOL     OW29563   0.316   6.102   3.201
 9555SOL    HW129564   0.290   6.077   3.108
 9555SOL    HW229565   0.396   6.162   3.199
 9556SOL     OW29566   2.423   4.242   6.527
 9556SOL    HW129567   2.337   4.220   6.572
 9556SOL    HW229568   2.439   4.179   6.451
 9557SOL     OW29569   5.789   1.068   1.109
 9557SOL    HW129570   5.858   1.138   1.087
 9557SOL    HW229571   5.736   1.098   1.189
 9558SOL     OW29572   4.840   6.285   6.347
 9558SOL    HW129573   4.933   6.251   6.360
 9558SOL    HW229574   4.829   6.317   6.252
 9559SOL     OW29575   2.317   4.662   0.226
 9559SOL    HW129576   2.298   4.585   0.165
 9559SOL    HW229577   2.257   4.738   0.203
 9560SOL     OW29578   2.836   0.216   2.328
 9560SOL    HW129579   2.907   0.261   2.274
 9560SOL    HW229580   2.800   0.281   2.395
 9561SOL     OW29581   6.952   0.767   0.320
 9561SOL    HW129582   0.010   0.808   0.276
 9561SOL    HW229583   6.913   0.697   0.261
 9562SOL     OW29584   2.013   5.832   3.016
 9562SOL    HW129585   2.084   5.891   3.055
 9562SOL    HW229586   1.923   5.869   3.038
 9563SOL     OW29587   1.012   5.797   6.541
 9563SOL    HW129588   0.953   5.851   6.480
 9563SOL    HW229589   1.036   5.852   6.621
 9564SOL     OW29590   1.112   1.315   1.036
 9564SOL    HW129591   1.207   1.332   1.010
 9564SOL    HW229592   1.107   1.234   1.094
 9565SOL     OW29593   2.260   1.970   4.425
 9565SOL    HW129594   2.176   2.000   4.379
 9565SOL    HW229595   2.338   1.982   4.364
 9566SOL     OW29596   3.209   0.038   6.966
 9566SOL    HW129597   3.226   0.071   0.037
 9566SOL    HW229598   3.114   0.007   6.958
 9567SOL     OW29599   0.203   4.368   1.325
 9567SOL    HW129600   0.124   4.313   1.296
 9567SOL    HW229601   0.286   4.329   1.285
 9568SOL     OW29602   4.481   1.558   6.214
 9568SOL    HW129603   4.472   1.653   6.245
 9568SOL    HW229604   4.569   1.521   6.244
 9569SOL     OW29605   5.531   0.326   2.063
 9569SOL    HW129606   5.552   0.261   2.137
 9569SOL    HW229607   5.558   0.418   2.091
 9570SOL     OW29608   0.986   3.872   2.233
 9570SOL    HW129609   1.064   3.904   2.179
 9570SOL    HW229610   0.957   3.782   2.201
 9571SOL     OW29611   1.628   1.197   6.563
 9571SOL    HW129612   1.643   1.117   6.620
 9571SOL    HW229613   1.556   1.178   6.496
 9572SOL     OW29614   2.175   5.016   4.459
 9572SOL    HW129615   2.265   4.974   4.475
 9572SOL    HW229616   2.110   4.984   4.527
 9573SOL     OW29617   5.802   6.839   4.566
 9573SOL    HW129618   5.844   6.761   4.519
 9573SOL    HW229619   5.871   6.910   4.581
 9574SOL     OW29620   4.709   3.142   0.375
 9574SOL    HW129621   4.772   3.209   0.415
 9574SOL    HW229622   4.636   3.122   0.441
 9575SOL     OW29623   5.323   6.788   2.252
 9575SOL    HW129624   5.294   6.695   2.228
 9575SOL    HW229625   5.304   6.850   2.176
 9576SOL     OW29626   1.126   1.241   5.996
 9576SOL    HW129627   1.215   1.215   5.960
 9576SOL    HW229628   1.059   1.168   5.979
 9577SOL     OW29629   6.595   4.889   3.387
 9577SOL    HW129630   6.665   4.830   3.346
 9577SOL    HW229631   6.615   4.901   3.484
 9578SOL     OW29632   2.156   3.281   2.527
 9578SOL    HW129633   2.087   3.210   2.512
 9578SOL    HW229634   2.148   3.351   2.456
 9579SOL     OW29635   5.858   5.562   2.365
 9579SOL    HW129636   5.800   5.480   2.363
 9579SOL    HW229637   5.817   5.630   2.426
 9580SOL     OW29638   4.888   4.057   3.604
 9580SOL    HW129639   4.986   4.075   3.609
 9580SOL    HW229640   4.849   4.055   3.696
 9581SOL     OW29641   5.388   2.031   6.297
 9581SOL    HW129642   5.363   1.948   6.347
 9581SOL    HW229643   5.394   2.011   6.199
 9582SOL     OW29644   4.717   6.672   4.775
 9582SOL    HW129645   4.651   6.601   4.752
 9582SOL    HW229646   4.787   6.677   4.703
 9583SOL     OW29647   3.138   5.053   1.422
 9583SOL    HW129648   3.111   5.102   1.505
 9583SOL    HW229649   3.161   4.959   1.445
 9584SOL     OW29650   2.600   5.359   4.198
 9584SOL    HW129651   2.612   5.260   4.185
 9584SOL    HW229652   2.534   5.375   4.272
 9585SOL     OW29653   4.530   6.749   0.683
 9585SOL    HW129654   4.551   6.655   0.707
 9585SOL    HW229655   4.521   6.803   0.767
 9586SOL     OW29656   3.046   5.490   3.253
 9586SOL    HW129657   3.059   5.494   3.353
 9586SOL    HW229658   2.998   5.573   3.222
 9587SOL     OW29659   3.457   6.775   0.448
 9587SOL    HW129660   3.429   6.775   0.544
 9587SOL    HW229661   3.533   6.711   0.435
 9588SOL     OW29662   6.473   5.780   0.196
 9588SOL    HW129663   6.442   5.767   0.291
 9588SOL    HW229664   6.559   5.732   0.183
 9589SOL     OW29665   1.801   1.945   6.416
 9589SOL    HW129666   1.857   2.028   6.409
 9589SOL    HW229667   1.768   1.935   6.510
 9590SOL     OW29668   6.588   0.548   1.287
 9590SOL    HW129669   6.581   0.449   1.278
 9590SOL    HW229670   6.652   0.571   1.360
 9591SOL     OW29671   5.395   0.721   0.285
 9591SOL    HW129672   5.302   0.726   0.323
 9591SOL    HW229673   5.457   0.775   0.341
 9592SOL     OW29674   2.593   5.879   5.665
 9592SOL    HW129675   2.523   5.950   5.665
 9592SOL    HW229676   2.576   5.814   5.591
 9593SOL     OW29677   2.090   2.537   3.672
 9593SOL    HW129678   2.048   2.462   3.723
 9593SOL    HW229679   2.069   2.624   3.717
 9594SOL     OW29680   0.126   6.570   3.380
 9594SOL    HW129681   0.186   6.608   3.311
 9594SOL    HW229682   0.043   6.534   3.336
 9595SOL     OW29683   0.639   3.561   3.528
 9595SOL    HW129684   0.612   3.656   3.513
 9595SOL    HW229685   0.661   3.548   3.625
 9596SOL     OW29686   1.712   6.901   0.611
 9596SOL    HW129687   1.658   6.819   0.590
 9596SOL    HW229688   1.809   6.877   0.616
 9597SOL     OW29689   0.900   3.648   2.125
 9597SOL    HW129690   0.835   3.572   2.126
 9597SOL    HW229691   0.977   3.626   2.066
 9598SOL     OW29692   2.242   4.319   4.165
 9598SOL    HW129693   2.156   4.335   4.214
 9598SOL    HW229694   2.289   4.406   4.152
 9599SOL     OW29695   4.595   0.057   4.492
 9599SOL    HW129696   4.640   0.134   4.538
 9599SOL    HW229697   4.651   6.996   4.501
 9600SOL     OW29698   3.680   1.302   0.564
 9600SOL    HW129699   3.639   1.375   0.618
 9600SOL    HW229700   3.622   1.220   0.571
 9601SOL     OW29701   0.818   3.534   0.508
 9601SOL    HW129702   0.903   3.583   0.523
 9601SOL    HW229703   0.744   3.579   0.557
 9602SOL     OW29704   4.343   4.470   5.506
 9602SOL    HW129705   4.300   4.402   5.446
 9602SOL    HW229706   4.417   4.516   5.456
 9603SOL     OW29707   5.237   6.902   5.815
 9603SOL    HW129708   5.325   6.942   5.839
 9603SOL    HW229709   5.164   6.949   5.864
 9604SOL     OW29710   4.857   6.857   1.587
 9604SOL    HW129711   4.901   6.940   1.554
 9604SOL    HW229712   4.922   6.803   1.641
 9605SOL     OW29713   5.374   5.068   1.714
 9605SOL    HW129714   5.388   5.167   1.708
 9605SOL    HW229715   5.390   5.039   1.808
 9606SOL     OW29716   1.118   1.215   6.506
 9606SOL    HW129717   1.166   1.222   6.419
 9606SOL    HW229718   1.165   1.272   6.574
 9607SOL     OW29719   1.782   2.459   6.707
 9607SOL    HW129720   1.683   2.467   6.717
 9607SOL    HW229721   1.824   2.548   6.724
 9608SOL     OW29722   5.949   2.405   4.530
 9608SOL    HW129723   5.992   2.329   4.481
 9608SOL    HW229724   5.856   2.418   4.496
 9609SOL     OW29725   4.975   2.969   0.605
 9609SOL    HW129726   4.989   3.027   0.525
 9609SOL    HW229727   4.884   2.928   0.602
 9610SOL     OW29728   1.035   4.675   3.049
 9610SOL    HW129729   1.050   4.685   3.147
 9610SOL    HW229730   1.033   4.765   3.006
 9611SOL     OW29731   1.951   0.847   0.422
 9611SOL    HW129732   1.953   0.747   0.429
 9611SOL    HW229733   2.006   0.887   0.495
 9612SOL     OW29734   0.403   1.514   3.758
 9612SOL    HW129735   0.441   1.594   3.712
 9612SOL    HW229736   0.390   1.534   3.855
 9613SOL     OW29737   6.278   4.515   3.860
 9613SOL    HW129738   6.259   4.508   3.958
 9613SOL    HW229739   6.249   4.431   3.814
 9614SOL     OW29740   4.012   2.209   3.191
 9614SOL    HW129741   4.089   2.145   3.183
 9614SOL    HW229742   3.999   2.257   3.104
 9615SOL     OW29743   1.698   4.212   1.193
 9615SOL    HW129744   1.602   4.189   1.207
 9615SOL    HW229745   1.747   4.207   1.280
 9616SOL     OW29746   4.420   3.511   6.008
 9616SOL    HW129747   4.369   3.512   6.094
 9616SOL    HW229748   4.412   3.420   5.966
 9617SOL     OW29749   1.449   3.300   2.342
 9617SOL    HW129750   1.386   3.342   2.277
 9617SOL    HW229751   1.407   3.217   2.380
 9618SOL     OW29752   2.686   2.500   0.378
 9618SOL    HW129753   2.694   2.457   0.468
 9618SOL    HW229754   2.700   2.599   0.388
 9619SOL     OW29755   2.283   0.593   6.906
 9619SOL    HW129756   2.273   0.536   6.825
 9619SOL    HW229757   2.349   0.666   6.889
 9620SOL     OW29758   5.196   0.862   5.122
 9620SOL    HW129759   5.120   0.813   5.079
 9620SOL    HW229760   5.258   0.895   5.051
 9621SOL     OW29761   1.757   3.879   3.193
 9621SOL    HW129762   1.760   3.822   3.112
 9621SOL    HW229763   1.788   3.826   3.273
 9622SOL     OW29764   4.506   0.363   0.137
 9622SOL    HW129765   4.489   0.294   0.066
 9622SOL    HW229766   4.455   0.446   0.117
 9623SOL     OW29767   1.601   3.752   0.036
 9623SOL    HW129768   1.542   3.679   0.070
 9623SOL    HW229769   1.570   3.840   0.073
 9624SOL     OW29770   6.717   3.285   3.656
 9624SOL    HW129771   6.795   3.340   3.688
 9624SOL    HW229772   6.737   3.188   3.669
 9625SOL     OW29773   5.557   6.321   1.467
 9625SOL    HW129774   5.483   6.372   1.422
 9625SOL    HW229775   5.609   6.270   1.398
 9626SOL     OW29776   3.290   0.622   0.611
 9626SOL    HW129777   3.337   0.539   0.581
 9626SOL    HW229778   3.358   0.690   0.640
 9627SOL     OW29779   0.667   0.091   6.770
 9627SOL    HW129780   0.715   0.060   6.688
 9627SOL    HW229781   0.716   0.168   6.810
 9628SOL     OW29782   3.625   6.980   1.927
 9628SOL    HW129783   3.561   6.950   1.998
 9628SOL    HW229784   3.607   0.055   1.905
 9629SOL     OW29785   2.642   0.261   0.995
 9629SOL    HW129786   2.708   0.200   0.951
 9629SOL    HW229787   2.599   0.213   1.072
 9630SOL     OW29788   0.292   2.070   6.067
 9630SOL    HW129789   0.217   2.132   6.089
 9630SOL    HW229790   0.351   2.059   6.147
 9631SOL     OW29791   6.828   5.931   0.391
 9631SOL    HW129792   6.854   5.836   0.407
 9631SOL    HW229793   6.898   5.976   0.337
 9632SOL     OW29794   1.446   5.580   2.708
 9632SOL    HW129795   1.425   5.487   2.737
 9632SOL    HW229796   1.476   5.580   2.613
 9633SOL     OW29797   0.100   5.287   6.576
 9633SOL    HW129798   0.020   5.347   6.576
 9633SOL    HW229799   0.162   5.314   6.502
 9634SOL     OW29800   0.758   6.021   5.790
 9634SOL    HW129801   0.731   6.071   5.872
 9634SOL    HW229802   0.760   5.923   5.809
 9635SOL     OW29803   6.973   5.768   5.407
 9635SOL    HW129804   6.910   5.795   5.334
 9635SOL    HW229805   0.031   5.720   5.367
 9636SOL     OW29806   4.318   1.489   0.423
 9636SOL    HW129807   4.293   1.567   0.480
 9636SOL    HW229808   4.417   1.490   0.407
 9637SOL     OW29809   2.473   0.924   6.254
 9637SOL    HW129810   2.524   1.010   6.247
 9637SOL    HW229811   2.379   0.942   6.283
 9638SOL     OW29812   6.650   2.471   6.460
 9638SOL    HW129813   6.604   2.473   6.549
 9638SOL    HW229814   6.585   2.443   6.389
 9639SOL     OW29815   3.497   0.300   2.619
 9639SOL    HW129816   3.523   0.321   2.713
 9639SOL    HW229817   3.537   0.212   2.593
 9640SOL     OW29818   1.271   1.699   2.914
 9640SOL    HW129819   1.224   1.622   2.870
 9640SOL    HW229820   1.236   1.785   2.877
 9641SOL     OW29821   5.574   5.657   6.279
 9641SOL    HW129822   5.489   5.604   6.270
 9641SOL    HW229823   5.608   5.648   6.373
 9642SOL     OW29824   3.179   6.466   3.285
 9642SOL    HW129825   3.140   6.385   3.243
 9642SOL    HW229826   3.273   6.479   3.254
 9643SOL     OW29827   4.264   4.922   2.838
 9643SOL    HW129828   4.237   4.892   2.929
 9643SOL    HW229829   4.184   4.958   2.790
 9644SOL     OW29830   2.442   1.139   0.619
 9644SOL    HW129831   2.446   1.080   0.699
 9644SOL    HW229832   2.517   1.115   0.556
 9645SOL     OW29833   2.907   5.457   4.690
 9645SOL    HW129834   2.866   5.382   4.638
 9645SOL    HW229835   2.917   5.430   4.786
 9646SOL     OW29836   3.646   5.335   3.818
 9646SOL    HW129837   3.675   5.369   3.907
 9646SOL    HW229838   3.689   5.246   3.800
 9647SOL     OW29839   6.555   3.005   6.085
 9647SOL    HW129840   6.628   3.062   6.049
 9647SOL    HW229841   6.582   2.968   6.175
 9648SOL     OW29842   4.484   3.652   0.942
 9648SOL    HW129843   4.528   3.571   0.981
 9648SOL    HW229844   4.545   3.694   0.875
 9649SOL     OW29845   2.231   5.284   2.004
 9649SOL    HW129846   2.292   5.236   2.066
 9649SOL    HW229847   2.139   5.288   2.044
 9650SOL     OW29848   1.280   0.444   1.591
 9650SOL    HW129849   1.351   0.447   1.661
 9650SOL    HW229850   1.212   0.515   1.609
 9651SOL     OW29851   0.499   1.795   0.055
 9651SOL    HW129852   0.404   1.795   0.084
 9651SOL    HW229853   0.546   1.714   0.091
 9652SOL     OW29854   1.347   4.867   1.772
 9652SOL    HW129855   1.271   4.839   1.714
 9652SOL    HW229856   1.424   4.896   1.715
 9653SOL     OW29857   5.910   6.135   4.205
 9653SOL    HW129858   5.979   6.062   4.206
 9653SOL    HW229859   5.858   6.133   4.290
 9654SOL     OW29860   1.990   3.094   2.226
 9654SOL    HW129861   2.056   3.045   2.283
 9654SOL    HW229862   2.024   3.187   2.210
 9655SOL     OW29863   6.205   2.025   6.870
 9655SOL    HW129864   6.207   2.027   6.770
 9655SOL    HW229865   6.165   2.109   6.905
 9656SOL     OW29866   2.703   1.559   3.186
 9656SOL    HW129867   2.691   1.659   3.184
 9656SOL    HW229868   2.796   1.538   3.215
 9657SOL     OW29869   6.925   0.520   4.865
 9657SOL    HW129870   7.019   0.533   4.832
 9657SOL    HW229871   6.921   0.539   4.963
 9658SOL     OW29872   5.952   1.361   2.504
 9658SOL    HW129873   6.016   1.429   2.468
 9658SOL    HW229874   5.967   1.349   2.602
 9659SOL     OW29875   1.228   5.034   6.857
 9659SOL    HW129876   1.295   5.069   6.791
 9659SOL    HW229877   1.149   4.998   6.808
 9660SOL     OW29878   1.054   5.116   0.350
 9660SOL    HW129879   1.056   5.149   0.255
 9660SOL    HW229880   0.962   5.127   0.387
 9661SOL     OW29881   3.834   0.771   0.636
 9661SOL    HW129882   3.918   0.766   0.583
 9661SOL    HW229883   3.773   0.696   0.611
 9662SOL     OW29884   5.977   2.066   4.144
 9662SOL    HW129885   6.056   2.033   4.093
 9662SOL    HW229886   5.894   2.047   4.091
 9663SOL     OW29887   2.558   5.734   2.637
 9663SOL    HW129888   2.462   5.760   2.628
 9663SOL    HW229889   2.566   5.635   2.632
 9664SOL     OW29890   2.903   5.934   1.325
 9664SOL    HW129891   2.896   5.935   1.425
 9664SOL    HW229892   2.849   5.857   1.289
 9665SOL     OW29893   5.362   4.315   3.709
 9665SOL    HW129894   5.381   4.220   3.684
 9665SOL    HW229895   5.274   4.342   3.669
 9666SOL     OW29896   6.131   4.779   4.686
 9666SOL    HW129897   6.129   4.738   4.595
 9666SOL    HW229898   6.130   4.707   4.756
 9667SOL     OW29899   3.064   3.735   3.446
 9667SOL    HW129900   3.036   3.763   3.538
 9667SOL    HW229901   3.009   3.656   3.417
 9668SOL     OW29902   0.028   1.613   5.243
 9668SOL    HW129903   0.014   1.604   5.342
 9668SOL    HW229904   6.987   1.683   5.207
 9669SOL     OW29905   1.671   6.564   0.027
 9669SOL    HW129906   1.614   6.570   0.109
 9669SOL    HW229907   1.737   6.639   0.027
 9670SOL     OW29908   6.009   4.077   6.764
 9670SOL    HW129909   5.968   4.122   6.844
 9670SOL    HW229910   6.032   4.146   6.695
 9671SOL     OW29911   6.805   0.980   0.197
 9671SOL    HW129912   6.868   1.054   0.174
 9671SOL    HW229913   6.851   0.914   0.257
 9672SOL     OW29914   0.763   6.555   5.506
 9672SOL    HW129915   0.750   6.641   5.556
 9672SOL    HW229916   0.673   6.519   5.479
 9673SOL     OW29917   2.351   2.680   6.192
 9673SOL    HW129918   2.306   2.678   6.102
 9673SOL    HW229919   2.311   2.752   6.248
 9674SOL     OW29920   2.433   6.326   2.135
 9674SOL    HW129921   2.417   6.345   2.232
 9674SOL    HW229922   2.351   6.286   2.095
 9675SOL     OW29923   0.187   2.308   2.500
 9675SOL    HW129924   0.273   2.259   2.488
 9675SOL    HW229925   0.114   2.261   2.450
 9676SOL     OW29926   6.777   2.933   4.795
 9676SOL    HW129927   6.708   2.906   4.729
 9676SOL    HW229928   6.866   2.936   4.751
 9677SOL     OW29929   1.680   3.299   5.635
 9677SOL    HW129930   1.666   3.395   5.610
 9677SOL    HW229931   1.593   3.251   5.635
 9678SOL     OW29932   3.642   3.354   3.027
 9678SOL    HW129933   3.581   3.424   2.989
 9678SOL    HW229934   3.651   3.279   2.963
 9679SOL     OW29935   0.754   4.096   0.961
 9679SOL    HW129936   0.664   4.062   0.989
 9679SOL    HW229937   0.760   4.094   0.861
 9680SOL     OW29938   4.799   5.158   2.787
 9680SOL    HW129939   4.711   5.114   2.771
 9680SOL    HW229940   4.793   5.255   2.764
 9681SOL     OW29941   0.617   0.853   4.055
 9681SOL    HW129942   0.671   0.793   4.113
 9681SOL    HW229943   0.602   0.810   3.966
 9682SOL     OW29944   0.648   4.161   2.515
 9682SOL    HW129945   0.564   4.107   2.513
 9682SOL    HW229946   0.724   4.104   2.547
 9683SOL     OW29947   4.269   0.111   5.162
 9683SOL    HW129948   4.186   0.069   5.125
 9683SOL    HW229949   4.272   0.098   5.261
 9684SOL     OW29950   0.836   4.209   3.446
 9684SOL    HW129951   0.897   4.130   3.437
 9684SOL    HW229952   0.802   4.213   3.540
 9685SOL     OW29953   1.994   1.782   6.637
 9685SOL    HW129954   1.992   1.779   6.538
 9685SOL    HW229955   1.926   1.846   6.671
 9686SOL     OW29956   5.673   2.801   2.030
 9686SOL    HW129957   5.741   2.874   2.038
 9686SOL    HW229958   5.581   2.840   2.034
 9687SOL     OW29959   3.218   1.024   4.457
 9687SOL    HW129960   3.213   0.960   4.534
 9687SOL    HW229961   3.246   1.114   4.490
 9688SOL     OW29962   5.712   1.531   4.447
 9688SOL    HW129963   5.613   1.539   4.461
 9688SOL    HW229964   5.750   1.621   4.430
 9689SOL     OW29965   2.855   5.172   5.151
 9689SOL    HW129966   2.943   5.137   5.120
 9689SOL    HW229967   2.794   5.096   5.174
 9690SOL     OW29968   6.537   3.637   0.369
 9690SOL    HW129969   6.539   3.557   0.309
 9690SOL    HW229970   6.616   3.635   0.430
 9691SOL     OW29971   1.500   4.930   0.636
 9691SOL    HW129972   1.440   4.982   0.575
 9691SOL    HW229973   1.453   4.914   0.723
 9692SOL     OW29974   3.192   5.812   0.457
 9692SOL    HW129975   3.159   5.730   0.504
 9692SOL    HW229976   3.119   5.848   0.399
 9693SOL     OW29977   5.802   5.655   1.433
 9693SOL    HW129978   5.722   5.712   1.448
 9693SOL    HW229979   5.786   5.595   1.354
 9694SOL     OW29980   0.803   1.609   0.326
 9694SOL    HW129981   0.861   1.659   0.262
 9694SOL    HW229982   0.851   1.596   0.412
 9695SOL     OW29983   6.604   4.538   0.002
 9695SOL    HW129984   6.656   4.624   0.008
 9695SOL    HW229985   6.520   4.554   6.972
 9696SOL     OW29986   4.021   4.281   0.454
 9696SOL    HW129987   3.949   4.277   0.524
 9696SOL    HW229988   4.029   4.374   0.420
 9697SOL     OW29989   0.283   6.170   6.390
 9697SOL    HW129990   0.252   6.145   6.482
 9697SOL    HW229991   0.219   6.132   6.323
 9698SOL     OW29992   4.993   1.729   5.267
 9698SOL    HW129993   4.927   1.801   5.289
 9698SOL    HW229994   5.070   1.734   5.331
 9699SOL     OW29995   1.577   2.223   6.616
 9699SOL    HW129996   1.597   2.189   6.708
 9699SOL    HW229997   1.534   2.313   6.622
 9700SOL     OW29998   3.895   2.985   3.471
 9700SOL    HW129999   3.919   3.051   3.400
 9700SOL    HW230000   3.935   2.896   3.449
 9701SOL     OW30001   4.946   4.729   4.335
 9701SOL    HW130002   4.871   4.724   4.270
 9701SOL    HW230003   5.031   4.703   4.290
 9702SOL     OW30004   5.353   0.457   0.947
 9702SOL    HW130005   5.339   0.535   1.007
 9702SOL    HW230006   5.266   0.430   0.906
 9703SOL     OW30007   2.625   5.930   4.371
 9703SOL    HW130008   2.685   5.850   4.371
 9703SOL    HW230009   2.666   6.002   4.315
 9704SOL     OW30010   1.980   1.565   3.968
 9704SOL    HW130011   1.925   1.516   4.036
 9704SOL    HW230012   2.023   1.645   4.012
 9705SOL     OW30013   3.609   4.162   0.746
 9705SOL    HW130014   3.550   4.151   0.666
 9705SOL    HW230015   3.606   4.078   0.801
 9706SOL     OW30016   0.202   2.667   3.615
 9706SOL    HW130017   0.142   2.690   3.692
 9706SOL    HW230018   0.148   2.663   3.531
 9707SOL     OW30019   2.898   5.362   1.617
 9707SOL    HW130020   2.959   5.333   1.690
 9707SOL    HW230021   2.826   5.294   1.605
 9708SOL     OW30022   1.947   1.848   1.418
 9708SOL    HW130023   1.972   1.751   1.428
 9708SOL    HW230024   1.862   1.854   1.366
 9709SOL     OW30025   1.867   6.571   3.742
 9709SOL    HW130026   1.831   6.629   3.815
 9709SOL    HW230027   1.927   6.502   3.781
 9710SOL     OW30028   1.243   0.129   3.885
 9710SOL    HW130029   1.303   0.204   3.856
 9710SOL    HW230030   1.178   0.163   3.953
 9711SOL     OW30031   1.499   3.259   6.396
 9711SOL    HW130032   1.438   3.213   6.332
 9711SOL    HW230033   1.593   3.231   6.378
 9712SOL     OW30034   4.912   3.616   4.716
 9712SOL    HW130035   4.883   3.591   4.809
 9712SOL    HW230036   4.964   3.540   4.676
 9713SOL     OW30037   0.186   5.003   3.147
 9713SOL    HW130038   0.141   4.975   3.232
 9713SOL    HW230039   0.209   4.921   3.094
 9714SOL     OW30040   2.567   1.628   2.538
 9714SOL    HW130041   2.634   1.620   2.612
 9714SOL    HW230042   2.548   1.537   2.500
 9715SOL     OW30043   6.071   5.762   6.194
 9715SOL    HW130044   6.006   5.813   6.137
 9715SOL    HW230045   6.129   5.705   6.135
 9716SOL     OW30046   3.399   0.987   6.102
 9716SOL    HW130047   3.454   0.915   6.060
 9716SOL    HW230048   3.404   1.070   6.046
 9717SOL     OW30049   5.579   5.192   3.242
 9717SOL    HW130050   5.487   5.181   3.279
 9717SOL    HW230051   5.598   5.117   3.179
 9718SOL     OW30052   5.446   3.018   1.813
 9718SOL    HW130053   5.545   3.029   1.800
 9718SOL    HW230054   5.408   3.104   1.848
 9719SOL     OW30055   0.079   1.186   6.924
 9719SOL    HW130056   0.053   1.200   6.828
 9719SOL    HW230057   0.153   1.249   6.948
 9720SOL     OW30058   0.491   0.708   0.768
 9720SOL    HW130059   0.571   0.762   0.796
 9720SOL    HW230060   0.505   0.672   0.676
 9721SOL     OW30061   0.423   2.466   3.572
 9721SOL    HW130062   0.372   2.552   3.582
 9721SOL    HW230063   0.364   2.397   3.529
 9722SOL     OW30064   6.925   0.144   4.599
 9722SOL    HW130065   6.872   0.157   4.514
 9722SOL    HW230066   7.008   0.092   4.579
 9723SOL     OW30067   6.688   0.372   4.010
 9723SOL    HW130068   6.643   0.408   3.928
 9723SOL    HW230069   6.700   0.273   4.001
 9724SOL     OW30070   4.098   2.762   1.624
 9724SOL    HW130071   4.114   2.858   1.644
 9724SOL    HW230072   4.027   2.753   1.555
 9725SOL     OW30073   3.589   3.175   5.464
 9725SOL    HW130074   3.684   3.153   5.487
 9725SOL    HW230075   3.535   3.180   5.549
 9726SOL     OW30076   5.112   6.007   4.679
 9726SOL    HW130077   5.131   6.033   4.774
 9726SOL    HW230078   5.013   5.998   4.666
 9727SOL     OW30079   0.901   0.490   6.692
 9727SOL    HW130080   0.858   0.482   6.783
 9727SOL    HW230081   0.871   0.575   6.649
 9728SOL     OW30082   3.345   6.162   6.507
 9728SOL    HW130083   3.359   6.254   6.543
 9728SOL    HW230084   3.278   6.166   6.433
 9729SOL     OW30085   2.984   5.320   2.641
 9729SOL    HW130086   2.998   5.282   2.733
 9729SOL    HW230087   3.073   5.327   2.595
 9730SOL     OW30088   5.412   3.843   3.246
 9730SOL    HW130089   5.347   3.820   3.318
 9730SOL    HW230090   5.369   3.905   3.181
 9731SOL     OW30091   5.164   4.893   0.992
 9731SOL    HW130092   5.262   4.885   0.974
 9731SOL    HW230093   5.142   4.988   1.010
 9732SOL     OW30094   4.526   6.446   4.728
 9732SOL    HW130095   4.505   6.371   4.791
 9732SOL    HW230096   4.443   6.500   4.713
 9733SOL     OW30097   5.085   4.465   4.739
 9733SOL    HW130098   5.134   4.551   4.728
 9733SOL    HW230099   5.142   4.390   4.705
 9734SOL     OW30100   6.087   1.847   5.654
 9734SOL    HW130101   6.093   1.776   5.584
 9734SOL    HW230102   6.080   1.804   5.744
 9735SOL     OW30103   3.130   4.841   0.972
 9735SOL    HW130104   3.179   4.921   1.008
 9735SOL    HW230105   3.196   4.770   0.947
 9736SOL     OW30106   3.381   1.505   1.905
 9736SOL    HW130107   3.365   1.594   1.947
 9736SOL    HW230108   3.295   1.469   1.870
 9737SOL     OW30109   4.049   1.542   4.482
 9737SOL    HW130110   4.120   1.612   4.475
 9737SOL    HW230111   3.970   1.570   4.428
 9738SOL     OW30112   2.241   0.797   2.013
 9738SOL    HW130113   2.157   0.815   2.063
 9738SOL    HW230114   2.274   0.705   2.034
 9739SOL     OW30115   5.471   4.413   2.092
 9739SOL    HW130116   5.561   4.419   2.049
 9739SOL    HW230117   5.448   4.317   2.110
 9740SOL     OW30118   6.636   2.970   2.881
 9740SOL    HW130119   6.647   3.049   2.941
 9740SOL    HW230120   6.559   2.985   2.819
 9741SOL     OW30121   3.682   1.931   2.561
 9741SOL    HW130122   3.671   1.853   2.623
 9741SOL    HW230123   3.718   2.009   2.611
 9742SOL     OW30124   3.958   1.695   3.763
 9742SOL    HW130125   4.020   1.721   3.689
 9742SOL    HW230126   4.010   1.681   3.847
 9743SOL     OW30127   1.363   0.921   5.449
 9743SOL    HW130128   1.348   0.999   5.389
 9743SOL    HW230129   1.459   0.917   5.476
 9744SOL     OW30130   2.809   0.259   1.318
 9744SOL    HW130131   2.858   0.186   1.271
 9744SOL    HW230132   2.713   0.233   1.329
 9745SOL     OW30133   0.303   0.676   4.357
 9745SOL    HW130134   0.289   0.774   4.349
 9745SOL    HW230135   0.380   0.658   4.419
 9746SOL     OW30136   6.274   6.927   4.523
 9746SOL    HW130137   6.177   6.942   4.543
 9746SOL    HW230138   6.324   7.013   4.535
 9747SOL     OW30139   0.264   7.017   6.413
 9747SOL    HW130140   0.232   6.928   6.446
 9747SOL    HW230141   0.300   7.007   6.320
 9748SOL     OW30142   1.622   4.133   4.688
 9748SOL    HW130143   1.678   4.165   4.612
 9748SOL    HW230144   1.620   4.033   4.688
 9749SOL     OW30145   0.378   5.185   4.524
 9749SOL    HW130146   0.472   5.216   4.507
 9749SOL    HW230147   0.345   5.135   4.444
 9750SOL     OW30148   2.531   5.445   2.466
 9750SOL    HW130149   2.619   5.420   2.426
 9750SOL    HW230150   2.523   5.407   2.558
 9751SOL     OW30151   1.213   2.418   0.548
 9751SOL    HW130152   1.133   2.431   0.489
 9751SOL    HW230153   1.250   2.507   0.575
 9752SOL     OW30154   3.531   6.829   5.804
 9752SOL    HW130155   3.552   6.912   5.854
 9752SOL    HW230156   3.607   6.805   5.744
 9753SOL     OW30157   6.718   6.283   0.190
 9753SOL    HW130158   6.672   6.194   0.192
 9753SOL    HW230159   6.777   6.287   0.109
 9754SOL     OW30160   6.746   3.465   6.703
 9754SOL    HW130161   6.790   3.469   6.793
 9754SOL    HW230162   6.782   3.387   6.652
 9755SOL     OW30163   3.899   5.678   4.857
 9755SOL    HW130164   3.964   5.727   4.799
 9755SOL    HW230165   3.805   5.704   4.832
 9756SOL     OW30166   4.732   3.065   6.561
 9756SOL    HW130167   4.720   3.067   6.462
 9756SOL    HW230168   4.808   3.125   6.586
 9757SOL     OW30169   6.232   1.098   4.006
 9757SOL    HW130170   6.317   1.117   4.055
 9757SOL    HW230171   6.168   1.051   4.066
 9758SOL     OW30172   3.435   1.050   0.402
 9758SOL    HW130173   3.451   0.958   0.365
 9758SOL    HW230174   3.479   1.058   0.491
 9759SOL     OW30175   2.920   5.854   1.597
 9759SOL    HW130176   2.862   5.775   1.614
 9759SOL    HW230177   2.874   5.937   1.631
 9760SOL     OW30178   5.291   4.109   6.088
 9760SOL    HW130179   5.217   4.106   6.020
 9760SOL    HW230180   5.321   4.203   6.102
 9761SOL     OW30181   4.931   5.485   2.535
 9761SOL    HW130182   4.844   5.437   2.524
 9761SOL    HW230183   4.953   5.491   2.633
 9762SOL     OW30184   3.532   0.721   2.237
 9762SOL    HW130185   3.453   0.688   2.186
 9762SOL    HW230186   3.528   0.686   2.331
 9763SOL     OW30187   2.239   1.915   1.444
 9763SOL    HW130188   2.146   1.912   1.481
 9763SOL    HW230189   2.302   1.945   1.515
 9764SOL     OW30190   0.679   2.337   3.903
 9764SOL    HW130191   0.661   2.423   3.951
 9764SOL    HW230192   0.711   2.357   3.810
 9765SOL     OW30193   0.554   0.774   5.946
 9765SOL    HW130194   0.607   0.839   6.001
 9765SOL    HW230195   0.471   0.749   5.996
 9766SOL     OW30196   2.731   0.842   2.379
 9766SOL    HW130197   2.824   0.806   2.378
 9766SOL    HW230198   2.680   0.805   2.302
 9767SOL     OW30199   4.689   0.394   5.464
 9767SOL    HW130200   4.593   0.400   5.436
 9767SOL    HW230201   4.747   0.430   5.390
 9768SOL     OW30202   4.740   2.268   3.275
 9768SOL    HW130203   4.774   2.224   3.358
 9768SOL    HW230204   4.706   2.198   3.212
 9769SOL     OW30205   0.561   2.240   0.576
 9769SOL    HW130206   0.567   2.294   0.660
 9769SOL    HW230207   0.467   2.207   0.565
 9770SOL     OW30208   0.961   2.805   5.124
 9770SOL    HW130209   0.941   2.887   5.178
 9770SOL    HW230210   0.893   2.734   5.144
 9771SOL     OW30211   1.991   6.928   4.005
 9771SOL    HW130212   2.033   6.890   3.923
 9771SOL    HW230213   1.956   7.019   3.985
 9772SOL     OW30214   5.837   6.636   1.171
 9772SOL    HW130215   5.749   6.591   1.152
 9772SOL    HW230216   5.871   6.678   1.087
 9773SOL     OW30217   5.026   5.242   3.860
 9773SOL    HW130218   5.043   5.144   3.854
 9773SOL    HW230219   4.948   5.267   3.803
 9774SOL     OW30220   6.670   4.945   4.468
 9774SOL    HW130221   6.733   4.913   4.539
 9774SOL    HW230222   6.600   5.002   4.510
 9775SOL     OW30223   3.074   1.640   5.020
 9775SOL    HW130224   3.071   1.708   4.947
 9775SOL    HW230225   3.026   1.676   5.100
 9776SOL     OW30226   0.603   4.587   4.341
 9776SOL    HW130227   0.693   4.627   4.358
 9776SOL    HW230228   0.554   4.644   4.275
 9777SOL     OW30229   5.114   6.160   6.437
 9777SOL    HW130230   5.142   6.176   6.532
 9777SOL    HW230231   5.187   6.112   6.388
 9778SOL     OW30232   3.876   0.963   4.685
 9778SOL    HW130233   3.822   0.958   4.769
 9778SOL    HW230234   3.819   0.938   4.607
 9779SOL     OW30235   3.461   2.383   6.759
 9779SOL    HW130236   3.540   2.334   6.722
 9779SOL    HW230237   3.489   2.474   6.790
 9780SOL     OW30238   2.284   3.882   1.134
 9780SOL    HW130239   2.265   3.804   1.194
 9780SOL    HW230240   2.225   3.877   1.053
 9781SOL     OW30241   0.590   6.906   4.610
 9781SOL    HW130242   0.671   6.855   4.581
 9781SOL    HW230243   0.550   6.862   4.690
 9782SOL     OW30244   6.374   6.885   1.136
 9782SOL    HW130245   6.421   6.906   1.050
 9782SOL    HW230246   6.422   6.811   1.183
 9783SOL     OW30247   6.133   0.048   3.690
 9783SOL    HW130248   6.128   0.085   3.597
 9783SOL    HW230249   6.124   6.970   3.687
 9784SOL     OW30250   5.037   0.161   4.719
 9784SOL    HW130251   5.018   0.129   4.626
 9784SOL    HW230252   5.019   0.260   4.723
 9785SOL     OW30253   0.973   2.181   1.083
 9785SOL    HW130254   1.053   2.172   1.024
 9785SOL    HW230255   0.966   2.102   1.143
 9786SOL     OW30256   1.984   0.417   3.770
 9786SOL    HW130257   1.900   0.469   3.755
 9786SOL    HW230258   2.063   0.477   3.757
 9787SOL     OW30259   5.632   3.984   1.730
 9787SOL    HW130260   5.688   3.920   1.678
 9787SOL    HW230261   5.615   3.947   1.821
 9788SOL     OW30262   6.901   0.254   6.515
 9788SOL    HW130263   6.875   0.161   6.490
 9788SOL    HW230264   6.991   0.252   6.561
 9789SOL     OW30265   1.780   4.497   4.524
 9789SOL    HW130266   1.778   4.415   4.581
 9789SOL    HW230267   1.815   4.574   4.577
 9790SOL     OW30268   6.939   1.136   3.426
 9790SOL    HW130269   6.924   1.100   3.334
 9790SOL    HW230270   6.963   1.060   3.487
 9791SOL     OW30271   1.576   2.831   0.775
 9791SOL    HW130272   1.542   2.924   0.760
 9791SOL    HW230273   1.597   2.819   0.872
 9792SOL     OW30274   4.400   5.725   2.044
 9792SOL    HW130275   4.433   5.646   1.991
 9792SOL    HW230276   4.399   5.806   1.985
 9793SOL     OW30277   5.153   6.150   2.538
 9793SOL    HW130278   5.209   6.207   2.478
 9793SOL    HW230279   5.164   6.182   2.633
 9794SOL     OW30280   3.843   3.387   7.017
 9794SOL    HW130281   3.792   3.357   0.077
 9794SOL    HW230282   3.814   3.334   6.937
 9795SOL     OW30283   1.510   4.639   2.825
 9795SOL    HW130284   1.468   4.582   2.755
 9795SOL    HW230285   1.600   4.603   2.848
 9796SOL     OW30286   4.173   4.903   6.458
 9796SOL    HW130287   4.122   4.842   6.397
 9796SOL    HW230288   4.129   4.993   6.459
 9797SOL     OW30289   6.104   2.968   5.238
 9797SOL    HW130290   6.047   2.922   5.306
 9797SOL    HW230291   6.064   2.955   5.147
 9798SOL     OW30292   3.099   1.070   2.212
 9798SOL    HW130293   3.159   1.143   2.179
 9798SOL    HW230294   3.039   1.040   2.138
 9799SOL     OW30295   4.126   3.390   3.121
 9799SOL    HW130296   4.080   3.311   3.160
 9799SOL    HW230297   4.225   3.383   3.137
 9800SOL     OW30298   3.729   6.713   0.528
 9800SOL    HW130299   3.723   6.813   0.531
 9800SOL    HW230300   3.775   6.685   0.443
 9801SOL     OW30301   5.685   4.807   1.361
 9801SOL    HW130302   5.751   4.757   1.418
 9801SOL    HW230303   5.645   4.744   1.294
 9802SOL     OW30304   0.931   5.511   2.239
 9802SOL    HW130305   0.889   5.517   2.329
 9802SOL    HW230306   1.024   5.549   2.242
 9803SOL     OW30307   5.481   0.080   6.640
 9803SOL    HW130308   5.426   0.162   6.653
 9803SOL    HW230309   5.443   0.024   6.567
 9804SOL     OW30310   4.626   5.248   4.552
 9804SOL    HW130311   4.665   5.161   4.583
 9804SOL    HW230312   4.532   5.256   4.587
 9805SOL     OW30313   3.635   3.923   0.843
 9805SOL    HW130314   3.691   3.899   0.922
 9805SOL    HW230315   3.659   3.863   0.766
 9806SOL     OW30316   6.965   1.414   2.456
 9806SOL    HW130317   6.975   1.315   2.463
 9806SOL    HW230318   6.919   1.449   2.538
 9807SOL     OW30319   2.396   3.004   1.188
 9807SOL    HW130320   2.309   2.996   1.141
 9807SOL    HW230321   2.433   2.913   1.207
 9808SOL     OW30322   2.595   2.503   3.558
 9808SOL    HW130323   2.597   2.567   3.481
 9808SOL    HW230324   2.506   2.506   3.602
 9809SOL     OW30325   0.140   0.237   4.247
 9809SOL    HW130326   0.097   0.294   4.317
 9809SOL    HW230327   0.091   0.150   4.240
 9810SOL     OW30328   4.437   1.838   2.543
 9810SOL    HW130329   4.527   1.832   2.500
 9810SOL    HW230330   4.388   1.753   2.530
 9811SOL     OW30331   1.362   0.801   3.327
 9811SOL    HW130332   1.327   0.836   3.240
 9811SOL    HW230333   1.462   0.801   3.325
 9812SOL     OW30334   5.508   3.074   6.531
 9812SOL    HW130335   5.471   3.005   6.468
 9812SOL    HW230336   5.576   3.031   6.590
 9813SOL     OW30337   5.997   4.620   0.373
 9813SOL    HW130338   5.937   4.566   0.314
 9813SOL    HW230339   6.012   4.571   0.459
 9814SOL     OW30340   6.274   1.285   6.008
 9814SOL    HW130341   6.354   1.262   5.952
 9814SOL    HW230342   6.248   1.380   5.993
 9815SOL     OW30343   0.147   4.753   2.231
 9815SOL    HW130344   0.164   4.851   2.243
 9815SOL    HW230345   0.070   4.740   2.168
 9816SOL     OW30346   6.811   1.898   4.899
 9816SOL    HW130347   6.711   1.898   4.901
 9816SOL    HW230348   6.844   1.803   4.893
 9817SOL     OW30349   2.309   1.558   0.474
 9817SOL    HW130350   2.239   1.624   0.501
 9817SOL    HW230351   2.374   1.545   0.549
 9818SOL     OW30352   0.331   0.387   2.642
 9818SOL    HW130353   0.283   0.435   2.569
 9818SOL    HW230354   0.342   0.291   2.616
 9819SOL     OW30355   5.680   1.144   4.522
 9819SOL    HW130356   5.727   1.136   4.609
 9819SOL    HW230357   5.640   1.055   4.498
 9820SOL     OW30358   3.566   0.421   6.723
 9820SOL    HW130359   3.543   0.353   6.793
 9820SOL    HW230360   3.519   0.507   6.743
 9821SOL     OW30361   5.021   4.035   6.734
 9821SOL    HW130362   5.005   3.955   6.676
 9821SOL    HW230363   5.084   4.098   6.689
 9822SOL     OW30364   3.075   5.875   3.793
 9822SOL    HW130365   3.148   5.815   3.827
 9822SOL    HW230366   3.037   5.928   3.869
 9823SOL     OW30367   4.636   5.726   3.436
 9823SOL    HW130368   4.597   5.638   3.466
 9823SOL    HW230369   4.616   5.796   3.505
 9824SOL     OW30370   1.304   5.946   5.617
 9824SOL    HW130371   1.254   5.963   5.701
 9824SOL    HW230372   1.258   5.991   5.540
 9825SOL     OW30373   1.014   6.318   4.459
 9825SOL    HW130374   1.112   6.335   4.452
 9825SOL    HW230375   0.983   6.337   4.552
 9826SOL     OW30376   1.903   5.970   5.876
 9826SOL    HW130377   1.830   5.934   5.935
 9826SOL    HW230378   1.962   6.030   5.930
 9827SOL     OW30379   1.484   4.703   1.953
 9827SOL    HW130380   1.475   4.759   2.035
 9827SOL    HW230381   1.440   4.750   1.876
 9828SOL     OW30382   4.797   2.090   4.322
 9828SOL    HW130383   4.770   2.186   4.312
 9828SOL    HW230384   4.843   2.060   4.238
 9829SOL     OW30385   5.491   4.008   5.495
 9829SOL    HW130386   5.494   3.962   5.406
 9829SOL    HW230387   5.396   4.011   5.527
 9830SOL     OW30388   5.863   1.282   3.019
 9830SOL    HW130389   5.805   1.203   3.042
 9830SOL    HW230390   5.820   1.366   3.052
 9831SOL     OW30391   0.948   5.374   1.793
 9831SOL    HW130392   0.917   5.357   1.887
 9831SOL    HW230393   0.954   5.286   1.744
 9832SOL     OW30394   5.132   5.712   5.397
 9832SOL    HW130395   5.108   5.804   5.428
 9832SOL    HW230396   5.215   5.682   5.443
 9833SOL     OW30397   3.767   3.153   4.295
 9833SOL    HW130398   3.775   3.057   4.321
 9833SOL    HW230399   3.851   3.201   4.320
 9834SOL     OW30400   3.340   5.764   6.390
 9834SOL    HW130401   3.397   5.844   6.408
 9834SOL    HW230402   3.345   5.741   6.292
 9835SOL     OW30403   3.815   3.328   3.729
 9835SOL    HW130404   3.814   3.363   3.636
 9835SOL    HW230405   3.743   3.372   3.783
 9836SOL     OW30406   6.175   2.758   5.848
 9836SOL    HW130407   6.186   2.659   5.861
 9836SOL    HW230408   6.232   2.806   5.914
 9837SOL     OW30409   6.105   0.788   4.295
 9837SOL    HW130410   6.083   0.873   4.246
 9837SOL    HW230411   6.199   0.761   4.272
 9838SOL     OW30412   0.823   5.901   1.185
 9838SOL    HW130413   0.751   5.840   1.215
 9838SOL    HW230414   0.912   5.859   1.200
 9839SOL     OW30415   3.793   6.371   3.816
 9839SOL    HW130416   3.857   6.419   3.876
 9839SOL    HW230417   3.736   6.308   3.870
 9840SOL     OW30418   6.039   2.318   6.308
 9840SOL    HW130419   6.124   2.265   6.307
 9840SOL    HW230420   6.058   2.412   6.335
 9841SOL     OW30421   0.223   5.747   2.229
 9841SOL    HW130422   0.311   5.793   2.234
 9841SOL    HW230423   0.187   5.753   2.136
 9842SOL     OW30424   3.608   0.332   0.269
 9842SOL    HW130425   3.696   0.367   0.237
 9842SOL    HW230426   3.579   0.256   0.212
 9843SOL     OW30427   0.463   0.229   0.577
 9843SOL    HW130428   0.448   0.185   0.489
 9843SOL    HW230429   0.376   0.261   0.614
 9844SOL     OW30430   4.885   1.029   4.571
 9844SOL    HW130431   4.913   1.117   4.532
 9844SOL    HW230432   4.966   0.974   4.589
 9845SOL     OW30433   1.054   3.659   2.501
 9845SOL    HW130434   1.015   3.713   2.427
 9845SOL    HW230435   0.986   3.593   2.534
 9846SOL     OW30436   5.845   2.379   2.475
 9846SOL    HW130437   5.885   2.394   2.566
 9846SOL    HW230438   5.835   2.467   2.428
 9847SOL     OW30439   4.075   4.253   0.068
 9847SOL    HW130440   4.042   4.202   7.009
 9847SOL    HW230441   3.997   4.282   0.123
 9848SOL     OW30442   3.090   3.590   5.714
 9848SOL    HW130443   3.041   3.590   5.801
 9848SOL    HW230444   3.046   3.655   5.651
 9849SOL     OW30445   1.706   1.765   2.057
 9849SOL    HW130446   1.730   1.769   2.153
 9849SOL    HW230447   1.606   1.768   2.048
 9850SOL     OW30448   1.903   0.526   4.205
 9850SOL    HW130449   1.888   0.594   4.276
 9850SOL    HW230450   1.874   0.436   4.239
 9851SOL     OW30451   3.370   5.403   3.727
 9851SOL    HW130452   3.417   5.375   3.811
 9851SOL    HW230453   3.414   5.485   3.691
 9852SOL     OW30454   2.293   0.393   6.687
 9852SOL    HW130455   2.295   0.389   6.587
 9852SOL    HW230456   2.387   0.383   6.722
 9853SOL     OW30457   0.271   3.648   3.898
 9853SOL    HW130458   0.290   3.550   3.893
 9853SOL    HW230459   0.354   3.697   3.923
 9854SOL     OW30460   6.380   4.236   0.076
 9854SOL    HW130461   6.337   4.156   0.036
 9854SOL    HW230462   6.470   4.251   0.035
 9855SOL     OW30463   1.213   6.407   0.801
 9855SOL    HW130464   1.181   6.319   0.836
 9855SOL    HW230465   1.311   6.417   0.818
 9856SOL     OW30466   4.707   4.651   3.094
 9856SOL    HW130467   4.755   4.600   3.022
 9856SOL    HW230468   4.614   4.615   3.104
 9857SOL     OW30469   4.679   0.103   5.380
 9857SOL    HW130470   4.717   0.089   5.472
 9857SOL    HW230471   4.669   0.201   5.363
 9858SOL     OW30472   0.243   5.327   2.648
 9858SOL    HW130473   0.147   5.311   2.670
 9858SOL    HW230474   0.300   5.263   2.700
 9859SOL     OW30475   0.482   5.798   2.924
 9859SOL    HW130476   0.506   5.720   2.981
 9859SOL    HW230477   0.388   5.789   2.892
 9860SOL     OW30478   1.396   3.359   3.299
 9860SOL    HW130479   1.344   3.313   3.227
 9860SOL    HW230480   1.491   3.329   3.297
 9861SOL     OW30481   3.799   2.150   4.267
 9861SOL    HW130482   3.867   2.090   4.226
 9861SOL    HW230483   3.826   2.172   4.361
 9862SOL     OW30484   1.830   2.692   6.839
 9862SOL    HW130485   1.784   2.743   6.766
 9862SOL    HW230486   1.773   2.691   6.921
 9863SOL     OW30487   3.646   6.215   1.443
 9863SOL    HW130488   3.710   6.139   1.458
 9863SOL    HW230489   3.563   6.199   1.497
 9864SOL     OW30490   3.057   6.102   5.122
 9864SOL    HW130491   3.132   6.082   5.184
 9864SOL    HW230492   2.971   6.106   5.173
 9865SOL     OW30493   2.733   5.657   5.813
 9865SOL    HW130494   2.693   5.610   5.735
 9865SOL    HW230495   2.697   5.750   5.818
 9866SOL     OW30496   0.292   5.856   5.628
 9866SOL    HW130497   0.245   5.937   5.592
 9866SOL    HW230498   0.235   5.775   5.615
 9867SOL     OW30499   4.785   1.056   2.378
 9867SOL    HW130500   4.736   1.135   2.341
 9867SOL    HW230501   4.755   0.973   2.331
 9868SOL     OW30502   2.227   4.476   3.267
 9868SOL    HW130503   2.257   4.392   3.311
 9868SOL    HW230504   2.148   4.456   3.208
 9869SOL     OW30505   5.114   1.973   2.765
 9869SOL    HW130506   5.139   1.906   2.696
 9869SOL    HW230507   5.015   1.981   2.770
 9870SOL     OW30508   2.067   2.910   2.812
 9870SOL    HW130509   2.155   2.863   2.822
 9870SOL    HW230510   2.012   2.896   2.895
 9871SOL     OW30511   6.044   5.346   3.552
 9871SOL    HW130512   5.948   5.327   3.532
 9871SOL    HW230513   6.101   5.278   3.506
 9872SOL     OW30514   0.736   6.258   5.249
 9872SOL    HW130515   0.731   6.160   5.269
 9872SOL    HW230516   0.822   6.295   5.284
 9873SOL     OW30517   0.270   0.840   5.147
 9873SOL    HW130518   0.180   0.805   5.120
 9873SOL    HW230519   0.320   0.869   5.066
 9874SOL     OW30520   7.019   1.569   3.638
 9874SOL    HW130521   6.928   1.545   3.674
 9874SOL    HW230522   7.008   1.616   3.551
 9875SOL     OW30523   5.745   5.929   1.183
 9875SOL    HW130524   5.817   5.869   1.217
 9875SOL    HW230525   5.681   5.876   1.127
 9876SOL     OW30526   0.462   0.336   3.243
 9876SOL    HW130527   0.384   0.373   3.193
 9876SOL    HW230528   0.512   0.410   3.287
 9877SOL     OW30529   1.646   5.851   4.940
 9877SOL    HW130530   1.664   5.798   5.023
 9877SOL    HW230531   1.573   5.807   4.887
 9878SOL     OW30532   4.340   3.912   0.519
 9878SOL    HW130533   4.327   3.837   0.454
 9878SOL    HW230534   4.323   3.878   0.612
 9879SOL     OW30535   5.230   5.598   4.291
 9879SOL    HW130536   5.139   5.634   4.314
 9879SOL    HW230537   5.254   5.625   4.198
 9880SOL     OW30538   2.579   1.509   1.089
 9880SOL    HW130539   2.480   1.515   1.075
 9880SOL    HW230540   2.613   1.597   1.122
 9881SOL     OW30541   6.377   0.041   3.076
 9881SOL    HW130542   6.475   0.043   3.096
 9881SOL    HW230543   6.334   6.990   3.130
 9882SOL     OW30544   3.557   3.935   4.447
 9882SOL    HW130545   3.592   3.950   4.355
 9882SOL    HW230546   3.470   3.885   4.442
 9883SOL     OW30547   1.494   6.151   3.077
 9883SOL    HW130548   1.435   6.093   3.021
 9883SOL    HW230549   1.519   6.233   3.025
 9884SOL     OW30550   3.173   2.418   5.468
 9884SOL    HW130551   3.169   2.320   5.490
 9884SOL    HW230552   3.141   2.432   5.374
 9885SOL     OW30553   5.014   2.100   4.939
 9885SOL    HW130554   5.063   2.035   4.880
 9885SOL    HW230555   5.077   2.172   4.968
 9886SOL     OW30556   2.621   6.426   1.630
 9886SOL    HW130557   2.687   6.354   1.610
 9886SOL    HW230558   2.658   6.514   1.602
 9887SOL     OW30559   3.729   1.202   0.233
 9887SOL    HW130560   3.634   1.230   0.217
 9887SOL    HW230561   3.748   1.119   0.181
 9888SOL     OW30562   6.370   6.651   4.160
 9888SOL    HW130563   6.403   6.721   4.225
 9888SOL    HW230564   6.444   6.627   4.097
 9889SOL     OW30565   7.000   6.052   2.134
 9889SOL    HW130566   6.960   5.966   2.101
 9889SOL    HW230567   0.011   6.106   2.056
 9890SOL     OW30568   1.813   3.257   3.079
 9890SOL    HW130569   1.891   3.270   3.018
 9890SOL    HW230570   1.817   3.325   3.153
 9891SOL     OW30571   3.648   0.244   1.837
 9891SOL    HW130572   3.619   0.338   1.856
 9891SOL    HW230573   3.736   0.245   1.790
 9892SOL     OW30574   2.182   5.973   3.151
 9892SOL    HW130575   2.147   6.065   3.134
 9892SOL    HW230576   2.239   5.974   3.234
 9893SOL     OW30577   5.780   4.578   4.762
 9893SOL    HW130578   5.720   4.651   4.728
 9893SOL    HW230579   5.856   4.566   4.698
 9894SOL     OW30580   4.382   3.877   5.342
 9894SOL    HW130581   4.459   3.904   5.285
 9894SOL    HW230582   4.393   3.916   5.433
 9895SOL     OW30583   4.687   2.435   5.974
 9895SOL    HW130584   4.760   2.503   5.976
 9895SOL    HW230585   4.610   2.467   6.030
 9896SOL     OW30586   4.147   3.894   6.864
 9896SOL    HW130587   4.142   3.897   6.964
 9896SOL    HW230588   4.241   3.880   6.835
 9897SOL     OW30589   1.375   1.300   2.439
 9897SOL    HW130590   1.335   1.388   2.465
 9897SOL    HW230591   1.469   1.296   2.470
 9898SOL     OW30592   0.116   5.603   0.224
 9898SOL    HW130593   0.167   5.547   0.159
 9898SOL    HW230594   0.068   5.676   0.175
 9899SOL     OW30595   3.820   5.344   1.003
 9899SOL    HW130596   3.897   5.371   0.945
 9899SOL    HW230597   3.846   5.265   1.058
 9900SOL     OW30598   2.370   5.750   3.132
 9900SOL    HW130599   2.301   5.810   3.091
 9900SOL    HW230600   2.460   5.792   3.123
 9901SOL     OW30601   2.947   1.146   5.898
 9901SOL    HW130602   2.988   1.233   5.927
 9901SOL    HW230603   3.004   1.070   5.929
 9902SOL     OW30604   4.394   4.625   0.445
 9902SOL    HW130605   4.449   4.699   0.484
 9902SOL    HW230606   4.345   4.658   0.365
 9903SOL     OW30607   2.391   1.266   1.219
 9903SOL    HW130608   2.306   1.270   1.167
 9903SOL    HW230609   2.444   1.186   1.190
 9904SOL     OW30610   6.527   6.305   1.856
 9904SOL    HW130611   6.565   6.308   1.949
 9904SOL    HW230612   6.528   6.210   1.823
 9905SOL     OW30613   2.201   6.790   0.040
 9905SOL    HW130614   2.256   6.733   6.999
 9905SOL    HW230615   2.244   6.791   0.130
 9906SOL     OW30616   3.752   3.710   6.243
 9906SOL    HW130617   3.706   3.751   6.164
 9906SOL    HW230618   3.688   3.652   6.293
 9907SOL     OW30619   0.801   6.437   3.220
 9907SOL    HW130620   0.781   6.416   3.315
 9907SOL    HW230621   0.899   6.449   3.208
 9908SOL     OW30622   6.573   2.809   5.841
 9908SOL    HW130623   6.558   2.855   5.928
 9908SOL    HW230624   6.525   2.722   5.840
 9909SOL     OW30625   2.131   6.230   3.099
 9909SOL    HW130626   2.140   6.248   3.197
 9909SOL    HW230627   2.215   6.258   3.052
 9910SOL     OW30628   1.018   5.614   0.719
 9910SOL    HW130629   1.076   5.569   0.787
 9910SOL    HW230630   1.070   5.684   0.671
 9911SOL     OW30631   3.177   4.911   2.093
 9911SOL    HW130632   3.275   4.907   2.076
 9911SOL    HW230633   3.131   4.840   2.039
 9912SOL     OW30634   5.682   6.626   0.124
 9912SOL    HW130635   5.681   6.679   0.209
 9912SOL    HW230636   5.729   6.677   0.053
 9913SOL     OW30637   6.400   1.741   2.655
 9913SOL    HW130638   6.446   1.723   2.742
 9913SOL    HW230639   6.440   1.822   2.612
 9914SOL     OW30640   1.935   5.618   4.018
 9914SOL    HW130641   1.893   5.541   3.970
 9914SOL    HW230642   1.931   5.700   3.960
 9915SOL     OW30643   6.217   5.140   4.157
 9915SOL    HW130644   6.167   5.059   4.186
 9915SOL    HW230645   6.178   5.174   4.071
 9916SOL     OW30646   1.905   3.490   0.625
 9916SOL    HW130647   1.903   3.434   0.542
 9916SOL    HW230648   1.826   3.550   0.627
 9917SOL     OW30649   1.843   3.738   4.422
 9917SOL    HW130650   1.940   3.715   4.421
 9917SOL    HW230651   1.799   3.692   4.499
 9918SOL     OW30652   2.060   2.065   4.218
 9918SOL    HW130653   2.087   2.155   4.252
 9918SOL    HW230654   2.055   2.068   4.118
 9919SOL     OW30655   0.946   6.055   1.405
 9919SOL    HW130656   0.896   6.023   1.325
 9919SOL    HW230657   0.932   6.154   1.416
 9920SOL     OW30658   2.993   0.849   3.028
 9920SOL    HW130659   3.075   0.903   3.008
 9920SOL    HW230660   2.915   0.886   2.977
 9921SOL     OW30661   5.050   0.668   2.393
 9921SOL    HW130662   4.999   0.621   2.320
 9921SOL    HW230663   4.986   0.708   2.458
 9922SOL     OW30664   6.322   2.911   2.150
 9922SOL    HW130665   6.333   3.001   2.192
 9922SOL    HW230666   6.318   2.922   2.051
 9923SOL     OW30667   5.719   6.984   6.755
 9923SOL    HW130668   5.657   0.009   6.691
 9923SOL    HW230669   5.672   6.906   6.798
 9924SOL     OW30670   5.597   0.282   3.459
 9924SOL    HW130671   5.529   0.324   3.400
 9924SOL    HW230672   5.555   0.209   3.512
 9925SOL     OW30673   4.076   2.172   5.017
 9925SOL    HW130674   4.123   2.257   4.993
 9925SOL    HW230675   4.028   2.183   5.104
 9926SOL     OW30676   1.826   0.971   5.878
 9926SOL    HW130677   1.778   0.960   5.791
 9926SOL    HW230678   1.839   0.882   5.921
 9927SOL     OW30679   2.213   4.006   3.932
 9927SOL    HW130680   2.140   4.038   3.992
 9927SOL    HW230681   2.258   4.084   3.890
 9928SOL     OW30682   6.548   2.858   3.230
 9928SOL    HW130683   6.563   2.773   3.179
 9928SOL    HW230684   6.585   2.848   3.323
 9929SOL     OW30685   1.681   5.067   5.118
 9929SOL    HW130686   1.694   5.016   5.203
 9929SOL    HW230687   1.599   5.124   5.127
 9930SOL     OW30688   6.875   6.033   6.748
 9930SOL    HW130689   6.798   6.093   6.771
 9930SOL    HW230690   6.864   5.998   6.655
 9931SOL     OW30691   1.593   4.431   0.009
 9931SOL    HW130692   1.507   4.381   0.003
 9931SOL    HW230693   1.634   4.415   0.099
 9932SOL     OW30694   1.946   2.065   1.245
 9932SOL    HW130695   1.847   2.063   1.240
 9932SOL    HW230696   1.978   1.991   1.304
 9933SOL     OW30697   1.565   1.860   3.155
 9933SOL    HW130698   1.639   1.811   3.108
 9933SOL    HW230699   1.603   1.910   3.233
 9934SOL     OW30700   4.986   0.062   5.908
 9934SOL    HW130701   4.921   0.115   5.853
 9934SOL    HW230702   4.936   7.021   5.968
 9935SOL     OW30703   3.324   2.768   0.406
 9935SOL    HW130704   3.347   2.732   0.316
 9935SOL    HW230705   3.225   2.778   0.415
 9936SOL     OW30706   4.818   5.827   0.518
 9936SOL    HW130707   4.861   5.888   0.452
 9936SOL    HW230708   4.798   5.739   0.475
 9937SOL     OW30709   1.414   6.937   5.087
 9937SOL    HW130710   1.466   6.918   5.004
 9937SOL    HW230711   1.336   6.996   5.066
 9938SOL     OW30712   0.824   1.863   3.152
 9938SOL    HW130713   0.785   1.841   3.241
 9938SOL    HW230714   0.835   1.780   3.098
 9939SOL     OW30715   2.937   3.771   1.013
 9939SOL    HW130716   2.984   3.687   1.038
 9939SOL    HW230717   2.922   3.773   0.914
 9940SOL     OW30718   6.509   0.990   2.777
 9940SOL    HW130719   6.564   0.909   2.755
 9940SOL    HW230720   6.421   0.984   2.730
 9941SOL     OW30721   6.092   3.552   0.490
 9941SOL    HW130722   6.150   3.595   0.422
 9941SOL    HW230723   6.131   3.565   0.581
 9942SOL     OW30724   6.031   5.294   2.271
 9942SOL    HW130725   6.085   5.376   2.289
 9942SOL    HW230726   5.958   5.316   2.206
 9943SOL     OW30727   1.356   4.879   4.869
 9943SOL    HW130728   1.436   4.880   4.929
 9943SOL    HW230729   1.298   4.958   4.889
 9944SOL     OW30730   2.270   5.735   6.362
 9944SOL    HW130731   2.269   5.702   6.456
 9944SOL    HW230732   2.216   5.819   6.355
 9945SOL     OW30733   6.153   3.180   5.692
 9945SOL    HW130734   6.121   3.087   5.672
 9945SOL    HW230735   6.076   3.244   5.684
 9946SOL     OW30736   6.005   1.631   0.846
 9946SOL    HW130737   5.970   1.669   0.761
 9946SOL    HW230738   6.001   1.701   0.918
 9947SOL     OW30739   0.235   0.363   3.077
 9947SOL    HW130740   0.138   0.363   3.102
 9947SOL    HW230741   0.250   0.424   2.999
 9948SOL     OW30742   5.024   0.676   5.005
 9948SOL    HW130743   5.004   0.585   4.968
 9948SOL    HW230744   5.053   0.668   5.100
 9949SOL     OW30745   6.863   2.947   2.595
 9949SOL    HW130746   6.779   2.921   2.644
 9949SOL    HW230747   6.909   3.021   2.645
 9950SOL     OW30748   5.547   4.231   6.490
 9950SOL    HW130749   5.573   4.247   6.585
 9950SOL    HW230750   5.470   4.292   6.466
 9951SOL     OW30751   6.693   2.255   2.515
 9951SOL    HW130752   6.711   2.168   2.469
 9951SOL    HW230753   6.594   2.271   2.518
 9952SOL     OW30754   1.452   4.927   1.377
 9952SOL    HW130755   1.529   4.948   1.317
 9952SOL    HW230756   1.436   4.828   1.377
 9953SOL     OW30757   6.166   4.541   4.849
 9953SOL    HW130758   6.086   4.488   4.822
 9953SOL    HW230759   6.186   4.525   4.946
 9954SOL     OW30760   4.194   2.036   1.431
 9954SOL    HW130761   4.159   1.946   1.407
 9954SOL    HW230762   4.278   2.054   1.380
 9955SOL     OW30763   6.315   5.393   1.437
 9955SOL    HW130764   6.234   5.402   1.495
 9955SOL    HW230765   6.359   5.483   1.427
 9956SOL     OW30766   1.579   3.925   3.498
 9956SOL    HW130767   1.589   3.952   3.594
 9956SOL    HW230768   1.638   3.846   3.479
 9957SOL     OW30769   5.910   6.623   0.650
 9957SOL    HW130770   5.819   6.661   0.669
 9957SOL    HW230771   5.900   6.533   0.609
 9958SOL     OW30772   6.635   5.924   5.401
 9958SOL    HW130773   6.536   5.936   5.389
 9958SOL    HW230774   6.652   5.834   5.441
 9959SOL     OW30775   6.425   5.743   6.848
 9959SOL    HW130776   6.444   5.653   6.888
 9959SOL    HW230777   6.475   5.813   6.898
 9960SOL     OW30778   6.170   0.153   6.209
 9960SOL    HW130779   6.167   0.222   6.136
 9960SOL    HW230780   6.244   0.088   6.191
 9961SOL     OW30781   3.009   6.787   0.565
 9961SOL    HW130782   2.961   6.703   0.591
 9961SOL    HW230783   2.999   6.802   0.467
 9962SOL     OW30784   3.761   0.669   1.452
 9962SOL    HW130785   3.809   0.588   1.486
 9962SOL    HW230786   3.671   0.675   1.496
 9963SOL     OW30787   0.288   0.279   6.473
 9963SOL    HW130788   0.277   0.182   6.448
 9963SOL    HW230789   0.384   0.299   6.489
 9964SOL     OW30790   4.671   5.464   5.369
 9964SOL    HW130791   4.600   5.407   5.411
 9964SOL    HW230792   4.759   5.443   5.411
 9965SOL     OW30793   2.166   5.509   4.609
 9965SOL    HW130794   2.142   5.413   4.602
 9965SOL    HW230795   2.084   5.563   4.628
 9966SOL     OW30796   1.762   4.367   1.940
 9966SOL    HW130797   1.678   4.398   1.982
 9966SOL    HW230798   1.741   4.315   1.857
 9967SOL     OW30799   6.394   0.385   2.445
 9967SOL    HW130800   6.411   0.356   2.351
 9967SOL    HW230801   6.297   0.372   2.466
 9968SOL     OW30802   5.038   6.184   0.346
 9968SOL    HW130803   4.941   6.200   0.364
 9968SOL    HW230804   5.048   6.103   0.287
 9969SOL     OW30805   0.355   6.653   3.220
 9969SOL    HW130806   0.398   6.603   3.295
 9969SOL    HW230807   0.412   6.646   3.138
 9970SOL     OW30808   0.485   3.596   1.360
 9970SOL    HW130809   0.558   3.652   1.322
 9970SOL    HW230810   0.523   3.533   1.427
 9971SOL     OW30811   0.095   5.372   6.034
 9971SOL    HW130812   0.022   5.335   6.092
 9971SOL    HW230813   0.087   5.472   6.031
 9972SOL     OW30814   3.156   4.425   5.603
 9972SOL    HW130815   3.177   4.510   5.555
 9972SOL    HW230816   3.172   4.437   5.701
 9973SOL     OW30817   2.925   2.230   2.930
 9973SOL    HW130818   2.932   2.150   2.870
 9973SOL    HW230819   2.884   2.305   2.880
 9974SOL     OW30820   0.776   3.351   3.390
 9974SOL    HW130821   0.767   3.344   3.290
 9974SOL    HW230822   0.725   3.431   3.422
 9975SOL     OW30823   0.846   4.752   6.837
 9975SOL    HW130824   0.881   4.659   6.833
 9975SOL    HW230825   0.839   4.781   6.933
 9976SOL     OW30826   4.674   5.787   5.195
 9976SOL    HW130827   4.700   5.852   5.266
 9976SOL    HW230828   4.735   5.708   5.196
 9977SOL     OW30829   4.240   6.952   6.072
 9977SOL    HW130830   4.243   6.852   6.065
 9977SOL    HW230831   4.277   6.980   6.160
 9978SOL     OW30832   6.623   2.900   6.960
 9978SOL    HW130833   6.553   2.957   7.002
 9978SOL    HW230834   6.678   2.955   6.897
 9979SOL     OW30835   3.762   4.085   3.705
 9979SOL    HW130836   3.716   4.128   3.782
 9979SOL    HW230837   3.787   3.991   3.730
 9980SOL     OW30838   0.213   6.850   6.879
 9980SOL    HW130839   0.253   6.918   6.817
 9980SOL    HW230840   0.270   6.768   6.880
 9981SOL     OW30841   5.345   1.073   1.098
 9981SOL    HW130842   5.396   1.154   1.127
 9981SOL    HW230843   5.326   1.078   1.000
 9982SOL     OW30844   2.598   1.755   5.145
 9982SOL    HW130845   2.560   1.833   5.096
 9982SOL    HW230846   2.584   1.672   5.092
 9983SOL     OW30847   0.588   2.870   1.970
 9983SOL    HW130848   0.561   2.811   1.894
 9983SOL    HW230849   0.649   2.942   1.937
 9984SOL     OW30850   1.340   4.600   1.132
 9984SOL    HW130851   1.320   4.528   1.199
 9984SOL    HW230852   1.328   4.563   1.040
 9985SOL     OW30853   4.641   4.419   6.060
 9985SOL    HW130854   4.716   4.465   6.011
 9985SOL    HW230855   4.678   4.364   6.134
 9986SOL     OW30856   5.788   3.839   6.858
 9986SOL    HW130857   5.842   3.815   6.939
 9986SOL    HW230858   5.848   3.875   6.787
 9987SOL     OW30859   5.188   1.937   0.614
 9987SOL    HW130860   5.157   1.871   0.682
 9987SOL    HW230861   5.225   2.017   0.660
 9988SOL     OW30862   5.543   6.739   3.918
 9988SOL    HW130863   5.444   6.724   3.921
 9988SOL    HW230864   5.588   6.670   3.975
 9989SOL     OW30865   6.468   5.844   1.928
 9989SOL    HW130866   6.410   5.822   2.007
 9989SOL    HW230867   6.529   5.920   1.952
 9990SOL     OW30868   0.212   5.803   2.811
 9990SOL    HW130869   0.113   5.816   2.814
 9990SOL    HW230870   0.242   5.802   2.715
 9991SOL     OW30871   2.036   3.537   1.754
 9991SOL    HW130872   2.081   3.483   1.682
 9991SOL    HW230873   2.094   3.538   1.835
 9992SOL     OW30874   2.186   4.329   0.303
 9992SOL    HW130875   2.174   4.379   0.389
 9992SOL    HW230876   2.247   4.381   0.243
 9993SOL     OW30877   3.497   0.154   4.352
 9993SOL    HW130878   3.438   0.233   4.334
 9993SOL    HW230879   3.551   0.171   4.434
 9994SOL     OW30880   6.203   4.958   5.386
 9994SOL    HW130881   6.175   4.905   5.466
 9994SOL    HW230882   6.243   4.896   5.318
 9995SOL     OW30883   4.049   2.018   6.076
 9995SOL    HW130884   4.145   2.039   6.097
 9995SOL    HW230885   4.043   1.924   6.041
 9996SOL     OW30886   2.852   4.809   0.936
 9996SOL    HW130887   2.944   4.787   0.970
 9996SOL    HW230888   2.813   4.728   0.892
 9997SOL     OW30889   5.624   0.604   2.711
 9997SOL    HW130890   5.632   0.655   2.625
 9997SOL    HW230891   5.635   0.507   2.692
 9998SOL     OW30892   5.167   3.631   2.425
 9998SOL    HW130893   5.088   3.653   2.367
 9998SOL    HW230894   5.160   3.536   2.455
 9999SOL     OW30895   0.510   6.819   4.868
 9999SOL    HW130896   0.479   6.838   4.961
 9999SOL    HW230897   0.610   6.814   4.868
10000SOL     OW30898   4.567   3.261   1.704
10000SOL    HW130899   4.602   3.196   1.770
10000SOL    HW230900   4.549   3.215   1.617
10001SOL     OW30901   3.855   0.065   1.368
10001SOL    HW130902   3.893   0.026   1.452
10001SOL    HW230903   3.790   0.138   1.391
10002SOL     OW30904   1.916   6.802   2.868
10002SOL    HW130905   1.832   6.748   2.860
10002SOL    HW230906   1.904   6.871   2.939
10003SOL     OW30907   0.363   1.325   2.444
10003SOL    HW130908   0.427   1.266   2.492
10003SOL    HW230909   0.320   1.387   2.509
10004SOL     OW30910   6.990   2.782   3.200
10004SOL    HW130911   7.015   2.872   3.236
10004SOL    HW230912   0.004   2.773   3.107
10005SOL     OW30913   2.729   5.750   2.190
10005SOL    HW130914   2.631   5.745   2.205
10005SOL    HW230915   2.764   5.836   2.228
10006SOL     OW30916   5.621   1.787   6.125
10006SOL    HW130917   5.642   1.869   6.072
10006SOL    HW230918   5.531   1.753   6.101
10007SOL     OW30919   1.670   5.236   3.399
10007SOL    HW130920   1.628   5.146   3.415
10007SOL    HW230921   1.627   5.279   3.319
10008SOL     OW30922   4.134   0.861   5.854
10008SOL    HW130923   4.174   0.812   5.777
10008SOL    HW230924   4.047   0.900   5.827
10009SOL     OW30925   1.633   5.206   1.944
10009SOL    HW130926   1.661   5.288   1.994
10009SOL    HW230927   1.707   5.139   1.945
10010SOL     OW30928   1.978   4.894   0.817
10010SOL    HW130929   1.931   4.950   0.749
10010SOL    HW230930   2.033   4.825   0.770
10011SOL     OW30931   3.368   3.487   6.819
10011SOL    HW130932   3.294   3.526   6.873
10011SOL    HW230933   3.340   3.481   6.723
10012SOL     OW30934   6.046   1.891   3.205
10012SOL    HW130935   6.002   1.962   3.260
10012SOL    HW230936   6.067   1.812   3.263
10013SOL     OW30937   0.432   6.198   5.463
10013SOL    HW130938   0.473   6.221   5.551
10013SOL    HW230939   0.498   6.147   5.408
10014SOL     OW30940   1.611   1.083   3.115
10014SOL    HW130941   1.705   1.059   3.090
10014SOL    HW230942   1.584   1.167   3.067
10015SOL     OW30943   4.235   0.655   6.935
10015SOL    HW130944   4.307   0.590   6.913
10015SOL    HW230945   4.271   0.748   6.932
10016SOL     OW30946   3.044   0.998   4.808
10016SOL    HW130947   3.107   0.934   4.765
10016SOL    HW230948   2.966   1.015   4.748
10017SOL     OW30949   3.504   1.465   3.019
10017SOL    HW130950   3.420   1.433   3.063
10017SOL    HW230951   3.480   1.513   2.934
10018SOL     OW30952   0.433   5.106   5.478
10018SOL    HW130953   0.445   5.201   5.449
10018SOL    HW230954   0.449   5.098   5.576
10019SOL     OW30955   6.796   2.018   2.400
10019SOL    HW130956   6.711   1.971   2.377
10019SOL    HW230957   6.854   1.958   2.455
10020SOL     OW30958   6.680   0.792   2.663
10020SOL    HW130959   6.770   0.835   2.675
10020SOL    HW230960   6.672   0.756   2.570
10021SOL     OW30961   1.844   3.704   1.658
10021SOL    HW130962   1.864   3.744   1.569
10021SOL    HW230963   1.917   3.640   1.683
10022SOL     OW30964   1.077   6.792   6.021
10022SOL    HW130965   1.115   6.823   5.934
10022SOL    HW230966   1.000   6.851   6.046
10023SOL     OW30967   1.057   1.306   5.327
10023SOL    HW130968   1.033   1.400   5.303
10023SOL    HW230969   1.068   1.298   5.426
10024SOL     OW30970   2.144   4.214   3.337
10024SOL    HW130971   2.158   4.139   3.273
10024SOL    HW230972   2.174   4.186   3.429
10025SOL     OW30973   0.625   3.036   1.139
10025SOL    HW130974   0.615   3.117   1.196
10025SOL    HW230975   0.719   3.002   1.145
10026SOL     OW30976   0.074   1.089   4.553
10026SOL    HW130977   0.020   1.125   4.628
10026SOL    HW230978   0.138   1.159   4.521
10027SOL     OW30979   3.411   1.213   5.947
10027SOL    HW130980   3.446   1.306   5.960
10027SOL    HW230981   3.437   1.181   5.856
10028SOL     OW30982   3.968   6.590   2.198
10028SOL    HW130983   4.008   6.504   2.229
10028SOL    HW230984   3.869   6.579   2.189
10029SOL     OW30985   0.076   4.931   4.286
10029SOL    HW130986   0.164   4.932   4.238
10029SOL    HW230987   0.019   4.859   4.248
10030SOL     OW30988   2.654   6.749   4.207
10030SOL    HW130989   2.736   6.702   4.173
10030SOL    HW230990   2.639   6.832   4.154
10031SOL     OW30991   1.684   0.017   4.005
10031SOL    HW130992   1.732   0.103   3.989
10031SOL    HW230993   1.736   6.963   3.964
10032SOL     OW30994   3.003   6.133   4.396
10032SOL    HW130995   3.042   6.148   4.487
10032SOL    HW230996   3.073   6.094   4.336
10033SOL     OW30997   2.442   1.302   4.947
10033SOL    HW130998   2.350   1.316   4.982
10033SOL    HW230999   2.443   1.221   4.887
10034SOL     OW31000   2.404   1.067   2.126
10034SOL    HW131001   2.314   1.029   2.105
10034SOL    HW231002   2.409   1.161   2.092
10035SOL     OW31003   0.429   3.132   2.326
10035SOL    HW131004   0.434   3.221   2.281
10035SOL    HW231005   0.443   3.059   2.259
10036SOL     OW31006   0.097   1.621   0.002
10036SOL    HW131007   0.049   1.706   7.002
10036SOL    HW231008   0.158   1.597   6.948
10037SOL     OW31009   6.050   0.547   6.178
10037SOL    HW131010   6.002   0.633   6.160
10037SOL    HW231011   6.129   0.565   6.236
10038SOL     OW31012   4.666   6.809   6.627
10038SOL    HW131013   4.753   6.763   6.612
10038SOL    HW231014   4.591   6.753   6.590
10039SOL     OW31015   0.211   5.044   1.659
10039SOL    HW131016   0.171   5.069   1.748
10039SOL    HW231017   0.183   4.950   1.637
10040SOL     OW31018   2.669   0.327   0.315
10040SOL    HW131019   2.741   0.258   0.322
10040SOL    HW231020   2.700   0.412   0.358
10041SOL     OW31021   5.703   4.605   5.437
10041SOL    HW131022   5.679   4.651   5.523
10041SOL    HW231023   5.755   4.668   5.380
10042SOL     OW31024   6.331   0.841   4.986
10042SOL    HW131025   6.390   0.829   5.065
10042SOL    HW231026   6.283   0.755   4.967
10043SOL     OW31027   0.646   0.454   2.818
10043SOL    HW131028   0.627   0.388   2.891
10043SOL    HW231029   0.690   0.407   2.742
10044SOL     OW31030   3.231   2.394   6.930
10044SOL    HW131031   3.167   2.320   6.909
10044SOL    HW231032   3.253   2.445   6.846
10045SOL     OW31033   4.103   0.053   4.384
10045SOL    HW131034   4.088   0.005   4.297
10045SOL    HW231035   4.037   0.020   4.452
10046SOL     OW31036   6.833   2.198   1.668
10046SOL    HW131037   6.786   2.124   1.716
10046SOL    HW231038   6.828   2.282   1.722
10047SOL     OW31039   1.406   3.085   3.010
10047SOL    HW131040   1.415   2.988   3.030
10047SOL    HW231041   1.496   3.124   2.991
10048SOL     OW31042   3.533   2.283   1.657
10048SOL    HW131043   3.576   2.304   1.569
10048SOL    HW231044   3.585   2.328   1.730
10049SOL     OW31045   1.428   5.450   4.995
10049SOL    HW131046   1.400   5.428   4.902
10049SOL    HW231047   1.526   5.434   5.005
10050SOL     OW31048   5.834   1.506   5.016
10050SOL    HW131049   5.749   1.457   5.036
10050SOL    HW231050   5.827   1.552   4.928
10051SOL     OW31051   6.436   1.945   0.641
10051SOL    HW131052   6.518   1.893   0.663
10051SOL    HW231053   6.356   1.885   0.643
10052SOL     OW31054   1.910   5.226   0.948
10052SOL    HW131055   1.846   5.155   0.919
10052SOL    HW231056   1.859   5.305   0.981
10053SOL     OW31057   2.835   6.310   3.366
10053SOL    HW131058   2.747   6.322   3.413
10053SOL    HW231059   2.910   6.320   3.431
10054SOL     OW31060   4.543   5.000   3.900
10054SOL    HW131061   4.622   4.994   3.838
10054SOL    HW231062   4.559   5.070   3.968
10055SOL     OW31063   5.109   3.190   0.122
10055SOL    HW131064   5.166   3.108   0.120
10055SOL    HW231065   5.035   3.181   0.055
10056SOL     OW31066   5.002   4.014   2.856
10056SOL    HW131067   5.056   4.073   2.797
10056SOL    HW231068   4.949   3.950   2.800
10057SOL     OW31069   2.511   2.589   2.977
10057SOL    HW131070   2.411   2.592   2.970
10057SOL    HW231071   2.549   2.675   2.941
10058SOL     OW31072   1.111   4.978   3.944
10058SOL    HW131073   1.082   4.945   4.034
10058SOL    HW231074   1.042   5.042   3.908
10059SOL     OW31075   4.679   6.555   1.666
10059SOL    HW131076   4.698   6.619   1.591
10059SOL    HW231077   4.589   6.515   1.652
10060SOL     OW31078   2.476   2.554   2.401
10060SOL    HW131079   2.526   2.535   2.485
10060SOL    HW231080   2.519   2.507   2.324
10061SOL     OW31081   6.739   2.047   5.683
10061SOL    HW131082   6.643   2.068   5.662
10061SOL    HW231083   6.743   1.975   5.753
10062SOL     OW31084   5.035   5.790   2.825
10062SOL    HW131085   5.092   5.812   2.905
10062SOL    HW231086   4.962   5.857   2.816
10063SOL     OW31087   0.944   2.500   2.202
10063SOL    HW131088   0.930   2.598   2.217
10063SOL    HW231089   0.865   2.462   2.155
10064SOL     OW31090   4.960   4.912   5.816
10064SOL    HW131091   4.900   4.889   5.740
10064SOL    HW231092   4.930   4.865   5.898
10065SOL     OW31093   0.031   0.371   2.823
10065SOL    HW131094   0.130   0.356   2.830
10065SOL    HW231095   7.008   0.285   2.798
10066SOL     OW31096   0.280   0.857   3.852
10066SOL    HW131097   0.314   0.877   3.760
10066SOL    HW231098   0.326   0.916   3.918
10067SOL     OW31099   4.824   6.435   3.566
10067SOL    HW131100   4.791   6.373   3.495
10067SOL    HW231101   4.865   6.382   3.640
10068SOL     OW31102   5.145   3.368   5.546
10068SOL    HW131103   5.110   3.277   5.568
10068SOL    HW231104   5.108   3.434   5.611
10069SOL     OW31105   5.253   1.594   4.023
10069SOL    HW131106   5.205   1.537   3.957
10069SOL    HW231107   5.297   1.535   4.092
10070SOL     OW31108   1.259   0.231   4.551
10070SOL    HW131109   1.323   0.287   4.498
10070SOL    HW231110   1.301   0.143   4.573
10071SOL     OW31111   4.911   4.590   5.411
10071SOL    HW131112   4.920   4.493   5.389
10071SOL    HW231113   4.996   4.623   5.452
10072SOL     OW31114   1.093   6.729   3.998
10072SOL    HW131115   1.097   6.693   4.091
10072SOL    HW231116   0.998   6.755   3.976
10073SOL     OW31117   6.879   5.889   6.499
10073SOL    HW131118   6.937   5.858   6.424
10073SOL    HW231119   6.834   5.810   6.540
10074SOL     OW31120   2.255   6.962   4.915
10074SOL    HW131121   2.179   6.959   4.850
10074SOL    HW231122   2.277   0.036   4.937
10075SOL     OW31123   1.030   2.762   4.606
10075SOL    HW131124   1.022   2.848   4.555
10075SOL    HW231125   1.116   2.762   4.657
10076SOL     OW31126   5.725   0.205   3.732
10076SOL    HW131127   5.692   0.297   3.751
10076SOL    HW231128   5.783   0.206   3.651
10077SOL     OW31129   2.878   1.836   5.790
10077SOL    HW131130   2.922   1.829   5.879
10077SOL    HW231131   2.780   1.819   5.799
10078SOL     OW31132   5.448   6.047   5.391
10078SOL    HW131133   5.441   6.115   5.463
10078SOL    HW231134   5.544   6.032   5.369
10079SOL     OW31135   0.261   2.787   5.862
10079SOL    HW131136   0.311   2.858   5.814
10079SOL    HW231137   0.188   2.751   5.803
10080SOL     OW31138   1.377   2.749   5.527
10080SOL    HW131139   1.374   2.734   5.428
10080SOL    HW231140   1.431   2.676   5.570
10081SOL     OW31141   0.205   1.260   0.290
10081SOL    HW131142   0.258   1.340   0.317
10081SOL    HW231143   0.261   1.178   0.301
10082SOL     OW31144   6.881   0.405   0.446
10082SOL    HW131145   6.844   0.496   0.462
10082SOL    HW231146   6.809   0.345   0.411
10083SOL     OW31147   5.362   1.408   4.225
10083SOL    HW131148   5.410   1.452   4.301
10083SOL    HW231149   5.266   1.397   4.248
10084SOL     OW31150   2.480   0.395   6.180
10084SOL    HW131151   2.498   0.492   6.192
10084SOL    HW231152   2.566   0.347   6.159
10085SOL     OW31153   1.138   4.973   2.694
10085SOL    HW131154   1.169   5.047   2.635
10085SOL    HW231155   1.213   4.908   2.707
10086SOL     OW31156   6.827   3.354   1.962
10086SOL    HW131157   6.756   3.332   1.896
10086SOL    HW231158   6.795   3.425   2.024
10087SOL     OW31159   2.376   1.173   3.161
10087SOL    HW131160   2.392   1.246   3.227
10087SOL    HW231161   2.376   1.085   3.209
10088SOL     OW31162   6.010   7.010   4.613
10088SOL    HW131163   6.011   0.072   4.557
10088SOL    HW231164   6.016   0.013   4.709
10089SOL     OW31165   2.139   2.424   1.979
10089SOL    HW131166   2.212   2.454   2.041
10089SOL    HW231167   2.067   2.380   2.032
10090SOL     OW31168   0.627   5.401   1.953
10090SOL    HW131169   0.698   5.471   1.962
10090SOL    HW231170   0.661   5.315   1.990
10091SOL     OW31171   0.430   1.662   4.290
10091SOL    HW131172   0.403   1.692   4.381
10091SOL    HW231173   0.529   1.651   4.286
10092SOL     OW31174   1.941   3.003   5.655
10092SOL    HW131175   2.034   3.028   5.630
10092SOL    HW231176   1.912   2.922   5.603
10093SOL     OW31177   6.923   6.310   6.190
10093SOL    HW131178   6.958   6.296   6.098
10093SOL    HW231179   6.982   6.373   6.240
10094SOL     OW31180   1.438   0.445   1.899
10094SOL    HW131181   1.366   0.423   1.966
10094SOL    HW231182   1.447   0.544   1.892
10095SOL     OW31183   0.078   2.081   4.915
10095SOL    HW131184   0.087   2.032   5.002
10095SOL    HW231185   0.107   2.022   4.840
10096SOL     OW31186   6.985   5.701   2.979
10096SOL    HW131187   7.003   5.737   3.070
10096SOL    HW231188   6.956   5.776   2.919
10097SOL     OW31189   1.002   2.582   5.708
10097SOL    HW131190   0.944   2.598   5.788
10097SOL    HW231191   1.053   2.666   5.688
10098SOL     OW31192   3.715   5.256   6.615
10098SOL    HW131193   3.676   5.333   6.563
10098SOL    HW231194   3.644   5.215   6.672
10099SOL     OW31195   0.592   4.349   4.184
10099SOL    HW131196   0.595   4.420   4.255
10099SOL    HW231197   0.645   4.269   4.215
10100SOL     OW31198   4.814   0.043   5.597
10100SOL    HW131199   4.822   6.966   5.615
10100SOL    HW231200   4.798   0.091   5.683
10101SOL     OW31201   0.065   4.916   2.674
10101SOL    HW131202   0.035   4.976   2.600
10101SOL    HW231203   7.015   4.911   2.744
10102SOL     OW31204   3.848   0.678   4.123
10102SOL    HW131205   3.763   0.707   4.080
10102SOL    HW231206   3.924   0.693   4.061
10103SOL     OW31207   0.760   2.466   0.475
10103SOL    HW131208   0.759   2.379   0.525
10103SOL    HW231209   0.686   2.466   0.407
10104SOL     OW31210   2.394   6.069   5.709
10104SOL    HW131211   2.309   6.016   5.716
10104SOL    HW231212   2.442   6.067   5.796
10105SOL     OW31213   3.509   0.584   0.180
10105SOL    HW131214   3.553   0.582   0.091
10105SOL    HW231215   3.534   0.501   0.231
10106SOL     OW31216   4.687   5.138   1.108
10106SOL    HW131217   4.649   5.128   1.016
10106SOL    HW231218   4.760   5.070   1.121
10107SOL     OW31219   5.406   0.859   6.117
10107SOL    HW131220   5.345   0.921   6.067
10107SOL    HW231221   5.479   0.828   6.057
10108SOL     OW31222   5.472   6.267   6.548
10108SOL    HW131223   5.499   6.212   6.469
10108SOL    HW231224   5.543   6.335   6.567
10109SOL     OW31225   4.657   5.749   2.890
10109SOL    HW131226   4.728   5.819   2.887
10109SOL    HW231227   4.699   5.659   2.894
10110SOL     OW31228   3.211   1.836   6.152
10110SOL    HW131229   3.242   1.931   6.152
10110SOL    HW231230   3.119   1.831   6.114
10111SOL     OW31231   6.784   2.457   1.758
10111SOL    HW131232   6.790   2.518   1.678
10111SOL    HW231233   6.718   2.494   1.823
10112SOL     OW31234   4.614   3.208   6.338
10112SOL    HW131235   4.613   3.293   6.285
10112SOL    HW231236   4.576   3.134   6.282
10113SOL     OW31237   3.951   6.877   0.664
10113SOL    HW131238   3.940   6.779   0.653
10113SOL    HW231239   4.047   6.902   0.652
10114SOL     OW31240   4.702   1.258   2.222
10114SOL    HW131241   4.696   1.351   2.259
10114SOL    HW231242   4.611   1.217   2.220
10115SOL     OW31243   1.150   1.718   4.782
10115SOL    HW131244   1.167   1.778   4.861
10115SOL    HW231245   1.237   1.679   4.750
10116SOL     OW31246   0.497   0.496   1.029
10116SOL    HW131247   0.436   0.417   1.023
10116SOL    HW231248   0.500   0.543   0.941
10117SOL     OW31249   4.592   6.778   5.951
10117SOL    HW131250   4.600   6.878   5.953
10117SOL    HW231251   4.682   6.737   5.967
10118SOL     OW31252   6.194   5.908   2.196
10118SOL    HW131253   6.215   5.832   2.134
10118SOL    HW231254   6.267   5.919   2.263
10119SOL     OW31255   1.997   6.912   6.131
10119SOL    HW131256   2.053   6.841   6.174
10119SOL    HW231257   1.978   6.886   6.036
10120SOL     OW31258   5.432   3.114   3.604
10120SOL    HW131259   5.415   3.180   3.677
10120SOL    HW231260   5.361   3.122   3.534
10121SOL     OW31261   5.942   4.586   3.499
10121SOL    HW131262   5.967   4.496   3.535
10121SOL    HW231263   6.024   4.643   3.494
10122SOL     OW31264   5.313   2.544   0.445
10122SOL    HW131265   5.279   2.556   0.352
10122SOL    HW231266   5.251   2.588   0.510
10123SOL     OW31267   0.066   0.092   0.229
10123SOL    HW131268   0.079   0.014   0.168
10123SOL    HW231269   0.098   0.175   0.183
10124SOL     OW31270   3.021   4.082   0.467
10124SOL    HW131271   2.935   4.115   0.507
10124SOL    HW231272   3.098   4.127   0.512
10125SOL     OW31273   2.266   0.507   0.506
10125SOL    HW131274   2.312   0.594   0.520
10125SOL    HW231275   2.323   0.448   0.449
10126SOL     OW31276   5.929   5.184   6.083
10126SOL    HW131277   5.929   5.282   6.064
10126SOL    HW231278   5.939   5.133   5.997
10127SOL     OW31279   4.005   4.834   5.116
10127SOL    HW131280   3.943   4.778   5.171
10127SOL    HW231281   3.971   4.928   5.113
10128SOL     OW31282   1.022   1.567   1.120
10128SOL    HW131283   1.053   1.475   1.096
10128SOL    HW231284   0.945   1.561   1.184
10129SOL     OW31285   5.274   2.581   2.990
10129SOL    HW131286   5.266   2.517   2.913
10129SOL    HW231287   5.363   2.625   2.988
10130SOL     OW31288   6.158   5.920   1.401
10130SOL    HW131289   6.125   6.007   1.437
10130SOL    HW231290   6.150   5.920   1.301
10131SOL     OW31291   0.557   0.141   0.157
10131SOL    HW131292   0.518   0.230   0.135
10131SOL    HW231293   0.653   0.152   0.185
10132SOL     OW31294   2.669   6.451   2.586
10132SOL    HW131295   2.594   6.396   2.622
10132SOL    HW231296   2.651   6.548   2.604
10133SOL     OW31297   6.138   4.686   2.653
10133SOL    HW131298   6.208   4.730   2.709
10133SOL    HW231299   6.164   4.591   2.637
10134SOL     OW31300   0.439   1.416   1.781
10134SOL    HW131301   0.513   1.351   1.772
10134SOL    HW231302   0.406   1.443   1.690
10135SOL     OW31303   3.063   5.976   2.843
10135SOL    HW131304   3.154   5.967   2.803
10135SOL    HW231305   2.999   5.916   2.795
10136SOL     OW31306   6.428   6.632   2.469
10136SOL    HW131307   6.514   6.660   2.427
10136SOL    HW231308   6.352   6.658   2.409
10137SOL     OW31309   5.718   5.039   4.558
10137SOL    HW131310   5.643   5.091   4.600
10137SOL    HW231311   5.685   4.995   4.474
10138SOL     OW31312   5.916   3.141   5.905
10138SOL    HW131313   6.007   3.144   5.864
10138SOL    HW231314   5.869   3.058   5.877
10139SOL     OW31315   3.566   3.077   3.239
10139SOL    HW131316   3.540   3.173   3.246
10139SOL    HW231317   3.484   3.020   3.233
10140SOL     OW31318   1.146   4.923   4.258
10140SOL    HW131319   1.216   4.993   4.244
10140SOL    HW231320   1.090   4.946   4.338
10141SOL     OW31321   2.076   0.672   3.795
10141SOL    HW131322   2.109   0.757   3.754
10141SOL    HW231323   1.989   0.646   3.752
10142SOL     OW31324   5.332   5.543   4.549
10142SOL    HW131325   5.258   5.584   4.602
10142SOL    HW231326   5.320   5.563   4.452
10143SOL     OW31327   4.460   6.226   1.413
10143SOL    HW131328   4.406   6.143   1.395
10143SOL    HW231329   4.525   6.240   1.338
10144SOL     OW31330   2.738   4.712   2.837
10144SOL    HW131331   2.756   4.680   2.744
10144SOL    HW231332   2.664   4.658   2.877
10145SOL     OW31333   2.728   0.285   6.177
10145SOL    HW131334   2.747   0.228   6.256
10145SOL    HW231335   2.794   0.360   6.173
10146SOL     OW31336   4.975   4.854   4.587
10146SOL    HW131337   5.067   4.893   4.584
10146SOL    HW231338   4.954   4.810   4.500
10147SOL     OW31339   5.010   5.714   4.346
10147SOL    HW131340   4.935   5.647   4.348
10147SOL    HW231341   4.976   5.801   4.312
10148SOL     OW31342   6.183   5.776   0.775
10148SOL    HW131343   6.255   5.708   0.785
10148SOL    HW231344   6.197   5.849   0.842
10149SOL     OW31345   4.123   3.059   1.537
10149SOL    HW131346   4.145   3.001   1.458
10149SOL    HW231347   4.064   3.134   1.507
10150SOL     OW31348   5.551   4.185   0.789
10150SOL    HW131349   5.498   4.249   0.734
10150SOL    HW231350   5.624   4.145   0.733
10151SOL     OW31351   0.562   5.505   5.667
10151SOL    HW131352   0.653   5.485   5.631
10151SOL    HW231353   0.565   5.506   5.767
10152SOL     OW31354   0.883   5.724   4.191
10152SOL    HW131355   0.816   5.777   4.243
10152SOL    HW231356   0.843   5.697   4.104
10153SOL     OW31357   5.278   5.341   3.906
10153SOL    HW131358   5.184   5.323   3.879
10153SOL    HW231359   5.282   5.427   3.957
10154SOL     OW31360   6.803   5.946   5.843
10154SOL    HW131361   6.819   5.890   5.762
10154SOL    HW231362   6.831   6.040   5.824
10155SOL     OW31363   3.546   1.326   6.287
10155SOL    HW131364   3.564   1.423   6.304
10155SOL    HW231365   3.616   1.290   6.225
10156SOL     OW31366   5.839   0.388   2.432
10156SOL    HW131367   5.894   0.389   2.349
10156SOL    HW231368   5.897   0.368   2.511
10157SOL     OW31369   5.027   0.893   3.842
10157SOL    HW131370   5.112   0.851   3.809
10157SOL    HW231371   5.042   0.931   3.933
10158SOL     OW31372   4.961   3.027   5.859
10158SOL    HW131373   5.021   2.977   5.922
10158SOL    HW231374   4.912   3.098   5.909
10159SOL     OW31375   1.594   0.871   6.200
10159SOL    HW131376   1.591   0.971   6.197
10159SOL    HW231377   1.539   0.838   6.277
10160SOL     OW31378   0.700   6.063   3.472
10160SOL    HW131379   0.751   6.055   3.558
10160SOL    HW231380   0.706   5.976   3.422
10161SOL     OW31381   2.691   5.957   4.807
10161SOL    HW131382   2.646   5.993   4.888
10161SOL    HW231383   2.668   5.861   4.795
10162SOL     OW31384   3.199   2.780   6.502
10162SOL    HW131385   3.229   2.684   6.507
10162SOL    HW231386   3.278   2.839   6.485
10163SOL     OW31387   0.854   3.364   5.666
10163SOL    HW131388   0.915   3.420   5.610
10163SOL    HW231389   0.791   3.314   5.607
10164SOL     OW31390   1.444   2.458   6.281
10164SOL    HW131391   1.399   2.485   6.196
10164SOL    HW231392   1.376   2.417   6.342
10165SOL     OW31393   0.438   1.731   2.921
10165SOL    HW131394   0.340   1.730   2.904
10165SOL    HW231395   0.463   1.818   2.963
10166SOL     OW31396   0.251   1.216   1.875
10166SOL    HW131397   0.287   1.303   1.843
10166SOL    HW231398   0.322   1.145   1.866
10167SOL     OW31399   4.914   0.871   0.645
10167SOL    HW131400   5.004   0.909   0.623
10167SOL    HW231401   4.920   0.771   0.647
10168SOL     OW31402   6.793   4.873   4.737
10168SOL    HW131403   6.784   4.773   4.742
10168SOL    HW231404   6.881   4.897   4.697
10169SOL     OW31405   6.491   4.148   5.031
10169SOL    HW131406   6.434   4.195   4.963
10169SOL    HW231407   6.542   4.215   5.085
10170SOL     OW31408   1.347   4.113   4.974
10170SOL    HW131409   1.313   4.051   4.904
10170SOL    HW231410   1.417   4.173   4.935
10171SOL     OW31411   5.685   2.944   6.711
10171SOL    HW131412   5.782   2.921   6.709
10171SOL    HW231413   5.630   2.861   6.717
10172SOL     OW31414   4.907   0.584   4.224
10172SOL    HW131415   4.848   0.517   4.269
10172SOL    HW231416   4.921   0.662   4.286
10173SOL     OW31417   2.203   2.684   2.744
10173SOL    HW131418   2.210   2.615   2.817
10173SOL    HW231419   2.129   2.658   2.681
10174SOL     OW31420   6.324   4.353   0.945
10174SOL    HW131421   6.308   4.348   1.044
10174SOL    HW231422   6.242   4.323   0.897
10175SOL     OW31423   5.620   2.573   5.447
10175SOL    HW131424   5.532   2.541   5.482
10175SOL    HW231425   5.614   2.671   5.426
10176SOL     OW31426   2.395   3.258   0.547
10176SOL    HW131427   2.304   3.285   0.519
10176SOL    HW231428   2.419   3.304   0.633
10177SOL     OW31429   2.018   0.292   5.173
10177SOL    HW131430   2.071   0.377   5.173
10177SOL    HW231431   2.001   0.263   5.079
10178SOL     OW31432   5.343   2.976   4.907
10178SOL    HW131433   5.267   2.922   4.870
10178SOL    HW231434   5.355   3.058   4.851
10179SOL     OW31435   0.186   3.329   6.961
10179SOL    HW131436   0.160   3.313   0.035
10179SOL    HW231437   0.129   3.401   6.922
10180SOL     OW31438   1.965   6.679   5.943
10180SOL    HW131439   1.897   6.614   5.976
10180SOL    HW231440   1.920   6.763   5.912
10181SOL     OW31441   6.088   3.577   2.286
10181SOL    HW131442   6.181   3.554   2.314
10181SOL    HW231443   6.069   3.539   2.196
10182SOL     OW31444   4.197   1.327   0.589
10182SOL    HW131445   4.184   1.388   0.668
10182SOL    HW231446   4.241   1.377   0.515
10183SOL     OW31447   2.142   1.454   6.401
10183SOL    HW131448   2.185   1.387   6.341
10183SOL    HW231449   2.043   1.437   6.404
10184SOL     OW31450   4.687   0.732   0.045
10184SOL    HW131451   4.610   0.787   0.013
10184SOL    HW231452   4.720   0.675   6.990
10185SOL     OW31453   4.419   1.227   0.170
10185SOL    HW131454   4.507   1.181   0.185
10185SOL    HW231455   4.355   1.200   0.242
10186SOL     OW31456   4.912   2.289   2.962
10186SOL    HW131457   4.939   2.382   2.937
10186SOL    HW231458   4.815   2.275   2.940
10187SOL     OW31459   1.138   2.294   2.641
10187SOL    HW131460   1.153   2.378   2.589
10187SOL    HW231461   1.198   2.293   2.722
10188SOL     OW31462   4.125   5.267   0.454
10188SOL    HW131463   4.084   5.176   0.458
10188SOL    HW231464   4.059   5.332   0.416
10189SOL     OW31465   1.320   6.757   5.271
10189SOL    HW131466   1.371   6.749   5.357
10189SOL    HW231467   1.356   6.834   5.218
10190SOL     OW31468   5.359   2.774   6.861
10190SOL    HW131469   5.426   2.731   6.800
10190SOL    HW231470   5.309   2.703   6.910
10191SOL     OW31471   6.879   4.351   6.690
10191SOL    HW131472   6.868   4.354   6.790
10191SOL    HW231473   6.878   4.444   6.653
10192SOL     OW31474   3.413   1.693   0.086
10192SOL    HW131475   3.358   1.647   0.155
10192SOL    HW231476   3.501   1.646   0.076
10193SOL     OW31477   4.766   4.329   0.604
10193SOL    HW131478   4.683   4.294   0.562
10193SOL    HW231479   4.789   4.275   0.685
10194SOL     OW31480   4.722   2.631   4.887
10194SOL    HW131481   4.667   2.585   4.957
10194SOL    HW231482   4.817   2.638   4.919
10195SOL     OW31483   5.784   4.130   1.940
10195SOL    HW131484   5.771   4.075   1.857
10195SOL    HW231485   5.735   4.088   2.016
10196SOL     OW31486   0.270   2.169   4.072
10196SOL    HW131487   0.370   2.173   4.070
10196SOL    HW231488   0.233   2.239   4.010
10197SOL     OW31489   5.680   0.417   6.962
10197SOL    HW131490   5.641   0.440   6.873
10197SOL    HW231491   5.630   0.465   0.013
10198SOL     OW31492   4.209   6.851   3.528
10198SOL    HW131493   4.250   6.793   3.457
10198SOL    HW231494   4.240   6.820   3.618
10199SOL     OW31495   0.681   2.240   5.536
10199SOL    HW131496   0.680   2.148   5.498
10199SOL    HW231497   0.641   2.239   5.628
10200SOL     OW31498   5.081   2.128   2.114
10200SOL    HW131499   5.100   2.051   2.053
10200SOL    HW231500   5.018   2.191   2.068
10201SOL     OW31501   1.426   3.926   0.741
10201SOL    HW131502   1.488   3.956   0.668
10201SOL    HW231503   1.415   4.000   0.807
10202SOL     OW31504   5.050   0.589   3.665
10202SOL    HW131505   4.957   0.623   3.654
10202SOL    HW231506   5.048   0.494   3.698
10203SOL     OW31507   0.129   2.678   4.958
10203SOL    HW131508   0.222   2.700   4.930
10203SOL    HW231509   0.076   2.648   4.879
10204SOL     OW31510   5.718   4.389   6.197
10204SOL    HW131511   5.693   4.345   6.111
10204SOL    HW231512   5.651   4.461   6.218
10205SOL     OW31513   0.032   1.651   6.603
10205SOL    HW131514   0.121   1.654   6.557
10205SOL    HW231515   6.992   1.720   6.563
10206SOL     OW31516   1.744   1.901   4.678
10206SOL    HW131517   1.735   1.851   4.764
10206SOL    HW231518   1.758   1.837   4.603
10207SOL     OW31519   2.518   2.569   5.823
10207SOL    HW131520   2.553   2.476   5.835
10207SOL    HW231521   2.419   2.568   5.815
10208SOL     OW31522   6.822   6.847   5.843
10208SOL    HW131523   6.724   6.828   5.845
10208SOL    HW231524   6.857   6.852   5.937
10209SOL     OW31525   6.866   6.629   5.609
10209SOL    HW131526   6.966   6.630   5.615
10209SOL    HW231527   6.828   6.608   5.699
10210SOL     OW31528   3.858   0.569   1.714
10210SOL    HW131529   3.839   0.587   1.810
10210SOL    HW231530   3.891   0.653   1.670
10211SOL     OW31531   5.003   5.219   6.255
10211SOL    HW131532   5.031   5.130   6.292
10211SOL    HW231533   4.911   5.241   6.287
10212SOL     OW31534   0.439   0.654   6.949
10212SOL    HW131535   0.481   0.720   7.010
10212SOL    HW231536   0.344   0.639   6.977
10213SOL     OW31537   6.937   2.765   1.296
10213SOL    HW131538   6.880   2.805   1.224
10213SOL    HW231539   0.011   2.791   1.281
10214SOL     OW31540   1.483   2.809   6.916
10214SOL    HW131541   1.527   2.886   6.964
10214SOL    HW231542   1.528   2.724   6.942
10215SOL     OW31543   3.669   3.945   2.537
10215SOL    HW131544   3.703   3.916   2.448
10215SOL    HW231545   3.746   3.966   2.597
10216SOL     OW31546   0.375   6.658   1.856
10216SOL    HW131547   0.400   6.683   1.763
10216SOL    HW231548   0.282   6.691   1.876
10217SOL     OW31549   4.425   1.713   5.102
10217SOL    HW131550   4.354   1.782   5.086
10217SOL    HW231551   4.387   1.622   5.087
10218SOL     OW31552   1.233   2.836   2.826
10218SOL    HW131553   1.277   2.843   2.736
10218SOL    HW231554   1.140   2.873   2.821
10219SOL     OW31555   6.738   6.423   2.620
10219SOL    HW131556   6.666   6.407   2.553
10219SOL    HW231557   6.799   6.495   2.587
10220SOL     OW31558   3.435   3.284   0.001
10220SOL    HW131559   3.413   3.351   6.951
10220SOL    HW231560   3.411   3.321   0.091
10221SOL     OW31561   1.270   5.289   3.057
10221SOL    HW131562   1.278   5.231   3.138
10221SOL    HW231563   1.177   5.283   3.021
10222SOL     OW31564   3.088   3.864   3.821
10222SOL    HW131565   3.144   3.923   3.765
10222SOL    HW231566   3.099   3.769   3.791
10223SOL     OW31567   2.388   6.878   0.671
10223SOL    HW131568   2.309   6.923   0.629
10223SOL    HW231569   2.357   6.802   0.728
10224SOL     OW31570   6.881   3.318   2.948
10224SOL    HW131571   6.900   3.375   3.028
10224SOL    HW231572   6.915   3.225   2.965
10225SOL     OW31573   1.633   3.842   5.811
10225SOL    HW131574   1.601   3.912   5.747
10225SOL    HW231575   1.651   3.884   5.900
10226SOL     OW31576   4.526   4.407   7.011
10226SOL    HW131577   4.579   4.417   0.074
10226SOL    HW231578   4.431   4.434   0.007
10227SOL     OW31579   5.337   4.047   1.122
10227SOL    HW131580   5.428   4.088   1.112
10227SOL    HW231581   5.287   4.094   1.194
10228SOL     OW31582   5.373   0.484   0.574
10228SOL    HW131583   5.297   0.456   0.515
10228SOL    HW231584   5.456   0.433   0.549
10229SOL     OW31585   0.449   2.331   4.805
10229SOL    HW131586   0.457   2.311   4.707
10229SOL    HW231587   0.522   2.285   4.855
10230SOL     OW31588   6.781   6.213   1.611
10230SOL    HW131589   6.751   6.130   1.657
10230SOL    HW231590   6.702   6.258   1.569
10231SOL     OW31591   0.293   3.907   2.286
10231SOL    HW131592   0.243   3.994   2.282
10231SOL    HW231593   0.340   3.900   2.374
10232SOL     OW31594   4.629   4.900   2.560
10232SOL    HW131595   4.615   4.836   2.636
10232SOL    HW231596   4.639   4.848   2.475
10233SOL     OW31597   3.025   3.951   5.997
10233SOL    HW131598   3.074   3.977   5.914
10233SOL    HW231599   3.063   4.001   6.075
10234SOL     OW31600   0.583   0.701   2.192
10234SOL    HW131601   0.492   0.690   2.232
10234SOL    HW231602   0.635   0.769   2.246
10235SOL     OW31603   1.221   1.166   3.194
10235SOL    HW131604   1.304   1.128   3.234
10235SOL    HW231605   1.198   1.118   3.110
10236SOL     OW31606   0.304   0.745   2.716
10236SOL    HW131607   0.392   0.715   2.678
10236SOL    HW231608   0.299   0.845   2.716
10237SOL     OW31609   7.016   3.613   5.569
10237SOL    HW131610   6.981   3.537   5.623
10237SOL    HW231611   0.030   3.579   5.481
10238SOL     OW31612   2.818   6.681   1.000
10238SOL    HW131613   2.866   6.736   0.931
10238SOL    HW231614   2.871   6.599   1.020
10239SOL     OW31615   1.033   2.460   5.020
10239SOL    HW131616   1.022   2.446   5.118
10239SOL    HW231617   1.111   2.519   5.002
10240SOL     OW31618   2.235   5.861   1.395
10240SOL    HW131619   2.159   5.925   1.389
10240SOL    HW231620   2.315   5.898   1.347
10241SOL     OW31621   4.178   3.540   1.539
10241SOL    HW131622   4.102   3.563   1.478
10241SOL    HW231623   4.177   3.598   1.619
10242SOL     OW31624   0.337   3.696   1.110
10242SOL    HW131625   0.294   3.784   1.091
10242SOL    HW231626   0.358   3.689   1.208
10243SOL     OW31627   3.456   5.505   2.389
10243SOL    HW131628   3.508   5.420   2.395
10243SOL    HW231629   3.490   5.570   2.456
10244SOL     OW31630   2.437   4.985   1.521
10244SOL    HW131631   2.473   4.893   1.508
10244SOL    HW231632   2.513   5.050   1.529
10245SOL     OW31633   6.017   4.244   1.124
10245SOL    HW131634   6.071   4.251   1.208
10245SOL    HW231635   5.919   4.242   1.147
10246SOL     OW31636   3.664   3.469   3.438
10246SOL    HW131637   3.621   3.549   3.479
10246SOL    HW231638   3.596   3.415   3.388
10247SOL     OW31639   0.683   3.288   4.470
10247SOL    HW131640   0.772   3.283   4.424
10247SOL    HW231641   0.661   3.198   4.508
10248SOL     OW31642   0.456   1.498   5.073
10248SOL    HW131643   0.421   1.499   5.167
10248SOL    HW231644   0.388   1.538   5.012
10249SOL     OW31645   2.652   4.556   5.725
10249SOL    HW131646   2.664   4.635   5.784
10249SOL    HW231647   2.740   4.511   5.710
10250SOL     OW31648   3.125   3.159   0.475
10250SOL    HW131649   3.098   3.134   0.382
10250SOL    HW231650   3.096   3.253   0.493
10251SOL     OW31651   1.013   0.558   4.441
10251SOL    HW131652   1.028   0.491   4.514
10251SOL    HW231653   1.100   0.577   4.396
10252SOL     OW31654   4.886   4.543   5.939
10252SOL    HW131655   4.967   4.570   5.990
10252SOL    HW231656   4.912   4.516   5.846
10253SOL     OW31657   3.806   5.543   6.802
10253SOL    HW131658   3.776   5.448   6.813
10253SOL    HW231659   3.821   5.584   6.892
10254SOL     OW31660   6.462   1.193   6.253
10254SOL    HW131661   6.368   1.198   6.217
10254SOL    HW231662   6.478   1.102   6.290
10255SOL     OW31663   3.905   4.445   1.642
10255SOL    HW131664   3.990   4.416   1.598
10255SOL    HW231665   3.845   4.366   1.653
10256SOL     OW31666   2.834   1.364   4.451
10256SOL    HW131667   2.928   1.331   4.446
10256SOL    HW231668   2.804   1.392   4.359
10257SOL     OW31669   3.489   5.816   2.959
10257SOL    HW131670   3.446   5.866   2.883
10257SOL    HW231671   3.513   5.724   2.928
10258SOL     OW31672   2.770   1.564   2.253
10258SOL    HW131673   2.810   1.561   2.345
10258SOL    HW231674   2.838   1.596   2.188
10259SOL     OW31675   1.641   4.216   4.143
10259SOL    HW131676   1.724   4.211   4.087
10259SOL    HW231677   1.588   4.296   4.116
10260SOL     OW31678   0.707   0.243   3.378
10260SOL    HW131679   0.728   0.149   3.405
10260SOL    HW231680   0.655   0.242   3.293
10261SOL     OW31681   0.262   3.978   1.084
10261SOL    HW131682   0.232   3.996   0.990
10261SOL    HW231683   0.182   3.962   1.142
10262SOL     OW31684   3.748   0.957   0.073
10262SOL    HW131685   3.749   0.875   0.129
10262SOL    HW231686   3.698   0.939   7.009
10263SOL     OW31687   5.518   0.223   2.935
10263SOL    HW131688   5.426   0.186   2.921
10263SOL    HW231689   5.564   0.230   2.847
10264SOL     OW31690   6.487   0.380   6.125
10264SOL    HW131691   6.497   0.338   6.215
10264SOL    HW231692   6.567   0.359   6.069
10265SOL     OW31693   2.118   1.190   2.148
10265SOL    HW131694   2.076   1.275   2.180
10265SOL    HW231695   2.195   1.211   2.088
10266SOL     OW31696   2.750   3.800   1.424
10266SOL    HW131697   2.830   3.812   1.484
10266SOL    HW231698   2.667   3.794   1.480
10267SOL     OW31699   6.587   0.427   0.908
10267SOL    HW131700   6.501   0.407   0.860
10267SOL    HW231701   6.573   0.416   1.007
10268SOL     OW31702   2.954   5.596   2.448
10268SOL    HW131703   2.928   5.679   2.398
10268SOL    HW231704   3.041   5.561   2.414
10269SOL     OW31705   2.181   1.332   6.978
10269SOL    HW131706   2.178   1.326   6.879
10269SOL    HW231707   2.213   1.246   7.016
10270SOL     OW31708   2.698   0.397   4.169
10270SOL    HW131709   2.764   0.370   4.099
10270SOL    HW231710   2.690   0.324   4.237
10271SOL     OW31711   2.091   1.016   6.899
10271SOL    HW131712   2.171   1.049   6.848
10271SOL    HW231713   2.110   1.022   6.998
10272SOL     OW31714   5.757   6.426   5.030
10272SOL    HW131715   5.708   6.339   5.031
10272SOL    HW231716   5.767   6.458   4.936
10273SOL     OW31717   1.934   5.480   3.284
10273SOL    HW131718   1.861   5.429   3.240
10273SOL    HW231719   2.008   5.496   3.219
10274SOL     OW31720   0.920   3.670   5.306
10274SOL    HW131721   0.821   3.655   5.302
10274SOL    HW231722   0.953   3.697   5.215
10275SOL     OW31723   6.850   1.136   2.123
10275SOL    HW131724   6.949   1.150   2.121
10275SOL    HW231725   6.804   1.225   2.120
10276SOL     OW31726   3.268   5.139   5.317
10276SOL    HW131727   3.220   5.190   5.388
10276SOL    HW231728   3.209   5.068   5.279
10277SOL     OW31729   1.174   5.126   3.518
10277SOL    HW131730   1.121   5.048   3.551
10277SOL    HW231731   1.130   5.211   3.548
10278SOL     OW31732   6.337   0.162   4.635
10278SOL    HW131733   6.413   0.126   4.690
10278SOL    HW231734   6.366   0.246   4.590
10279SOL     OW31735   1.203   4.713   4.119
10279SOL    HW131736   1.129   4.665   4.073
10279SOL    HW231737   1.165   4.779   4.184
10280SOL     OW31738   5.942   5.350   0.522
10280SOL    HW131739   5.960   5.411   0.599
10280SOL    HW231740   5.843   5.345   0.505
10281SOL     OW31741   6.145   0.404   4.817
10281SOL    HW131742   6.224   0.447   4.772
10281SOL    HW231743   6.143   0.306   4.795
10282SOL     OW31744   4.628   2.487   3.188
10282SOL    HW131745   4.662   2.399   3.222
10282SOL    HW231746   4.626   2.553   3.263
10283SOL     OW31747   0.200   2.202   1.040
10283SOL    HW131748   0.292   2.241   1.043
10283SOL    HW231749   0.204   2.106   1.066
10284SOL     OW31750   0.674   5.041   4.808
10284SOL    HW131751   0.656   5.125   4.757
10284SOL    HW231752   0.771   5.017   4.800
10285SOL     OW31753   0.061   6.789   6.630
10285SOL    HW131754   7.000   6.735   6.611
10285SOL    HW231755   0.088   6.776   6.726
10286SOL     OW31756   3.110   1.022   2.472
10286SOL    HW131757   3.120   1.037   2.373
10286SOL    HW231758   3.087   0.926   2.489
10287SOL     OW31759   0.655   5.814   2.699
10287SOL    HW131760   0.661   5.910   2.670
10287SOL    HW231761   0.596   5.806   2.779
10288SOL     OW31762   3.835   6.010   3.904
10288SOL    HW131763   3.852   6.087   3.966
10288SOL    HW231764   3.755   6.029   3.848
10289SOL     OW31765   4.054   6.072   6.910
10289SOL    HW131766   4.142   6.119   6.920
10289SOL    HW231767   4.034   6.059   6.813
10290SOL     OW31768   3.019   3.422   2.553
10290SOL    HW131769   2.981   3.430   2.460
10290SOL    HW231770   2.980   3.492   2.612
10291SOL     OW31771   2.927   2.034   2.417
10291SOL    HW131772   3.019   2.071   2.426
10291SOL    HW231773   2.922   1.977   2.335
10292SOL     OW31774   0.143   0.208   5.935
10292SOL    HW131775   0.159   0.113   5.960
10292SOL    HW231776   0.226   0.246   5.893
10293SOL     OW31777   1.092   3.394   4.998
10293SOL    HW131778   1.109   3.482   4.954
10293SOL    HW231779   1.114   3.400   5.095
10294SOL     OW31780   1.683   6.751   2.034
10294SOL    HW131781   1.755   6.801   1.987
10294SOL    HW231782   1.605   6.812   2.052
10295SOL     OW31783   1.554   1.200   0.695
10295SOL    HW131784   1.613   1.154   0.762
10295SOL    HW231785   1.610   1.249   0.629
10296SOL     OW31786   6.236   2.281   5.390
10296SOL    HW131787   6.180   2.306   5.311
10296SOL    HW231788   6.261   2.364   5.440
10297SOL     OW31789   4.653   0.690   1.081
10297SOL    HW131790   4.659   0.594   1.054
10297SOL    HW231791   4.657   0.748   1.000
10298SOL     OW31792   1.298   1.827   1.623
10298SOL    HW131793   1.212   1.878   1.611
10298SOL    HW231794   1.282   1.730   1.603
10299SOL     OW31795   4.912   0.183   2.535
10299SOL    HW131796   4.874   0.255   2.594
10299SOL    HW231797   4.837   0.130   2.495
10300SOL     OW31798   1.420   3.046   0.798
10300SOL    HW131799   1.390   2.989   0.875
10300SOL    HW231800   1.370   3.132   0.799
10301SOL     OW31801   4.075   1.063   0.168
10301SOL    HW131802   4.131   1.108   0.238
10301SOL    HW231803   4.125   1.059   0.082
10302SOL     OW31804   3.295   6.217   5.630
10302SOL    HW131805   3.238   6.299   5.620
10302SOL    HW231806   3.290   6.185   5.725
10303SOL     OW31807   0.559   4.314   4.594
10303SOL    HW131808   0.493   4.355   4.531
10303SOL    HW231809   0.515   4.298   4.682
10304SOL     OW31810   5.234   6.316   1.281
10304SOL    HW131811   5.262   6.398   1.332
10304SOL    HW231812   5.307   6.290   1.217
10305SOL     OW31813   2.831   3.690   5.248
10305SOL    HW131814   2.891   3.668   5.324
10305SOL    HW231815   2.849   3.627   5.172
10306SOL     OW31816   4.282   0.957   0.773
10306SOL    HW131817   4.237   1.043   0.797
10306SOL    HW231818   4.360   0.976   0.713
10307SOL     OW31819   1.949   0.177   4.938
10307SOL    HW131820   1.853   0.168   4.910
10307SOL    HW231821   1.999   0.226   4.866
10308SOL     OW31822   2.855   4.429   1.603
10308SOL    HW131823   2.763   4.401   1.629
10308SOL    HW231824   2.899   4.475   1.680
10309SOL     OW31825   0.179   1.130   5.341
10309SOL    HW131826   0.276   1.119   5.319
10309SOL    HW231827   0.165   1.114   5.438
10310SOL     OW31828   3.331   3.883   6.150
10310SOL    HW131829   3.334   3.955   6.080
10310SOL    HW231830   3.304   3.923   6.238
10311SOL     OW31831   5.755   6.257   6.819
10311SOL    HW131832   5.815   6.244   6.897
10311SOL    HW231833   5.746   6.170   6.769
10312SOL     OW31834   2.950   6.741   2.311
10312SOL    HW131835   2.897   6.765   2.230
10312SOL    HW231836   2.942   6.643   2.329
10313SOL     OW31837   5.019   6.709   2.950
10313SOL    HW131838   5.090   6.728   3.018
10313SOL    HW231839   5.056   6.720   2.858
10314SOL     OW31840   1.044   6.838   0.826
10314SOL    HW131841   1.056   6.878   0.736
10314SOL    HW231842   0.947   6.829   0.847
10315SOL     OW31843   4.911   4.524   3.805
10315SOL    HW131844   4.886   4.469   3.885
10315SOL    HW231845   4.861   4.611   3.808
10316SOL     OW31846   0.987   1.711   0.183
10316SOL    HW131847   1.038   1.666   0.110
10316SOL    HW231848   1.050   1.755   0.246
10317SOL     OW31849   3.865   6.492   4.886
10317SOL    HW131850   3.787   6.499   4.949
10317SOL    HW231851   3.889   6.583   4.852
10318SOL     OW31852   6.241   7.017   0.507
10318SOL    HW131853   6.328   6.969   0.503
10318SOL    HW231854   6.179   6.979   0.439
10319SOL     OW31855   0.862   4.273   3.970
10319SOL    HW131856   0.812   4.231   3.894
10319SOL    HW231857   0.835   4.369   3.978
10320SOL     OW31858   6.470   0.250   2.665
10320SOL    HW131859   6.414   0.269   2.745
10320SOL    HW231860   6.451   0.318   2.594
10321SOL     OW31861   5.818   2.464   2.975
10321SOL    HW131862   5.735   2.482   3.029
10321SOL    HW231863   5.896   2.506   3.021
10322SOL     OW31864   4.645   4.286   4.781
10322SOL    HW131865   4.689   4.217   4.723
10322SOL    HW231866   4.616   4.244   4.867
10323SOL     OW31867   1.422   4.648   5.919
10323SOL    HW131868   1.462   4.738   5.903
10323SOL    HW231869   1.467   4.581   5.860
10324SOL     OW31870   2.873   3.505   2.971
10324SOL    HW131871   2.813   3.583   2.955
10324SOL    HW231872   2.890   3.458   2.885
10325SOL     OW31873   5.469   5.978   4.826
10325SOL    HW131874   5.434   6.069   4.804
10325SOL    HW231875   5.392   5.915   4.836
10326SOL     OW31876   5.670   3.096   0.141
10326SOL    HW131877   5.582   3.125   0.104
10326SOL    HW231878   5.660   3.008   0.187
10327SOL     OW31879   1.691   5.838   6.530
10327SOL    HW131880   1.736   5.915   6.575
10327SOL    HW231881   1.747   5.807   6.453
10328SOL     OW31882   5.567   2.579   2.308
10328SOL    HW131883   5.578   2.502   2.245
10328SOL    HW231884   5.481   2.568   2.358
10329SOL     OW31885   3.497   1.864   1.924
10329SOL    HW131886   3.502   1.944   1.865
10329SOL    HW231887   3.401   1.843   1.943
10330SOL     OW31888   5.320   6.958   2.048
10330SOL    HW131889   5.290   0.018   2.097
10330SOL    HW231890   5.370   6.986   1.966
10331SOL     OW31891   5.116   5.451   5.821
10331SOL    HW131892   5.089   5.544   5.797
10331SOL    HW231893   5.041   5.388   5.799
10332SOL     OW31894   1.893   1.708   6.354
10332SOL    HW131895   1.855   1.801   6.358
10332SOL    HW231896   1.941   1.696   6.267
10333SOL     OW31897   1.567   3.528   4.527
10333SOL    HW131898   1.516   3.487   4.602
10333SOL    HW231899   1.656   3.560   4.561
10334SOL     OW31900   3.268   1.507   4.109
10334SOL    HW131901   3.290   1.430   4.048
10334SOL    HW231902   3.181   1.546   4.082
10335SOL     OW31903   2.043   3.083   4.683
10335SOL    HW131904   2.117   3.032   4.727
10335SOL    HW231905   1.979   3.116   4.752
10336SOL     OW31906   5.707   6.826   3.702
10336SOL    HW131907   5.754   6.795   3.619
10336SOL    HW231908   5.678   6.747   3.755
10337SOL     OW31909   6.320   5.980   0.138
10337SOL    HW131910   6.271   5.944   0.059
10337SOL    HW231911   6.345   5.904   0.199
10338SOL     OW31912   1.141   6.521   1.977
10338SOL    HW131913   1.187   6.509   1.889
10338SOL    HW231914   1.046   6.490   1.971
10339SOL     OW31915   5.492   2.618   5.780
10339SOL    HW131916   5.416   2.600   5.717
10339SOL    HW231917   5.565   2.552   5.765
10340SOL     OW31918   2.406   3.992   6.384
10340SOL    HW131919   2.314   4.001   6.345
10340SOL    HW231920   2.473   4.025   6.317
10341SOL     OW31921   2.637   4.619   3.328
10341SOL    HW131922   2.569   4.588   3.260
10341SOL    HW231923   2.598   4.610   3.420
10342SOL     OW31924   0.643   1.169   3.788
10342SOL    HW131925   0.577   1.134   3.722
10342SOL    HW231926   0.598   1.182   3.877
10343SOL     OW31927   3.752   5.184   2.005
10343SOL    HW131928   3.780   5.102   1.955
10343SOL    HW231929   3.819   5.256   1.989
10344SOL     OW31930   4.833   0.113   6.355
10344SOL    HW131931   4.736   0.108   6.330
10344SOL    HW231932   4.857   0.037   6.415
10345SOL     OW31933   1.303   3.923   4.777
10345SOL    HW131934   1.397   3.931   4.742
10345SOL    HW231935   1.250   3.865   4.716
10346SOL     OW31936   0.396   5.907   0.141
10346SOL    HW131937   0.338   5.844   0.193
10346SOL    HW231938   0.437   5.973   0.204
10347SOL     OW31939   5.904   1.996   4.985
10347SOL    HW131940   5.844   2.075   4.990
10347SOL    HW231941   5.941   1.976   5.076
10348SOL     OW31942   0.456   5.079   1.090
10348SOL    HW131943   0.518   5.062   1.167
10348SOL    HW231944   0.480   5.165   1.046
10349SOL     OW31945   6.825   6.656   6.634
10349SOL    HW131946   6.807   6.581   6.570
10349SOL    HW231947   6.739   6.689   6.672
10350SOL     OW31948   3.715   0.419   6.137
10350SOL    HW131949   3.622   0.439   6.107
10350SOL    HW231950   3.714   0.338   6.197
10351SOL     OW31951   4.429   5.705   6.089
10351SOL    HW131952   4.439   5.802   6.113
10351SOL    HW231953   4.349   5.668   6.135
10352SOL     OW31954   4.361   4.710   6.369
10352SOL    HW131955   4.315   4.626   6.339
10352SOL    HW231956   4.292   4.777   6.396
10353SOL     OW31957   0.559   3.396   5.242
10353SOL    HW131958   0.552   3.297   5.236
10353SOL    HW231959   0.476   3.438   5.205
10354SOL     OW31960   5.327   1.782   0.910
10354SOL    HW131961   5.363   1.875   0.920
10354SOL    HW231962   5.305   1.745   1.000
10355SOL     OW31963   1.144   4.224   3.186
10355SOL    HW131964   1.116   4.167   3.109
10355SOL    HW231965   1.190   4.306   3.153
10356SOL     OW31966   0.349   2.464   5.041
10356SOL    HW131967   0.383   2.434   4.952
10356SOL    HW231968   0.407   2.537   5.076
10357SOL     OW31969   3.127   3.140   6.394
10357SOL    HW131970   3.086   3.232   6.389
10357SOL    HW231971   3.063   3.073   6.357
10358SOL     OW31972   0.357   0.611   2.318
10358SOL    HW131973   0.301   0.528   2.311
10358SOL    HW231974   0.398   0.615   2.409
10359SOL     OW31975   0.560   1.424   0.840
10359SOL    HW131976   0.488   1.399   0.906
10359SOL    HW231977   0.614   1.499   0.877
10360SOL     OW31978   0.052   4.609   3.601
10360SOL    HW131979   0.007   4.548   3.667
10360SOL    HW231980   0.043   4.704   3.632
10361SOL     OW31981   2.616   5.295   0.637
10361SOL    HW131982   2.603   5.388   0.674
10361SOL    HW231983   2.689   5.249   0.688
10362SOL     OW31984   1.270   4.627   5.095
10362SOL    HW131985   1.257   4.726   5.086
10362SOL    HW231986   1.282   4.587   5.004
10363SOL     OW31987   5.398   6.968   4.040
10363SOL    HW131988   5.461   7.002   3.971
10363SOL    HW231989   5.422   6.874   4.064
10364SOL     OW31990   1.077   4.411   0.962
10364SOL    HW131991   1.067   4.472   0.884
10364SOL    HW231992   0.995   4.414   1.018
10365SOL     OW31993   5.221   5.074   0.057
10365SOL    HW131994   5.318   5.078   0.081
10365SOL    HW231995   5.205   4.996   7.018
10366SOL     OW31996   4.074   6.611   4.164
10366SOL    HW131997   4.117   6.647   4.247
10366SOL    HW231998   4.069   6.683   4.095
10367SOL     OW31999   6.574   1.265   2.822
10367SOL    HW132000   6.541   1.172   2.811
10367SOL    HW232001   6.507   1.318   2.875
10368SOL     OW32002   2.385   0.207   1.162
10368SOL    HW132003   2.315   0.276   1.147
10368SOL    HW232004   2.348   0.132   1.217
10369SOL     OW32005   4.289   2.688   6.412
10369SOL    HW132006   4.301   2.709   6.315
10369SOL    HW232007   4.198   2.717   6.441
10370SOL     OW32008   3.470   0.915   5.540
10370SOL    HW132009   3.521   0.883   5.460
10370SOL    HW232010   3.520   0.892   5.623
10371SOL     OW32011   4.643   6.704   5.412
10371SOL    HW132012   4.621   6.770   5.340
10371SOL    HW232013   4.716   6.740   5.470
10372SOL     OW32014   0.582   0.760   3.789
10372SOL    HW132015   0.540   0.797   3.706
10372SOL    HW232016   0.656   0.698   3.764
10373SOL     OW32017   1.490   5.998   5.273
10373SOL    HW132018   1.563   5.939   5.238
10373SOL    HW232019   1.499   6.008   5.372
10374SOL     OW32020   3.229   1.575   3.481
10374SOL    HW132021   3.311   1.628   3.500
10374SOL    HW232022   3.188   1.545   3.568
10375SOL     OW32023   0.189   2.148   1.354
10375SOL    HW132024   0.220   2.057   1.328
10375SOL    HW232025   0.108   2.172   1.301
10376SOL     OW32026   5.991   0.215   3.933
10376SOL    HW132027   6.070   0.273   3.951
10376SOL    HW232028   5.963   0.226   3.837
10377SOL     OW32029   7.019   6.322   3.560
10377SOL    HW132030   6.923   6.335   3.535
10377SOL    HW232031   0.052   6.398   3.524
10378SOL     OW32032   6.195   6.278   5.502
10378SOL    HW132033   6.250   6.257   5.421
10378SOL    HW232034   6.254   6.310   5.576
10379SOL     OW32035   4.093   1.541   4.005
10379SOL    HW132036   4.154   1.603   4.052
10379SOL    HW232037   4.038   1.491   4.072
10380SOL     OW32038   3.425   0.547   4.083
10380SOL    HW132039   3.448   0.632   4.035
10380SOL    HW232040   3.394   0.479   4.017
10381SOL     OW32041   3.597   5.325   4.546
10381SOL    HW132042   3.600   5.345   4.644
10381SOL    HW232043   3.553   5.237   4.532
10382SOL     OW32044   0.315   5.800   1.133
10382SOL    HW132045   0.263   5.740   1.194
10382SOL    HW232046   0.354   5.747   1.058
10383SOL     OW32047   5.671   3.229   0.949
10383SOL    HW132048   5.748   3.274   0.995
10383SOL    HW232049   5.688   3.131   0.943
10384SOL     OW32050   5.976   0.881   6.552
10384SOL    HW132051   5.922   0.962   6.528
10384SOL    HW232052   5.938   0.800   6.508
10385SOL     OW32053   0.480   2.909   6.790
10385SOL    HW132054   0.552   2.885   6.726
10385SOL    HW232055   0.485   2.849   6.870
10386SOL     OW32056   6.897   2.086   6.021
10386SOL    HW132057   6.879   2.152   5.949
10386SOL    HW232058   6.833   2.009   6.013
10387SOL     OW32059   1.839   3.762   2.965
10387SOL    HW132060   1.912   3.706   2.927
10387SOL    HW232061   1.764   3.767   2.899
10388SOL     OW32062   1.571   4.574   2.396
10388SOL    HW132063   1.580   4.524   2.482
10388SOL    HW232064   1.516   4.657   2.412
10389SOL     OW32065   1.030   5.364   3.639
10389SOL    HW132066   1.044   5.461   3.617
10389SOL    HW232067   1.107   5.330   3.692
10390SOL     OW32068   2.057   3.427   3.209
10390SOL    HW132069   2.103   3.357   3.155
10390SOL    HW232070   2.060   3.403   3.306
10391SOL     OW32071   3.707   5.857   4.157
10391SOL    HW132072   3.748   5.889   4.071
10391SOL    HW232073   3.729   5.921   4.230
10392SOL     OW32074   6.533   5.484   6.303
10392SOL    HW132075   6.609   5.495   6.367
10392SOL    HW232076   6.515   5.387   6.289
10393SOL     OW32077   0.687   1.644   4.540
10393SOL    HW132078   0.705   1.614   4.446
10393SOL    HW232079   0.758   1.608   4.600
10394SOL     OW32080   2.826   0.517   0.859
10394SOL    HW132081   2.834   0.426   0.898
10394SOL    HW232082   2.732   0.532   0.827
10395SOL     OW32083   1.434   0.696   4.156
10395SOL    HW132084   1.445   0.767   4.225
10395SOL    HW232085   1.375   0.623   4.192
10396SOL     OW32086   0.259   0.207   4.879
10396SOL    HW132087   0.171   0.161   4.891
10396SOL    HW232088   0.251   0.277   4.809
10397SOL     OW32089   4.354   2.264   2.310
10397SOL    HW132090   4.308   2.186   2.353
10397SOL    HW232091   4.304   2.290   2.227
10398SOL     OW32092   6.793   2.814   2.173
10398SOL    HW132093   6.821   2.763   2.254
10398SOL    HW232094   6.742   2.896   2.201
10399SOL     OW32095   6.808   3.123   5.974
10399SOL    HW132096   6.819   3.172   5.888
10399SOL    HW232097   6.848   3.177   6.048
10400SOL     OW32098   1.857   5.109   2.449
10400SOL    HW132099   1.837   5.194   2.402
10400SOL    HW232100   1.955   5.091   2.445
10401SOL     OW32101   1.404   5.643   1.375
10401SOL    HW132102   1.306   5.634   1.359
10401SOL    HW232103   1.423   5.729   1.421
10402SOL     OW32104   1.319   2.132   4.864
10402SOL    HW132105   1.334   2.115   4.767
10402SOL    HW232106   1.283   2.048   4.906
10403SOL     OW32107   5.392   1.205   3.263
10403SOL    HW132108   5.393   1.255   3.350
10403SOL    HW232109   5.299   1.171   3.245
10404SOL     OW32110   6.330   0.363   4.153
10404SOL    HW132111   6.385   0.341   4.073
10404SOL    HW232112   6.272   0.285   4.177
10405SOL     OW32113   3.154   6.970   6.575
10405SOL    HW132114   3.200   6.986   6.488
10405SOL    HW232115   3.220   6.978   6.650
10406SOL     OW32116   1.225   6.350   5.368
10406SOL    HW132117   1.182   6.264   5.394
10406SOL    HW232118   1.171   6.427   5.401
10407SOL     OW32119   3.028   0.981   6.698
10407SOL    HW132120   2.942   0.939   6.668
10407SOL    HW232121   3.105   0.922   6.672
10408SOL     OW32122   3.619   0.042   2.973
10408SOL    HW132123   3.528   0.010   2.997
10408SOL    HW232124   3.679   0.036   3.053
10409SOL     OW32125   0.097   5.030   2.240
10409SOL    HW132126   0.137   5.031   2.149
10409SOL    HW232127   0.088   5.124   2.274
10410SOL     OW32128   5.407   5.772   0.775
10410SOL    HW132129   5.376   5.680   0.796
10410SOL    HW232130   5.341   5.839   0.810
10411SOL     OW32131   2.455   4.911   2.143
10411SOL    HW132132   2.552   4.934   2.143
10411SOL    HW232133   2.425   4.894   2.049
10412SOL     OW32134   0.607   3.247   6.636
10412SOL    HW132135   0.518   3.255   6.682
10412SOL    HW232136   0.594   3.216   6.542
10413SOL     OW32137   6.789   1.190   4.413
10413SOL    HW132138   6.770   1.276   4.460
10413SOL    HW232139   6.844   1.131   4.472
10414SOL     OW32140   5.724   6.174   5.282
10414SOL    HW132141   5.814   6.160   5.242
10414SOL    HW232142   5.732   6.229   5.365
10415SOL     OW32143   0.150   4.492   3.385
10415SOL    HW132144   0.111   4.527   3.470
10415SOL    HW232145   0.080   4.446   3.332
10416SOL     OW32146   5.115   0.703   0.471
10416SOL    HW132147   5.155   0.611   0.460
10416SOL    HW232148   5.023   0.704   0.432
10417SOL     OW32149   4.851   4.508   4.607
10417SOL    HW132150   4.822   4.432   4.550
10417SOL    HW232151   4.932   4.483   4.659
10418SOL     OW32152   6.172   3.281   0.475
10418SOL    HW132153   6.158   3.380   0.475
10418SOL    HW232154   6.163   3.246   0.568
10419SOL     OW32155   1.048   6.984   4.839
10419SOL    HW132156   0.961   6.987   4.887
10419SOL    HW232157   1.096   0.050   4.851
10420SOL     OW32158   6.430   4.133   4.099
10420SOL    HW132159   6.354   4.198   4.087
10420SOL    HW232160   6.393   4.044   4.123
10421SOL     OW32161   0.146   3.675   4.446
10421SOL    HW132162   0.083   3.696   4.521
10421SOL    HW232163   0.094   3.665   4.361
10422SOL     OW32164   5.854   3.172   5.469
10422SOL    HW132165   5.917   3.100   5.439
10422SOL    HW232166   5.894   3.222   5.546
10423SOL     OW32167   2.479   5.680   2.202
10423SOL    HW132168   2.399   5.677   2.260
10423SOL    HW232169   2.507   5.587   2.178
10424SOL     OW32170   4.757   1.013   1.837
10424SOL    HW132171   4.817   1.065   1.897
10424SOL    HW232172   4.662   1.033   1.859
10425SOL     OW32173   0.543   4.295   0.639
10425SOL    HW132174   0.566   4.378   0.588
10425SOL    HW232175   0.445   4.277   0.632
10426SOL     OW32176   6.501   1.931   6.923
10426SOL    HW132177   6.560   2.006   6.952
10426SOL    HW232178   6.406   1.963   6.922
10427SOL     OW32179   5.788   0.299   4.351
10427SOL    HW132180   5.816   0.355   4.274
10427SOL    HW232181   5.732   0.222   4.318
10428SOL     OW32182   1.574   0.684   4.743
10428SOL    HW132183   1.558   0.624   4.822
10428SOL    HW232184   1.587   0.777   4.775
10429SOL     OW32185   2.021   4.708   1.654
10429SOL    HW132186   2.056   4.671   1.740
10429SOL    HW232187   2.067   4.795   1.634
10430SOL     OW32188   3.249   0.870   4.030
10430SOL    HW132189   3.335   0.882   4.079
10430SOL    HW232190   3.205   0.785   4.059
10431SOL     OW32191   4.299   2.356   3.627
10431SOL    HW132192   4.373   2.424   3.620
10431SOL    HW232193   4.252   2.349   3.539
10432SOL     OW32194   0.936   4.714   0.963
10432SOL    HW132195   0.874   4.731   0.886
10432SOL    HW232196   0.890   4.655   1.029
10433SOL     OW32197   3.411   6.442   4.610
10433SOL    HW132198   3.468   6.431   4.691
10433SOL    HW232199   3.441   6.378   4.539
10434SOL     OW32200   4.325   1.940   0.318
10434SOL    HW132201   4.371   1.889   0.245
10434SOL    HW232202   4.253   1.884   0.358
10435SOL     OW32203   2.476   1.570   1.814
10435SOL    HW132204   2.430   1.512   1.747
10435SOL    HW232205   2.428   1.563   1.902
10436SOL     OW32206   1.250   3.962   5.798
10436SOL    HW132207   1.206   4.023   5.732
10436SOL    HW232208   1.181   3.905   5.841
10437SOL     OW32209   6.921   6.931   4.917
10437SOL    HW132210   6.882   6.900   5.003
10437SOL    HW232211   6.854   6.918   4.844
10438SOL     OW32212   0.302   5.883   6.829
10438SOL    HW132213   0.296   5.793   6.873
10438SOL    HW232214   0.380   5.884   6.766
10439SOL     OW32215   5.864   5.332   5.174
10439SOL    HW132216   5.885   5.349   5.078
10439SOL    HW232217   5.908   5.247   5.203
10440SOL     OW32218   6.434   2.477   1.462
10440SOL    HW132219   6.391   2.417   1.394
10440SOL    HW232220   6.495   2.541   1.415
10441SOL     OW32221   5.121   1.595   6.099
10441SOL    HW132222   5.037   1.638   6.132
10441SOL    HW232223   5.197   1.660   6.106
10442SOL     OW32224   2.149   0.644   5.622
10442SOL    HW132225   2.108   0.561   5.660
10442SOL    HW232226   2.217   0.619   5.553
10443SOL     OW32227   0.624   0.869   0.043
10443SOL    HW132228   0.721   0.884   0.064
10443SOL    HW232229   0.585   0.951   0.002
10444SOL     OW32230   4.514   5.287   3.940
10444SOL    HW132231   4.489   5.266   3.845
10444SOL    HW232232   4.469   5.223   4.001
10445SOL     OW32233   1.589   3.535   3.851
10445SOL    HW132234   1.600   3.624   3.895
10445SOL    HW232235   1.547   3.546   3.761
10446SOL     OW32236   2.802   4.899   4.829
10446SOL    HW132237   2.822   4.851   4.744
10446SOL    HW232238   2.819   4.837   4.906
10447SOL     OW32239   1.565   2.010   2.635
10447SOL    HW132240   1.664   1.994   2.644
10447SOL    HW232241   1.540   2.009   2.538
10448SOL     OW32242   0.943   4.800   2.632
10448SOL    HW132243   0.866   4.858   2.657
10448SOL    HW232244   1.029   4.847   2.655
10449SOL     OW32245   3.862   5.084   4.253
10449SOL    HW132246   3.789   5.151   4.266
10449SOL    HW232247   3.871   5.028   4.335
10450SOL     OW32248   0.426   2.241   4.546
10450SOL    HW132249   0.354   2.208   4.484
10450SOL    HW232250   0.497   2.172   4.555
10451SOL     OW32251   2.012   1.628   4.715
10451SOL    HW132252   2.019   1.687   4.634
10451SOL    HW232253   2.050   1.538   4.694
10452SOL     OW32254   6.771   2.472   4.561
10452SOL    HW132255   6.714   2.390   4.571
10452SOL    HW232256   6.734   2.530   4.488
10453SOL     OW32257   3.086   5.682   4.232
10453SOL    HW132258   3.101   5.715   4.139
10453SOL    HW232259   3.173   5.684   4.282
10454SOL     OW32260   6.663   1.368   6.948
10454SOL    HW132261   6.695   1.454   6.908
10454SOL    HW232262   6.701   1.359   0.019
10455SOL     OW32263   0.930   5.714   2.528
10455SOL    HW132264   0.887   5.803   2.545
10455SOL    HW232265   1.029   5.726   2.518
10456SOL     OW32266   1.011   5.483   5.888
10456SOL    HW132267   0.932   5.537   5.917
10456SOL    HW232268   1.086   5.498   5.952
10457SOL     OW32269   4.389   1.392   1.060
10457SOL    HW132270   4.374   1.366   0.964
10457SOL    HW232271   4.310   1.365   1.114
10458SOL     OW32272   1.537   6.918   0.084
10458SOL    HW132273   1.592   6.997   0.110
10458SOL    HW232274   1.522   6.860   0.164
10459SOL     OW32275   4.833   6.351   0.840
10459SOL    HW132276   4.793   6.435   0.804
10459SOL    HW232277   4.908   6.373   0.902
10460SOL     OW32278   6.516   0.735   6.176
10460SOL    HW132279   6.585   0.711   6.244
10460SOL    HW232280   6.434   0.768   6.223
10461SOL     OW32281   6.671   4.155   5.837
10461SOL    HW132282   6.614   4.233   5.811
10461SOL    HW232283   6.762   4.165   5.797
10462SOL     OW32284   4.451   3.733   0.059
10462SOL    HW132285   4.459   3.833   0.053
10462SOL    HW232286   4.355   3.707   0.045
10463SOL     OW32287   4.823   2.602   5.298
10463SOL    HW132288   4.819   2.557   5.387
10463SOL    HW232289   4.730   2.614   5.262
10464SOL     OW32290   6.342   4.799   1.952
10464SOL    HW132291   6.428   4.760   1.920
10464SOL    HW232292   6.267   4.764   1.896
10465SOL     OW32293   5.297   4.488   0.971
10465SOL    HW132294   5.215   4.449   1.012
10465SOL    HW232295   5.277   4.581   0.938
10466SOL     OW32296   6.037   3.929   5.546
10466SOL    HW132297   6.006   3.906   5.638
10466SOL    HW232298   6.012   3.856   5.482
10467SOL     OW32299   0.474   3.529   0.093
10467SOL    HW132300   0.390   3.479   0.115
10467SOL    HW232301   0.550   3.464   0.083
10468SOL     OW32302   1.422   4.045   3.870
10468SOL    HW132303   1.378   3.973   3.925
10468SOL    HW232304   1.352   4.103   3.829
10469SOL     OW32305   1.025   0.630   4.134
10469SOL    HW132306   0.937   0.595   4.165
10469SOL    HW232307   1.025   0.637   4.035
10470SOL     OW32308   2.597   3.846   1.668
10470SOL    HW132309   2.655   3.788   1.725
10470SOL    HW232310   2.525   3.886   1.724
10471SOL     OW32311   2.172   4.490   5.764
10471SOL    HW132312   2.221   4.573   5.787
10471SOL    HW232313   2.237   4.417   5.742
10472SOL     OW32314   3.950   5.000   5.923
10472SOL    HW132315   3.938   5.096   5.945
10472SOL    HW232316   4.021   4.961   5.981
10473SOL     OW32317   6.060   5.675   0.352
10473SOL    HW132318   6.016   5.713   0.433
10473SOL    HW232319   6.115   5.595   0.378
10474SOL     OW32320   6.286   5.907   4.996
10474SOL    HW132321   6.272   5.980   4.930
10474SOL    HW232322   6.211   5.841   4.989
10475SOL     OW32323   0.259   5.839   1.751
10475SOL    HW132324   0.214   5.819   1.838
10475SOL    HW232325   0.207   5.908   1.701
10476SOL     OW32326   4.976   6.601   1.463
10476SOL    HW132327   4.957   6.683   1.410
10476SOL    HW232328   4.998   6.626   1.557
10477SOL     OW32329   0.115   5.698   3.629
10477SOL    HW132330   0.030   5.706   3.577
10477SOL    HW232331   0.149   5.789   3.653
10478SOL     OW32332   6.664   0.707   0.013
10478SOL    HW132333   6.724   0.650   0.069
10478SOL    HW232334   6.619   0.650   6.965
10479SOL     OW32335   6.944   4.116   2.823
10479SOL    HW132336   6.903   4.026   2.807
10479SOL    HW232337   0.018   4.115   2.792
10480SOL     OW32338   2.686   0.835   3.044
10480SOL    HW132339   2.666   0.747   3.000
10480SOL    HW232340   2.712   0.819   3.139
10481SOL     OW32341   6.314   0.899   1.565
10481SOL    HW132342   6.302   0.917   1.663
10481SOL    HW232343   6.227   0.910   1.518
10482SOL     OW32344   4.891   4.150   4.183
10482SOL    HW132345   4.991   4.155   4.183
10482SOL    HW232346   4.863   4.063   4.225
10483SOL     OW32347   5.892   0.457   6.713
10483SOL    HW132348   5.916   0.412   6.799
10483SOL    HW232349   5.793   0.468   6.708
10484SOL     OW32350   6.151   0.387   1.811
10484SOL    HW132351   6.076   0.360   1.871
10484SOL    HW232352   6.154   0.487   1.803
10485SOL     OW32353   5.451   3.121   6.133
10485SOL    HW132354   5.540   3.153   6.101
10485SOL    HW232355   5.380   3.147   6.067
10486SOL     OW32356   5.979   3.034   2.366
10486SOL    HW132357   5.917   2.967   2.405
10486SOL    HW232358   6.064   3.036   2.419
10487SOL     OW32359   3.563   6.610   2.720
10487SOL    HW132360   3.598   6.533   2.668
10487SOL    HW232361   3.463   6.603   2.726
10488SOL     OW32362   4.127   4.198   6.605
10488SOL    HW132363   4.075   4.218   6.689
10488SOL    HW232364   4.081   4.240   6.527
10489SOL     OW32365   2.082   5.327   5.215
10489SOL    HW132366   2.146   5.292   5.283
10489SOL    HW232367   2.061   5.255   5.149
10490SOL     OW32368   6.314   6.863   4.866
10490SOL    HW132369   6.299   6.893   4.771
10490SOL    HW232370   6.294   6.765   4.873
10491SOL     OW32371   6.598   5.785   4.730
10491SOL    HW132372   6.637   5.694   4.716
10491SOL    HW232373   6.506   5.788   4.691
10492SOL     OW32374   5.256   3.969   5.591
10492SOL    HW132375   5.229   4.006   5.680
10492SOL    HW232376   5.290   3.876   5.604
10493SOL     OW32377   3.071   1.597   0.582
10493SOL    HW132378   3.125   1.564   0.659
10493SOL    HW232379   2.975   1.571   0.594
10494SOL     OW32380   5.293   1.290   5.211
10494SOL    HW132381   5.209   1.345   5.211
10494SOL    HW232382   5.298   1.237   5.296
10495SOL     OW32383   1.494   0.346   6.437
10495SOL    HW132384   1.477   0.372   6.532
10495SOL    HW232385   1.413   0.365   6.383
10496SOL     OW32386   6.760   6.808   5.426
10496SOL    HW132387   6.799   6.772   5.511
10496SOL    HW232388   6.687   6.747   5.395
10497SOL     OW32389   2.168   1.327   6.686
10497SOL    HW132390   2.145   1.420   6.715
10497SOL    HW232391   2.084   1.281   6.657
10498SOL     OW32392   3.158   5.233   5.567
10498SOL    HW132393   3.155   5.165   5.641
10498SOL    HW232394   3.122   5.320   5.601
10499SOL     OW32395   2.852   5.798   2.701
10499SOL    HW132396   2.760   5.765   2.683
10499SOL    HW232397   2.884   5.852   2.622
10500SOL     OW32398   2.415   1.846   0.073
10500SOL    HW132399   2.413   1.764   0.017
10500SOL    HW232400   2.409   1.820   0.170
10501SOL     OW32401   2.048   3.691   3.313
10501SOL    HW132402   2.042   3.692   3.413
10501SOL    HW232403   2.082   3.602   3.283
10502SOL     OW32404   3.202   6.253   4.748
10502SOL    HW132405   3.293   6.282   4.718
10502SOL    HW232406   3.189   6.278   4.843
10503SOL     OW32407   2.439   3.060   6.748
10503SOL    HW132408   2.445   2.963   6.772
10503SOL    HW232409   2.377   3.071   6.670
10504SOL     OW32410   2.144   3.633   0.628
10504SOL    HW132411   2.175   3.567   0.560
10504SOL    HW232412   2.077   3.589   0.688
10505SOL     OW32413   0.604   6.048   6.996
10505SOL    HW132414   0.623   6.030   6.899
10505SOL    HW232415   0.523   5.998   0.003
10506SOL     OW32416   6.868   5.060   5.716
10506SOL    HW132417   6.822   5.061   5.805
10506SOL    HW232418   6.915   4.973   5.704
10507SOL     OW32419   2.928   0.765   3.288
10507SOL    HW132420   2.888   0.673   3.290
10507SOL    HW232421   2.964   0.784   3.197
10508SOL     OW32422   5.715   5.018   2.881
10508SOL    HW132423   5.754   5.012   2.790
10508SOL    HW232424   5.740   5.105   2.923
10509SOL     OW32425   2.370   1.157   5.378
10509SOL    HW132426   2.443   1.114   5.325
10509SOL    HW232427   2.353   1.249   5.343
10510SOL     OW32428   5.608   0.415   6.603
10510SOL    HW132429   5.513   0.437   6.626
10510SOL    HW232430   5.624   0.435   6.506
10511SOL     OW32431   6.923   2.548   2.079
10511SOL    HW132432   6.853   2.619   2.069
10511SOL    HW232433   7.014   2.590   2.070
10512SOL     OW32434   2.238   0.068   6.448
10512SOL    HW132435   2.152   0.074   6.500
10512SOL    HW232436   2.280   0.159   6.444
10513SOL     OW32437   0.266   2.532   0.673
10513SOL    HW132438   0.336   2.581   0.725
10513SOL    HW232439   0.205   2.485   0.736
10514SOL     OW32440   1.478   3.089   1.563
10514SOL    HW132441   1.402   3.025   1.568
10514SOL    HW232442   1.455   3.162   1.497
10515SOL     OW32443   0.266   3.157   4.987
10515SOL    HW132444   0.226   3.072   5.024
10515SOL    HW232445   0.335   3.135   4.919
10516SOL     OW32446   2.453   7.007   0.910
10516SOL    HW132447   2.438   6.957   0.824
10516SOL    HW232448   2.429   0.083   0.896
10517SOL     OW32449   0.645   2.399   3.462
10517SOL    HW132450   0.714   2.389   3.534
10517SOL    HW232451   0.560   2.432   3.503
10518SOL     OW32452   0.570   6.209   3.265
10518SOL    HW132453   0.566   6.307   3.281
10518SOL    HW232454   0.631   6.166   3.333
10519SOL     OW32455   4.385   2.704   5.792
10519SOL    HW132456   4.344   2.620   5.826
10519SOL    HW232457   4.463   2.729   5.849
10520SOL     OW32458   2.820   5.051   6.315
10520SOL    HW132459   2.862   5.107   6.244
10520SOL    HW232460   2.846   5.086   6.405
10521SOL     OW32461   6.495   5.514   2.068
10521SOL    HW132462   6.529   5.465   1.988
10521SOL    HW232463   6.445   5.596   2.038
10522SOL     OW32464   6.467   0.008   2.520
10522SOL    HW132465   6.406   6.971   2.573
10522SOL    HW232466   6.467   0.101   2.558
10523SOL     OW32467   5.860   6.343   6.357
10523SOL    HW132468   5.926   6.412   6.329
10523SOL    HW232469   5.896   6.291   6.435
10524SOL     OW32470   4.592   0.927   4.950
10524SOL    HW132471   4.624   1.010   4.904
10524SOL    HW232472   4.525   0.880   4.892
10525SOL     OW32473   2.569   7.003   4.956
10525SOL    HW132474   2.564   0.081   4.969
10525SOL    HW232475   2.487   6.971   4.909
10526SOL     OW32476   4.326   5.978   2.786
10526SOL    HW132477   4.389   5.920   2.733
10526SOL    HW232478   4.317   5.941   2.878
10527SOL     OW32479   2.093   2.628   4.050
10527SOL    HW132480   2.052   2.683   4.123
10527SOL    HW232481   2.191   2.649   4.043
10528SOL     OW32482   6.054   4.787   6.085
10528SOL    HW132483   6.054   4.827   6.177
10528SOL    HW232484   5.976   4.823   6.033
10529SOL     OW32485   0.060   5.606   5.018
10529SOL    HW132486   0.078   5.686   4.959
10529SOL    HW232487   0.063   5.523   4.962
10530SOL     OW32488   1.506   2.072   5.107
10530SOL    HW132489   1.473   2.110   5.021
10530SOL    HW232490   1.510   1.973   5.101
10531SOL     OW32491   2.437   2.455   4.467
10531SOL    HW132492   2.394   2.534   4.424
10531SOL    HW232493   2.390   2.434   4.553
10532SOL     OW32494   3.259   3.379   4.362
10532SOL    HW132495   3.281   3.331   4.277
10532SOL    HW232496   3.339   3.377   4.422
10533SOL     OW32497   3.686   0.718   6.231
10533SOL    HW132498   3.777   0.754   6.209
10533SOL    HW232499   3.678   0.624   6.199
10534SOL     OW32500   5.833   4.454   1.501
10534SOL    HW132501   5.826   4.494   1.410
10534SOL    HW232502   5.743   4.423   1.531
10535SOL     OW32503   7.017   1.139   1.768
10535SOL    HW132504   0.069   1.095   1.819
10535SOL    HW232505   7.008   1.235   1.797
10536SOL     OW32506   5.843   5.777   3.349
10536SOL    HW132507   5.888   5.711   3.288
10536SOL    HW232508   5.790   5.728   3.418
10537SOL     OW32509   6.268   5.525   1.739
10537SOL    HW132510   6.232   5.589   1.670
10537SOL    HW232511   6.362   5.549   1.761
10538SOL     OW32512   4.307   3.186   6.945
10538SOL    HW132513   4.330   3.272   6.899
10538SOL    HW232514   4.382   3.159   7.006
10539SOL     OW32515   1.145   3.153   4.838
10539SOL    HW132516   1.057   3.107   4.849
10539SOL    HW232517   1.136   3.249   4.862
10540SOL     OW32518   3.743   0.794   0.345
10540SOL    HW132519   3.647   0.820   0.339
10540SOL    HW232520   3.751   0.700   0.376
10541SOL     OW32521   3.356   2.597   1.665
10541SOL    HW132522   3.265   2.603   1.705
10541SOL    HW232523   3.367   2.509   1.620
10542SOL     OW32524   1.755   2.198   0.525
10542SOL    HW132525   1.722   2.277   0.474
10542SOL    HW232526   1.692   2.121   0.511
10543SOL     OW32527   2.660   0.573   4.381
10543SOL    HW132528   2.610   0.510   4.441
10543SOL    HW232529   2.706   0.520   4.309
10544SOL     OW32530   0.446   2.235   1.337
10544SOL    HW132531   0.365   2.193   1.297
10544SOL    HW232532   0.438   2.334   1.332
10545SOL     OW32533   4.289   1.440   2.936
10545SOL    HW132534   4.324   1.382   2.863
10545SOL    HW232535   4.202   1.481   2.908
10546SOL     OW32536   4.901   0.809   5.549
10546SOL    HW132537   4.949   0.726   5.523
10546SOL    HW232538   4.821   0.822   5.490
10547SOL     OW32539   4.655   6.169   1.699
10547SOL    HW132540   4.742   6.216   1.689
10547SOL    HW232541   4.580   6.232   1.677
10548SOL     OW32542   4.649   3.958   5.257
10548SOL    HW132543   4.744   3.960   5.289
10548SOL    HW232544   4.615   4.052   5.251
10549SOL     OW32545   0.808   1.624   1.640
10549SOL    HW132546   0.723   1.578   1.666
10549SOL    HW232547   0.874   1.555   1.609
10550SOL     OW32548   4.501   6.969   4.928
10550SOL    HW132549   4.527   0.043   4.945
10550SOL    HW232550   4.574   6.908   4.959
10551SOL     OW32551   1.589   2.902   6.087
10551SOL    HW132552   1.652   2.828   6.061
10551SOL    HW232553   1.526   2.868   6.157
10552SOL     OW32554   3.426   1.502   5.267
10552SOL    HW132555   3.444   1.483   5.363
10552SOL    HW232556   3.426   1.416   5.215
10553SOL     OW32557   2.459   5.226   6.481
10553SOL    HW132558   2.543   5.275   6.508
10553SOL    HW232559   2.475   5.128   6.488
10554SOL     OW32560   6.042   3.352   6.068
10554SOL    HW132561   6.104   3.377   5.993
10554SOL    HW232562   5.981   3.279   6.037
10555SOL     OW32563   3.395   2.818   1.507
10555SOL    HW132564   3.365   2.775   1.592
10555SOL    HW232565   3.328   2.800   1.435
10556SOL     OW32566   1.407   4.395   3.809
10556SOL    HW132567   1.322   4.343   3.813
10556SOL    HW232568   1.463   4.361   3.734
10557SOL     OW32569   5.523   1.457   3.192
10557SOL    HW132570   5.487   1.530   3.135
10557SOL    HW232571   5.459   1.380   3.191
10558SOL     OW32572   5.861   5.655   5.536
10558SOL    HW132573   5.883   5.717   5.612
10558SOL    HW232574   5.934   5.659   5.468
10559SOL     OW32575   4.247   2.782   0.900
10559SOL    HW132576   4.202   2.714   0.958
10559SOL    HW232577   4.182   2.856   0.879
10560SOL     OW32578   6.595   2.259   4.420
10560SOL    HW132579   6.686   2.217   4.411
10560SOL    HW232580   6.529   2.188   4.445
10561SOL     OW32581   2.165   3.827   6.684
10561SOL    HW132582   2.127   3.896   6.622
10561SOL    HW232583   2.262   3.814   6.665
10562SOL     OW32584   4.150   1.669   0.555
10562SOL    HW132585   4.055   1.642   0.538
10562SOL    HW232586   4.151   1.748   0.615
10563SOL     OW32587   1.427   2.487   2.818
10563SOL    HW132588   1.497   2.554   2.843
10563SOL    HW232589   1.384   2.514   2.731
10564SOL     OW32590   0.014   1.894   2.522
10564SOL    HW132591   0.034   1.798   2.539
10564SOL    HW232592   0.100   1.945   2.518
10565SOL     OW32593   5.196   1.608   4.670
10565SOL    HW132594   5.101   1.608   4.640
10565SOL    HW232595   5.209   1.537   4.740
10566SOL     OW32596   5.107   5.281   6.795
10566SOL    HW132597   5.022   5.250   6.752
10566SOL    HW232598   5.181   5.275   6.729
10567SOL     OW32599   2.600   5.692   4.810
10567SOL    HW132600   2.515   5.669   4.764
10567SOL    HW232601   2.676   5.647   4.765
10568SOL     OW32602   3.421   1.226   3.307
10568SOL    HW132603   3.360   1.264   3.237
10568SOL    HW232604   3.407   1.275   3.393
10569SOL     OW32605   6.824   2.202   3.784
10569SOL    HW132606   6.768   2.145   3.845
10569SOL    HW232607   6.791   2.296   3.787
10570SOL     OW32608   0.991   3.978   0.948
10570SOL    HW132609   0.908   4.030   0.964
10570SOL    HW232610   0.995   3.948   0.853
10571SOL     OW32611   6.714   6.735   4.714
10571SOL    HW132612   6.791   6.673   4.698
10571SOL    HW232613   6.706   6.799   4.638
10572SOL     OW32614   6.491   3.914   1.740
10572SOL    HW132615   6.561   3.957   1.797
10572SOL    HW232616   6.519   3.919   1.644
10573SOL     OW32617   6.344   5.553   5.473
10573SOL    HW132618   6.269   5.496   5.439
10573SOL    HW232619   6.399   5.500   5.537
10574SOL     OW32620   0.990   2.057   2.697
10574SOL    HW132621   1.013   1.991   2.625
10574SOL    HW232622   1.058   2.131   2.695
10575SOL     OW32623   7.006   6.715   6.355
10575SOL    HW132624   6.907   6.730   6.356
10575SOL    HW232625   0.022   6.737   6.445
10576SOL     OW32626   0.874   5.696   3.315
10576SOL    HW132627   0.783   5.730   3.290
10576SOL    HW232628   0.918   5.762   3.376
10577SOL     OW32629   0.266   2.514   6.010
10577SOL    HW132630   0.271   2.613   5.994
10577SOL    HW232631   0.247   2.468   5.923
10578SOL     OW32632   5.034   0.546   5.432
10578SOL    HW132633   5.115   0.575   5.382
10578SOL    HW232634   4.963   0.519   5.367
10579SOL     OW32635   5.773   6.833   0.840
10579SOL    HW132636   5.741   6.919   0.800
10579SOL    HW232637   5.695   6.774   0.862
10580SOL     OW32638   0.785   5.553   0.306
10580SOL    HW132639   0.695   5.568   0.265
10580SOL    HW232640   0.773   5.528   0.402
10581SOL     OW32641   4.207   2.279   2.891
10581SOL    HW132642   4.200   2.297   2.793
10581SOL    HW232643   4.302   2.256   2.913
10582SOL     OW32644   3.605   4.228   6.774
10582SOL    HW132645   3.660   4.160   6.725
10582SOL    HW232646   3.509   4.216   6.750
10583SOL     OW32647   4.627   1.056   0.985
10583SOL    HW132648   4.636   0.966   0.942
10583SOL    HW232649   4.539   1.062   1.032
10584SOL     OW32650   5.710   6.644   1.502
10584SOL    HW132651   5.763   6.695   1.433
10584SOL    HW232652   5.668   6.564   1.460
10585SOL     OW32653   2.864   4.439   6.666
10585SOL    HW132654   2.770   4.408   6.684
10585SOL    HW232655   2.903   4.476   6.749
10586SOL     OW32656   4.673   2.195   1.499
10586SOL    HW132657   4.594   2.230   1.449
10586SOL    HW232658   4.647   2.111   1.547
10587SOL     OW32659   7.010   3.122   0.495
10587SOL    HW132660   6.991   3.208   0.541
10587SOL    HW232661   6.995   3.046   0.559
10588SOL     OW32662   1.564   4.989   3.449
10588SOL    HW132663   1.629   4.913   3.460
10588SOL    HW232664   1.538   5.024   3.538
10589SOL     OW32665   5.930   0.772   4.508
10589SOL    HW132666   5.994   0.762   4.432
10589SOL    HW232667   5.876   0.689   4.517
10590SOL     OW32668   1.643   0.293   5.047
10590SOL    HW132669   1.593   0.297   4.960
10590SOL    HW232670   1.650   0.198   5.076
10591SOL     OW32671   1.639   2.151   1.766
10591SOL    HW132672   1.646   2.170   1.668
10591SOL    HW232673   1.551   2.107   1.785
10592SOL     OW32674   5.423   1.145   6.303
10592SOL    HW132675   5.350   1.182   6.245
10592SOL    HW232676   5.393   1.058   6.343
10593SOL     OW32677   1.681   3.828   2.161
10593SOL    HW132678   1.690   3.784   2.071
10593SOL    HW232679   1.645   3.761   2.226
10594SOL     OW32680   1.105   1.482   4.543
10594SOL    HW132681   1.064   1.399   4.505
10594SOL    HW232682   1.073   1.562   4.491
10595SOL     OW32683   1.938   5.818   4.809
10595SOL    HW132684   1.858   5.796   4.865
10595SOL    HW232685   2.022   5.797   4.860
10596SOL     OW32686   2.715   1.122   1.559
10596SOL    HW132687   2.813   1.102   1.552
10596SOL    HW232688   2.663   1.053   1.508
10597SOL     OW32689   1.345   0.976   3.916
10597SOL    HW132690   1.331   0.903   3.983
10597SOL    HW232691   1.313   1.063   3.953
10598SOL     OW32692   2.452   0.905   0.790
10598SOL    HW132693   2.492   0.840   0.855
10598SOL    HW232694   2.426   0.857   0.706
10599SOL     OW32695   4.765   0.368   6.293
10599SOL    HW132696   4.762   0.388   6.195
10599SOL    HW232697   4.815   0.283   6.308
10600SOL     OW32698   1.903   3.169   4.931
10600SOL    HW132699   1.998   3.178   4.961
10600SOL    HW232700   1.856   3.256   4.941
10601SOL     OW32701   3.953   6.053   5.575
10601SOL    HW132702   3.936   5.995   5.655
10601SOL    HW232703   3.962   6.148   5.603
10602SOL     OW32704   4.540   2.273   1.835
10602SOL    HW132705   4.444   2.300   1.832
10602SOL    HW232706   4.547   2.181   1.874
10603SOL     OW32707   0.509   5.460   4.862
10603SOL    HW132708   0.445   5.382   4.862
10603SOL    HW232709   0.494   5.515   4.944
10604SOL     OW32710   0.496   4.098   6.176
10604SOL    HW132711   0.544   4.186   6.170
10604SOL    HW232712   0.400   4.110   6.153
10605SOL     OW32713   0.971   5.381   6.372
10605SOL    HW132714   0.977   5.392   6.471
10605SOL    HW232715   1.045   5.322   6.340
10606SOL     OW32716   1.038   1.080   2.099
10606SOL    HW132717   1.107   1.010   2.116
10606SOL    HW232718   1.081   1.170   2.102
10607SOL     OW32719   5.845   3.482   6.514
10607SOL    HW132720   5.842   3.382   6.510
10607SOL    HW232721   5.915   3.515   6.450
10608SOL     OW32722   5.618   6.199   2.483
10608SOL    HW132723   5.600   6.284   2.532
10608SOL    HW232724   5.572   6.123   2.530
10609SOL     OW32725   4.096   6.388   2.615
10609SOL    HW132726   4.126   6.436   2.533
10609SOL    HW232727   4.175   6.348   2.662
10610SOL     OW32728   2.118   4.770   4.873
10610SOL    HW132729   2.188   4.837   4.849
10610SOL    HW232730   2.069   4.800   4.955
10611SOL     OW32731   4.879   2.105   5.702
10611SOL    HW132732   4.927   2.142   5.782
10611SOL    HW232733   4.807   2.168   5.674
10612SOL     OW32734   2.446   0.415   1.832
10612SOL    HW132735   2.359   0.455   1.858
10612SOL    HW232736   2.476   0.452   1.744
10613SOL     OW32737   0.842   6.261   0.239
10613SOL    HW132738   0.837   6.305   0.150
10613SOL    HW232739   0.801   6.170   0.234
10614SOL     OW32740   0.368   1.029   2.605
10614SOL    HW132741   0.449   1.020   2.548
10614SOL    HW232742   0.287   1.001   2.554
10615SOL     OW32743   0.172   6.720   5.287
10615SOL    HW132744   0.261   6.689   5.253
10615SOL    HW232745   0.167   6.819   5.280
10616SOL     OW32746   3.711   5.646   1.576
10616SOL    HW132747   3.626   5.626   1.624
10616SOL    HW232748   3.691   5.659   1.479
10617SOL     OW32749   6.552   1.937   6.635
10617SOL    HW132750   6.559   1.865   6.704
10617SOL    HW232751   6.546   2.026   6.679
10618SOL     OW32752   6.393   3.800   0.691
10618SOL    HW132753   6.475   3.804   0.633
10618SOL    HW232754   6.413   3.840   0.780
10619SOL     OW32755   0.036   3.355   3.341
10619SOL    HW132756   0.129   3.393   3.340
10619SOL    HW232757   0.030   3.285   3.412
10620SOL     OW32758   1.525   5.244   4.041
10620SOL    HW132759   1.536   5.312   3.969
10620SOL    HW232760   1.500   5.156   4.000
10621SOL     OW32761   3.463   0.068   1.139
10621SOL    HW132762   3.478   0.162   1.171
10621SOL    HW232763   3.463   0.006   1.217
10622SOL     OW32764   3.844   1.724   0.518
10622SOL    HW132765   3.822   1.785   0.594
10622SOL    HW232766   3.832   1.774   0.432
10623SOL     OW32767   0.557   1.597   4.781
10623SOL    HW132768   0.593   1.638   4.697
10623SOL    HW232769   0.492   1.525   4.758
10624SOL     OW32770   2.438   1.474   4.402
10624SOL    HW132771   2.418   1.397   4.341
10624SOL    HW232772   2.488   1.544   4.353
10625SOL     OW32773   1.067   3.012   0.791
10625SOL    HW132774   1.158   3.003   0.831
10625SOL    HW232775   1.002   3.038   0.862
10626SOL     OW32776   0.489   2.071   2.955
10626SOL    HW132777   0.557   2.140   2.983
10626SOL    HW232778   0.424   2.113   2.892
10627SOL     OW32779   4.131   5.731   4.604
10627SOL    HW132780   4.081   5.694   4.526
10627SOL    HW232781   4.148   5.658   4.671
10628SOL     OW32782   6.934   6.562   5.170
10628SOL    HW132783   6.881   6.535   5.250
10628SOL    HW232784   0.004   6.591   5.197
10629SOL     OW32785   2.803   4.021   6.521
10629SOL    HW132786   2.783   3.925   6.542
10629SOL    HW232787   2.766   4.079   6.594
10630SOL     OW32788   5.576   1.497   1.570
10630SOL    HW132789   5.487   1.543   1.576
10630SOL    HW232790   5.569   1.406   1.610
10631SOL     OW32791   1.419   7.015   4.556
10631SOL    HW132792   1.454   6.954   4.486
10631SOL    HW232793   1.398   6.963   4.639
10632SOL     OW32794   6.972   2.776   0.276
10632SOL    HW132795   6.964   2.682   0.245
10632SOL    HW232796   6.896   2.830   0.241
10633SOL     OW32797   1.448   5.203   6.705
10633SOL    HW132798   1.403   5.282   6.746
10633SOL    HW232799   1.529   5.179   6.759
10634SOL     OW32800   3.516   6.963   2.161
10634SOL    HW132801   3.477   0.033   2.180
10634SOL    HW232802   3.578   6.937   2.235
10635SOL     OW32803   1.171   0.492   1.343
10635SOL    HW132804   1.235   0.469   1.416
10635SOL    HW232805   1.221   0.515   1.259
10636SOL     OW32806   5.121   1.811   0.014
10636SOL    HW132807   5.173   1.739   0.058
10636SOL    HW232808   5.178   1.892   0.003
10637SOL     OW32809   3.147   3.718   6.449
10637SOL    HW132810   3.124   3.701   6.353
10637SOL    HW232811   3.089   3.661   6.507
10638SOL     OW32812   6.422   0.898   5.949
10638SOL    HW132813   6.436   0.830   6.020
10638SOL    HW232814   6.332   0.941   5.960
10639SOL     OW32815   3.717   2.117   5.096
10639SOL    HW132816   3.689   2.139   5.002
10639SOL    HW232817   3.690   2.023   5.118
10640SOL     OW32818   4.443   6.627   0.465
10640SOL    HW132819   4.489   6.660   0.382
10640SOL    HW232820   4.469   6.685   0.543
10641SOL     OW32821   3.405   6.706   6.854
10641SOL    HW132822   3.437   6.701   6.948
10641SOL    HW232823   3.339   6.633   6.837
10642SOL     OW32824   0.862   5.921   1.639
10642SOL    HW132825   0.912   5.958   1.560
10642SOL    HW232826   0.867   5.986   1.715
10643SOL     OW32827   3.349   3.623   5.786
10643SOL    HW132828   3.365   3.710   5.740
10643SOL    HW232829   3.264   3.583   5.754
10644SOL     OW32830   4.000   1.350   5.949
10644SOL    HW132831   4.006   1.367   5.850
10644SOL    HW232832   3.919   1.396   5.985
10645SOL     OW32833   2.204   0.440   4.225
10645SOL    HW132834   2.110   0.474   4.223
10645SOL    HW232835   2.203   0.340   4.222
10646SOL     OW32836   6.799   5.019   6.546
10646SOL    HW132837   6.841   5.079   6.614
10646SOL    HW232838   6.863   4.946   6.522
10647SOL     OW32839   6.857   5.823   1.010
10647SOL    HW132840   6.938   5.878   1.030
10647SOL    HW232841   6.879   5.753   0.943
10648SOL     OW32842   4.944   3.892   5.992
10648SOL    HW132843   4.925   3.795   5.975
10648SOL    HW232844   4.994   3.902   6.078
10649SOL     OW32845   6.983   4.836   6.455
10649SOL    HW132846   6.920   4.759   6.445
10649SOL    HW232847   0.035   4.810   6.519
10650SOL     OW32848   2.176   6.896   5.793
10650SOL    HW132849   2.235   6.816   5.792
10650SOL    HW232850   2.081   6.868   5.778
10651SOL     OW32851   1.551   0.909   5.100
10651SOL    HW132852   1.562   0.990   5.156
10651SOL    HW232853   1.629   0.899   5.039
10652SOL     OW32854   4.803   0.644   0.480
10652SOL    HW132855   4.778   0.604   0.569
10652SOL    HW232856   4.817   0.570   0.414
10653SOL     OW32857   6.289   3.835   4.622
10653SOL    HW132858   6.197   3.813   4.591
10653SOL    HW232859   6.348   3.850   4.543
10654SOL     OW32860   4.704   0.355   1.401
10654SOL    HW132861   4.735   0.437   1.448
10654SOL    HW232862   4.690   0.375   1.304
10655SOL     OW32863   2.440   5.929   1.169
10655SOL    HW132864   2.508   5.996   1.200
10655SOL    HW232865   2.377   5.974   1.106
10656SOL     OW32866   6.638   2.931   6.354
10656SOL    HW132867   6.713   2.866   6.343
10656SOL    HW232868   6.580   2.904   6.430
10657SOL     OW32869   6.154   0.225   0.628
10657SOL    HW132870   6.069   0.223   0.681
10657SOL    HW232871   6.168   0.137   0.583
10658SOL     OW32872   6.915   6.087   3.616
10658SOL    HW132873   6.964   6.172   3.600
10658SOL    HW232874   6.827   6.106   3.660
10659SOL     OW32875   5.146   1.137   1.578
10659SOL    HW132876   5.124   1.039   1.588
10659SOL    HW232877   5.087   1.177   1.508
10660SOL     OW32878   4.856   4.899   5.561
10660SOL    HW132879   4.863   4.946   5.473
10660SOL    HW232880   4.761   4.872   5.576
10661SOL     OW32881   7.013   1.437   1.748
10661SOL    HW132882   7.020   1.516   1.808
10661SOL    HW232883   6.917   1.418   1.729
10662SOL     OW32884   0.483   2.041   0.829
10662SOL    HW132885   0.420   2.084   0.764
10662SOL    HW232886   0.577   2.067   0.808
10663SOL     OW32887   0.936   2.448   1.689
10663SOL    HW132888   0.951   2.536   1.645
10663SOL    HW232889   0.852   2.453   1.744
10664SOL     OW32890   2.238   5.550   6.160
10664SOL    HW132891   2.256   5.605   6.242
10664SOL    HW232892   2.293   5.585   6.084
10665SOL     OW32893   5.576   1.941   6.955
10665SOL    HW132894   5.579   2.039   6.937
10665SOL    HW232895   5.481   1.913   6.970
10666SOL     OW32896   0.247   6.698   0.407
10666SOL    HW132897   0.174   6.766   0.414
10666SOL    HW232898   0.282   6.695   0.313
10667SOL     OW32899   3.124   2.037   5.765
10667SOL    HW132900   3.066   1.962   5.734
10667SOL    HW232901   3.168   2.080   5.687
10668SOL     OW32902   1.269   0.425   6.297
10668SOL    HW132903   1.172   0.402   6.305
10668SOL    HW232904   1.279   0.512   6.248
10669SOL     OW32905   2.097   5.803   6.672
10669SOL    HW132906   2.189   5.776   6.700
10669SOL    HW232907   2.100   5.846   6.582
10670SOL     OW32908   5.849   4.399   4.961
10670SOL    HW132909   5.903   4.333   4.909
10670SOL    HW232910   5.808   4.466   4.898
10671SOL     OW32911   2.211   2.996   3.335
10671SOL    HW132912   2.276   3.072   3.337
10671SOL    HW232913   2.250   2.918   3.383
10672SOL     OW32914   6.974   2.506   0.474
10672SOL    HW132915   0.031   2.565   0.453
10672SOL    HW232916   6.987   2.417   0.430
10673SOL     OW32917   3.504   4.126   3.914
10673SOL    HW132918   3.533   4.031   3.918
10673SOL    HW232919   3.412   4.134   3.953
10674SOL     OW32920   4.320   1.607   2.491
10674SOL    HW132921   4.227   1.582   2.516
10674SOL    HW232922   4.384   1.545   2.536
10675SOL     OW32923   1.244   1.750   5.645
10675SOL    HW132924   1.256   1.799   5.732
10675SOL    HW232925   1.332   1.746   5.597
10676SOL     OW32926   6.229   0.605   6.972
10676SOL    HW132927   6.137   0.635   6.997
10676SOL    HW232928   6.293   0.627   0.025
10677SOL     OW32929   5.240   1.238   7.014
10677SOL    HW132930   5.195   1.272   0.076
10677SOL    HW232931   5.316   1.178   0.019
10678SOL     OW32932   1.683   5.405   3.615
10678SOL    HW132933   1.660   5.489   3.566
10678SOL    HW232934   1.702   5.332   3.549
10679SOL     OW32935   5.820   5.381   3.855
10679SOL    HW132936   5.813   5.441   3.775
10679SOL    HW232937   5.728   5.355   3.885
10680SOL     OW32938   0.239   2.808   3.869
10680SOL    HW132939   0.251   2.823   3.968
10680SOL    HW232940   0.329   2.797   3.826
10681SOL     OW32941   0.805   3.140   0.192
10681SOL    HW132942   0.773   3.201   0.265
10681SOL    HW232943   0.883   3.087   0.225
10682SOL     OW32944   6.611   2.044   3.879
10682SOL    HW132945   6.521   2.077   3.849
10682SOL    HW232946   6.603   1.950   3.912
10683SOL     OW32947   0.415   0.228   4.203
10683SOL    HW132948   0.453   0.320   4.198
10683SOL    HW232949   0.316   0.233   4.218
10684SOL     OW32950   5.284   5.720   0.503
10684SOL    HW132951   5.195   5.699   0.543
10684SOL    HW232952   5.350   5.740   0.576
10685SOL     OW32953   6.560   2.384   3.285
10685SOL    HW132954   6.522   2.412   3.197
10685SOL    HW232955   6.553   2.285   3.294
10686SOL     OW32956   4.950   4.199   1.442
10686SOL    HW132957   5.010   4.181   1.520
10686SOL    HW232958   4.856   4.211   1.475
10687SOL     OW32959   0.109   5.343   1.053
10687SOL    HW132960   0.198   5.346   1.098
10687SOL    HW232961   0.111   5.398   0.970
10688SOL     OW32962   1.155   4.548   0.744
10688SOL    HW132963   1.245   4.565   0.784
10688SOL    HW232964   1.148   4.597   0.657
10689SOL     OW32965   0.294   0.345   1.409
10689SOL    HW132966   0.341   0.413   1.354
10689SOL    HW232967   0.200   0.374   1.425
10690SOL     OW32968   3.655   0.327   3.232
10690SOL    HW132969   3.690   0.236   3.253
10690SOL    HW232970   3.584   0.352   3.297
10691SOL     OW32971   5.759   1.370   1.422
10691SOL    HW132972   5.857   1.375   1.444
10691SOL    HW232973   5.708   1.425   1.487
10692SOL     OW32974   5.654   6.329   3.654
10692SOL    HW132975   5.624   6.330   3.749
10692SOL    HW232976   5.722   6.257   3.641
10693SOL     OW32977   4.738   2.377   4.262
10693SOL    HW132978   4.838   2.376   4.269
10693SOL    HW232979   4.711   2.379   4.166
10694SOL     OW32980   2.541   6.046   0.117
10694SOL    HW132981   2.570   6.066   0.211
10694SOL    HW232982   2.616   6.066   0.054
10695SOL     OW32983   6.045   2.934   5.683
10695SOL    HW132984   6.082   2.861   5.740
10695SOL    HW232985   6.044   2.903   5.587
10696SOL     OW32986   6.390   0.337   0.707
10696SOL    HW132987   6.304   0.303   0.669
10696SOL    HW232988   6.417   0.421   0.659
10697SOL     OW32989   2.666   6.041   2.828
10697SOL    HW132990   2.742   5.976   2.825
10697SOL    HW232991   2.639   6.065   2.734
10698SOL     OW32992   3.833   0.045   3.927
10698SOL    HW132993   3.752   0.062   3.983
10698SOL    HW232994   3.823   6.979   3.879
10699SOL     OW32995   0.338   3.432   3.407
10699SOL    HW132996   0.402   3.358   3.427
10699SOL    HW232997   0.356   3.509   3.468
10700SOL     OW32998   1.037   3.255   2.699
10700SOL    HW132999   0.964   3.202   2.655
10700SOL    HW233000   1.120   3.199   2.704
10701SOL     OW33001   2.767   6.781   1.332
10701SOL    HW133002   2.755   6.813   1.237
10701SOL    HW233003   2.789   6.859   1.390
10702SOL     OW33004   4.833   2.265   0.607
10702SOL    HW133005   4.894   2.227   0.537
10702SOL    HW233006   4.888   2.303   0.682
10703SOL     OW33007   3.795   3.748   4.079
10703SOL    HW133008   3.816   3.656   4.111
10703SOL    HW233009   3.871   3.809   4.104
10704SOL     OW33010   5.379   5.635   1.542
10704SOL    HW133011   5.407   5.553   1.493
10704SOL    HW233012   5.442   5.710   1.521
10705SOL     OW33013   1.217   3.064   6.787
10705SOL    HW133014   1.136   3.116   6.761
10705SOL    HW233015   1.198   2.966   6.781
10706SOL     OW33016   3.132   3.728   0.546
10706SOL    HW133017   3.131   3.692   0.639
10706SOL    HW233018   3.151   3.827   0.549
10707SOL     OW33019   6.078   0.282   6.454
10707SOL    HW133020   6.085   0.382   6.445
10707SOL    HW233021   6.134   0.238   6.384
10708SOL     OW33022   4.596   2.520   1.186
10708SOL    HW133023   4.625   2.606   1.145
10708SOL    HW233024   4.611   2.524   1.285
10709SOL     OW33025   0.843   1.163   6.566
10709SOL    HW133026   0.856   1.065   6.574
10709SOL    HW233027   0.931   1.206   6.544
10710SOL     OW33028   6.942   6.930   3.361
10710SOL    HW133029   7.019   6.966   3.414
10710SOL    HW233030   6.977   6.869   3.290
10711SOL     OW33031   1.796   4.097   5.540
10711SOL    HW133032   1.707   4.078   5.580
10711SOL    HW233033   1.859   4.022   5.559
10712SOL     OW33034   3.594   1.806   6.127
10712SOL    HW133035   3.586   1.853   6.215
10712SOL    HW233036   3.539   1.723   6.128
10713SOL     OW33037   2.899   0.149   0.137
10713SOL    HW133038   2.852   0.085   0.198
10713SOL    HW233039   2.947   0.098   0.065
10714SOL     OW33040   5.010   5.433   4.663
10714SOL    HW133041   4.918   5.414   4.697
10714SOL    HW233042   5.034   5.368   4.591
10715SOL     OW33043   5.672   0.031   2.627
10715SOL    HW133044   5.599   6.988   2.605
10715SOL    HW233045   5.725   7.018   2.705
10716SOL     OW33046   0.074   1.881   2.156
10716SOL    HW133047   0.154   1.822   2.143
10716SOL    HW233048   0.002   1.830   2.203
10717SOL     OW33049   0.719   6.777   1.595
10717SOL    HW133050   0.703   6.868   1.632
10717SOL    HW233051   0.720   6.781   1.495
10718SOL     OW33052   6.627   4.900   5.389
10718SOL    HW133053   6.648   4.997   5.403
10718SOL    HW233054   6.544   4.876   5.439
10719SOL     OW33055   3.303   6.445   3.605
10719SOL    HW133056   3.286   6.361   3.657
10719SOL    HW233057   3.400   6.468   3.609
10720SOL     OW33058   0.651   2.997   5.883
10720SOL    HW133059   0.662   3.093   5.907
10720SOL    HW233060   0.726   2.944   5.922
10721SOL     OW33061   5.545   1.460   4.029
10721SOL    HW133062   5.597   1.544   4.044
10721SOL    HW233063   5.489   1.440   4.109
10722SOL     OW33064   0.908   5.271   0.690
10722SOL    HW133065   0.879   5.253   0.596
10722SOL    HW233066   0.991   5.219   0.710
10723SOL     OW33067   0.402   3.777   6.025
10723SOL    HW133068   0.343   3.756   6.102
10723SOL    HW233069   0.494   3.797   6.058
10724SOL     OW33070   3.827   6.378   5.919
10724SOL    HW133071   3.798   6.337   6.006
10724SOL    HW233072   3.747   6.395   5.862
10725SOL     OW33073   0.113   0.223   5.369
10725SOL    HW133074   0.093   0.242   5.272
10725SOL    HW233075   0.061   0.143   5.398
10726SOL     OW33076   6.640   0.697   3.524
10726SOL    HW133077   6.687   0.744   3.599
10726SOL    HW233078   6.562   0.645   3.560
10727SOL     OW33079   5.128   5.801   6.339
10727SOL    HW133080   5.067   5.735   6.297
10727SOL    HW233081   5.133   5.784   6.438
10728SOL     OW33082   5.536   5.804   4.399
10728SOL    HW133083   5.558   5.780   4.304
10728SOL    HW233084   5.441   5.835   4.404
10729SOL     OW33085   6.761   3.260   4.195
10729SOL    HW133086   6.699   3.277   4.272
10729SOL    HW233087   6.771   3.162   4.182
10730SOL     OW33088   1.588   6.582   4.377
10730SOL    HW133089   1.516   6.522   4.342
10730SOL    HW233090   1.675   6.534   4.377
10731SOL     OW33091   5.195   4.039   4.819
10731SOL    HW133092   5.182   4.116   4.880
10731SOL    HW233093   5.155   4.060   4.729
10732SOL     OW33094   5.540   5.765   2.802
10732SOL    HW133095   5.634   5.745   2.776
10732SOL    HW233096   5.477   5.710   2.747
10733SOL     OW33097   0.518   2.029   5.665
10733SOL    HW133098   0.457   2.022   5.744
10733SOL    HW233099   0.463   2.022   5.581
10734SOL     OW33100   0.452   0.557   4.129
10734SOL    HW133101   0.400   0.518   4.053
10734SOL    HW233102   0.393   0.616   4.184
10735SOL     OW33103   0.109   0.830   2.000
10735SOL    HW133104   0.064   0.919   1.998
10735SOL    HW233105   0.158   0.819   2.086
10736SOL     OW33106   5.643   5.755   4.162
10736SOL    HW133107   5.696   5.689   4.109
10736SOL    HW233108   5.617   5.831   4.104
10737SOL     OW33109   6.294   0.951   0.399
10737SOL    HW133110   6.355   0.956   0.320
10737SOL    HW233111   6.347   0.932   0.482
10738SOL     OW33112   0.845   6.258   2.108
10738SOL    HW133113   0.893   6.182   2.151
10738SOL    HW233114   0.777   6.223   2.043
10739SOL     OW33115   5.177   2.541   4.170
10739SOL    HW133116   5.239   2.538   4.092
10739SOL    HW233117   5.117   2.621   4.162
10740SOL     OW33118   2.984   0.859   6.390
10740SOL    HW133119   3.038   0.939   6.414
10740SOL    HW233120   2.908   0.887   6.331
10741SOL     OW33121   2.170   2.970   3.995
10741SOL    HW133122   2.214   3.051   4.033
10741SOL    HW233123   2.129   2.916   4.069
10742SOL     OW33124   0.045   0.277   2.467
10742SOL    HW133125   0.008   0.185   2.454
10742SOL    HW233126   6.993   0.339   2.497
10743SOL     OW33127   3.751   2.709   6.024
10743SOL    HW133128   3.766   2.627   5.968
10743SOL    HW233129   3.709   2.683   6.111
10744SOL     OW33130   1.345   1.355   0.555
10744SOL    HW133131   1.343   1.444   0.602
10744SOL    HW233132   1.423   1.302   0.587
10745SOL     OW33133   3.605   5.550   1.902
10745SOL    HW133134   3.521   5.499   1.886
10745SOL    HW233135   3.684   5.489   1.891
10746SOL     OW33136   2.493   6.083   5.991
10746SOL    HW133137   2.423   6.015   6.015
10746SOL    HW233138   2.584   6.043   6.004
10747SOL     OW33139   6.733   0.350   4.657
10747SOL    HW133140   6.799   0.279   4.683
10747SOL    HW233141   6.773   0.440   4.676
10748SOL     OW33142   3.445   6.324   2.303
10748SOL    HW133143   3.450   6.424   2.309
10748SOL    HW233144   3.506   6.292   2.231
10749SOL     OW33145   5.006   2.702   2.559
10749SOL    HW133146   5.103   2.723   2.551
10749SOL    HW233147   4.956   2.783   2.589
10750SOL     OW33148   3.137   1.430   4.353
10750SOL    HW133149   3.168   1.474   4.268
10750SOL    HW233150   3.104   1.499   4.416
10751SOL     OW33151   6.064   5.871   3.677
10751SOL    HW133152   6.039   5.911   3.589
10751SOL    HW233153   6.095   5.777   3.662
10752SOL     OW33154   0.114   6.112   6.652
10752SOL    HW133155   0.032   6.071   6.611
10752SOL    HW233156   0.088   6.187   6.712
10753SOL     OW33157   5.243   6.769   4.976
10753SOL    HW133158   5.231   6.843   4.909
10753SOL    HW233159   5.155   6.746   5.017
10754SOL     OW33160   6.812   5.852   2.163
10754SOL    HW133161   6.774   5.764   2.134
10754SOL    HW233162   6.872   5.838   2.242
10755SOL     OW33163   0.915   1.715   2.191
10755SOL    HW133164   0.842   1.772   2.230
10755SOL    HW233165   0.900   1.706   2.092
10756SOL     OW33166   0.524   0.401   6.845
10756SOL    HW133167   0.529   0.384   6.746
10756SOL    HW233168   0.460   0.476   6.862
10757SOL     OW33169   0.039   2.289   2.072
10757SOL    HW133170   0.021   2.248   2.161
10757SOL    HW233171   0.001   2.381   2.069
10758SOL     OW33172   0.497   1.700   0.638
10758SOL    HW133173   0.490   1.605   0.607
10758SOL    HW233174   0.421   1.720   0.700
10759SOL     OW33175   3.507   5.282   5.299
10759SOL    HW133176   3.567   5.204   5.284
10759SOL    HW233177   3.412   5.256   5.279
10760SOL     OW33178   0.858   4.830   0.080
10760SOL    HW133179   0.937   4.886   0.056
10760SOL    HW233180   0.796   4.882   0.138
10761SOL     OW33181   1.827   1.327   6.412
10761SOL    HW133182   1.836   1.423   6.439
10761SOL    HW233183   1.802   1.272   6.492
10762SOL     OW33184   1.790   6.053   1.260
10762SOL    HW133185   1.715   6.081   1.321
10762SOL    HW233186   1.784   6.104   1.174
10763SOL     OW33187   5.082   1.471   2.568
10763SOL    HW133188   5.023   1.475   2.487
10763SOL    HW233189   5.090   1.376   2.598
10764SOL     OW33190   5.238   5.916   4.304
10764SOL    HW133191   5.192   5.831   4.333
10764SOL    HW233192   5.268   5.966   4.385
10765SOL     OW33193   6.890   3.048   1.484
10765SOL    HW133194   6.949   3.084   1.557
10765SOL    HW233195   6.931   2.964   1.447
10766SOL     OW33196   3.259   5.425   6.767
10766SOL    HW133197   3.184   5.460   6.824
10766SOL    HW233198   3.246   5.457   6.673
10767SOL     OW33199   1.539   5.080   6.466
10767SOL    HW133200   1.508   5.129   6.548
10767SOL    HW233201   1.602   5.007   6.493
10768SOL     OW33202   5.855   6.180   0.159
10768SOL    HW133203   5.869   6.087   0.192
10768SOL    HW233204   5.924   6.201   0.090
10769SOL     OW33205   3.258   3.642   4.695
10769SOL    HW133206   3.347   3.679   4.723
10769SOL    HW233207   3.248   3.549   4.729
10770SOL     OW33208   4.342   0.206   4.470
10770SOL    HW133209   4.269   0.140   4.454
10770SOL    HW233210   4.431   0.160   4.465
10771SOL     OW33211   4.928   6.233   5.751
10771SOL    HW133212   4.933   6.235   5.652
10771SOL    HW233213   4.988   6.305   5.789
10772SOL     OW33214   5.235   3.183   3.932
10772SOL    HW133215   5.152   3.238   3.925
10772SOL    HW233216   5.231   3.125   4.014
10773SOL     OW33217   1.117   4.424   0.332
10773SOL    HW133218   1.187   4.354   0.320
10773SOL    HW233219   1.035   4.382   0.372
10774SOL     OW33220   6.607   2.982   0.738
10774SOL    HW133221   6.532   3.023   0.791
10774SOL    HW233222   6.650   2.910   0.792
10775SOL     OW33223   1.744   4.562   6.073
10775SOL    HW133224   1.705   4.498   6.140
10775SOL    HW233225   1.810   4.513   6.016
10776SOL     OW33226   0.112   3.629   2.890
10776SOL    HW133227   0.124   3.704   2.825
10776SOL    HW233228   0.021   3.590   2.880
10777SOL     OW33229   0.672   6.283   2.305
10777SOL    HW133230   0.632   6.372   2.327
10777SOL    HW233231   0.742   6.295   2.234
10778SOL     OW33232   5.011   6.864   3.634
10778SOL    HW133233   4.954   6.905   3.562
10778SOL    HW233234   4.955   6.802   3.689
10779SOL     OW33235   5.719   2.825   5.648
10779SOL    HW133236   5.680   2.917   5.655
10779SOL    HW233237   5.655   2.759   5.687
10780SOL     OW33238   1.074   5.689   4.631
10780SOL    HW133239   1.084   5.598   4.591
10780SOL    HW233240   1.026   5.681   4.719
10781SOL     OW33241   6.083   2.214   5.840
10781SOL    HW133242   6.134   2.297   5.818
10781SOL    HW233243   6.044   2.222   5.931
10782SOL     OW33244   1.424   3.383   5.004
10782SOL    HW133245   1.330   3.349   4.992
10782SOL    HW233246   1.445   3.387   5.102
10783SOL     OW33247   1.513   3.918   4.209
10783SOL    HW133248   1.543   4.000   4.160
10783SOL    HW233249   1.479   3.945   4.300
10784SOL     OW33250   4.819   5.038   4.034
10784SOL    HW133251   4.838   5.123   4.084
10784SOL    HW233252   4.891   4.971   4.054
10785SOL     OW33253   1.816   5.485   1.919
10785SOL    HW133254   1.718   5.497   1.902
10785SOL    HW233255   1.846   5.398   1.879
10786SOL     OW33256   4.833   1.608   2.631
10786SOL    HW133257   4.920   1.622   2.679
10786SOL    HW233258   4.841   1.645   2.538
10787SOL     OW33259   3.073   1.674   4.004
10787SOL    HW133260   3.076   1.693   3.905
10787SOL    HW233261   3.061   1.759   4.054
10788SOL     OW33262   1.451   3.195   6.857
10788SOL    HW133263   1.371   3.137   6.844
10788SOL    HW233264   1.534   3.139   6.850
10789SOL     OW33265   6.545   2.414   2.799
10789SOL    HW133266   6.585   2.506   2.805
10789SOL    HW233267   6.504   2.402   2.709
10790SOL     OW33268   6.734   2.700   4.964
10790SOL    HW133269   6.743   2.792   4.926
10790SOL    HW233270   6.680   2.644   4.901
10791SOL     OW33271   1.945   2.933   3.063
10791SOL    HW133272   1.916   2.964   3.153
10791SOL    HW233273   1.899   2.846   3.041
10792SOL     OW33274   3.810   1.169   2.246
10792SOL    HW133275   3.869   1.171   2.166
10792SOL    HW233276   3.760   1.082   2.248
10793SOL     OW33277   3.830   2.181   3.845
10793SOL    HW133278   3.881   2.223   3.769
10793SOL    HW233279   3.745   2.231   3.860
10794SOL     OW33280   4.182   2.814   6.997
10794SOL    HW133281   4.175   2.751   0.054
10794SOL    HW233282   4.218   2.902   0.008
10795SOL     OW33283   6.298   2.572   2.975
10795SOL    HW133284   6.366   2.502   3.001
10795SOL    HW233285   6.210   2.550   3.017
10796SOL     OW33286   6.716   2.235   6.317
10796SOL    HW133287   6.731   2.146   6.361
10796SOL    HW233288   6.728   2.308   6.384
10797SOL     OW33289   5.919   4.410   6.756
10797SOL    HW133290   5.835   4.373   6.717
10797SOL    HW233291   5.958   4.478   6.693
10798SOL     OW33292   2.501   5.845   0.372
10798SOL    HW133293   2.454   5.871   0.456
10798SOL    HW233294   2.573   5.911   0.352
10799SOL     OW33295   1.878   1.203   3.259
10799SOL    HW133296   1.893   1.301   3.245
10799SOL    HW233297   1.849   1.160   3.174
10800SOL     OW33298   0.947   0.618   5.254
10800SOL    HW133299   0.870   0.630   5.317
10800SOL    HW233300   1.005   0.699   5.258
10801SOL     OW33301   3.108   6.080   6.961
10801SOL    HW133302   3.020   6.038   6.939
10801SOL    HW233303   3.183   6.019   6.933
10802SOL     OW33304   0.488   4.643   3.516
10802SOL    HW133305   0.482   4.735   3.478
10802SOL    HW233306   0.583   4.610   3.510
10803SOL     OW33307   6.922   4.090   4.914
10803SOL    HW133308   7.002   4.148   4.924
10803SOL    HW233309   6.842   4.138   4.950
10804SOL     OW33310   4.396   5.144   6.514
10804SOL    HW133311   4.333   5.068   6.526
10804SOL    HW233312   4.455   5.127   6.435
10805SOL     OW33313   5.273   5.642   0.199
10805SOL    HW133314   5.296   5.737   0.217
10805SOL    HW233315   5.354   5.585   0.215
10806SOL     OW33316   6.007   2.986   4.993
10806SOL    HW133317   5.983   2.897   4.954
10806SOL    HW233318   6.070   3.033   4.931
10807SOL     OW33319   4.502   2.571   5.033
10807SOL    HW133320   4.497   2.628   5.115
10807SOL    HW233321   4.458   2.617   4.957
10808SOL     OW33322   0.773   2.676   0.957
10808SOL    HW133323   0.801   2.608   0.889
10808SOL    HW233324   0.733   2.755   0.910
10809SOL     OW33325   0.738   1.118   3.075
10809SOL    HW133326   0.800   1.193   3.051
10809SOL    HW233327   0.767   1.076   3.161
10810SOL     OW33328   1.999   2.156   6.426
10810SOL    HW133329   2.089   2.160   6.469
10810SOL    HW233330   1.951   2.242   6.441
10811SOL     OW33331   3.973   5.441   6.593
10811SOL    HW133332   3.934   5.349   6.589
10811SOL    HW233333   3.919   5.498   6.655
10812SOL     OW33334   6.768   3.438   2.388
10812SOL    HW133335   6.710   3.479   2.458
10812SOL    HW233336   6.753   3.339   2.387
10813SOL     OW33337   3.356   6.208   1.949
10813SOL    HW133338   3.439   6.257   1.924
10813SOL    HW233339   3.379   6.119   1.989
10814SOL     OW33340   1.969   6.081   4.150
10814SOL    HW133341   1.933   6.109   4.061
10814SOL    HW233342   1.902   6.024   4.197
10815SOL     OW33343   5.430   2.804   5.955
10815SOL    HW133344   5.488   2.752   6.018
10815SOL    HW233345   5.427   2.757   5.867
10816SOL     OW33346   2.404   2.670   0.982
10816SOL    HW133347   2.312   2.678   1.020
10816SOL    HW233348   2.460   2.611   1.040
10817SOL     OW33349   3.843   1.550   1.817
10817SOL    HW133350   3.787   1.631   1.803
10817SOL    HW233351   3.896   1.531   1.735
10818SOL     OW33352   4.358   3.578   5.614
10818SOL    HW133353   4.369   3.629   5.529
10818SOL    HW233354   4.420   3.614   5.683
10819SOL     OW33355   2.180   3.239   4.990
10819SOL    HW133356   2.202   3.286   4.905
10819SOL    HW233357   2.245   3.164   5.005
10820SOL     OW33358   0.502   6.477   5.358
10820SOL    HW133359   0.559   6.454   5.279
10820SOL    HW233360   0.472   6.393   5.403
10821SOL     OW33361   6.845   0.576   0.156
10821SOL    HW133362   6.794   0.512   0.213
10821SOL    HW233363   6.871   0.531   0.071
10822SOL     OW33364   0.149   5.612   5.640
10822SOL    HW133365   0.174   5.521   5.672
10822SOL    HW233366   0.050   5.617   5.627
10823SOL     OW33367   2.700   2.342   0.602
10823SOL    HW133368   2.631   2.270   0.586
10823SOL    HW233369   2.751   2.321   0.685
10824SOL     OW33370   4.917   1.500   4.644
10824SOL    HW133371   4.855   1.570   4.608
10824SOL    HW233372   4.877   1.459   4.726
10825SOL     OW33373   4.112   1.362   1.823
10825SOL    HW133374   4.032   1.348   1.881
10825SOL    HW233375   4.083   1.388   1.731
10826SOL     OW33376   0.683   3.589   1.067
10826SOL    HW133377   0.689   3.653   1.143
10826SOL    HW233378   0.618   3.624   0.999
10827SOL     OW33379   6.846   2.401   4.932
10827SOL    HW133380   6.802   2.488   4.954
10827SOL    HW233381   6.943   2.404   4.956
10828SOL     OW33382   2.635   4.359   6.892
10828SOL    HW133383   2.582   4.439   6.920
10828SOL    HW233384   2.689   4.325   6.969
10829SOL     OW33385   2.196   3.529   0.956
10829SOL    HW133386   2.130   3.499   1.025
10829SOL    HW233387   2.168   3.618   0.920
10830SOL     OW33388   6.146   0.149   4.198
10830SOL    HW133389   6.076   0.158   4.127
10830SOL    HW233390   6.161   0.052   4.220
10831SOL     OW33391   5.621   3.019   2.499
10831SOL    HW133392   5.569   2.961   2.437
10831SOL    HW233393   5.707   2.974   2.523
10832SOL     OW33394   1.838   3.167   1.990
10832SOL    HW133395   1.884   3.159   2.079
10832SOL    HW233396   1.795   3.080   1.967
10833SOL     OW33397   3.371   6.908   4.647
10833SOL    HW133398   3.273   6.892   4.629
10833SOL    HW233399   3.424   6.879   4.568
10834SOL     OW33400   7.002   2.420   5.604
10834SOL    HW133401   6.935   2.476   5.556
10834SOL    HW233402   0.031   2.363   5.539
10835SOL     OW33403   0.643   1.289   0.372
10835SOL    HW133404   0.653   1.189   0.374
10835SOL    HW233405   0.663   1.322   0.281
10836SOL     OW33406   0.091   1.743   1.145
10836SOL    HW133407   0.018   1.709   1.204
10836SOL    HW233408   0.069   1.721   1.050
10837SOL     OW33409   1.363   5.584   0.598
10837SOL    HW133410   1.318   5.614   0.513
10837SOL    HW233411   1.371   5.484   0.597
10838SOL     OW33412   6.520   5.991   1.287
10838SOL    HW133413   6.605   6.023   1.245
10838SOL    HW233414   6.442   6.040   1.246
10839SOL     OW33415   2.697   1.783   6.321
10839SOL    HW133416   2.624   1.802   6.387
10839SOL    HW233417   2.733   1.869   6.286
10840SOL     OW33418   1.009   1.092   3.387
10840SOL    HW133419   1.078   1.141   3.333
10840SOL    HW233420   0.955   1.158   3.439
10841SOL     OW33421   4.697   4.408   0.226
10841SOL    HW133422   4.790   4.375   0.212
10841SOL    HW233423   4.686   4.440   0.320
10842SOL     OW33424   5.746   1.703   1.814
10842SOL    HW133425   5.718   1.642   1.740
10842SOL    HW233426   5.705   1.672   1.900
10843SOL     OW33427   1.145   2.152   1.328
10843SOL    HW133428   1.060   2.111   1.295
10843SOL    HW233429   1.223   2.099   1.295
10844SOL     OW33430   4.654   6.643   4.004
10844SOL    HW133431   4.599   6.618   4.084
10844SOL    HW233432   4.635   6.738   3.978
10845SOL     OW33433   2.546   3.632   1.274
10845SOL    HW133434   2.641   3.663   1.277
10845SOL    HW233435   2.530   3.567   1.349
10846SOL     OW33436   3.638   2.358   1.373
10846SOL    HW133437   3.690   2.274   1.386
10846SOL    HW233438   3.693   2.436   1.401
10847SOL     OW33439   5.220   1.776   5.428
10847SOL    HW133440   5.300   1.717   5.420
10847SOL    HW233441   5.230   1.855   5.367
10848SOL     OW33442   2.073   0.439   6.540
10848SOL    HW133443   2.102   0.531   6.517
10848SOL    HW233444   2.109   0.415   6.631
10849SOL     OW33445   0.668   3.996   4.948
10849SOL    HW133446   0.750   3.949   4.916
10849SOL    HW233447   0.694   4.068   5.012
10850SOL     OW33448   5.680   0.680   3.268
10850SOL    HW133449   5.735   0.735   3.330
10850SOL    HW233450   5.597   0.730   3.243
10851SOL     OW33451   4.677   2.776   0.356
10851SOL    HW133452   4.610   2.760   0.285
10851SOL    HW233453   4.672   2.871   0.386
10852SOL     OW33454   5.706   1.500   5.855
10852SOL    HW133455   5.760   1.418   5.836
10852SOL    HW233456   5.662   1.491   5.945
10853SOL     OW33457   2.112   7.019   5.402
10853SOL    HW133458   2.060   6.934   5.413
10853SOL    HW233459   2.181   0.005   5.474
10854SOL     OW33460   5.523   0.127   6.957
10854SOL    HW133461   5.517   0.115   6.858
10854SOL    HW233462   5.516   0.224   6.980
10855SOL     OW33463   1.030   5.800   7.012
10855SOL    HW133464   0.976   5.752   0.060
10855SOL    HW233465   0.979   5.879   6.979
10856SOL     OW33466   4.576   0.033   6.298
10856SOL    HW133467   4.597   6.957   6.287
10856SOL    HW233468   4.478   0.045   6.313
10857SOL     OW33469   6.498   6.529   4.751
10857SOL    HW133470   6.563   6.467   4.794
10857SOL    HW233471   6.545   6.614   4.726
10858SOL     OW33472   2.124   2.965   1.084
10858SOL    HW133473   2.116   3.018   1.169
10858SOL    HW233474   2.140   2.869   1.105
10859SOL     OW33475   2.344   5.136   1.805
10859SOL    HW133476   2.439   5.169   1.811
10859SOL    HW233477   2.285   5.196   1.858
10860SOL     OW33478   5.312   1.515   2.112
10860SOL    HW133479   5.273   1.606   2.129
10860SOL    HW233480   5.327   1.468   2.199
10861SOL     OW33481   2.828   4.917   0.582
10861SOL    HW133482   2.921   4.889   0.603
10861SOL    HW233483   2.797   4.985   0.649
10862SOL     OW33484   3.856   4.679   5.318
10862SOL    HW133485   3.811   4.613   5.378
10862SOL    HW233486   3.952   4.687   5.344
10863SOL     OW33487   0.123   6.945   3.987
10863SOL    HW133488   0.084   6.907   3.903
10863SOL    HW233489   0.112   6.880   4.062
10864SOL     OW33490   2.905   3.648   2.691
10864SOL    HW133491   2.927   3.715   2.619
10864SOL    HW233492   2.940   3.682   2.779
10865SOL     OW33493   3.462   2.065   2.377
10865SOL    HW133494   3.493   2.090   2.286
10865SOL    HW233495   3.540   2.034   2.432
10866SOL     OW33496   0.350   3.515   5.140
10866SOL    HW133497   0.283   3.463   5.088
10866SOL    HW233498   0.321   3.610   5.148
10867SOL     OW33499   4.876   3.314   0.471
10867SOL    HW133500   4.969   3.339   0.445
10867SOL    HW233501   4.825   3.397   0.494
10868SOL     OW33502   6.953   6.767   6.082
10868SOL    HW133503   6.897   6.687   6.056
10868SOL    HW233504   6.981   6.758   6.177
10869NA      NA33505   6.597   0.901   0.120
10870NA      NA33506   4.707   4.545   4.814
10871NA      NA33507   0.890   4.490   3.098
10872NA      NA33508   6.592   3.429   3.493
10873NA      NA33509   4.355   2.351   5.190
10874NA      NA33510   2.448   3.300   6.720
10875NA      NA33511   1.626   5.632   0.092
10876NA      NA33512   4.342   4.941   1.990
10877NA      NA33513   5.413   3.546   1.109
10878NA      NA33514   3.438   1.970   0.470
10879NA      NA33515   5.075   6.185   1.370
10880NA      NA33516   2.636   6.433   4.562
10881NA      NA33517   2.988   5.597   2.697
10882NA      NA33518   4.370   4.856   5.945
   7.02091   7.02091   7.02091
