Generated by trjconv : CNT in water t= 456.00000
33518
    1C        C    1   2.849   2.772   4.751
    1C        C    2   2.906   2.723   4.870
    1C        C    3   2.852   2.782   4.986
    1C        C    4   2.850   2.773   4.264
    1C        C    5   2.904   2.729   4.387
    1C        C    6   2.848   2.769   4.510
    1C        C    7   3.014   2.636   4.627
    1C        C    8   2.898   2.716   4.630
    1C        C    9   3.078   2.602   4.748
    1C        C   10   3.015   2.633   4.871
    1C        C   11   3.188   2.497   4.982
    1C        C   12   3.066   2.566   4.982
    1C        C   13   2.841   2.764   3.775
    1C        C   14   2.897   2.719   3.896
    1C        C   15   2.851   2.769   4.020
    1C        C   16   3.020   2.643   4.139
    1C        C   17   2.903   2.722   4.143
    1C        C   18   3.080   2.611   4.263
    1C        C   19   3.019   2.646   4.385
    1C        C   20   3.212   2.559   4.507
    1C        C   21   3.078   2.603   4.506
    1C        C   22   3.278   2.530   4.629
    1C        C   23   3.211   2.550   4.751
    1C        C   24   3.416   2.480   4.867
    1C        C   25   3.275   2.503   4.869
    1C        C   26   3.493   2.477   4.984
    1C        C   27   2.852   2.772   3.284
    1C        C   28   2.901   2.721   3.406
    1C        C   29   2.851   2.770   3.529
    1C        C   30   3.013   2.639   3.652
    1C        C   31   2.898   2.721   3.653
    1C        C   32   3.077   2.606   3.774
    1C        C   33   3.015   2.642   3.896
    1C        C   34   3.210   2.549   4.019
    1C        C   35   3.080   2.606   4.016
    1C        C   36   3.277   2.531   4.142
    1C        C   37   3.209   2.554   4.264
    1C        C   38   3.418   2.511   4.385
    1C        C   39   3.280   2.540   4.385
    1C        C   40   3.489   2.506   4.507
    1C        C   41   3.417   2.507   4.629
    1C        C   42   3.633   2.487   4.743
    1C        C   43   3.491   2.482   4.747
    1C        C   44   3.707   2.494   4.863
    1C        C   45   3.632   2.476   4.980
    1C        C   46   2.839   2.752   2.795
    1C        C   47   2.896   2.711   2.918
    1C        C   48   2.843   2.758   3.040
    1C        C   49   3.013   2.633   3.163
    1C        C   50   2.901   2.718   3.163
    1C        C   51   3.076   2.603   3.286
    1C        C   52   3.013   2.635   3.409
    1C        C   53   3.207   2.550   3.529
    1C        C   54   3.074   2.598   3.531
    1C        C   55   3.275   2.531   3.652
    1C        C   56   3.206   2.550   3.774
    1C        C   57   3.416   2.513   3.897
    1C        C   58   3.275   2.529   3.895
    1C        C   59   3.487   2.505   4.019
    1C        C   60   3.415   2.504   4.141
    1C        C   61   3.628   2.504   4.261
    1C        C   62   3.487   2.498   4.262
    1C        C   63   3.701   2.508   4.382
    1C        C   64   3.630   2.501   4.503
    1C        C   65   3.840   2.546   4.621
    1C        C   66   3.705   2.508   4.623
    1C        C   67   3.909   2.566   4.743
    1C        C   68   3.845   2.524   4.861
    1C        C   69   4.052   2.583   4.978
    1C        C   70   3.924   2.526   4.977
    1C        C   71   2.825   2.734   2.309
    1C        C   72   2.887   2.700   2.431
    1C        C   73   2.833   2.747   2.553
    1C        C   74   3.008   2.622   2.675
    1C        C   75   2.890   2.701   2.674
    1C        C   76   3.073   2.593   2.796
    1C        C   77   3.012   2.630   2.918
    1C        C   78   3.204   2.542   3.039
    1C        C   79   3.075   2.600   3.041
    1C        C   80   3.272   2.527   3.162
    1C        C   81   3.206   2.548   3.286
    1C        C   82   3.414   2.504   3.405
    1C        C   83   3.274   2.527   3.408
    1C        C   84   3.485   2.502   3.527
    1C        C   85   3.415   2.510   3.650
    1C        C   86   3.624   2.509   3.770
    1C        C   87   3.483   2.508   3.773
    1C        C   88   3.697   2.515   3.892
    1C        C   89   3.628   2.511   4.015
    1C        C   90   3.834   2.548   4.138
    1C        C   91   3.697   2.514   4.138
    1C        C   92   3.905   2.573   4.258
    1C        C   93   3.836   2.548   4.379
    1C        C   94   4.031   2.637   4.499
    1C        C   95   3.908   2.568   4.499
    1C        C   96   4.094   2.673   4.621
    1C        C   97   4.037   2.629   4.742
    1C        C   98   4.194   2.767   4.863
    1C        C   99   4.100   2.659   4.866
    1C        C  100   4.220   2.841   4.979
    1C        C  101   2.823   2.731   2.072
    1C        C  102   2.994   2.594   2.194
    1C        C  103   2.878   2.677   2.190
    1C        C  104   3.069   2.577   2.314
    1C        C  105   3.003   2.619   2.431
    1C        C  106   3.202   2.540   2.552
    1C        C  107   3.070   2.590   2.552
    1C        C  108   3.272   2.522   2.673
    1C        C  109   3.205   2.542   2.796
    1C        C  110   3.414   2.506   2.917
    1C        C  111   3.274   2.523   2.918
    1C        C  112   3.484   2.497   3.040
    1C        C  113   3.411   2.503   3.161
    1C        C  114   3.624   2.506   3.279
    1C        C  115   3.483   2.499   3.282
    1C        C  116   3.691   2.516   3.403
    1C        C  117   3.626   2.510   3.528
    1C        C  118   3.835   2.551   3.648
    1C        C  119   3.697   2.520   3.650
    1C        C  120   3.898   2.580   3.771
    1C        C  121   3.833   2.553   3.894
    1C        C  122   4.025   2.642   4.016
    1C        C  123   3.899   2.578   4.016
    1C        C  124   4.088   2.681   4.137
    1C        C  125   4.031   2.638   4.258
    1C        C  126   4.202   2.768   4.378
    1C        C  127   4.093   2.677   4.379
    1C        C  128   4.248   2.821   4.500
    1C        C  129   4.195   2.771   4.621
    1C        C  130   4.333   2.934   4.742
    1C        C  131   4.249   2.819   4.743
    1C        C  132   4.358   3.005   4.862
    1C        C  133   4.293   2.959   4.977
    1C        C  134   3.173   2.469   2.083
    1C        C  135   3.043   2.520   2.082
    1C        C  136   3.262   2.478   2.191
    1C        C  137   3.198   2.518   2.310
    1C        C  138   3.408   2.489   2.429
    1C        C  139   3.268   2.505   2.432
    1C        C  140   3.482   2.497   2.549
    1C        C  141   3.412   2.503   2.671
    1C        C  142   3.623   2.500   2.791
    1C        C  143   3.482   2.498   2.794
    1C        C  144   3.695   2.514   2.912
    1C        C  145   3.625   2.504   3.035
    1C        C  146   3.832   2.548   3.157
    1C        C  147   3.695   2.516   3.157
    1C        C  148   3.897   2.572   3.280
    1C        C  149   3.828   2.550   3.402
    1C        C  150   4.025   2.634   3.526
    1C        C  151   3.898   2.571   3.523
    1C        C  152   4.086   2.670   3.648
    1C        C  153   4.027   2.637   3.772
    1C        C  154   4.196   2.767   3.892
    1C        C  155   4.086   2.677   3.894
    1C        C  156   4.254   2.813   4.013
    1C        C  157   4.202   2.765   4.135
    1C        C  158   4.348   2.921   4.258
    1C        C  159   4.257   2.813   4.256
    1C        C  160   4.384   2.984   4.379
    1C        C  161   4.333   2.934   4.501
    1C        C  162   4.447   3.116   4.620
    1C        C  163   4.377   2.993   4.622
    1C        C  164   4.476   3.186   4.739
    1C        C  165   4.431   3.126   4.859
    1C        C  166   4.520   3.319   4.975
    1C        C  167   4.484   3.185   4.975
    1C        C  168   3.478   2.438   2.074
    1C        C  169   3.402   2.460   2.189
    1C        C  170   3.621   2.473   2.306
    1C        C  171   3.478   2.471   2.308
    1C        C  172   3.696   2.494   2.424
    1C        C  173   3.624   2.499   2.545
    1C        C  174   3.828   2.548   2.671
    1C        C  175   3.692   2.510   2.668
    1C        C  176   3.897   2.570   2.793
    1C        C  177   3.833   2.545   2.917
    1C        C  178   4.030   2.629   3.035
    1C        C  179   3.904   2.564   3.037
    1C        C  180   4.086   2.668   3.159
    1C        C  181   4.023   2.636   3.282
    1C        C  182   4.203   2.748   3.400
    1C        C  183   4.086   2.668   3.404
    1C        C  184   4.249   2.802   3.523
    1C        C  185   4.198   2.756   3.646
    1C        C  186   4.342   2.914   3.767
    1C        C  187   4.249   2.807   3.768
    1C        C  188   4.381   2.977   3.888
    1C        C  189   4.342   2.923   4.013
    1C        C  190   4.450   3.106   4.132
    1C        C  191   4.382   2.982   4.135
    1C        C  192   4.473   3.176   4.253
    1C        C  193   4.443   3.113   4.375
    1C        C  194   4.513   3.314   4.495
    1C        C  195   4.469   3.180   4.497
    1C        C  196   4.528   3.389   4.613
    1C        C  197   4.518   3.321   4.737
    1C        C  198   4.553   3.536   4.855
    1C        C  199   4.535   3.394   4.858
    1C        C  200   4.584   3.621   4.966
    1C        C  201   3.616   2.420   2.075
    1C        C  202   3.832   2.509   2.181
    1C        C  203   3.696   2.465   2.186
    1C        C  204   3.900   2.542   2.302
    1C        C  205   3.833   2.526   2.426
    1C        C  206   4.021   2.626   2.543
    1C        C  207   3.895   2.562   2.547
    1C        C  208   4.081   2.664   2.665
    1C        C  209   4.022   2.634   2.790
    1C        C  210   4.200   2.750   2.911
    1C        C  211   4.088   2.665   2.911
    1C        C  212   4.255   2.795   3.034
    1C        C  213   4.204   2.746   3.156
    1C        C  214   4.342   2.905   3.276
    1C        C  215   4.257   2.792   3.278
    1C        C  216   4.377   2.966   3.399
    1C        C  217   4.336   2.913   3.523
    1C        C  218   4.442   3.099   3.644
    1C        C  219   4.380   2.971   3.644
    1C        C  220   4.468   3.168   3.764
    1C        C  221   4.446   3.102   3.887
    1C        C  222   4.508   3.306   4.005
    1C        C  223   4.475   3.168   4.008
    1C        C  224   4.511   3.380   4.125
    1C        C  225   4.508   3.313   4.249
    1C        C  226   4.520   3.523   4.370
    1C        C  227   4.523   3.382   4.371
    1C        C  228   4.514   3.598   4.490
    1C        C  229   4.533   3.531   4.613
    1C        C  230   4.503   3.744   4.730
    1C        C  231   4.535   3.605   4.733
    1C        C  232   4.495   3.822   4.847
    1C        C  233   4.541   3.755   4.961
    1C        C  234   4.025   2.604   2.065
    1C        C  235   3.898   2.548   2.064
    1C        C  236   4.087   2.648   2.183
    1C        C  237   4.024   2.611   2.304
    1C        C  238   4.203   2.737   2.424
    1C        C  239   4.088   2.654   2.422
    1C        C  240   4.256   2.786   2.546
    1C        C  241   4.199   2.743   2.667
    1C        C  242   4.346   2.899   2.787
    1C        C  243   4.254   2.791   2.788
    1C        C  244   4.386   2.957   2.909
    1C        C  245   4.346   2.903   3.034
    1C        C  246   4.449   3.090   3.150
    1C        C  247   4.386   2.964   3.155
    1C        C  248   4.462   3.158   3.273
    1C        C  249   4.437   3.094   3.397
    1C        C  250   4.489   3.300   3.516
    1C        C  251   4.463   3.161   3.518
    1C        C  252   4.506   3.370   3.637
    1C        C  253   4.505   3.304   3.762
    1C        C  254   4.519   3.517   3.882
    1C        C  255   4.520   3.375   3.883
    1C        C  256   4.514   3.590   4.003
    1C        C  257   4.515   3.522   4.126
    1C        C  258   4.488   3.732   4.243
    1C        C  259   4.511   3.593   4.248
    1C        C  260   4.467   3.803   4.364
    1C        C  261   4.486   3.737   4.487
    1C        C  262   4.420   3.939   4.604
    1C        C  263   4.474   3.809   4.608
    1C        C  264   4.398   4.011   4.724
    1C        C  265   4.433   3.949   4.846
    1C        C  266   4.322   4.137   4.963
    1C        C  267   4.394   4.018   4.961
    1C        C  268   4.263   2.776   2.068
    1C        C  269   4.202   2.729   2.185
    1C        C  270   4.351   2.892   2.301
    1C        C  271   4.255   2.787   2.303
    1C        C  272   4.389   2.953   2.422
    1C        C  273   4.343   2.898   2.544
    1C        C  274   4.453   3.082   2.663
    1C        C  275   4.383   2.960   2.665
    1C        C  276   4.475   3.151   2.785
    1C        C  277   4.449   3.083   2.906
    1C        C  278   4.505   3.291   3.026
    1C        C  279   4.473   3.153   3.026
    1C        C  280   4.511   3.361   3.148
    1C        C  281   4.502   3.294   3.272
    1C        C  282   4.513   3.508   3.394
    1C        C  283   4.507   3.367   3.393
    1C        C  284   4.508   3.580   3.515
    1C        C  285   4.509   3.511   3.638
    1C        C  286   4.487   3.724   3.756
    1C        C  287   4.509   3.585   3.759
    1C        C  288   4.468   3.794   3.878
    1C        C  289   4.491   3.730   4.002
    1C        C  290   4.420   3.933   4.120
    1C        C  291   4.474   3.803   4.122
    1C        C  292   4.392   3.999   4.241
    1C        C  293   4.420   3.936   4.365
    1C        C  294   4.325   4.132   4.483
    1C        C  295   4.391   4.007   4.484
    1C        C  296   4.287   4.193   4.604
    1C        C  297   4.323   4.132   4.726
    1C        C  298   4.199   4.316   4.841
    1C        C  299   4.278   4.197   4.844
    1C        C  300   4.173   4.409   4.946
    1C        C  301   4.350   2.885   2.066
    1C        C  302   4.477   3.070   2.178
    1C        C  303   4.403   2.947   2.180
    1C        C  304   4.489   3.143   2.300
    1C        C  305   4.454   3.078   2.420
    1C        C  306   4.513   3.283   2.538
    1C        C  307   4.487   3.144   2.541
    1C        C  308   4.518   3.356   2.659
    1C        C  309   4.506   3.288   2.783
    1C        C  310   4.518   3.502   2.904
    1C        C  311   4.519   3.360   2.903
    1C        C  312   4.511   3.573   3.026
    1C        C  313   4.511   3.503   3.149
    1C        C  314   4.485   3.715   3.266
    1C        C  315   4.507   3.575   3.270
    1C        C  316   4.467   3.785   3.388
    1C        C  317   4.481   3.719   3.512
    1C        C  318   4.423   3.924   3.630
    1C        C  319   4.468   3.790   3.633
    1C        C  320   4.389   3.988   3.752
    1C        C  321   4.419   3.926   3.875
    1C        C  322   4.315   4.114   3.993
    1C        C  323   4.389   3.993   3.996
    1C        C  324   4.275   4.174   4.115
    1C        C  325   4.319   4.120   4.238
    1C        C  326   4.187   4.288   4.358
    1C        C  327   4.282   4.183   4.358
    1C        C  328   4.138   4.346   4.477
    1C        C  329   4.193   4.298   4.598
    1C        C  330   4.030   4.442   4.715
    1C        C  331   4.144   4.357   4.716
    1C        C  332   3.973   4.492   4.835
    1C        C  333   4.049   4.475   4.951
    1C        C  334   4.554   3.270   2.061
    1C        C  335   4.530   3.132   2.061
    1C        C  336   4.540   3.351   2.174
    1C        C  337   4.516   3.282   2.295
    1C        C  338   4.519   3.495   2.413
    1C        C  339   4.521   3.354   2.416
    1C        C  340   4.512   3.567   2.535
    1C        C  341   4.515   3.497   2.658
    1C        C  342   4.480   3.706   2.778
    1C        C  343   4.508   3.568   2.780
    1C        C  344   4.466   3.780   2.898
    1C        C  345   4.484   3.712   3.020
    1C        C  346   4.420   3.914   3.144
    1C        C  347   4.465   3.780   3.142
    1C        C  348   4.386   3.980   3.264
    1C        C  349   4.416   3.916   3.386
    1C        C  350   4.319   4.106   3.504
    1C        C  351   4.396   3.987   3.507
    1C        C  352   4.274   4.165   3.624
    1C        C  353   4.315   4.108   3.747
    1C        C  354   4.179   4.271   3.869
    1C        C  355   4.274   4.167   3.869
    1C        C  356   4.127   4.323   3.990
    1C        C  357   4.181   4.279   4.113
    1C        C  358   4.015   4.411   4.233
    1C        C  359   4.131   4.330   4.235
    1C        C  360   3.950   4.446   4.354
    1C        C  361   4.017   4.419   4.475
    1C        C  362   3.833   4.527   4.596
    1C        C  363   3.963   4.472   4.595
    1C        C  364   3.765   4.551   4.718
    1C        C  365   3.843   4.547   4.835
    1C        C  366   3.630   4.597   4.950
    1C        C  367   3.768   4.581   4.949
    1C        C  368   4.507   3.566   2.055
    1C        C  369   4.526   3.492   2.173
    1C        C  370   4.499   3.707   2.289
    1C        C  371   4.517   3.567   2.291
    1C        C  372   4.481   3.776   2.411
    1C        C  373   4.495   3.707   2.534
    1C        C  374   4.416   3.906   2.652
    1C        C  375   4.469   3.775   2.655
    1C        C  376   4.389   3.975   2.772
    1C        C  377   4.418   3.913   2.895
    1C        C  378   4.317   4.095   3.017
    1C        C  379   4.390   3.974   3.019
    1C        C  380   4.271   4.156   3.136
    1C        C  381   4.312   4.100   3.259
    1C        C  382   4.178   4.263   3.378
    1C        C  383   4.274   4.160   3.381
    1C        C  384   4.125   4.314   3.499
    1C        C  385   4.177   4.267   3.622
    1C        C  386   4.008   4.392   3.745
    1C        C  387   4.123   4.312   3.746
    1C        C  388   3.948   4.436   3.865
    1C        C  389   4.012   4.405   3.987
    1C        C  390   3.821   4.491   4.110
    1C        C  391   3.955   4.444   4.110
    1C        C  392   3.752   4.510   4.231
    1C        C  393   3.822   4.505   4.354
    1C        C  394   3.619   4.557   4.479
    1C        C  395   3.758   4.535   4.477
    1C        C  396   3.545   4.570   4.599
    1C        C  397   3.625   4.568   4.716
    1C        C  398   3.413   4.552   4.840
    1C        C  399   3.551   4.581   4.835
    1C        C  400   3.341   4.517   4.956
    1C        C  401   4.502   3.705   2.052
    1C        C  402   4.450   3.917   2.172
    1C        C  403   4.490   3.781   2.169
    1C        C  404   4.409   3.981   2.291
    1C        C  405   4.435   3.910   2.410
    1C        C  406   4.324   4.096   2.528
    1C        C  407   4.395   3.974   2.530
    1C        C  408   4.278   4.152   2.649
    1C        C  409   4.315   4.095   2.772
    1C        C  410   4.179   4.257   2.890
    1C        C  411   4.272   4.151   2.895
    1C        C  412   4.127   4.309   3.011
    1C        C  413   4.175   4.260   3.134
    1C        C  414   4.009   4.391   3.256
    1C        C  415   4.125   4.310   3.256
    1C        C  416   3.945   4.422   3.378
    1C        C  417   4.007   4.391   3.501
    1C        C  418   3.815   4.482   3.621
    1C        C  419   3.943   4.423   3.623
    1C        C  420   3.750   4.512   3.743
    1C        C  421   3.816   4.488   3.865
    1C        C  422   3.613   4.532   3.990
    1C        C  423   3.752   4.512   3.988
    1C        C  424   3.543   4.536   4.113
    1C        C  425   3.613   4.535   4.235
    1C        C  426   3.405   4.541   4.360
    1C        C  427   3.546   4.554   4.358
    1C        C  428   3.333   4.542   4.481
    1C        C  429   3.404   4.561   4.602
    1C        C  430   3.194   4.521   4.725
    1C        C  431   3.334   4.548   4.723
    1C        C  432   3.127   4.491   4.846
    1C        C  433   3.204   4.492   4.963
    1C        C  434   4.393   4.124   2.060
    1C        C  435   4.453   3.998   2.058
    1C        C  436   4.306   4.170   2.165
    1C        C  437   4.336   4.102   2.287
    1C        C  438   4.179   4.251   2.403
    1C        C  439   4.282   4.154   2.406
    1C        C  440   4.126   4.302   2.524
    1C        C  441   4.180   4.254   2.645
    1C        C  442   4.007   4.378   2.766
    1C        C  443   4.126   4.302   2.767
    1C        C  444   3.946   4.416   2.887
    1C        C  445   4.006   4.381   3.010
    1C        C  446   3.817   4.476   3.132
    1C        C  447   3.947   4.422   3.133
    1C        C  448   3.748   4.497   3.254
    1C        C  449   3.816   4.479   3.376
    1C        C  450   3.609   4.526   3.500
    1C        C  451   3.748   4.502   3.498
    1C        C  452   3.541   4.543   3.623
    1C        C  453   3.611   4.538   3.746
    1C        C  454   3.400   4.543   3.867
    1C        C  455   3.541   4.541   3.869
    1C        C  456   3.332   4.534   3.991
    1C        C  457   3.402   4.539   4.114
    1C        C  458   3.197   4.500   4.238
    1C        C  459   3.335   4.532   4.238
    1C        C  460   3.129   4.481   4.361
    1C        C  461   3.194   4.515   4.481
    1C        C  462   3.000   4.433   4.607
    1C        C  463   3.127   4.494   4.603
    1C        C  464   2.930   4.405   4.726
    1C        C  465   2.992   4.444   4.848
    1C        C  466   2.805   4.334   4.964
    1C        C  467   2.909   4.428   4.964
    1C        C  468   4.123   4.288   2.043
    1C        C  469   4.192   4.255   2.161
    1C        C  470   4.009   4.377   2.281
    1C        C  471   4.124   4.294   2.280
    1C        C  472   3.944   4.411   2.402
    1C        C  473   4.009   4.381   2.523
    1C        C  474   3.815   4.471   2.647
    1C        C  475   3.942   4.408   2.644
    1C        C  476   3.748   4.497   2.768
    1C        C  477   3.816   4.472   2.889
    1C        C  478   3.608   4.518   3.009
    1C        C  479   3.747   4.490   3.011
    1C        C  480   3.538   4.531   3.131
    1C        C  481   3.608   4.521   3.253
    1C        C  482   3.399   4.533   3.379
    1C        C  483   3.541   4.529   3.377
    1C        C  484   3.328   4.536   3.501
    1C        C  485   3.400   4.545   3.622
    1C        C  486   3.193   4.500   3.747
    1C        C  487   3.329   4.537   3.745
    1C        C  488   3.127   4.480   3.871
    1C        C  489   3.195   4.500   3.993
    1C        C  490   3.004   4.414   4.118
    1C        C  491   3.130   4.479   4.116
    1C        C  492   2.944   4.378   4.240
    1C        C  493   3.001   4.420   4.362
    1C        C  494   2.831   4.300   4.485
    1C        C  495   2.941   4.389   4.486
    1C        C  496   2.775   4.254   4.606
    1C        C  497   2.820   4.314   4.726
    1C        C  498   2.670   4.165   4.847
    1C        C  499   2.754   4.278   4.846
    1C        C  500   2.595   4.121   4.957
    1C        C  501   4.003   4.357   2.041
    1C        C  502   3.817   4.465   2.159
    1C        C  503   3.945   4.406   2.159
    1C        C  504   3.745   4.489   2.278
    1C        C  505   3.813   4.464   2.400
    1C        C  506   3.609   4.509   2.523
    1C        C  507   3.748   4.488   2.523
    1C        C  508   3.536   4.518   2.644
    1C        C  509   3.608   4.515   2.766
    1C        C  510   3.396   4.526   2.889
    1C        C  511   3.537   4.526   2.887
    1C        C  512   3.325   4.524   3.011
    1C        C  513   3.397   4.530   3.133
    1C        C  514   3.190   4.496   3.258
    1C        C  515   3.329   4.525   3.257
    1C        C  516   3.124   4.474   3.381
    1C        C  517   3.191   4.500   3.502
    1C        C  518   3.001   4.411   3.627
    1C        C  519   3.127   4.474   3.625
    1C        C  520   2.943   4.374   3.750
    1C        C  521   3.002   4.415   3.872
    1C        C  522   2.835   4.288   3.997
    1C        C  523   2.945   4.376   3.995
    1C        C  524   2.784   4.242   4.120
    1C        C  525   2.832   4.292   4.243
    1C        C  526   2.695   4.133   4.365
    1C        C  527   2.778   4.247   4.366
    1C        C  528   2.651   4.079   4.488
    1C        C  529   2.687   4.144   4.608
    1C        C  530   2.587   3.960   4.733
    1C        C  531   2.638   4.092   4.730
    1C        C  532   2.543   3.903   4.855
    1C        C  533   2.530   3.997   4.963
    1C        C  534   3.622   4.557   2.041
    1C        C  535   3.754   4.511   2.042
    1C        C  536   3.537   4.542   2.156
    1C        C  537   3.606   4.517   2.278
    1C        C  538   3.396   4.519   2.403
    1C        C  539   3.538   4.521   2.402
    1C        C  540   3.323   4.519   2.524
    1C        C  541   3.395   4.525   2.645
    1C        C  542   3.185   4.492   2.767
    1C        C  543   3.324   4.519   2.767
    1C        C  544   3.120   4.469   2.890
    1C        C  545   3.188   4.490   3.012
    1C        C  546   2.999   4.404   3.136
    1C        C  547   3.123   4.472   3.137
    1C        C  548   2.939   4.367   3.259
    1C        C  549   3.000   4.406   3.380
    1C        C  550   2.834   4.281   3.508
    1C        C  551   2.941   4.372   3.504
    1C        C  552   2.781   4.235   3.631
    1C        C  553   2.832   4.286   3.752
    1C        C  554   2.697   4.125   3.877
    1C        C  555   2.785   4.236   3.875
    1C        C  556   2.660   4.067   4.000
    1C        C  557   2.696   4.131   4.121
    1C        C  558   2.594   3.946   4.247
    1C        C  559   2.659   4.071   4.244
    1C        C  560   2.567   3.880   4.369
    1C        C  561   2.592   3.950   4.489
    1C        C  562   2.536   3.750   4.617
    1C        C  563   2.565   3.888   4.613
    1C        C  564   2.521   3.683   4.741
    1C        C  565   2.523   3.761   4.859
    1C        C  566   2.534   3.548   4.978
    1C        C  567   2.533   3.687   4.977
    1C        C  568   3.330   4.478   2.045
    1C        C  569   3.397   4.521   2.161
    1C        C  570   3.185   4.480   2.282
    1C        C  571   3.323   4.514   2.282
    1C        C  572   3.115   4.464   2.403
    1C        C  573   3.186   4.485   2.523
    1C        C  574   2.990   4.405   2.652
    1C        C  575   3.118   4.465   2.645
    1C        C  576   2.931   4.365   2.774
    1C        C  577   2.997   4.401   2.893
    1C        C  578   2.827   4.274   3.018
    1C        C  579   2.939   4.360   3.016
    1C        C  580   2.778   4.227   3.142
    1C        C  581   2.830   4.278   3.263
    1C        C  582   2.698   4.115   3.386
    1C        C  583   2.785   4.227   3.387
    1C        C  584   2.660   4.061   3.510
    1C        C  585   2.694   4.125   3.632
    1C        C  586   2.594   3.939   3.758
    1C        C  587   2.656   4.066   3.755
    1C        C  588   2.575   3.870   3.880
    1C        C  589   2.608   3.936   4.001
    1C        C  590   2.543   3.740   4.130
    1C        C  591   2.580   3.876   4.125
    1C        C  592   2.530   3.671   4.253
    1C        C  593   2.533   3.743   4.375
    1C        C  594   2.516   3.534   4.501
    1C        C  595   2.527   3.675   4.498
    1C        C  596   2.523   3.465   4.624
    1C        C  597   2.518   3.541   4.743
    1C        C  598   2.536   3.327   4.867
    1C        C  599   2.530   3.468   4.863
    1C        C  600   2.538   3.250   4.984
    1C        C  601   3.197   4.442   2.047
    1C        C  602   2.981   4.399   2.161
    1C        C  603   3.118   4.443   2.162
    1C        C  604   2.924   4.366   2.287
    1C        C  605   2.985   4.408   2.407
    1C        C  606   2.823   4.275   2.531
    1C        C  607   2.927   4.371   2.530
    1C        C  608   2.770   4.225   2.652
    1C        C  609   2.820   4.278   2.773
    1C        C  610   2.686   4.117   2.894
    1C        C  611   2.770   4.230   2.896
    1C        C  612   2.654   4.056   3.017
    1C        C  613   2.691   4.115   3.140
    1C        C  614   2.593   3.931   3.268
    1C        C  615   2.655   4.058   3.264
    1C        C  616   2.568   3.868   3.392
    1C        C  617   2.600   3.933   3.513
    1C        C  618   2.538   3.733   3.638
    1C        C  619   2.575   3.869   3.637
    1C        C  620   2.523   3.665   3.761
    1C        C  621   2.535   3.735   3.883
    1C        C  622   2.520   3.528   4.011
    1C        C  623   2.528   3.669   4.008
    1C        C  624   2.520   3.458   4.133
    1C        C  625   2.522   3.530   4.254
    1C        C  626   2.542   3.324   4.380
    1C        C  627   2.517   3.463   4.378
    1C        C  628   2.561   3.255   4.502
    1C        C  629   2.544   3.325   4.623
    1C        C  630   2.592   3.120   4.744
    1C        C  631   2.550   3.256   4.746
    1C        C  632   2.615   3.049   4.865
    1C        C  633   2.560   3.111   4.982
    1C        C  634   2.780   4.308   2.055
    1C        C  635   2.891   4.393   2.050
    1C        C  636   2.751   4.234   2.171
    1C        C  637   2.814   4.276   2.290
    1C        C  638   2.675   4.116   2.411
    1C        C  639   2.766   4.223   2.412
    1C        C  640   2.641   4.053   2.533
    1C        C  641   2.681   4.115   2.654
    1C        C  642   2.586   3.925   2.779
    1C        C  643   2.645   4.053   2.775
    1C        C  644   2.563   3.860   2.902
    1C        C  645   2.591   3.929   3.022
    1C        C  646   2.535   3.727   3.151
    1C        C  647   2.571   3.863   3.145
    1C        C  648   2.523   3.658   3.274
    1C        C  649   2.535   3.731   3.395
    1C        C  650   2.512   3.520   3.518
    1C        C  651   2.525   3.661   3.517
    1C        C  652   2.521   3.454   3.643
    1C        C  653   2.519   3.524   3.766
    1C        C  654   2.540   3.317   3.892
    1C        C  655   2.516   3.456   3.890
    1C        C  656   2.563   3.252   4.015
    1C        C  657   2.540   3.318   4.138
    1C        C  658   2.606   3.117   4.261
    1C        C  659   2.555   3.249   4.260
    1C        C  660   2.639   3.055   4.384
    1C        C  661   2.613   3.124   4.505
    1C        C  662   2.713   2.937   4.627
    1C        C  663   2.635   3.055   4.626
    1C        C  664   2.756   2.879   4.748
    1C        C  665   2.704   2.937   4.867
    1C        C  666   2.749   2.875   4.985
    1C        C  667   2.678   4.028   2.056
    1C        C  668   2.682   4.111   2.170
    1C        C  669   2.587   3.919   2.294
    1C        C  670   2.638   4.052   2.290
    1C        C  671   2.556   3.855   2.416
    1C        C  672   2.585   3.924   2.536
    1C        C  673   2.527   3.719   2.659
    1C        C  674   2.564   3.856   2.657
    1C        C  675   2.514   3.651   2.782
    1C        C  676   2.532   3.722   2.903
    1C        C  677   2.516   3.517   3.030
    1C        C  678   2.523   3.658   3.028
    1C        C  679   2.518   3.446   3.152
    1C        C  680   2.517   3.517   3.275
    1C        C  681   2.538   3.308   3.402
    1C        C  682   2.515   3.447   3.397
    1C        C  683   2.555   3.242   3.526
    1C        C  684   2.543   3.315   3.646
    1C        C  685   2.613   3.118   3.773
    1C        C  686   2.557   3.248   3.770
    1C        C  687   2.642   3.055   3.896
    1C        C  688   2.610   3.119   4.018
    1C        C  689   2.720   2.938   4.139
    1C        C  690   2.642   3.055   4.140
    1C        C  691   2.762   2.884   4.263
    1C        C  692   2.714   2.936   4.385
    1C        C  693   2.755   2.877   4.506
    1C        C  694   2.625   3.899   2.060
    1C        C  695   2.533   3.706   2.177
    1C        C  696   2.575   3.841   2.177
    1C        C  697   2.511   3.641   2.301
    1C        C  698   2.525   3.717   2.419
    1C        C  699   2.498   3.504   2.543
    1C        C  700   2.510   3.645   2.540
    1C        C  701   2.510   3.437   2.666
    1C        C  702   2.507   3.510   2.787
    1C        C  703   2.529   3.301   2.913
    1C        C  704   2.514   3.442   2.911
    1C        C  705   2.553   3.237   3.036
    1C        C  706   2.543   3.307   3.159
    1C        C  707   2.600   3.104   3.279
    1C        C  708   2.552   3.237   3.280
    1C        C  709   2.635   3.046   3.403
    1C        C  710   2.607   3.111   3.525
    1C        C  711   2.714   2.932   3.650
    1C        C  712   2.640   3.053   3.650
    1C        C  713   2.756   2.877   3.774
    1C        C  714   2.717   2.935   3.896
    1C        C  715   2.759   2.876   4.018
    1C        C  716   2.443   3.502   2.066
    1C        C  717   2.495   3.632   2.064
    1C        C  718   2.469   3.424   2.183
    1C        C  719   2.490   3.501   2.301
    1C        C  720   2.522   3.291   2.426
    1C        C  721   2.495   3.430   2.423
    1C        C  722   2.540   3.224   2.549
    1C        C  723   2.524   3.297   2.669
    1C        C  724   2.594   3.097   2.793
    1C        C  725   2.545   3.230   2.792
    1C        C  726   2.629   3.035   2.914
    1C        C  727   2.600   3.104   3.034
    1C        C  728   2.704   2.920   3.159
    1C        C  729   2.627   3.038   3.156
    1C        C  730   2.750   2.870   3.283
    1C        C  731   2.709   2.926   3.406
    1C        C  732   2.754   2.873   3.529
    1C        C  733   2.500   3.202   2.071
    1C        C  734   2.495   3.284   2.185
    1C        C  735   2.590   3.088   2.306
    1C        C  736   2.533   3.218   2.306
    1C        C  737   2.622   3.025   2.428
    1C        C  738   2.591   3.092   2.549
    1C        C  739   2.699   2.912   2.671
    1C        C  740   2.622   3.030   2.672
    1C        C  741   2.743   2.856   2.794
    1C        C  742   2.700   2.913   2.916
    1C        C  743   2.748   2.862   3.039
    1C        C  744   2.548   3.071   2.073
    1C        C  745   2.681   2.895   2.187
    1C        C  746   2.610   3.017   2.186
    1C        C  747   2.727   2.838   2.307
    1C        C  748   2.689   2.900   2.428
    1C        C  749   2.735   2.848   2.551
    1C        C  750   2.738   2.841   2.071
    1C        C  751   3.673   2.318   1.984
    1C        O  752   3.713   2.205   2.024
    1C        O  753   3.629   2.303   1.852
    1C        C  754   4.579   3.055   1.944
    1C        O  755   4.543   3.083   1.826
    1C        O  756   4.688   2.968   1.962
    1C        C  757   4.439   4.216   1.953
    1C        O  758   4.538   4.292   1.972
    1C        O  759   4.404   4.182   1.822
    1C        C  760   3.597   4.663   1.941
    1C        O  761   3.563   4.780   1.969
    1C        O  762   3.561   4.626   1.810
    1C        C  763   2.880   4.507   1.957
    1C        O  764   2.919   4.492   1.838
    1C        O  765   2.774   4.598   1.974
    1C        C  766   2.342   3.481   1.959
    1C        O  767   2.367   3.460   1.838
    1C        O  768   2.212   3.529   1.976
    1C        C  769   4.670   3.589   5.082
    1C        O  770   4.622   3.575   5.198
    1C        O  771   4.800   3.638   5.099
    1C        C  772   4.279   4.487   5.014
    1C        O  773   4.327   4.450   5.125
    1C        O  774   4.364   4.580   4.951
    1C        C  775   4.139   2.526   5.083
    1C        O  776   4.215   2.428   5.058
    1C        O  777   4.091   2.513   5.213
    1C        C  778   2.905   4.522   5.078
    1C        O  779   2.876   4.644   5.067
    1C        O  780   2.929   4.487   5.212
    1C        C  781   2.471   3.027   5.064
    1C        O  782   2.352   2.998   5.034
    1C        O  783   2.502   3.001   5.197
    1C        C  784   2.405   4.013   5.041
    1C        O  785   2.292   4.037   4.991
    1C        O  786   2.412   3.952   5.166
    1C        C  787   2.952   2.437   1.999
    1C        O  788   2.965   2.430   1.874
    1C        O  789   2.896   2.322   2.053
    1C        C  790   3.194   2.378   5.071
    1C        O  791   3.157   2.268   5.023
    1C        O  792   3.161   2.392   5.207
    1C        H  793   4.274   3.034   5.051
    1C        H  794   4.221   2.789   5.073
    1C        H  795   4.521   3.119   5.051
    1C        H  796   4.512   3.369   5.070
    1C        H  797   4.525   3.800   5.056
    1C        H  798   4.361   3.952   5.039
    1C        H  799   4.273   4.163   5.054
    1C        H  800   4.004   4.487   5.047
    1C        H  801   3.818   4.628   5.031
    1C        H  802   3.588   4.648   5.034
    1C        H  803   3.391   4.502   5.049
    1C        H  804   3.166   4.452   5.055
    1C        H  805   3.902   2.457   5.056
    1C        H  806   3.677   2.402   5.044
    1C        H  807   2.996   2.553   5.063
    1C        H  808   3.448   2.520   5.071
    1C        H  809   2.888   2.751   5.082
    1C        H  810   2.697   2.896   5.076
    1C        H  811   2.471   3.279   5.062
    1C        H  812   2.472   3.505   5.054
    1C        H  813   2.513   3.737   5.069
    1C        H  814   2.591   4.183   5.044
    1C        H  815   2.771   4.298   5.059
    1C        H  816   2.680   2.847   1.981
    1C        H  817   2.871   2.719   1.977
    1C        H  818   3.199   2.410   1.997
    1C        H  819   3.425   2.430   1.980
    1C        H  820   3.836   2.598   1.993
    1C        H  821   4.090   2.564   1.991
    1C        H  822   4.235   2.737   1.973
    1C        H  823   4.346   2.938   1.973
    1C        H  824   4.619   3.301   1.981
    1C        H  825   4.548   3.526   1.965
    1C        H  826   4.515   3.747   1.954
    1C        H  827   3.818   4.563   1.974
    1C        H  828   3.937   4.342   1.957
    1C        H  829   4.136   4.227   1.957
    1C        H  830   4.533   3.983   1.989
    1C        H  831   2.617   3.844   1.968
    1C        H  832   2.744   4.045   1.974
    1C        H  833   2.693   4.332   1.997
    1C        H  834   3.356   4.536   1.959
    1C        H  835   3.165   4.405   1.952
    1C        H  836   2.542   3.008   1.987
    1C        H  837   2.493   3.257   1.980
    1C        H  838   2.509   3.678   1.968
    2V3OU   H29  839   2.808   3.550   5.131
    2V3OU   C27  840   2.789   3.506   5.232
    2V3OU   H27  841   2.731   3.572   5.302
    2V3OU   H28  842   2.734   3.408   5.224
    2V3OU   O11  843   2.912   3.486   5.302
    2V3OU   C15  844   2.925   3.399   5.408
    2V3OU   C13  845   3.052   3.374   5.462
    2V3OU   C14  846   3.073   3.271   5.555
    2V3OU   C16  847   2.966   3.193   5.597
    2V3OU    H6  848   2.987   3.111   5.667
    2V3OU   C12  849   3.214   3.234   5.581
    2V3OU    O2  850   3.240   3.134   5.651
    2V3OU   C10  851   3.326   3.313   5.528
    2V3OU    C8  852   3.458   3.274   5.544
    2V3OU   O10  853   3.491   3.159   5.610
    2V3OU   H26  854   3.406   3.117   5.632
    2V3OU    C6  855   3.566   3.352   5.491
    2V3OU    C5  856   3.537   3.471   5.425
    2V3OU    C4  857   3.703   3.295   5.481
    2V3OU    H4  858   3.733   3.230   5.568
    2V3OU    H5  859   3.716   3.232   5.388
    2V3OU    C2  860   3.815   3.400   5.480
    2V3OU    O6  861   3.810   3.478   5.601
    2V3OU   H21  862   3.764   3.560   5.577
    2V3OU    C3  863   3.784   3.499   5.368
    2V3OU    H2  864   3.867   3.574   5.365
    2V3OU    H3  865   3.785   3.440   5.272
    2V3OU   C25  866   3.952   3.334   5.466
    2V3OU    O7  867   3.994   3.298   5.356
    2V3OU   C26  868   4.029   3.285   5.587
    2V3OU   H22  869   4.061   3.385   5.626
    2V3OU   H23  870   4.124   3.234   5.556
    2V3OU    O8  871   3.971   3.209   5.691
    2V3OU   H24  872   3.932   3.261   5.763
    2V3OU    C1  873   3.648   3.564   5.389
    2V3OU    H1  874   3.625   3.619   5.293
    2V3OU    O3  875   3.665   3.662   5.492
    2V3OU   C19  876   3.621   3.795   5.462
    2V3OU    H9  877   3.518   3.801   5.416
    2V3OU    O4  878   3.720   3.849   5.377
    2V3OU   C20  879   3.850   3.878   5.427
    2V3OU   H10  880   3.899   3.778   5.445
    2V3OU   C24  881   3.609   3.859   5.601
    2V3OU   H16  882   3.549   3.789   5.662
    2V3OU   H17  883   3.562   3.960   5.587
    2V3OU   C23  884   3.750   3.877   5.658
    2V3OU   H15  885   3.792   3.773   5.680
    2V3OU    N1  886   3.737   3.959   5.777
    2V3OU   H19  887   3.809   3.915   5.832
    2V3OU   H20  888   3.647   3.935   5.814
    2V3OU   C21  889   3.845   3.953   5.560
    2V3OU   H11  890   3.948   3.934   5.602
    2V3OU    O5  891   3.828   4.094   5.564
    2V3OU   H18  892   3.769   4.108   5.640
    2V3OU   C22  893   3.916   3.953   5.312
    2V3OU   H12  894   3.859   4.047   5.290
    2V3OU   H13  895   3.910   3.893   5.218
    2V3OU   H14  896   4.025   3.966   5.334
    2V3OU   C11  897   3.157   3.472   5.433
    2V3OU    O1  898   3.131   3.589   5.396
    2V3OU    C9  899   3.298   3.434   5.459
    2V3OU    C7  900   3.401   3.511   5.406
    2V3OU    O9  901   3.386   3.632   5.342
    2V3OU   H25  902   3.295   3.634   5.307
    2V3OU   C17  903   2.821   3.312   5.450
    2V3OU    H7  904   2.721   3.345   5.423
    2V3OU   C18  905   2.838   3.212   5.545
    2V3OU    H8  906   2.751   3.151   5.574
    3SOL     OW  907   4.024   3.505   3.919
    3SOL    HW1  908   3.932   3.528   3.887
    3SOL    HW2  909   4.018   3.428   3.983
    4SOL     OW  910   6.849   0.041   0.261
    4SOL    HW1  911   6.770   0.088   0.299
    4SOL    HW2  912   6.856   6.977   0.301
    5SOL     OW  913   5.221   2.233   1.021
    5SOL    HW1  914   5.317   2.211   1.041
    5SOL    HW2  915   5.187   2.297   1.090
    6SOL     OW  916   5.768   0.620   2.379
    6SOL    HW1  917   5.718   0.606   2.294
    6SOL    HW2  918   5.751   0.542   2.440
    7SOL     OW  919   0.886   4.390   4.624
    7SOL    HW1  920   0.921   4.448   4.550
    7SOL    HW2  921   0.962   4.340   4.666
    8SOL     OW  922   1.662   3.796   5.004
    8SOL    HW1  923   1.632   3.790   5.099
    8SOL    HW2  924   1.734   3.864   4.996
    9SOL     OW  925   0.045   0.943   6.430
    9SOL    HW1  926   7.005   0.870   6.418
    9SOL    HW2  927   0.053   0.996   6.346
   10SOL     OW  928   4.994   4.383   2.398
   10SOL    HW1  929   5.020   4.328   2.478
   10SOL    HW2  930   5.067   4.449   2.379
   11SOL     OW  931   2.490   2.101   0.439
   11SOL    HW1  932   2.585   2.077   0.420
   11SOL    HW2  933   2.484   2.199   0.456
   12SOL     OW  934   3.553   4.950   3.301
   12SOL    HW1  935   3.634   4.964   3.357
   12SOL    HW2  936   3.516   4.858   3.318
   13SOL     OW  937   5.535   6.215   1.408
   13SOL    HW1  938   5.475   6.137   1.389
   13SOL    HW2  939   5.480   6.292   1.439
   14SOL     OW  940   4.732   5.545   4.988
   14SOL    HW1  941   4.702   5.524   4.896
   14SOL    HW2  942   4.758   5.642   4.994
   15SOL     OW  943   6.971   6.490   6.041
   15SOL    HW1  944   6.972   6.393   6.015
   15SOL    HW2  945   0.003   6.541   5.979
   16SOL     OW  946   1.123   4.198   4.875
   16SOL    HW1  947   1.185   4.225   4.801
   16SOL    HW2  948   1.173   4.201   4.962
   17SOL     OW  949   6.577   2.016   4.800
   17SOL    HW1  950   6.614   2.000   4.891
   17SOL    HW2  951   6.477   2.012   4.803
   18SOL     OW  952   2.175   1.085   5.935
   18SOL    HW1  953   2.107   1.157   5.951
   18SOL    HW2  954   2.253   1.124   5.884
   19SOL     OW  955   2.515   0.507   3.081
   19SOL    HW1  956   2.490   0.412   3.099
   19SOL    HW2  957   2.580   0.538   3.150
   20SOL     OW  958   6.731   1.753   5.650
   20SOL    HW1  959   6.804   1.701   5.694
   20SOL    HW2  960   6.694   1.699   5.574
   21SOL     OW  961   2.920   4.804   3.288
   21SOL    HW1  962   2.882   4.894   3.266
   21SOL    HW2  963   2.863   4.759   3.356
   22SOL     OW  964   1.626   0.389   6.377
   22SOL    HW1  965   1.604   0.407   6.472
   22SOL    HW2  966   1.593   0.464   6.320
   23SOL     OW  967   6.208   4.754   1.352
   23SOL    HW1  968   6.135   4.812   1.388
   23SOL    HW2  969   6.281   4.747   1.420
   24SOL     OW  970   4.599   0.836   0.707
   24SOL    HW1  971   4.664   0.888   0.761
   24SOL    HW2  972   4.601   0.867   0.612
   25SOL     OW  973   1.446   1.031   4.781
   25SOL    HW1  974   1.427   0.947   4.833
   25SOL    HW2  975   1.373   1.045   4.714
   26SOL     OW  976   1.281   2.967   0.007
   26SOL    HW1  977   1.278   3.015   6.947
   26SOL    HW2  978   1.235   2.879   7.025
   27SOL     OW  979   5.913   1.263   1.375
   27SOL    HW1  980   5.964   1.177   1.369
   27SOL    HW2  981   5.971   1.338   1.341
   28SOL     OW  982   2.601   1.089   5.374
   28SOL    HW1  983   2.602   1.075   5.473
   28SOL    HW2  984   2.636   1.180   5.353
   29SOL     OW  985   0.627   0.073   1.330
   29SOL    HW1  986   0.580   0.025   1.256
   29SOL    HW2  987   0.611   0.172   1.320
   30SOL     OW  988   4.731   0.345   4.990
   30SOL    HW1  989   4.813   0.329   4.935
   30SOL    HW2  990   4.754   0.400   5.070
   31SOL     OW  991   1.329   3.645   5.693
   31SOL    HW1  992   1.424   3.677   5.699
   31SOL    HW2  993   1.303   3.603   5.780
   32SOL     OW  994   3.017   0.506   1.276
   32SOL    HW1  995   3.080   0.477   1.204
   32SOL    HW2  996   2.931   0.456   1.267
   33SOL     OW  997   1.444   5.256   6.535
   33SOL    HW1  998   1.373   5.325   6.543
   33SOL    HW2  999   1.500   5.255   6.618
   34SOL     OW 1000   2.139   5.177   5.585
   34SOL    HW1 1001   2.096   5.111   5.647
   34SOL    HW2 1002   2.112   5.270   5.611
   35SOL     OW 1003   2.461   3.475   6.903
   35SOL    HW1 1004   2.535   3.410   6.887
   35SOL    HW2 1005   2.376   3.425   6.920
   36SOL     OW 1006   4.435   1.288   4.538
   36SOL    HW1 1007   4.515   1.338   4.508
   36SOL    HW2 1008   4.410   1.220   4.469
   37SOL     OW 1009   3.017   0.421   4.300
   37SOL    HW1 1010   3.024   0.322   4.286
   37SOL    HW2 1011   2.929   0.453   4.264
   38SOL     OW 1012   6.894   4.338   2.917
   38SOL    HW1 1013   6.830   4.329   2.993
   38SOL    HW2 1014   6.931   4.248   2.894
   39SOL     OW 1015   6.605   5.171   6.983
   39SOL    HW1 1016   6.667   5.241   6.948
   39SOL    HW2 1017   6.641   5.134   0.041
   40SOL     OW 1018   3.825   1.126   6.801
   40SOL    HW1 1019   3.905   1.090   6.849
   40SOL    HW2 1020   3.852   1.155   6.709
   41SOL     OW 1021   5.530   3.779   1.688
   41SOL    HW1 1022   5.479   3.864   1.676
   41SOL    HW2 1023   5.628   3.797   1.674
   42SOL     OW 1024   2.954   5.683   6.228
   42SOL    HW1 1025   2.872   5.627   6.229
   42SOL    HW2 1026   3.031   5.630   6.262
   43SOL     OW 1027   3.919   6.828   4.846
   43SOL    HW1 1028   4.018   6.837   4.851
   43SOL    HW2 1029   3.881   6.908   4.799
   44SOL     OW 1030   0.057   0.919   5.688
   44SOL    HW1 1031   0.079   0.958   5.777
   44SOL    HW2 1032   0.016   0.990   5.630
   45SOL     OW 1033   2.313   5.457   0.113
   45SOL    HW1 1034   2.213   5.452   0.102
   45SOL    HW2 1035   2.344   5.550   0.096
   46SOL     OW 1036   0.408   3.017   4.123
   46SOL    HW1 1037   0.430   3.031   4.027
   46SOL    HW2 1038   0.357   3.096   4.158
   47SOL     OW 1039   6.179   2.657   1.044
   47SOL    HW1 1040   6.127   2.571   1.035
   47SOL    HW2 1041   6.262   2.651   0.988
   48SOL     OW 1042   6.316   3.531   0.841
   48SOL    HW1 1043   6.316   3.488   0.751
   48SOL    HW2 1044   6.407   3.521   0.883
   49SOL     OW 1045   4.012   4.030   0.349
   49SOL    HW1 1046   4.108   4.061   0.349
   49SOL    HW2 1047   4.005   3.942   0.304
   50SOL     OW 1048   6.503   3.044   6.910
   50SOL    HW1 1049   6.549   3.056   6.998
   50SOL    HW2 1050   6.420   2.989   6.922
   51SOL     OW 1051   2.042   5.843   3.173
   51SOL    HW1 1052   2.061   5.941   3.170
   51SOL    HW2 1053   2.126   5.793   3.193
   52SOL     OW 1054   5.919   2.572   1.407
   52SOL    HW1 1055   5.859   2.642   1.368
   52SOL    HW2 1056   5.868   2.519   1.474
   53SOL     OW 1057   4.110   0.126   2.254
   53SOL    HW1 1058   4.192   0.087   2.214
   53SOL    HW2 1059   4.099   0.095   2.348
   54SOL     OW 1060   5.603   0.264   6.813
   54SOL    HW1 1061   5.672   0.245   6.883
   54SOL    HW2 1062   5.598   0.363   6.798
   55SOL     OW 1063   0.983   3.166   6.699
   55SOL    HW1 1064   0.976   3.122   6.789
   55SOL    HW2 1065   1.020   3.258   6.710
   56SOL     OW 1066   0.949   2.816   6.740
   56SOL    HW1 1067   0.956   2.876   6.820
   56SOL    HW2 1068   1.022   2.838   6.675
   57SOL     OW 1069   4.377   6.407   6.852
   57SOL    HW1 1070   4.436   6.329   6.831
   57SOL    HW2 1071   4.428   6.475   6.905
   58SOL     OW 1072   0.467   0.386   6.828
   58SOL    HW1 1073   0.441   0.453   6.759
   58SOL    HW2 1074   0.556   0.346   6.805
   59SOL     OW 1075   4.955   3.238   5.702
   59SOL    HW1 1076   4.934   3.195   5.614
   59SOL    HW2 1077   4.946   3.337   5.694
   60SOL     OW 1078   5.331   1.296   2.903
   60SOL    HW1 1079   5.362   1.210   2.943
   60SOL    HW2 1080   5.408   1.360   2.896
   61SOL     OW 1081   6.858   5.819   4.504
   61SOL    HW1 1082   6.866   5.872   4.589
   61SOL    HW2 1083   6.785   5.858   4.448
   62SOL     OW 1084   6.238   2.622   2.246
   62SOL    HW1 1085   6.200   2.713   2.262
   62SOL    HW2 1086   6.319   2.610   2.303
   63SOL     OW 1087   4.262   6.550   5.308
   63SOL    HW1 1088   4.186   6.489   5.329
   63SOL    HW2 1089   4.228   6.631   5.260
   64SOL     OW 1090   0.927   4.269   5.741
   64SOL    HW1 1091   1.022   4.279   5.770
   64SOL    HW2 1092   0.867   4.316   5.806
   65SOL     OW 1093   0.443   6.818   5.109
   65SOL    HW1 1094   0.392   6.853   5.030
   65SOL    HW2 1095   0.388   6.749   5.157
   66SOL     OW 1096   4.041   0.792   2.213
   66SOL    HW1 1097   4.030   0.865   2.146
   66SOL    HW2 1098   3.955   0.779   2.262
   67SOL     OW 1099   0.254   2.862   1.504
   67SOL    HW1 1100   0.295   2.837   1.592
   67SOL    HW2 1101   0.293   2.949   1.473
   68SOL     OW 1102   0.121   1.988   5.193
   68SOL    HW1 1103   0.052   2.034   5.137
   68SOL    HW2 1104   0.079   1.955   5.278
   69SOL     OW 1105   0.589   6.287   6.248
   69SOL    HW1 1106   0.669   6.321   6.198
   69SOL    HW2 1107   0.618   6.255   6.339
   70SOL     OW 1108   5.219   3.497   4.588
   70SOL    HW1 1109   5.216   3.489   4.488
   70SOL    HW2 1110   5.152   3.435   4.628
   71SOL     OW 1111   4.941   2.068   5.151
   71SOL    HW1 1112   5.011   2.013   5.196
   71SOL    HW2 1113   4.969   2.086   5.057
   72SOL     OW 1114   6.935   0.461   3.822
   72SOL    HW1 1115   6.895   0.397   3.888
   72SOL    HW2 1116   6.991   0.411   3.756
   73SOL     OW 1117   3.030   0.914   1.119
   73SOL    HW1 1118   2.940   0.906   1.161
   73SOL    HW2 1119   3.021   0.946   1.025
   74SOL     OW 1120   2.561   1.983   0.890
   74SOL    HW1 1121   2.547   1.971   0.988
   74SOL    HW2 1122   2.656   1.962   0.867
   75SOL     OW 1123   3.578   3.716   0.788
   75SOL    HW1 1124   3.624   3.713   0.877
   75SOL    HW2 1125   3.561   3.622   0.757
   76SOL     OW 1126   3.469   4.768   5.472
   76SOL    HW1 1127   3.455   4.857   5.516
   76SOL    HW2 1128   3.401   4.755   5.400
   77SOL     OW 1129   0.487   4.829   4.646
   77SOL    HW1 1130   0.578   4.871   4.649
   77SOL    HW2 1131   0.473   4.775   4.729
   78SOL     OW 1132   4.530   1.647   0.993
   78SOL    HW1 1133   4.589   1.601   1.060
   78SOL    HW2 1134   4.572   1.734   0.967
   79SOL     OW 1135   1.072   4.622   3.132
   79SOL    HW1 1136   1.103   4.645   3.040
   79SOL    HW2 1137   1.003   4.689   3.161
   80SOL     OW 1138   3.728   0.715   4.929
   80SOL    HW1 1139   3.679   0.799   4.952
   80SOL    HW2 1140   3.791   0.733   4.853
   81SOL     OW 1141   4.248   5.870   1.585
   81SOL    HW1 1142   4.296   5.947   1.543
   81SOL    HW2 1143   4.150   5.878   1.566
   82SOL     OW 1144   2.881   6.318   2.041
   82SOL    HW1 1145   2.953   6.253   2.067
   82SOL    HW2 1146   2.917   6.411   2.050
   83SOL     OW 1147   5.482   1.070   4.743
   83SOL    HW1 1148   5.468   1.031   4.834
   83SOL    HW2 1149   5.394   1.099   4.706
   84SOL     OW 1150   5.113   2.637   2.180
   84SOL    HW1 1151   5.144   2.575   2.108
   84SOL    HW2 1152   5.023   2.609   2.212
   85SOL     OW 1153   2.226   6.831   4.418
   85SOL    HW1 1154   2.148   6.853   4.359
   85SOL    HW2 1155   2.194   6.773   4.494
   86SOL     OW 1156   6.096   0.416   0.067
   86SOL    HW1 1157   6.116   0.401   0.164
   86SOL    HW2 1158   6.174   0.463   0.025
   87SOL     OW 1159   2.376   4.300   6.424
   87SOL    HW1 1160   2.364   4.250   6.338
   87SOL    HW2 1161   2.413   4.391   6.405
   88SOL     OW 1162   3.732   4.123   0.724
   88SOL    HW1 1163   3.751   4.209   0.771
   88SOL    HW2 1164   3.643   4.088   0.753
   89SOL     OW 1165   3.190   4.050   4.056
   89SOL    HW1 1166   3.246   4.109   4.115
   89SOL    HW2 1167   3.215   4.064   3.961
   90SOL     OW 1168   4.867   3.674   2.222
   90SOL    HW1 1169   4.835   3.586   2.185
   90SOL    HW2 1170   4.806   3.747   2.191
   91SOL     OW 1171   4.440   5.565   5.440
   91SOL    HW1 1172   4.379   5.510   5.497
   91SOL    HW2 1173   4.464   5.513   5.358
   92SOL     OW 1174   5.500   3.585   6.104
   92SOL    HW1 1175   5.420   3.524   6.108
   92SOL    HW2 1176   5.543   3.576   6.014
   93SOL     OW 1177   2.990   3.270   2.334
   93SOL    HW1 1178   3.010   3.263   2.237
   93SOL    HW2 1179   3.030   3.191   2.382
   94SOL     OW 1180   3.100   1.471   5.058
   94SOL    HW1 1181   3.026   1.507   5.001
   94SOL    HW2 1182   3.072   1.383   5.097
   95SOL     OW 1183   0.857   0.606   4.065
   95SOL    HW1 1184   0.842   0.704   4.077
   95SOL    HW2 1185   0.796   0.555   4.127
   96SOL     OW 1186   6.337   4.942   0.329
   96SOL    HW1 1187   6.272   4.867   0.317
   96SOL    HW2 1188   6.428   4.911   0.301
   97SOL     OW 1189   2.048   5.013   5.819
   97SOL    HW1 1190   1.951   5.031   5.806
   97SOL    HW2 1191   2.063   4.914   5.823
   98SOL     OW 1192   1.954   2.149   3.353
   98SOL    HW1 1193   1.932   2.055   3.327
   98SOL    HW2 1194   2.012   2.190   3.283
   99SOL     OW 1195   3.750   3.491   5.046
   99SOL    HW1 1196   3.752   3.591   5.049
   99SOL    HW2 1197   3.839   3.457   5.015
  100SOL     OW 1198   6.890   1.507   4.770
  100SOL    HW1 1199   6.976   1.506   4.820
  100SOL    HW2 1200   6.829   1.575   4.810
  101SOL     OW 1201   6.522   3.424   2.803
  101SOL    HW1 1202   6.593   3.380   2.749
  101SOL    HW2 1203   6.496   3.511   2.760
  102SOL     OW 1204   4.593   6.696   0.275
  102SOL    HW1 1205   4.570   6.712   0.179
  102SOL    HW2 1206   4.692   6.683   0.283
  103SOL     OW 1207   3.478   1.132   2.215
  103SOL    HW1 1208   3.519   1.082   2.139
  103SOL    HW2 1209   3.397   1.180   2.183
  104SOL     OW 1210   6.489   4.719   2.432
  104SOL    HW1 1211   6.390   4.713   2.442
  104SOL    HW2 1212   6.520   4.648   2.369
  105SOL     OW 1213   6.448   1.049   5.279
  105SOL    HW1 1214   6.399   0.964   5.299
  105SOL    HW2 1215   6.442   1.069   5.181
  106SOL     OW 1216   4.933   5.202   1.588
  106SOL    HW1 1217   4.964   5.108   1.582
  106SOL    HW2 1218   4.843   5.204   1.632
  107SOL     OW 1219   5.801   6.754   1.114
  107SOL    HW1 1220   5.836   6.828   1.058
  107SOL    HW2 1221   5.866   6.733   1.187
  108SOL     OW 1222   2.497   1.593   3.994
  108SOL    HW1 1223   2.507   1.689   3.969
  108SOL    HW2 1224   2.587   1.548   3.991
  109SOL     OW 1225   1.875   0.903   4.549
  109SOL    HW1 1226   1.930   0.863   4.476
  109SOL    HW2 1227   1.915   0.880   4.638
  110SOL     OW 1228   3.503   4.215   5.672
  110SOL    HW1 1229   3.420   4.198   5.619
  110SOL    HW2 1230   3.484   4.203   5.769
  111SOL     OW 1231   6.080   2.093   1.241
  111SOL    HW1 1232   6.052   2.048   1.326
  111SOL    HW2 1233   6.043   2.185   1.239
  112SOL     OW 1234   4.930   6.441   6.452
  112SOL    HW1 1235   4.901   6.496   6.373
  112SOL    HW2 1236   4.973   6.357   6.420
  113SOL     OW 1237   0.465   6.209   2.135
  113SOL    HW1 1238   0.496   6.215   2.040
  113SOL    HW2 1239   0.527   6.261   2.194
  114SOL     OW 1240   0.228   3.082   2.726
  114SOL    HW1 1241   0.196   3.001   2.774
  114SOL    HW2 1242   0.150   3.138   2.699
  115SOL     OW 1243   5.410   0.468   3.518
  115SOL    HW1 1244   5.435   0.505   3.607
  115SOL    HW2 1245   5.346   0.530   3.473
  116SOL     OW 1246   0.364   5.254   0.300
  116SOL    HW1 1247   0.329   5.318   0.232
  116SOL    HW2 1248   0.288   5.201   0.338
  117SOL     OW 1249   2.242   2.246   0.567
  117SOL    HW1 1250   2.183   2.165   0.561
  117SOL    HW2 1251   2.305   2.235   0.644
  118SOL     OW 1252   0.560   2.071   3.358
  118SOL    HW1 1253   0.635   2.060   3.423
  118SOL    HW2 1254   0.510   1.985   3.349
  119SOL     OW 1255   6.197   6.959   6.045
  119SOL    HW1 1256   6.250   7.018   5.984
  119SOL    HW2 1257   6.250   6.877   6.067
  120SOL     OW 1258   5.285   2.647   4.826
  120SOL    HW1 1259   5.215   2.711   4.855
  120SOL    HW2 1260   5.251   2.553   4.835
  121SOL     OW 1261   1.034   4.852   6.669
  121SOL    HW1 1262   1.122   4.828   6.627
  121SOL    HW2 1263   0.980   4.769   6.682
  122SOL     OW 1264   0.237   4.293   6.528
  122SOL    HW1 1265   0.153   4.278   6.581
  122SOL    HW2 1266   0.267   4.387   6.540
  123SOL     OW 1267   1.053   1.904   1.871
  123SOL    HW1 1268   1.058   2.001   1.847
  123SOL    HW2 1269   0.993   1.856   1.807
  124SOL     OW 1270   2.043   2.798   0.488
  124SOL    HW1 1271   2.015   2.834   0.399
  124SOL    HW2 1272   1.962   2.767   0.538
  125SOL     OW 1273   4.259   3.375   0.407
  125SOL    HW1 1274   4.207   3.438   0.464
  125SOL    HW2 1275   4.352   3.410   0.396
  126SOL     OW 1276   4.053   3.897   4.525
  126SOL    HW1 1277   4.111   3.975   4.503
  126SOL    HW2 1278   4.024   3.851   4.441
  127SOL     OW 1279   0.636   5.446   5.539
  127SOL    HW1 1280   0.639   5.477   5.634
  127SOL    HW2 1281   0.729   5.430   5.506
  128SOL     OW 1282   4.328   3.132   6.829
  128SOL    HW1 1283   4.229   3.121   6.834
  128SOL    HW2 1284   4.357   3.208   6.888
  129SOL     OW 1285   1.217   5.266   1.778
  129SOL    HW1 1286   1.193   5.267   1.681
  129SOL    HW2 1287   1.287   5.336   1.796
  130SOL     OW 1288   6.561   2.973   4.399
  130SOL    HW1 1289   6.556   2.975   4.299
  130SOL    HW2 1290   6.496   3.040   4.436
  131SOL     OW 1291   0.303   2.406   3.588
  131SOL    HW1 1292   0.258   2.449   3.667
  131SOL    HW2 1293   0.375   2.345   3.621
  132SOL     OW 1294   3.933   3.142   2.002
  132SOL    HW1 1295   3.989   3.222   2.022
  132SOL    HW2 1296   3.849   3.171   1.956
  133SOL     OW 1297   5.406   6.535   6.194
  133SOL    HW1 1298   5.448   6.534   6.103
  133SOL    HW2 1299   5.308   6.521   6.185
  134SOL     OW 1300   5.646   1.530   1.486
  134SOL    HW1 1301   5.676   1.522   1.391
  134SOL    HW2 1302   5.584   1.608   1.496
  135SOL     OW 1303   4.867   2.688   3.622
  135SOL    HW1 1304   4.931   2.765   3.619
  135SOL    HW2 1305   4.918   2.604   3.640
  136SOL     OW 1306   3.449   7.014   6.532
  136SOL    HW1 1307   3.410   0.048   6.464
  136SOL    HW2 1308   3.429   6.919   6.506
  137SOL     OW 1309   3.130   3.436   5.833
  137SOL    HW1 1310   3.084   3.377   5.766
  137SOL    HW2 1311   3.128   3.392   5.923
  138SOL     OW 1312   1.048   5.219   6.330
  138SOL    HW1 1313   1.121   5.180   6.386
  138SOL    HW2 1314   1.036   5.164   6.247
  139SOL     OW 1315   1.759   6.485   0.904
  139SOL    HW1 1316   1.780   6.509   0.999
  139SOL    HW2 1317   1.796   6.394   0.884
  140SOL     OW 1318   3.162   0.431   1.023
  140SOL    HW1 1319   3.250   0.477   1.035
  140SOL    HW2 1320   3.170   0.366   0.947
  141SOL     OW 1321   0.269   2.624   0.261
  141SOL    HW1 1322   0.278   2.532   0.298
  141SOL    HW2 1323   0.234   2.685   0.332
  142SOL     OW 1324   1.151   4.202   1.829
  142SOL    HW1 1325   1.129   4.239   1.738
  142SOL    HW2 1326   1.119   4.266   1.899
  143SOL     OW 1327   4.912   6.218   2.055
  143SOL    HW1 1328   4.878   6.126   2.037
  143SOL    HW2 1329   4.977   6.244   1.984
  144SOL     OW 1330   3.330   4.920   4.020
  144SOL    HW1 1331   3.428   4.912   3.999
  144SOL    HW2 1332   3.277   4.879   3.946
  145SOL     OW 1333   6.971   4.913   3.215
  145SOL    HW1 1334   6.917   4.907   3.299
  145SOL    HW2 1335   6.988   4.821   3.180
  146SOL     OW 1336   5.675   1.008   6.143
  146SOL    HW1 1337   5.711   1.058   6.064
  146SOL    HW2 1338   5.751   0.980   6.202
  147SOL     OW 1339   5.029   0.953   4.806
  147SOL    HW1 1340   5.115   0.980   4.850
  147SOL    HW2 1341   4.997   0.867   4.844
  148SOL     OW 1342   0.766   5.523   0.872
  148SOL    HW1 1343   0.849   5.535   0.818
  148SOL    HW2 1344   0.692   5.578   0.831
  149SOL     OW 1345   1.822   2.282   5.247
  149SOL    HW1 1346   1.867   2.347   5.185
  149SOL    HW2 1347   1.855   2.297   5.340
  150SOL     OW 1348   4.377   1.293   5.038
  150SOL    HW1 1349   4.358   1.328   4.946
  150SOL    HW2 1350   4.300   1.313   5.098
  151SOL     OW 1351   4.003   2.897   0.974
  151SOL    HW1 1352   3.947   2.820   0.945
  151SOL    HW2 1353   4.048   2.937   0.894
  152SOL     OW 1354   0.313   2.369   0.921
  152SOL    HW1 1355   0.224   2.409   0.943
  152SOL    HW2 1356   0.381   2.399   0.988
  153SOL     OW 1357   2.700   1.166   3.346
  153SOL    HW1 1358   2.706   1.067   3.329
  153SOL    HW2 1359   2.683   1.182   3.444
  154SOL     OW 1360   6.396   1.509   2.725
  154SOL    HW1 1361   6.485   1.550   2.743
  154SOL    HW2 1362   6.324   1.568   2.762
  155SOL     OW 1363   0.494   6.768   2.135
  155SOL    HW1 1364   0.483   6.855   2.182
  155SOL    HW2 1365   0.578   6.769   2.081
  156SOL     OW 1366   4.993   2.448   0.414
  156SOL    HW1 1367   4.945   2.529   0.448
  156SOL    HW2 1368   4.966   2.368   0.467
  157SOL     OW 1369   3.371   5.365   0.515
  157SOL    HW1 1370   3.421   5.448   0.493
  157SOL    HW2 1371   3.420   5.315   0.587
  158SOL     OW 1372   0.226   2.620   3.412
  158SOL    HW1 1373   0.227   2.553   3.339
  158SOL    HW2 1374   0.245   2.575   3.499
  159SOL     OW 1375   5.949   5.143   0.659
  159SOL    HW1 1376   5.958   5.178   0.752
  159SOL    HW2 1377   6.019   5.074   0.643
  160SOL     OW 1378   6.605   0.082   2.191
  160SOL    HW1 1379   6.562   0.172   2.185
  160SOL    HW2 1380   6.537   0.011   2.173
  161SOL     OW 1381   0.378   6.011   0.720
  161SOL    HW1 1382   0.441   5.945   0.761
  161SOL    HW2 1383   0.387   6.008   0.620
  162SOL     OW 1384   4.447   6.632   0.010
  162SOL    HW1 1385   4.424   6.726   7.013
  162SOL    HW2 1386   4.382   6.598   0.077
  163SOL     OW 1387   0.176   4.418   3.090
  163SOL    HW1 1388   0.252   4.468   3.047
  163SOL    HW2 1389   0.170   4.327   3.050
  164SOL     OW 1390   2.515   2.122   3.853
  164SOL    HW1 1391   2.591   2.186   3.861
  164SOL    HW2 1392   2.504   2.096   3.757
  165SOL     OW 1393   0.288   6.207   3.404
  165SOL    HW1 1394   0.258   6.141   3.472
  165SOL    HW2 1395   0.288   6.299   3.444
  166SOL     OW 1396   6.497   4.225   3.538
  166SOL    HW1 1397   6.524   4.157   3.469
  166SOL    HW2 1398   6.442   4.180   3.609
  167SOL     OW 1399   2.957   2.185   6.967
  167SOL    HW1 1400   3.029   2.182   6.897
  167SOL    HW2 1401   2.870   2.160   6.926
  168SOL     OW 1402   5.126   3.996   1.093
  168SOL    HW1 1403   5.207   4.015   1.148
  168SOL    HW2 1404   5.075   3.920   1.134
  169SOL     OW 1405   4.782   2.098   0.757
  169SOL    HW1 1406   4.780   2.169   0.827
  169SOL    HW2 1407   4.803   2.010   0.799
  170SOL     OW 1408   0.115   6.032   2.378
  170SOL    HW1 1409   0.112   6.104   2.309
  170SOL    HW2 1410   0.033   5.975   2.371
  171SOL     OW 1411   3.793   3.958   0.514
  171SOL    HW1 1412   3.775   4.032   0.579
  171SOL    HW2 1413   3.873   3.982   0.458
  172SOL     OW 1414   0.006   2.289   6.449
  172SOL    HW1 1415   0.007   2.189   6.443
  172SOL    HW2 1416   0.056   2.317   6.531
  173SOL     OW 1417   6.964   1.772   4.200
  173SOL    HW1 1418   6.965   1.733   4.292
  173SOL    HW2 1419   6.879   1.746   4.154
  174SOL     OW 1420   5.853   5.366   5.178
  174SOL    HW1 1421   5.858   5.325   5.087
  174SOL    HW2 1422   5.886   5.460   5.174
  175SOL     OW 1423   0.391   6.970   1.494
  175SOL    HW1 1424   0.407   6.917   1.412
  175SOL    HW2 1425   0.406   6.913   1.575
  176SOL     OW 1426   6.115   4.512   1.453
  176SOL    HW1 1427   6.019   4.533   1.472
  176SOL    HW2 1428   6.158   4.589   1.407
  177SOL     OW 1429   5.987   3.065   4.635
  177SOL    HW1 1430   5.935   3.121   4.700
  177SOL    HW2 1431   5.947   3.075   4.544
  178SOL     OW 1432   2.242   6.096   5.985
  178SOL    HW1 1433   2.274   6.154   6.060
  178SOL    HW2 1434   2.142   6.093   5.986
  179SOL     OW 1435   3.310   4.597   1.273
  179SOL    HW1 1436   3.286   4.669   1.338
  179SOL    HW2 1437   3.238   4.591   1.203
  180SOL     OW 1438   3.814   0.986   0.381
  180SOL    HW1 1439   3.784   1.028   0.295
  180SOL    HW2 1440   3.738   0.934   0.420
  181SOL     OW 1441   3.049   2.290   5.729
  181SOL    HW1 1442   3.110   2.260   5.803
  181SOL    HW2 1443   2.993   2.366   5.762
  182SOL     OW 1444   4.272   2.844   6.828
  182SOL    HW1 1445   4.329   2.918   6.793
  182SOL    HW2 1446   4.243   2.785   6.753
  183SOL     OW 1447   3.263   1.559   3.273
  183SOL    HW1 1448   3.346   1.528   3.320
  183SOL    HW2 1449   3.211   1.619   3.333
  184SOL     OW 1450   5.371   5.936   3.403
  184SOL    HW1 1451   5.337   5.973   3.489
  184SOL    HW2 1452   5.295   5.897   3.351
  185SOL     OW 1453   6.840   0.764   3.849
  185SOL    HW1 1454   6.849   0.665   3.856
  185SOL    HW2 1455   6.760   0.794   3.901
  186SOL     OW 1456   4.500   6.530   3.905
  186SOL    HW1 1457   4.467   6.449   3.954
  186SOL    HW2 1458   4.433   6.603   3.913
  187SOL     OW 1459   3.978   6.487   1.773
  187SOL    HW1 1460   3.936   6.401   1.745
  187SOL    HW2 1461   3.958   6.558   1.705
  188SOL     OW 1462   1.617   3.461   3.311
  188SOL    HW1 1463   1.660   3.551   3.322
  188SOL    HW2 1464   1.624   3.410   3.397
  189SOL     OW 1465   5.830   5.040   6.052
  189SOL    HW1 1466   5.887   5.119   6.027
  189SOL    HW2 1467   5.823   4.977   5.975
  190SOL     OW 1468   5.900   0.620   0.110
  190SOL    HW1 1469   5.956   0.549   0.068
  190SOL    HW2 1470   5.852   0.583   0.189
  191SOL     OW 1471   0.143   1.293   4.908
  191SOL    HW1 1472   0.111   1.387   4.910
  191SOL    HW2 1473   0.077   1.234   4.956
  192SOL     OW 1474   0.507   5.136   0.826
  192SOL    HW1 1475   0.559   5.213   0.864
  192SOL    HW2 1476   0.411   5.163   0.816
  193SOL     OW 1477   2.870   6.295   0.206
  193SOL    HW1 1478   2.805   6.351   0.257
  193SOL    HW2 1479   2.822   6.220   0.160
  194SOL     OW 1480   4.154   6.499   2.294
  194SOL    HW1 1481   4.156   6.480   2.392
  194SOL    HW2 1482   4.218   6.438   2.246
  195SOL     OW 1483   3.627   1.109   0.759
  195SOL    HW1 1484   3.586   1.057   0.684
  195SOL    HW2 1485   3.581   1.085   0.844
  196SOL     OW 1486   3.070   1.957   0.207
  196SOL    HW1 1487   2.976   1.992   0.209
  196SOL    HW2 1488   3.075   1.873   0.261
  197SOL     OW 1489   2.535   6.755   0.481
  197SOL    HW1 1490   2.442   6.768   0.517
  197SOL    HW2 1491   2.596   6.727   0.556
  198SOL     OW 1492   4.264   0.634   6.576
  198SOL    HW1 1493   4.181   0.687   6.590
  198SOL    HW2 1494   4.339   0.675   6.629
  199SOL     OW 1495   0.326   0.218   3.233
  199SOL    HW1 1496   0.274   0.153   3.288
  199SOL    HW2 1497   0.326   0.189   3.137
  200SOL     OW 1498   0.561   4.104   3.438
  200SOL    HW1 1499   0.582   4.193   3.479
  200SOL    HW2 1500   0.496   4.117   3.363
  201SOL     OW 1501   4.229   1.541   6.457
  201SOL    HW1 1502   4.187   1.451   6.469
  201SOL    HW2 1503   4.254   1.553   6.361
  202SOL     OW 1504   3.365   0.106   2.975
  202SOL    HW1 1505   3.376   0.198   2.936
  202SOL    HW2 1506   3.453   0.058   2.971
  203SOL     OW 1507   5.556   2.771   6.616
  203SOL    HW1 1508   5.545   2.862   6.575
  203SOL    HW2 1509   5.518   2.771   6.708
  204SOL     OW 1510   2.410   6.491   0.980
  204SOL    HW1 1511   2.385   6.474   1.075
  204SOL    HW2 1512   2.510   6.487   0.970
  205SOL     OW 1513   6.109   1.107   0.483
  205SOL    HW1 1514   6.126   1.081   0.578
  205SOL    HW2 1515   6.015   1.082   0.458
  206SOL     OW 1516   1.199   4.493   1.637
  206SOL    HW1 1517   1.229   4.559   1.568
  206SOL    HW2 1518   1.148   4.540   1.709
  207SOL     OW 1519   4.921   0.574   5.421
  207SOL    HW1 1520   4.864   0.652   5.397
  207SOL    HW2 1521   4.882   0.526   5.500
  208SOL     OW 1522   3.689   4.726   6.314
  208SOL    HW1 1523   3.615   4.685   6.261
  208SOL    HW2 1524   3.708   4.670   6.394
  209SOL     OW 1525   6.728   5.859   5.497
  209SOL    HW1 1526   6.777   5.942   5.523
  209SOL    HW2 1527   6.783   5.778   5.521
  210SOL     OW 1528   3.998   2.355   1.710
  210SOL    HW1 1529   3.907   2.355   1.752
  210SOL    HW2 1530   4.012   2.270   1.660
  211SOL     OW 1531   1.931   2.248   1.604
  211SOL    HW1 1532   1.834   2.263   1.589
  211SOL    HW2 1533   1.980   2.260   1.518
  212SOL     OW 1534   0.700   5.613   3.420
  212SOL    HW1 1535   0.607   5.601   3.385
  212SOL    HW2 1536   0.695   5.637   3.517
  213SOL     OW 1537   4.546   2.512   0.339
  213SOL    HW1 1538   4.577   2.430   0.387
  213SOL    HW2 1539   4.533   2.586   0.405
  214SOL     OW 1540   1.651   0.176   2.796
  214SOL    HW1 1541   1.734   0.207   2.842
  214SOL    HW2 1542   1.627   0.242   2.725
  215SOL     OW 1543   3.525   3.344   2.543
  215SOL    HW1 1544   3.586   3.340   2.465
  215SOL    HW2 1545   3.509   3.439   2.569
  216SOL     OW 1546   0.573   6.531   5.897
  216SOL    HW1 1547   0.575   6.542   5.798
  216SOL    HW2 1548   0.604   6.616   5.940
  217SOL     OW 1549   0.928   3.061   3.377
  217SOL    HW1 1550   0.878   2.979   3.405
  217SOL    HW2 1551   1.025   3.039   3.369
  218SOL     OW 1552   1.212   4.232   5.532
  218SOL    HW1 1553   1.290   4.229   5.470
  218SOL    HW2 1554   1.216   4.154   5.594
  219SOL     OW 1555   4.916   4.787   6.950
  219SOL    HW1 1556   4.952   4.832   6.868
  219SOL    HW2 1557   4.835   4.836   6.982
  220SOL     OW 1558   3.349   4.959   0.875
  220SOL    HW1 1559   3.323   5.002   0.962
  220SOL    HW2 1560   3.273   4.904   0.841
  221SOL     OW 1561   5.920   2.133   4.430
  221SOL    HW1 1562   5.989   2.070   4.394
  221SOL    HW2 1563   5.911   2.211   4.368
  222SOL     OW 1564   1.123   6.508   5.310
  222SOL    HW1 1565   1.136   6.521   5.212
  222SOL    HW2 1566   1.141   6.594   5.358
  223SOL     OW 1567   6.591   3.555   1.233
  223SOL    HW1 1568   6.534   3.637   1.231
  223SOL    HW2 1569   6.565   3.498   1.311
  224SOL     OW 1570   3.046   2.188   1.781
  224SOL    HW1 1571   3.003   2.277   1.772
  224SOL    HW2 1572   2.980   2.122   1.818
  225SOL     OW 1573   6.438   0.400   6.769
  225SOL    HW1 1574   6.408   0.412   6.675
  225SOL    HW2 1575   6.377   0.450   6.830
  226SOL     OW 1576   6.189   5.553   1.002
  226SOL    HW1 1577   6.203   5.634   1.059
  226SOL    HW2 1578   6.092   5.533   0.994
  227SOL     OW 1579   1.597   2.842   3.896
  227SOL    HW1 1580   1.637   2.884   3.977
  227SOL    HW2 1581   1.566   2.750   3.918
  228SOL     OW 1582   3.907   0.180   3.371
  228SOL    HW1 1583   3.854   0.105   3.331
  228SOL    HW2 1584   3.927   0.160   3.467
  229SOL     OW 1585   5.899   5.556   2.615
  229SOL    HW1 1586   5.904   5.495   2.694
  229SOL    HW2 1587   5.816   5.612   2.621
  230SOL     OW 1588   1.499   4.522   5.169
  230SOL    HW1 1589   1.453   4.598   5.123
  230SOL    HW2 1590   1.490   4.532   5.268
  231SOL     OW 1591   0.929   2.041   6.950
  231SOL    HW1 1592   0.921   2.075   6.856
  231SOL    HW2 1593   0.870   1.961   6.961
  232SOL     OW 1594   1.888   5.012   6.512
  232SOL    HW1 1595   1.982   5.011   6.478
  232SOL    HW2 1596   1.853   4.918   6.517
  233SOL     OW 1597   2.730   1.036   6.012
  233SOL    HW1 1598   2.658   0.973   6.040
  233SOL    HW2 1599   2.806   1.031   6.077
  234SOL     OW 1600   3.026   5.983   0.135
  234SOL    HW1 1601   3.076   6.069   0.128
  234SOL    HW2 1602   3.024   5.938   0.046
  235SOL     OW 1603   3.121   3.563   5.020
  235SOL    HW1 1604   3.078   3.652   5.035
  235SOL    HW2 1605   3.097   3.530   4.928
  236SOL     OW 1606   0.068   2.307   5.301
  236SOL    HW1 1607   0.156   2.350   5.281
  236SOL    HW2 1608   0.077   2.252   5.384
  237SOL     OW 1609   0.269   0.194   1.453
  237SOL    HW1 1610   0.301   0.137   1.528
  237SOL    HW2 1611   0.275   0.143   1.367
  238SOL     OW 1612   5.886   2.546   2.246
  238SOL    HW1 1613   5.948   2.495   2.187
  238SOL    HW2 1614   5.794   2.506   2.241
  239SOL     OW 1615   0.265   5.850   7.002
  239SOL    HW1 1616   0.323   5.770   7.011
  239SOL    HW2 1617   0.184   5.839   0.033
  240SOL     OW 1618   6.847   3.501   5.745
  240SOL    HW1 1619   6.788   3.532   5.671
  240SOL    HW2 1620   6.822   3.408   5.772
  241SOL     OW 1621   0.651   0.859   3.140
  241SOL    HW1 1622   0.560   0.902   3.142
  241SOL    HW2 1623   0.709   0.909   3.076
  242SOL     OW 1624   1.600   3.439   3.855
  242SOL    HW1 1625   1.573   3.514   3.915
  242SOL    HW2 1626   1.594   3.353   3.904
  243SOL     OW 1627   4.966   0.289   4.902
  243SOL    HW1 1628   5.050   0.329   4.939
  243SOL    HW2 1629   4.989   0.211   4.845
  244SOL     OW 1630   6.560   1.568   5.536
  244SOL    HW1 1631   6.538   1.487   5.482
  244SOL    HW2 1632   6.519   1.560   5.627
  245SOL     OW 1633   6.317   1.570   3.698
  245SOL    HW1 1634   6.325   1.659   3.743
  245SOL    HW2 1635   6.408   1.528   3.692
  246SOL     OW 1636   5.188   3.490   3.176
  246SOL    HW1 1637   5.243   3.561   3.220
  246SOL    HW2 1638   5.110   3.467   3.234
  247SOL     OW 1639   2.882   1.387   3.114
  247SOL    HW1 1640   2.853   1.388   3.019
  247SOL    HW2 1641   2.856   1.473   3.158
  248SOL     OW 1642   6.142   1.307   3.023
  248SOL    HW1 1643   6.210   1.246   2.982
  248SOL    HW2 1644   6.096   1.359   2.951
  249SOL     OW 1645   3.414   0.069   3.739
  249SOL    HW1 1646   3.331   0.031   3.779
  249SOL    HW2 1647   3.480   7.023   3.722
  250SOL     OW 1648   4.589   3.120   5.847
  250SOL    HW1 1649   4.567   3.207   5.890
  250SOL    HW2 1650   4.543   3.114   5.759
  251SOL     OW 1651   2.575   2.351   0.980
  251SOL    HW1 1652   2.634   2.274   0.955
  251SOL    HW2 1653   2.498   2.356   0.917
  252SOL     OW 1654   0.298   1.339   5.793
  252SOL    HW1 1655   0.226   1.272   5.811
  252SOL    HW2 1656   0.352   1.352   5.876
  253SOL     OW 1657   2.566   3.958   6.045
  253SOL    HW1 1658   2.637   3.902   6.001
  253SOL    HW2 1659   2.604   4.002   6.126
  254SOL     OW 1660   6.048   3.538   5.093
  254SOL    HW1 1661   5.992   3.603   5.042
  254SOL    HW2 1662   6.038   3.447   5.053
  255SOL     OW 1663   3.642   2.071   4.174
  255SOL    HW1 1664   3.718   2.117   4.126
  255SOL    HW2 1665   3.670   1.978   4.199
  256SOL     OW 1666   6.598   5.926   6.669
  256SOL    HW1 1667   6.547   5.869   6.734
  256SOL    HW2 1668   6.637   6.004   6.717
  257SOL     OW 1669   3.123   5.696   5.900
  257SOL    HW1 1670   3.117   5.697   6.000
  257SOL    HW2 1671   3.067   5.621   5.864
  258SOL     OW 1672   5.254   4.094   4.282
  258SOL    HW1 1673   5.174   4.149   4.306
  258SOL    HW2 1674   5.313   4.146   4.220
  259SOL     OW 1675   1.078   2.476   3.170
  259SOL    HW1 1676   1.164   2.516   3.201
  259SOL    HW2 1677   1.067   2.494   3.072
  260SOL     OW 1678   6.285   0.036   6.310
  260SOL    HW1 1679   6.258   7.024   6.222
  260SOL    HW2 1680   6.236   0.122   6.324
  261SOL     OW 1681   1.001   2.311   2.499
  261SOL    HW1 1682   0.918   2.360   2.470
  261SOL    HW2 1683   1.003   2.221   2.457
  262SOL     OW 1684   1.220   5.221   2.067
  262SOL    HW1 1685   1.245   5.234   1.971
  262SOL    HW2 1686   1.178   5.305   2.102
  263SOL     OW 1687   1.216   2.146   4.230
  263SOL    HW1 1688   1.274   2.137   4.311
  263SOL    HW2 1689   1.269   2.126   4.148
  264SOL     OW 1690   3.064   5.058   6.323
  264SOL    HW1 1691   3.160   5.031   6.315
  264SOL    HW2 1692   3.054   5.153   6.291
  265SOL     OW 1693   5.364   4.603   5.308
  265SOL    HW1 1694   5.387   4.550   5.390
  265SOL    HW2 1695   5.305   4.549   5.249
  266SOL     OW 1696   3.976   2.175   0.443
  266SOL    HW1 1697   3.954   2.208   0.352
  266SOL    HW2 1698   4.022   2.248   0.495
  267SOL     OW 1699   1.154   1.780   5.622
  267SOL    HW1 1700   1.166   1.803   5.718
  267SOL    HW2 1701   1.243   1.774   5.577
  268SOL     OW 1702   3.584   5.297   4.379
  268SOL    HW1 1703   3.636   5.353   4.315
  268SOL    HW2 1704   3.510   5.251   4.330
  269SOL     OW 1705   1.182   0.930   5.957
  269SOL    HW1 1706   1.090   0.965   5.941
  269SOL    HW2 1707   1.240   1.003   5.993
  270SOL     OW 1708   4.962   1.290   3.920
  270SOL    HW1 1709   5.045   1.289   3.976
  270SOL    HW2 1710   4.891   1.236   3.963
  271SOL     OW 1711   1.658   0.880   6.879
  271SOL    HW1 1712   1.652   0.781   6.891
  271SOL    HW2 1713   1.598   0.908   6.804
  272SOL     OW 1714   3.992   5.608   3.215
  272SOL    HW1 1715   4.024   5.626   3.122
  272SOL    HW2 1716   4.054   5.651   3.280
  273SOL     OW 1717   2.486   6.991   5.170
  273SOL    HW1 1718   2.507   0.042   5.229
  273SOL    HW2 1719   2.421   6.932   5.217
  274SOL     OW 1720   5.701   1.980   1.390
  274SOL    HW1 1721   5.621   1.922   1.402
  274SOL    HW2 1722   5.722   1.989   1.293
  275SOL     OW 1723   5.997   5.897   5.080
  275SOL    HW1 1724   5.905   5.871   5.110
  275SOL    HW2 1725   6.041   5.954   5.150
  276SOL     OW 1726   6.451   6.308   3.650
  276SOL    HW1 1727   6.389   6.341   3.578
  276SOL    HW2 1728   6.430   6.212   3.670
  277SOL     OW 1729   5.123   1.179   5.375
  277SOL    HW1 1730   5.054   1.106   5.373
  277SOL    HW2 1731   5.079   1.265   5.404
  278SOL     OW 1732   6.264   3.006   2.794
  278SOL    HW1 1733   6.252   2.924   2.848
  278SOL    HW2 1734   6.294   3.081   2.853
  279SOL     OW 1735   0.154   3.320   4.472
  279SOL    HW1 1736   0.219   3.327   4.548
  279SOL    HW2 1737   0.075   3.266   4.501
  280SOL     OW 1738   3.280   0.940   3.196
  280SOL    HW1 1739   3.359   0.886   3.224
  280SOL    HW2 1740   3.299   1.037   3.211
  281SOL     OW 1741   5.445   5.604   3.561
  281SOL    HW1 1742   5.352   5.605   3.598
  281SOL    HW2 1743   5.499   5.535   3.609
  282SOL     OW 1744   2.666   1.744   0.684
  282SOL    HW1 1745   2.591   1.788   0.634
  282SOL    HW2 1746   2.631   1.703   0.768
  283SOL     OW 1747   6.766   2.182   4.701
  283SOL    HW1 1748   6.702   2.126   4.754
  283SOL    HW2 1749   6.851   2.193   4.753
  284SOL     OW 1750   5.232   5.741   3.206
  284SOL    HW1 1751   5.206   5.826   3.162
  284SOL    HW2 1752   5.329   5.723   3.190
  285SOL     OW 1753   4.273   0.475   5.816
  285SOL    HW1 1754   4.223   0.535   5.878
  285SOL    HW2 1755   4.259   0.380   5.842
  286SOL     OW 1756   1.930   5.052   5.096
  286SOL    HW1 1757   1.884   5.087   5.178
  286SOL    HW2 1758   1.876   5.075   5.016
  287SOL     OW 1759   3.427   0.421   6.290
  287SOL    HW1 1760   3.391   0.428   6.196
  287SOL    HW2 1761   3.411   0.329   6.325
  288SOL     OW 1762   3.699   0.333   0.921
  288SOL    HW1 1763   3.710   0.361   0.826
  288SOL    HW2 1764   3.603   0.306   0.937
  289SOL     OW 1765   6.060   5.977   3.294
  289SOL    HW1 1766   6.011   5.972   3.381
  289SOL    HW2 1767   6.023   6.051   3.239
  290SOL     OW 1768   3.252   0.720   6.115
  290SOL    HW1 1769   3.224   0.674   6.031
  290SOL    HW2 1770   3.351   0.731   6.116
  291SOL     OW 1771   3.086   0.068   5.176
  291SOL    HW1 1772   3.128   0.158   5.169
  291SOL    HW2 1773   3.067   0.033   5.084
  292SOL     OW 1774   4.557   6.919   4.114
  292SOL    HW1 1775   4.538   7.001   4.168
  292SOL    HW2 1776   4.654   6.898   4.118
  293SOL     OW 1777   6.024   0.027   2.414
  293SOL    HW1 1778   6.092   6.985   2.436
  293SOL    HW2 1779   5.933   7.018   2.433
  294SOL     OW 1780   6.790   0.775   6.124
  294SOL    HW1 1781   6.822   0.804   6.214
  294SOL    HW2 1782   6.853   0.807   6.054
  295SOL     OW 1783   1.392   1.408   4.569
  295SOL    HW1 1784   1.384   1.330   4.507
  295SOL    HW2 1785   1.305   1.422   4.616
  296SOL     OW 1786   7.008   2.393   1.230
  296SOL    HW1 1787   7.006   2.293   1.230
  296SOL    HW2 1788   0.026   2.425   1.314
  297SOL     OW 1789   4.958   3.067   4.058
  297SOL    HW1 1790   5.028   3.138   4.046
  297SOL    HW2 1791   4.917   3.076   4.149
  298SOL     OW 1792   4.013   0.399   6.282
  298SOL    HW1 1793   3.959   0.315   6.267
  298SOL    HW2 1794   3.952   0.471   6.316
  299SOL     OW 1795   1.133   0.792   6.754
  299SOL    HW1 1796   1.084   0.753   6.831
  299SOL    HW2 1797   1.191   0.867   6.785
  300SOL     OW 1798   4.329   0.115   3.569
  300SOL    HW1 1799   4.384   0.057   3.509
  300SOL    HW2 1800   4.369   0.115   3.660
  301SOL     OW 1801   6.433   5.790   1.422
  301SOL    HW1 1802   6.501   5.730   1.378
  301SOL    HW2 1803   6.478   5.846   1.492
  302SOL     OW 1804   0.185   5.720   1.772
  302SOL    HW1 1805   0.145   5.629   1.762
  302SOL    HW2 1806   0.285   5.714   1.765
  303SOL     OW 1807   5.525   5.887   3.170
  303SOL    HW1 1808   5.566   5.964   3.121
  303SOL    HW2 1809   5.466   5.922   3.243
  304SOL     OW 1810   2.423   5.780   4.670
  304SOL    HW1 1811   2.446   5.813   4.578
  304SOL    HW2 1812   2.381   5.853   4.722
  305SOL     OW 1813   0.847   2.979   2.421
  305SOL    HW1 1814   0.937   3.022   2.409
  305SOL    HW2 1815   0.836   2.907   2.353
  306SOL     OW 1816   0.339   6.262   2.925
  306SOL    HW1 1817   0.240   6.256   2.921
  306SOL    HW2 1818   0.370   6.345   2.878
  307SOL     OW 1819   3.378   2.994   3.195
  307SOL    HW1 1820   3.329   3.000   3.282
  307SOL    HW2 1821   3.315   3.014   3.120
  308SOL     OW 1822   5.308   2.310   3.648
  308SOL    HW1 1823   5.361   2.356   3.576
  308SOL    HW2 1824   5.261   2.231   3.610
  309SOL     OW 1825   1.526   6.671   6.602
  309SOL    HW1 1826   1.443   6.679   6.547
  309SOL    HW2 1827   1.525   6.584   6.651
  310SOL     OW 1828   5.312   0.215   5.217
  310SOL    HW1 1829   5.334   0.118   5.207
  310SOL    HW2 1830   5.255   0.228   5.298
  311SOL     OW 1831   1.919   5.637   2.774
  311SOL    HW1 1832   1.920   5.707   2.703
  311SOL    HW2 1833   1.853   5.661   2.845
  312SOL     OW 1834   4.441   1.661   3.260
  312SOL    HW1 1835   4.500   1.732   3.297
  312SOL    HW2 1836   4.497   1.597   3.207
  313SOL     OW 1837   4.031   3.780   2.816
  313SOL    HW1 1838   4.098   3.713   2.783
  313SOL    HW2 1839   4.043   3.795   2.914
  314SOL     OW 1840   2.480   5.687   6.109
  314SOL    HW1 1841   2.502   5.674   6.205
  314SOL    HW2 1842   2.411   5.619   6.081
  315SOL     OW 1843   6.336   1.202   3.363
  315SOL    HW1 1844   6.329   1.116   3.313
  315SOL    HW2 1845   6.363   1.184   3.457
  316SOL     OW 1846   3.598   1.272   5.843
  316SOL    HW1 1847   3.660   1.226   5.906
  316SOL    HW2 1848   3.504   1.251   5.868
  317SOL     OW 1849   1.403   1.698   1.805
  317SOL    HW1 1850   1.482   1.713   1.745
  317SOL    HW2 1851   1.410   1.757   1.885
  318SOL     OW 1852   0.990   0.370   4.687
  318SOL    HW1 1853   0.953   0.286   4.726
  318SOL    HW2 1854   1.080   0.388   4.726
  319SOL     OW 1855   1.467   1.477   2.432
  319SOL    HW1 1856   1.508   1.465   2.341
  319SOL    HW2 1857   1.481   1.571   2.462
  320SOL     OW 1858   6.116   1.900   6.000
  320SOL    HW1 1859   6.107   1.826   6.066
  320SOL    HW2 1860   6.036   1.960   6.007
  321SOL     OW 1861   4.361   3.124   0.960
  321SOL    HW1 1862   4.324   3.204   1.007
  321SOL    HW2 1863   4.288   3.080   0.908
  322SOL     OW 1864   3.509   3.329   5.908
  322SOL    HW1 1865   3.473   3.343   6.000
  322SOL    HW2 1866   3.486   3.237   5.877
  323SOL     OW 1867   0.616   3.414   2.062
  323SOL    HW1 1868   0.666   3.332   2.090
  323SOL    HW2 1869   0.518   3.400   2.077
  324SOL     OW 1870   0.176   0.367   3.669
  324SOL    HW1 1871   0.248   0.385   3.736
  324SOL    HW2 1872   0.159   0.269   3.662
  325SOL     OW 1873   6.760   3.971   2.060
  325SOL    HW1 1874   6.761   3.910   2.139
  325SOL    HW2 1875   6.725   3.921   1.980
  326SOL     OW 1876   0.899   6.890   6.430
  326SOL    HW1 1877   0.977   6.857   6.484
  326SOL    HW2 1878   0.815   6.883   6.484
  327SOL     OW 1879   4.826   5.749   4.143
  327SOL    HW1 1880   4.788   5.660   4.168
  327SOL    HW2 1881   4.752   5.809   4.112
  328SOL     OW 1882   2.220   4.110   2.458
  328SOL    HW1 1883   2.239   4.173   2.383
  328SOL    HW2 1884   2.176   4.028   2.423
  329SOL     OW 1885   3.273   3.424   2.273
  329SOL    HW1 1886   3.244   3.519   2.283
  329SOL    HW2 1887   3.211   3.376   2.211
  330SOL     OW 1888   3.259   5.743   0.600
  330SOL    HW1 1889   3.164   5.772   0.615
  330SOL    HW2 1890   3.272   5.720   0.504
  331SOL     OW 1891   5.817   5.052   6.941
  331SOL    HW1 1892   5.794   4.984   7.010
  331SOL    HW2 1893   5.809   5.144   6.982
  332SOL     OW 1894   5.678   1.995   3.034
  332SOL    HW1 1895   5.742   1.994   3.111
  332SOL    HW2 1896   5.592   2.038   3.063
  333SOL     OW 1897   3.320   0.755   5.756
  333SOL    HW1 1898   3.241   0.812   5.731
  333SOL    HW2 1899   3.401   0.813   5.765
  334SOL     OW 1900   4.129   3.390   3.386
  334SOL    HW1 1901   4.085   3.464   3.334
  334SOL    HW2 1902   4.108   3.302   3.343
  335SOL     OW 1903   3.810   0.315   6.840
  335SOL    HW1 1904   3.741   0.379   6.876
  335SOL    HW2 1905   3.899   0.360   6.836
  336SOL     OW 1906   2.779   1.495   3.985
  336SOL    HW1 1907   2.817   1.583   3.956
  336SOL    HW2 1908   2.838   1.454   4.054
  337SOL     OW 1909   2.242   0.666   6.206
  337SOL    HW1 1910   2.167   0.659   6.141
  337SOL    HW2 1911   2.235   0.752   6.256
  338SOL     OW 1912   4.129   1.380   1.111
  338SOL    HW1 1913   4.193   1.456   1.095
  338SOL    HW2 1914   4.170   1.295   1.079
  339SOL     OW 1915   4.009   5.512   5.052
  339SOL    HW1 1916   4.033   5.518   5.149
  339SOL    HW2 1917   3.954   5.591   5.026
  340SOL     OW 1918   4.677   1.732   3.932
  340SOL    HW1 1919   4.765   1.687   3.950
  340SOL    HW2 1920   4.692   1.821   3.891
  341SOL     OW 1921   5.663   6.533   2.897
  341SOL    HW1 1922   5.736   6.510   2.962
  341SOL    HW2 1923   5.585   6.472   2.912
  342SOL     OW 1924   4.263   2.343   2.250
  342SOL    HW1 1925   4.333   2.415   2.245
  342SOL    HW2 1926   4.266   2.288   2.166
  343SOL     OW 1927   7.002   5.771   2.794
  343SOL    HW1 1928   0.053   5.770   2.857
  343SOL    HW2 1929   0.005   5.741   2.703
  344SOL     OW 1930   2.316   2.251   1.274
  344SOL    HW1 1931   2.313   2.193   1.192
  344SOL    HW2 1932   2.402   2.302   1.275
  345SOL     OW 1933   6.757   3.542   3.923
  345SOL    HW1 1934   6.790   3.594   4.002
  345SOL    HW2 1935   6.665   3.572   3.899
  346SOL     OW 1936   1.697   6.828   3.764
  346SOL    HW1 1937   1.618   6.890   3.770
  346SOL    HW2 1938   1.664   6.736   3.741
  347SOL     OW 1939   2.795   4.824   0.529
  347SOL    HW1 1940   2.710   4.774   0.522
  347SOL    HW2 1941   2.819   4.837   0.625
  348SOL     OW 1942   4.591   5.359   1.462
  348SOL    HW1 1943   4.671   5.406   1.501
  348SOL    HW2 1944   4.612   5.262   1.452
  349SOL     OW 1945   6.286   4.067   1.293
  349SOL    HW1 1946   6.312   4.075   1.197
  349SOL    HW2 1947   6.188   4.084   1.303
  350SOL     OW 1948   3.236   2.970   0.420
  350SOL    HW1 1949   3.325   2.941   0.456
  350SOL    HW2 1950   3.185   3.017   0.491
  351SOL     OW 1951   3.243   4.303   1.640
  351SOL    HW1 1952   3.169   4.238   1.662
  351SOL    HW2 1953   3.214   4.361   1.564
  352SOL     OW 1954   4.150   0.158   3.266
  352SOL    HW1 1955   4.199   0.213   3.333
  352SOL    HW2 1956   4.056   0.145   3.295
  353SOL     OW 1957   2.024   6.210   6.898
  353SOL    HW1 1958   2.033   6.297   6.947
  353SOL    HW2 1959   2.068   6.138   6.950
  354SOL     OW 1960   0.244   2.922   0.309
  354SOL    HW1 1961   0.241   3.022   0.305
  354SOL    HW2 1962   0.157   2.885   0.276
  355SOL     OW 1963   1.921   2.294   2.253
  355SOL    HW1 1964   1.960   2.211   2.293
  355SOL    HW2 1965   1.960   2.310   2.162
  356SOL     OW 1966   0.885   6.852   6.160
  356SOL    HW1 1967   0.978   6.826   6.131
  356SOL    HW2 1968   0.884   6.866   6.259
  357SOL     OW 1969   5.733   6.707   5.012
  357SOL    HW1 1970   5.654   6.765   5.032
  357SOL    HW2 1971   5.741   6.694   4.913
  358SOL     OW 1972   4.381   5.724   0.323
  358SOL    HW1 1973   4.442   5.785   0.274
  358SOL    HW2 1974   4.359   5.645   0.266
  359SOL     OW 1975   2.470   2.588   2.818
  359SOL    HW1 1976   2.424   2.582   2.729
  359SOL    HW2 1977   2.557   2.538   2.814
  360SOL     OW 1978   1.542   5.123   4.539
  360SOL    HW1 1979   1.466   5.170   4.583
  360SOL    HW2 1980   1.519   5.106   4.443
  361SOL     OW 1981   6.187   0.096   3.658
  361SOL    HW1 1982   6.142   0.074   3.572
  361SOL    HW2 1983   6.284   0.114   3.640
  362SOL     OW 1984   4.394   4.962   1.083
  362SOL    HW1 1985   4.344   4.930   1.002
  362SOL    HW2 1986   4.491   4.940   1.073
  363SOL     OW 1987   4.945   5.420   1.934
  363SOL    HW1 1988   5.018   5.458   1.878
  363SOL    HW2 1989   4.982   5.348   1.992
  364SOL     OW 1990   0.494   5.984   6.565
  364SOL    HW1 1991   0.571   6.017   6.511
  364SOL    HW2 1992   0.422   5.950   6.505
  365SOL     OW 1993   4.910   1.892   3.138
  365SOL    HW1 1994   4.855   1.815   3.105
  365SOL    HW2 1995   4.947   1.942   3.060
  366SOL     OW 1996   5.251   2.306   0.189
  366SOL    HW1 1997   5.241   2.362   0.106
  366SOL    HW2 1998   5.193   2.224   0.180
  367SOL     OW 1999   4.741   1.870   5.693
  367SOL    HW1 2000   4.761   1.797   5.759
  367SOL    HW2 2001   4.669   1.929   5.730
  368SOL     OW 2002   6.751   2.560   6.081
  368SOL    HW1 2003   6.813   2.637   6.065
  368SOL    HW2 2004   6.786   2.505   6.156
  369SOL     OW 2005   6.084   3.211   2.331
  369SOL    HW1 2006   6.158   3.184   2.392
  369SOL    HW2 2007   6.000   3.226   2.385
  370SOL     OW 2008   2.174   3.347   4.183
  370SOL    HW1 2009   2.217   3.389   4.262
  370SOL    HW2 2010   2.075   3.344   4.197
  371SOL     OW 2011   1.447   4.620   6.921
  371SOL    HW1 2012   1.361   4.669   6.938
  371SOL    HW2 2013   1.490   4.597   7.009
  372SOL     OW 2014   3.767   6.821   6.807
  372SOL    HW1 2015   3.753   6.919   6.816
  372SOL    HW2 2016   3.821   6.801   6.725
  373SOL     OW 2017   5.895   5.763   4.403
  373SOL    HW1 2018   5.813   5.721   4.364
  373SOL    HW2 2019   5.911   5.852   4.360
  374SOL     OW 2020   2.778   2.014   2.485
  374SOL    HW1 2021   2.732   2.073   2.419
  374SOL    HW2 2022   2.715   1.989   2.558
  375SOL     OW 2023   1.140   5.002   5.136
  375SOL    HW1 2024   1.182   4.980   5.224
  375SOL    HW2 2025   1.060   5.060   5.151
  376SOL     OW 2026   2.649   1.072   4.559
  376SOL    HW1 2027   2.578   1.082   4.628
  376SOL    HW2 2028   2.618   1.008   4.488
  377SOL     OW 2029   1.204   2.224   6.438
  377SOL    HW1 2030   1.197   2.154   6.367
  377SOL    HW2 2031   1.129   2.289   6.429
  378SOL     OW 2032   3.699   0.962   1.534
  378SOL    HW1 2033   3.780   0.918   1.573
  378SOL    HW2 2034   3.713   0.975   1.436
  379SOL     OW 2035   6.380   1.824   5.913
  379SOL    HW1 2036   6.448   1.819   5.987
  379SOL    HW2 2037   6.298   1.870   5.946
  380SOL     OW 2038   4.229   2.077   1.034
  380SOL    HW1 2039   4.151   2.018   1.012
  380SOL    HW2 2040   4.272   2.045   1.118
  381SOL     OW 2041   1.567   3.928   3.286
  381SOL    HW1 2042   1.540   4.010   3.337
  381SOL    HW2 2043   1.572   3.949   3.188
  382SOL     OW 2044   5.258   0.610   0.009
  382SOL    HW1 2045   5.298   0.693   0.050
  382SOL    HW2 2046   5.332   0.551   7.003
  383SOL     OW 2047   4.154   3.037   0.778
  383SOL    HW1 2048   4.150   2.948   0.732
  383SOL    HW2 2049   4.150   3.110   0.709
  384SOL     OW 2050   6.045   4.418   4.802
  384SOL    HW1 2051   5.949   4.433   4.822
  384SOL    HW2 2052   6.073   4.327   4.833
  385SOL     OW 2053   4.765   4.700   0.641
  385SOL    HW1 2054   4.788   4.603   0.649
  385SOL    HW2 2055   4.784   4.732   0.548
  386SOL     OW 2056   2.935   6.968   3.893
  386SOL    HW1 2057   2.917   6.913   3.811
  386SOL    HW2 2058   2.851   6.978   3.946
  387SOL     OW 2059   1.949   5.960   3.910
  387SOL    HW1 2060   1.967   6.050   3.869
  387SOL    HW2 2061   2.035   5.923   3.947
  388SOL     OW 2062   2.321   3.064   5.867
  388SOL    HW1 2063   2.270   2.990   5.821
  388SOL    HW2 2064   2.409   3.077   5.821
  389SOL     OW 2065   2.904   3.693   3.358
  389SOL    HW1 2066   2.945   3.610   3.396
  389SOL    HW2 2067   2.823   3.718   3.411
  390SOL     OW 2068   2.218   1.009   4.501
  390SOL    HW1 2069   2.288   0.940   4.519
  390SOL    HW2 2070   2.173   1.034   4.587
  391SOL     OW 2071   0.948   3.155   0.179
  391SOL    HW1 2072   1.007   3.162   0.259
  391SOL    HW2 2073   0.853   3.172   0.205
  392SOL     OW 2074   2.147   5.038   2.320
  392SOL    HW1 2075   2.218   5.098   2.358
  392SOL    HW2 2076   2.177   4.943   2.326
  393SOL     OW 2077   5.949   4.353   5.486
  393SOL    HW1 2078   6.025   4.374   5.424
  393SOL    HW2 2079   5.880   4.424   5.479
  394SOL     OW 2080   1.122   0.019   1.141
  394SOL    HW1 2081   1.088   6.981   1.073
  394SOL    HW2 2082   1.158   6.997   1.220
  395SOL     OW 2083   5.360   3.959   1.306
  395SOL    HW1 2084   5.357   3.861   1.287
  395SOL    HW2 2085   5.289   3.982   1.373
  396SOL     OW 2086   3.128   4.029   3.415
  396SOL    HW1 2087   3.223   3.999   3.422
  396SOL    HW2 2088   3.109   4.056   3.320
  397SOL     OW 2089   4.454   1.921   5.523
  397SOL    HW1 2090   4.487   1.947   5.432
  397SOL    HW2 2091   4.437   2.004   5.576
  398SOL     OW 2092   0.902   5.402   2.366
  398SOL    HW1 2093   0.942   5.314   2.342
  398SOL    HW2 2094   0.887   5.406   2.465
  399SOL     OW 2095   4.635   5.157   1.245
  399SOL    HW1 2096   4.548   5.108   1.255
  399SOL    HW2 2097   4.617   5.252   1.219
  400SOL     OW 2098   0.424   6.004   5.079
  400SOL    HW1 2099   0.510   6.053   5.067
  400SOL    HW2 2100   0.410   5.985   5.176
  401SOL     OW 2101   4.775   1.887   6.890
  401SOL    HW1 2102   4.689   1.837   6.881
  401SOL    HW2 2103   4.844   1.827   6.930
  402SOL     OW 2104   6.092   5.869   1.636
  402SOL    HW1 2105   6.126   5.821   1.554
  402SOL    HW2 2106   6.030   5.808   1.686
  403SOL     OW 2107   4.355   1.926   5.848
  403SOL    HW1 2108   4.350   1.871   5.765
  403SOL    HW2 2109   4.439   1.981   5.846
  404SOL     OW 2110   0.505   0.026   4.462
  404SOL    HW1 2111   0.497   0.025   4.363
  404SOL    HW2 2112   0.415   0.043   4.503
  405SOL     OW 2113   0.929   2.304   0.891
  405SOL    HW1 2114   0.996   2.230   0.877
  405SOL    HW2 2115   0.890   2.329   0.802
  406SOL     OW 2116   1.413   2.682   4.639
  406SOL    HW1 2117   1.418   2.771   4.684
  406SOL    HW2 2118   1.383   2.694   4.544
  407SOL     OW 2119   2.715   0.540   5.678
  407SOL    HW1 2120   2.764   0.626   5.689
  407SOL    HW2 2121   2.647   0.550   5.605
  408SOL     OW 2122   1.689   0.364   3.643
  408SOL    HW1 2123   1.739   0.309   3.710
  408SOL    HW2 2124   1.597   0.384   3.678
  409SOL     OW 2125   5.893   3.328   3.621
  409SOL    HW1 2126   5.949   3.387   3.680
  409SOL    HW2 2127   5.903   3.233   3.650
  410SOL     OW 2128   2.650   0.676   6.793
  410SOL    HW1 2129   2.734   0.728   6.811
  410SOL    HW2 2130   2.602   0.715   6.715
  411SOL     OW 2131   6.357   4.099   5.580
  411SOL    HW1 2132   6.322   4.025   5.524
  411SOL    HW2 2133   6.406   4.062   5.659
  412SOL     OW 2134   3.620   0.396   2.493
  412SOL    HW1 2135   3.580   0.453   2.564
  412SOL    HW2 2136   3.571   0.309   2.489
  413SOL     OW 2137   3.246   6.249   0.701
  413SOL    HW1 2138   3.304   6.167   0.705
  413SOL    HW2 2139   3.150   6.223   0.710
  414SOL     OW 2140   4.524   4.664   0.819
  414SOL    HW1 2141   4.608   4.704   0.784
  414SOL    HW2 2142   4.466   4.736   0.858
  415SOL     OW 2143   2.123   6.464   1.760
  415SOL    HW1 2144   2.110   6.521   1.842
  415SOL    HW2 2145   2.043   6.405   1.748
  416SOL     OW 2146   4.400   6.367   4.910
  416SOL    HW1 2147   4.378   6.360   5.007
  416SOL    HW2 2148   4.333   6.427   4.865
  417SOL     OW 2149   3.702   6.121   1.952
  417SOL    HW1 2150   3.789   6.129   2.000
  417SOL    HW2 2151   3.627   6.123   2.019
  418SOL     OW 2152   4.862   5.874   0.277
  418SOL    HW1 2153   4.866   5.783   0.235
  418SOL    HW2 2154   4.788   5.877   0.344
  419SOL     OW 2155   0.111   6.944   1.233
  419SOL    HW1 2156   0.207   6.930   1.210
  419SOL    HW2 2157   0.102   6.959   1.332
  420SOL     OW 2158   5.777   3.723   0.336
  420SOL    HW1 2159   5.782   3.656   0.262
  420SOL    HW2 2160   5.723   3.685   0.412
  421SOL     OW 2161   2.694   6.147   0.068
  421SOL    HW1 2162   2.644   6.087   0.130
  421SOL    HW2 2163   2.716   6.097   7.012
  422SOL     OW 2164   6.364   4.517   6.716
  422SOL    HW1 2165   6.327   4.585   6.654
  422SOL    HW2 2166   6.307   4.511   6.798
  423SOL     OW 2167   5.939   2.680   0.090
  423SOL    HW1 2168   5.972   2.774   0.097
  423SOL    HW2 2169   5.859   2.668   0.149
  424SOL     OW 2170   3.590   4.145   0.451
  424SOL    HW1 2171   3.636   4.058   0.472
  424SOL    HW2 2172   3.592   4.204   0.531
  425SOL     OW 2173   4.163   0.873   1.347
  425SOL    HW1 2174   4.129   0.897   1.256
  425SOL    HW2 2175   4.231   0.941   1.377
  426SOL     OW 2176   4.894   2.843   5.784
  426SOL    HW1 2177   4.897   2.752   5.824
  426SOL    HW2 2178   4.984   2.867   5.746
  427SOL     OW 2179   5.625   4.021   1.185
  427SOL    HW1 2180   5.555   3.956   1.215
  427SOL    HW2 2181   5.712   3.974   1.177
  428SOL     OW 2182   4.215   0.565   5.357
  428SOL    HW1 2183   4.287   0.550   5.290
  428SOL    HW2 2184   4.243   0.638   5.420
  429SOL     OW 2185   1.786   4.837   0.188
  429SOL    HW1 2186   1.874   4.828   0.234
  429SOL    HW2 2187   1.800   4.834   0.089
  430SOL     OW 2188   1.147   0.071   4.618
  430SOL    HW1 2189   1.104   0.119   4.695
  430SOL    HW2 2190   1.079   0.013   4.573
  431SOL     OW 2191   3.737   1.543   0.316
  431SOL    HW1 2192   3.790   1.459   0.325
  431SOL    HW2 2193   3.741   1.594   0.402
  432SOL     OW 2194   6.790   2.038   0.486
  432SOL    HW1 2195   6.796   2.092   0.570
  432SOL    HW2 2196   6.868   2.059   0.428
  433SOL     OW 2197   2.760   6.916   5.035
  433SOL    HW1 2198   2.812   6.950   5.113
  433SOL    HW2 2199   2.664   6.907   5.060
  434SOL     OW 2200   5.906   3.380   0.837
  434SOL    HW1 2201   5.909   3.472   0.798
  434SOL    HW2 2202   5.814   3.342   0.826
  435SOL     OW 2203   3.235   3.227   6.036
  435SOL    HW1 2204   3.307   3.180   5.984
  435SOL    HW2 2205   3.276   3.268   6.118
  436SOL     OW 2206   1.509   0.375   1.184
  436SOL    HW1 2207   1.509   0.458   1.128
  436SOL    HW2 2208   1.561   0.304   1.137
  437SOL     OW 2209   0.260   0.098   6.258
  437SOL    HW1 2210   0.254   0.197   6.268
  437SOL    HW2 2211   0.172   0.057   6.282
  438SOL     OW 2212   1.762   3.146   1.880
  438SOL    HW1 2213   1.683   3.095   1.913
  438SOL    HW2 2214   1.846   3.110   1.922
  439SOL     OW 2215   6.219   4.720   2.458
  439SOL    HW1 2216   6.164   4.673   2.389
  439SOL    HW2 2217   6.177   4.808   2.480
  440SOL     OW 2218   0.618   2.283   4.264
  440SOL    HW1 2219   0.559   2.231   4.325
  440SOL    HW2 2220   0.694   2.226   4.233
  441SOL     OW 2221   1.840   1.467   3.045
  441SOL    HW1 2222   1.889   1.503   2.965
  441SOL    HW2 2223   1.892   1.486   3.128
  442SOL     OW 2224   6.711   4.190   0.034
  442SOL    HW1 2225   6.631   4.220   7.008
  442SOL    HW2 2226   6.741   4.101   0.002
  443SOL     OW 2227   1.383   4.198   5.343
  443SOL    HW1 2228   1.441   4.127   5.303
  443SOL    HW2 2229   1.337   4.248   5.270
  444SOL     OW 2230   4.163   2.578   6.357
  444SOL    HW1 2231   4.070   2.556   6.330
  444SOL    HW2 2232   4.196   2.509   6.421
  445SOL     OW 2233   2.461   4.898   3.588
  445SOL    HW1 2234   2.543   4.956   3.589
  445SOL    HW2 2235   2.379   4.956   3.583
  446SOL     OW 2236   3.595   4.900   3.945
  446SOL    HW1 2237   3.681   4.910   3.995
  446SOL    HW2 2238   3.611   4.848   3.861
  447SOL     OW 2239   0.198   4.772   0.106
  447SOL    HW1 2240   0.116   4.824   0.082
  447SOL    HW2 2241   0.182   4.723   0.192
  448SOL     OW 2242   4.010   0.768   5.262
  448SOL    HW1 2243   4.023   0.794   5.166
  448SOL    HW2 2244   4.052   0.679   5.278
  449SOL     OW 2245   6.433   1.333   4.395
  449SOL    HW1 2246   6.333   1.329   4.390
  449SOL    HW2 2247   6.463   1.319   4.489
  450SOL     OW 2248   0.218   6.014   3.596
  450SOL    HW1 2249   0.170   6.029   3.683
  450SOL    HW2 2250   0.251   5.919   3.593
  451SOL     OW 2251   0.849   2.031   2.588
  451SOL    HW1 2252   0.910   2.020   2.509
  451SOL    HW2 2253   0.904   2.036   2.672
  452SOL     OW 2254   0.087   4.865   0.542
  452SOL    HW1 2255   0.134   4.847   0.629
  452SOL    HW2 2256   0.115   4.798   0.474
  453SOL     OW 2257   2.901   1.472   6.882
  453SOL    HW1 2258   2.820   1.518   6.917
  453SOL    HW2 2259   2.880   1.432   6.792
  454SOL     OW 2260   0.329   5.875   6.380
  454SOL    HW1 2261   0.271   5.832   6.449
  454SOL    HW2 2262   0.272   5.931   6.319
  455SOL     OW 2263   5.829   0.380   3.953
  455SOL    HW1 2264   5.873   0.341   3.872
  455SOL    HW2 2265   5.810   0.477   3.938
  456SOL     OW 2266   3.978   5.725   6.215
  456SOL    HW1 2267   4.011   5.633   6.194
  456SOL    HW2 2268   3.965   5.734   6.314
  457SOL     OW 2269   2.184   4.065   3.221
  457SOL    HW1 2270   2.123   3.988   3.199
  457SOL    HW2 2271   2.178   4.134   3.149
  458SOL     OW 2272   5.659   6.175   5.697
  458SOL    HW1 2273   5.720   6.169   5.776
  458SOL    HW2 2274   5.687   6.109   5.627
  459SOL     OW 2275   1.144   0.299   2.899
  459SOL    HW1 2276   1.067   0.360   2.911
  459SOL    HW2 2277   1.130   0.216   2.953
  460SOL     OW 2278   6.987   1.786   2.256
  460SOL    HW1 2279   0.056   1.760   2.263
  460SOL    HW2 2280   6.939   1.763   2.341
  461SOL     OW 2281   4.611   6.900   4.905
  461SOL    HW1 2282   4.622   6.916   5.003
  461SOL    HW2 2283   4.595   6.803   4.888
  462SOL     OW 2284   3.220   2.775   6.059
  462SOL    HW1 2285   3.290   2.829   6.104
  462SOL    HW2 2286   3.223   2.792   5.960
  463SOL     OW 2287   6.182   5.130   3.488
  463SOL    HW1 2288   6.153   5.205   3.547
  463SOL    HW2 2289   6.188   5.161   3.393
  464SOL     OW 2290   1.853   0.994   6.615
  464SOL    HW1 2291   1.831   0.965   6.708
  464SOL    HW2 2292   1.914   0.928   6.572
  465SOL     OW 2293   0.684   1.689   4.119
  465SOL    HW1 2294   0.664   1.597   4.151
  465SOL    HW2 2295   0.768   1.722   4.160
  466SOL     OW 2296   0.566   6.576   3.883
  466SOL    HW1 2297   0.489   6.559   3.944
  466SOL    HW2 2298   0.643   6.611   3.937
  467SOL     OW 2299   0.786   0.281   6.085
  467SOL    HW1 2300   0.729   0.227   6.024
  467SOL    HW2 2301   0.747   0.372   6.095
  468SOL     OW 2302   3.992   5.822   0.975
  468SOL    HW1 2303   4.005   5.754   0.903
  468SOL    HW2 2304   4.024   5.911   0.942
  469SOL     OW 2305   2.288   5.465   0.414
  469SOL    HW1 2306   2.313   5.459   0.317
  469SOL    HW2 2307   2.340   5.397   0.466
  470SOL     OW 2308   4.527   0.298   1.958
  470SOL    HW1 2309   4.608   0.250   1.991
  470SOL    HW2 2310   4.543   0.332   1.865
  471SOL     OW 2311   1.795   2.607   4.565
  471SOL    HW1 2312   1.714   2.632   4.512
  471SOL    HW2 2313   1.861   2.560   4.506
  472SOL     OW 2314   4.836   4.856   6.203
  472SOL    HW1 2315   4.745   4.882   6.170
  472SOL    HW2 2316   4.857   4.763   6.173
  473SOL     OW 2317   0.402   2.643   1.961
  473SOL    HW1 2318   0.419   2.549   1.932
  473SOL    HW2 2319   0.383   2.646   2.059
  474SOL     OW 2320   4.201   5.412   4.120
  474SOL    HW1 2321   4.285   5.458   4.093
  474SOL    HW2 2322   4.205   5.316   4.092
  475SOL     OW 2323   6.691   6.664   6.803
  475SOL    HW1 2324   6.702   6.747   6.749
  475SOL    HW2 2325   6.754   6.665   6.881
  476SOL     OW 2326   6.299   4.080   2.283
  476SOL    HW1 2327   6.234   4.049   2.353
  476SOL    HW2 2328   6.387   4.034   2.297
  477SOL     OW 2329   2.204   5.073   4.718
  477SOL    HW1 2330   2.113   5.103   4.691
  477SOL    HW2 2331   2.205   5.051   4.816
  478SOL     OW 2332   3.456   5.845   3.204
  478SOL    HW1 2333   3.495   5.846   3.112
  478SOL    HW2 2334   3.381   5.910   3.210
  479SOL     OW 2335   2.715   1.999   0.376
  479SOL    HW1 2336   2.729   1.900   0.379
  479SOL    HW2 2337   2.747   2.034   0.288
  480SOL     OW 2338   1.562   6.897   1.534
  480SOL    HW1 2339   1.608   6.893   1.623
  480SOL    HW2 2340   1.572   6.808   1.487
  481SOL     OW 2341   2.319   0.992   1.730
  481SOL    HW1 2342   2.272   0.906   1.711
  481SOL    HW2 2343   2.308   1.054   1.652
  482SOL     OW 2344   5.056   4.214   2.612
  482SOL    HW1 2345   5.147   4.219   2.572
  482SOL    HW2 2346   5.000   4.148   2.561
  483SOL     OW 2347   5.357   2.008   1.757
  483SOL    HW1 2348   5.363   2.026   1.659
  483SOL    HW2 2349   5.267   1.970   1.778
  484SOL     OW 2350   0.512   2.905   4.542
  484SOL    HW1 2351   0.481   2.810   4.539
  484SOL    HW2 2352   0.593   2.915   4.484
  485SOL     OW 2353   3.391   4.948   2.476
  485SOL    HW1 2354   3.446   5.030   2.489
  485SOL    HW2 2355   3.381   4.928   2.379
  486SOL     OW 2356   1.254   1.432   0.900
  486SOL    HW1 2357   1.275   1.384   0.815
  486SOL    HW2 2358   1.331   1.492   0.924
  487SOL     OW 2359   0.915   2.301   7.006
  487SOL    HW1 2360   0.884   2.338   0.067
  487SOL    HW2 2361   0.909   2.202   7.008
  488SOL     OW 2362   0.920   1.564   1.376
  488SOL    HW1 2363   1.001   1.528   1.422
  488SOL    HW2 2364   0.877   1.490   1.324
  489SOL     OW 2365   3.262   5.699   7.009
  489SOL    HW1 2366   3.250   5.673   0.077
  489SOL    HW2 2367   3.310   5.787   7.004
  490SOL     OW 2368   6.021   6.264   4.374
  490SOL    HW1 2369   6.119   6.266   4.391
  490SOL    HW2 2370   5.979   6.348   4.408
  491SOL     OW 2371   0.316   2.814   2.525
  491SOL    HW1 2372   0.344   2.724   2.558
  491SOL    HW2 2373   0.386   2.882   2.547
  492SOL     OW 2374   3.495   0.565   5.654
  492SOL    HW1 2375   3.437   0.637   5.692
  492SOL    HW2 2376   3.438   0.490   5.621
  493SOL     OW 2377   6.702   5.005   6.061
  493SOL    HW1 2378   6.633   5.074   6.080
  493SOL    HW2 2379   6.698   4.980   5.964
  494SOL     OW 2380   0.491   6.001   6.932
  494SOL    HW1 2381   0.542   6.060   6.995
  494SOL    HW2 2382   0.412   5.962   6.979
  495SOL     OW 2383   4.609   5.073   2.527
  495SOL    HW1 2384   4.637   4.979   2.508
  495SOL    HW2 2385   4.589   5.119   2.441
  496SOL     OW 2386   5.597   2.874   3.139
  496SOL    HW1 2387   5.692   2.886   3.109
  496SOL    HW2 2388   5.540   2.855   3.059
  497SOL     OW 2389   3.519   1.295   4.794
  497SOL    HW1 2390   3.496   1.286   4.891
  497SOL    HW2 2391   3.483   1.381   4.759
  498SOL     OW 2392   1.082   3.204   2.387
  498SOL    HW1 2393   1.175   3.170   2.370
  498SOL    HW2 2394   1.067   3.212   2.486
  499SOL     OW 2395   3.139   0.655   4.293
  499SOL    HW1 2396   3.102   0.562   4.293
  499SOL    HW2 2397   3.167   0.679   4.200
  500SOL     OW 2398   0.992   4.379   3.644
  500SOL    HW1 2399   1.012   4.412   3.551
  500SOL    HW2 2400   0.954   4.287   3.638
  501SOL     OW 2401   2.258   2.014   0.271
  501SOL    HW1 2402   2.281   1.921   0.241
  501SOL    HW2 2403   2.328   2.046   0.335
  502SOL     OW 2404   5.386   4.103   5.678
  502SOL    HW1 2405   5.428   4.162   5.746
  502SOL    HW2 2406   5.327   4.036   5.725
  503SOL     OW 2407   6.151   4.193   6.232
  503SOL    HW1 2408   6.178   4.248   6.153
  503SOL    HW2 2409   6.055   4.168   6.224
  504SOL     OW 2410   2.140   6.174   4.383
  504SOL    HW1 2411   2.095   6.099   4.432
  504SOL    HW2 2412   2.135   6.257   4.439
  505SOL     OW 2413   4.041   0.124   5.597
  505SOL    HW1 2414   4.018   0.203   5.654
  505SOL    HW2 2415   4.023   0.145   5.501
  506SOL     OW 2416   1.708   4.680   4.801
  506SOL    HW1 2417   1.675   4.736   4.725
  506SOL    HW2 2418   1.791   4.632   4.774
  507SOL     OW 2419   2.863   7.008   4.461
  507SOL    HW1 2420   2.777   0.026   4.436
  507SOL    HW2 2421   2.865   6.916   4.421
  508SOL     OW 2422   6.006   3.198   2.806
  508SOL    HW1 2423   6.083   3.257   2.783
  508SOL    HW2 2424   6.013   3.172   2.903
  509SOL     OW 2425   4.257   0.906   1.660
  509SOL    HW1 2426   4.200   0.824   1.655
  509SOL    HW2 2427   4.266   0.934   1.756
  510SOL     OW 2428   6.881   4.914   5.566
  510SOL    HW1 2429   6.959   4.859   5.596
  510SOL    HW2 2430   6.805   4.854   5.541
  511SOL     OW 2431   0.201   6.381   6.894
  511SOL    HW1 2432   0.124   6.445   6.899
  511SOL    HW2 2433   0.273   6.411   6.957
  512SOL     OW 2434   0.783   2.895   0.325
  512SOL    HW1 2435   0.850   2.886   0.252
  512SOL    HW2 2436   0.691   2.896   0.285
  513SOL     OW 2437   5.948   6.063   2.928
  513SOL    HW1 2438   5.957   5.966   2.903
  513SOL    HW2 2439   6.021   6.115   2.884
  514SOL     OW 2440   6.712   2.623   4.113
  514SOL    HW1 2441   6.795   2.586   4.070
  514SOL    HW2 2442   6.738   2.676   4.194
  515SOL     OW 2443   2.521   6.785   5.804
  515SOL    HW1 2444   2.425   6.760   5.790
  515SOL    HW2 2445   2.525   6.868   5.861
  516SOL     OW 2446   2.937   4.722   1.468
  516SOL    HW1 2447   2.880   4.694   1.545
  516SOL    HW2 2448   3.027   4.748   1.501
  517SOL     OW 2449   5.461   6.683   2.159
  517SOL    HW1 2450   5.386   6.704   2.096
  517SOL    HW2 2451   5.439   6.717   2.250
  518SOL     OW 2452   2.452   2.207   1.848
  518SOL    HW1 2453   2.382   2.216   1.776
  518SOL    HW2 2454   2.442   2.282   1.913
  519SOL     OW 2455   0.009   0.325   4.673
  519SOL    HW1 2456   6.963   0.272   4.715
  519SOL    HW2 2457   7.011   0.349   4.579
  520SOL     OW 2458   5.663   4.456   6.399
  520SOL    HW1 2459   5.747   4.494   6.437
  520SOL    HW2 2460   5.595   4.447   6.471
  521SOL     OW 2461   6.554   1.727   6.108
  521SOL    HW1 2462   6.597   1.796   6.166
  521SOL    HW2 2463   6.505   1.662   6.165
  522SOL     OW 2464   3.931   2.876   5.241
  522SOL    HW1 2465   3.890   2.793   5.279
  522SOL    HW2 2466   4.030   2.865   5.235
  523SOL     OW 2467   6.910   6.209   3.662
  523SOL    HW1 2468   6.833   6.267   3.637
  523SOL    HW2 2469   6.995   6.262   3.658
  524SOL     OW 2470   3.000   1.032   6.608
  524SOL    HW1 2471   3.073   1.001   6.547
  524SOL    HW2 2472   2.935   1.089   6.558
  525SOL     OW 2473   2.697   3.664   6.366
  525SOL    HW1 2474   2.778   3.625   6.322
  525SOL    HW2 2475   2.618   3.655   6.306
  526SOL     OW 2476   2.596   5.397   5.136
  526SOL    HW1 2477   2.665   5.346   5.085
  526SOL    HW2 2478   2.620   5.398   5.233
  527SOL     OW 2479   6.403   1.531   5.815
  527SOL    HW1 2480   6.473   1.470   5.853
  527SOL    HW2 2481   6.423   1.625   5.841
  528SOL     OW 2482   1.880   1.193   4.544
  528SOL    HW1 2483   1.793   1.192   4.593
  528SOL    HW2 2484   1.914   1.100   4.535
  529SOL     OW 2485   0.561   5.121   5.036
  529SOL    HW1 2486   0.591   5.026   5.029
  529SOL    HW2 2487   0.611   5.177   4.970
  530SOL     OW 2488   2.539   3.131   5.411
  530SOL    HW1 2489   2.553   3.057   5.476
  530SOL    HW2 2490   2.520   3.093   5.320
  531SOL     OW 2491   0.248   0.752   1.136
  531SOL    HW1 2492   0.267   0.799   1.223
  531SOL    HW2 2493   0.326   0.693   1.114
  532SOL     OW 2494   0.844   1.821   5.701
  532SOL    HW1 2495   0.793   1.804   5.616
  532SOL    HW2 2496   0.942   1.811   5.684
  533SOL     OW 2497   5.369   6.678   4.683
  533SOL    HW1 2498   5.445   6.614   4.691
  533SOL    HW2 2499   5.285   6.635   4.718
  534SOL     OW 2500   4.711   5.697   3.735
  534SOL    HW1 2501   4.789   5.671   3.792
  534SOL    HW2 2502   4.735   5.778   3.682
  535SOL     OW 2503   0.584   4.053   3.948
  535SOL    HW1 2504   0.635   3.975   3.984
  535SOL    HW2 2505   0.567   4.039   3.850
  536SOL     OW 2506   0.547   5.455   1.465
  536SOL    HW1 2507   0.581   5.496   1.549
  536SOL    HW2 2508   0.512   5.527   1.405
  537SOL     OW 2509   2.068   6.431   3.601
  537SOL    HW1 2510   1.980   6.422   3.555
  537SOL    HW2 2511   2.076   6.360   3.671
  538SOL     OW 2512   0.768   5.612   3.702
  538SOL    HW1 2513   0.716   5.547   3.756
  538SOL    HW2 2514   0.837   5.563   3.648
  539SOL     OW 2515   0.891   5.285   1.662
  539SOL    HW1 2516   0.900   5.380   1.693
  539SOL    HW2 2517   0.823   5.238   1.718
  540SOL     OW 2518   0.582   1.919   2.684
  540SOL    HW1 2519   0.655   1.857   2.655
  540SOL    HW2 2520   0.605   2.013   2.659
  541SOL     OW 2521   3.193   6.298   5.117
  541SOL    HW1 2522   3.186   6.255   5.027
  541SOL    HW2 2523   3.256   6.375   5.113
  542SOL     OW 2524   6.236   6.329   0.023
  542SOL    HW1 2525   6.283   6.384   0.092
  542SOL    HW2 2526   6.240   6.374   6.962
  543SOL     OW 2527   1.011   5.111   6.738
  543SOL    HW1 2528   1.098   5.159   6.736
  543SOL    HW2 2529   1.025   5.015   6.714
  544SOL     OW 2530   0.780   5.236   1.122
  544SOL    HW1 2531   0.768   5.221   1.220
  544SOL    HW2 2532   0.877   5.230   1.100
  545SOL     OW 2533   3.748   1.609   3.318
  545SOL    HW1 2534   3.788   1.699   3.300
  545SOL    HW2 2535   3.819   1.539   3.311
  546SOL     OW 2536   1.028   3.602   1.575
  546SOL    HW1 2537   1.075   3.515   1.588
  546SOL    HW2 2538   0.998   3.611   1.480
  547SOL     OW 2539   2.849   2.737   0.281
  547SOL    HW1 2540   2.787   2.707   0.353
  547SOL    HW2 2541   2.802   2.734   0.193
  548SOL     OW 2542   3.929   3.359   3.576
  548SOL    HW1 2543   3.994   3.381   3.503
  548SOL    HW2 2544   3.943   3.265   3.606
  549SOL     OW 2545   5.399   3.361   1.453
  549SOL    HW1 2546   5.305   3.327   1.457
  549SOL    HW2 2547   5.462   3.284   1.461
  550SOL     OW 2548   6.850   2.920   2.410
  550SOL    HW1 2549   6.892   2.924   2.319
  550SOL    HW2 2550   6.771   2.982   2.413
  551SOL     OW 2551   6.940   1.918   1.056
  551SOL    HW1 2552   6.842   1.922   1.039
  551SOL    HW2 2553   6.961   1.969   1.139
  552SOL     OW 2554   3.839   5.329   0.701
  552SOL    HW1 2555   3.926   5.362   0.737
  552SOL    HW2 2556   3.848   5.232   0.678
  553SOL     OW 2557   1.933   0.684   1.938
  553SOL    HW1 2558   2.017   0.703   1.989
  553SOL    HW2 2559   1.863   0.750   1.965
  554SOL     OW 2560   5.527   6.817   6.036
  554SOL    HW1 2561   5.551   6.722   6.015
  554SOL    HW2 2562   5.449   6.844   5.980
  555SOL     OW 2563   2.266   4.622   4.554
  555SOL    HW1 2564   2.236   4.595   4.463
  555SOL    HW2 2565   2.341   4.562   4.583
  556SOL     OW 2566   6.069   2.371   4.022
  556SOL    HW1 2567   6.057   2.331   3.931
  556SOL    HW2 2568   6.084   2.469   4.013
  557SOL     OW 2569   6.905   5.837   6.248
  557SOL    HW1 2570   6.847   5.809   6.324
  557SOL    HW2 2571   6.870   5.798   6.163
  558SOL     OW 2572   4.123   3.647   5.501
  558SOL    HW1 2573   4.177   3.562   5.500
  558SOL    HW2 2574   4.129   3.691   5.412
  559SOL     OW 2575   0.102   5.814   6.107
  559SOL    HW1 2576   0.178   5.880   6.112
  559SOL    HW2 2577   0.041   5.827   6.185
  560SOL     OW 2578   4.654   6.499   6.669
  560SOL    HW1 2579   4.574   6.533   6.620
  560SOL    HW2 2580   4.679   6.409   6.634
  561SOL     OW 2581   5.804   6.743   0.044
  561SOL    HW1 2582   5.870   6.810   0.008
  561SOL    HW2 2583   5.788   6.673   7.002
  562SOL     OW 2584   5.452   1.192   6.225
  562SOL    HW1 2585   5.366   1.154   6.260
  562SOL    HW2 2586   5.511   1.117   6.194
  563SOL     OW 2587   2.683   6.200   4.285
  563SOL    HW1 2588   2.585   6.186   4.300
  563SOL    HW2 2589   2.705   6.296   4.299
  564SOL     OW 2590   1.741   1.538   6.401
  564SOL    HW1 2591   1.751   1.561   6.304
  564SOL    HW2 2592   1.751   1.439   6.413
  565SOL     OW 2593   4.443   3.772   5.549
  565SOL    HW1 2594   4.422   3.812   5.460
  565SOL    HW2 2595   4.422   3.674   5.548
  566SOL     OW 2596   4.214   4.869   3.350
  566SOL    HW1 2597   4.231   4.865   3.251
  566SOL    HW2 2598   4.282   4.928   3.393
  567SOL     OW 2599   3.531   3.206   4.140
  567SOL    HW1 2600   3.446   3.248   4.110
  567SOL    HW2 2601   3.541   3.116   4.098
  568SOL     OW 2602   3.074   2.481   7.007
  568SOL    HW1 2603   3.088   2.390   6.968
  568SOL    HW2 2604   3.110   2.550   6.945
  569SOL     OW 2605   1.741   2.492   0.571
  569SOL    HW1 2606   1.817   2.428   0.556
  569SOL    HW2 2607   1.666   2.445   0.616
  570SOL     OW 2608   1.441   6.711   0.566
  570SOL    HW1 2609   1.510   6.670   0.626
  570SOL    HW2 2610   1.446   6.810   0.572
  571SOL     OW 2611   3.394   5.501   2.943
  571SOL    HW1 2612   3.441   5.429   2.891
  571SOL    HW2 2613   3.462   5.561   2.984
  572SOL     OW 2614   2.188   4.172   5.829
  572SOL    HW1 2615   2.287   4.165   5.836
  572SOL    HW2 2616   2.150   4.087   5.790
  573SOL     OW 2617   4.427   0.904   5.079
  573SOL    HW1 2618   4.508   0.855   5.047
  573SOL    HW2 2619   4.408   0.981   5.018
  574SOL     OW 2620   2.477   2.229   4.201
  574SOL    HW1 2621   2.400   2.191   4.252
  574SOL    HW2 2622   2.527   2.156   4.156
  575SOL     OW 2623   6.679   2.962   0.316
  575SOL    HW1 2624   6.728   2.959   0.403
  575SOL    HW2 2625   6.612   3.037   0.318
  576SOL     OW 2626   1.073   2.577   2.523
  576SOL    HW1 2627   1.153   2.594   2.466
  576SOL    HW2 2628   1.035   2.488   2.501
  577SOL     OW 2629   2.227   1.885   3.496
  577SOL    HW1 2630   2.280   1.921   3.419
  577SOL    HW2 2631   2.177   1.960   3.539
  578SOL     OW 2632   0.397   3.502   3.370
  578SOL    HW1 2633   0.422   3.594   3.399
  578SOL    HW2 2634   0.343   3.457   3.442
  579SOL     OW 2635   3.965   1.707   0.625
  579SOL    HW1 2636   3.942   1.689   0.721
  579SOL    HW2 2637   3.881   1.715   0.572
  580SOL     OW 2638   1.244   5.270   6.819
  580SOL    HW1 2639   1.253   5.368   6.800
  580SOL    HW2 2640   1.273   5.251   6.913
  581SOL     OW 2641   3.871   3.439   2.862
  581SOL    HW1 2642   3.798   3.372   2.854
  581SOL    HW2 2643   3.836   3.530   2.840
  582SOL     OW 2644   5.262   3.720   2.787
  582SOL    HW1 2645   5.326   3.797   2.780
  582SOL    HW2 2646   5.168   3.754   2.783
  583SOL     OW 2647   2.307   4.387   6.917
  583SOL    HW1 2648   2.249   4.445   6.973
  583SOL    HW2 2649   2.341   4.439   6.838
  584SOL     OW 2650   0.444   4.748   5.174
  584SOL    HW1 2651   0.346   4.737   5.190
  584SOL    HW2 2652   0.494   4.672   5.215
  585SOL     OW 2653   0.367   2.486   6.099
  585SOL    HW1 2654   0.280   2.486   6.150
  585SOL    HW2 2655   0.358   2.428   6.019
  586SOL     OW 2656   2.828   6.454   1.251
  586SOL    HW1 2657   2.920   6.467   1.287
  586SOL    HW2 2658   2.761   6.476   1.322
  587SOL     OW 2659   1.252   3.158   6.133
  587SOL    HW1 2660   1.328   3.096   6.147
  587SOL    HW2 2661   1.167   3.106   6.127
  588SOL     OW 2662   3.462   6.482   1.546
  588SOL    HW1 2663   3.480   6.395   1.500
  588SOL    HW2 2664   3.494   6.477   1.641
  589SOL     OW 2665   3.792   5.082   2.526
  589SOL    HW1 2666   3.719   5.145   2.498
  589SOL    HW2 2667   3.771   5.046   2.617
  590SOL     OW 2668   0.470   2.147   1.758
  590SOL    HW1 2669   0.477   2.227   1.819
  590SOL    HW2 2670   0.453   2.065   1.813
  591SOL     OW 2671   3.416   0.401   3.403
  591SOL    HW1 2672   3.417   0.305   3.375
  591SOL    HW2 2673   3.450   0.409   3.497
  592SOL     OW 2674   4.725   0.603   0.647
  592SOL    HW1 2675   4.707   0.547   0.728
  592SOL    HW2 2676   4.668   0.685   0.650
  593SOL     OW 2677   4.698   2.422   3.912
  593SOL    HW1 2678   4.796   2.406   3.922
  593SOL    HW2 2679   4.649   2.377   3.987
  594SOL     OW 2680   4.016   4.016   1.169
  594SOL    HW1 2681   4.114   4.028   1.152
  594SOL    HW2 2682   3.965   4.035   1.085
  595SOL     OW 2683   3.938   5.988   4.010
  595SOL    HW1 2684   4.016   5.960   4.066
  595SOL    HW2 2685   3.854   5.949   4.048
  596SOL     OW 2686   0.649   4.434   2.619
  596SOL    HW1 2687   0.691   4.377   2.690
  596SOL    HW2 2688   0.662   4.531   2.641
  597SOL     OW 2689   4.606   0.310   6.102
  597SOL    HW1 2690   4.521   0.300   6.154
  597SOL    HW2 2691   4.588   0.290   6.005
  598SOL     OW 2692   3.987   4.534   0.632
  598SOL    HW1 2693   3.977   4.584   0.546
  598SOL    HW2 2694   3.958   4.439   0.619
  599SOL     OW 2695   6.807   0.286   2.613
  599SOL    HW1 2696   6.771   0.211   2.668
  599SOL    HW2 2697   6.734   0.323   2.555
  600SOL     OW 2698   1.184   7.001   0.189
  600SOL    HW1 2699   1.098   7.009   0.138
  600SOL    HW2 2700   1.165   7.009   0.287
  601SOL     OW 2701   2.947   6.011   3.769
  601SOL    HW1 2702   2.929   5.924   3.723
  601SOL    HW2 2703   2.934   6.086   3.704
  602SOL     OW 2704   1.651   0.435   1.445
  602SOL    HW1 2705   1.595   0.389   1.376
  602SOL    HW2 2706   1.747   0.414   1.429
  603SOL     OW 2707   4.142   2.245   3.271
  603SOL    HW1 2708   4.226   2.294   3.296
  603SOL    HW2 2709   4.127   2.253   3.173
  604SOL     OW 2710   1.063   3.475   6.696
  604SOL    HW1 2711   1.110   3.535   6.631
  604SOL    HW2 2712   1.129   3.425   6.750
  605SOL     OW 2713   6.097   6.561   3.001
  605SOL    HW1 2714   6.173   6.575   2.938
  605SOL    HW2 2715   6.058   6.650   3.026
  606SOL     OW 2716   3.656   0.505   3.556
  606SOL    HW1 2717   3.630   0.590   3.602
  606SOL    HW2 2718   3.635   0.427   3.615
  607SOL     OW 2719   5.144   1.671   4.271
  607SOL    HW1 2720   5.227   1.629   4.308
  607SOL    HW2 2721   5.163   1.766   4.247
  608SOL     OW 2722   3.819   0.956   0.853
  608SOL    HW1 2723   3.793   0.894   0.927
  608SOL    HW2 2724   3.747   1.024   0.839
  609SOL     OW 2725   3.188   3.061   3.980
  609SOL    HW1 2726   3.256   2.990   3.998
  609SOL    HW2 2727   3.124   3.066   4.057
  610SOL     OW 2728   5.478   2.310   4.384
  610SOL    HW1 2729   5.539   2.240   4.422
  610SOL    HW2 2730   5.412   2.266   4.324
  611SOL     OW 2731   0.281   0.361   0.480
  611SOL    HW1 2732   0.362   0.409   0.445
  611SOL    HW2 2733   0.290   0.263   0.462
  612SOL     OW 2734   3.151   5.379   6.032
  612SOL    HW1 2735   3.082   5.421   5.972
  612SOL    HW2 2736   3.106   5.340   6.112
  613SOL     OW 2737   3.917   1.626   6.205
  613SOL    HW1 2738   3.917   1.528   6.226
  613SOL    HW2 2739   3.912   1.678   6.290
  614SOL     OW 2740   5.468   4.679   0.968
  614SOL    HW1 2741   5.455   4.609   1.037
  614SOL    HW2 2742   5.463   4.637   0.877
  615SOL     OW 2743   0.135   6.863   0.885
  615SOL    HW1 2744   0.054   6.829   0.934
  615SOL    HW2 2745   0.110   6.945   0.833
  616SOL     OW 2746   5.788   1.416   4.256
  616SOL    HW1 2747   5.882   1.434   4.228
  616SOL    HW2 2748   5.775   1.317   4.268
  617SOL     OW 2749   0.524   4.727   5.593
  617SOL    HW1 2750   0.484   4.788   5.524
  617SOL    HW2 2751   0.490   4.753   5.684
  618SOL     OW 2752   5.901   3.422   0.337
  618SOL    HW1 2753   5.803   3.437   0.349
  618SOL    HW2 2754   5.951   3.486   0.395
  619SOL     OW 2755   2.944   0.422   0.702
  619SOL    HW1 2756   2.929   0.323   0.702
  619SOL    HW2 2757   3.017   0.445   0.638
  620SOL     OW 2758   5.754   2.185   1.982
  620SOL    HW1 2759   5.698   2.164   1.902
  620SOL    HW2 2760   5.734   2.121   2.055
  621SOL     OW 2761   2.958   0.708   6.565
  621SOL    HW1 2762   3.017   0.711   6.484
  621SOL    HW2 2763   2.956   0.799   6.608
  622SOL     OW 2764   1.368   1.559   5.000
  622SOL    HW1 2765   1.381   1.466   4.964
  622SOL    HW2 2766   1.453   1.610   4.990
  623SOL     OW 2767   5.665   6.873   4.102
  623SOL    HW1 2768   5.731   6.802   4.127
  623SOL    HW2 2769   5.595   6.834   4.043
  624SOL     OW 2770   6.631   1.095   6.625
  624SOL    HW1 2771   6.628   1.156   6.704
  624SOL    HW2 2772   6.704   1.125   6.563
  625SOL     OW 2773   2.849   0.737   0.726
  625SOL    HW1 2774   2.889   0.828   0.742
  625SOL    HW2 2775   2.875   0.675   0.800
  626SOL     OW 2776   0.667   5.316   3.786
  626SOL    HW1 2777   0.736   5.343   3.853
  626SOL    HW2 2778   0.705   5.249   3.723
  627SOL     OW 2779   6.792   0.260   6.960
  627SOL    HW1 2780   6.692   0.248   6.957
  627SOL    HW2 2781   6.836   0.174   6.933
  628SOL     OW 2782   5.037   4.761   5.181
  628SOL    HW1 2783   5.066   4.805   5.267
  628SOL    HW2 2784   5.083   4.673   5.171
  629SOL     OW 2785   0.001   0.012   6.366
  629SOL    HW1 2786   6.975   6.980   6.306
  629SOL    HW2 2787   6.968   0.057   6.432
  630SOL     OW 2788   6.623   1.527   1.154
  630SOL    HW1 2789   6.559   1.600   1.130
  630SOL    HW2 2790   6.673   1.553   1.237
  631SOL     OW 2791   1.929   2.451   5.060
  631SOL    HW1 2792   1.889   2.424   4.972
  631SOL    HW2 2793   2.021   2.488   5.045
  632SOL     OW 2794   3.623   3.400   6.594
  632SOL    HW1 2795   3.659   3.366   6.680
  632SOL    HW2 2796   3.560   3.333   6.555
  633SOL     OW 2797   1.336   5.929   1.818
  633SOL    HW1 2798   1.360   5.836   1.791
  633SOL    HW2 2799   1.296   5.928   1.910
  634SOL     OW 2800   3.111   3.370   4.198
  634SOL    HW1 2801   3.091   3.378   4.295
  634SOL    HW2 2802   3.052   3.433   4.147
  635SOL     OW 2803   5.898   0.866   6.452
  635SOL    HW1 2804   5.932   0.918   6.530
  635SOL    HW2 2805   5.805   0.834   6.471
  636SOL     OW 2806   2.832   0.430   6.959
  636SOL    HW1 2807   2.845   0.355   7.023
  636SOL    HW2 2808   2.825   0.516   7.009
  637SOL     OW 2809   6.138   1.103   1.339
  637SOL    HW1 2810   6.190   1.018   1.347
  637SOL    HW2 2811   6.199   1.176   1.310
  638SOL     OW 2812   6.348   3.626   4.424
  638SOL    HW1 2813   6.446   3.635   4.443
  638SOL    HW2 2814   6.313   3.543   4.467
  639SOL     OW 2815   5.164   4.976   3.125
  639SOL    HW1 2816   5.123   5.064   3.103
  639SOL    HW2 2817   5.091   4.912   3.152
  640SOL     OW 2818   0.548   2.570   2.436
  640SOL    HW1 2819   0.486   2.528   2.370
  640SOL    HW2 2820   0.504   2.574   2.526
  641SOL     OW 2821   2.027   4.869   4.564
  641SOL    HW1 2822   2.100   4.886   4.629
  641SOL    HW2 2823   2.013   4.770   4.554
  642SOL     OW 2824   1.200   3.669   4.999
  642SOL    HW1 2825   1.141   3.591   4.980
  642SOL    HW2 2826   1.149   3.739   5.049
  643SOL     OW 2827   4.771   5.236   6.845
  643SOL    HW1 2828   4.814   5.163   6.793
  643SOL    HW2 2829   4.671   5.224   6.844
  644SOL     OW 2830   6.546   0.248   4.673
  644SOL    HW1 2831   6.483   0.170   4.673
  644SOL    HW2 2832   6.632   0.222   4.629
  645SOL     OW 2833   4.251   4.716   2.537
  645SOL    HW1 2834   4.301   4.696   2.453
  645SOL    HW2 2835   4.154   4.698   2.524
  646SOL     OW 2836   4.380   0.564   5.110
  646SOL    HW1 2837   4.445   0.622   5.060
  646SOL    HW2 2838   4.320   0.518   5.046
  647SOL     OW 2839   4.764   2.233   5.280
  647SOL    HW1 2840   4.835   2.182   5.231
  647SOL    HW2 2841   4.798   2.261   5.370
  648SOL     OW 2842   6.089   2.206   2.972
  648SOL    HW1 2843   6.083   2.142   3.049
  648SOL    HW2 2844   6.046   2.292   2.997
  649SOL     OW 2845   2.471   4.843   0.348
  649SOL    HW1 2846   2.426   4.822   0.435
  649SOL    HW2 2847   2.556   4.892   0.365
  650SOL     OW 2848   6.855   5.669   0.870
  650SOL    HW1 2849   6.924   5.687   0.940
  650SOL    HW2 2850   6.786   5.742   0.872
  651SOL     OW 2851   1.151   0.221   5.180
  651SOL    HW1 2852   1.134   0.299   5.120
  651SOL    HW2 2853   1.165   0.138   5.124
  652SOL     OW 2854   3.790   6.955   1.380
  652SOL    HW1 2855   3.748   7.013   1.310
  652SOL    HW2 2856   3.876   6.997   1.410
  653SOL     OW 2857   0.533   6.221   1.588
  653SOL    HW1 2858   0.626   6.239   1.621
  653SOL    HW2 2859   0.520   6.266   1.500
  654SOL     OW 2860   0.093   6.784   5.433
  654SOL    HW1 2861   0.058   6.742   5.518
  654SOL    HW2 2862   0.016   6.804   5.373
  655SOL     OW 2863   6.817   4.456   2.195
  655SOL    HW1 2864   6.877   4.399   2.139
  655SOL    HW2 2865   6.854   4.549   2.198
  656SOL     OW 2866   3.389   6.603   0.366
  656SOL    HW1 2867   3.489   6.600   0.368
  656SOL    HW2 2868   3.353   6.551   0.442
  657SOL     OW 2869   3.419   2.713   1.754
  657SOL    HW1 2870   3.343   2.677   1.700
  657SOL    HW2 2871   3.385   2.739   1.845
  658SOL     OW 2872   2.262   4.148   4.375
  658SOL    HW1 2873   2.225   4.147   4.282
  658SOL    HW2 2874   2.256   4.056   4.414
  659SOL     OW 2875   2.273   6.729   5.731
  659SOL    HW1 2876   2.191   6.771   5.691
  659SOL    HW2 2877   2.247   6.675   5.811
  660SOL     OW 2878   4.773   4.181   1.942
  660SOL    HW1 2879   4.680   4.214   1.931
  660SOL    HW2 2880   4.804   4.198   2.036
  661SOL     OW 2881   4.117   4.742   4.071
  661SOL    HW1 2882   4.019   4.758   4.082
  661SOL    HW2 2883   4.136   4.710   3.978
  662SOL     OW 2884   4.988   3.294   0.690
  662SOL    HW1 2885   5.070   3.261   0.737
  662SOL    HW2 2886   4.938   3.216   0.652
  663SOL     OW 2887   0.448   4.683   0.581
  663SOL    HW1 2888   0.526   4.628   0.552
  663SOL    HW2 2889   0.473   4.780   0.578
  664SOL     OW 2890   1.519   6.688   6.922
  664SOL    HW1 2891   1.570   6.602   6.918
  664SOL    HW2 2892   1.538   6.733   7.009
  665SOL     OW 2893   4.105   6.057   0.957
  665SOL    HW1 2894   4.126   6.083   1.051
  665SOL    HW2 2895   4.187   6.066   0.900
  666SOL     OW 2896   3.553   2.070   0.288
  666SOL    HW1 2897   3.582   2.130   0.214
  666SOL    HW2 2898   3.611   2.085   0.368
  667SOL     OW 2899   0.969   3.523   3.200
  667SOL    HW1 2900   1.054   3.557   3.240
  667SOL    HW2 2901   0.970   3.423   3.200
  668SOL     OW 2902   5.040   6.642   0.640
  668SOL    HW1 2903   5.130   6.655   0.600
  668SOL    HW2 2904   4.977   6.710   0.602
  669SOL     OW 2905   1.523   6.409   3.413
  669SOL    HW1 2906   1.513   6.329   3.472
  669SOL    HW2 2907   1.620   6.434   3.407
  670SOL     OW 2908   2.924   3.724   3.757
  670SOL    HW1 2909   2.920   3.627   3.782
  670SOL    HW2 2910   2.839   3.769   3.784
  671SOL     OW 2911   2.188   0.285   6.015
  671SOL    HW1 2912   2.132   0.313   6.093
  671SOL    HW2 2913   2.147   0.205   5.972
  672SOL     OW 2914   2.137   3.407   3.907
  672SOL    HW1 2915   2.191   3.402   3.991
  672SOL    HW2 2916   2.040   3.405   3.930
  673SOL     OW 2917   4.872   0.418   0.419
  673SOL    HW1 2918   4.828   0.371   0.495
  673SOL    HW2 2919   4.823   0.503   0.399
  674SOL     OW 2920   0.559   1.457   3.594
  674SOL    HW1 2921   0.496   1.388   3.628
  674SOL    HW2 2922   0.587   1.517   3.669
  675SOL     OW 2923   0.080   2.624   4.460
  675SOL    HW1 2924   0.078   2.722   4.443
  675SOL    HW2 2925   7.015   2.590   4.472
  676SOL     OW 2926   2.244   4.695   4.158
  676SOL    HW1 2927   2.320   4.649   4.112
  676SOL    HW2 2928   2.280   4.753   4.232
  677SOL     OW 2929   5.981   0.017   0.697
  677SOL    HW1 2930   6.069   0.003   0.743
  677SOL    HW2 2931   5.947   0.109   0.718
  678SOL     OW 2932   2.238   0.934   6.378
  678SOL    HW1 2933   2.334   0.955   6.363
  678SOL    HW2 2934   2.225   0.899   6.471
  679SOL     OW 2935   4.438   0.598   2.566
  679SOL    HW1 2936   4.431   0.655   2.649
  679SOL    HW2 2937   4.394   0.645   2.490
  680SOL     OW 2938   4.835   4.385   5.566
  680SOL    HW1 2939   4.861   4.401   5.661
  680SOL    HW2 2940   4.772   4.307   5.562
  681SOL     OW 2941   0.709   6.761   1.321
  681SOL    HW1 2942   0.805   6.771   1.350
  681SOL    HW2 2943   0.664   6.692   1.377
  682SOL     OW 2944   1.634   5.635   0.196
  682SOL    HW1 2945   1.617   5.704   0.266
  682SOL    HW2 2946   1.696   5.672   0.126
  683SOL     OW 2947   4.232   1.215   0.063
  683SOL    HW1 2948   4.243   1.167   7.003
  683SOL    HW2 2949   4.253   1.153   0.138
  684SOL     OW 2950   0.282   5.990   5.642
  684SOL    HW1 2951   0.341   6.061   5.679
  684SOL    HW2 2952   0.337   5.910   5.617
  685SOL     OW 2953   5.744   0.168   5.676
  685SOL    HW1 2954   5.647   0.159   5.650
  685SOL    HW2 2955   5.771   0.089   5.731
  686SOL     OW 2956   5.195   3.847   3.188
  686SOL    HW1 2957   5.255   3.904   3.132
  686SOL    HW2 2958   5.124   3.806   3.130
  687SOL     OW 2959   0.214   3.481   5.602
  687SOL    HW1 2960   0.131   3.522   5.565
  687SOL    HW2 2961   0.270   3.552   5.645
  688SOL     OW 2962   0.593   3.776   6.225
  688SOL    HW1 2963   0.676   3.764   6.170
  688SOL    HW2 2964   0.618   3.796   6.319
  689SOL     OW 2965   6.569   3.411   5.834
  689SOL    HW1 2966   6.566   3.510   5.848
  689SOL    HW2 2967   6.477   3.373   5.839
  690SOL     OW 2968   1.355   2.130   3.653
  690SOL    HW1 2969   1.376   2.198   3.583
  690SOL    HW2 2970   1.409   2.149   3.735
  691SOL     OW 2971   1.053   2.413   6.763
  691SOL    HW1 2972   1.152   2.428   6.771
  691SOL    HW2 2973   1.021   2.362   6.843
  692SOL     OW 2974   2.528   0.259   2.270
  692SOL    HW1 2975   2.495   0.262   2.175
  692SOL    HW2 2976   2.574   0.172   2.286
  693SOL     OW 2977   6.532   2.655   2.888
  693SOL    HW1 2978   6.466   2.627   2.818
  693SOL    HW2 2979   6.556   2.752   2.874
  694SOL     OW 2980   1.839   6.512   1.163
  694SOL    HW1 2981   1.926   6.509   1.212
  694SOL    HW2 2982   1.779   6.439   1.197
  695SOL     OW 2983   5.273   5.582   5.267
  695SOL    HW1 2984   5.297   5.638   5.346
  695SOL    HW2 2985   5.337   5.506   5.259
  696SOL     OW 2986   4.357   4.632   2.294
  696SOL    HW1 2987   4.279   4.579   2.261
  696SOL    HW2 2988   4.378   4.705   2.228
  697SOL     OW 2989   0.947   4.517   4.373
  697SOL    HW1 2990   1.034   4.565   4.362
  697SOL    HW2 2991   0.875   4.566   4.325
  698SOL     OW 2992   4.570   0.392   3.478
  698SOL    HW1 2993   4.600   0.314   3.424
  698SOL    HW2 2994   4.476   0.415   3.454
  699SOL     OW 2995   1.278   3.966   0.929
  699SOL    HW1 2996   1.178   3.973   0.927
  699SOL    HW2 2997   1.314   4.017   1.007
  700SOL     OW 2998   2.710   2.434   4.664
  700SOL    HW1 2999   2.723   2.528   4.634
  700SOL    HW2 3000   2.631   2.394   4.617
  701SOL     OW 3001   0.827   4.149   6.189
  701SOL    HW1 3002   0.768   4.117   6.263
  701SOL    HW2 3003   0.772   4.165   6.107
  702SOL     OW 3004   4.929   6.953   3.988
  702SOL    HW1 3005   5.028   6.942   3.994
  702SOL    HW2 3006   4.907   0.022   3.971
  703SOL     OW 3007   4.155   3.883   6.262
  703SOL    HW1 3008   4.081   3.830   6.304
  703SOL    HW2 3009   4.127   3.978   6.254
  704SOL     OW 3010   1.447   6.938   6.836
  704SOL    HW1 3011   1.441   6.951   6.737
  704SOL    HW2 3012   1.485   6.848   6.855
  705SOL     OW 3013   5.757   1.397   2.615
  705SOL    HW1 3014   5.829   1.461   2.590
  705SOL    HW2 3015   5.795   1.304   2.619
  706SOL     OW 3016   3.652   1.966   3.703
  706SOL    HW1 3017   3.730   2.028   3.699
  706SOL    HW2 3018   3.572   2.014   3.738
  707SOL     OW 3019   5.321   0.079   1.690
  707SOL    HW1 3020   5.306   0.019   1.612
  707SOL    HW2 3021   5.245   0.143   1.699
  708SOL     OW 3022   4.059   0.625   1.140
  708SOL    HW1 3023   4.011   0.641   1.227
  708SOL    HW2 3024   4.006   0.562   1.084
  709SOL     OW 3025   1.102   5.173   1.061
  709SOL    HW1 3026   1.162   5.118   1.120
  709SOL    HW2 3027   1.156   5.214   0.987
  710SOL     OW 3028   3.205   3.993   2.673
  710SOL    HW1 3029   3.170   4.027   2.760
  710SOL    HW2 3030   3.171   3.901   2.656
  711SOL     OW 3031   6.758   1.654   4.024
  711SOL    HW1 3032   6.687   1.651   4.094
  711SOL    HW2 3033   6.723   1.699   3.941
  712SOL     OW 3034   1.271   3.729   1.635
  712SOL    HW1 3035   1.312   3.726   1.544
  712SOL    HW2 3036   1.185   3.677   1.634
  713SOL     OW 3037   4.089   3.445   2.224
  713SOL    HW1 3038   4.070   3.372   2.289
  713SOL    HW2 3039   4.127   3.405   2.140
  714SOL     OW 3040   5.821   4.460   4.961
  714SOL    HW1 3041   5.845   4.369   4.995
  714SOL    HW2 3042   5.722   4.474   4.972
  715SOL     OW 3043   4.554   0.035   6.097
  715SOL    HW1 3044   4.616   6.988   6.122
  715SOL    HW2 3045   4.596   0.123   6.118
  716SOL     OW 3046   0.347   4.766   1.467
  716SOL    HW1 3047   0.369   4.726   1.378
  716SOL    HW2 3048   0.270   4.828   1.458
  717SOL     OW 3049   6.564   3.321   6.740
  717SOL    HW1 3050   6.659   3.303   6.769
  717SOL    HW2 3051   6.503   3.260   6.790
  718SOL     OW 3052   3.620   3.731   6.263
  718SOL    HW1 3053   3.533   3.695   6.296
  718SOL    HW2 3054   3.670   3.660   6.215
  719SOL     OW 3055   6.666   3.876   1.153
  719SOL    HW1 3056   6.638   3.969   1.175
  719SOL    HW2 3057   6.683   3.826   1.238
  720SOL     OW 3058   2.432   1.602   6.473
  720SOL    HW1 3059   2.506   1.561   6.421
  720SOL    HW2 3060   2.349   1.606   6.416
  721SOL     OW 3061   1.557   0.231   5.650
  721SOL    HW1 3062   1.500   0.148   5.656
  721SOL    HW2 3063   1.506   0.309   5.687
  722SOL     OW 3064   4.036   0.249   4.645
  722SOL    HW1 3065   3.975   0.326   4.664
  722SOL    HW2 3066   4.106   0.278   4.580
  723SOL     OW 3067   1.425   2.483   2.495
  723SOL    HW1 3068   1.496   2.546   2.526
  723SOL    HW2 3069   1.467   2.409   2.441
  724SOL     OW 3070   0.295   0.976   4.575
  724SOL    HW1 3071   0.286   0.887   4.532
  724SOL    HW2 3072   0.339   1.040   4.511
  725SOL     OW 3073   2.067   5.054   2.587
  725SOL    HW1 3074   2.074   5.064   2.488
  725SOL    HW2 3075   1.970   5.049   2.614
  726SOL     OW 3076   3.606   6.485   6.993
  726SOL    HW1 3077   3.680   6.456   6.934
  726SOL    HW2 3078   3.519   6.451   6.958
  727SOL     OW 3079   3.314   5.351   4.298
  727SOL    HW1 3080   3.281   5.285   4.366
  727SOL    HW2 3081   3.342   5.435   4.345
  728SOL     OW 3082   0.000   4.244   5.231
  728SOL    HW1 3083   6.990   4.197   5.152
  728SOL    HW2 3084   6.957   4.252   5.302
  729SOL     OW 3085   2.530   1.126   1.264
  729SOL    HW1 3086   2.503   1.061   1.335
  729SOL    HW2 3087   2.619   1.165   1.286
  730SOL     OW 3088   6.141   0.692   3.609
  730SOL    HW1 3089   6.173   0.695   3.514
  730SOL    HW2 3090   6.215   0.718   3.670
  731SOL     OW 3091   5.862   3.529   4.676
  731SOL    HW1 3092   5.848   3.542   4.578
  731SOL    HW2 3093   5.811   3.448   4.706
  732SOL     OW 3094   7.004   3.068   1.360
  732SOL    HW1 3095   6.914   3.026   1.347
  732SOL    HW2 3096   0.047   3.009   1.321
  733SOL     OW 3097   4.692   4.205   3.754
  733SOL    HW1 3098   4.691   4.265   3.834
  733SOL    HW2 3099   4.651   4.253   3.676
  734SOL     OW 3100   6.898   4.301   1.128
  734SOL    HW1 3101   6.816   4.356   1.139
  734SOL    HW2 3102   6.933   4.276   1.218
  735SOL     OW 3103   1.221   3.626   6.542
  735SOL    HW1 3104   1.206   3.720   6.511
  735SOL    HW2 3105   1.314   3.617   6.578
  736SOL     OW 3106   6.773   0.470   3.175
  736SOL    HW1 3107   6.799   0.549   3.119
  736SOL    HW2 3108   6.764   0.389   3.117
  737SOL     OW 3109   5.417   3.764   1.081
  737SOL    HW1 3110   5.354   3.723   1.147
  737SOL    HW2 3111   5.508   3.726   1.095
  738SOL     OW 3112   0.138   4.252   4.357
  738SOL    HW1 3113   0.170   4.291   4.270
  738SOL    HW2 3114   0.216   4.211   4.405
  739SOL     OW 3115   4.252   6.409   5.892
  739SOL    HW1 3116   4.231   6.456   5.978
  739SOL    HW2 3117   4.206   6.457   5.817
  740SOL     OW 3118   6.176   6.947   1.517
  740SOL    HW1 3119   6.196   6.908   1.608
  740SOL    HW2 3120   6.230   6.899   1.448
  741SOL     OW 3121   1.524   6.632   3.121
  741SOL    HW1 3122   1.551   6.545   3.163
  741SOL    HW2 3123   1.508   6.700   3.192
  742SOL     OW 3124   1.378   6.748   3.607
  742SOL    HW1 3125   1.396   6.837   3.650
  742SOL    HW2 3126   1.434   6.739   3.524
  743SOL     OW 3127   1.680   3.857   4.206
  743SOL    HW1 3128   1.660   3.936   4.148
  743SOL    HW2 3129   1.600   3.836   4.262
  744SOL     OW 3130   0.003   5.630   6.956
  744SOL    HW1 3131   6.989   5.560   7.015
  744SOL    HW2 3132   7.027   5.719   7.002
  745SOL     OW 3133   1.435   6.165   3.010
  745SOL    HW1 3134   1.366   6.097   2.984
  745SOL    HW2 3135   1.526   6.126   3.000
  746SOL     OW 3136   0.995   0.126   4.840
  746SOL    HW1 3137   0.908   0.077   4.836
  746SOL    HW2 3138   1.058   0.077   4.900
  747SOL     OW 3139   4.635   4.807   3.188
  747SOL    HW1 3140   4.639   4.842   3.282
  747SOL    HW2 3141   4.631   4.707   3.189
  748SOL     OW 3142   4.080   3.668   0.841
  748SOL    HW1 3143   4.005   3.680   0.905
  748SOL    HW2 3144   4.167   3.689   0.886
  749SOL     OW 3145   0.544   2.321   5.204
  749SOL    HW1 3146   0.591   2.409   5.205
  749SOL    HW2 3147   0.556   2.275   5.292
  750SOL     OW 3148   2.156   3.493   0.315
  750SOL    HW1 3149   2.093   3.457   0.246
  750SOL    HW2 3150   2.232   3.540   0.269
  751SOL     OW 3151   4.802   1.021   0.310
  751SOL    HW1 3152   4.811   1.017   0.211
  751SOL    HW2 3153   4.884   0.982   0.353
  752SOL     OW 3154   4.261   2.279   1.793
  752SOL    HW1 3155   4.333   2.327   1.744
  752SOL    HW2 3156   4.172   2.319   1.770
  753SOL     OW 3157   1.843   3.148   4.645
  753SOL    HW1 3158   1.935   3.162   4.681
  753SOL    HW2 3159   1.782   3.219   4.681
  754SOL     OW 3160   4.368   4.214   6.393
  754SOL    HW1 3161   4.302   4.241   6.462
  754SOL    HW2 3162   4.440   4.159   6.434
  755SOL     OW 3163   0.682   5.972   0.163
  755SOL    HW1 3164   0.768   5.964   0.113
  755SOL    HW2 3165   0.699   5.964   0.261
  756SOL     OW 3166   5.107   0.302   1.657
  756SOL    HW1 3167   5.138   0.293   1.562
  756SOL    HW2 3168   5.062   0.390   1.669
  757SOL     OW 3169   0.407   6.265   3.806
  757SOL    HW1 3170   0.329   6.252   3.867
  757SOL    HW2 3171   0.471   6.330   3.848
  758SOL     OW 3172   3.541   2.142   0.954
  758SOL    HW1 3173   3.585   2.230   0.972
  758SOL    HW2 3174   3.532   2.091   1.040
  759SOL     OW 3175   1.100   1.855   0.049
  759SOL    HW1 3176   1.158   1.797   7.018
  759SOL    HW2 3177   1.058   1.926   7.020
  760SOL     OW 3178   5.524   1.514   6.937
  760SOL    HW1 3179   5.456   1.460   6.988
  760SOL    HW2 3180   5.514   1.611   6.960
  761SOL     OW 3181   6.360   2.669   0.245
  761SOL    HW1 3182   6.308   2.604   0.301
  761SOL    HW2 3183   6.406   2.620   0.171
  762SOL     OW 3184   2.571   5.720   3.429
  762SOL    HW1 3185   2.526   5.653   3.370
  762SOL    HW2 3186   2.646   5.763   3.378
  763SOL     OW 3187   4.199   5.653   6.856
  763SOL    HW1 3188   4.100   5.657   6.849
  763SOL    HW2 3189   4.240   5.686   6.771
  764SOL     OW 3190   3.697   1.848   2.268
  764SOL    HW1 3191   3.742   1.790   2.337
  764SOL    HW2 3192   3.749   1.843   2.183
  765SOL     OW 3193   0.089   6.744   2.363
  765SOL    HW1 3194   0.056   6.815   2.425
  765SOL    HW2 3195   0.155   6.783   2.299
  766SOL     OW 3196   6.772   6.914   0.027
  766SOL    HW1 3197   6.730   6.840   0.080
  766SOL    HW2 3198   6.786   6.993   0.087
  767SOL     OW 3199   6.845   6.413   2.339
  767SOL    HW1 3200   6.752   6.409   2.302
  767SOL    HW2 3201   6.909   6.380   2.270
  768SOL     OW 3202   2.674   0.709   2.779
  768SOL    HW1 3203   2.727   0.793   2.768
  768SOL    HW2 3204   2.722   0.647   2.843
  769SOL     OW 3205   4.481   0.229   4.979
  769SOL    HW1 3206   4.493   0.176   5.063
  769SOL    HW2 3207   4.555   0.297   4.972
  770SOL     OW 3208   2.942   5.117   3.879
  770SOL    HW1 3209   2.982   5.147   3.792
  770SOL    HW2 3210   2.842   5.116   3.871
  771SOL     OW 3211   1.461   5.508   3.693
  771SOL    HW1 3212   1.394   5.466   3.755
  771SOL    HW2 3213   1.413   5.560   3.622
  772SOL     OW 3214   6.647   4.539   6.968
  772SOL    HW1 3215   6.632   4.451   6.923
  772SOL    HW2 3216   6.563   4.569   7.012
  773SOL     OW 3217   0.026   4.034   3.270
  773SOL    HW1 3218   6.993   3.960   3.241
  773SOL    HW2 3219   0.115   3.995   3.297
  774SOL     OW 3220   1.409   1.186   1.723
  774SOL    HW1 3221   1.310   1.175   1.722
  774SOL    HW2 3222   1.431   1.282   1.738
  775SOL     OW 3223   1.476   2.009   4.109
  775SOL    HW1 3224   1.386   1.978   4.079
  775SOL    HW2 3225   1.513   2.074   4.043
  776SOL     OW 3226   1.890   0.619   6.295
  776SOL    HW1 3227   1.915   0.530   6.256
  776SOL    HW2 3228   1.791   0.631   6.292
  777SOL     OW 3229   4.514   1.457   0.410
  777SOL    HW1 3230   4.566   1.440   0.326
  777SOL    HW2 3231   4.577   1.483   0.483
  778SOL     OW 3232   4.243   0.697   3.665
  778SOL    HW1 3233   4.191   0.761   3.608
  778SOL    HW2 3234   4.180   0.641   3.719
  779SOL     OW 3235   0.814   2.180   1.968
  779SOL    HW1 3236   0.787   2.174   1.872
  779SOL    HW2 3237   0.738   2.151   2.026
  780SOL     OW 3238   6.253   2.951   4.122
  780SOL    HW1 3239   6.268   2.857   4.094
  780SOL    HW2 3240   6.245   2.956   4.222
  781SOL     OW 3241   6.893   1.020   5.949
  781SOL    HW1 3242   6.875   0.971   5.864
  781SOL    HW2 3243   6.944   0.961   6.012
  782SOL     OW 3244   0.729   2.947   1.007
  782SOL    HW1 3245   0.633   2.928   0.985
  782SOL    HW2 3246   0.748   2.915   1.100
  783SOL     OW 3247   2.974   5.357   0.808
  783SOL    HW1 3248   3.024   5.375   0.892
  783SOL    HW2 3249   2.913   5.433   0.788
  784SOL     OW 3250   3.986   0.513   4.992
  784SOL    HW1 3251   3.933   0.599   4.992
  784SOL    HW2 3252   3.952   0.453   5.064
  785SOL     OW 3253   6.208   1.676   2.812
  785SOL    HW1 3254   6.120   1.629   2.821
  785SOL    HW2 3255   6.194   1.775   2.822
  786SOL     OW 3256   0.079   6.938   0.181
  786SOL    HW1 3257   0.028   6.950   0.266
  786SOL    HW2 3258   0.060   6.846   0.144
  787SOL     OW 3259   2.512   1.227   6.443
  787SOL    HW1 3260   2.438   1.238   6.377
  787SOL    HW2 3261   2.498   1.290   6.520
  788SOL     OW 3262   2.003   3.900   4.666
  788SOL    HW1 3263   2.017   3.836   4.741
  788SOL    HW2 3264   1.906   3.920   4.656
  789SOL     OW 3265   5.596   3.574   1.515
  789SOL    HW1 3266   5.526   3.513   1.477
  789SOL    HW2 3267   5.551   3.654   1.557
  790SOL     OW 3268   2.796   1.359   3.687
  790SOL    HW1 3269   2.723   1.377   3.622
  790SOL    HW2 3270   2.766   1.384   3.779
  791SOL     OW 3271   4.023   0.914   3.792
  791SOL    HW1 3272   3.935   0.895   3.750
  791SOL    HW2 3273   4.022   1.005   3.834
  792SOL     OW 3274   6.256   0.627   2.096
  792SOL    HW1 3275   6.206   0.555   2.048
  792SOL    HW2 3276   6.198   0.666   2.168
  793SOL     OW 3277   5.239   6.798   0.846
  793SOL    HW1 3278   5.332   6.797   0.809
  793SOL    HW2 3279   5.208   6.703   0.859
  794SOL     OW 3280   2.456   4.776   5.480
  794SOL    HW1 3281   2.500   4.686   5.472
  794SOL    HW2 3282   2.385   4.772   5.550
  795SOL     OW 3283   3.919   5.043   5.668
  795SOL    HW1 3284   3.848   5.019   5.601
  795SOL    HW2 3285   3.918   4.977   5.743
  796SOL     OW 3286   0.191   2.669   5.681
  796SOL    HW1 3287   0.265   2.716   5.728
  796SOL    HW2 3288   0.103   2.694   5.721
  797SOL     OW 3289   6.031   2.287   3.750
  797SOL    HW1 3290   5.965   2.318   3.681
  797SOL    HW2 3291   6.077   2.204   3.717
  798SOL     OW 3292   5.038   0.622   0.139
  798SOL    HW1 3293   5.129   0.612   0.098
  798SOL    HW2 3294   5.045   0.615   0.238
  799SOL     OW 3295   6.735   1.780   3.289
  799SOL    HW1 3296   6.782   1.837   3.222
  799SOL    HW2 3297   6.787   1.779   3.375
  800SOL     OW 3298   5.082   0.887   2.394
  800SOL    HW1 3299   5.030   0.972   2.395
  800SOL    HW2 3300   5.136   0.880   2.478
  801SOL     OW 3301   0.493   2.245   3.636
  801SOL    HW1 3302   0.591   2.264   3.644
  801SOL    HW2 3303   0.477   2.178   3.563
  802SOL     OW 3304   5.544   1.890   0.296
  802SOL    HW1 3305   5.524   1.982   0.263
  802SOL    HW2 3306   5.483   1.868   0.372
  803SOL     OW 3307   6.213   5.590   4.159
  803SOL    HW1 3308   6.312   5.577   4.151
  803SOL    HW2 3309   6.168   5.554   4.077
  804SOL     OW 3310   0.266   6.243   0.440
  804SOL    HW1 3311   0.295   6.257   0.534
  804SOL    HW2 3312   0.193   6.307   0.417
  805SOL     OW 3313   3.657   2.710   5.567
  805SOL    HW1 3314   3.690   2.629   5.520
  805SOL    HW2 3315   3.710   2.790   5.538
  806SOL     OW 3316   4.689   2.173   6.632
  806SOL    HW1 3317   4.751   2.228   6.576
  806SOL    HW2 3318   4.665   2.089   6.582
  807SOL     OW 3319   0.835   0.757   3.377
  807SOL    HW1 3320   0.815   0.790   3.469
  807SOL    HW2 3321   0.790   0.815   3.309
  808SOL     OW 3322   5.342   3.009   5.856
  808SOL    HW1 3323   5.334   3.095   5.908
  808SOL    HW2 3324   5.438   2.990   5.837
  809SOL     OW 3325   1.000   4.679   0.689
  809SOL    HW1 3326   0.906   4.699   0.716
  809SOL    HW2 3327   1.051   4.647   0.769
  810SOL     OW 3328   5.021   3.791   0.843
  810SOL    HW1 3329   5.029   3.747   0.753
  810SOL    HW2 3330   5.112   3.813   0.877
  811SOL     OW 3331   4.984   5.130   3.641
  811SOL    HW1 3332   5.080   5.120   3.666
  811SOL    HW2 3333   4.975   5.133   3.541
  812SOL     OW 3334   6.807   0.402   1.331
  812SOL    HW1 3335   6.905   0.418   1.338
  812SOL    HW2 3336   6.763   0.424   1.418
  813SOL     OW 3337   4.392   5.644   3.451
  813SOL    HW1 3338   4.328   5.674   3.521
  813SOL    HW2 3339   4.424   5.551   3.473
  814SOL     OW 3340   5.659   6.582   1.987
  814SOL    HW1 3341   5.586   6.632   2.033
  814SOL    HW2 3342   5.745   6.630   1.999
  815SOL     OW 3343   6.673   2.790   1.012
  815SOL    HW1 3344   6.716   2.702   0.988
  815SOL    HW2 3345   6.587   2.799   0.963
  816SOL     OW 3346   6.957   6.304   0.617
  816SOL    HW1 3347   7.009   6.349   0.544
  816SOL    HW2 3348   7.021   6.263   0.682
  817SOL     OW 3349   1.946   3.471   2.323
  817SOL    HW1 3350   1.884   3.532   2.275
  817SOL    HW2 3351   1.981   3.402   2.260
  818SOL     OW 3352   6.226   2.278   0.635
  818SOL    HW1 3353   6.227   2.327   0.722
  818SOL    HW2 3354   6.143   2.223   0.629
  819SOL     OW 3355   6.813   2.086   3.500
  819SOL    HW1 3356   6.724   2.043   3.516
  819SOL    HW2 3357   6.874   2.021   3.454
  820SOL     OW 3358   0.409   2.462   4.184
  820SOL    HW1 3359   0.322   2.431   4.221
  820SOL    HW2 3360   0.475   2.387   4.188
  821SOL     OW 3361   1.328   4.245   0.641
  821SOL    HW1 3362   1.374   4.165   0.600
  821SOL    HW2 3363   1.246   4.214   0.690
  822SOL     OW 3364   0.889   4.218   5.286
  822SOL    HW1 3365   0.987   4.198   5.275
  822SOL    HW2 3366   0.844   4.213   5.196
  823SOL     OW 3367   5.194   3.954   6.369
  823SOL    HW1 3368   5.259   3.898   6.318
  823SOL    HW2 3369   5.166   3.906   6.452
  824SOL     OW 3370   4.855   2.274   5.550
  824SOL    HW1 3371   4.912   2.343   5.594
  824SOL    HW2 3372   4.759   2.291   5.573
  825SOL     OW 3373   2.061   3.321   2.124
  825SOL    HW1 3374   2.067   3.238   2.068
  825SOL    HW2 3375   2.116   3.394   2.083
  826SOL     OW 3376   5.679   3.346   0.022
  826SOL    HW1 3377   5.642   3.425   7.001
  826SOL    HW2 3378   5.663   3.358   0.120
  827SOL     OW 3379   3.608   5.484   0.153
  827SOL    HW1 3380   3.685   5.431   0.187
  827SOL    HW2 3381   3.604   5.477   0.054
  828SOL     OW 3382   5.899   0.752   5.231
  828SOL    HW1 3383   5.942   0.813   5.164
  828SOL    HW2 3384   5.970   0.701   5.280
  829SOL     OW 3385   3.035   3.101   4.199
  829SOL    HW1 3386   3.063   3.196   4.208
  829SOL    HW2 3387   3.063   3.050   4.281
  830SOL     OW 3388   4.543   3.972   5.308
  830SOL    HW1 3389   4.497   4.059   5.324
  830SOL    HW2 3390   4.474   3.902   5.286
  831SOL     OW 3391   5.702   0.598   4.984
  831SOL    HW1 3392   5.750   0.626   4.901
  831SOL    HW2 3393   5.664   0.678   5.030
  832SOL     OW 3394   1.989   1.936   0.289
  832SOL    HW1 3395   2.086   1.961   0.297
  832SOL    HW2 3396   1.970   1.908   0.195
  833SOL     OW 3397   6.509   6.579   5.922
  833SOL    HW1 3398   6.464   6.555   5.836
  833SOL    HW2 3399   6.607   6.584   5.908
  834SOL     OW 3400   3.098   3.418   3.844
  834SOL    HW1 3401   3.134   3.408   3.751
  834SOL    HW2 3402   3.132   3.343   3.901
  835SOL     OW 3403   3.148   6.584   3.960
  835SOL    HW1 3404   3.067   6.540   3.923
  835SOL    HW2 3405   3.137   6.597   4.059
  836SOL     OW 3406   3.180   0.067   0.040
  836SOL    HW1 3407   3.160   6.997   0.045
  836SOL    HW2 3408   3.253   0.082   7.001
  837SOL     OW 3409   5.079   0.462   6.218
  837SOL    HW1 3410   5.130   0.515   6.150
  837SOL    HW2 3411   4.983   0.459   6.192
  838SOL     OW 3412   1.846   6.028   4.502
  838SOL    HW1 3413   1.789   6.098   4.457
  838SOL    HW2 3414   1.865   5.954   4.437
  839SOL     OW 3415   2.780   1.592   3.256
  839SOL    HW1 3416   2.840   1.660   3.298
  839SOL    HW2 3417   2.697   1.583   3.310
  840SOL     OW 3418   0.797   1.052   6.714
  840SOL    HW1 3419   0.837   1.091   6.796
  840SOL    HW2 3420   0.719   1.108   6.685
  841SOL     OW 3421   7.008   3.489   7.004
  841SOL    HW1 3422   7.008   3.582   6.968
  841SOL    HW2 3423   0.015   3.426   6.934
  842SOL     OW 3424   4.048   5.438   2.951
  842SOL    HW1 3425   4.037   5.375   2.874
  842SOL    HW2 3426   4.069   5.386   3.034
  843SOL     OW 3427   6.334   2.220   2.008
  843SOL    HW1 3428   6.327   2.131   2.052
  843SOL    HW2 3429   6.282   2.288   2.060
  844SOL     OW 3430   5.088   6.008   0.156
  844SOL    HW1 3431   5.132   5.938   0.099
  844SOL    HW2 3432   5.007   5.968   0.199
  845SOL     OW 3433   0.142   4.435   4.808
  845SOL    HW1 3434   0.150   4.439   4.708
  845SOL    HW2 3435   0.121   4.526   4.843
  846SOL     OW 3436   6.262   1.143   0.251
  846SOL    HW1 3437   6.285   1.237   0.226
  846SOL    HW2 3438   6.203   1.143   0.331
  847SOL     OW 3439   5.841   3.189   1.185
  847SOL    HW1 3440   5.864   3.122   1.114
  847SOL    HW2 3441   5.888   3.166   1.270
  848SOL     OW 3442   6.364   0.045   5.849
  848SOL    HW1 3443   6.417   0.129   5.837
  848SOL    HW2 3444   6.424   6.993   5.845
  849SOL     OW 3445   0.509   5.414   5.148
  849SOL    HW1 3446   0.472   5.321   5.142
  849SOL    HW2 3447   0.607   5.412   5.129
  850SOL     OW 3448   4.156   1.143   3.029
  850SOL    HW1 3449   4.107   1.229   3.046
  850SOL    HW2 3450   4.117   1.071   3.086
  851SOL     OW 3451   0.285   1.048   0.308
  851SOL    HW1 3452   0.209   1.107   0.281
  851SOL    HW2 3453   0.322   1.002   0.227
  852SOL     OW 3454   2.519   3.092   6.386
  852SOL    HW1 3455   2.570   3.007   6.376
  852SOL    HW2 3456   2.421   3.072   6.384
  853SOL     OW 3457   1.199   2.906   1.860
  853SOL    HW1 3458   1.225   2.971   1.931
  853SOL    HW2 3459   1.127   2.846   1.895
  854SOL     OW 3460   5.374   5.813   2.700
  854SOL    HW1 3461   5.438   5.860   2.761
  854SOL    HW2 3462   5.341   5.729   2.744
  855SOL     OW 3463   5.696   0.104   2.039
  855SOL    HW1 3464   5.655   0.107   1.948
  855SOL    HW2 3465   5.702   0.009   2.070
  856SOL     OW 3466   2.002   6.017   5.276
  856SOL    HW1 3467   2.011   6.114   5.298
  856SOL    HW2 3468   1.917   5.982   5.315
  857SOL     OW 3469   5.799   3.627   0.651
  857SOL    HW1 3470   5.872   3.589   0.594
  857SOL    HW2 3471   5.838   3.697   0.712
  858SOL     OW 3472   3.197   5.018   2.026
  858SOL    HW1 3473   3.199   5.116   2.045
  858SOL    HW2 3474   3.115   4.996   1.974
  859SOL     OW 3475   0.161   4.804   6.547
  859SOL    HW1 3476   0.231   4.864   6.509
  859SOL    HW2 3477   0.166   4.807   6.646
  860SOL     OW 3478   3.119   4.327   1.011
  860SOL    HW1 3479   3.041   4.267   1.024
  860SOL    HW2 3480   3.201   4.285   1.051
  861SOL     OW 3481   3.240   6.147   5.612
  861SOL    HW1 3482   3.141   6.150   5.620
  861SOL    HW2 3483   3.278   6.091   5.686
  862SOL     OW 3484   5.515   4.489   5.013
  862SOL    HW1 3485   5.482   4.474   5.106
  862SOL    HW2 3486   5.480   4.576   4.979
  863SOL     OW 3487   0.162   0.969   0.903
  863SOL    HW1 3488   0.238   0.994   0.843
  863SOL    HW2 3489   0.179   0.879   0.942
  864SOL     OW 3490   5.562   4.261   2.548
  864SOL    HW1 3491   5.589   4.267   2.644
  864SOL    HW2 3492   5.642   4.242   2.492
  865SOL     OW 3493   1.573   0.144   3.468
  865SOL    HW1 3494   1.618   0.231   3.488
  865SOL    HW2 3495   1.641   0.075   3.445
  866SOL     OW 3496   3.533   2.040   1.957
  866SOL    HW1 3497   3.455   2.100   1.969
  866SOL    HW2 3498   3.618   2.093   1.963
  867SOL     OW 3499   2.807   3.007   6.590
  867SOL    HW1 3500   2.800   2.929   6.653
  867SOL    HW2 3501   2.848   3.084   6.637
  868SOL     OW 3502   5.400   0.867   3.271
  868SOL    HW1 3503   5.459   0.828   3.200
  868SOL    HW2 3504   5.334   0.798   3.301
  869SOL     OW 3505   6.040   6.247   1.457
  869SOL    HW1 3506   6.058   6.321   1.521
  869SOL    HW2 3507   5.941   6.233   1.449
  870SOL     OW 3508   6.353   1.728   1.361
  870SOL    HW1 3509   6.360   1.726   1.262
  870SOL    HW2 3510   6.362   1.822   1.393
  871SOL     OW 3511   5.784   2.318   1.548
  871SOL    HW1 3512   5.757   2.236   1.598
  871SOL    HW2 3513   5.768   2.305   1.450
  872SOL     OW 3514   6.551   2.644   3.909
  872SOL    HW1 3515   6.596   2.706   3.845
  872SOL    HW2 3516   6.612   2.626   3.986
  873SOL     OW 3517   3.204   7.010   3.848
  873SOL    HW1 3518   3.252   6.924   3.863
  873SOL    HW2 3519   3.106   6.997   3.860
  874SOL     OW 3520   1.405   3.922   5.588
  874SOL    HW1 3521   1.378   3.831   5.556
  874SOL    HW2 3522   1.503   3.934   5.578
  875SOL     OW 3523   5.687   3.633   6.881
  875SOL    HW1 3524   5.730   3.716   6.844
  875SOL    HW2 3525   5.732   3.608   6.967
  876SOL     OW 3526   0.089   3.461   1.905
  876SOL    HW1 3527   0.044   3.524   1.841
  876SOL    HW2 3528   0.088   3.499   1.997
  877SOL     OW 3529   4.938   5.983   6.762
  877SOL    HW1 3530   5.033   5.951   6.761
  877SOL    HW2 3531   4.877   5.905   6.775
  878SOL     OW 3532   2.937   5.103   0.716
  878SOL    HW1 3533   2.981   5.192   0.734
  878SOL    HW2 3534   2.972   5.066   0.630
  879SOL     OW 3535   4.015   2.147   2.615
  879SOL    HW1 3536   4.061   2.212   2.676
  879SOL    HW2 3537   4.041   2.166   2.521
  880SOL     OW 3538   3.459   5.052   0.646
  880SOL    HW1 3539   3.407   5.042   0.562
  880SOL    HW2 3540   3.411   5.007   0.721
  881SOL     OW 3541   3.659   5.182   4.909
  881SOL    HW1 3542   3.745   5.191   4.959
  881SOL    HW2 3543   3.669   5.220   4.817
  882SOL     OW 3544   1.620   0.472   4.499
  882SOL    HW1 3545   1.541   0.524   4.465
  882SOL    HW2 3546   1.624   0.383   4.453
  883SOL     OW 3547   3.581   5.670   6.652
  883SOL    HW1 3548   3.624   5.609   6.585
  883SOL    HW2 3549   3.495   5.629   6.684
  884SOL     OW 3550   5.663   3.141   1.802
  884SOL    HW1 3551   5.755   3.103   1.791
  884SOL    HW2 3552   5.667   3.240   1.794
  885SOL     OW 3553   5.516   5.996   0.622
  885SOL    HW1 3554   5.508   6.034   0.530
  885SOL    HW2 3555   5.564   6.061   0.681
  886SOL     OW 3556   4.730   1.970   6.417
  886SOL    HW1 3557   4.737   1.877   6.455
  886SOL    HW2 3558   4.727   1.965   6.318
  887SOL     OW 3559   4.356   6.953   5.337
  887SOL    HW1 3560   4.295   6.877   5.358
  887SOL    HW2 3561   4.349   7.022   5.409
  888SOL     OW 3562   5.946   5.744   2.894
  888SOL    HW1 3563   6.018   5.751   2.963
  888SOL    HW2 3564   5.858   5.729   2.939
  889SOL     OW 3565   0.659   6.190   5.085
  889SOL    HW1 3566   0.696   6.272   5.041
  889SOL    HW2 3567   0.712   6.110   5.058
  890SOL     OW 3568   2.723   4.707   2.221
  890SOL    HW1 3569   2.736   4.653   2.138
  890SOL    HW2 3570   2.770   4.795   2.211
  891SOL     OW 3571   5.350   3.174   0.241
  891SOL    HW1 3572   5.289   3.095   0.231
  891SOL    HW2 3573   5.438   3.153   0.199
  892SOL     OW 3574   2.891   4.615   1.166
  892SOL    HW1 3575   2.917   4.615   1.263
  892SOL    HW2 3576   2.972   4.606   1.110
  893SOL     OW 3577   1.356   0.513   0.290
  893SOL    HW1 3578   1.419   0.586   0.317
  893SOL    HW2 3579   1.278   0.552   0.241
  894SOL     OW 3580   1.176   5.662   4.587
  894SOL    HW1 3581   1.244   5.735   4.576
  894SOL    HW2 3582   1.156   5.620   4.499
  895SOL     OW 3583   2.059   6.710   4.608
  895SOL    HW1 3584   1.981   6.684   4.664
  895SOL    HW2 3585   2.129   6.638   4.614
  896SOL     OW 3586   5.876   6.640   2.780
  896SOL    HW1 3587   5.794   6.596   2.814
  896SOL    HW2 3588   5.952   6.575   2.780
  897SOL     OW 3589   4.933   2.087   6.801
  897SOL    HW1 3590   4.857   2.026   6.823
  897SOL    HW2 3591   4.954   2.080   6.703
  898SOL     OW 3592   5.450   6.305   2.865
  898SOL    HW1 3593   5.470   6.272   2.773
  898SOL    HW2 3594   5.352   6.299   2.882
  899SOL     OW 3595   0.541   4.435   6.374
  899SOL    HW1 3596   0.474   4.408   6.305
  899SOL    HW2 3597   0.507   4.514   6.425
  900SOL     OW 3598   0.474   6.013   3.738
  900SOL    HW1 3599   0.473   6.110   3.759
  900SOL    HW2 3600   0.399   5.991   3.676
  901SOL     OW 3601   6.175   0.891   4.203
  901SOL    HW1 3602   6.218   0.819   4.258
  901SOL    HW2 3603   6.246   0.942   4.153
  902SOL     OW 3604   0.081   6.441   0.430
  902SOL    HW1 3605   0.132   6.518   0.469
  902SOL    HW2 3606   0.094   6.440   0.331
  903SOL     OW 3607   1.130   4.996   0.651
  903SOL    HW1 3608   1.184   5.079   0.633
  903SOL    HW2 3609   1.050   4.995   0.591
  904SOL     OW 3610   1.883   1.873   3.284
  904SOL    HW1 3611   1.907   1.818   3.364
  904SOL    HW2 3612   1.946   1.853   3.209
  905SOL     OW 3613   5.279   1.625   5.090
  905SOL    HW1 3614   5.291   1.528   5.069
  905SOL    HW2 3615   5.200   1.660   5.042
  906SOL     OW 3616   0.014   3.294   5.880
  906SOL    HW1 3617   6.951   3.267   5.844
  906SOL    HW2 3618   0.052   3.366   5.822
  907SOL     OW 3619   6.426   2.224   2.632
  907SOL    HW1 3620   6.342   2.258   2.675
  907SOL    HW2 3621   6.402   2.159   2.560
  908SOL     OW 3622   1.717   0.972   4.312
  908SOL    HW1 3623   1.755   0.880   4.316
  908SOL    HW2 3624   1.769   1.033   4.372
  909SOL     OW 3625   4.371   1.059   1.470
  909SOL    HW1 3626   4.320   1.019   1.546
  909SOL    HW2 3627   4.452   1.105   1.506
  910SOL     OW 3628   1.853   1.282   0.763
  910SOL    HW1 3629   1.790   1.301   0.688
  910SOL    HW2 3630   1.939   1.330   0.748
  911SOL     OW 3631   0.237   4.603   1.855
  911SOL    HW1 3632   0.310   4.659   1.896
  911SOL    HW2 3633   0.219   4.524   1.914
  912SOL     OW 3634   0.676   6.762   6.011
  912SOL    HW1 3635   0.769   6.781   6.042
  912SOL    HW2 3636   0.665   6.795   5.917
  913SOL     OW 3637   2.941   0.907   2.416
  913SOL    HW1 3638   2.962   0.970   2.491
  913SOL    HW2 3639   2.919   0.817   2.454
  914SOL     OW 3640   2.843   6.259   2.492
  914SOL    HW1 3641   2.918   6.297   2.439
  914SOL    HW2 3642   2.768   6.235   2.430
  915SOL     OW 3643   0.886   2.667   0.824
  915SOL    HW1 3644   0.886   2.614   0.909
  915SOL    HW2 3645   0.910   2.606   0.747
  916SOL     OW 3646   2.135   2.874   2.959
  916SOL    HW1 3647   2.074   2.927   3.018
  916SOL    HW2 3648   2.209   2.835   3.013
  917SOL     OW 3649   3.988   1.667   0.920
  917SOL    HW1 3650   3.899   1.627   0.941
  917SOL    HW2 3651   4.051   1.651   0.996
  918SOL     OW 3652   2.206   0.154   6.302
  918SOL    HW1 3653   2.181   0.187   6.393
  918SOL    HW2 3654   2.142   0.191   6.234
  919SOL     OW 3655   2.394   5.744   2.548
  919SOL    HW1 3656   2.348   5.753   2.637
  919SOL    HW2 3657   2.470   5.808   2.543
  920SOL     OW 3658   2.252   0.845   4.100
  920SOL    HW1 3659   2.164   0.816   4.140
  920SOL    HW2 3660   2.254   0.821   4.003
  921SOL     OW 3661   5.574   5.382   4.694
  921SOL    HW1 3662   5.480   5.394   4.726
  921SOL    HW2 3663   5.630   5.457   4.730
  922SOL     OW 3664   3.024   3.483   6.985
  922SOL    HW1 3665   2.972   3.553   6.936
  922SOL    HW2 3666   3.106   3.524   7.026
  923SOL     OW 3667   3.411   0.111   6.259
  923SOL    HW1 3668   3.416   0.026   6.206
  923SOL    HW2 3669   3.324   0.157   6.241
  924SOL     OW 3670   5.476   2.879   3.374
  924SOL    HW1 3671   5.527   2.900   3.290
  924SOL    HW2 3672   5.487   2.782   3.396
  925SOL     OW 3673   0.370   1.788   3.875
  925SOL    HW1 3674   0.276   1.765   3.902
  925SOL    HW2 3675   0.417   1.705   3.844
  926SOL     OW 3676   5.238   5.942   0.699
  926SOL    HW1 3677   5.251   5.850   0.663
  926SOL    HW2 3678   5.327   5.986   0.710
  927SOL     OW 3679   3.656   5.068   4.548
  927SOL    HW1 3680   3.638   5.157   4.505
  927SOL    HW2 3681   3.576   5.040   4.601
  928SOL     OW 3682   2.054   1.425   1.235
  928SOL    HW1 3683   1.963   1.424   1.275
  928SOL    HW2 3684   2.074   1.517   1.199
  929SOL     OW 3685   0.111   2.507   2.723
  929SOL    HW1 3686   0.100   2.523   2.821
  929SOL    HW2 3687   0.126   2.410   2.707
  930SOL     OW 3688   5.164   6.122   4.189
  930SOL    HW1 3689   5.085   6.167   4.148
  930SOL    HW2 3690   5.138   6.032   4.223
  931SOL     OW 3691   1.789   2.600   2.876
  931SOL    HW1 3692   1.718   2.592   2.806
  931SOL    HW2 3693   1.839   2.513   2.882
  932SOL     OW 3694   4.608   6.832   0.763
  932SOL    HW1 3695   4.695   6.795   0.794
  932SOL    HW2 3696   4.574   6.778   0.686
  933SOL     OW 3697   1.708   6.335   3.113
  933SOL    HW1 3698   1.788   6.359   3.168
  933SOL    HW2 3699   1.720   6.243   3.075
  934SOL     OW 3700   3.308   1.187   5.301
  934SOL    HW1 3701   3.301   1.088   5.316
  934SOL    HW2 3702   3.218   1.229   5.309
  935SOL     OW 3703   3.810   3.215   6.033
  935SOL    HW1 3704   3.805   3.276   5.954
  935SOL    HW2 3705   3.718   3.195   6.065
  936SOL     OW 3706   1.125   1.198   1.374
  936SOL    HW1 3707   1.162   1.264   1.308
  936SOL    HW2 3708   1.200   1.142   1.410
  937SOL     OW 3709   4.760   2.173   4.724
  937SOL    HW1 3710   4.707   2.256   4.707
  937SOL    HW2 3711   4.708   2.111   4.783
  938SOL     OW 3712   0.690   2.754   6.655
  938SOL    HW1 3713   0.785   2.749   6.687
  938SOL    HW2 3714   0.639   2.818   6.711
  939SOL     OW 3715   6.028   1.236   5.460
  939SOL    HW1 3716   6.083   1.314   5.430
  939SOL    HW2 3717   6.062   1.152   5.417
  940SOL     OW 3718   6.923   1.036   3.936
  940SOL    HW1 3719   7.009   1.081   3.959
  940SOL    HW2 3720   6.898   1.058   3.841
  941SOL     OW 3721   5.424   1.992   4.516
  941SOL    HW1 3722   5.497   2.051   4.551
  941SOL    HW2 3723   5.430   1.987   4.416
  942SOL     OW 3724   6.169   6.964   5.634
  942SOL    HW1 3725   6.217   6.977   5.721
  942SOL    HW2 3726   6.120   6.877   5.636
  943SOL     OW 3727   5.389   1.892   1.352
  943SOL    HW1 3728   5.290   1.883   1.340
  943SOL    HW2 3729   5.417   1.848   1.437
  944SOL     OW 3730   5.287   4.484   4.051
  944SOL    HW1 3731   5.295   4.408   3.987
  944SOL    HW2 3732   5.337   4.563   4.016
  945SOL     OW 3733   5.713   4.415   4.538
  945SOL    HW1 3734   5.614   4.428   4.541
  945SOL    HW2 3735   5.736   4.329   4.582
  946SOL     OW 3736   5.692   2.329   5.165
  946SOL    HW1 3737   5.650   2.369   5.083
  946SOL    HW2 3738   5.788   2.356   5.170
  947SOL     OW 3739   2.167   2.362   6.095
  947SOL    HW1 3740   2.187   2.370   6.193
  947SOL    HW2 3741   2.161   2.266   6.070
  948SOL     OW 3742   4.084   1.930   0.494
  948SOL    HW1 3743   4.010   1.998   0.490
  948SOL    HW2 3744   4.047   1.842   0.523
  949SOL     OW 3745   6.022   5.900   6.447
  949SOL    HW1 3746   6.119   5.882   6.430
  949SOL    HW2 3747   6.012   5.986   6.496
  950SOL     OW 3748   4.355   5.196   0.961
  950SOL    HW1 3749   4.344   5.259   1.037
  950SOL    HW2 3750   4.389   5.108   0.995
  951SOL     OW 3751   1.016   1.388   2.401
  951SOL    HW1 3752   1.069   1.411   2.483
  951SOL    HW2 3753   1.029   1.460   2.332
  952SOL     OW 3754   5.458   1.045   2.752
  952SOL    HW1 3755   5.484   1.107   2.677
  952SOL    HW2 3756   5.529   0.976   2.763
  953SOL     OW 3757   4.780   6.598   6.265
  953SOL    HW1 3758   4.739   6.524   6.212
  953SOL    HW2 3759   4.812   6.669   6.203
  954SOL     OW 3760   6.377   6.854   0.414
  954SOL    HW1 3761   6.426   6.806   0.487
  954SOL    HW2 3762   6.312   6.918   0.454
  955SOL     OW 3763   0.425   6.479   2.747
  955SOL    HW1 3764   0.491   6.550   2.769
  955SOL    HW2 3765   0.412   6.475   2.648
  956SOL     OW 3766   1.174   2.417   1.496
  956SOL    HW1 3767   1.196   2.513   1.478
  956SOL    HW2 3768   1.075   2.404   1.490
  957SOL     OW 3769   2.063   5.063   4.348
  957SOL    HW1 3770   1.969   5.089   4.369
  957SOL    HW2 3771   2.085   4.977   4.393
  958SOL     OW 3772   4.903   2.444   1.135
  958SOL    HW1 3773   4.844   2.492   1.200
  958SOL    HW2 3774   4.985   2.499   1.117
  959SOL     OW 3775   2.387   4.352   2.848
  959SOL    HW1 3776   2.350   4.357   2.755
  959SOL    HW2 3777   2.331   4.290   2.902
  960SOL     OW 3778   1.725   5.343   4.589
  960SOL    HW1 3779   1.689   5.250   4.583
  960SOL    HW2 3780   1.707   5.380   4.680
  961SOL     OW 3781   3.924   6.938   1.734
  961SOL    HW1 3782   3.958   6.936   1.828
  961SOL    HW2 3783   4.001   6.954   1.671
  962SOL     OW 3784   2.013   0.264   3.601
  962SOL    HW1 3785   2.026   0.361   3.622
  962SOL    HW2 3786   1.957   0.222   3.672
  963SOL     OW 3787   6.514   0.236   0.783
  963SOL    HW1 3788   6.440   0.221   0.717
  963SOL    HW2 3789   6.584   0.293   0.742
  964SOL     OW 3790   5.708   3.395   1.713
  964SOL    HW1 3791   5.795   3.380   1.665
  964SOL    HW2 3792   5.663   3.476   1.677
  965SOL     OW 3793   0.594   2.171   6.947
  965SOL    HW1 3794   0.596   2.268   6.971
  965SOL    HW2 3795   0.594   2.116   0.004
  966SOL     OW 3796   6.699   2.336   2.655
  966SOL    HW1 3797   6.691   2.353   2.753
  966SOL    HW2 3798   6.610   2.307   2.619
  967SOL     OW 3799   1.453   5.861   1.388
  967SOL    HW1 3800   1.512   5.827   1.462
  967SOL    HW2 3801   1.358   5.839   1.408
  968SOL     OW 3802   5.243   3.035   2.779
  968SOL    HW1 3803   5.297   3.110   2.817
  968SOL    HW2 3804   5.151   3.069   2.756
  969SOL     OW 3805   4.705   5.935   5.804
  969SOL    HW1 3806   4.787   5.957   5.750
  969SOL    HW2 3807   4.625   5.931   5.745
  970SOL     OW 3808   4.288   2.360   5.355
  970SOL    HW1 3809   4.370   2.373   5.300
  970SOL    HW2 3810   4.233   2.444   5.353
  971SOL     OW 3811   6.928   1.708   1.342
  971SOL    HW1 3812   6.954   1.613   1.357
  971SOL    HW2 3813   7.000   1.755   1.291
  972SOL     OW 3814   6.217   5.028   0.724
  972SOL    HW1 3815   6.295   4.994   0.672
  972SOL    HW2 3816   6.183   4.956   0.785
  973SOL     OW 3817   6.127   4.673   5.948
  973SOL    HW1 3818   6.086   4.643   6.034
  973SOL    HW2 3819   6.227   4.672   5.956
  974SOL     OW 3820   2.592   1.136   3.646
  974SOL    HW1 3821   2.655   1.164   3.719
  974SOL    HW2 3822   2.508   1.190   3.654
  975SOL     OW 3823   3.357   6.206   6.066
  975SOL    HW1 3824   3.321   6.287   6.112
  975SOL    HW2 3825   3.419   6.235   5.993
  976SOL     OW 3826   0.277   4.286   3.347
  976SOL    HW1 3827   0.232   4.349   3.284
  976SOL    HW2 3828   0.352   4.239   3.300
  977SOL     OW 3829   1.810   0.716   3.954
  977SOL    HW1 3830   1.757   0.795   3.924
  977SOL    HW2 3831   1.860   0.678   3.876
  978SOL     OW 3832   5.086   4.032   4.729
  978SOL    HW1 3833   4.994   3.995   4.716
  978SOL    HW2 3834   5.143   4.008   4.651
  979SOL     OW 3835   6.256   0.799   2.838
  979SOL    HW1 3836   6.171   0.779   2.788
  979SOL    HW2 3837   6.334   0.767   2.784
  980SOL     OW 3838   5.366   2.190   4.897
  980SOL    HW1 3839   5.300   2.119   4.918
  980SOL    HW2 3840   5.438   2.153   4.838
  981SOL     OW 3841   0.981   2.026   4.785
  981SOL    HW1 3842   0.998   2.053   4.690
  981SOL    HW2 3843   0.912   1.954   4.787
  982SOL     OW 3844   0.836   3.027   1.639
  982SOL    HW1 3845   0.926   2.997   1.607
  982SOL    HW2 3846   0.837   3.126   1.653
  983SOL     OW 3847   6.432   2.116   3.090
  983SOL    HW1 3848   6.425   2.029   3.139
  983SOL    HW2 3849   6.422   2.100   2.992
  984SOL     OW 3850   4.679   1.568   4.849
  984SOL    HW1 3851   4.749   1.627   4.808
  984SOL    HW2 3852   4.679   1.480   4.802
  985SOL     OW 3853   3.289   5.427   0.811
  985SOL    HW1 3854   3.244   5.368   0.878
  985SOL    HW2 3855   3.374   5.384   0.780
  986SOL     OW 3856   4.070   4.591   6.540
  986SOL    HW1 3857   4.136   4.516   6.543
  986SOL    HW2 3858   4.067   4.629   6.448
  987SOL     OW 3859   3.724   6.539   2.486
  987SOL    HW1 3860   3.786   6.461   2.487
  987SOL    HW2 3861   3.697   6.559   2.392
  988SOL     OW 3862   3.787   3.094   0.614
  988SOL    HW1 3863   3.820   3.187   0.594
  988SOL    HW2 3864   3.693   3.084   0.583
  989SOL     OW 3865   0.542   6.874   5.488
  989SOL    HW1 3866   0.445   6.857   5.506
  989SOL    HW2 3867   0.572   6.818   5.411
  990SOL     OW 3868   4.264   0.568   3.989
  990SOL    HW1 3869   4.211   0.591   4.071
  990SOL    HW2 3870   4.353   0.613   3.993
  991SOL     OW 3871   0.673   1.535   4.654
  991SOL    HW1 3872   0.628   1.556   4.740
  991SOL    HW2 3873   0.659   1.609   4.589
  992SOL     OW 3874   0.681   3.258   0.232
  992SOL    HW1 3875   0.641   3.167   0.247
  992SOL    HW2 3876   0.608   3.326   0.231
  993SOL     OW 3877   2.804   4.734   2.985
  993SOL    HW1 3878   2.816   4.739   3.084
  993SOL    HW2 3879   2.753   4.650   2.962
  994SOL     OW 3880   3.313   2.977   2.929
  994SOL    HW1 3881   3.323   3.071   2.895
  994SOL    HW2 3882   3.404   2.936   2.938
  995SOL     OW 3883   1.878   1.852   5.462
  995SOL    HW1 3884   1.873   1.917   5.386
  995SOL    HW2 3885   1.834   1.766   5.435
  996SOL     OW 3886   2.192   3.986   2.718
  996SOL    HW1 3887   2.246   4.017   2.639
  996SOL    HW2 3888   2.097   3.973   2.691
  997SOL     OW 3889   0.470   0.735   1.629
  997SOL    HW1 3890   0.564   0.769   1.640
  997SOL    HW2 3891   0.421   0.743   1.715
  998SOL     OW 3892   4.437   0.176   2.350
  998SOL    HW1 3893   4.464   0.101   2.289
  998SOL    HW2 3894   4.480   0.261   2.320
  999SOL     OW 3895   6.806   5.425   1.370
  999SOL    HW1 3896   6.798   5.442   1.469
  999SOL    HW2 3897   6.716   5.435   1.328
 1000SOL     OW 3898   2.819   2.129   4.077
 1000SOL    HW1 3899   2.836   2.186   4.157
 1000SOL    HW2 3900   2.759   2.177   4.013
 1001SOL     OW 3901   5.116   0.346   5.723
 1001SOL    HW1 3902   5.168   0.261   5.737
 1001SOL    HW2 3903   5.162   0.422   5.768
 1002SOL     OW 3904   6.062   1.525   0.203
 1002SOL    HW1 3905   6.096   1.495   0.292
 1002SOL    HW2 3906   6.081   1.622   0.191
 1003SOL     OW 3907   3.131   6.359   2.397
 1003SOL    HW1 3908   3.163   6.266   2.415
 1003SOL    HW2 3909   3.177   6.396   2.316
 1004SOL     OW 3910   6.453   6.710   0.152
 1004SOL    HW1 3911   6.448   6.777   0.078
 1004SOL    HW2 3912   6.395   6.739   0.228
 1005SOL     OW 3913   0.783   0.095   2.942
 1005SOL    HW1 3914   0.754   0.002   2.960
 1005SOL    HW2 3915   0.754   0.155   3.017
 1006SOL     OW 3916   2.671   5.020   1.156
 1006SOL    HW1 3917   2.670   4.943   1.218
 1006SOL    HW2 3918   2.580   5.034   1.117
 1007SOL     OW 3919   0.110   1.025   3.043
 1007SOL    HW1 3920   0.040   1.094   3.059
 1007SOL    HW2 3921   0.127   1.018   2.944
 1008SOL     OW 3922   1.207   3.624   3.899
 1008SOL    HW1 3923   1.201   3.641   3.801
 1008SOL    HW2 3924   1.303   3.622   3.927
 1009SOL     OW 3925   0.611   6.589   4.568
 1009SOL    HW1 3926   0.608   6.688   4.583
 1009SOL    HW2 3927   0.521   6.550   4.585
 1010SOL     OW 3928   4.371   2.604   0.612
 1010SOL    HW1 3929   4.403   2.510   0.610
 1010SOL    HW2 3930   4.415   2.653   0.687
 1011SOL     OW 3931   2.182   5.856   4.050
 1011SOL    HW1 3932   2.242   5.934   4.068
 1011SOL    HW2 3933   2.143   5.822   4.136
 1012SOL     OW 3934   5.608   5.372   0.484
 1012SOL    HW1 3935   5.605   5.277   0.454
 1012SOL    HW2 3936   5.519   5.399   0.521
 1013SOL     OW 3937   0.802   0.730   0.973
 1013SOL    HW1 3938   0.758   0.800   0.917
 1013SOL    HW2 3939   0.744   0.648   0.976
 1014SOL     OW 3940   4.677   6.174   5.918
 1014SOL    HW1 3941   4.666   6.075   5.915
 1014SOL    HW2 3942   4.663   6.206   6.012
 1015SOL     OW 3943   3.453   5.779   4.742
 1015SOL    HW1 3944   3.433   5.862   4.793
 1015SOL    HW2 3945   3.446   5.798   4.644
 1016SOL     OW 3946   3.590   2.788   1.118
 1016SOL    HW1 3947   3.629   2.797   1.210
 1016SOL    HW2 3948   3.497   2.752   1.126
 1017SOL     OW 3949   4.409   2.969   0.555
 1017SOL    HW1 3950   4.311   2.955   0.570
 1017SOL    HW2 3951   4.458   2.885   0.575
 1018SOL     OW 3952   0.719   3.253   4.038
 1018SOL    HW1 3953   0.726   3.212   3.946
 1018SOL    HW2 3954   0.801   3.231   4.090
 1019SOL     OW 3955   6.848   1.543   7.012
 1019SOL    HW1 3956   6.931   1.581   0.026
 1019SOL    HW2 3957   6.812   1.470   0.044
 1020SOL     OW 3958   2.771   1.105   1.051
 1020SOL    HW1 3959   2.757   1.132   1.147
 1020SOL    HW2 3960   2.772   1.006   1.044
 1021SOL     OW 3961   6.864   1.346   1.004
 1021SOL    HW1 3962   6.768   1.329   0.981
 1021SOL    HW2 3963   6.923   1.293   0.943
 1022SOL     OW 3964   4.170   3.439   5.969
 1022SOL    HW1 3965   4.135   3.505   5.903
 1022SOL    HW2 3966   4.107   3.432   6.046
 1023SOL     OW 3967   6.069   0.733   2.324
 1023SOL    HW1 3968   5.983   0.784   2.316
 1023SOL    HW2 3969   6.049   0.636   2.334
 1024SOL     OW 3970   6.735   1.840   3.795
 1024SOL    HW1 3971   6.729   1.936   3.821
 1024SOL    HW2 3972   6.687   1.826   3.708
 1025SOL     OW 3973   3.122   4.592   1.030
 1025SOL    HW1 3974   3.135   4.643   0.944
 1025SOL    HW2 3975   3.135   4.494   1.013
 1026SOL     OW 3976   2.249   2.004   6.851
 1026SOL    HW1 3977   2.199   2.033   6.932
 1026SOL    HW2 3978   2.331   1.954   6.877
 1027SOL     OW 3979   2.914   5.029   2.416
 1027SOL    HW1 3980   2.926   5.128   2.422
 1027SOL    HW2 3981   3.001   4.984   2.435
 1028SOL     OW 3982   1.766   5.960   0.882
 1028SOL    HW1 3983   1.820   5.878   0.868
 1028SOL    HW2 3984   1.721   5.986   0.796
 1029SOL     OW 3985   2.324   0.108   6.924
 1029SOL    HW1 3986   2.392   0.119   6.852
 1029SOL    HW2 3987   2.336   0.019   6.968
 1030SOL     OW 3988   4.127   3.713   5.245
 1030SOL    HW1 3989   4.115   3.619   5.214
 1030SOL    HW2 3990   4.070   3.774   5.190
 1031SOL     OW 3991   2.525   5.071   1.749
 1031SOL    HW1 3992   2.580   5.102   1.827
 1031SOL    HW2 3993   2.581   5.070   1.667
 1032SOL     OW 3994   1.617   1.155   4.587
 1032SOL    HW1 3995   1.563   1.192   4.512
 1032SOL    HW2 3996   1.555   1.126   4.661
 1033SOL     OW 3997   2.260   5.690   1.744
 1033SOL    HW1 3998   2.277   5.688   1.646
 1033SOL    HW2 3999   2.329   5.636   1.791
 1034SOL     OW 4000   2.396   5.423   3.480
 1034SOL    HW1 4001   2.337   5.464   3.548
 1034SOL    HW2 4002   2.488   5.411   3.518
 1035SOL     OW 4003   3.419   1.041   4.758
 1035SOL    HW1 4004   3.329   1.075   4.787
 1035SOL    HW2 4005   3.479   1.119   4.740
 1036SOL     OW 4006   4.363   2.513   0.934
 1036SOL    HW1 4007   4.268   2.532   0.959
 1036SOL    HW2 4008   4.373   2.416   0.915
 1037SOL     OW 4009   2.466   0.916   0.493
 1037SOL    HW1 4010   2.533   0.951   0.428
 1037SOL    HW2 4011   2.509   0.900   0.581
 1038SOL     OW 4012   1.941   1.167   5.638
 1038SOL    HW1 4013   1.864   1.142   5.580
 1038SOL    HW2 4014   1.952   1.099   5.710
 1039SOL     OW 4015   4.058   2.089   4.349
 1039SOL    HW1 4016   4.078   2.145   4.269
 1039SOL    HW2 4017   3.965   2.053   4.343
 1040SOL     OW 4018   5.662   4.106   2.866
 1040SOL    HW1 4019   5.740   4.118   2.928
 1040SOL    HW2 4020   5.594   4.177   2.884
 1041SOL     OW 4021   0.112   1.033   4.189
 1041SOL    HW1 4022   0.208   1.060   4.185
 1041SOL    HW2 4023   0.069   1.072   4.270
 1042SOL     OW 4024   5.477   4.934   0.807
 1042SOL    HW1 4025   5.529   5.013   0.840
 1042SOL    HW2 4026   5.474   4.864   0.879
 1043SOL     OW 4027   3.244   1.838   6.825
 1043SOL    HW1 4028   3.147   1.815   6.838
 1043SOL    HW2 4029   3.266   1.920   6.878
 1044SOL     OW 4030   3.740   3.230   1.850
 1044SOL    HW1 4031   3.651   3.270   1.828
 1044SOL    HW2 4032   3.777   3.185   1.768
 1045SOL     OW 4033   3.054   1.399   2.861
 1045SOL    HW1 4034   2.960   1.367   2.873
 1045SOL    HW2 4035   3.082   1.383   2.766
 1046SOL     OW 4036   3.664   6.798   0.995
 1046SOL    HW1 4037   3.742   6.743   0.965
 1046SOL    HW2 4038   3.698   6.886   1.030
 1047SOL     OW 4039   0.930   4.859   2.881
 1047SOL    HW1 4040   0.860   4.890   2.817
 1047SOL    HW2 4041   0.980   4.782   2.842
 1048SOL     OW 4042   4.993   4.509   4.940
 1048SOL    HW1 4043   4.975   4.584   4.876
 1048SOL    HW2 4044   5.048   4.440   4.894
 1049SOL     OW 4045   0.362   4.262   4.713
 1049SOL    HW1 4046   0.422   4.336   4.681
 1049SOL    HW2 4047   0.279   4.302   4.753
 1050SOL     OW 4048   3.714   0.069   6.877
 1050SOL    HW1 4049   3.730   0.047   6.973
 1050SOL    HW2 4050   3.736   0.165   6.860
 1051SOL     OW 4051   4.866   4.533   0.038
 1051SOL    HW1 4052   4.902   4.533   0.132
 1051SOL    HW2 4053   4.888   4.619   7.021
 1052SOL     OW 4054   3.756   0.279   5.202
 1052SOL    HW1 4055   3.686   0.214   5.171
 1052SOL    HW2 4056   3.748   0.364   5.149
 1053SOL     OW 4057   4.621   4.807   3.742
 1053SOL    HW1 4058   4.537   4.853   3.770
 1053SOL    HW2 4059   4.698   4.842   3.795
 1054SOL     OW 4060   3.416   5.044   5.304
 1054SOL    HW1 4061   3.376   5.079   5.389
 1054SOL    HW2 4062   3.367   4.962   5.275
 1055SOL     OW 4063   4.337   6.093   4.912
 1055SOL    HW1 4064   4.380   6.182   4.894
 1055SOL    HW2 4065   4.397   6.038   4.970
 1056SOL     OW 4066   1.740   6.239   5.458
 1056SOL    HW1 4067   1.680   6.261   5.534
 1056SOL    HW2 4068   1.748   6.140   5.449
 1057SOL     OW 4069   2.872   3.461   2.749
 1057SOL    HW1 4070   2.781   3.430   2.721
 1057SOL    HW2 4071   2.938   3.435   2.679
 1058SOL     OW 4072   3.489   1.310   1.894
 1058SOL    HW1 4073   3.419   1.275   1.956
 1058SOL    HW2 4074   3.452   1.316   1.801
 1059SOL     OW 4075   4.639   1.134   1.600
 1059SOL    HW1 4076   4.732   1.118   1.567
 1059SOL    HW2 4077   4.620   1.232   1.598
 1060SOL     OW 4078   1.042   2.519   5.919
 1060SOL    HW1 4079   1.045   2.444   5.853
 1060SOL    HW2 4080   1.051   2.606   5.871
 1061SOL     OW 4081   3.724   5.276   1.631
 1061SOL    HW1 4082   3.761   5.193   1.589
 1061SOL    HW2 4083   3.775   5.355   1.598
 1062SOL     OW 4084   6.274   6.109   5.617
 1062SOL    HW1 4085   6.343   6.037   5.609
 1062SOL    HW2 4086   6.189   6.071   5.653
 1063SOL     OW 4087   1.874   2.915   0.316
 1063SOL    HW1 4088   1.817   2.961   0.248
 1063SOL    HW2 4089   1.822   2.840   0.358
 1064SOL     OW 4090   0.526   3.052   1.838
 1064SOL    HW1 4091   0.504   3.133   1.783
 1064SOL    HW2 4092   0.565   3.082   1.925
 1065SOL     OW 4093   6.082   6.783   4.363
 1065SOL    HW1 4094   6.139   6.750   4.287
 1065SOL    HW2 4095   6.089   6.882   4.369
 1066SOL     OW 4096   4.754   0.258   3.645
 1066SOL    HW1 4097   4.693   0.322   3.598
 1066SOL    HW2 4098   4.849   0.278   3.619
 1067SOL     OW 4099   2.143   2.874   2.137
 1067SOL    HW1 4100   2.178   2.941   2.202
 1067SOL    HW2 4101   2.171   2.782   2.165
 1068SOL     OW 4102   0.250   3.774   2.448
 1068SOL    HW1 4103   0.211   3.816   2.530
 1068SOL    HW2 4104   0.341   3.738   2.468
 1069SOL     OW 4105   4.256   4.038   1.072
 1069SOL    HW1 4106   4.329   3.970   1.061
 1069SOL    HW2 4107   4.286   4.125   1.032
 1070SOL     OW 4108   2.212   1.036   0.688
 1070SOL    HW1 4109   2.131   1.037   0.747
 1070SOL    HW2 4110   2.211   0.954   0.631
 1071SOL     OW 4111   3.722   6.524   3.890
 1071SOL    HW1 4112   3.782   6.452   3.923
 1071SOL    HW2 4113   3.643   6.483   3.845
 1072SOL     OW 4114   3.306   6.418   2.735
 1072SOL    HW1 4115   3.220   6.442   2.689
 1072SOL    HW2 4116   3.377   6.484   2.709
 1073SOL     OW 4117   2.590   4.696   2.648
 1073SOL    HW1 4118   2.604   4.638   2.729
 1073SOL    HW2 4119   2.672   4.751   2.633
 1074SOL     OW 4120   0.752   4.518   1.871
 1074SOL    HW1 4121   0.725   4.552   1.781
 1074SOL    HW2 4122   0.779   4.595   1.930
 1075SOL     OW 4123   5.335   4.791   4.443
 1075SOL    HW1 4124   5.269   4.862   4.467
 1075SOL    HW2 4125   5.425   4.833   4.428
 1076SOL     OW 4126   0.544   4.337   3.964
 1076SOL    HW1 4127   0.641   4.361   3.963
 1076SOL    HW2 4128   0.534   4.238   3.955
 1077SOL     OW 4129   4.422   0.195   0.794
 1077SOL    HW1 4130   4.402   0.286   0.759
 1077SOL    HW2 4131   4.339   0.139   0.793
 1078SOL     OW 4132   1.346   2.308   1.697
 1078SOL    HW1 4133   1.434   2.332   1.656
 1078SOL    HW2 4134   1.272   2.334   1.635
 1079SOL     OW 4135   3.001   5.778   3.584
 1079SOL    HW1 4136   2.948   5.707   3.538
 1079SOL    HW2 4137   3.065   5.736   3.648
 1080SOL     OW 4138   1.897   5.364   4.064
 1080SOL    HW1 4139   1.952   5.415   3.998
 1080SOL    HW2 4140   1.812   5.414   4.081
 1081SOL     OW 4141   1.740   0.546   0.465
 1081SOL    HW1 4142   1.654   0.558   0.515
 1081SOL    HW2 4143   1.785   0.634   0.455
 1082SOL     OW 4144   1.279   0.013   5.764
 1082SOL    HW1 4145   1.352   0.017   5.832
 1082SOL    HW2 4146   1.285   6.955   5.713
 1083SOL     OW 4147   3.601   3.829   2.095
 1083SOL    HW1 4148   3.566   3.880   2.173
 1083SOL    HW2 4149   3.683   3.779   2.122
 1084SOL     OW 4150   5.792   4.218   1.308
 1084SOL    HW1 4151   5.767   4.255   1.398
 1084SOL    HW2 4152   5.727   4.146   1.283
 1085SOL     OW 4153   1.781   4.839   4.048
 1085SOL    HW1 4154   1.836   4.917   4.079
 1085SOL    HW2 4155   1.721   4.809   4.123
 1086SOL     OW 4156   4.324   4.725   1.966
 1086SOL    HW1 4157   4.313   4.663   1.889
 1086SOL    HW2 4158   4.396   4.792   1.945
 1087SOL     OW 4159   4.475   2.612   5.485
 1087SOL    HW1 4160   4.481   2.641   5.580
 1087SOL    HW2 4161   4.383   2.632   5.450
 1088SOL     OW 4162   4.979   4.445   4.303
 1088SOL    HW1 4163   5.042   4.498   4.359
 1088SOL    HW2 4164   4.964   4.355   4.345
 1089SOL     OW 4165   0.154   7.022   3.951
 1089SOL    HW1 4166   0.235   0.043   3.984
 1089SOL    HW2 4167   0.148   6.933   3.997
 1090SOL     OW 4168   1.631   1.547   0.031
 1090SOL    HW1 4169   1.700   1.617   0.053
 1090SOL    HW2 4170   1.654   1.504   6.971
 1091SOL     OW 4171   2.008   1.577   4.760
 1091SOL    HW1 4172   2.107   1.581   4.771
 1091SOL    HW2 4173   1.985   1.514   4.685
 1092SOL     OW 4174   2.563   4.024   1.599
 1092SOL    HW1 4175   2.500   4.044   1.674
 1092SOL    HW2 4176   2.523   4.055   1.513
 1093SOL     OW 4177   0.304   1.870   2.690
 1093SOL    HW1 4178   0.403   1.871   2.675
 1093SOL    HW2 4179   0.285   1.872   2.788
 1094SOL     OW 4180   0.210   6.617   1.204
 1094SOL    HW1 4181   0.237   6.608   1.108
 1094SOL    HW2 4182   0.191   6.527   1.242
 1095SOL     OW 4183   6.124   3.280   6.422
 1095SOL    HW1 4184   6.140   3.318   6.331
 1095SOL    HW2 4185   6.045   3.326   6.464
 1096SOL     OW 4186   3.534   4.357   1.722
 1096SOL    HW1 4187   3.444   4.345   1.680
 1096SOL    HW2 4188   3.539   4.446   1.767
 1097SOL     OW 4189   1.321   5.661   5.445
 1097SOL    HW1 4190   1.267   5.642   5.528
 1097SOL    HW2 4191   1.303   5.590   5.377
 1098SOL     OW 4192   4.819   2.083   2.404
 1098SOL    HW1 4193   4.772   2.003   2.367
 1098SOL    HW2 4194   4.918   2.070   2.395
 1099SOL     OW 4195   4.263   1.646   4.147
 1099SOL    HW1 4196   4.232   1.683   4.060
 1099SOL    HW2 4197   4.193   1.658   4.217
 1100SOL     OW 4198   0.501   1.000   6.872
 1100SOL    HW1 4199   0.561   0.926   6.844
 1100SOL    HW2 4200   0.408   0.982   6.840
 1101SOL     OW 4201   5.272   3.500   0.882
 1101SOL    HW1 4202   5.368   3.520   0.901
 1101SOL    HW2 4203   5.247   3.538   0.793
 1102SOL     OW 4204   0.614   4.645   3.793
 1102SOL    HW1 4205   0.532   4.604   3.833
 1102SOL    HW2 4206   0.592   4.736   3.756
 1103SOL     OW 4207   1.820   2.152   1.883
 1103SOL    HW1 4208   1.818   2.173   1.785
 1103SOL    HW2 4209   1.844   2.235   1.934
 1104SOL     OW 4210   3.629   4.843   5.989
 1104SOL    HW1 4211   3.586   4.800   6.067
 1104SOL    HW2 4212   3.581   4.818   5.905
 1105SOL     OW 4213   5.059   4.181   6.266
 1105SOL    HW1 4214   5.088   4.088   6.289
 1105SOL    HW2 4215   5.140   4.240   6.259
 1106SOL     OW 4216   0.382   2.734   5.898
 1106SOL    HW1 4217   0.343   2.790   5.971
 1106SOL    HW2 4218   0.393   2.640   5.930
 1107SOL     OW 4219   1.042   0.344   0.682
 1107SOL    HW1 4220   1.079   0.273   0.622
 1107SOL    HW2 4221   0.943   0.335   0.688
 1108SOL     OW 4222   1.460   1.126   5.495
 1108SOL    HW1 4223   1.366   1.096   5.481
 1108SOL    HW2 4224   1.461   1.205   5.556
 1109SOL     OW 4225   4.116   6.898   3.944
 1109SOL    HW1 4226   4.051   6.949   3.887
 1109SOL    HW2 4227   4.132   6.949   4.029
 1110SOL     OW 4228   2.900   3.615   2.048
 1110SOL    HW1 4229   2.824   3.551   2.041
 1110SOL    HW2 4230   2.910   3.664   1.961
 1111SOL     OW 4231   5.502   1.046   0.223
 1111SOL    HW1 4232   5.453   1.098   0.153
 1111SOL    HW2 4233   5.601   1.061   0.213
 1112SOL     OW 4234   6.805   1.036   2.024
 1112SOL    HW1 4235   6.785   1.133   2.008
 1112SOL    HW2 4236   6.890   1.029   2.078
 1113SOL     OW 4237   6.654   3.353   2.576
 1113SOL    HW1 4238   6.743   3.343   2.532
 1113SOL    HW2 4239   6.602   3.426   2.532
 1114SOL     OW 4240   4.416   1.479   5.414
 1114SOL    HW1 4241   4.459   1.390   5.428
 1114SOL    HW2 4242   4.317   1.471   5.425
 1115SOL     OW 4243   2.920   3.344   0.899
 1115SOL    HW1 4244   3.015   3.332   0.867
 1115SOL    HW2 4245   2.857   3.310   0.829
 1116SOL     OW 4246   3.999   6.673   4.355
 1116SOL    HW1 4247   3.938   6.666   4.434
 1116SOL    HW2 4248   3.947   6.707   4.276
 1117SOL     OW 4249   2.781   2.893   0.884
 1117SOL    HW1 4250   2.768   2.919   0.789
 1117SOL    HW2 4251   2.858   2.829   0.891
 1118SOL     OW 4252   2.252   4.238   3.430
 1118SOL    HW1 4253   2.257   4.333   3.398
 1118SOL    HW2 4254   2.234   4.178   3.352
 1119SOL     OW 4255   4.672   3.984   1.446
 1119SOL    HW1 4256   4.730   3.902   1.445
 1119SOL    HW2 4257   4.623   3.989   1.533
 1120SOL     OW 4258   4.727   0.455   5.239
 1120SOL    HW1 4259   4.633   0.420   5.238
 1120SOL    HW2 4260   4.768   0.438   5.328
 1121SOL     OW 4261   5.566   2.941   2.123
 1121SOL    HW1 4262   5.636   2.897   2.067
 1121SOL    HW2 4263   5.486   2.881   2.128
 1122SOL     OW 4264   5.152   3.525   6.415
 1122SOL    HW1 4265   5.100   3.559   6.494
 1122SOL    HW2 4266   5.204   3.443   6.441
 1123SOL     OW 4267   4.492   0.917   2.238
 1123SOL    HW1 4268   4.576   0.941   2.286
 1123SOL    HW2 4269   4.497   0.949   2.143
 1124SOL     OW 4270   0.171   4.505   4.551
 1124SOL    HW1 4271   0.161   4.434   4.481
 1124SOL    HW2 4272   0.150   4.594   4.512
 1125SOL     OW 4273   3.370   3.305   4.939
 1125SOL    HW1 4274   3.427   3.381   4.909
 1125SOL    HW2 4275   3.423   3.247   5.002
 1126SOL     OW 4276   5.281   6.293   1.510
 1126SOL    HW1 4277   5.189   6.315   1.541
 1126SOL    HW2 4278   5.339   6.375   1.516
 1127SOL     OW 4279   2.129   4.914   6.944
 1127SOL    HW1 4280   2.067   4.859   6.999
 1127SOL    HW2 4281   2.090   5.006   6.933
 1128SOL     OW 4282   3.210   1.526   4.100
 1128SOL    HW1 4283   3.263   1.443   4.117
 1128SOL    HW2 4284   3.113   1.506   4.111
 1129SOL     OW 4285   5.267   0.422   6.685
 1129SOL    HW1 4286   5.197   0.413   6.615
 1129SOL    HW2 4287   5.283   0.333   6.728
 1130SOL     OW 4288   1.283   4.457   6.734
 1130SOL    HW1 4289   1.318   4.548   6.755
 1130SOL    HW2 4290   1.249   4.414   6.818
 1131SOL     OW 4291   0.584   6.237   5.519
 1131SOL    HW1 4292   0.516   6.236   5.592
 1131SOL    HW2 4293   0.602   6.143   5.488
 1132SOL     OW 4294   5.109   6.603   5.499
 1132SOL    HW1 4295   5.118   6.700   5.522
 1132SOL    HW2 4296   5.042   6.592   5.426
 1133SOL     OW 4297   0.263   3.638   1.597
 1133SOL    HW1 4298   0.246   3.574   1.521
 1133SOL    HW2 4299   0.349   3.686   1.581
 1134SOL     OW 4300   5.063   2.935   6.115
 1134SOL    HW1 4301   5.008   3.004   6.069
 1134SOL    HW2 4302   5.137   2.979   6.166
 1135SOL     OW 4303   2.728   2.222   3.355
 1135SOL    HW1 4304   2.753   2.152   3.422
 1135SOL    HW2 4305   2.773   2.202   3.268
 1136SOL     OW 4306   3.196   5.656   3.723
 1136SOL    HW1 4307   3.164   5.589   3.791
 1136SOL    HW2 4308   3.295   5.664   3.729
 1137SOL     OW 4309   1.046   1.466   6.280
 1137SOL    HW1 4310   1.101   1.533   6.329
 1137SOL    HW2 4311   0.986   1.513   6.215
 1138SOL     OW 4312   1.210   3.571   5.938
 1138SOL    HW1 4313   1.218   3.618   6.026
 1138SOL    HW2 4314   1.133   3.508   5.940
 1139SOL     OW 4315   1.197   6.399   2.519
 1139SOL    HW1 4316   1.212   6.301   2.533
 1139SOL    HW2 4317   1.278   6.438   2.474
 1140SOL     OW 4318   3.414   1.505   3.736
 1140SOL    HW1 4319   3.460   1.419   3.712
 1140SOL    HW2 4320   3.435   1.575   3.668
 1141SOL     OW 4321   6.396   5.700   5.293
 1141SOL    HW1 4322   6.487   5.659   5.283
 1141SOL    HW2 4323   6.364   5.732   5.204
 1142SOL     OW 4324   5.382   0.645   3.843
 1142SOL    HW1 4325   5.428   0.557   3.848
 1142SOL    HW2 4326   5.441   0.716   3.882
 1143SOL     OW 4327   3.919   2.008   3.010
 1143SOL    HW1 4328   4.008   1.979   2.973
 1143SOL    HW2 4329   3.866   2.053   2.938
 1144SOL     OW 4330   0.105   5.251   4.229
 1144SOL    HW1 4331   0.147   5.272   4.141
 1144SOL    HW2 4332   0.159   5.292   4.302
 1145SOL     OW 4333   7.011   5.618   4.613
 1145SOL    HW1 4334   6.955   5.686   4.566
 1145SOL    HW2 4335   7.006   5.633   4.712
 1146SOL     OW 4336   5.934   1.660   0.920
 1146SOL    HW1 4337   6.017   1.640   0.868
 1146SOL    HW2 4338   5.862   1.691   0.858
 1147SOL     OW 4339   0.367   3.357   2.063
 1147SOL    HW1 4340   0.353   3.330   1.968
 1147SOL    HW2 4341   0.281   3.389   2.102
 1148SOL     OW 4342   3.701   6.700   0.130
 1148SOL    HW1 4343   3.646   6.624   0.098
 1148SOL    HW2 4344   3.779   6.712   0.069
 1149SOL     OW 4345   6.835   3.318   2.381
 1149SOL    HW1 4346   6.747   3.272   2.369
 1149SOL    HW2 4347   6.909   3.250   2.375
 1150SOL     OW 4348   1.645   5.012   0.355
 1150SOL    HW1 4349   1.557   4.967   0.373
 1150SOL    HW2 4350   1.710   4.944   0.322
 1151SOL     OW 4351   5.827   5.001   6.675
 1151SOL    HW1 4352   5.829   5.019   6.773
 1151SOL    HW2 4353   5.743   4.951   6.652
 1152SOL     OW 4354   1.535   6.939   5.098
 1152SOL    HW1 4355   1.446   6.897   5.112
 1152SOL    HW2 4356   1.535   0.004   5.136
 1153SOL     OW 4357   2.230   5.394   2.975
 1153SOL    HW1 4358   2.292   5.317   2.989
 1153SOL    HW2 4359   2.162   5.397   3.048
 1154SOL     OW 4360   0.283   3.778   1.862
 1154SOL    HW1 4361   0.255   3.712   1.793
 1154SOL    HW2 4362   0.296   3.732   1.950
 1155SOL     OW 4363   3.686   5.529   2.070
 1155SOL    HW1 4364   3.696   5.511   2.167
 1155SOL    HW2 4365   3.752   5.473   2.019
 1156SOL     OW 4366   2.439   0.316   4.296
 1156SOL    HW1 4367   2.369   0.255   4.334
 1156SOL    HW2 4368   2.523   0.306   4.350
 1157SOL     OW 4369   0.294   2.835   3.834
 1157SOL    HW1 4370   0.391   2.857   3.828
 1157SOL    HW2 4371   0.281   2.754   3.891
 1158SOL     OW 4372   5.349   5.086   5.267
 1158SOL    HW1 4373   5.269   5.145   5.276
 1158SOL    HW2 4374   5.335   5.002   5.319
 1159SOL     OW 4375   3.851   5.294   3.534
 1159SOL    HW1 4376   3.772   5.239   3.508
 1159SOL    HW2 4377   3.926   5.276   3.471
 1160SOL     OW 4378   3.531   3.582   1.669
 1160SOL    HW1 4379   3.513   3.644   1.593
 1160SOL    HW2 4380   3.541   3.489   1.634
 1161SOL     OW 4381   5.473   1.112   3.714
 1161SOL    HW1 4382   5.373   1.114   3.720
 1161SOL    HW2 4383   5.500   1.054   3.637
 1162SOL     OW 4384   3.550   4.193   1.963
 1162SOL    HW1 4385   3.545   4.267   1.896
 1162SOL    HW2 4386   3.623   4.213   2.029
 1163SOL     OW 4387   5.230   1.886   2.960
 1163SOL    HW1 4388   5.310   1.940   2.985
 1163SOL    HW2 4389   5.175   1.937   2.894
 1164SOL     OW 4390   5.765   2.998   3.400
 1164SOL    HW1 4391   5.808   2.958   3.318
 1164SOL    HW2 4392   5.723   3.085   3.376
 1165SOL     OW 4393   0.775   4.508   3.382
 1165SOL    HW1 4394   0.743   4.596   3.348
 1165SOL    HW2 4395   0.858   4.481   3.334
 1166SOL     OW 4396   4.007   2.637   6.133
 1166SOL    HW1 4397   3.994   2.582   6.051
 1166SOL    HW2 4398   4.090   2.692   6.125
 1167SOL     OW 4399   4.698   1.143   5.061
 1167SOL    HW1 4400   4.737   1.138   4.969
 1167SOL    HW2 4401   4.600   1.162   5.054
 1168SOL     OW 4402   6.711   6.832   3.178
 1168SOL    HW1 4403   6.641   6.821   3.249
 1168SOL    HW2 4404   6.787   6.886   3.213
 1169SOL     OW 4405   0.548   3.630   1.510
 1169SOL    HW1 4406   0.619   3.633   1.580
 1169SOL    HW2 4407   0.563   3.550   1.451
 1170SOL     OW 4408   3.379   1.002   1.920
 1170SOL    HW1 4409   3.317   1.073   1.889
 1170SOL    HW2 4410   3.328   0.919   1.941
 1171SOL     OW 4411   3.019   5.777   0.718
 1171SOL    HW1 4412   2.980   5.861   0.756
 1171SOL    HW2 4413   3.085   5.739   0.783
 1172SOL     OW 4414   3.055   3.442   4.751
 1172SOL    HW1 4415   2.994   3.521   4.748
 1172SOL    HW2 4416   3.017   3.373   4.813
 1173SOL     OW 4417   3.227   0.997   6.459
 1173SOL    HW1 4418   3.298   1.013   6.390
 1173SOL    HW2 4419   3.213   0.899   6.471
 1174SOL     OW 4420   3.095   5.996   0.968
 1174SOL    HW1 4421   3.058   5.915   1.014
 1174SOL    HW2 4422   3.191   5.979   0.944
 1175SOL     OW 4423   6.127   4.959   5.897
 1175SOL    HW1 4424   6.103   4.866   5.927
 1175SOL    HW2 4425   6.055   4.994   5.837
 1176SOL     OW 4426   5.477   4.494   1.261
 1176SOL    HW1 4427   5.388   4.483   1.307
 1176SOL    HW2 4428   5.502   4.409   1.215
 1177SOL     OW 4429   6.731   2.711   5.732
 1177SOL    HW1 4430   6.724   2.625   5.783
 1177SOL    HW2 4431   6.826   2.727   5.706
 1178SOL     OW 4432   6.011   3.421   1.533
 1178SOL    HW1 4433   6.029   3.488   1.604
 1178SOL    HW2 4434   5.967   3.466   1.455
 1179SOL     OW 4435   2.234   5.450   6.551
 1179SOL    HW1 4436   2.304   5.517   6.526
 1179SOL    HW2 4437   2.220   5.451   6.650
 1180SOL     OW 4438   2.449   1.893   4.024
 1180SOL    HW1 4439   2.454   1.979   3.973
 1180SOL    HW2 4440   2.516   1.894   4.097
 1181SOL     OW 4441   2.027   4.330   3.155
 1181SOL    HW1 4442   2.073   4.403   3.104
 1181SOL    HW2 4443   1.961   4.369   3.218
 1182SOL     OW 4444   2.382   4.315   3.922
 1182SOL    HW1 4445   2.423   4.234   3.965
 1182SOL    HW2 4446   2.423   4.397   3.961
 1183SOL     OW 4447   4.377   5.908   0.781
 1183SOL    HW1 4448   4.361   6.006   0.786
 1183SOL    HW2 4449   4.433   5.879   0.858
 1184SOL     OW 4450   2.953   2.759   5.679
 1184SOL    HW1 4451   3.048   2.766   5.709
 1184SOL    HW2 4452   2.900   2.835   5.716
 1185SOL     OW 4453   1.620   0.647   0.017
 1185SOL    HW1 4454   1.686   0.598   0.074
 1185SOL    HW2 4455   1.585   0.726   0.067
 1186SOL     OW 4456   4.923   0.855   4.545
 1186SOL    HW1 4457   4.974   0.786   4.495
 1186SOL    HW2 4458   4.974   0.882   4.627
 1187SOL     OW 4459   6.221   0.169   5.202
 1187SOL    HW1 4460   6.231   0.218   5.115
 1187SOL    HW2 4461   6.125   0.169   5.229
 1188SOL     OW 4462   2.033   0.350   6.205
 1188SOL    HW1 4463   1.987   0.307   6.282
 1188SOL    HW2 4464   1.967   0.366   6.131
 1189SOL     OW 4465   5.618   0.587   1.605
 1189SOL    HW1 4466   5.702   0.538   1.627
 1189SOL    HW2 4467   5.555   0.526   1.557
 1190SOL     OW 4468   4.428   5.056   2.275
 1190SOL    HW1 4469   4.494   5.023   2.209
 1190SOL    HW2 4470   4.446   5.014   2.364
 1191SOL     OW 4471   3.013   5.880   6.446
 1191SOL    HW1 4472   3.009   5.780   6.440
 1191SOL    HW2 4473   3.003   5.919   6.355
 1192SOL     OW 4474   5.797   5.078   3.034
 1192SOL    HW1 4475   5.849   4.994   3.051
 1192SOL    HW2 4476   5.707   5.055   2.997
 1193SOL     OW 4477   5.252   0.705   3.582
 1193SOL    HW1 4478   5.298   0.687   3.669
 1193SOL    HW2 4479   5.158   0.670   3.587
 1194SOL     OW 4480   6.364   0.196   0.539
 1194SOL    HW1 4481   6.285   0.144   0.509
 1194SOL    HW2 4482   6.359   0.289   0.502
 1195SOL     OW 4483   5.450   0.448   6.452
 1195SOL    HW1 4484   5.455   0.539   6.410
 1195SOL    HW2 4485   5.395   0.453   6.535
 1196SOL     OW 4486   0.346   5.322   2.595
 1196SOL    HW1 4487   0.249   5.334   2.615
 1196SOL    HW2 4488   0.393   5.410   2.601
 1197SOL     OW 4489   3.994   5.815   5.646
 1197SOL    HW1 4490   4.022   5.809   5.550
 1197SOL    HW2 4491   3.898   5.789   5.654
 1198SOL     OW 4492   3.268   2.036   2.807
 1198SOL    HW1 4493   3.279   1.939   2.827
 1198SOL    HW2 4494   3.322   2.059   2.726
 1199SOL     OW 4495   4.139   4.001   1.829
 1199SOL    HW1 4496   4.191   4.087   1.829
 1199SOL    HW2 4497   4.085   3.995   1.745
 1200SOL     OW 4498   4.298   4.246   6.942
 1200SOL    HW1 4499   4.218   4.192   6.917
 1200SOL    HW2 4500   4.358   4.191   7.000
 1201SOL     OW 4501   1.419   1.309   5.167
 1201SOL    HW1 4502   1.369   1.383   5.212
 1201SOL    HW2 4503   1.413   1.320   5.068
 1202SOL     OW 4504   6.026   0.234   4.955
 1202SOL    HW1 4505   6.076   0.314   4.921
 1202SOL    HW2 4506   5.998   0.177   4.878
 1203SOL     OW 4507   5.537   6.911   0.892
 1203SOL    HW1 4508   5.518   6.999   0.936
 1203SOL    HW2 4509   5.636   6.896   0.887
 1204SOL     OW 4510   3.592   0.898   0.550
 1204SOL    HW1 4511   3.644   0.813   0.563
 1204SOL    HW2 4512   3.495   0.875   0.540
 1205SOL     OW 4513   6.056   2.721   5.009
 1205SOL    HW1 4514   6.149   2.698   4.979
 1205SOL    HW2 4515   6.000   2.745   4.929
 1206SOL     OW 4516   2.137   1.786   4.976
 1206SOL    HW1 4517   2.170   1.798   4.882
 1206SOL    HW2 4518   2.041   1.756   4.974
 1207SOL     OW 4519   6.101   0.353   6.594
 1207SOL    HW1 4520   6.192   0.353   6.553
 1207SOL    HW2 4521   6.066   0.447   6.597
 1208SOL     OW 4522   3.617   3.453   3.250
 1208SOL    HW1 4523   3.647   3.441   3.155
 1208SOL    HW2 4524   3.527   3.411   3.262
 1209SOL     OW 4525   5.265   5.211   4.169
 1209SOL    HW1 4526   5.297   5.260   4.251
 1209SOL    HW2 4527   5.322   5.130   4.154
 1210SOL     OW 4528   4.006   6.877   2.396
 1210SOL    HW1 4529   3.913   6.913   2.386
 1210SOL    HW2 4530   4.067   6.951   2.423
 1211SOL     OW 4531   0.342   4.730   4.899
 1211SOL    HW1 4532   0.362   4.770   4.988
 1211SOL    HW2 4533   0.385   4.640   4.892
 1212SOL     OW 4534   1.928   3.654   5.199
 1212SOL    HW1 4535   1.966   3.737   5.241
 1212SOL    HW2 4536   2.003   3.596   5.168
 1213SOL     OW 4537   6.313   2.233   5.503
 1213SOL    HW1 4538   6.399   2.190   5.476
 1213SOL    HW2 4539   6.240   2.204   5.442
 1214SOL     OW 4540   1.989   3.958   3.448
 1214SOL    HW1 4541   2.012   3.892   3.377
 1214SOL    HW2 4542   2.072   4.005   3.478
 1215SOL     OW 4543   1.026   4.582   2.223
 1215SOL    HW1 4544   0.947   4.574   2.285
 1215SOL    HW2 4545   1.104   4.620   2.273
 1216SOL     OW 4546   1.926   0.003   2.004
 1216SOL    HW1 4547   1.944   6.948   1.949
 1216SOL    HW2 4548   2.000   0.069   1.989
 1217SOL     OW 4549   1.606   6.503   1.897
 1217SOL    HW1 4550   1.508   6.483   1.906
 1217SOL    HW2 4551   1.628   6.515   1.800
 1218SOL     OW 4552   0.763   3.908   4.124
 1218SOL    HW1 4553   0.670   3.895   4.158
 1218SOL    HW2 4554   0.797   3.822   4.086
 1219SOL     OW 4555   3.746   6.218   1.492
 1219SOL    HW1 4556   3.824   6.247   1.436
 1219SOL    HW2 4557   3.762   6.245   1.587
 1220SOL     OW 4558   5.749   3.676   3.828
 1220SOL    HW1 4559   5.676   3.621   3.869
 1220SOL    HW2 4560   5.746   3.769   3.865
 1221SOL     OW 4561   4.744   3.657   0.009
 1221SOL    HW1 4562   4.809   3.592   6.998
 1221SOL    HW2 4563   4.700   3.707   6.962
 1222SOL     OW 4564   6.885   6.522   1.208
 1222SOL    HW1 4565   6.888   6.422   1.196
 1222SOL    HW2 4566   6.864   6.544   1.303
 1223SOL     OW 4567   6.433   6.709   6.495
 1223SOL    HW1 4568   6.505   6.764   6.454
 1223SOL    HW2 4569   6.423   6.623   6.445
 1224SOL     OW 4570   4.828   5.471   1.580
 1224SOL    HW1 4571   4.910   5.415   1.583
 1224SOL    HW2 4572   4.793   5.484   1.673
 1225SOL     OW 4573   4.746   2.296   0.491
 1225SOL    HW1 4574   4.761   2.285   0.393
 1225SOL    HW2 4575   4.808   2.235   0.541
 1226SOL     OW 4576   5.756   5.924   1.107
 1226SOL    HW1 4577   5.793   5.956   1.194
 1226SOL    HW2 4578   5.696   5.846   1.123
 1227SOL     OW 4579   6.020   3.825   5.215
 1227SOL    HW1 4580   6.082   3.759   5.174
 1227SOL    HW2 4581   5.963   3.866   5.143
 1228SOL     OW 4582   4.089   3.304   2.954
 1228SOL    HW1 4583   3.998   3.333   2.924
 1228SOL    HW2 4584   4.100   3.205   2.939
 1229SOL     OW 4585   2.274   5.717   3.141
 1229SOL    HW1 4586   2.260   5.677   3.050
 1229SOL    HW2 4587   2.329   5.654   3.196
 1230SOL     OW 4588   5.302   4.800   1.192
 1230SOL    HW1 4589   5.334   4.778   1.100
 1230SOL    HW2 4590   5.378   4.836   1.246
 1231SOL     OW 4591   1.748   2.439   6.465
 1231SOL    HW1 4592   1.788   2.474   6.380
 1231SOL    HW2 4593   1.657   2.480   6.478
 1232SOL     OW 4594   3.170   0.568   5.846
 1232SOL    HW1 4595   3.221   0.485   5.871
 1232SOL    HW2 4596   3.234   0.638   5.816
 1233SOL     OW 4597   0.339   6.183   4.887
 1233SOL    HW1 4598   0.355   6.126   4.968
 1233SOL    HW2 4599   0.422   6.188   4.833
 1234SOL     OW 4600   6.836   3.149   6.869
 1234SOL    HW1 4601   6.929   3.132   6.900
 1234SOL    HW2 4602   6.839   3.181   6.774
 1235SOL     OW 4603   6.219   5.227   0.150
 1235SOL    HW1 4604   6.187   5.137   0.124
 1235SOL    HW2 4605   6.190   5.247   0.244
 1236SOL     OW 4606   1.574   1.977   1.774
 1236SOL    HW1 4607   1.477   1.957   1.758
 1236SOL    HW2 4608   1.627   1.955   1.692
 1237SOL     OW 4609   0.903   6.893   4.652
 1237SOL    HW1 4610   0.897   6.796   4.676
 1237SOL    HW2 4611   0.850   6.947   4.718
 1238SOL     OW 4612   6.852   0.781   4.304
 1238SOL    HW1 4613   6.858   0.825   4.394
 1238SOL    HW2 4614   6.796   0.837   4.243
 1239SOL     OW 4615   6.314   4.660   4.253
 1239SOL    HW1 4616   6.307   4.759   4.244
 1239SOL    HW2 4617   6.329   4.637   4.350
 1240SOL     OW 4618   5.961   4.147   3.701
 1240SOL    HW1 4619   5.976   4.185   3.610
 1240SOL    HW2 4620   6.004   4.056   3.706
 1241SOL     OW 4621   5.363   5.052   4.669
 1241SOL    HW1 4622   5.321   5.059   4.759
 1241SOL    HW2 4623   5.450   5.003   4.676
 1242SOL     OW 4624   1.195   4.707   6.998
 1242SOL    HW1 4625   1.169   4.635   0.034
 1242SOL    HW2 4626   1.126   4.779   6.998
 1243SOL     OW 4627   0.788   4.878   4.762
 1243SOL    HW1 4628   0.824   4.942   4.830
 1243SOL    HW2 4629   0.791   4.785   4.798
 1244SOL     OW 4630   5.126   0.176   4.515
 1244SOL    HW1 4631   5.080   0.111   4.455
 1244SOL    HW2 4632   5.175   0.244   4.459
 1245SOL     OW 4633   4.962   6.630   1.584
 1245SOL    HW1 4634   4.902   6.589   1.653
 1245SOL    HW2 4635   4.910   6.693   1.528
 1246SOL     OW 4636   4.654   1.755   0.411
 1246SOL    HW1 4637   4.611   1.822   0.471
 1246SOL    HW2 4638   4.588   1.725   0.342
 1247SOL     OW 4639   6.478   6.814   3.614
 1247SOL    HW1 4640   6.571   6.781   3.629
 1247SOL    HW2 4641   6.439   6.847   3.700
 1248SOL     OW 4642   1.175   6.786   4.923
 1248SOL    HW1 4643   1.087   6.739   4.921
 1248SOL    HW2 4644   1.240   6.737   4.864
 1249SOL     OW 4645   5.954   4.723   6.959
 1249SOL    HW1 4646   5.870   4.695   6.913
 1249SOL    HW2 4647   6.028   4.730   6.892
 1250SOL     OW 4648   6.753   3.033   4.637
 1250SOL    HW1 4649   6.678   3.057   4.576
 1250SOL    HW2 4650   6.717   2.983   4.716
 1251SOL     OW 4651   2.846   0.528   2.907
 1251SOL    HW1 4652   2.815   0.458   2.970
 1251SOL    HW2 4653   2.903   0.594   2.956
 1252SOL     OW 4654   1.399   5.707   0.078
 1252SOL    HW1 4655   1.337   5.701   0.155
 1252SOL    HW2 4656   1.476   5.645   0.092
 1253SOL     OW 4657   3.362   0.995   0.850
 1253SOL    HW1 4658   3.345   0.896   0.851
 1253SOL    HW2 4659   3.352   1.031   0.943
 1254SOL     OW 4660   6.844   1.342   1.718
 1254SOL    HW1 4661   6.762   1.313   1.767
 1254SOL    HW2 4662   6.888   1.262   1.676
 1255SOL     OW 4663   5.530   1.290   5.226
 1255SOL    HW1 4664   5.599   1.299   5.298
 1255SOL    HW2 4665   5.575   1.268   5.140
 1256SOL     OW 4666   0.718   5.848   4.768
 1256SOL    HW1 4667   0.680   5.848   4.676
 1256SOL    HW2 4668   0.814   5.821   4.764
 1257SOL     OW 4669   0.195   5.338   3.998
 1257SOL    HW1 4670   0.293   5.328   3.981
 1257SOL    HW2 4671   0.167   5.432   3.975
 1258SOL     OW 4672   3.299   5.989   4.568
 1258SOL    HW1 4673   3.285   6.044   4.650
 1258SOL    HW2 4674   3.240   6.023   4.495
 1259SOL     OW 4675   5.518   0.417   3.864
 1259SOL    HW1 4676   5.600   0.367   3.836
 1259SOL    HW2 4677   5.446   0.352   3.888
 1260SOL     OW 4678   2.135   0.742   2.152
 1260SOL    HW1 4679   2.054   0.776   2.200
 1260SOL    HW2 4680   2.176   0.817   2.099
 1261SOL     OW 4681   6.444   4.590   6.343
 1261SOL    HW1 4682   6.505   4.511   6.342
 1261SOL    HW2 4683   6.478   4.658   6.409
 1262SOL     OW 4684   4.844   5.336   0.091
 1262SOL    HW1 4685   4.924   5.396   0.099
 1262SOL    HW2 4686   4.852   5.283   0.007
 1263SOL     OW 4687   0.344   2.203   1.509
 1263SOL    HW1 4688   0.411   2.170   1.576
 1263SOL    HW2 4689   0.374   2.179   1.417
 1264SOL     OW 4690   0.284   3.789   3.646
 1264SOL    HW1 4691   0.317   3.749   3.732
 1264SOL    HW2 4692   0.353   3.776   3.575
 1265SOL     OW 4693   6.940   4.443   5.560
 1265SOL    HW1 4694   7.003   4.496   5.617
 1265SOL    HW2 4695   6.923   4.492   5.475
 1266SOL     OW 4696   3.152   1.565   5.331
 1266SOL    HW1 4697   3.155   1.519   5.242
 1266SOL    HW2 4698   3.097   1.648   5.323
 1267SOL     OW 4699   0.015   5.282   2.933
 1267SOL    HW1 4700   0.050   5.191   2.912
 1267SOL    HW2 4701   6.965   5.274   2.996
 1268SOL     OW 4702   5.258   2.468   7.012
 1268SOL    HW1 4703   5.309   2.553   7.000
 1268SOL    HW2 4704   5.166   2.478   6.974
 1269SOL     OW 4705   6.811   5.357   5.615
 1269SOL    HW1 4706   6.798   5.326   5.709
 1269SOL    HW2 4707   6.822   5.278   5.555
 1270SOL     OW 4708   1.821   3.464   4.649
 1270SOL    HW1 4709   1.765   3.472   4.732
 1270SOL    HW2 4710   1.773   3.508   4.573
 1271SOL     OW 4711   3.679   1.914   2.697
 1271SOL    HW1 4712   3.591   1.866   2.685
 1271SOL    HW2 4713   3.687   1.985   2.627
 1272SOL     OW 4714   0.019   5.478   1.799
 1272SOL    HW1 4715   0.065   5.413   1.739
 1272SOL    HW2 4716   0.041   5.456   1.895
 1273SOL     OW 4717   3.077   5.543   6.616
 1273SOL    HW1 4718   2.998   5.600   6.636
 1273SOL    HW2 4719   3.064   5.453   6.657
 1274SOL     OW 4720   6.923   2.522   2.094
 1274SOL    HW1 4721   6.843   2.578   2.071
 1274SOL    HW2 4722   7.004   2.560   2.050
 1275SOL     OW 4723   3.976   1.593   4.653
 1275SOL    HW1 4724   4.041   1.636   4.591
 1275SOL    HW2 4725   3.975   1.642   4.740
 1276SOL     OW 4726   0.791   0.042   2.530
 1276SOL    HW1 4727   0.707   7.022   2.556
 1276SOL    HW2 4728   0.858   0.033   2.604
 1277SOL     OW 4729   6.882   0.312   4.036
 1277SOL    HW1 4730   6.897   0.227   3.987
 1277SOL    HW2 4731   6.834   0.292   4.122
 1278SOL     OW 4732   2.189   1.970   5.813
 1278SOL    HW1 4733   2.115   1.938   5.872
 1278SOL    HW2 4734   2.277   1.947   5.854
 1279SOL     OW 4735   2.760   5.818   0.492
 1279SOL    HW1 4736   2.670   5.851   0.464
 1279SOL    HW2 4737   2.817   5.804   0.411
 1280SOL     OW 4738   2.373   0.077   3.475
 1280SOL    HW1 4739   2.277   0.090   3.449
 1280SOL    HW2 4740   2.405   7.015   3.442
 1281SOL     OW 4741   1.294   6.338   3.184
 1281SOL    HW1 4742   1.327   6.266   3.125
 1281SOL    HW2 4743   1.371   6.389   3.222
 1282SOL     OW 4744   0.810   1.022   1.294
 1282SOL    HW1 4745   0.750   1.082   1.240
 1282SOL    HW2 4746   0.866   1.077   1.355
 1283SOL     OW 4747   5.608   5.257   4.934
 1283SOL    HW1 4748   5.581   5.284   4.841
 1283SOL    HW2 4749   5.597   5.158   4.945
 1284SOL     OW 4750   2.891   2.572   1.642
 1284SOL    HW1 4751   2.804   2.620   1.638
 1284SOL    HW2 4752   2.901   2.529   1.732
 1285SOL     OW 4753   4.678   2.894   5.627
 1285SOL    HW1 4754   4.759   2.873   5.682
 1285SOL    HW2 4755   4.704   2.904   5.531
 1286SOL     OW 4756   5.592   4.054   1.865
 1286SOL    HW1 4757   5.560   4.064   1.960
 1286SOL    HW2 4758   5.514   4.045   1.804
 1287SOL     OW 4759   6.673   6.112   6.869
 1287SOL    HW1 4760   6.573   6.114   6.879
 1287SOL    HW2 4761   6.715   6.118   6.960
 1288SOL     OW 4762   0.110   3.296   0.578
 1288SOL    HW1 4763   0.127   3.394   0.586
 1288SOL    HW2 4764   0.167   3.258   0.506
 1289SOL     OW 4765   6.852   6.193   2.512
 1289SOL    HW1 4766   6.872   6.258   2.438
 1289SOL    HW2 4767   6.770   6.141   2.490
 1290SOL     OW 4768   0.449   6.616   0.310
 1290SOL    HW1 4769   0.539   6.653   0.285
 1290SOL    HW2 4770   0.389   6.691   0.339
 1291SOL     OW 4771   0.951   6.244   0.089
 1291SOL    HW1 4772   0.895   6.285   0.161
 1291SOL    HW2 4773   1.045   6.236   0.120
 1292SOL     OW 4774   0.565   4.887   1.174
 1292SOL    HW1 4775   0.606   4.818   1.115
 1292SOL    HW2 4776   0.619   4.895   1.258
 1293SOL     OW 4777   0.560   1.824   6.676
 1293SOL    HW1 4778   0.623   1.876   6.618
 1293SOL    HW2 4779   0.556   1.729   6.645
 1294SOL     OW 4780   0.151   2.887   1.972
 1294SOL    HW1 4781   0.153   2.925   1.879
 1294SOL    HW2 4782   0.224   2.927   2.026
 1295SOL     OW 4783   5.437   2.483   1.855
 1295SOL    HW1 4784   5.407   2.578   1.869
 1295SOL    HW2 4785   5.528   2.471   1.894
 1296SOL     OW 4786   3.191   1.977   6.347
 1296SOL    HW1 4787   3.219   1.940   6.435
 1296SOL    HW2 4788   3.227   2.070   6.337
 1297SOL     OW 4789   6.802   1.457   5.078
 1297SOL    HW1 4790   6.788   1.539   5.022
 1297SOL    HW2 4791   6.840   1.484   5.166
 1298SOL     OW 4792   6.101   3.018   2.588
 1298SOL    HW1 4793   6.028   3.080   2.616
 1298SOL    HW2 4794   6.166   3.007   2.664
 1299SOL     OW 4795   1.261   4.185   4.612
 1299SOL    HW1 4796   1.350   4.183   4.656
 1299SOL    HW2 4797   1.232   4.091   4.592
 1300SOL     OW 4798   3.298   2.789   1.977
 1300SOL    HW1 4799   3.246   2.868   1.943
 1300SOL    HW2 4800   3.247   2.705   1.958
 1301SOL     OW 4801   1.015   6.653   4.003
 1301SOL    HW1 4802   0.997   6.742   3.962
 1301SOL    HW2 4803   0.938   6.592   3.985
 1302SOL     OW 4804   2.109   6.982   5.081
 1302SOL    HW1 4805   2.116   7.020   4.988
 1302SOL    HW2 4806   2.050   0.014   5.136
 1303SOL     OW 4807   3.578   1.767   0.803
 1303SOL    HW1 4808   3.535   1.786   0.891
 1303SOL    HW2 4809   3.577   1.668   0.786
 1304SOL     OW 4810   1.951   0.262   6.643
 1304SOL    HW1 4811   1.915   0.290   6.555
 1304SOL    HW2 4812   1.886   0.286   6.715
 1305SOL     OW 4813   4.233   0.294   4.477
 1305SOL    HW1 4814   4.275   0.373   4.521
 1305SOL    HW2 4815   4.283   0.211   4.503
 1306SOL     OW 4816   0.486   4.380   4.378
 1306SOL    HW1 4817   0.569   4.379   4.322
 1306SOL    HW2 4818   0.511   4.390   4.474
 1307SOL     OW 4819   1.067   3.050   4.496
 1307SOL    HW1 4820   0.991   3.115   4.488
 1307SOL    HW2 4821   1.141   3.092   4.550
 1308SOL     OW 4822   4.390   6.104   4.065
 1308SOL    HW1 4823   4.489   6.091   4.071
 1308SOL    HW2 4824   4.348   6.082   4.153
 1309SOL     OW 4825   5.928   2.417   4.673
 1309SOL    HW1 4826   5.921   2.418   4.573
 1309SOL    HW2 4827   6.022   2.437   4.700
 1310SOL     OW 4828   5.656   3.773   4.246
 1310SOL    HW1 4829   5.726   3.836   4.281
 1310SOL    HW2 4830   5.583   3.764   4.313
 1311SOL     OW 4831   6.170   6.771   4.791
 1311SOL    HW1 4832   6.255   6.806   4.751
 1311SOL    HW2 4833   6.192   6.696   4.854
 1312SOL     OW 4834   0.444   0.253   0.111
 1312SOL    HW1 4835   0.483   0.338   0.148
 1312SOL    HW2 4836   0.344   0.263   0.105
 1313SOL     OW 4837   3.432   5.096   5.025
 1313SOL    HW1 4838   3.523   5.115   4.989
 1313SOL    HW2 4839   3.436   5.089   5.125
 1314SOL     OW 4840   1.080   1.652   5.384
 1314SOL    HW1 4841   1.103   1.687   5.475
 1314SOL    HW2 4842   1.002   1.703   5.348
 1315SOL     OW 4843   2.158   1.785   1.511
 1315SOL    HW1 4844   2.196   1.702   1.469
 1315SOL    HW2 4845   2.231   1.838   1.553
 1316SOL     OW 4846   2.666   6.917   3.948
 1316SOL    HW1 4847   2.633   6.913   3.854
 1316SOL    HW2 4848   2.589   6.934   4.010
 1317SOL     OW 4849   6.999   4.999   4.535
 1317SOL    HW1 4850   6.957   4.957   4.616
 1317SOL    HW2 4851   7.021   5.094   4.555
 1318SOL     OW 4852   0.127   0.077   6.970
 1318SOL    HW1 4853   0.144   0.015   0.019
 1318SOL    HW2 4854   0.148   0.171   6.998
 1319SOL     OW 4855   6.161   1.439   0.439
 1319SOL    HW1 4856   6.152   1.340   0.445
 1319SOL    HW2 4857   6.255   1.466   0.458
 1320SOL     OW 4858   5.967   4.606   6.173
 1320SOL    HW1 4859   5.955   4.700   6.205
 1320SOL    HW2 4860   6.015   4.553   6.242
 1321SOL     OW 4861   3.944   2.549   0.092
 1321SOL    HW1 4862   3.964   2.460   0.135
 1321SOL    HW2 4863   4.023   2.578   0.038
 1322SOL     OW 4864   6.558   1.455   3.654
 1322SOL    HW1 4865   6.578   1.407   3.568
 1322SOL    HW2 4866   6.612   1.414   3.728
 1323SOL     OW 4867   0.764   1.843   5.075
 1323SOL    HW1 4868   0.795   1.888   4.991
 1323SOL    HW2 4869   0.778   1.744   5.067
 1324SOL     OW 4870   1.315   3.109   1.621
 1324SOL    HW1 4871   1.353   3.060   1.699
 1324SOL    HW2 4872   1.309   3.048   1.542
 1325SOL     OW 4873   2.343   6.295   3.566
 1325SOL    HW1 4874   2.251   6.332   3.566
 1325SOL    HW2 4875   2.378   6.292   3.660
 1326SOL     OW 4876   5.505   2.766   4.383
 1326SOL    HW1 4877   5.529   2.679   4.426
 1326SOL    HW2 4878   5.441   2.815   4.442
 1327SOL     OW 4879   3.531   4.925   3.636
 1327SOL    HW1 4880   3.484   4.971   3.560
 1327SOL    HW2 4881   3.629   4.921   3.616
 1328SOL     OW 4882   1.617   1.884   0.170
 1328SOL    HW1 4883   1.573   1.973   0.170
 1328SOL    HW2 4884   1.667   1.871   0.084
 1329SOL     OW 4885   0.790   0.950   0.794
 1329SOL    HW1 4886   0.876   0.995   0.819
 1329SOL    HW2 4887   0.769   0.970   0.698
 1330SOL     OW 4888   6.474   0.418   0.969
 1330SOL    HW1 4889   6.489   0.333   0.917
 1330SOL    HW2 4890   6.551   0.433   1.030
 1331SOL     OW 4891   5.861   0.376   2.063
 1331SOL    HW1 4892   5.890   0.281   2.056
 1331SOL    HW2 4893   5.782   0.392   2.003
 1332SOL     OW 4894   4.508   1.298   1.385
 1332SOL    HW1 4895   4.412   1.272   1.394
 1332SOL    HW2 4896   4.530   1.366   1.454
 1333SOL     OW 4897   3.969   3.848   4.946
 1333SOL    HW1 4898   3.898   3.782   4.921
 1333SOL    HW2 4899   4.058   3.803   4.945
 1334SOL     OW 4900   1.025   3.804   5.470
 1334SOL    HW1 4901   0.945   3.745   5.458
 1334SOL    HW2 4902   0.996   3.894   5.504
 1335SOL     OW 4903   1.842   5.459   3.025
 1335SOL    HW1 4904   1.832   5.558   3.020
 1335SOL    HW2 4905   1.912   5.436   3.093
 1336SOL     OW 4906   0.645   1.244   5.367
 1336SOL    HW1 4907   0.605   1.334   5.352
 1336SOL    HW2 4908   0.573   1.174   5.368
 1337SOL     OW 4909   1.505   2.118   6.353
 1337SOL    HW1 4910   1.564   2.154   6.425
 1337SOL    HW2 4911   1.555   2.116   6.267
 1338SOL     OW 4912   4.173   4.731   6.737
 1338SOL    HW1 4913   4.218   4.819   6.726
 1338SOL    HW2 4914   4.149   4.694   6.647
 1339SOL     OW 4915   6.800   4.037   5.802
 1339SOL    HW1 4916   6.862   4.015   5.877
 1339SOL    HW2 4917   6.722   3.975   5.804
 1340SOL     OW 4918   1.596   2.182   0.175
 1340SOL    HW1 4919   1.555   2.247   0.111
 1340SOL    HW2 4920   1.538   2.173   0.256
 1341SOL     OW 4921   3.002   1.384   3.505
 1341SOL    HW1 4922   2.997   1.321   3.427
 1341SOL    HW2 4923   2.916   1.381   3.555
 1342SOL     OW 4924   0.963   5.978   0.037
 1342SOL    HW1 4925   0.981   5.959   6.968
 1342SOL    HW2 4926   0.978   6.076   0.055
 1343SOL     OW 4927   3.923   5.973   2.801
 1343SOL    HW1 4928   3.916   5.980   2.901
 1343SOL    HW2 4929   3.897   5.881   2.772
 1344SOL     OW 4930   6.529   1.131   2.567
 1344SOL    HW1 4931   6.444   1.144   2.619
 1344SOL    HW2 4932   6.538   1.205   2.501
 1345SOL     OW 4933   0.904   0.404   2.904
 1345SOL    HW1 4934   0.902   0.492   2.953
 1345SOL    HW2 4935   0.816   0.359   2.913
 1346SOL     OW 4936   6.618   0.453   3.728
 1346SOL    HW1 4937   6.595   0.370   3.780
 1346SOL    HW2 4938   6.653   0.427   3.638
 1347SOL     OW 4939   6.520   6.522   3.182
 1347SOL    HW1 4940   6.500   6.447   3.246
 1347SOL    HW2 4941   6.523   6.608   3.232
 1348SOL     OW 4942   5.740   4.489   4.003
 1348SOL    HW1 4943   5.722   4.457   4.096
 1348SOL    HW2 4944   5.746   4.411   3.941
 1349SOL     OW 4945   3.732   2.448   6.980
 1349SOL    HW1 4946   3.684   2.367   7.012
 1349SOL    HW2 4947   3.803   2.473   0.019
 1350SOL     OW 4948   2.974   7.020   6.626
 1350SOL    HW1 4949   2.975   6.976   6.536
 1350SOL    HW2 4950   2.982   6.951   6.697
 1351SOL     OW 4951   7.008   1.214   3.474
 1351SOL    HW1 4952   6.974   1.129   3.433
 1351SOL    HW2 4953   6.957   1.292   3.437
 1352SOL     OW 4954   0.320   1.030   2.435
 1352SOL    HW1 4955   0.304   0.939   2.473
 1352SOL    HW2 4956   0.291   1.100   2.500
 1353SOL     OW 4957   0.716   4.620   4.934
 1353SOL    HW1 4958   0.771   4.546   4.973
 1353SOL    HW2 4959   0.627   4.584   4.905
 1354SOL     OW 4960   0.165   0.405   1.614
 1354SOL    HW1 4961   0.186   0.360   1.527
 1354SOL    HW2 4962   0.119   0.340   1.675
 1355SOL     OW 4963   4.874   3.444   6.919
 1355SOL    HW1 4964   4.875   3.345   6.929
 1355SOL    HW2 4965   4.800   3.471   6.858
 1356SOL     OW 4966   3.575   3.599   2.596
 1356SOL    HW1 4967   3.506   3.670   2.612
 1356SOL    HW2 4968   3.643   3.601   2.669
 1357SOL     OW 4969   2.697   2.933   5.819
 1357SOL    HW1 4970   2.645   3.018   5.813
 1357SOL    HW2 4971   2.747   2.931   5.906
 1358SOL     OW 4972   2.447   3.215   6.686
 1358SOL    HW1 4973   2.376   3.223   6.616
 1358SOL    HW2 4974   2.463   3.119   6.707
 1359SOL     OW 4975   6.544   2.883   0.714
 1359SOL    HW1 4976   6.569   2.979   0.726
 1359SOL    HW2 4977   6.484   2.874   0.634
 1360SOL     OW 4978   3.418   4.143   3.312
 1360SOL    HW1 4979   3.362   4.185   3.240
 1360SOL    HW2 4980   3.368   4.066   3.352
 1361SOL     OW 4981   0.631   6.218   6.493
 1361SOL    HW1 4982   0.716   6.258   6.528
 1361SOL    HW2 4983   0.558   6.229   6.560
 1362SOL     OW 4984   2.821   3.351   6.055
 1362SOL    HW1 4985   2.877   3.271   6.033
 1362SOL    HW2 4986   2.863   3.403   6.129
 1363SOL     OW 4987   6.387   5.562   2.355
 1363SOL    HW1 4988   6.362   5.640   2.412
 1363SOL    HW2 4989   6.485   5.566   2.334
 1364SOL     OW 4990   0.119   3.417   0.909
 1364SOL    HW1 4991   0.136   3.487   0.979
 1364SOL    HW2 4992   0.162   3.331   0.937
 1365SOL     OW 4993   0.578   3.407   6.405
 1365SOL    HW1 4994   0.592   3.379   6.310
 1365SOL    HW2 4995   0.647   3.475   6.430
 1366SOL     OW 4996   7.014   1.987   0.264
 1366SOL    HW1 4997   0.050   2.040   0.209
 1366SOL    HW2 4998   6.955   1.933   0.204
 1367SOL     OW 4999   0.083   5.598   3.978
 1367SOL    HW1 5000   0.166   5.575   4.030
 1367SOL    HW2 5001   0.005   5.603   4.040
 1368SOL     OW 5002   6.682   6.916   3.907
 1368SOL    HW1 5003   6.763   6.858   3.907
 1368SOL    HW2 5004   6.607   6.869   3.953
 1369SOL     OW 5005   2.815   6.259   3.012
 1369SOL    HW1 5006   2.912   6.283   3.005
 1369SOL    HW2 5007   2.760   6.329   2.967
 1370SOL     OW 5008   6.906   2.315   3.035
 1370SOL    HW1 5009   6.899   2.279   3.128
 1370SOL    HW2 5010   6.815   2.342   3.003
 1371SOL     OW 5011   5.660   1.231   4.646
 1371SOL    HW1 5012   5.620   1.320   4.626
 1371SOL    HW2 5013   5.593   1.174   4.693
 1372SOL     OW 5014   6.408   2.486   0.022
 1372SOL    HW1 5015   6.505   2.499   0.001
 1372SOL    HW2 5016   6.353   2.509   6.969
 1373SOL     OW 5017   4.660   2.721   2.029
 1373SOL    HW1 5018   4.678   2.817   2.005
 1373SOL    HW2 5019   4.656   2.712   2.128
 1374SOL     OW 5020   5.278   4.413   0.007
 1374SOL    HW1 5021   5.282   4.406   0.107
 1374SOL    HW2 5022   5.190   4.377   7.002
 1375SOL     OW 5023   5.828   5.966   4.834
 1375SOL    HW1 5024   5.851   5.894   4.768
 1375SOL    HW2 5025   5.906   5.982   4.894
 1376SOL     OW 5026   2.466   5.210   7.017
 1376SOL    HW1 5027   2.390   5.214   6.952
 1376SOL    HW2 5028   2.463   5.290   0.050
 1377SOL     OW 5029   1.745   2.248   3.091
 1377SOL    HW1 5030   1.826   2.302   3.111
 1377SOL    HW2 5031   1.749   2.162   3.142
 1378SOL     OW 5032   4.291   2.136   4.585
 1378SOL    HW1 5033   4.341   2.197   4.522
 1378SOL    HW2 5034   4.311   2.041   4.561
 1379SOL     OW 5035   5.723   5.446   1.143
 1379SOL    HW1 5036   5.797   5.462   1.077
 1379SOL    HW2 5037   5.699   5.349   1.143
 1380SOL     OW 5038   0.068   5.636   1.033
 1380SOL    HW1 5039   0.043   5.617   1.128
 1380SOL    HW2 5040   0.090   5.550   0.986
 1381SOL     OW 5041   6.401   2.181   5.858
 1381SOL    HW1 5042   6.439   2.206   5.947
 1381SOL    HW2 5043   6.405   2.081   5.847
 1382SOL     OW 5044   4.005   2.733   1.358
 1382SOL    HW1 5045   4.060   2.781   1.289
 1382SOL    HW2 5046   4.061   2.663   1.401
 1383SOL     OW 5047   1.024   0.750   1.976
 1383SOL    HW1 5048   1.078   0.789   1.901
 1383SOL    HW2 5049   1.064   0.663   2.004
 1384SOL     OW 5050   5.901   0.275   0.369
 1384SOL    HW1 5051   5.837   0.236   0.436
 1384SOL    HW2 5052   5.953   0.201   0.327
 1385SOL     OW 5053   1.679   5.329   2.848
 1385SOL    HW1 5054   1.749   5.373   2.905
 1385SOL    HW2 5055   1.681   5.230   2.862
 1386SOL     OW 5056   2.888   6.016   4.309
 1386SOL    HW1 5057   2.806   6.072   4.308
 1386SOL    HW2 5058   2.923   6.006   4.216
 1387SOL     OW 5059   3.915   6.041   1.758
 1387SOL    HW1 5060   3.990   6.104   1.739
 1387SOL    HW2 5061   3.834   6.093   1.785
 1388SOL     OW 5062   6.305   0.178   1.344
 1388SOL    HW1 5063   6.402   0.162   1.363
 1388SOL    HW2 5064   6.250   0.121   1.404
 1389SOL     OW 5065   6.564   0.801   2.956
 1389SOL    HW1 5066   6.536   0.888   2.996
 1389SOL    HW2 5067   6.581   0.814   2.858
 1390SOL     OW 5068   0.534   2.962   5.534
 1390SOL    HW1 5069   0.511   2.904   5.456
 1390SOL    HW2 5070   0.615   3.016   5.513
 1391SOL     OW 5071   6.940   1.828   3.451
 1391SOL    HW1 5072   6.968   1.812   3.545
 1391SOL    HW2 5073   7.019   1.820   3.391
 1392SOL     OW 5074   5.112   5.200   5.174
 1392SOL    HW1 5075   5.097   5.280   5.116
 1392SOL    HW2 5076   5.049   5.127   5.146
 1393SOL     OW 5077   4.886   6.231   6.189
 1393SOL    HW1 5078   4.964   6.199   6.243
 1393SOL    HW2 5079   4.920   6.268   6.102
 1394SOL     OW 5080   2.949   6.093   5.616
 1394SOL    HW1 5081   2.933   6.087   5.518
 1394SOL    HW2 5082   2.881   6.154   5.657
 1395SOL     OW 5083   2.892   4.424   5.735
 1395SOL    HW1 5084   2.906   4.463   5.643
 1395SOL    HW2 5085   2.858   4.495   5.796
 1396SOL     OW 5086   6.715   6.800   4.219
 1396SOL    HW1 5087   6.662   6.715   4.215
 1396SOL    HW2 5088   6.654   6.878   4.210
 1397SOL     OW 5089   6.056   0.451   4.597
 1397SOL    HW1 5090   6.127   0.453   4.527
 1397SOL    HW2 5091   6.096   0.430   4.686
 1398SOL     OW 5092   1.463   1.292   4.884
 1398SOL    HW1 5093   1.464   1.193   4.868
 1398SOL    HW2 5094   1.512   1.338   4.810
 1399SOL     OW 5095   3.049   6.187   1.490
 1399SOL    HW1 5096   3.045   6.249   1.568
 1399SOL    HW2 5097   3.071   6.095   1.521
 1400SOL     OW 5098   0.190   1.426   2.010
 1400SOL    HW1 5099   0.157   1.385   2.095
 1400SOL    HW2 5100   0.115   1.430   1.944
 1401SOL     OW 5101   0.537   1.963   5.226
 1401SOL    HW1 5102   0.576   2.029   5.290
 1401SOL    HW2 5103   0.611   1.924   5.171
 1402SOL     OW 5104   0.043   3.328   6.776
 1402SOL    HW1 5105   7.006   3.340   6.701
 1402SOL    HW2 5106   0.135   3.319   6.740
 1403SOL     OW 5107   3.242   0.394   2.120
 1403SOL    HW1 5108   3.274   0.421   2.211
 1403SOL    HW2 5109   3.152   0.353   2.127
 1404SOL     OW 5110   5.112   0.680   0.378
 1404SOL    HW1 5111   5.202   0.671   0.421
 1404SOL    HW2 5112   5.073   0.769   0.401
 1405SOL     OW 5113   1.674   4.061   1.099
 1405SOL    HW1 5114   1.692   4.087   1.004
 1405SOL    HW2 5115   1.687   3.962   1.110
 1406SOL     OW 5116   1.414   4.867   1.567
 1406SOL    HW1 5117   1.487   4.816   1.612
 1406SOL    HW2 5118   1.437   4.964   1.566
 1407SOL     OW 5119   6.623   1.321   1.893
 1407SOL    HW1 5120   6.535   1.275   1.886
 1407SOL    HW2 5121   6.670   1.291   1.976
 1408SOL     OW 5122   5.489   0.695   6.281
 1408SOL    HW1 5123   5.495   0.748   6.366
 1408SOL    HW2 5124   5.431   0.743   6.215
 1409SOL     OW 5125   0.231   0.430   4.786
 1409SOL    HW1 5126   0.166   0.378   4.732
 1409SOL    HW2 5127   0.192   0.519   4.810
 1410SOL     OW 5128   1.614   3.345   6.660
 1410SOL    HW1 5129   1.558   3.378   6.737
 1410SOL    HW2 5130   1.568   3.367   6.574
 1411SOL     OW 5131   2.271   6.721   3.237
 1411SOL    HW1 5132   2.356   6.672   3.217
 1411SOL    HW2 5133   2.247   6.779   3.158
 1412SOL     OW 5134   1.524   2.884   0.588
 1412SOL    HW1 5135   1.561   2.972   0.560
 1412SOL    HW2 5136   1.432   2.896   0.624
 1413SOL     OW 5137   2.492   0.678   4.644
 1413SOL    HW1 5138   2.423   0.610   4.623
 1413SOL    HW2 5139   2.467   0.727   4.727
 1414SOL     OW 5140   2.807   1.379   1.957
 1414SOL    HW1 5141   2.715   1.351   1.930
 1414SOL    HW2 5142   2.827   1.470   1.919
 1415SOL     OW 5143   2.621   6.068   4.658
 1415SOL    HW1 5144   2.690   6.057   4.586
 1415SOL    HW2 5145   2.537   6.104   4.618
 1416SOL     OW 5146   4.711   4.221   2.724
 1416SOL    HW1 5147   4.740   4.248   2.815
 1416SOL    HW2 5148   4.631   4.274   2.697
 1417SOL     OW 5149   2.550   2.275   6.573
 1417SOL    HW1 5150   2.612   2.354   6.578
 1417SOL    HW2 5151   2.504   2.274   6.484
 1418SOL     OW 5152   3.362   3.686   2.748
 1418SOL    HW1 5153   3.293   3.699   2.677
 1418SOL    HW2 5154   3.320   3.699   2.838
 1419SOL     OW 5155   2.515   6.902   4.778
 1419SOL    HW1 5156   2.421   6.869   4.788
 1419SOL    HW2 5157   2.578   6.825   4.778
 1420SOL     OW 5158   1.450   6.474   2.414
 1420SOL    HW1 5159   1.540   6.515   2.430
 1420SOL    HW2 5160   1.391   6.541   2.368
 1421SOL     OW 5161   1.662   2.932   3.164
 1421SOL    HW1 5162   1.761   2.937   3.146
 1421SOL    HW2 5163   1.624   2.853   3.116
 1422SOL     OW 5164   2.424   4.532   2.196
 1422SOL    HW1 5165   2.465   4.550   2.285
 1422SOL    HW2 5166   2.446   4.607   2.133
 1423SOL     OW 5167   6.022   6.483   1.611
 1423SOL    HW1 5168   6.024   6.486   1.711
 1423SOL    HW2 5169   5.932   6.515   1.580
 1424SOL     OW 5170   5.367   4.706   4.950
 1424SOL    HW1 5171   5.410   4.796   4.945
 1424SOL    HW2 5172   5.299   4.697   4.877
 1425SOL     OW 5173   1.191   5.857   4.095
 1425SOL    HW1 5174   1.132   5.784   4.127
 1425SOL    HW2 5175   1.277   5.819   4.060
 1426SOL     OW 5176   1.427   1.952   5.652
 1426SOL    HW1 5177   1.504   2.014   5.665
 1426SOL    HW2 5178   1.428   1.918   5.558
 1427SOL     OW 5179   6.995   6.978   3.082
 1427SOL    HW1 5180   6.976   6.935   3.170
 1427SOL    HW2 5181   7.014   6.907   3.014
 1428SOL     OW 5182   5.862   2.384   0.708
 1428SOL    HW1 5183   5.822   2.434   0.786
 1428SOL    HW2 5184   5.831   2.426   0.623
 1429SOL     OW 5185   5.974   1.640   0.509
 1429SOL    HW1 5186   5.885   1.615   0.472
 1429SOL    HW2 5187   6.045   1.585   0.464
 1430SOL     OW 5188   1.059   4.248   4.371
 1430SOL    HW1 5189   0.978   4.214   4.417
 1430SOL    HW2 5190   1.069   4.346   4.388
 1431SOL     OW 5191   2.140   2.181   1.783
 1431SOL    HW1 5192   2.071   2.142   1.721
 1431SOL    HW2 5193   2.110   2.271   1.814
 1432SOL     OW 5194   2.555   1.584   3.384
 1432SOL    HW1 5195   2.534   1.626   3.472
 1432SOL    HW2 5196   2.501   1.629   3.312
 1433SOL     OW 5197   4.365   1.067   4.095
 1433SOL    HW1 5198   4.423   1.139   4.056
 1433SOL    HW2 5199   4.350   0.996   4.026
 1434SOL     OW 5200   0.379   1.368   5.236
 1434SOL    HW1 5201   0.357   1.382   5.139
 1434SOL    HW2 5202   0.386   1.270   5.255
 1435SOL     OW 5203   6.236   1.075   2.203
 1435SOL    HW1 5204   6.236   1.014   2.283
 1435SOL    HW2 5205   6.220   1.169   2.233
 1436SOL     OW 5206   4.384   4.017   0.037
 1436SOL    HW1 5207   4.360   3.955   0.111
 1436SOL    HW2 5208   4.482   4.038   0.042
 1437SOL     OW 5209   2.805   1.751   3.969
 1437SOL    HW1 5210   2.882   1.780   3.913
 1437SOL    HW2 5211   2.789   1.818   4.041
 1438SOL     OW 5212   3.907   6.023   1.294
 1438SOL    HW1 5213   3.943   6.115   1.308
 1438SOL    HW2 5214   3.809   6.029   1.274
 1439SOL     OW 5215   0.288   6.095   1.661
 1439SOL    HW1 5216   0.339   6.178   1.636
 1439SOL    HW2 5217   0.326   6.017   1.612
 1440SOL     OW 5218   3.227   3.901   1.505
 1440SOL    HW1 5219   3.240   3.897   1.604
 1440SOL    HW2 5220   3.184   3.817   1.474
 1441SOL     OW 5221   6.315   0.882   1.419
 1441SOL    HW1 5222   6.358   0.953   1.474
 1441SOL    HW2 5223   6.353   0.793   1.443
 1442SOL     OW 5224   6.186   6.097   6.661
 1442SOL    HW1 5225   6.249   6.064   6.591
 1442SOL    HW2 5226   6.106   6.139   6.617
 1443SOL     OW 5227   0.359   2.557   2.637
 1443SOL    HW1 5228   0.419   2.502   2.695
 1443SOL    HW2 5229   0.264   2.541   2.663
 1444SOL     OW 5230   5.273   6.546   1.153
 1444SOL    HW1 5231   5.270   6.449   1.177
 1444SOL    HW2 5232   5.253   6.557   1.056
 1445SOL     OW 5233   0.848   3.673   2.988
 1445SOL    HW1 5234   0.796   3.596   2.952
 1445SOL    HW2 5235   0.927   3.639   3.040
 1446SOL     OW 5236   6.371   0.436   6.287
 1446SOL    HW1 5237   6.456   0.482   6.313
 1446SOL    HW2 5238   6.326   0.488   6.215
 1447SOL     OW 5239   5.475   5.036   2.917
 1447SOL    HW1 5240   5.445   4.999   2.829
 1447SOL    HW2 5241   5.410   5.105   2.947
 1448SOL     OW 5242   0.309   3.370   4.718
 1448SOL    HW1 5243   0.388   3.313   4.694
 1448SOL    HW2 5244   0.341   3.453   4.764
 1449SOL     OW 5245   1.796   4.094   5.309
 1449SOL    HW1 5246   1.820   4.172   5.367
 1449SOL    HW2 5247   1.877   4.062   5.261
 1450SOL     OW 5248   0.878   2.084   5.766
 1450SOL    HW1 5249   0.971   2.115   5.747
 1450SOL    HW2 5250   0.866   1.991   5.731
 1451SOL     OW 5251   1.558   6.066   1.674
 1451SOL    HW1 5252   1.540   6.133   1.602
 1451SOL    HW2 5253   1.483   6.000   1.678
 1452SOL     OW 5254   4.365   3.136   5.674
 1452SOL    HW1 5255   4.326   3.087   5.596
 1452SOL    HW2 5256   4.293   3.157   5.740
 1453SOL     OW 5257   0.780   4.779   5.440
 1453SOL    HW1 5258   0.771   4.681   5.456
 1453SOL    HW2 5259   0.717   4.828   5.499
 1454SOL     OW 5260   2.766   1.932   3.216
 1454SOL    HW1 5261   2.804   2.016   3.176
 1454SOL    HW2 5262   2.824   1.903   3.292
 1455SOL     OW 5263   0.931   6.155   3.136
 1455SOL    HW1 5264   0.970   6.153   3.044
 1455SOL    HW2 5265   0.946   6.067   3.181
 1456SOL     OW 5266   6.715   6.104   6.133
 1456SOL    HW1 5267   6.701   6.201   6.110
 1456SOL    HW2 5268   6.724   6.051   6.048
 1457SOL     OW 5269   0.576   4.142   0.607
 1457SOL    HW1 5270   0.610   4.069   0.667
 1457SOL    HW2 5271   0.477   4.136   0.601
 1458SOL     OW 5272   5.770   4.848   5.579
 1458SOL    HW1 5273   5.800   4.887   5.492
 1458SOL    HW2 5274   5.673   4.870   5.594
 1459SOL     OW 5275   4.960   6.821   5.918
 1459SOL    HW1 5276   5.017   6.836   5.999
 1459SOL    HW2 5277   5.014   6.837   5.836
 1460SOL     OW 5278   1.931   6.487   5.617
 1460SOL    HW1 5279   1.997   6.423   5.577
 1460SOL    HW2 5280   1.854   6.499   5.554
 1461SOL     OW 5281   0.352   3.469   2.908
 1461SOL    HW1 5282   0.407   3.517   2.977
 1461SOL    HW2 5283   0.366   3.371   2.916
 1462SOL     OW 5284   0.943   0.710   6.929
 1462SOL    HW1 5285   0.910   0.618   6.908
 1462SOL    HW2 5286   0.865   0.771   6.945
 1463SOL     OW 5287   1.680   5.549   6.574
 1463SOL    HW1 5288   1.648   5.604   6.651
 1463SOL    HW2 5289   1.609   5.548   6.503
 1464SOL     OW 5290   6.370   4.086   3.732
 1464SOL    HW1 5291   6.296   4.102   3.799
 1464SOL    HW2 5292   6.412   3.998   3.750
 1465SOL     OW 5293   1.948   1.647   3.722
 1465SOL    HW1 5294   1.876   1.695   3.773
 1465SOL    HW2 5295   1.965   1.558   3.764
 1466SOL     OW 5296   3.646   2.582   1.678
 1466SOL    HW1 5297   3.566   2.639   1.696
 1466SOL    HW2 5298   3.668   2.529   1.760
 1467SOL     OW 5299   1.308   1.176   3.934
 1467SOL    HW1 5300   1.310   1.076   3.931
 1467SOL    HW2 5301   1.290   1.211   3.842
 1468SOL     OW 5302   3.054   5.671   2.047
 1468SOL    HW1 5303   3.102   5.603   2.102
 1468SOL    HW2 5304   3.079   5.659   1.951
 1469SOL     OW 5305   6.347   6.379   3.406
 1469SOL    HW1 5306   6.303   6.397   3.318
 1469SOL    HW2 5307   6.379   6.284   3.408
 1470SOL     OW 5308   0.144   2.947   0.967
 1470SOL    HW1 5309   0.197   2.869   0.933
 1470SOL    HW2 5310   0.114   2.929   1.060
 1471SOL     OW 5311   0.030   0.033   0.734
 1471SOL    HW1 5312   0.064   0.127   0.728
 1471SOL    HW2 5313   6.961   0.030   0.709
 1472SOL     OW 5314   2.843   6.691   6.378
 1472SOL    HW1 5315   2.843   6.592   6.386
 1472SOL    HW2 5316   2.814   6.732   6.465
 1473SOL     OW 5317   3.303   4.798   5.226
 1473SOL    HW1 5318   3.321   4.777   5.130
 1473SOL    HW2 5319   3.209   4.771   5.248
 1474SOL     OW 5320   4.445   5.071   1.566
 1474SOL    HW1 5321   4.387   5.017   1.628
 1474SOL    HW2 5322   4.412   5.060   1.473
 1475SOL     OW 5323   5.281   1.373   0.334
 1475SOL    HW1 5324   5.293   1.276   0.357
 1475SOL    HW2 5325   5.238   1.420   0.412
 1476SOL     OW 5326   3.212   1.377   1.154
 1476SOL    HW1 5327   3.207   1.356   1.057
 1476SOL    HW2 5328   3.250   1.469   1.166
 1477SOL     OW 5329   4.516   6.724   0.543
 1477SOL    HW1 5330   4.424   6.757   0.524
 1477SOL    HW2 5331   4.561   6.699   0.457
 1478SOL     OW 5332   5.131   6.764   4.994
 1478SOL    HW1 5333   5.202   6.835   4.985
 1478SOL    HW2 5334   5.162   6.695   5.059
 1479SOL     OW 5335   3.905   3.969   1.962
 1479SOL    HW1 5336   3.998   3.999   1.941
 1479SOL    HW2 5337   3.883   3.887   1.908
 1480SOL     OW 5338   2.573   0.982   6.350
 1480SOL    HW1 5339   2.576   0.978   6.250
 1480SOL    HW2 5340   2.558   1.076   6.379
 1481SOL     OW 5341   5.457   2.875   5.293
 1481SOL    HW1 5342   5.373   2.854   5.344
 1481SOL    HW2 5343   5.433   2.898   5.199
 1482SOL     OW 5344   4.612   0.462   0.858
 1482SOL    HW1 5345   4.520   0.432   0.833
 1482SOL    HW2 5346   4.669   0.382   0.876
 1483SOL     OW 5347   4.479   1.661   5.618
 1483SOL    HW1 5348   4.482   1.755   5.583
 1483SOL    HW2 5349   4.477   1.597   5.541
 1484SOL     OW 5350   3.308   4.897   4.627
 1484SOL    HW1 5351   3.212   4.871   4.618
 1484SOL    HW2 5352   3.362   4.851   4.557
 1485SOL     OW 5353   4.927   1.158   3.203
 1485SOL    HW1 5354   4.963   1.244   3.239
 1485SOL    HW2 5355   4.868   1.178   3.124
 1486SOL     OW 5356   5.118   6.933   3.636
 1486SOL    HW1 5357   5.141   6.891   3.724
 1486SOL    HW2 5358   5.032   6.895   3.603
 1487SOL     OW 5359   6.884   0.745   0.095
 1487SOL    HW1 5360   6.874   0.832   0.143
 1487SOL    HW2 5361   6.884   0.670   0.161
 1488SOL     OW 5362   6.091   0.269   2.602
 1488SOL    HW1 5363   6.060   0.350   2.650
 1488SOL    HW2 5364   6.032   0.191   2.626
 1489SOL     OW 5365   4.344   4.704   6.957
 1489SOL    HW1 5366   4.430   4.655   6.945
 1489SOL    HW2 5367   4.288   4.694   6.875
 1490SOL     OW 5368   0.505   2.349   1.926
 1490SOL    HW1 5369   0.597   2.386   1.934
 1490SOL    HW2 5370   0.462   2.346   2.016
 1491SOL     OW 5371   6.802   3.589   1.813
 1491SOL    HW1 5372   6.789   3.504   1.864
 1491SOL    HW2 5373   6.898   3.599   1.789
 1492SOL     OW 5374   6.681   0.729   2.231
 1492SOL    HW1 5375   6.689   0.729   2.330
 1492SOL    HW2 5376   6.619   0.802   2.202
 1493SOL     OW 5377   4.152   1.360   5.531
 1493SOL    HW1 5378   4.056   1.380   5.551
 1493SOL    HW2 5379   4.192   1.311   5.608
 1494SOL     OW 5380   5.256   2.423   6.075
 1494SOL    HW1 5381   5.297   2.435   5.984
 1494SOL    HW2 5382   5.192   2.497   6.093
 1495SOL     OW 5383   6.017   3.500   3.796
 1495SOL    HW1 5384   6.044   3.441   3.872
 1495SOL    HW2 5385   5.950   3.567   3.827
 1496SOL     OW 5386   0.124   6.432   0.173
 1496SOL    HW1 5387   0.081   6.521   0.157
 1496SOL    HW2 5388   0.218   6.434   0.138
 1497SOL     OW 5389   5.269   1.939   3.363
 1497SOL    HW1 5390   5.288   1.885   3.281
 1497SOL    HW2 5391   5.306   1.892   3.443
 1498SOL     OW 5392   2.862   4.416   1.400
 1498SOL    HW1 5393   2.825   4.463   1.480
 1498SOL    HW2 5394   2.961   4.426   1.398
 1499SOL     OW 5395   0.012   3.690   5.742
 1499SOL    HW1 5396   7.024   3.754   5.818
 1499SOL    HW2 5397   6.971   3.617   5.746
 1500SOL     OW 5398   0.873   5.746   0.492
 1500SOL    HW1 5399   0.912   5.671   0.544
 1500SOL    HW2 5400   0.891   5.733   0.394
 1501SOL     OW 5401   5.957   1.847   6.436
 1501SOL    HW1 5402   5.974   1.915   6.507
 1501SOL    HW2 5403   6.039   1.837   6.380
 1502SOL     OW 5404   0.108   1.176   5.878
 1502SOL    HW1 5405   0.021   1.223   5.857
 1502SOL    HW2 5406   0.112   1.157   5.976
 1503SOL     OW 5407   0.465   3.649   2.060
 1503SOL    HW1 5408   0.533   3.576   2.064
 1503SOL    HW2 5409   0.492   3.724   2.120
 1504SOL     OW 5410   0.608   6.883   3.816
 1504SOL    HW1 5411   0.685   6.882   3.752
 1504SOL    HW2 5412   0.547   6.959   3.794
 1505SOL     OW 5413   5.926   6.490   5.037
 1505SOL    HW1 5414   5.874   6.576   5.033
 1505SOL    HW2 5415   6.023   6.510   5.046
 1506SOL     OW 5416   1.507   0.577   0.994
 1506SOL    HW1 5417   1.437   0.573   0.923
 1506SOL    HW2 5418   1.488   0.652   1.056
 1507SOL     OW 5419   1.241   1.751   4.299
 1507SOL    HW1 5420   1.219   1.796   4.213
 1507SOL    HW2 5421   1.339   1.736   4.305
 1508SOL     OW 5422   0.568   1.360   0.429
 1508SOL    HW1 5423   0.479   1.329   0.462
 1508SOL    HW2 5424   0.568   1.361   0.329
 1509SOL     OW 5425   5.220   1.376   4.828
 1509SOL    HW1 5426   5.240   1.349   4.923
 1509SOL    HW2 5427   5.121   1.376   4.814
 1510SOL     OW 5428   3.843   6.715   4.112
 1510SOL    HW1 5429   3.809   6.806   4.091
 1510SOL    HW2 5430   3.853   6.662   4.028
 1511SOL     OW 5431   3.287   4.140   4.295
 1511SOL    HW1 5432   3.373   4.171   4.337
 1511SOL    HW2 5433   3.254   4.060   4.343
 1512SOL     OW 5434   6.243   5.804   1.085
 1512SOL    HW1 5435   6.210   5.820   0.992
 1512SOL    HW2 5436   6.335   5.841   1.094
 1513SOL     OW 5437   3.178   6.889   5.906
 1513SOL    HW1 5438   3.161   6.819   5.976
 1513SOL    HW2 5439   3.143   6.857   5.818
 1514SOL     OW 5440   3.578   2.312   5.716
 1514SOL    HW1 5441   3.524   2.374   5.773
 1514SOL    HW2 5442   3.520   2.277   5.642
 1515SOL     OW 5443   6.624   1.847   2.928
 1515SOL    HW1 5444   6.649   1.864   2.833
 1515SOL    HW2 5445   6.698   1.877   2.988
 1516SOL     OW 5446   6.467   6.151   4.451
 1516SOL    HW1 5447   6.394   6.217   4.433
 1516SOL    HW2 5448   6.530   6.189   4.519
 1517SOL     OW 5449   3.368   6.527   3.462
 1517SOL    HW1 5450   3.438   6.547   3.531
 1517SOL    HW2 5451   3.278   6.536   3.504
 1518SOL     OW 5452   6.655   2.526   6.961
 1518SOL    HW1 5453   6.661   2.606   6.902
 1518SOL    HW2 5454   6.747   2.500   6.992
 1519SOL     OW 5455   6.880   4.884   0.713
 1519SOL    HW1 5456   6.882   4.838   0.802
 1519SOL    HW2 5457   6.971   4.879   0.671
 1520SOL     OW 5458   0.984   4.987   1.362
 1520SOL    HW1 5459   0.890   4.961   1.338
 1520SOL    HW2 5460   1.033   4.907   1.395
 1521SOL     OW 5461   2.852   4.598   7.022
 1521SOL    HW1 5462   2.792   4.562   6.950
 1521SOL    HW2 5463   2.802   4.666   0.049
 1522SOL     OW 5464   5.392   5.932   5.100
 1522SOL    HW1 5465   5.301   5.916   5.064
 1522SOL    HW2 5466   5.388   5.939   5.199
 1523SOL     OW 5467   3.678   0.070   6.600
 1523SOL    HW1 5468   3.673   0.061   6.699
 1523SOL    HW2 5469   3.593   0.038   6.559
 1524SOL     OW 5470   2.506   2.291   3.177
 1524SOL    HW1 5471   2.558   2.258   3.256
 1524SOL    HW2 5472   2.453   2.371   3.204
 1525SOL     OW 5473   6.226   2.782   0.765
 1525SOL    HW1 5474   6.187   2.775   0.673
 1525SOL    HW2 5475   6.163   2.742   0.831
 1526SOL     OW 5476   0.562   1.654   0.073
 1526SOL    HW1 5477   0.630   1.707   0.023
 1526SOL    HW2 5478   0.605   1.571   0.109
 1527SOL     OW 5479   3.732   1.327   5.130
 1527SOL    HW1 5480   3.789   1.359   5.054
 1527SOL    HW2 5481   3.638   1.315   5.098
 1528SOL     OW 5482   4.491   3.955   0.859
 1528SOL    HW1 5483   4.451   4.027   0.802
 1528SOL    HW2 5484   4.567   3.912   0.810
 1529SOL     OW 5485   5.530   1.294   6.603
 1529SOL    HW1 5486   5.534   1.280   6.504
 1529SOL    HW2 5487   5.475   1.375   6.623
 1530SOL     OW 5488   3.365   0.220   1.471
 1530SOL    HW1 5489   3.328   0.190   1.383
 1530SOL    HW2 5490   3.315   0.300   1.503
 1531SOL     OW 5491   4.140   0.458   3.782
 1531SOL    HW1 5492   4.074   0.388   3.808
 1531SOL    HW2 5493   4.179   0.500   3.863
 1532SOL     OW 5494   3.477   4.628   5.824
 1532SOL    HW1 5495   3.384   4.591   5.827
 1532SOL    HW2 5496   3.514   4.617   5.732
 1533SOL     OW 5497   5.410   5.669   1.000
 1533SOL    HW1 5498   5.332   5.611   0.974
 1533SOL    HW2 5499   5.494   5.615   0.999
 1534SOL     OW 5500   3.625   5.765   0.139
 1534SOL    HW1 5501   3.620   5.665   0.135
 1534SOL    HW2 5502   3.557   5.805   0.078
 1535SOL     OW 5503   6.046   6.916   4.954
 1535SOL    HW1 5504   5.979   6.969   4.903
 1535SOL    HW2 5505   6.111   6.874   4.890
 1536SOL     OW 5506   4.109   4.463   6.795
 1536SOL    HW1 5507   4.174   4.435   6.866
 1536SOL    HW2 5508   4.111   4.562   6.785
 1537SOL     OW 5509   3.590   5.221   3.919
 1537SOL    HW1 5510   3.499   5.256   3.897
 1537SOL    HW2 5511   3.592   5.122   3.905
 1538SOL     OW 5512   3.542   1.438   0.122
 1538SOL    HW1 5513   3.621   1.389   0.085
 1538SOL    HW2 5514   3.569   1.485   0.206
 1539SOL     OW 5515   5.128   2.991   1.620
 1539SOL    HW1 5516   5.204   2.933   1.649
 1539SOL    HW2 5517   5.060   2.996   1.693
 1540SOL     OW 5518   1.315   6.777   5.191
 1540SOL    HW1 5519   1.251   6.806   5.262
 1540SOL    HW2 5520   1.269   6.780   5.102
 1541SOL     OW 5521   3.972   3.325   4.933
 1541SOL    HW1 5522   3.919   3.241   4.939
 1541SOL    HW2 5523   3.973   3.357   4.838
 1542SOL     OW 5524   6.581   6.441   2.234
 1542SOL    HW1 5525   6.502   6.468   2.290
 1542SOL    HW2 5526   6.552   6.375   2.165
 1543SOL     OW 5527   3.603   5.499   5.992
 1543SOL    HW1 5528   3.596   5.595   5.965
 1543SOL    HW2 5529   3.523   5.450   5.958
 1544SOL     OW 5530   3.664   3.862   4.069
 1544SOL    HW1 5531   3.626   3.826   3.984
 1544SOL    HW2 5532   3.691   3.786   4.128
 1545SOL     OW 5533   5.882   0.476   1.629
 1545SOL    HW1 5534   5.890   0.467   1.530
 1545SOL    HW2 5535   5.967   0.514   1.666
 1546SOL     OW 5536   5.282   0.138   5.828
 1546SOL    HW1 5537   5.240   0.127   5.918
 1546SOL    HW2 5538   5.380   0.153   5.839
 1547SOL     OW 5539   1.182   4.418   1.090
 1547SOL    HW1 5540   1.246   4.352   1.129
 1547SOL    HW2 5541   1.208   4.439   0.996
 1548SOL     OW 5542   6.495   3.164   0.339
 1548SOL    HW1 5543   6.463   3.198   0.427
 1548SOL    HW2 5544   6.417   3.148   0.279
 1549SOL     OW 5545   3.572   1.275   4.482
 1549SOL    HW1 5546   3.571   1.226   4.395
 1549SOL    HW2 5547   3.515   1.227   4.549
 1550SOL     OW 5548   3.940   3.092   2.593
 1550SOL    HW1 5549   3.975   3.111   2.685
 1550SOL    HW2 5550   3.864   3.027   2.599
 1551SOL     OW 5551   1.262   4.989   0.175
 1551SOL    HW1 5552   1.323   4.951   0.105
 1551SOL    HW2 5553   1.168   4.987   0.141
 1552SOL     OW 5554   2.719   4.691   0.962
 1552SOL    HW1 5555   2.784   4.692   1.039
 1552SOL    HW2 5556   2.679   4.600   0.954
 1553SOL     OW 5557   0.358   1.612   6.361
 1553SOL    HW1 5558   0.332   1.527   6.315
 1553SOL    HW2 5559   0.393   1.591   6.452
 1554SOL     OW 5560   2.967   1.834   3.740
 1554SOL    HW1 5561   2.896   1.860   3.676
 1554SOL    HW2 5562   3.013   1.751   3.708
 1555SOL     OW 5563   5.676   2.624   5.932
 1555SOL    HW1 5564   5.734   2.618   5.851
 1555SOL    HW2 5565   5.581   2.640   5.905
 1556SOL     OW 5566   2.047   1.055   6.267
 1556SOL    HW1 5567   2.003   0.987   6.209
 1556SOL    HW2 5568   2.126   1.014   6.312
 1557SOL     OW 5569   1.870   3.678   6.110
 1557SOL    HW1 5570   1.920   3.614   6.167
 1557SOL    HW2 5571   1.876   3.649   6.014
 1558SOL     OW 5572   6.311   0.644   4.672
 1558SOL    HW1 5573   6.254   0.584   4.729
 1558SOL    HW2 5574   6.407   0.631   4.696
 1559SOL     OW 5575   0.995   2.471   6.493
 1559SOL    HW1 5576   1.061   2.539   6.461
 1559SOL    HW2 5577   1.005   2.459   6.592
 1560SOL     OW 5578   0.069   1.313   6.655
 1560SOL    HW1 5579   0.163   1.304   6.624
 1560SOL    HW2 5580   0.050   1.409   6.676
 1561SOL     OW 5581   4.711   6.264   2.794
 1561SOL    HW1 5582   4.689   6.167   2.783
 1561SOL    HW2 5583   4.636   6.319   2.757
 1562SOL     OW 5584   4.223   6.787   1.763
 1562SOL    HW1 5585   4.153   6.811   1.830
 1562SOL    HW2 5586   4.307   6.762   1.810
 1563SOL     OW 5587   3.589   0.690   6.147
 1563SOL    HW1 5588   3.581   0.618   6.078
 1563SOL    HW2 5589   3.569   0.652   6.237
 1564SOL     OW 5590   1.635   0.482   2.165
 1564SOL    HW1 5591   1.632   0.549   2.239
 1564SOL    HW2 5592   1.720   0.431   2.170
 1565SOL     OW 5593   4.791   3.913   2.059
 1565SOL    HW1 5594   4.776   4.010   2.037
 1565SOL    HW2 5595   4.771   3.857   1.978
 1566SOL     OW 5596   5.232   3.911   3.612
 1566SOL    HW1 5597   5.209   3.821   3.649
 1566SOL    HW2 5598   5.163   3.937   3.544
 1567SOL     OW 5599   5.963   6.225   6.539
 1567SOL    HW1 5600   5.934   6.209   6.445
 1567SOL    HW2 5601   5.931   6.315   6.569
 1568SOL     OW 5602   1.113   0.272   0.332
 1568SOL    HW1 5603   1.129   0.367   0.357
 1568SOL    HW2 5604   1.168   0.212   0.390
 1569SOL     OW 5605   4.299   6.468   4.428
 1569SOL    HW1 5606   4.265   6.526   4.353
 1569SOL    HW2 5607   4.379   6.511   4.469
 1570SOL     OW 5608   2.840   1.641   1.869
 1570SOL    HW1 5609   2.754   1.661   1.823
 1570SOL    HW2 5610   2.913   1.635   1.801
 1571SOL     OW 5611   6.337   3.030   1.684
 1571SOL    HW1 5612   6.379   3.103   1.630
 1571SOL    HW2 5613   6.291   2.965   1.623
 1572SOL     OW 5614   0.440   0.378   2.382
 1572SOL    HW1 5615   0.472   0.383   2.476
 1572SOL    HW2 5616   0.429   0.471   2.345
 1573SOL     OW 5617   5.143   6.658   1.937
 1573SOL    HW1 5618   5.085   6.709   2.000
 1573SOL    HW2 5619   5.206   6.720   1.891
 1574SOL     OW 5620   0.429   1.938   1.944
 1574SOL    HW1 5621   0.452   1.842   1.925
 1574SOL    HW2 5622   0.483   1.970   2.022
 1575SOL     OW 5623   2.658   2.649   0.481
 1575SOL    HW1 5624   2.664   2.572   0.545
 1575SOL    HW2 5625   2.583   2.633   0.417
 1576SOL     OW 5626   5.359   6.242   3.878
 1576SOL    HW1 5627   5.330   6.329   3.917
 1576SOL    HW2 5628   5.400   6.186   3.950
 1577SOL     OW 5629   2.326   1.016   5.451
 1577SOL    HW1 5630   2.292   1.109   5.457
 1577SOL    HW2 5631   2.421   1.017   5.419
 1578SOL     OW 5632   5.782   3.992   5.156
 1578SOL    HW1 5633   5.712   4.044   5.107
 1578SOL    HW2 5634   5.805   4.040   5.241
 1579SOL     OW 5635   0.593   1.340   3.033
 1579SOL    HW1 5636   0.571   1.353   3.130
 1579SOL    HW2 5637   0.513   1.366   2.978
 1580SOL     OW 5638   2.782   4.309   5.356
 1580SOL    HW1 5639   2.701   4.270   5.312
 1580SOL    HW2 5640   2.819   4.381   5.297
 1581SOL     OW 5641   6.297   4.027   4.279
 1581SOL    HW1 5642   6.371   3.966   4.250
 1581SOL    HW2 5643   6.336   4.115   4.307
 1582SOL     OW 5644   0.266   5.006   4.673
 1582SOL    HW1 5645   0.178   4.960   4.673
 1582SOL    HW2 5646   0.331   4.954   4.617
 1583SOL     OW 5647   1.939   3.000   3.915
 1583SOL    HW1 5648   1.948   2.968   3.821
 1583SOL    HW2 5649   1.887   2.934   3.969
 1584SOL     OW 5650   2.644   6.672   5.266
 1584SOL    HW1 5651   2.631   6.762   5.309
 1584SOL    HW2 5652   2.590   6.604   5.315
 1585SOL     OW 5653   5.417   2.074   3.135
 1585SOL    HW1 5654   5.379   2.158   3.096
 1585SOL    HW2 5655   5.402   2.074   3.234
 1586SOL     OW 5656   3.737   4.046   2.175
 1586SOL    HW1 5657   3.773   4.025   2.084
 1586SOL    HW2 5658   3.807   4.026   2.243
 1587SOL     OW 5659   3.388   6.123   6.751
 1587SOL    HW1 5660   3.321   6.049   6.749
 1587SOL    HW2 5661   3.381   6.172   6.838
 1588SOL     OW 5662   5.516   1.474   2.825
 1588SOL    HW1 5663   5.594   1.419   2.794
 1588SOL    HW2 5664   5.546   1.568   2.841
 1589SOL     OW 5665   5.358   4.571   3.592
 1589SOL    HW1 5666   5.299   4.508   3.642
 1589SOL    HW2 5667   5.421   4.616   3.656
 1590SOL     OW 5668   1.631   6.559   0.217
 1590SOL    HW1 5669   1.614   6.513   0.130
 1590SOL    HW2 5670   1.637   6.658   0.201
 1591SOL     OW 5671   1.247   5.017   2.251
 1591SOL    HW1 5672   1.216   5.084   2.183
 1591SOL    HW2 5673   1.336   5.045   2.286
 1592SOL     OW 5674   3.252   3.274   2.598
 1592SOL    HW1 5675   3.221   3.185   2.566
 1592SOL    HW2 5676   3.333   3.302   2.547
 1593SOL     OW 5677   0.285   6.389   4.446
 1593SOL    HW1 5678   0.198   6.393   4.396
 1593SOL    HW2 5679   0.339   6.312   4.412
 1594SOL     OW 5680   6.595   5.488   2.693
 1594SOL    HW1 5681   6.518   5.547   2.716
 1594SOL    HW2 5682   6.662   5.490   2.767
 1595SOL     OW 5683   0.411   4.638   6.503
 1595SOL    HW1 5684   0.394   4.594   6.591
 1595SOL    HW2 5685   0.324   4.659   6.459
 1596SOL     OW 5686   1.831   5.075   6.021
 1596SOL    HW1 5687   1.918   5.076   6.070
 1596SOL    HW2 5688   1.788   5.165   6.027
 1597SOL     OW 5689   2.248   6.530   2.262
 1597SOL    HW1 5690   2.261   6.527   2.361
 1597SOL    HW2 5691   2.205   6.617   2.237
 1598SOL     OW 5692   0.620   4.302   1.135
 1598SOL    HW1 5693   0.646   4.352   1.218
 1598SOL    HW2 5694   0.558   4.359   1.080
 1599SOL     OW 5695   3.770   4.590   6.538
 1599SOL    HW1 5696   3.869   4.590   6.541
 1599SOL    HW2 5697   3.738   4.505   6.494
 1600SOL     OW 5698   5.069   1.748   4.971
 1600SOL    HW1 5699   5.067   1.778   4.876
 1600SOL    HW2 5700   4.977   1.753   5.010
 1601SOL     OW 5701   1.498   4.828   5.161
 1601SOL    HW1 5702   1.445   4.869   5.235
 1601SOL    HW2 5703   1.506   4.893   5.086
 1602SOL     OW 5704   1.451   6.011   3.231
 1602SOL    HW1 5705   1.465   5.914   3.216
 1602SOL    HW2 5706   1.466   6.061   3.146
 1603SOL     OW 5707   0.685   6.498   2.089
 1603SOL    HW1 5708   0.589   6.502   2.118
 1603SOL    HW2 5709   0.690   6.514   1.990
 1604SOL     OW 5710   6.766   5.369   6.865
 1604SOL    HW1 5711   6.774   5.450   6.805
 1604SOL    HW2 5712   6.834   5.374   6.938
 1605SOL     OW 5713   6.419   0.180   2.799
 1605SOL    HW1 5714   6.469   0.266   2.815
 1605SOL    HW2 5715   6.412   0.163   2.701
 1606SOL     OW 5716   4.665   0.070   5.353
 1606SOL    HW1 5717   4.701   0.110   5.269
 1606SOL    HW2 5718   4.573   0.034   5.336
 1607SOL     OW 5719   4.072   2.171   1.334
 1607SOL    HW1 5720   4.096   2.135   1.425
 1607SOL    HW2 5721   4.073   2.097   1.268
 1608SOL     OW 5722   2.695   7.022   0.377
 1608SOL    HW1 5723   2.792   7.020   0.403
 1608SOL    HW2 5724   2.670   6.933   0.338
 1609SOL     OW 5725   5.430   2.069   5.837
 1609SOL    HW1 5726   5.383   2.111   5.915
 1609SOL    HW2 5727   5.514   2.120   5.817
 1610SOL     OW 5728   6.179   6.098   4.624
 1610SOL    HW1 5729   6.195   6.069   4.530
 1610SOL    HW2 5730   6.084   6.126   4.635
 1611SOL     OW 5731   3.965   3.217   2.342
 1611SOL    HW1 5732   3.965   3.123   2.306
 1611SOL    HW2 5733   3.963   3.214   2.442
 1612SOL     OW 5734   2.531   1.665   5.091
 1612SOL    HW1 5735   2.538   1.571   5.123
 1612SOL    HW2 5736   2.522   1.667   4.991
 1613SOL     OW 5737   1.977   6.232   0.717
 1613SOL    HW1 5738   1.946   6.197   0.629
 1613SOL    HW2 5739   2.003   6.155   0.776
 1614SOL     OW 5740   6.010   2.257   6.696
 1614SOL    HW1 5741   5.967   2.305   6.772
 1614SOL    HW2 5742   5.965   2.281   6.611
 1615SOL     OW 5743   6.940   4.308   6.600
 1615SOL    HW1 5744   6.873   4.239   6.628
 1615SOL    HW2 5745   6.912   4.397   6.636
 1616SOL     OW 5746   3.622   1.758   6.125
 1616SOL    HW1 5747   3.709   1.772   6.172
 1616SOL    HW2 5748   3.636   1.695   6.048
 1617SOL     OW 5749   5.763   0.828   2.570
 1617SOL    HW1 5750   5.719   0.836   2.659
 1617SOL    HW2 5751   5.771   0.732   2.545
 1618SOL     OW 5752   6.866   3.588   1.256
 1618SOL    HW1 5753   6.872   3.596   1.356
 1618SOL    HW2 5754   6.782   3.540   1.232
 1619SOL     OW 5755   1.227   3.569   4.266
 1619SOL    HW1 5756   1.254   3.589   4.172
 1619SOL    HW2 5757   1.136   3.528   4.266
 1620SOL     OW 5758   2.292   5.898   1.382
 1620SOL    HW1 5759   2.386   5.891   1.348
 1620SOL    HW2 5760   2.269   5.815   1.434
 1621SOL     OW 5761   0.676   0.326   0.934
 1621SOL    HW1 5762   0.749   0.282   0.986
 1621SOL    HW2 5763   0.691   0.313   0.836
 1622SOL     OW 5764   1.908   1.748   4.429
 1622SOL    HW1 5765   1.906   1.729   4.331
 1622SOL    HW2 5766   1.921   1.663   4.479
 1623SOL     OW 5767   2.380   2.608   6.167
 1623SOL    HW1 5768   2.320   2.588   6.089
 1623SOL    HW2 5769   2.335   2.672   6.229
 1624SOL     OW 5770   3.341   1.134   6.835
 1624SOL    HW1 5771   3.338   1.175   6.744
 1624SOL    HW2 5772   3.429   1.153   6.877
 1625SOL     OW 5773   0.909   5.186   2.182
 1625SOL    HW1 5774   0.828   5.148   2.226
 1625SOL    HW2 5775   0.943   5.123   2.113
 1626SOL     OW 5776   2.236   3.029   6.358
 1626SOL    HW1 5777   2.239   2.954   6.293
 1626SOL    HW2 5778   2.159   3.090   6.335
 1627SOL     OW 5779   6.161   2.064   3.634
 1627SOL    HW1 5780   6.186   1.973   3.601
 1627SOL    HW2 5781   6.242   2.122   3.639
 1628SOL     OW 5782   3.239   5.034   1.112
 1628SOL    HW1 5783   3.159   4.981   1.140
 1628SOL    HW2 5784   3.310   5.026   1.182
 1629SOL     OW 5785   3.682   2.096   4.525
 1629SOL    HW1 5786   3.654   2.131   4.435
 1629SOL    HW2 5787   3.740   2.164   4.570
 1630SOL     OW 5788   0.743   5.015   5.851
 1630SOL    HW1 5789   0.792   5.053   5.772
 1630SOL    HW2 5790   0.663   5.070   5.871
 1631SOL     OW 5791   0.277   0.355   5.428
 1631SOL    HW1 5792   0.228   0.370   5.514
 1631SOL    HW2 5793   0.300   0.443   5.387
 1632SOL     OW 5794   6.931   0.968   0.253
 1632SOL    HW1 5795   6.959   0.907   0.326
 1632SOL    HW2 5796   6.988   1.050   0.254
 1633SOL     OW 5797   5.883   1.740   2.981
 1633SOL    HW1 5798   5.974   1.775   3.004
 1633SOL    HW2 5799   5.844   1.794   2.906
 1634SOL     OW 5800   3.034   6.419   6.175
 1634SOL    HW1 5801   3.109   6.417   6.241
 1634SOL    HW2 5802   2.985   6.332   6.178
 1635SOL     OW 5803   0.399   5.672   4.765
 1635SOL    HW1 5804   0.460   5.689   4.842
 1635SOL    HW2 5805   0.399   5.752   4.705
 1636SOL     OW 5806   2.681   5.422   1.611
 1636SOL    HW1 5807   2.634   5.433   1.524
 1636SOL    HW2 5808   2.669   5.504   1.667
 1637SOL     OW 5809   0.044   3.178   2.284
 1637SOL    HW1 5810   0.086   3.116   2.351
 1637SOL    HW2 5811   7.020   3.125   2.217
 1638SOL     OW 5812   0.413   3.473   4.253
 1638SOL    HW1 5813   0.414   3.555   4.311
 1638SOL    HW2 5814   0.387   3.499   4.160
 1639SOL     OW 5815   4.647   5.990   2.766
 1639SOL    HW1 5816   4.614   5.935   2.843
 1639SOL    HW2 5817   4.709   5.935   2.710
 1640SOL     OW 5818   6.440   1.396   0.468
 1640SOL    HW1 5819   6.450   1.332   0.545
 1640SOL    HW2 5820   6.490   1.360   0.389
 1641SOL     OW 5821   6.213   3.187   4.315
 1641SOL    HW1 5822   6.187   3.163   4.221
 1641SOL    HW2 5823   6.229   3.103   4.368
 1642SOL     OW 5824   6.735   2.256   0.229
 1642SOL    HW1 5825   6.662   2.259   0.297
 1642SOL    HW2 5826   6.710   2.192   0.157
 1643SOL     OW 5827   3.250   6.575   5.450
 1643SOL    HW1 5828   3.236   6.479   5.427
 1643SOL    HW2 5829   3.176   6.630   5.412
 1644SOL     OW 5830   3.233   1.723   1.422
 1644SOL    HW1 5831   3.136   1.707   1.439
 1644SOL    HW2 5832   3.244   1.776   1.338
 1645SOL     OW 5833   3.283   5.960   6.076
 1645SOL    HW1 5834   3.287   5.932   5.981
 1645SOL    HW2 5835   3.327   6.049   6.087
 1646SOL     OW 5836   1.228   4.581   0.860
 1646SOL    HW1 5837   1.200   4.650   0.926
 1646SOL    HW2 5838   1.313   4.609   0.816
 1647SOL     OW 5839   5.646   3.044   3.803
 1647SOL    HW1 5840   5.608   3.126   3.759
 1647SOL    HW2 5841   5.628   2.964   3.745
 1648SOL     OW 5842   4.517   0.300   1.691
 1648SOL    HW1 5843   4.443   0.234   1.683
 1648SOL    HW2 5844   4.590   0.277   1.627
 1649SOL     OW 5845   2.997   0.503   3.244
 1649SOL    HW1 5846   3.047   0.475   3.326
 1649SOL    HW2 5847   3.054   0.562   3.188
 1650SOL     OW 5848   2.803   0.713   4.048
 1650SOL    HW1 5849   2.830   0.631   3.996
 1650SOL    HW2 5850   2.773   0.686   4.139
 1651SOL     OW 5851   0.167   0.313   0.047
 1651SOL    HW1 5852   0.076   0.307   0.088
 1651SOL    HW2 5853   0.202   0.406   0.057
 1652SOL     OW 5854   2.918   2.386   1.429
 1652SOL    HW1 5855   2.901   2.449   1.505
 1652SOL    HW2 5856   3.001   2.416   1.380
 1653SOL     OW 5857   0.037   5.456   0.432
 1653SOL    HW1 5858   0.134   5.466   0.454
 1653SOL    HW2 5859   7.010   5.508   0.498
 1654SOL     OW 5860   6.950   3.407   3.025
 1654SOL    HW1 5861   6.952   3.489   3.082
 1654SOL    HW2 5862   6.962   3.432   2.929
 1655SOL     OW 5863   5.318   4.296   6.301
 1655SOL    HW1 5864   5.389   4.363   6.323
 1655SOL    HW2 5865   5.360   4.210   6.276
 1656SOL     OW 5866   1.094   4.710   3.615
 1656SOL    HW1 5867   1.019   4.678   3.674
 1656SOL    HW2 5868   1.102   4.650   3.536
 1657SOL     OW 5869   1.670   0.839   5.751
 1657SOL    HW1 5870   1.597   0.907   5.757
 1657SOL    HW2 5871   1.757   0.883   5.772
 1658SOL     OW 5872   5.814   6.329   2.517
 1658SOL    HW1 5873   5.892   6.279   2.554
 1658SOL    HW2 5874   5.837   6.425   2.506
 1659SOL     OW 5875   3.540   2.077   6.533
 1659SOL    HW1 5876   3.617   2.016   6.553
 1659SOL    HW2 5877   3.455   2.024   6.531
 1660SOL     OW 5878   0.877   5.890   3.788
 1660SOL    HW1 5879   0.975   5.879   3.767
 1660SOL    HW2 5880   0.829   5.805   3.767
 1661SOL     OW 5881   3.090   1.912   2.506
 1661SOL    HW1 5882   3.008   1.865   2.473
 1661SOL    HW2 5883   3.171   1.858   2.485
 1662SOL     OW 5884   0.046   1.619   3.098
 1662SOL    HW1 5885   0.145   1.608   3.106
 1662SOL    HW2 5886   0.017   1.594   3.005
 1663SOL     OW 5887   2.959   6.880   2.906
 1663SOL    HW1 5888   2.926   6.882   3.000
 1663SOL    HW2 5889   2.893   6.832   2.848
 1664SOL     OW 5890   1.782   6.853   4.470
 1664SOL    HW1 5891   1.809   6.916   4.543
 1664SOL    HW2 5892   1.755   6.766   4.511
 1665SOL     OW 5893   0.759   1.419   2.524
 1665SOL    HW1 5894   0.844   1.407   2.474
 1665SOL    HW2 5895   0.697   1.478   2.472
 1666SOL     OW 5896   5.848   2.399   5.552
 1666SOL    HW1 5897   5.906   2.385   5.472
 1666SOL    HW2 5898   5.889   2.355   5.631
 1667SOL     OW 5899   6.398   6.747   6.111
 1667SOL    HW1 5900   6.432   6.675   6.050
 1667SOL    HW2 5901   6.404   6.715   6.206
 1668SOL     OW 5902   3.906   0.462   4.177
 1668SOL    HW1 5903   3.897   0.450   4.078
 1668SOL    HW2 5904   4.001   0.445   4.204
 1669SOL     OW 5905   5.965   0.061   6.116
 1669SOL    HW1 5906   6.041   0.014   6.071
 1669SOL    HW2 5907   6.001   0.130   6.178
 1670SOL     OW 5908   5.559   4.610   5.682
 1670SOL    HW1 5909   5.623   4.580   5.753
 1670SOL    HW2 5910   5.523   4.700   5.704
 1671SOL     OW 5911   4.582   3.323   0.156
 1671SOL    HW1 5912   4.656   3.355   0.215
 1671SOL    HW2 5913   4.617   3.302   0.065
 1672SOL     OW 5914   1.979   4.377   2.436
 1672SOL    HW1 5915   2.060   4.330   2.400
 1672SOL    HW2 5916   2.006   4.467   2.471
 1673SOL     OW 5917   6.880   3.719   4.508
 1673SOL    HW1 5918   6.917   3.807   4.537
 1673SOL    HW2 5919   6.951   3.665   4.465
 1674SOL     OW 5920   1.022   3.992   0.871
 1674SOL    HW1 5921   1.051   4.073   0.819
 1674SOL    HW2 5922   0.960   4.020   0.944
 1675SOL     OW 5923   4.714   1.336   6.552
 1675SOL    HW1 5924   4.743   1.241   6.540
 1675SOL    HW2 5925   4.737   1.389   6.471
 1676SOL     OW 5926   2.221   1.074   2.369
 1676SOL    HW1 5927   2.217   0.976   2.389
 1676SOL    HW2 5928   2.133   1.116   2.389
 1677SOL     OW 5929   5.866   1.505   5.119
 1677SOL    HW1 5930   5.778   1.553   5.113
 1677SOL    HW2 5931   5.850   1.408   5.139
 1678SOL     OW 5932   4.921   6.402   2.255
 1678SOL    HW1 5933   5.020   6.412   2.267
 1678SOL    HW2 5934   4.902   6.323   2.197
 1679SOL     OW 5935   1.208   3.104   5.809
 1679SOL    HW1 5936   1.246   3.033   5.869
 1679SOL    HW2 5937   1.131   3.148   5.855
 1680SOL     OW 5938   0.867   1.183   3.632
 1680SOL    HW1 5939   0.793   1.121   3.656
 1680SOL    HW2 5940   0.834   1.277   3.632
 1681SOL     OW 5941   6.357   5.364   0.879
 1681SOL    HW1 5942   6.406   5.366   0.792
 1681SOL    HW2 5943   6.309   5.451   0.891
 1682SOL     OW 5944   0.108   3.290   4.874
 1682SOL    HW1 5945   0.171   3.346   4.820
 1682SOL    HW2 5946   0.122   3.308   4.971
 1683SOL     OW 5947   4.601   5.402   1.119
 1683SOL    HW1 5948   4.556   5.438   1.037
 1683SOL    HW2 5949   4.567   5.449   1.200
 1684SOL     OW 5950   0.374   6.617   5.454
 1684SOL    HW1 5951   0.301   6.676   5.488
 1684SOL    HW2 5952   0.348   6.582   5.364
 1685SOL     OW 5953   1.889   1.056   0.468
 1685SOL    HW1 5954   1.936   1.143   0.479
 1685SOL    HW2 5955   1.818   1.064   0.398
 1686SOL     OW 5956   1.149   5.626   5.678
 1686SOL    HW1 5957   1.094   5.705   5.651
 1686SOL    HW2 5958   1.209   5.651   5.754
 1687SOL     OW 5959   1.588   4.744   2.579
 1687SOL    HW1 5960   1.550   4.819   2.634
 1687SOL    HW2 5961   1.571   4.762   2.482
 1688SOL     OW 5962   1.671   1.671   3.055
 1688SOL    HW1 5963   1.729   1.747   3.083
 1688SOL    HW2 5964   1.722   1.585   3.066
 1689SOL     OW 5965   3.307   1.745   2.408
 1689SOL    HW1 5966   3.267   1.659   2.377
 1689SOL    HW2 5967   3.346   1.794   2.330
 1690SOL     OW 5968   1.626   1.335   2.025
 1690SOL    HW1 5969   1.551   1.387   2.065
 1690SOL    HW2 5970   1.684   1.300   2.098
 1691SOL     OW 5971   5.610   3.138   3.015
 1691SOL    HW1 5972   5.605   3.094   3.104
 1691SOL    HW2 5973   5.675   3.214   3.018
 1692SOL     OW 5974   0.396   0.189   1.730
 1692SOL    HW1 5975   0.391   0.097   1.689
 1692SOL    HW2 5976   0.490   0.220   1.731
 1693SOL     OW 5977   2.556   2.550   3.543
 1693SOL    HW1 5978   2.512   2.534   3.631
 1693SOL    HW2 5979   2.654   2.534   3.551
 1694SOL     OW 5980   4.411   5.675   4.944
 1694SOL    HW1 5981   4.492   5.709   4.895
 1694SOL    HW2 5982   4.380   5.590   4.902
 1695SOL     OW 5983   2.866   2.735   5.408
 1695SOL    HW1 5984   2.890   2.725   5.505
 1695SOL    HW2 5985   2.946   2.715   5.352
 1696SOL     OW 5986   4.888   5.457   0.393
 1696SOL    HW1 5987   4.941   5.439   0.310
 1696SOL    HW2 5988   4.794   5.477   0.369
 1697SOL     OW 5989   1.265   0.135   1.504
 1697SOL    HW1 5990   1.345   0.191   1.482
 1697SOL    HW2 5991   1.182   0.187   1.487
 1698SOL     OW 5992   4.882   2.329   2.094
 1698SOL    HW1 5993   4.872   2.408   2.034
 1698SOL    HW2 5994   4.970   2.285   2.078
 1699SOL     OW 5995   2.722   3.215   0.789
 1699SOL    HW1 5996   2.692   3.215   0.694
 1699SOL    HW2 5997   2.779   3.135   0.806
 1700SOL     OW 5998   6.909   2.900   2.854
 1700SOL    HW1 5999   6.998   2.880   2.813
 1700SOL    HW2 6000   6.869   2.981   2.809
 1701SOL     OW 6001   6.298   2.684   4.324
 1701SOL    HW1 6002   6.328   2.706   4.231
 1701SOL    HW2 6003   6.311   2.587   4.342
 1702SOL     OW 6004   5.766   3.456   1.118
 1702SOL    HW1 6005   5.804   3.364   1.122
 1702SOL    HW2 6006   5.669   3.450   1.090
 1703SOL     OW 6007   2.237   3.792   0.667
 1703SOL    HW1 6008   2.284   3.819   0.751
 1703SOL    HW2 6009   2.138   3.791   0.683
 1704SOL     OW 6010   6.876   0.798   1.421
 1704SOL    HW1 6011   6.911   0.787   1.328
 1704SOL    HW2 6012   6.924   0.736   1.482
 1705SOL     OW 6013   3.758   2.589   1.414
 1705SOL    HW1 6014   3.727   2.588   1.509
 1705SOL    HW2 6015   3.850   2.628   1.409
 1706SOL     OW 6016   3.741   0.620   0.313
 1706SOL    HW1 6017   3.821   0.624   0.254
 1706SOL    HW2 6018   3.679   0.549   0.280
 1707SOL     OW 6019   5.341   2.097   2.761
 1707SOL    HW1 6020   5.245   2.123   2.761
 1707SOL    HW2 6021   5.397   2.174   2.730
 1708SOL     OW 6022   6.452   6.316   2.521
 1708SOL    HW1 6023   6.464   6.304   2.619
 1708SOL    HW2 6024   6.466   6.413   2.497
 1709SOL     OW 6025   2.805   6.520   2.531
 1709SOL    HW1 6026   2.842   6.427   2.535
 1709SOL    HW2 6027   2.706   6.515   2.518
 1710SOL     OW 6028   0.519   4.930   4.183
 1710SOL    HW1 6029   0.554   5.021   4.206
 1710SOL    HW2 6030   0.555   4.863   4.248
 1711SOL     OW 6031   1.363   4.813   5.784
 1711SOL    HW1 6032   1.441   4.869   5.812
 1711SOL    HW2 6033   1.383   4.770   5.696
 1712SOL     OW 6034   0.126   4.145   0.083
 1712SOL    HW1 6035   0.196   4.203   0.126
 1712SOL    HW2 6036   0.101   4.184   7.022
 1713SOL     OW 6037   1.563   2.760   1.549
 1713SOL    HW1 6038   1.662   2.756   1.559
 1713SOL    HW2 6039   1.526   2.832   1.607
 1714SOL     OW 6040   3.622   1.761   0.190
 1714SOL    HW1 6041   3.576   1.813   0.261
 1714SOL    HW2 6042   3.664   1.679   0.229
 1715SOL     OW 6043   0.993   3.259   2.932
 1715SOL    HW1 6044   0.979   3.258   3.031
 1715SOL    HW2 6045   0.983   3.166   2.897
 1716SOL     OW 6046   0.011   6.676   0.110
 1716SOL    HW1 6047   6.946   6.678   0.148
 1716SOL    HW2 6048   0.008   6.639   0.017
 1717SOL     OW 6049   2.503   6.552   6.962
 1717SOL    HW1 6050   2.421   6.606   6.940
 1717SOL    HW2 6051   2.581   6.613   6.970
 1718SOL     OW 6052   2.463   3.950   0.330
 1718SOL    HW1 6053   2.477   4.016   0.256
 1718SOL    HW2 6054   2.458   3.999   0.417
 1719SOL     OW 6055   1.819   3.464   1.411
 1719SOL    HW1 6056   1.866   3.398   1.469
 1719SOL    HW2 6057   1.884   3.531   1.375
 1720SOL     OW 6058   6.815   1.570   0.626
 1720SOL    HW1 6059   6.797   1.644   0.561
 1720SOL    HW2 6060   6.890   1.596   0.686
 1721SOL     OW 6061   1.774   6.685   3.434
 1721SOL    HW1 6062   1.839   6.719   3.366
 1721SOL    HW2 6063   1.685   6.727   3.419
 1722SOL     OW 6064   6.103   0.417   2.271
 1722SOL    HW1 6065   6.139   0.325   2.255
 1722SOL    HW2 6066   6.029   0.436   2.206
 1723SOL     OW 6067   0.294   1.846   3.002
 1723SOL    HW1 6068   0.387   1.882   3.015
 1723SOL    HW2 6069   0.290   1.752   3.035
 1724SOL     OW 6070   4.981   1.081   6.592
 1724SOL    HW1 6071   4.921   1.113   6.519
 1724SOL    HW2 6072   5.076   1.106   6.570
 1725SOL     OW 6073   3.391   4.114   1.450
 1725SOL    HW1 6074   3.320   4.050   1.480
 1725SOL    HW2 6075   3.350   4.200   1.423
 1726SOL     OW 6076   6.812   4.866   5.082
 1726SOL    HW1 6077   6.768   4.794   5.028
 1726SOL    HW2 6078   6.743   4.929   5.117
 1727SOL     OW 6079   4.041   3.481   5.151
 1727SOL    HW1 6080   4.041   3.427   5.067
 1727SOL    HW2 6081   4.040   3.419   5.230
 1728SOL     OW 6082   4.578   4.418   3.912
 1728SOL    HW1 6083   4.520   4.464   3.979
 1728SOL    HW2 6084   4.532   4.416   3.823
 1729SOL     OW 6085   1.164   4.015   3.036
 1729SOL    HW1 6086   1.222   4.065   3.101
 1729SOL    HW2 6087   1.171   4.058   2.946
 1730SOL     OW 6088   6.869   1.644   4.455
 1730SOL    HW1 6089   6.808   1.690   4.520
 1730SOL    HW2 6090   6.818   1.572   4.407
 1731SOL     OW 6091   2.138   4.800   1.213
 1731SOL    HW1 6092   2.078   4.826   1.289
 1731SOL    HW2 6093   2.087   4.743   1.149
 1732SOL     OW 6094   2.010   4.559   6.994
 1732SOL    HW1 6095   1.946   4.540   0.042
 1732SOL    HW2 6096   1.961   4.557   6.907
 1733SOL     OW 6097   1.358   3.801   1.873
 1733SOL    HW1 6098   1.324   3.768   1.785
 1733SOL    HW2 6099   1.352   3.901   1.876
 1734SOL     OW 6100   4.127   2.806   0.652
 1734SOL    HW1 6101   4.166   2.715   0.639
 1734SOL    HW2 6102   4.038   2.811   0.607
 1735SOL     OW 6103   5.823   5.087   1.298
 1735SOL    HW1 6104   5.864   5.156   1.238
 1735SOL    HW2 6105   5.895   5.028   1.335
 1736SOL     OW 6106   3.335   3.204   6.961
 1736SOL    HW1 6107   3.354   3.122   7.014
 1736SOL    HW2 6108   3.405   3.273   6.980
 1737SOL     OW 6109   2.333   0.543   4.179
 1737SOL    HW1 6110   2.373   0.471   4.235
 1737SOL    HW2 6111   2.253   0.508   4.131
 1738SOL     OW 6112   2.097   3.124   2.322
 1738SOL    HW1 6113   2.084   3.203   2.261
 1738SOL    HW2 6114   2.011   3.072   2.328
 1739SOL     OW 6115   4.451   2.235   4.908
 1739SOL    HW1 6116   4.453   2.144   4.868
 1739SOL    HW2 6117   4.533   2.250   4.964
 1740SOL     OW 6118   6.918   0.990   6.993
 1740SOL    HW1 6119   6.935   0.990   0.065
 1740SOL    HW2 6120   6.835   0.938   6.974
 1741SOL     OW 6121   2.274   0.797   2.477
 1741SOL    HW1 6122   2.189   0.748   2.494
 1741SOL    HW2 6123   2.349   0.750   2.524
 1742SOL     OW 6124   5.796   0.357   5.101
 1742SOL    HW1 6125   5.754   0.441   5.067
 1742SOL    HW2 6126   5.866   0.326   5.037
 1743SOL     OW 6127   3.394   1.541   1.511
 1743SOL    HW1 6128   3.343   1.470   1.561
 1743SOL    HW2 6129   3.330   1.594   1.456
 1744SOL     OW 6130   2.533   0.797   1.923
 1744SOL    HW1 6131   2.561   0.882   1.967
 1744SOL    HW2 6132   2.521   0.813   1.825
 1745SOL     OW 6133   0.125   1.807   3.280
 1745SOL    HW1 6134   0.186   1.882   3.253
 1745SOL    HW2 6135   0.089   1.762   3.199
 1746SOL     OW 6136   3.014   0.540   6.789
 1746SOL    HW1 6137   2.941   0.508   6.850
 1746SOL    HW2 6138   2.977   0.602   6.721
 1747SOL     OW 6139   3.422   7.005   0.912
 1747SOL    HW1 6140   3.432   6.946   0.992
 1747SOL    HW2 6141   3.463   6.961   0.832
 1748SOL     OW 6142   6.061   1.921   3.856
 1748SOL    HW1 6143   6.020   1.840   3.813
 1748SOL    HW2 6144   6.089   1.986   3.784
 1749SOL     OW 6145   4.438   6.637   6.553
 1749SOL    HW1 6146   4.424   6.717   6.611
 1749SOL    HW2 6147   4.349   6.597   6.529
 1750SOL     OW 6148   5.225   1.163   2.553
 1750SOL    HW1 6149   5.188   1.098   2.619
 1750SOL    HW2 6150   5.319   1.186   2.578
 1751SOL     OW 6151   1.954   5.156   4.631
 1751SOL    HW1 6152   1.911   5.235   4.586
 1751SOL    HW2 6153   1.969   5.083   4.565
 1752SOL     OW 6154   0.055   1.938   0.756
 1752SOL    HW1 6155   0.152   1.948   0.775
 1752SOL    HW2 6156   0.004   1.934   0.842
 1753SOL     OW 6157   0.934   0.073   0.378
 1753SOL    HW1 6158   0.845   0.098   0.340
 1753SOL    HW2 6159   0.995   0.152   0.376
 1754SOL     OW 6160   3.308   3.004   1.071
 1754SOL    HW1 6161   3.306   2.904   1.068
 1754SOL    HW2 6162   3.345   3.039   0.985
 1755SOL     OW 6163   5.306   4.992   1.646
 1755SOL    HW1 6164   5.357   5.061   1.595
 1755SOL    HW2 6165   5.357   4.906   1.646
 1756SOL     OW 6166   6.319   4.949   4.238
 1756SOL    HW1 6167   6.259   4.954   4.158
 1756SOL    HW2 6168   6.271   4.986   4.317
 1757SOL     OW 6169   3.007   6.367   4.548
 1757SOL    HW1 6170   3.072   6.405   4.614
 1757SOL    HW2 6171   2.934   6.433   4.531
 1758SOL     OW 6172   2.989   1.206   3.300
 1758SOL    HW1 6173   2.995   1.290   3.246
 1758SOL    HW2 6174   2.897   1.169   3.295
 1759SOL     OW 6175   0.105   4.393   6.062
 1759SOL    HW1 6176   0.038   4.322   6.084
 1759SOL    HW2 6177   0.072   4.482   6.096
 1760SOL     OW 6178   6.104   1.561   1.639
 1760SOL    HW1 6179   6.034   1.543   1.708
 1760SOL    HW2 6180   6.194   1.539   1.678
 1761SOL     OW 6181   5.751   0.845   1.011
 1761SOL    HW1 6182   5.831   0.850   1.072
 1761SOL    HW2 6183   5.696   0.927   1.022
 1762SOL     OW 6184   6.623   2.246   5.598
 1762SOL    HW1 6185   6.722   2.251   5.616
 1762SOL    HW2 6186   6.591   2.335   5.566
 1763SOL     OW 6187   1.939   3.983   4.216
 1763SOL    HW1 6188   1.876   3.915   4.179
 1763SOL    HW2 6189   1.890   4.043   4.279
 1764SOL     OW 6190   1.448   3.091   3.096
 1764SOL    HW1 6191   1.488   3.182   3.083
 1764SOL    HW2 6192   1.514   3.031   3.140
 1765SOL     OW 6193   2.714   1.510   0.541
 1765SOL    HW1 6194   2.691   1.604   0.567
 1765SOL    HW2 6195   2.640   1.470   0.488
 1766SOL     OW 6196   5.391   3.142   5.006
 1766SOL    HW1 6197   5.409   3.218   5.069
 1766SOL    HW2 6198   5.360   3.179   4.919
 1767SOL     OW 6199   5.159   3.691   2.063
 1767SOL    HW1 6200   5.108   3.618   2.108
 1767SOL    HW2 6201   5.256   3.681   2.083
 1768SOL     OW 6202   4.158   0.318   3.548
 1768SOL    HW1 6203   4.164   0.374   3.630
 1768SOL    HW2 6204   4.220   0.240   3.556
 1769SOL     OW 6205   3.856   1.662   3.662
 1769SOL    HW1 6206   3.933   1.722   3.682
 1769SOL    HW2 6207   3.889   1.570   3.644
 1770SOL     OW 6208   1.794   5.498   5.378
 1770SOL    HW1 6209   1.852   5.515   5.457
 1770SOL    HW2 6210   1.721   5.567   5.374
 1771SOL     OW 6211   3.192   6.420   0.045
 1771SOL    HW1 6212   3.103   6.434   0.001
 1771SOL    HW2 6213   3.178   6.398   0.142
 1772SOL     OW 6214   3.607   6.830   3.839
 1772SOL    HW1 6215   3.639   6.868   3.752
 1772SOL    HW2 6216   3.547   6.753   3.821
 1773SOL     OW 6217   2.502   5.078   6.286
 1773SOL    HW1 6218   2.493   5.075   6.186
 1773SOL    HW2 6219   2.428   5.133   6.325
 1774SOL     OW 6220   3.852   5.316   2.018
 1774SOL    HW1 6221   3.882   5.261   2.096
 1774SOL    HW2 6222   3.922   5.313   1.946
 1775SOL     OW 6223   0.615   4.038   2.422
 1775SOL    HW1 6224   0.672   4.088   2.487
 1775SOL    HW2 6225   0.628   4.075   2.330
 1776SOL     OW 6226   4.392   6.207   4.438
 1776SOL    HW1 6227   4.379   6.306   4.433
 1776SOL    HW2 6228   4.306   6.163   4.461
 1777SOL     OW 6229   3.446   5.895   6.983
 1777SOL    HW1 6230   3.479   5.982   7.019
 1777SOL    HW2 6231   3.506   5.864   6.909
 1778SOL     OW 6232   4.465   3.181   5.315
 1778SOL    HW1 6233   4.394   3.111   5.307
 1778SOL    HW2 6234   4.540   3.147   5.371
 1779SOL     OW 6235   3.876   0.469   4.748
 1779SOL    HW1 6236   3.925   0.472   4.835
 1779SOL    HW2 6237   3.778   0.479   4.765
 1780SOL     OW 6238   3.400   2.916   6.206
 1780SOL    HW1 6239   3.484   2.905   6.260
 1780SOL    HW2 6240   3.332   2.965   6.261
 1781SOL     OW 6241   4.193   6.108   3.033
 1781SOL    HW1 6242   4.247   6.182   3.073
 1781SOL    HW2 6243   4.253   6.045   2.984
 1782SOL     OW 6244   3.225   1.549   3.022
 1782SOL    HW1 6245   3.228   1.560   3.122
 1782SOL    HW2 6246   3.145   1.495   2.997
 1783SOL     OW 6247   2.987   5.322   6.259
 1783SOL    HW1 6248   3.049   5.376   6.316
 1783SOL    HW2 6249   2.896   5.363   6.260
 1784SOL     OW 6250   4.093   0.919   5.747
 1784SOL    HW1 6251   4.160   0.886   5.814
 1784SOL    HW2 6252   4.019   0.853   5.740
 1785SOL     OW 6253   6.484   4.082   2.683
 1785SOL    HW1 6254   6.479   4.027   2.600
 1785SOL    HW2 6255   6.504   4.023   2.761
 1786SOL     OW 6256   2.169   2.724   6.926
 1786SOL    HW1 6257   2.146   2.731   7.023
 1786SOL    HW2 6258   2.209   2.811   6.896
 1787SOL     OW 6259   3.128   1.236   5.585
 1787SOL    HW1 6260   3.223   1.266   5.571
 1787SOL    HW2 6261   3.071   1.316   5.605
 1788SOL     OW 6262   2.220   4.699   6.402
 1788SOL    HW1 6263   2.205   4.617   6.348
 1788SOL    HW2 6264   2.251   4.674   6.494
 1789SOL     OW 6265   6.013   2.159   0.968
 1789SOL    HW1 6266   6.072   2.111   0.903
 1789SOL    HW2 6267   6.037   2.130   1.061
 1790SOL     OW 6268   4.092   6.347   3.728
 1790SOL    HW1 6269   4.121   6.340   3.823
 1790SOL    HW2 6270   4.123   6.434   3.690
 1791SOL     OW 6271   6.764   0.802   2.472
 1791SOL    HW1 6272   6.733   0.834   2.562
 1791SOL    HW2 6273   6.843   0.855   2.443
 1792SOL     OW 6274   0.125   4.002   4.808
 1792SOL    HW1 6275   0.121   3.902   4.803
 1792SOL    HW2 6276   0.214   4.030   4.845
 1793SOL     OW 6277   5.992   0.220   3.795
 1793SOL    HW1 6278   6.047   0.193   3.716
 1793SOL    HW2 6279   6.043   0.204   3.879
 1794SOL     OW 6280   5.089   5.851   5.840
 1794SOL    HW1 6281   5.046   5.850   5.750
 1794SOL    HW2 6282   5.110   5.945   5.866
 1795SOL     OW 6283   0.727   2.852   1.298
 1795SOL    HW1 6284   0.684   2.875   1.385
 1795SOL    HW2 6285   0.788   2.927   1.271
 1796SOL     OW 6286   3.027   1.236   5.896
 1796SOL    HW1 6287   3.000   1.331   5.912
 1796SOL    HW2 6288   3.054   1.194   5.983
 1797SOL     OW 6289   1.200   0.308   6.959
 1797SOL    HW1 6290   1.200   0.208   6.955
 1797SOL    HW2 6291   1.123   0.339   7.014
 1798SOL     OW 6292   4.467   2.480   4.168
 1798SOL    HW1 6293   4.403   2.475   4.091
 1798SOL    HW2 6294   4.451   2.404   4.230
 1799SOL     OW 6295   0.011   2.910   4.445
 1799SOL    HW1 6296   0.100   2.947   4.470
 1799SOL    HW2 6297   6.982   2.984   4.406
 1800SOL     OW 6298   4.379   4.061   1.389
 1800SOL    HW1 6299   4.399   4.155   1.363
 1800SOL    HW2 6300   4.403   4.046   1.485
 1801SOL     OW 6301   0.113   0.478   2.305
 1801SOL    HW1 6302   0.050   0.532   2.249
 1801SOL    HW2 6303   0.129   0.390   2.260
 1802SOL     OW 6304   5.705   5.911   4.179
 1802SOL    HW1 6305   5.706   5.900   4.080
 1802SOL    HW2 6306   5.779   5.972   4.206
 1803SOL     OW 6307   0.476   5.319   6.843
 1803SOL    HW1 6308   0.466   5.387   6.771
 1803SOL    HW2 6309   0.439   5.355   6.929
 1804SOL     OW 6310   2.534   4.113   5.328
 1804SOL    HW1 6311   2.486   4.092   5.413
 1804SOL    HW2 6312   2.483   4.075   5.251
 1805SOL     OW 6313   4.954   3.600   6.209
 1805SOL    HW1 6314   5.040   3.580   6.256
 1805SOL    HW2 6315   4.959   3.565   6.115
 1806SOL     OW 6316   0.202   0.010   6.561
 1806SOL    HW1 6317   0.180   6.945   6.590
 1806SOL    HW2 6318   0.125   0.049   6.511
 1807SOL     OW 6319   5.471   2.956   4.738
 1807SOL    HW1 6320   5.382   2.953   4.784
 1807SOL    HW2 6321   5.541   2.981   4.804
 1808SOL     OW 6322   0.026   4.759   5.675
 1808SOL    HW1 6323   0.068   4.786   5.762
 1808SOL    HW2 6324   0.097   4.727   5.612
 1809SOL     OW 6325   2.583   2.116   5.468
 1809SOL    HW1 6326   2.509   2.058   5.434
 1809SOL    HW2 6327   2.583   2.202   5.419
 1810SOL     OW 6328   2.723   0.165   4.092
 1810SOL    HW1 6329   2.800   0.164   4.156
 1810SOL    HW2 6330   2.672   0.079   4.100
 1811SOL     OW 6331   5.830   5.673   3.799
 1811SOL    HW1 6332   5.799   5.746   3.860
 1811SOL    HW2 6333   5.754   5.609   3.782
 1812SOL     OW 6334   3.918   5.826   4.975
 1812SOL    HW1 6335   3.962   5.904   4.930
 1812SOL    HW2 6336   3.831   5.855   5.014
 1813SOL     OW 6337   5.693   3.967   0.500
 1813SOL    HW1 6338   5.703   3.949   0.598
 1813SOL    HW2 6339   5.760   3.913   0.449
 1814SOL     OW 6340   4.726   0.178   1.586
 1814SOL    HW1 6341   4.817   0.155   1.621
 1814SOL    HW2 6342   4.688   0.099   1.538
 1815SOL     OW 6343   0.554   1.619   2.445
 1815SOL    HW1 6344   0.493   1.626   2.366
 1815SOL    HW2 6345   0.500   1.624   2.529
 1816SOL     OW 6346   3.169   2.916   0.779
 1816SOL    HW1 6347   3.084   2.869   0.803
 1816SOL    HW2 6348   3.247   2.856   0.796
 1817SOL     OW 6349   1.549   6.287   2.234
 1817SOL    HW1 6350   1.497   6.330   2.308
 1817SOL    HW2 6351   1.624   6.347   2.207
 1818SOL     OW 6352   1.050   0.276   3.369
 1818SOL    HW1 6353   1.056   0.368   3.331
 1818SOL    HW2 6354   0.970   0.229   3.332
 1819SOL     OW 6355   1.349   4.386   2.249
 1819SOL    HW1 6356   1.365   4.398   2.151
 1819SOL    HW2 6357   1.264   4.334   2.262
 1820SOL     OW 6358   4.615   1.436   2.176
 1820SOL    HW1 6359   4.712   1.451   2.196
 1820SOL    HW2 6360   4.563   1.441   2.261
 1821SOL     OW 6361   1.830   1.147   2.662
 1821SOL    HW1 6362   1.738   1.122   2.633
 1821SOL    HW2 6363   1.828   1.182   2.756
 1822SOL     OW 6364   3.185   2.595   1.678
 1822SOL    HW1 6365   3.090   2.622   1.695
 1822SOL    HW2 6366   3.187   2.510   1.626
 1823SOL     OW 6367   3.734   6.376   3.020
 1823SOL    HW1 6368   3.753   6.344   2.927
 1823SOL    HW2 6369   3.803   6.338   3.082
 1824SOL     OW 6370   4.165   2.441   1.281
 1824SOL    HW1 6371   4.144   2.343   1.271
 1824SOL    HW2 6372   4.116   2.493   1.211
 1825SOL     OW 6373   1.039   0.303   1.551
 1825SOL    HW1 6374   0.955   0.302   1.605
 1825SOL    HW2 6375   1.016   0.307   1.454
 1826SOL     OW 6376   3.043   1.711   1.700
 1826SOL    HW1 6377   2.995   1.770   1.635
 1826SOL    HW2 6378   3.104   1.766   1.757
 1827SOL     OW 6379   0.014   4.741   1.918
 1827SOL    HW1 6380   6.985   4.785   1.847
 1827SOL    HW2 6381   0.070   4.670   1.876
 1828SOL     OW 6382   0.948   3.032   6.916
 1828SOL    HW1 6383   0.992   3.066   6.999
 1828SOL    HW2 6384   0.853   3.010   6.936
 1829SOL     OW 6385   5.215   6.344   3.213
 1829SOL    HW1 6386   5.159   6.369   3.292
 1829SOL    HW2 6387   5.302   6.394   3.217
 1830SOL     OW 6388   4.530   0.063   3.743
 1830SOL    HW1 6389   4.567   0.007   3.817
 1830SOL    HW2 6390   4.606   0.096   3.686
 1831SOL     OW 6391   6.213   6.870   2.478
 1831SOL    HW1 6392   6.283   6.875   2.548
 1831SOL    HW2 6393   6.245   6.814   2.402
 1832SOL     OW 6394   4.458   2.494   1.272
 1832SOL    HW1 6395   4.374   2.479   1.219
 1832SOL    HW2 6396   4.440   2.560   1.344
 1833SOL     OW 6397   5.247   0.139   4.796
 1833SOL    HW1 6398   5.223   0.142   4.699
 1833SOL    HW2 6399   5.273   0.045   4.820
 1834SOL     OW 6400   3.111   3.772   0.904
 1834SOL    HW1 6401   3.179   3.705   0.932
 1834SOL    HW2 6402   3.077   3.821   0.984
 1835SOL     OW 6403   1.929   4.354   1.485
 1835SOL    HW1 6404   1.866   4.303   1.425
 1835SOL    HW2 6405   1.964   4.293   1.555
 1836SOL     OW 6406   0.038   1.673   0.749
 1836SOL    HW1 6407   0.041   1.769   0.721
 1836SOL    HW2 6408   0.011   1.667   0.845
 1837SOL     OW 6409   0.912   2.101   4.230
 1837SOL    HW1 6410   1.009   2.120   4.217
 1837SOL    HW2 6411   0.862   2.124   4.147
 1838SOL     OW 6412   6.982   2.509   3.700
 1838SOL    HW1 6413   7.014   2.579   3.637
 1838SOL    HW2 6414   6.924   2.443   3.651
 1839SOL     OW 6415   5.730   3.202   5.066
 1839SOL    HW1 6416   5.694   3.115   5.033
 1839SOL    HW2 6417   5.711   3.212   5.163
 1840SOL     OW 6418   2.513   6.071   1.142
 1840SOL    HW1 6419   2.491   6.139   1.072
 1840SOL    HW2 6420   2.596   6.099   1.190
 1841SOL     OW 6421   2.147   3.893   4.451
 1841SOL    HW1 6422   2.079   3.905   4.378
 1841SOL    HW2 6423   2.100   3.874   4.537
 1842SOL     OW 6424   0.357   5.073   1.281
 1842SOL    HW1 6425   0.347   5.165   1.242
 1842SOL    HW2 6426   0.426   5.022   1.230
 1843SOL     OW 6427   1.783   1.940   5.162
 1843SOL    HW1 6428   1.821   2.026   5.128
 1843SOL    HW2 6429   1.724   1.900   5.091
 1844SOL     OW 6430   4.023   2.110   5.048
 1844SOL    HW1 6431   4.002   2.014   5.065
 1844SOL    HW2 6432   3.977   2.168   5.115
 1845SOL     OW 6433   3.023   0.270   6.610
 1845SOL    HW1 6434   3.026   0.170   6.605
 1845SOL    HW2 6435   3.002   0.299   6.703
 1846SOL     OW 6436   4.263   2.143   0.070
 1846SOL    HW1 6437   4.189   2.088   0.107
 1846SOL    HW2 6438   4.284   2.112   7.004
 1847SOL     OW 6439   0.645   0.463   0.161
 1847SOL    HW1 6440   0.739   0.475   0.193
 1847SOL    HW2 6441   0.630   0.519   0.079
 1848SOL     OW 6442   2.259   5.926   2.790
 1848SOL    HW1 6443   2.350   5.966   2.775
 1848SOL    HW2 6444   2.269   5.832   2.821
 1849SOL     OW 6445   4.019   0.747   0.187
 1849SOL    HW1 6446   4.114   0.747   0.156
 1849SOL    HW2 6447   4.016   0.729   0.285
 1850SOL     OW 6448   5.984   1.821   3.290
 1850SOL    HW1 6449   5.981   1.742   3.351
 1850SOL    HW2 6450   5.910   1.885   3.314
 1851SOL     OW 6451   0.338   1.853   1.548
 1851SOL    HW1 6452   0.435   1.865   1.566
 1851SOL    HW2 6453   0.288   1.848   1.635
 1852SOL     OW 6454   4.697   3.866   0.700
 1852SOL    HW1 6455   4.700   3.777   0.654
 1852SOL    HW2 6456   4.720   3.938   0.635
 1853SOL     OW 6457   0.628   3.909   1.786
 1853SOL    HW1 6458   0.598   3.979   1.850
 1853SOL    HW2 6459   0.616   3.818   1.827
 1854SOL     OW 6460   2.989   5.968   4.051
 1854SOL    HW1 6461   2.979   5.988   3.953
 1854SOL    HW2 6462   2.947   5.879   4.071
 1855SOL     OW 6463   5.032   5.394   0.644
 1855SOL    HW1 6464   4.949   5.431   0.685
 1855SOL    HW2 6465   5.097   5.468   0.628
 1856SOL     OW 6466   5.454   2.391   5.306
 1856SOL    HW1 6467   5.413   2.324   5.244
 1856SOL    HW2 6468   5.541   2.424   5.266
 1857SOL     OW 6469   4.439   1.092   4.342
 1857SOL    HW1 6470   4.407   1.063   4.252
 1857SOL    HW2 6471   4.436   1.014   4.405
 1858SOL     OW 6472   5.591   3.412   4.206
 1858SOL    HW1 6473   5.676   3.391   4.158
 1858SOL    HW2 6474   5.528   3.335   4.196
 1859SOL     OW 6475   4.379   2.324   3.645
 1859SOL    HW1 6476   4.410   2.410   3.685
 1859SOL    HW2 6477   4.383   2.330   3.545
 1860SOL     OW 6478   6.746   1.321   3.855
 1860SOL    HW1 6479   6.669   1.260   3.868
 1860SOL    HW2 6480   6.805   1.320   3.936
 1861SOL     OW 6481   4.688   6.417   2.039
 1861SOL    HW1 6482   4.627   6.437   2.116
 1861SOL    HW2 6483   4.741   6.335   2.058
 1862SOL     OW 6484   2.042   0.659   7.006
 1862SOL    HW1 6485   2.098   0.607   6.942
 1862SOL    HW2 6486   2.102   0.711   0.041
 1863SOL     OW 6487   2.624   2.412   0.605
 1863SOL    HW1 6488   2.657   2.354   0.531
 1863SOL    HW2 6489   2.567   2.358   0.667
 1864SOL     OW 6490   0.638   6.734   4.905
 1864SOL    HW1 6491   0.587   6.735   4.819
 1864SOL    HW2 6492   0.576   6.755   4.981
 1865SOL     OW 6493   3.527   1.711   5.646
 1865SOL    HW1 6494   3.480   1.683   5.563
 1865SOL    HW2 6495   3.533   1.811   5.650
 1866SOL     OW 6496   4.597   4.542   1.868
 1866SOL    HW1 6497   4.634   4.601   1.940
 1866SOL    HW2 6498   4.559   4.459   1.909
 1867SOL     OW 6499   0.452   4.046   0.140
 1867SOL    HW1 6500   0.358   4.019   0.161
 1867SOL    HW2 6501   0.515   3.979   0.180
 1868SOL     OW 6502   5.962   4.439   6.742
 1868SOL    HW1 6503   6.031   4.511   6.744
 1868SOL    HW2 6504   5.921   4.430   6.832
 1869SOL     OW 6505   6.602   2.256   5.060
 1869SOL    HW1 6506   6.610   2.157   5.049
 1869SOL    HW2 6507   6.691   2.296   5.080
 1870SOL     OW 6508   2.035   4.738   5.854
 1870SOL    HW1 6509   2.038   4.701   5.947
 1870SOL    HW2 6510   1.946   4.718   5.812
 1871SOL     OW 6511   2.028   7.012   1.005
 1871SOL    HW1 6512   2.001   6.917   1.016
 1871SOL    HW2 6513   1.947   0.041   0.986
 1872SOL     OW 6514   2.969   4.517   0.444
 1872SOL    HW1 6515   3.048   4.563   0.485
 1872SOL    HW2 6516   2.959   4.547   0.349
 1873SOL     OW 6517   3.964   0.768   5.542
 1873SOL    HW1 6518   3.864   0.759   5.548
 1873SOL    HW2 6519   3.989   0.796   5.449
 1874SOL     OW 6520   2.305   1.688   2.075
 1874SOL    HW1 6521   2.402   1.704   2.059
 1874SOL    HW2 6522   2.253   1.713   1.994
 1875SOL     OW 6523   0.649   7.015   6.200
 1875SOL    HW1 6524   0.721   6.950   6.176
 1875SOL    HW2 6525   0.683   0.050   6.270
 1876SOL     OW 6526   3.025   6.994   4.913
 1876SOL    HW1 6527   2.931   6.962   4.927
 1876SOL    HW2 6528   3.026   0.035   4.841
 1877SOL     OW 6529   0.621   0.333   4.112
 1877SOL    HW1 6530   0.658   0.312   4.021
 1877SOL    HW2 6531   0.669   0.280   4.181
 1878SOL     OW 6532   0.101   1.773   3.977
 1878SOL    HW1 6533   0.035   1.771   4.053
 1878SOL    HW2 6534   0.052   1.787   3.891
 1879SOL     OW 6535   1.470   3.308   4.317
 1879SOL    HW1 6536   1.516   3.395   4.337
 1879SOL    HW2 6537   1.372   3.324   4.308
 1880SOL     OW 6538   6.730   1.686   4.933
 1880SOL    HW1 6539   6.784   1.767   4.910
 1880SOL    HW2 6540   6.672   1.706   5.012
 1881SOL     OW 6541   6.253   1.924   1.114
 1881SOL    HW1 6542   6.204   1.995   1.164
 1881SOL    HW2 6543   6.244   1.940   1.015
 1882SOL     OW 6544   1.399   4.075   6.597
 1882SOL    HW1 6545   1.434   4.135   6.669
 1882SOL    HW2 6546   1.468   4.065   6.526
 1883SOL     OW 6547   6.543   2.363   2.242
 1883SOL    HW1 6548   6.492   2.280   2.264
 1883SOL    HW2 6549   6.618   2.373   2.307
 1884SOL     OW 6550   0.925   1.335   0.727
 1884SOL    HW1 6551   0.927   1.295   0.819
 1884SOL    HW2 6552   0.995   1.291   0.670
 1885SOL     OW 6553   2.003   1.631   5.820
 1885SOL    HW1 6554   2.031   1.627   5.724
 1885SOL    HW2 6555   2.083   1.616   5.878
 1886SOL     OW 6556   2.285   7.023   2.285
 1886SOL    HW1 6557   2.347   6.950   2.315
 1886SOL    HW2 6558   2.234   0.030   2.363
 1887SOL     OW 6559   0.799   5.540   6.157
 1887SOL    HW1 6560   0.779   5.598   6.236
 1887SOL    HW2 6561   0.726   5.548   6.090
 1888SOL     OW 6562   3.170   2.200   0.288
 1888SOL    HW1 6563   3.093   2.262   0.294
 1888SOL    HW2 6564   3.138   2.107   0.267
 1889SOL     OW 6565   0.891   3.719   4.411
 1889SOL    HW1 6566   0.810   3.752   4.461
 1889SOL    HW2 6567   0.884   3.746   4.315
 1890SOL     OW 6568   0.787   5.468   4.307
 1890SOL    HW1 6569   0.822   5.378   4.333
 1890SOL    HW2 6570   0.708   5.456   4.247
 1891SOL     OW 6571   3.839   2.898   1.872
 1891SOL    HW1 6572   3.881   2.968   1.930
 1891SOL    HW2 6573   3.759   2.860   1.917
 1892SOL     OW 6574   6.874   0.395   1.732
 1892SOL    HW1 6575   6.793   0.396   1.674
 1892SOL    HW2 6576   6.920   0.307   1.722
 1893SOL     OW 6577   3.698   2.898   2.313
 1893SOL    HW1 6578   3.666   2.826   2.251
 1893SOL    HW2 6579   3.791   2.924   2.289
 1894SOL     OW 6580   3.427   3.851   4.196
 1894SOL    HW1 6581   3.362   3.917   4.158
 1894SOL    HW2 6582   3.516   3.863   4.152
 1895SOL     OW 6583   4.318   0.531   0.945
 1895SOL    HW1 6584   4.327   0.620   0.990
 1895SOL    HW2 6585   4.323   0.543   0.846
 1896SOL     OW 6586   6.383   1.475   0.880
 1896SOL    HW1 6587   6.481   1.463   0.864
 1896SOL    HW2 6588   6.369   1.535   0.958
 1897SOL     OW 6589   1.416   5.494   2.246
 1897SOL    HW1 6590   1.444   5.578   2.291
 1897SOL    HW2 6591   1.497   5.444   2.214
 1898SOL     OW 6592   2.144   4.922   2.815
 1898SOL    HW1 6593   2.064   4.941   2.759
 1898SOL    HW2 6594   2.218   4.888   2.757
 1899SOL     OW 6595   0.441   0.465   1.575
 1899SOL    HW1 6596   0.345   0.452   1.600
 1899SOL    HW2 6597   0.461   0.563   1.571
 1900SOL     OW 6598   2.692   0.126   6.999
 1900SOL    HW1 6599   2.631   0.202   7.021
 1900SOL    HW2 6600   2.762   0.118   0.042
 1901SOL     OW 6601   2.390   3.019   1.176
 1901SOL    HW1 6602   2.322   3.064   1.118
 1901SOL    HW2 6603   2.460   2.978   1.119
 1902SOL     OW 6604   2.685   0.436   4.785
 1902SOL    HW1 6605   2.750   0.475   4.851
 1902SOL    HW2 6606   2.706   0.470   4.694
 1903SOL     OW 6607   0.519   3.142   3.532
 1903SOL    HW1 6608   0.599   3.201   3.530
 1903SOL    HW2 6609   0.540   3.055   3.488
 1904SOL     OW 6610   5.780   5.130   2.674
 1904SOL    HW1 6611   5.837   5.051   2.699
 1904SOL    HW2 6612   5.696   5.097   2.630
 1905SOL     OW 6613   0.819   0.412   3.629
 1905SOL    HW1 6614   0.865   0.493   3.665
 1905SOL    HW2 6615   0.726   0.436   3.601
 1906SOL     OW 6616   2.915   0.584   5.935
 1906SOL    HW1 6617   2.897   0.524   6.012
 1906SOL    HW2 6618   3.012   0.582   5.913
 1907SOL     OW 6619   5.025   2.575   0.716
 1907SOL    HW1 6620   4.928   2.572   0.693
 1907SOL    HW2 6621   5.057   2.484   0.740
 1908SOL     OW 6622   4.019   6.668   6.943
 1908SOL    HW1 6623   4.001   6.608   7.021
 1908SOL    HW2 6624   3.965   6.751   6.952
 1909SOL     OW 6625   0.009   3.532   4.372
 1909SOL    HW1 6626   0.070   3.460   4.408
 1909SOL    HW2 6627   6.967   3.490   4.314
 1910SOL     OW 6628   6.520   5.977   5.803
 1910SOL    HW1 6629   6.590   6.027   5.752
 1910SOL    HW2 6630   6.481   5.906   5.745
 1911SOL     OW 6631   6.832   4.762   4.152
 1911SOL    HW1 6632   6.816   4.709   4.235
 1911SOL    HW2 6633   6.894   4.838   4.173
 1912SOL     OW 6634   2.583   4.997   2.725
 1912SOL    HW1 6635   2.513   5.062   2.755
 1912SOL    HW2 6636   2.546   4.905   2.730
 1913SOL     OW 6637   2.067   5.579   4.938
 1913SOL    HW1 6638   2.146   5.546   4.887
 1913SOL    HW2 6639   2.097   5.612   5.028
 1914SOL     OW 6640   2.879   4.113   5.953
 1914SOL    HW1 6641   2.917   4.124   5.862
 1914SOL    HW2 6642   2.836   4.199   5.982
 1915SOL     OW 6643   4.157   2.898   6.179
 1915SOL    HW1 6644   4.093   2.975   6.188
 1915SOL    HW2 6645   4.250   2.930   6.197
 1916SOL     OW 6646   3.732   0.033   1.101
 1916SOL    HW1 6647   3.671   0.111   1.111
 1916SOL    HW2 6648   3.800   0.054   1.030
 1917SOL     OW 6649   2.613   4.602   0.513
 1917SOL    HW1 6650   2.633   4.565   0.604
 1917SOL    HW2 6651   2.640   4.536   0.444
 1918SOL     OW 6652   1.098   0.893   4.805
 1918SOL    HW1 6653   1.104   0.819   4.737
 1918SOL    HW2 6654   1.071   0.855   4.893
 1919SOL     OW 6655   1.562   2.365   1.369
 1919SOL    HW1 6656   1.477   2.313   1.365
 1919SOL    HW2 6657   1.545   2.458   1.338
 1920SOL     OW 6658   5.698   2.453   1.916
 1920SOL    HW1 6659   5.707   2.359   1.948
 1920SOL    HW2 6660   5.768   2.472   1.847
 1921SOL     OW 6661   1.408   2.572   0.166
 1921SOL    HW1 6662   1.359   2.513   0.230
 1921SOL    HW2 6663   1.408   2.666   0.201
 1922SOL     OW 6664   3.170   3.252   2.103
 1922SOL    HW1 6665   3.209   3.159   2.100
 1922SOL    HW2 6666   3.174   3.293   2.012
 1923SOL     OW 6667   5.325   0.346   6.140
 1923SOL    HW1 6668   5.354   0.253   6.161
 1923SOL    HW2 6669   5.251   0.373   6.202
 1924SOL     OW 6670   4.311   0.308   1.083
 1924SOL    HW1 6671   4.403   0.277   1.058
 1924SOL    HW2 6672   4.289   0.392   1.033
 1925SOL     OW 6673   1.283   4.291   1.374
 1925SOL    HW1 6674   1.294   4.294   1.473
 1925SOL    HW2 6675   1.196   4.335   1.349
 1926SOL     OW 6676   3.770   0.187   1.757
 1926SOL    HW1 6677   3.796   0.246   1.834
 1926SOL    HW2 6678   3.832   0.108   1.754
 1927SOL     OW 6679   2.412   4.555   1.360
 1927SOL    HW1 6680   2.320   4.518   1.377
 1927SOL    HW2 6681   2.433   4.546   1.262
 1928SOL     OW 6682   4.678   4.305   4.149
 1928SOL    HW1 6683   4.595   4.261   4.114
 1928SOL    HW2 6684   4.678   4.401   4.123
 1929SOL     OW 6685   3.133   1.066   2.564
 1929SOL    HW1 6686   3.191   1.024   2.493
 1929SOL    HW2 6687   3.131   1.007   2.644
 1930SOL     OW 6688   4.706   3.305   6.519
 1930SOL    HW1 6689   4.633   3.284   6.585
 1930SOL    HW2 6690   4.668   3.358   6.443
 1931SOL     OW 6691   0.977   1.551   6.029
 1931SOL    HW1 6692   0.917   1.630   6.015
 1931SOL    HW2 6693   0.941   1.473   5.979
 1932SOL     OW 6694   4.453   2.184   3.172
 1932SOL    HW1 6695   4.399   2.100   3.170
 1932SOL    HW2 6696   4.546   2.163   3.202
 1933SOL     OW 6697   0.551   2.084   0.192
 1933SOL    HW1 6698   0.559   2.172   0.239
 1933SOL    HW2 6699   0.614   2.018   0.234
 1934SOL     OW 6700   0.331   0.543   5.060
 1934SOL    HW1 6701   0.351   0.461   5.005
 1934SOL    HW2 6702   0.248   0.586   5.026
 1935SOL     OW 6703   5.132   4.640   3.261
 1935SOL    HW1 6704   5.110   4.563   3.321
 1935SOL    HW2 6705   5.214   4.619   3.208
 1936SOL     OW 6706   5.424   3.304   4.688
 1936SOL    HW1 6707   5.360   3.380   4.676
 1936SOL    HW2 6708   5.501   3.334   4.743
 1937SOL     OW 6709   4.914   5.453   6.746
 1937SOL    HW1 6710   4.844   5.394   6.785
 1937SOL    HW2 6711   4.974   5.486   6.818
 1938SOL     OW 6712   0.916   2.163   6.685
 1938SOL    HW1 6713   0.960   2.252   6.676
 1938SOL    HW2 6714   0.817   2.173   6.673
 1939SOL     OW 6715   0.974   5.671   4.962
 1939SOL    HW1 6716   1.013   5.626   5.042
 1939SOL    HW2 6717   0.891   5.623   4.934
 1940SOL     OW 6718   6.018   4.971   1.445
 1940SOL    HW1 6719   6.082   5.039   1.482
 1940SOL    HW2 6720   5.967   4.929   1.521
 1941SOL     OW 6721   0.580   2.882   3.856
 1941SOL    HW1 6722   0.644   2.870   3.933
 1941SOL    HW2 6723   0.630   2.919   3.778
 1942SOL     OW 6724   5.439   3.261   2.596
 1942SOL    HW1 6725   5.422   3.247   2.694
 1942SOL    HW2 6726   5.353   3.287   2.551
 1943SOL     OW 6727   1.470   1.187   2.311
 1943SOL    HW1 6728   1.379   1.154   2.338
 1943SOL    HW2 6729   1.481   1.281   2.344
 1944SOL     OW 6730   0.477   3.163   0.793
 1944SOL    HW1 6731   0.411   3.088   0.793
 1944SOL    HW2 6732   0.553   3.140   0.731
 1945SOL     OW 6733   3.988   6.648   0.682
 1945SOL    HW1 6734   3.930   6.577   0.642
 1945SOL    HW2 6735   4.072   6.606   0.717
 1946SOL     OW 6736   6.928   6.106   1.367
 1946SOL    HW1 6737   6.902   6.181   1.428
 1946SOL    HW2 6738   6.989   6.044   1.415
 1947SOL     OW 6739   5.522   3.887   3.213
 1947SOL    HW1 6740   5.486   3.871   3.306
 1947SOL    HW2 6741   5.514   3.984   3.191
 1948SOL     OW 6742   5.749   3.366   3.005
 1948SOL    HW1 6743   5.757   3.340   2.908
 1948SOL    HW2 6744   5.666   3.421   3.017
 1949SOL     OW 6745   3.939   4.894   0.610
 1949SOL    HW1 6746   3.941   4.825   0.538
 1949SOL    HW2 6747   3.918   4.983   0.571
 1950SOL     OW 6748   3.509   4.090   3.854
 1950SOL    HW1 6749   3.574   4.102   3.779
 1950SOL    HW2 6750   3.417   4.075   3.817
 1951SOL     OW 6751   6.476   4.867   5.744
 1951SOL    HW1 6752   6.573   4.892   5.737
 1951SOL    HW2 6753   6.427   4.937   5.796
 1952SOL     OW 6754   5.480   3.876   0.301
 1952SOL    HW1 6755   5.538   3.879   0.382
 1952SOL    HW2 6756   5.413   3.802   0.311
 1953SOL     OW 6757   0.635   1.269   6.162
 1953SOL    HW1 6758   0.622   1.353   6.214
 1953SOL    HW2 6759   0.728   1.266   6.125
 1954SOL     OW 6760   3.512   6.785   1.443
 1954SOL    HW1 6761   3.501   6.714   1.513
 1954SOL    HW2 6762   3.527   6.874   1.488
 1955SOL     OW 6763   1.131   1.748   2.073
 1955SOL    HW1 6764   1.077   1.793   2.002
 1955SOL    HW2 6765   1.088   1.660   2.097
 1956SOL     OW 6766   6.255   0.866   1.750
 1956SOL    HW1 6767   6.181   0.912   1.700
 1956SOL    HW2 6768   6.233   0.866   1.848
 1957SOL     OW 6769   5.246   2.419   3.894
 1957SOL    HW1 6770   5.259   2.380   3.803
 1957SOL    HW2 6771   5.312   2.493   3.908
 1958SOL     OW 6772   4.633   1.660   0.705
 1958SOL    HW1 6773   4.656   1.758   0.701
 1958SOL    HW2 6774   4.542   1.646   0.666
 1959SOL     OW 6775   6.602   0.178   3.766
 1959SOL    HW1 6776   6.563   0.159   3.676
 1959SOL    HW2 6777   6.664   0.104   3.792
 1960SOL     OW 6778   5.751   3.293   2.751
 1960SOL    HW1 6779   5.844   3.257   2.764
 1960SOL    HW2 6780   5.698   3.228   2.697
 1961SOL     OW 6781   6.510   4.181   5.368
 1961SOL    HW1 6782   6.498   4.107   5.301
 1961SOL    HW2 6783   6.435   4.178   5.434
 1962SOL     OW 6784   1.131   6.816   2.905
 1962SOL    HW1 6785   1.084   6.782   2.823
 1962SOL    HW2 6786   1.076   6.794   2.986
 1963SOL     OW 6787   0.943   1.756   1.675
 1963SOL    HW1 6788   0.932   1.787   1.580
 1963SOL    HW2 6789   1.026   1.701   1.682
 1964SOL     OW 6790   5.290   4.478   1.808
 1964SOL    HW1 6791   5.222   4.445   1.743
 1964SOL    HW2 6792   5.369   4.417   1.809
 1965SOL     OW 6793   0.224   4.736   4.201
 1965SOL    HW1 6794   0.180   4.808   4.147
 1965SOL    HW2 6795   0.317   4.766   4.227
 1966SOL     OW 6796   1.735   4.683   0.919
 1966SOL    HW1 6797   1.805   4.652   0.983
 1966SOL    HW2 6798   1.731   4.783   0.919
 1967SOL     OW 6799   6.357   2.788   3.247
 1967SOL    HW1 6800   6.333   2.792   3.344
 1967SOL    HW2 6801   6.453   2.813   3.235
 1968SOL     OW 6802   2.145   1.350   5.568
 1968SOL    HW1 6803   2.075   1.291   5.608
 1968SOL    HW2 6804   2.113   1.445   5.571
 1969SOL     OW 6805   2.787   6.789   0.768
 1969SOL    HW1 6806   2.704   6.784   0.712
 1969SOL    HW2 6807   2.762   6.804   0.863
 1970SOL     OW 6808   6.313   5.710   5.029
 1970SOL    HW1 6809   6.306   5.733   4.932
 1970SOL    HW2 6810   6.302   5.612   5.041
 1971SOL     OW 6811   1.654   6.817   5.472
 1971SOL    HW1 6812   1.743   6.804   5.516
 1971SOL    HW2 6813   1.657   6.900   5.416
 1972SOL     OW 6814   6.225   2.806   1.576
 1972SOL    HW1 6815   6.239   2.764   1.486
 1972SOL    HW2 6816   6.249   2.739   1.647
 1973SOL     OW 6817   2.045   4.172   0.802
 1973SOL    HW1 6818   2.069   4.207   0.712
 1973SOL    HW2 6819   2.117   4.109   0.834
 1974SOL     OW 6820   3.760   6.454   5.040
 1974SOL    HW1 6821   3.799   6.399   4.966
 1974SOL    HW2 6822   3.796   6.422   5.128
 1975SOL     OW 6823   1.546   3.417   3.066
 1975SOL    HW1 6824   1.571   3.452   3.157
 1975SOL    HW2 6825   1.625   3.370   3.027
 1976SOL     OW 6826   6.862   0.236   6.145
 1976SOL    HW1 6827   6.789   0.281   6.094
 1976SOL    HW2 6828   6.824   0.192   6.226
 1977SOL     OW 6829   1.783   4.202   6.650
 1977SOL    HW1 6830   1.727   4.130   6.608
 1977SOL    HW2 6831   1.802   4.273   6.583
 1978SOL     OW 6832   2.457   6.803   2.330
 1978SOL    HW1 6833   2.449   6.731   2.262
 1978SOL    HW2 6834   2.554   6.822   2.347
 1979SOL     OW 6835   6.115   5.569   6.760
 1979SOL    HW1 6836   6.097   5.473   6.780
 1979SOL    HW2 6837   6.036   5.624   6.785
 1980SOL     OW 6838   3.016   1.646   2.095
 1980SOL    HW1 6839   3.067   1.732   2.100
 1980SOL    HW2 6840   2.949   1.652   2.021
 1981SOL     OW 6841   4.639   2.431   3.240
 1981SOL    HW1 6842   4.693   2.347   3.245
 1981SOL    HW2 6843   4.700   2.510   3.228
 1982SOL     OW 6844   6.710   2.828   3.767
 1982SOL    HW1 6845   6.803   2.854   3.791
 1982SOL    HW2 6846   6.652   2.910   3.765
 1983SOL     OW 6847   6.933   0.178   1.137
 1983SOL    HW1 6848   6.953   0.245   1.209
 1983SOL    HW2 6849   6.998   0.103   1.143
 1984SOL     OW 6850   6.030   3.102   5.325
 1984SOL    HW1 6851   6.122   3.091   5.361
 1984SOL    HW2 6852   6.027   3.074   5.229
 1985SOL     OW 6853   6.309   4.626   2.088
 1985SOL    HW1 6854   6.352   4.698   2.033
 1985SOL    HW2 6855   6.379   4.564   2.122
 1986SOL     OW 6856   3.227   1.892   0.555
 1986SOL    HW1 6857   3.277   1.909   0.469
 1986SOL    HW2 6858   3.240   1.970   0.616
 1987SOL     OW 6859   1.703   0.248   3.131
 1987SOL    HW1 6860   1.689   0.325   3.193
 1987SOL    HW2 6861   1.614   0.214   3.099
 1988SOL     OW 6862   0.050   2.070   1.476
 1988SOL    HW1 6863   6.978   2.084   1.480
 1988SOL    HW2 6864   0.093   2.119   1.552
 1989SOL     OW 6865   3.009   5.014   5.303
 1989SOL    HW1 6866   2.938   5.054   5.360
 1989SOL    HW2 6867   2.989   4.917   5.288
 1990SOL     OW 6868   3.552   0.438   0.253
 1990SOL    HW1 6869   3.456   0.465   0.253
 1990SOL    HW2 6870   3.564   0.358   0.193
 1991SOL     OW 6871   3.105   5.386   0.512
 1991SOL    HW1 6872   3.082   5.400   0.609
 1991SOL    HW2 6873   3.204   5.380   0.502
 1992SOL     OW 6874   0.519   6.383   0.395
 1992SOL    HW1 6875   0.465   6.299   0.390
 1992SOL    HW2 6876   0.467   6.459   0.357
 1993SOL     OW 6877   2.086   3.427   4.605
 1993SOL    HW1 6878   1.996   3.467   4.624
 1993SOL    HW2 6879   2.111   3.445   4.509
 1994SOL     OW 6880   3.400   3.543   7.022
 1994SOL    HW1 6881   3.354   3.553   6.934
 1994SOL    HW2 6882   3.418   3.633   0.034
 1995SOL     OW 6883   5.553   2.571   4.559
 1995SOL    HW1 6884   5.564   2.642   4.628
 1995SOL    HW2 6885   5.541   2.482   4.604
 1996SOL     OW 6886   3.628   1.501   0.816
 1996SOL    HW1 6887   3.697   1.520   0.886
 1996SOL    HW2 6888   3.657   1.423   0.760
 1997SOL     OW 6889   3.231   1.225   3.483
 1997SOL    HW1 6890   3.226   1.132   3.521
 1997SOL    HW2 6891   3.168   1.285   3.533
 1998SOL     OW 6892   1.144   3.344   1.663
 1998SOL    HW1 6893   1.195   3.262   1.639
 1998SOL    HW2 6894   1.115   3.339   1.758
 1999SOL     OW 6895   0.971   6.907   5.137
 1999SOL    HW1 6896   1.053   6.962   5.119
 1999SOL    HW2 6897   0.903   6.963   5.185
 2000SOL     OW 6898   3.684   3.775   6.830
 2000SOL    HW1 6899   3.668   3.685   6.870
 2000SOL    HW2 6900   3.637   3.845   6.884
 2001SOL     OW 6901   2.157   1.370   6.510
 2001SOL    HW1 6902   2.185   1.294   6.450
 2001SOL    HW2 6903   2.235   1.400   6.564
 2002SOL     OW 6904   6.646   5.332   1.102
 2002SOL    HW1 6905   6.572   5.265   1.110
 2002SOL    HW2 6906   6.668   5.346   1.005
 2003SOL     OW 6907   6.311   5.092   2.355
 2003SOL    HW1 6908   6.403   5.060   2.375
 2003SOL    HW2 6909   6.313   5.191   2.341
 2004SOL     OW 6910   3.493   0.788   3.357
 2004SOL    HW1 6911   3.588   0.821   3.355
 2004SOL    HW2 6912   3.490   0.695   3.319
 2005SOL     OW 6913   1.022   6.157   0.616
 2005SOL    HW1 6914   1.045   6.071   0.570
 2005SOL    HW2 6915   1.058   6.233   0.563
 2006SOL     OW 6916   5.114   6.849   3.134
 2006SOL    HW1 6917   5.019   6.818   3.132
 2006SOL    HW2 6918   5.117   6.948   3.136
 2007SOL     OW 6919   5.302   4.354   0.567
 2007SOL    HW1 6920   5.288   4.321   0.660
 2007SOL    HW2 6921   5.325   4.278   0.507
 2008SOL     OW 6922   2.187   4.036   3.609
 2008SOL    HW1 6923   2.203   4.023   3.707
 2008SOL    HW2 6924   2.252   4.103   3.573
 2009SOL     OW 6925   6.796   6.065   2.153
 2009SOL    HW1 6926   6.839   6.023   2.233
 2009SOL    HW2 6927   6.868   6.093   2.088
 2010SOL     OW 6928   1.563   2.512   1.682
 2010SOL    HW1 6929   1.660   2.504   1.704
 2010SOL    HW2 6930   1.552   2.572   1.602
 2011SOL     OW 6931   0.171   6.120   5.867
 2011SOL    HW1 6932   0.123   6.177   5.800
 2011SOL    HW2 6933   0.137   6.027   5.862
 2012SOL     OW 6934   1.393   3.066   2.838
 2012SOL    HW1 6935   1.346   3.151   2.816
 2012SOL    HW2 6936   1.406   3.059   2.937
 2013SOL     OW 6937   0.622   3.315   3.268
 2013SOL    HW1 6938   0.684   3.311   3.347
 2013SOL    HW2 6939   0.545   3.375   3.289
 2014SOL     OW 6940   2.952   0.461   4.006
 2014SOL    HW1 6941   2.873   0.450   4.066
 2014SOL    HW2 6942   3.020   0.391   4.028
 2015SOL     OW 6943   3.864   0.686   1.612
 2015SOL    HW1 6944   3.807   0.667   1.532
 2015SOL    HW2 6945   3.960   0.696   1.583
 2016SOL     OW 6946   1.836   7.012   6.282
 2016SOL    HW1 6947   1.791   6.972   6.361
 2016SOL    HW2 6948   1.784   6.991   6.199
 2017SOL     OW 6949   3.939   0.145   2.798
 2017SOL    HW1 6950   3.856   0.196   2.777
 2017SOL    HW2 6951   3.915   0.057   2.838
 2018SOL     OW 6952   0.836   1.412   3.143
 2018SOL    HW1 6953   0.751   1.404   3.093
 2018SOL    HW2 6954   0.822   1.467   3.226
 2019SOL     OW 6955   6.157   4.985   6.241
 2019SOL    HW1 6956   6.113   5.001   6.329
 2019SOL    HW2 6957   6.098   5.019   6.168
 2020SOL     OW 6958   1.635   6.516   6.246
 2020SOL    HW1 6959   1.581   6.485   6.324
 2020SOL    HW2 6960   1.616   6.613   6.229
 2021SOL     OW 6961   6.068   6.123   3.652
 2021SOL    HW1 6962   6.026   6.038   3.621
 2021SOL    HW2 6963   6.044   6.197   3.590
 2022SOL     OW 6964   2.248   4.455   4.990
 2022SOL    HW1 6965   2.324   4.501   5.035
 2022SOL    HW2 6966   2.283   4.389   4.924
 2023SOL     OW 6967   0.165   6.846   6.852
 2023SOL    HW1 6968   0.112   6.929   6.865
 2023SOL    HW2 6969   0.251   6.853   6.903
 2024SOL     OW 6970   0.790   5.456   4.618
 2024SOL    HW1 6971   0.832   5.491   4.534
 2024SOL    HW2 6972   0.817   5.513   4.695
 2025SOL     OW 6973   2.440   0.344   4.834
 2025SOL    HW1 6974   2.524   0.393   4.808
 2025SOL    HW2 6975   2.389   0.399   4.900
 2026SOL     OW 6976   6.386   1.146   6.002
 2026SOL    HW1 6977   6.415   1.114   5.912
 2026SOL    HW2 6978   6.286   1.146   6.007
 2027SOL     OW 6979   0.327   6.172   2.574
 2027SOL    HW1 6980   0.281   6.124   2.499
 2027SOL    HW2 6981   0.274   6.253   2.600
 2028SOL     OW 6982   4.174   5.783   2.770
 2028SOL    HW1 6983   4.143   5.871   2.807
 2028SOL    HW2 6984   4.266   5.794   2.733
 2029SOL     OW 6985   6.537   2.961   6.088
 2029SOL    HW1 6986   6.612   3.013   6.129
 2029SOL    HW2 6987   6.488   3.019   6.023
 2030SOL     OW 6988   2.388   6.060   3.315
 2030SOL    HW1 6989   2.472   6.062   3.370
 2030SOL    HW2 6990   2.411   6.032   3.222
 2031SOL     OW 6991   6.331   5.403   3.426
 2031SOL    HW1 6992   6.285   5.347   3.357
 2031SOL    HW2 6993   6.424   5.371   3.439
 2032SOL     OW 6994   3.023   1.763   6.346
 2032SOL    HW1 6995   3.096   1.697   6.361
 2032SOL    HW2 6996   3.061   1.846   6.305
 2033SOL     OW 6997   1.986   1.727   1.297
 2033SOL    HW1 6998   1.891   1.732   1.327
 2033SOL    HW2 6999   2.046   1.751   1.373
 2034SOL     OW 7000   6.998   4.062   6.145
 2034SOL    HW1 7001   0.048   4.111   6.183
 2034SOL    HW2 7002   6.920   4.124   6.136
 2035SOL     OW 7003   5.781   6.929   2.411
 2035SOL    HW1 7004   5.745   6.837   2.431
 2035SOL    HW2 7005   5.734   6.996   2.468
 2036SOL     OW 7006   0.902   3.885   2.469
 2036SOL    HW1 7007   0.857   3.813   2.416
 2036SOL    HW2 7008   0.834   3.951   2.500
 2037SOL     OW 7009   0.452   3.107   6.482
 2037SOL    HW1 7010   0.471   3.013   6.509
 2037SOL    HW2 7011   0.538   3.156   6.470
 2038SOL     OW 7012   1.986   1.309   0.475
 2038SOL    HW1 7013   2.010   1.363   0.555
 2038SOL    HW2 7014   2.044   1.335   0.398
 2039SOL     OW 7015   6.393   5.944   2.291
 2039SOL    HW1 7016   6.461   5.906   2.228
 2039SOL    HW2 7017   6.302   5.932   2.252
 2040SOL     OW 7018   2.132   2.979   0.111
 2040SOL    HW1 7019   2.084   2.892   0.108
 2040SOL    HW2 7020   2.186   2.984   0.195
 2041SOL     OW 7021   1.862   0.239   6.388
 2041SOL    HW1 7022   1.770   0.278   6.378
 2041SOL    HW2 7023   1.861   0.144   6.357
 2042SOL     OW 7024   4.938   0.958   5.375
 2042SOL    HW1 7025   4.933   0.859   5.357
 2042SOL    HW2 7026   4.854   1.002   5.343
 2043SOL     OW 7027   6.285   4.153   1.032
 2043SOL    HW1 7028   6.293   4.080   0.964
 2043SOL    HW2 7029   6.213   4.217   1.005
 2044SOL     OW 7030   4.971   0.537   0.689
 2044SOL    HW1 7031   4.884   0.584   0.673
 2044SOL    HW2 7032   5.011   0.510   0.602
 2045SOL     OW 7033   1.787   6.344   6.588
 2045SOL    HW1 7034   1.819   6.432   6.623
 2045SOL    HW2 7035   1.821   6.331   6.495
 2046SOL     OW 7036   1.125   2.613   5.017
 2046SOL    HW1 7037   1.074   2.584   4.936
 2046SOL    HW2 7038   1.212   2.564   5.021
 2047SOL     OW 7039   6.657   1.318   6.781
 2047SOL    HW1 7040   6.655   1.340   6.879
 2047SOL    HW2 7041   6.612   1.391   6.730
 2048SOL     OW 7042   1.102   1.507   4.369
 2048SOL    HW1 7043   1.024   1.567   4.387
 2048SOL    HW2 7044   1.180   1.562   4.339
 2049SOL     OW 7045   4.858   1.692   4.687
 2049SOL    HW1 7046   4.805   1.703   4.603
 2049SOL    HW2 7047   4.929   1.763   4.691
 2050SOL     OW 7048   0.662   1.097   4.020
 2050SOL    HW1 7049   0.580   1.146   4.047
 2050SOL    HW2 7050   0.701   1.051   4.100
 2051SOL     OW 7051   3.357   6.004   0.968
 2051SOL    HW1 7052   3.436   5.960   0.925
 2051SOL    HW2 7053   3.384   6.093   1.003
 2052SOL     OW 7054   1.401   4.172   6.896
 2052SOL    HW1 7055   1.499   4.193   6.902
 2052SOL    HW2 7056   1.360   4.182   6.987
 2053SOL     OW 7057   1.170   5.106   3.859
 2053SOL    HW1 7058   1.077   5.081   3.831
 2053SOL    HW2 7059   1.187   5.071   3.952
 2054SOL     OW 7060   3.519   3.218   3.474
 2054SOL    HW1 7061   3.583   3.157   3.520
 2054SOL    HW2 7062   3.437   3.167   3.449
 2055SOL     OW 7063   2.587   2.203   5.734
 2055SOL    HW1 7064   2.588   2.169   5.640
 2055SOL    HW2 7065   2.599   2.302   5.733
 2056SOL     OW 7066   4.225   4.755   1.213
 2056SOL    HW1 7067   4.217   4.702   1.128
 2056SOL    HW2 7068   4.295   4.825   1.202
 2057SOL     OW 7069   5.872   2.422   4.400
 2057SOL    HW1 7070   5.779   2.414   4.364
 2057SOL    HW2 7071   5.914   2.505   4.365
 2058SOL     OW 7072   0.450   5.829   3.476
 2058SOL    HW1 7073   0.394   5.758   3.519
 2058SOL    HW2 7074   0.431   5.831   3.378
 2059SOL     OW 7075   1.469   0.015   5.966
 2059SOL    HW1 7076   1.561   0.033   5.931
 2059SOL    HW2 7077   1.450   0.077   6.042
 2060SOL     OW 7078   1.379   3.684   6.957
 2060SOL    HW1 7079   1.342   3.774   6.938
 2060SOL    HW2 7080   1.307   3.624   6.993
 2061SOL     OW 7081   2.216   2.240   2.662
 2061SOL    HW1 7082   2.192   2.298   2.585
 2061SOL    HW2 7083   2.314   2.222   2.661
 2062SOL     OW 7084   6.402   5.235   5.271
 2062SOL    HW1 7085   6.453   5.149   5.276
 2062SOL    HW2 7086   6.313   5.219   5.229
 2063SOL     OW 7087   1.607   0.856   5.335
 2063SOL    HW1 7088   1.613   0.912   5.418
 2063SOL    HW2 7089   1.598   0.915   5.255
 2064SOL     OW 7090   0.275   3.263   3.468
 2064SOL    HW1 7091   0.372   3.243   3.479
 2064SOL    HW2 7092   0.230   3.186   3.422
 2065SOL     OW 7093   4.434   2.687   5.762
 2065SOL    HW1 7094   4.511   2.749   5.782
 2065SOL    HW2 7095   4.357   2.711   5.820
 2066SOL     OW 7096   6.473   3.125   5.234
 2066SOL    HW1 7097   6.477   3.213   5.187
 2066SOL    HW2 7098   6.550   3.119   5.298
 2067SOL     OW 7099   6.494   4.911   0.980
 2067SOL    HW1 7100   6.518   4.945   0.889
 2067SOL    HW2 7101   6.463   4.986   1.037
 2068SOL     OW 7102   3.785   0.830   4.188
 2068SOL    HW1 7103   3.851   0.904   4.196
 2068SOL    HW2 7104   3.812   0.753   4.246
 2069SOL     OW 7105   0.191   2.440   3.833
 2069SOL    HW1 7106   0.256   2.505   3.872
 2069SOL    HW2 7107   0.107   2.489   3.808
 2070SOL     OW 7108   0.457   4.301   1.999
 2070SOL    HW1 7109   0.504   4.305   1.910
 2070SOL    HW2 7110   0.440   4.205   2.022
 2071SOL     OW 7111   6.636   1.397   5.856
 2071SOL    HW1 7112   6.733   1.385   5.834
 2071SOL    HW2 7113   6.623   1.390   5.955
 2072SOL     OW 7114   4.020   4.688   5.523
 2072SOL    HW1 7115   4.017   4.687   5.623
 2072SOL    HW2 7116   4.059   4.602   5.491
 2073SOL     OW 7117   3.422   6.009   0.357
 2073SOL    HW1 7118   3.446   5.964   0.443
 2073SOL    HW2 7119   3.333   6.054   0.367
 2074SOL     OW 7120   1.279   3.670   5.442
 2074SOL    HW1 7121   1.284   3.630   5.533
 2074SOL    HW2 7122   1.193   3.718   5.431
 2075SOL     OW 7123   6.439   1.979   1.426
 2075SOL    HW1 7124   6.483   2.063   1.393
 2075SOL    HW2 7125   6.425   1.986   1.525
 2076SOL     OW 7126   5.209   6.847   4.536
 2076SOL    HW1 7127   5.127   6.865   4.590
 2076SOL    HW2 7128   5.277   6.802   4.593
 2077SOL     OW 7129   6.829   4.250   0.843
 2077SOL    HW1 7130   6.729   4.248   0.853
 2077SOL    HW2 7131   6.870   4.285   0.927
 2078SOL     OW 7132   1.454   3.189   5.744
 2078SOL    HW1 7133   1.528   3.169   5.809
 2078SOL    HW2 7134   1.371   3.142   5.772
 2079SOL     OW 7135   5.206   1.922   2.216
 2079SOL    HW1 7136   5.260   1.962   2.142
 2079SOL    HW2 7137   5.137   1.861   2.178
 2080SOL     OW 7138   2.213   3.190   5.583
 2080SOL    HW1 7139   2.231   3.094   5.565
 2080SOL    HW2 7140   2.215   3.241   5.497
 2081SOL     OW 7141   6.537   0.162   3.264
 2081SOL    HW1 7142   6.477   0.241   3.256
 2081SOL    HW2 7143   6.596   0.156   3.184
 2082SOL     OW 7144   0.119   6.346   2.640
 2082SOL    HW1 7145   0.080   6.392   2.720
 2082SOL    HW2 7146   0.054   6.278   2.605
 2083SOL     OW 7147   0.140   6.066   4.401
 2083SOL    HW1 7148   0.087   6.145   4.433
 2083SOL    HW2 7149   0.191   6.090   4.319
 2084SOL     OW 7150   0.319   2.650   2.219
 2084SOL    HW1 7151   0.335   2.748   2.232
 2084SOL    HW2 7152   0.224   2.629   2.242
 2085SOL     OW 7153   5.213   5.525   0.881
 2085SOL    HW1 7154   5.200   5.593   0.810
 2085SOL    HW2 7155   5.160   5.443   0.859
 2086SOL     OW 7156   4.588   0.260   6.812
 2086SOL    HW1 7157   4.584   0.205   6.895
 2086SOL    HW2 7158   4.515   0.232   6.750
 2087SOL     OW 7159   4.238   2.411   6.804
 2087SOL    HW1 7160   4.330   2.427   6.770
 2087SOL    HW2 7161   4.182   2.371   6.731
 2088SOL     OW 7162   0.122   5.874   5.004
 2088SOL    HW1 7163   0.127   5.843   5.099
 2088SOL    HW2 7164   0.211   5.909   4.976
 2089SOL     OW 7165   3.319   3.606   6.766
 2089SOL    HW1 7166   3.386   3.633   6.697
 2089SOL    HW2 7167   3.245   3.673   6.769
 2090SOL     OW 7168   4.425   3.443   5.283
 2090SOL    HW1 7169   4.511   3.486   5.257
 2090SOL    HW2 7170   4.437   3.343   5.285
 2091SOL     OW 7171   5.959   5.642   1.766
 2091SOL    HW1 7172   5.872   5.595   1.775
 2091SOL    HW2 7173   6.004   5.647   1.855
 2092SOL     OW 7174   4.789   3.598   1.441
 2092SOL    HW1 7175   4.730   3.632   1.368
 2092SOL    HW2 7176   4.857   3.535   1.403
 2093SOL     OW 7177   3.752   2.154   2.867
 2093SOL    HW1 7178   3.728   2.084   2.799
 2093SOL    HW2 7179   3.682   2.225   2.867
 2094SOL     OW 7180   5.485   2.498   6.245
 2094SOL    HW1 7181   5.436   2.490   6.158
 2094SOL    HW2 7182   5.421   2.525   6.317
 2095SOL     OW 7183   5.361   6.604   3.512
 2095SOL    HW1 7184   5.293   6.593   3.439
 2095SOL    HW2 7185   5.395   6.514   3.539
 2096SOL     OW 7186   4.757   6.713   2.505
 2096SOL    HW1 7187   4.808   6.651   2.564
 2096SOL    HW2 7188   4.782   6.808   2.526
 2097SOL     OW 7189   1.234   5.075   6.445
 2097SOL    HW1 7190   1.317   5.113   6.486
 2097SOL    HW2 7191   1.255   5.038   6.355
 2098SOL     OW 7192   3.276   6.118   3.206
 2098SOL    HW1 7193   3.334   6.148   3.130
 2098SOL    HW2 7194   3.291   6.178   3.284
 2099SOL     OW 7195   5.380   1.160   0.003
 2099SOL    HW1 7196   5.366   1.257   0.019
 2099SOL    HW2 7197   5.434   1.147   6.947
 2100SOL     OW 7198   5.521   0.612   1.091
 2100SOL    HW1 7199   5.618   0.625   1.112
 2100SOL    HW2 7200   5.477   0.701   1.077
 2101SOL     OW 7201   0.067   6.556   1.874
 2101SOL    HW1 7202   0.138   6.491   1.902
 2101SOL    HW2 7203   0.084   6.645   1.917
 2102SOL     OW 7204   3.610   3.406   0.535
 2102SOL    HW1 7205   3.538   3.386   0.601
 2102SOL    HW2 7206   3.621   3.505   0.526
 2103SOL     OW 7207   3.025   6.239   1.037
 2103SOL    HW1 7208   3.070   6.156   1.005
 2103SOL    HW2 7209   2.959   6.270   0.969
 2104SOL     OW 7210   1.268   5.306   2.692
 2104SOL    HW1 7211   1.284   5.338   2.785
 2104SOL    HW2 7212   1.191   5.242   2.691
 2105SOL     OW 7213   5.833   4.098   6.428
 2105SOL    HW1 7214   5.827   4.136   6.336
 2105SOL    HW2 7215   5.741   4.079   6.463
 2106SOL     OW 7216   5.145   3.647   1.557
 2106SOL    HW1 7217   5.171   3.674   1.650
 2106SOL    HW2 7218   5.073   3.708   1.524
 2107SOL     OW 7219   5.768   3.586   5.658
 2107SOL    HW1 7220   5.724   3.519   5.598
 2107SOL    HW2 7221   5.795   3.666   5.604
 2108SOL     OW 7222   5.901   0.579   5.794
 2108SOL    HW1 7223   5.869   0.597   5.887
 2108SOL    HW2 7224   5.829   0.532   5.743
 2109SOL     OW 7225   2.130   6.087   3.439
 2109SOL    HW1 7226   2.214   6.070   3.387
 2109SOL    HW2 7227   2.154   6.116   3.532
 2110SOL     OW 7228   4.654   0.546   6.690
 2110SOL    HW1 7229   4.751   0.544   6.668
 2110SOL    HW2 7230   4.609   0.467   6.647
 2111SOL     OW 7231   1.083   2.306   5.713
 2111SOL    HW1 7232   1.077   2.304   5.613
 2111SOL    HW2 7233   1.178   2.316   5.741
 2112SOL     OW 7234   0.067   1.201   0.197
 2112SOL    HW1 7235   0.067   1.288   0.247
 2112SOL    HW2 7236   0.048   1.219   0.100
 2113SOL     OW 7237   1.398   6.949   4.691
 2113SOL    HW1 7238   1.440   6.991   4.771
 2113SOL    HW2 7239   1.306   6.985   4.679
 2114SOL     OW 7240   1.883   2.206   6.227
 2114SOL    HW1 7241   1.917   2.190   6.320
 2114SOL    HW2 7242   1.933   2.147   6.164
 2115SOL     OW 7243   6.365   5.888   3.240
 2115SOL    HW1 7244   6.267   5.907   3.245
 2115SOL    HW2 7245   6.379   5.789   3.241
 2116SOL     OW 7246   0.400   2.627   6.716
 2116SOL    HW1 7247   0.473   2.692   6.734
 2116SOL    HW2 7248   0.338   2.623   6.794
 2117SOL     OW 7249   6.086   1.187   1.898
 2117SOL    HW1 7250   6.156   1.156   1.962
 2117SOL    HW2 7251   6.115   1.167   1.805
 2118SOL     OW 7252   6.511   2.583   2.084
 2118SOL    HW1 7253   6.417   2.617   2.091
 2118SOL    HW2 7254   6.518   2.493   2.128
 2119SOL     OW 7255   3.135   0.850   0.139
 2119SOL    HW1 7256   3.174   0.781   0.078
 2119SOL    HW2 7257   3.148   0.941   0.099
 2120SOL     OW 7258   5.569   1.638   0.804
 2120SOL    HW1 7259   5.656   1.664   0.763
 2120SOL    HW2 7260   5.586   1.579   0.883
 2121SOL     OW 7261   1.423   0.282   6.620
 2121SOL    HW1 7262   1.413   0.377   6.649
 2121SOL    HW2 7263   1.479   0.233   6.686
 2122SOL     OW 7264   6.019   1.056   4.545
 2122SOL    HW1 7265   6.052   0.963   4.561
 2122SOL    HW2 7266   5.922   1.055   4.524
 2123SOL     OW 7267   1.694   5.825   3.347
 2123SOL    HW1 7268   1.705   5.738   3.394
 2123SOL    HW2 7269   1.776   5.881   3.361
 2124SOL     OW 7270   3.865   3.424   5.839
 2124SOL    HW1 7271   3.830   3.467   5.756
 2124SOL    HW2 7272   3.873   3.492   5.912
 2125SOL     OW 7273   1.128   5.886   3.663
 2125SOL    HW1 7274   1.199   5.845   3.605
 2125SOL    HW2 7275   1.121   5.984   3.643
 2126SOL     OW 7276   3.819   4.242   6.856
 2126SOL    HW1 7277   3.884   4.266   6.928
 2126SOL    HW2 7278   3.732   4.288   6.871
 2127SOL     OW 7279   0.729   2.503   5.168
 2127SOL    HW1 7280   0.806   2.440   5.183
 2127SOL    HW2 7281   0.758   2.577   5.107
 2128SOL     OW 7282   5.334   2.812   1.771
 2128SOL    HW1 7283   5.384   2.896   1.750
 2128SOL    HW2 7284   5.300   2.771   1.686
 2129SOL     OW 7285   5.128   4.817   3.678
 2129SOL    HW1 7286   5.048   4.783   3.628
 2129SOL    HW2 7287   5.190   4.863   3.615
 2130SOL     OW 7288   2.457   0.886   2.987
 2130SOL    HW1 7289   2.408   0.916   2.904
 2130SOL    HW2 7290   2.496   0.796   2.971
 2131SOL     OW 7291   5.746   1.603   5.532
 2131SOL    HW1 7292   5.691   1.686   5.525
 2131SOL    HW2 7293   5.707   1.533   5.473
 2132SOL     OW 7294   2.705   2.407   0.064
 2132SOL    HW1 7295   2.800   2.397   0.095
 2132SOL    HW2 7296   2.668   2.318   0.040
 2133SOL     OW 7297   2.842   2.069   1.927
 2133SOL    HW1 7298   2.851   2.160   1.967
 2133SOL    HW2 7299   2.853   2.000   1.998
 2134SOL     OW 7300   0.913   6.698   4.971
 2134SOL    HW1 7301   0.927   6.783   5.022
 2134SOL    HW2 7302   0.818   6.694   4.939
 2135SOL     OW 7303   0.863   1.133   3.151
 2135SOL    HW1 7304   0.847   1.070   3.075
 2135SOL    HW2 7305   0.897   1.220   3.116
 2136SOL     OW 7306   0.784   4.177   3.740
 2136SOL    HW1 7307   0.813   4.159   3.834
 2136SOL    HW2 7308   0.733   4.098   3.706
 2137SOL     OW 7309   1.415   0.452   5.122
 2137SOL    HW1 7310   1.408   0.531   5.183
 2137SOL    HW2 7311   1.328   0.403   5.121
 2138SOL     OW 7312   0.589   2.618   0.679
 2138SOL    HW1 7313   0.580   2.652   0.773
 2138SOL    HW2 7314   0.664   2.552   0.674
 2139SOL     OW 7315   2.804   1.130   5.779
 2139SOL    HW1 7316   2.898   1.159   5.792
 2139SOL    HW2 7317   2.767   1.093   5.864
 2140SOL     OW 7318   2.234   5.665   2.865
 2140SOL    HW1 7319   2.274   5.574   2.880
 2140SOL    HW2 7320   2.136   5.655   2.848
 2141SOL     OW 7321   5.605   2.351   0.943
 2141SOL    HW1 7322   5.632   2.279   0.879
 2141SOL    HW2 7323   5.509   2.340   0.968
 2142SOL     OW 7324   2.062   2.095   3.032
 2142SOL    HW1 7325   2.074   1.997   3.048
 2142SOL    HW2 7326   2.142   2.131   2.985
 2143SOL     OW 7327   2.871   6.959   1.286
 2143SOL    HW1 7328   2.938   6.891   1.257
 2143SOL    HW2 7329   2.782   6.914   1.297
 2144SOL     OW 7330   0.402   1.011   3.102
 2144SOL    HW1 7331   0.428   1.080   3.170
 2144SOL    HW2 7332   0.303   1.011   3.090
 2145SOL     OW 7333   4.013   5.216   3.118
 2145SOL    HW1 7334   3.927   5.266   3.123
 2145SOL    HW2 7335   4.028   5.167   3.203
 2146SOL     OW 7336   3.942   3.083   2.867
 2146SOL    HW1 7337   3.927   3.030   2.951
 2146SOL    HW2 7338   3.858   3.133   2.845
 2147SOL     OW 7339   1.125   0.762   5.274
 2147SOL    HW1 7340   1.163   0.808   5.354
 2147SOL    HW2 7341   1.033   0.730   5.296
 2148SOL     OW 7342   5.085   3.379   2.857
 2148SOL    HW1 7343   5.164   3.403   2.913
 2148SOL    HW2 7344   5.087   3.435   2.773
 2149SOL     OW 7345   4.058   0.873   2.778
 2149SOL    HW1 7346   4.132   0.905   2.719
 2149SOL    HW2 7347   4.095   0.814   2.849
 2150SOL     OW 7348   3.163   2.060   3.321
 2150SOL    HW1 7349   3.224   2.075   3.399
 2150SOL    HW2 7350   3.210   2.087   3.236
 2151SOL     OW 7351   3.719   2.977   5.452
 2151SOL    HW1 7352   3.629   3.017   5.437
 2151SOL    HW2 7353   3.772   2.979   5.367
 2152SOL     OW 7354   5.874   6.070   1.634
 2152SOL    HW1 7355   5.871   6.124   1.718
 2152SOL    HW2 7356   5.968   6.067   1.600
 2153SOL     OW 7357   4.785   2.698   3.282
 2153SOL    HW1 7358   4.775   2.773   3.217
 2153SOL    HW2 7359   4.748   2.725   3.371
 2154SOL     OW 7360   3.952   6.192   5.190
 2154SOL    HW1 7361   4.043   6.183   5.150
 2154SOL    HW2 7362   3.952   6.267   5.256
 2155SOL     OW 7363   6.964   4.032   0.213
 2155SOL    HW1 7364   0.019   4.059   0.164
 2155SOL    HW2 7365   6.887   4.027   0.149
 2156SOL     OW 7366   2.062   0.299   1.968
 2156SOL    HW1 7367   2.002   0.324   1.891
 2156SOL    HW2 7368   2.105   0.382   2.005
 2157SOL     OW 7369   1.105   1.705   5.032
 2157SOL    HW1 7370   1.204   1.696   5.027
 2157SOL    HW2 7371   1.081   1.765   5.108
 2158SOL     OW 7372   3.144   6.525   1.774
 2158SOL    HW1 7373   3.146   6.534   1.674
 2158SOL    HW2 7374   3.209   6.590   1.814
 2159SOL     OW 7375   1.546   6.534   4.971
 2159SOL    HW1 7376   1.511   6.606   4.912
 2159SOL    HW2 7377   1.538   6.562   5.067
 2160SOL     OW 7378   3.018   3.955   1.155
 2160SOL    HW1 7379   2.970   4.032   1.114
 2160SOL    HW2 7380   2.954   3.900   1.208
 2161SOL     OW 7381   5.209   2.431   3.331
 2161SOL    HW1 7382   5.181   2.347   3.376
 2161SOL    HW2 7383   5.171   2.510   3.380
 2162SOL     OW 7384   1.020   0.501   6.630
 2162SOL    HW1 7385   1.115   0.521   6.656
 2162SOL    HW2 7386   0.966   0.483   6.713
 2163SOL     OW 7387   1.797   1.584   0.707
 2163SOL    HW1 7388   1.821   1.627   0.620
 2163SOL    HW2 7389   1.715   1.528   0.696
 2164SOL     OW 7390   0.978   1.088   0.255
 2164SOL    HW1 7391   1.058   1.048   0.210
 2164SOL    HW2 7392   0.997   1.183   0.279
 2165SOL     OW 7393   2.360   6.981   2.839
 2165SOL    HW1 7394   2.436   6.917   2.828
 2165SOL    HW2 7395   2.396   0.046   2.853
 2166SOL     OW 7396   6.994   2.926   6.558
 2166SOL    HW1 7397   7.019   3.013   6.515
 2166SOL    HW2 7398   0.047   2.866   6.561
 2167SOL     OW 7399   3.254   0.488   2.810
 2167SOL    HW1 7400   3.303   0.488   2.723
 2167SOL    HW2 7401   3.159   0.463   2.795
 2168SOL     OW 7402   5.509   4.975   4.974
 2168SOL    HW1 7403   5.548   4.945   4.886
 2168SOL    HW2 7404   5.583   5.005   5.034
 2169SOL     OW 7405   5.105   1.707   5.811
 2169SOL    HW1 7406   5.110   1.723   5.909
 2169SOL    HW2 7407   5.184   1.750   5.766
 2170SOL     OW 7408   4.071   4.798   4.639
 2170SOL    HW1 7409   4.063   4.735   4.561
 2170SOL    HW2 7410   4.021   4.882   4.619
 2171SOL     OW 7411   0.397   2.675   0.013
 2171SOL    HW1 7412   0.350   2.670   0.101
 2171SOL    HW2 7413   0.374   2.762   6.996
 2172SOL     OW 7414   3.279   0.766   1.024
 2172SOL    HW1 7415   3.198   0.760   1.083
 2172SOL    HW2 7416   3.359   0.789   1.079
 2173SOL     OW 7417   5.707   1.331   5.441
 2173SOL    HW1 7418   5.804   1.307   5.435
 2173SOL    HW2 7419   5.672   1.303   5.530
 2174SOL     OW 7420   0.048   5.279   4.752
 2174SOL    HW1 7421   0.145   5.302   4.753
 2174SOL    HW2 7422   0.037   5.185   4.784
 2175SOL     OW 7423   1.854   6.636   4.774
 2175SOL    HW1 7424   1.772   6.680   4.811
 2175SOL    HW2 7425   1.869   6.549   4.820
 2176SOL     OW 7426   1.592   2.639   3.355
 2176SOL    HW1 7427   1.627   2.732   3.344
 2176SOL    HW2 7428   1.666   2.579   3.385
 2177SOL     OW 7429   0.288   2.504   1.252
 2177SOL    HW1 7430   0.319   2.598   1.263
 2177SOL    HW2 7431   0.347   2.458   1.184
 2178SOL     OW 7432   0.467   4.675   0.123
 2178SOL    HW1 7433   0.508   4.739   0.188
 2178SOL    HW2 7434   0.382   4.713   0.088
 2179SOL     OW 7435   1.616   5.491   4.394
 2179SOL    HW1 7436   1.528   5.461   4.358
 2179SOL    HW2 7437   1.646   5.428   4.466
 2180SOL     OW 7438   3.752   2.902   2.583
 2180SOL    HW1 7439   3.686   2.843   2.629
 2180SOL    HW2 7440   3.732   2.904   2.485
 2181SOL     OW 7441   4.929   5.343   5.946
 2181SOL    HW1 7442   4.894   5.332   5.852
 2181SOL    HW2 7443   4.887   5.274   6.005
 2182SOL     OW 7444   6.380   3.193   6.446
 2182SOL    HW1 7445   6.295   3.244   6.432
 2182SOL    HW2 7446   6.374   3.140   6.531
 2183SOL     OW 7447   3.589   3.195   1.006
 2183SOL    HW1 7448   3.593   3.293   1.024
 2183SOL    HW2 7449   3.674   3.152   1.036
 2184SOL     OW 7450   3.776   2.656   6.423
 2184SOL    HW1 7451   3.753   2.749   6.394
 2184SOL    HW2 7452   3.768   2.594   6.345
 2185SOL     OW 7453   1.452   1.455   1.492
 2185SOL    HW1 7454   1.505   1.470   1.575
 2185SOL    HW2 7455   1.485   1.373   1.446
 2186SOL     OW 7456   0.409   6.060   3.206
 2186SOL    HW1 7457   0.504   6.091   3.205
 2186SOL    HW2 7458   0.355   6.120   3.264
 2187SOL     OW 7459   0.146   1.099   6.201
 2187SOL    HW1 7460   0.241   1.121   6.222
 2187SOL    HW2 7461   0.091   1.182   6.207
 2188SOL     OW 7462   5.799   0.433   2.966
 2188SOL    HW1 7463   5.717   0.385   2.935
 2188SOL    HW2 7464   5.773   0.502   3.034
 2189SOL     OW 7465   2.207   0.273   6.562
 2189SOL    HW1 7466   2.280   0.233   6.618
 2189SOL    HW2 7467   2.119   0.257   6.606
 2190SOL     OW 7468   5.161   2.210   2.090
 2190SOL    HW1 7469   5.156   2.222   2.190
 2190SOL    HW2 7470   5.241   2.155   2.067
 2191SOL     OW 7471   3.175   2.604   6.791
 2191SOL    HW1 7472   3.129   2.578   6.707
 2191SOL    HW2 7473   3.260   2.551   6.801
 2192SOL     OW 7474   4.990   5.862   4.734
 2192SOL    HW1 7475   4.983   5.764   4.719
 2192SOL    HW2 7476   4.958   5.911   4.652
 2193SOL     OW 7477   1.077   4.809   6.334
 2193SOL    HW1 7478   1.080   4.725   6.388
 2193SOL    HW2 7479   1.168   4.828   6.296
 2194SOL     OW 7480   2.626   0.548   1.683
 2194SOL    HW1 7481   2.595   0.476   1.745
 2194SOL    HW2 7482   2.722   0.570   1.702
 2195SOL     OW 7483   1.473   4.991   2.670
 2195SOL    HW1 7484   1.515   5.082   2.664
 2195SOL    HW2 7485   1.378   4.997   2.640
 2196SOL     OW 7486   3.309   2.484   6.178
 2196SOL    HW1 7487   3.284   2.456   6.086
 2196SOL    HW2 7488   3.350   2.576   6.176
 2197SOL     OW 7489   4.805   5.154   0.699
 2197SOL    HW1 7490   4.850   5.113   0.779
 2197SOL    HW2 7491   4.874   5.176   0.630
 2198SOL     OW 7492   6.179   3.984   0.141
 2198SOL    HW1 7493   6.270   3.943   0.149
 2198SOL    HW2 7494   6.111   3.920   0.176
 2199SOL     OW 7495   5.023   0.557   1.238
 2199SOL    HW1 7496   5.016   0.636   1.177
 2199SOL    HW2 7497   4.945   0.497   1.225
 2200SOL     OW 7498   3.021   0.838   4.865
 2200SOL    HW1 7499   3.084   0.761   4.878
 2200SOL    HW2 7500   3.015   0.860   4.768
 2201SOL     OW 7501   5.336   3.446   2.150
 2201SOL    HW1 7502   5.417   3.388   2.161
 2201SOL    HW2 7503   5.342   3.494   2.062
 2202SOL     OW 7504   4.630   6.279   3.664
 2202SOL    HW1 7505   4.660   6.227   3.584
 2202SOL    HW2 7506   4.542   6.243   3.695
 2203SOL     OW 7507   3.316   2.151   3.126
 2203SOL    HW1 7508   3.319   2.155   3.026
 2203SOL    HW2 7509   3.401   2.187   3.164
 2204SOL     OW 7510   3.543   2.526   0.504
 2204SOL    HW1 7511   3.625   2.537   0.448
 2204SOL    HW2 7512   3.509   2.432   0.495
 2205SOL     OW 7513   3.128   6.606   0.414
 2205SOL    HW1 7514   3.081   6.689   0.383
 2205SOL    HW2 7515   3.222   6.606   0.381
 2206SOL     OW 7516   2.253   3.002   6.885
 2206SOL    HW1 7517   2.210   3.014   6.975
 2206SOL    HW2 7518   2.351   3.016   6.893
 2207SOL     OW 7519   0.952   4.054   5.557
 2207SOL    HW1 7520   0.988   4.135   5.603
 2207SOL    HW2 7521   0.886   4.081   5.487
 2208SOL     OW 7522   0.667   4.070   2.148
 2208SOL    HW1 7523   0.586   4.041   2.096
 2208SOL    HW2 7524   0.742   4.090   2.086
 2209SOL     OW 7525   1.101   5.916   0.515
 2209SOL    HW1 7526   1.138   5.860   0.589
 2209SOL    HW2 7527   1.015   5.877   0.484
 2210SOL     OW 7528   0.479   5.914   4.240
 2210SOL    HW1 7529   0.415   5.893   4.166
 2210SOL    HW2 7530   0.572   5.916   4.204
 2211SOL     OW 7531   6.330   1.378   5.422
 2211SOL    HW1 7532   6.327   1.376   5.322
 2211SOL    HW2 7533   6.265   1.447   5.456
 2212SOL     OW 7534   1.366   0.208   6.120
 2212SOL    HW1 7535   1.357   0.252   6.209
 2212SOL    HW2 7536   1.455   0.233   6.079
 2213SOL     OW 7537   3.514   1.497   3.382
 2213SOL    HW1 7538   3.593   1.555   3.398
 2213SOL    HW2 7539   3.507   1.429   3.455
 2214SOL     OW 7540   4.048   0.077   4.365
 2214SOL    HW1 7541   4.114   0.004   4.386
 2214SOL    HW2 7542   4.037   0.136   4.445
 2215SOL     OW 7543   6.013   2.405   5.334
 2215SOL    HW1 7544   5.985   2.431   5.242
 2215SOL    HW2 7545   6.054   2.314   5.331
 2216SOL     OW 7546   2.072   7.017   1.540
 2216SOL    HW1 7547   2.059   6.991   1.444
 2216SOL    HW2 7548   2.007   0.062   1.563
 2217SOL     OW 7549   3.872   0.376   1.181
 2217SOL    HW1 7550   3.826   0.458   1.217
 2217SOL    HW2 7551   3.803   0.310   1.152
 2218SOL     OW 7552   0.888   5.551   1.175
 2218SOL    HW1 7553   0.841   5.474   1.219
 2218SOL    HW2 7554   0.827   5.591   1.106
 2219SOL     OW 7555   1.183   3.703   3.320
 2219SOL    HW1 7556   1.197   3.715   3.222
 2219SOL    HW2 7557   1.269   3.720   3.368
 2220SOL     OW 7558   0.055   1.213   6.934
 2220SOL    HW1 7559   0.005   1.128   6.945
 2220SOL    HW2 7560   0.039   1.249   6.842
 2221SOL     OW 7561   0.062   2.517   0.993
 2221SOL    HW1 7562   0.062   2.490   1.090
 2221SOL    HW2 7563   7.003   2.561   0.971
 2222SOL     OW 7564   5.278   6.628   2.582
 2222SOL    HW1 7565   5.229   6.657   2.500
 2222SOL    HW2 7566   5.232   6.662   2.663
 2223SOL     OW 7567   4.981   5.521   2.259
 2223SOL    HW1 7568   4.912   5.458   2.223
 2223SOL    HW2 7569   5.052   5.469   2.306
 2224SOL     OW 7570   1.526   5.079   1.293
 2224SOL    HW1 7571   1.430   5.080   1.264
 2224SOL    HW2 7572   1.531   5.062   1.391
 2225SOL     OW 7573   6.354   5.039   1.763
 2225SOL    HW1 7574   6.363   4.984   1.846
 2225SOL    HW2 7575   6.443   5.053   1.722
 2226SOL     OW 7576   4.502   3.936   1.183
 2226SOL    HW1 7577   4.480   3.982   1.269
 2226SOL    HW2 7578   4.531   3.842   1.202
 2227SOL     OW 7579   0.473   4.193   5.032
 2227SOL    HW1 7580   0.439   4.113   4.982
 2227SOL    HW2 7581   0.570   4.180   5.054
 2228SOL     OW 7582   2.890   4.813   5.497
 2228SOL    HW1 7583   2.934   4.817   5.587
 2228SOL    HW2 7584   2.852   4.903   5.475
 2229SOL     OW 7585   4.688   0.484   3.203
 2229SOL    HW1 7586   4.666   0.438   3.289
 2229SOL    HW2 7587   4.625   0.454   3.132
 2230SOL     OW 7588   1.163   6.142   0.216
 2230SOL    HW1 7589   1.254   6.103   0.199
 2230SOL    HW2 7590   1.107   6.075   0.265
 2231SOL     OW 7591   2.723   6.887   1.896
 2231SOL    HW1 7592   2.768   6.810   1.851
 2231SOL    HW2 7593   2.628   6.892   1.866
 2232SOL     OW 7594   6.542   3.039   3.098
 2232SOL    HW1 7595   6.630   3.085   3.105
 2232SOL    HW2 7596   6.546   2.952   3.147
 2233SOL     OW 7597   3.907   0.633   6.800
 2233SOL    HW1 7598   3.994   0.595   6.831
 2233SOL    HW2 7599   3.853   0.562   6.755
 2234SOL     OW 7600   3.165   1.658   0.775
 2234SOL    HW1 7601   3.167   1.565   0.739
 2234SOL    HW2 7602   3.239   1.711   0.734
 2235SOL     OW 7603   1.966   6.805   1.149
 2235SOL    HW1 7604   2.008   6.726   1.192
 2235SOL    HW2 7605   1.956   6.879   1.216
 2236SOL     OW 7606   6.513   4.226   0.518
 2236SOL    HW1 7607   6.517   4.219   0.418
 2236SOL    HW2 7608   6.429   4.183   0.551
 2237SOL     OW 7609   6.527   2.255   4.111
 2237SOL    HW1 7610   6.518   2.156   4.118
 2237SOL    HW2 7611   6.452   2.298   4.161
 2238SOL     OW 7612   0.757   6.025   2.196
 2238SOL    HW1 7613   0.826   5.959   2.167
 2238SOL    HW2 7614   0.673   6.011   2.144
 2239SOL     OW 7615   4.433   5.020   3.109
 2239SOL    HW1 7616   4.483   4.936   3.127
 2239SOL    HW2 7617   4.339   4.997   3.083
 2240SOL     OW 7618   5.518   3.833   2.468
 2240SOL    HW1 7619   5.506   3.778   2.550
 2240SOL    HW2 7620   5.549   3.775   2.393
 2241SOL     OW 7621   0.450   0.271   2.065
 2241SOL    HW1 7622   0.406   0.340   2.008
 2241SOL    HW2 7623   0.440   0.296   2.161
 2242SOL     OW 7624   5.202   2.368   2.436
 2242SOL    HW1 7625   5.122   2.408   2.480
 2242SOL    HW2 7626   5.265   2.441   2.408
 2243SOL     OW 7627   2.390   6.020   5.415
 2243SOL    HW1 7628   2.487   6.003   5.430
 2243SOL    HW2 7629   2.370   6.015   5.317
 2244SOL     OW 7630   2.744   0.643   5.290
 2244SOL    HW1 7631   2.738   0.737   5.256
 2244SOL    HW2 7632   2.652   0.605   5.302
 2245SOL     OW 7633   1.230   1.987   1.481
 2245SOL    HW1 7634   1.254   1.904   1.431
 2245SOL    HW2 7635   1.260   1.979   1.576
 2246SOL     OW 7636   1.438   3.675   4.875
 2246SOL    HW1 7637   1.343   3.678   4.908
 2246SOL    HW2 7638   1.499   3.705   4.948
 2247SOL     OW 7639   1.972   1.843   5.978
 2247SOL    HW1 7640   1.948   1.765   5.921
 2247SOL    HW2 7641   1.981   1.814   6.073
 2248SOL     OW 7642   5.341   3.712   5.173
 2248SOL    HW1 7643   5.439   3.719   5.194
 2248SOL    HW2 7644   5.316   3.782   5.106
 2249SOL     OW 7645   4.691   5.324   4.548
 2249SOL    HW1 7646   4.760   5.290   4.483
 2249SOL    HW2 7647   4.618   5.369   4.497
 2250SOL     OW 7648   5.834   4.879   0.125
 2250SOL    HW1 7649   5.887   4.840   0.049
 2250SOL    HW2 7650   5.816   4.809   0.193
 2251SOL     OW 7651   6.430   0.931   6.858
 2251SOL    HW1 7652   6.348   0.896   6.903
 2251SOL    HW2 7653   6.412   0.944   6.760
 2252SOL     OW 7654   3.757   1.813   5.839
 2252SOL    HW1 7655   3.713   1.899   5.813
 2252SOL    HW2 7656   3.834   1.795   5.778
 2253SOL     OW 7657   2.329   2.908   6.604
 2253SOL    HW1 7658   2.269   2.945   6.675
 2253SOL    HW2 7659   2.313   2.956   6.518
 2254SOL     OW 7660   2.271   3.288   6.500
 2254SOL    HW1 7661   2.314   3.337   6.424
 2254SOL    HW2 7662   2.188   3.337   6.528
 2255SOL     OW 7663   5.954   2.730   1.830
 2255SOL    HW1 7664   5.977   2.638   1.797
 2255SOL    HW2 7665   5.995   2.798   1.769
 2256SOL     OW 7666   4.283   4.907   1.727
 2256SOL    HW1 7667   4.220   4.980   1.753
 2256SOL    HW2 7668   4.231   4.831   1.688
 2257SOL     OW 7669   2.142   4.117   4.120
 2257SOL    HW1 7670   2.065   4.076   4.170
 2257SOL    HW2 7671   2.117   4.209   4.091
 2258SOL     OW 7672   1.643   5.478   4.042
 2258SOL    HW1 7673   1.560   5.529   4.020
 2258SOL    HW2 7674   1.627   5.380   4.025
 2259SOL     OW 7675   5.787   2.665   6.588
 2259SOL    HW1 7676   5.692   2.695   6.598
 2259SOL    HW2 7677   5.813   2.667   6.492
 2260SOL     OW 7678   5.470   5.335   0.910
 2260SOL    HW1 7679   5.494   5.286   0.993
 2260SOL    HW2 7680   5.373   5.322   0.890
 2261SOL     OW 7681   4.401   6.240   6.207
 2261SOL    HW1 7682   4.490   6.199   6.186
 2261SOL    HW2 7683   4.335   6.214   6.137
 2262SOL     OW 7684   4.031   1.742   2.917
 2262SOL    HW1 7685   3.934   1.732   2.936
 2262SOL    HW2 7686   4.044   1.802   2.838
 2263SOL     OW 7687   0.044   5.123   6.514
 2263SOL    HW1 7688   0.118   5.085   6.570
 2263SOL    HW2 7689   6.983   5.102   6.557
 2264SOL     OW 7690   3.257   4.048   3.764
 2264SOL    HW1 7691   3.219   3.958   3.743
 2264SOL    HW2 7692   3.244   4.109   3.685
 2265SOL     OW 7693   6.944   0.847   1.727
 2265SOL    HW1 7694   0.013   0.825   1.713
 2265SOL    HW2 7695   6.903   0.781   1.790
 2266SOL     OW 7696   5.975   6.611   0.916
 2266SOL    HW1 7697   5.924   6.539   0.869
 2266SOL    HW2 7698   5.924   6.639   0.997
 2267SOL     OW 7699   5.303   1.841   5.703
 2267SOL    HW1 7700   5.348   1.920   5.745
 2267SOL    HW2 7701   5.334   1.831   5.609
 2268SOL     OW 7702   6.267   5.632   0.314
 2268SOL    HW1 7703   6.297   5.593   0.400
 2268SOL    HW2 7704   6.167   5.629   0.308
 2269SOL     OW 7705   6.987   5.435   5.298
 2269SOL    HW1 7706   6.941   5.499   5.236
 2269SOL    HW2 7707   6.957   5.342   5.278
 2270SOL     OW 7708   4.223   3.535   1.708
 2270SOL    HW1 7709   4.315   3.513   1.676
 2270SOL    HW2 7710   4.224   3.622   1.756
 2271SOL     OW 7711   5.545   4.341   2.922
 2271SOL    HW1 7712   5.609   4.395   2.976
 2271SOL    HW2 7713   5.452   4.374   2.938
 2272SOL     OW 7714   5.255   2.054   6.326
 2272SOL    HW1 7715   5.249   1.958   6.355
 2272SOL    HW2 7716   5.286   2.110   6.402
 2273SOL     OW 7717   1.608   1.768   3.585
 2273SOL    HW1 7718   1.568   1.679   3.563
 2273SOL    HW2 7719   1.588   1.833   3.512
 2274SOL     OW 7720   1.684   3.690   3.610
 2274SOL    HW1 7721   1.746   3.658   3.682
 2274SOL    HW2 7722   1.738   3.725   3.534
 2275SOL     OW 7723   5.020   6.397   3.405
 2275SOL    HW1 7724   5.016   6.342   3.489
 2275SOL    HW2 7725   4.927   6.407   3.368
 2276SOL     OW 7726   4.942   5.243   1.301
 2276SOL    HW1 7727   4.889   5.172   1.254
 2276SOL    HW2 7728   4.930   5.234   1.400
 2277SOL     OW 7729   3.149   3.746   0.316
 2277SOL    HW1 7730   3.096   3.664   0.294
 2277SOL    HW2 7731   3.087   3.824   0.323
 2278SOL     OW 7732   5.651   6.216   0.726
 2278SOL    HW1 7733   5.723   6.263   0.676
 2278SOL    HW2 7734   5.597   6.282   0.778
 2279SOL     OW 7735   5.736   4.202   4.689
 2279SOL    HW1 7736   5.778   4.214   4.779
 2279SOL    HW2 7737   5.693   4.111   4.685
 2280SOL     OW 7738   5.794   6.852   6.066
 2280SOL    HW1 7739   5.696   6.869   6.064
 2280SOL    HW2 7740   5.842   6.936   6.088
 2281SOL     OW 7741   3.419   3.164   0.804
 2281SOL    HW1 7742   3.397   3.250   0.757
 2281SOL    HW2 7743   3.496   3.180   0.866
 2282SOL     OW 7744   3.731   5.292   3.061
 2282SOL    HW1 7745   3.731   5.325   2.967
 2282SOL    HW2 7746   3.646   5.319   3.106
 2283SOL     OW 7747   0.310   3.916   3.174
 2283SOL    HW1 7748   0.322   3.994   3.236
 2283SOL    HW2 7749   0.388   3.854   3.183
 2284SOL     OW 7750   2.363   2.737   1.916
 2284SOL    HW1 7751   2.330   2.819   1.868
 2284SOL    HW2 7752   2.334   2.741   2.011
 2285SOL     OW 7753   2.216   4.525   0.210
 2285SOL    HW1 7754   2.119   4.500   0.211
 2285SOL    HW2 7755   2.257   4.501   0.298
 2286SOL     OW 7756   5.913   6.617   4.717
 2286SOL    HW1 7757   5.981   6.672   4.764
 2286SOL    HW2 7758   5.958   6.549   4.660
 2287SOL     OW 7759   2.036   3.072   1.978
 2287SOL    HW1 7760   2.046   2.998   2.044
 2287SOL    HW2 7761   2.118   3.076   1.920
 2288SOL     OW 7762   0.807   6.414   4.044
 2288SOL    HW1 7763   0.894   6.380   4.080
 2288SOL    HW2 7764   0.747   6.337   4.024
 2289SOL     OW 7765   4.717   2.619   1.226
 2289SOL    HW1 7766   4.695   2.686   1.296
 2289SOL    HW2 7767   4.645   2.549   1.223
 2290SOL     OW 7768   3.499   3.405   2.921
 2290SOL    HW1 7769   3.412   3.373   2.885
 2290SOL    HW2 7770   3.493   3.503   2.942
 2291SOL     OW 7771   1.851   2.374   6.707
 2291SOL    HW1 7772   1.825   2.447   6.770
 2291SOL    HW2 7773   1.822   2.398   6.614
 2292SOL     OW 7774   4.446   2.180   2.721
 2292SOL    HW1 7775   4.483   2.149   2.634
 2292SOL    HW2 7776   4.488   2.130   2.796
 2293SOL     OW 7777   6.512   1.672   6.896
 2293SOL    HW1 7778   6.419   1.697   6.867
 2293SOL    HW2 7779   6.556   1.619   6.824
 2294SOL     OW 7780   0.239   1.945   5.702
 2294SOL    HW1 7781   0.232   1.991   5.790
 2294SOL    HW2 7782   0.181   1.863   5.703
 2295SOL     OW 7783   5.885   6.398   0.812
 2295SOL    HW1 7784   5.880   6.366   0.718
 2295SOL    HW2 7785   5.927   6.328   0.870
 2296SOL     OW 7786   3.076   5.592   4.301
 2296SOL    HW1 7787   3.126   5.518   4.257
 2296SOL    HW2 7788   3.068   5.573   4.399
 2297SOL     OW 7789   4.179   4.467   5.440
 2297SOL    HW1 7790   4.269   4.430   5.414
 2297SOL    HW2 7791   4.109   4.398   5.423
 2298SOL     OW 7792   4.105   3.577   4.368
 2298SOL    HW1 7793   4.107   3.657   4.429
 2298SOL    HW2 7794   4.094   3.608   4.274
 2299SOL     OW 7795   5.431   3.573   4.921
 2299SOL    HW1 7796   5.399   3.496   4.976
 2299SOL    HW2 7797   5.353   3.623   4.883
 2300SOL     OW 7798   4.481   6.436   2.232
 2300SOL    HW1 7799   4.452   6.526   2.198
 2300SOL    HW2 7800   4.401   6.375   2.237
 2301SOL     OW 7801   3.811   3.019   4.340
 2301SOL    HW1 7802   3.846   3.111   4.319
 2301SOL    HW2 7803   3.888   2.956   4.348
 2302SOL     OW 7804   4.166   2.131   0.659
 2302SOL    HW1 7805   4.174   2.222   0.618
 2302SOL    HW2 7806   4.108   2.074   0.602
 2303SOL     OW 7807   4.023   2.213   6.924
 2303SOL    HW1 7808   3.999   2.267   6.843
 2303SOL    HW2 7809   4.003   2.117   6.907
 2304SOL     OW 7810   5.139   5.983   2.063
 2304SOL    HW1 7811   5.185   6.016   2.145
 2304SOL    HW2 7812   5.128   5.884   2.068
 2305SOL     OW 7813   2.221   0.881   5.249
 2305SOL    HW1 7814   2.254   0.905   5.340
 2305SOL    HW2 7815   2.286   0.915   5.180
 2306SOL     OW 7816   1.958   5.070   4.086
 2306SOL    HW1 7817   2.005   5.050   4.172
 2306SOL    HW2 7818   1.926   5.165   4.087
 2307SOL     OW 7819   6.889   3.481   6.051
 2307SOL    HW1 7820   6.918   3.444   5.963
 2307SOL    HW2 7821   6.955   3.550   6.082
 2308SOL     OW 7822   2.065   4.809   1.771
 2308SOL    HW1 7823   2.114   4.845   1.692
 2308SOL    HW2 7824   2.128   4.800   1.848
 2309SOL     OW 7825   2.260   6.337   5.539
 2309SOL    HW1 7826   2.194   6.262   5.541
 2309SOL    HW2 7827   2.268   6.376   5.631
 2310SOL     OW 7828   4.895   6.711   1.115
 2310SOL    HW1 7829   4.924   6.623   1.152
 2310SOL    HW2 7830   4.801   6.730   1.143
 2311SOL     OW 7831   2.842   5.786   1.591
 2311SOL    HW1 7832   2.909   5.859   1.598
 2311SOL    HW2 7833   2.859   5.718   1.663
 2312SOL     OW 7834   3.356   4.906   2.976
 2312SOL    HW1 7835   3.284   4.890   2.910
 2312SOL    HW2 7836   3.325   4.877   3.067
 2313SOL     OW 7837   4.481   5.727   1.594
 2313SOL    HW1 7838   4.453   5.633   1.574
 2313SOL    HW2 7839   4.403   5.788   1.584
 2314SOL     OW 7840   2.153   5.571   4.252
 2314SOL    HW1 7841   2.157   5.532   4.344
 2314SOL    HW2 7842   2.058   5.571   4.221
 2315SOL     OW 7843   4.239   3.009   6.551
 2315SOL    HW1 7844   4.159   3.068   6.539
 2315SOL    HW2 7845   4.317   3.050   6.504
 2316SOL     OW 7846   5.602   3.477   2.524
 2316SOL    HW1 7847   5.540   3.402   2.545
 2316SOL    HW2 7848   5.687   3.466   2.575
 2317SOL     OW 7849   0.902   4.797   4.036
 2317SOL    HW1 7850   0.838   4.733   3.994
 2317SOL    HW2 7851   0.852   4.862   4.093
 2318SOL     OW 7852   6.945   1.516   3.756
 2318SOL    HW1 7853   6.986   1.428   3.777
 2318SOL    HW2 7854   6.860   1.527   3.806
 2319SOL     OW 7855   0.900   4.109   4.002
 2319SOL    HW1 7856   0.990   4.069   3.987
 2319SOL    HW2 7857   0.839   4.040   4.042
 2320SOL     OW 7858   6.464   4.184   4.996
 2320SOL    HW1 7859   6.512   4.111   4.946
 2320SOL    HW2 7860   6.368   4.186   4.969
 2321SOL     OW 7861   2.636   5.967   5.468
 2321SOL    HW1 7862   2.671   5.888   5.518
 2321SOL    HW2 7863   2.700   5.993   5.396
 2322SOL     OW 7864   2.588   0.293   6.110
 2322SOL    HW1 7865   2.520   0.307   6.182
 2322SOL    HW2 7866   2.627   0.201   6.118
 2323SOL     OW 7867   5.294   4.829   2.157
 2323SOL    HW1 7868   5.324   4.812   2.063
 2323SOL    HW2 7869   5.368   4.872   2.209
 2324SOL     OW 7870   6.514   5.070   3.606
 2324SOL    HW1 7871   6.479   5.083   3.699
 2324SOL    HW2 7872   6.463   4.996   3.562
 2325SOL     OW 7873   6.624   3.164   0.774
 2325SOL    HW1 7874   6.659   3.151   0.867
 2325SOL    HW2 7875   6.683   3.229   0.725
 2326SOL     OW 7876   1.812   5.217   6.925
 2326SOL    HW1 7877   1.811   5.314   6.949
 2326SOL    HW2 7878   1.762   5.164   6.994
 2327SOL     OW 7879   5.593   2.491   4.962
 2327SOL    HW1 7880   5.591   2.526   5.056
 2327SOL    HW2 7881   5.569   2.564   4.899
 2328SOL     OW 7882   5.158   6.635   3.310
 2328SOL    HW1 7883   5.133   6.718   3.261
 2328SOL    HW2 7884   5.077   6.597   3.356
 2329SOL     OW 7885   0.018   6.004   3.426
 2329SOL    HW1 7886   0.088   6.012   3.497
 2329SOL    HW2 7887   7.026   6.094   3.388
 2330SOL     OW 7888   0.507   3.623   2.499
 2330SOL    HW1 7889   0.536   3.529   2.481
 2330SOL    HW2 7890   0.558   3.660   2.576
 2331SOL     OW 7891   1.035   4.588   5.733
 2331SOL    HW1 7892   1.028   4.539   5.646
 2331SOL    HW2 7893   0.952   4.643   5.747
 2332SOL     OW 7894   5.692   2.981   4.873
 2332SOL    HW1 7895   5.733   3.052   4.816
 2332SOL    HW2 7896   5.747   2.897   4.868
 2333SOL     OW 7897   1.110   5.523   4.298
 2333SOL    HW1 7898   1.030   5.583   4.293
 2333SOL    HW2 7899   1.108   5.458   4.222
 2334SOL     OW 7900   2.687   0.281   0.277
 2334SOL    HW1 7901   2.605   0.305   0.223
 2334SOL    HW2 7902   2.693   0.182   0.286
 2335SOL     OW 7903   4.767   0.143   3.916
 2335SOL    HW1 7904   4.780   0.219   3.980
 2335SOL    HW2 7905   4.767   0.178   3.823
 2336SOL     OW 7906   4.581   1.403   6.225
 2336SOL    HW1 7907   4.668   1.411   6.272
 2336SOL    HW2 7908   4.554   1.493   6.188
 2337SOL     OW 7909   5.779   0.413   2.623
 2337SOL    HW1 7910   5.757   0.337   2.684
 2337SOL    HW2 7911   5.782   0.381   2.529
 2338SOL     OW 7912   1.246   6.991   6.269
 2338SOL    HW1 7913   1.179   0.023   6.313
 2338SOL    HW2 7914   1.338   7.018   6.295
 2339SOL     OW 7915   3.652   4.513   0.157
 2339SOL    HW1 7916   3.629   4.538   0.063
 2339SOL    HW2 7917   3.746   4.540   0.176
 2340SOL     OW 7918   3.421   5.090   4.725
 2340SOL    HW1 7919   3.433   5.096   4.825
 2340SOL    HW2 7920   3.382   5.002   4.701
 2341SOL     OW 7921   5.915   5.335   0.363
 2341SOL    HW1 7922   5.850   5.261   0.351
 2341SOL    HW2 7923   5.909   5.370   0.457
 2342SOL     OW 7924   6.613   0.203   5.145
 2342SOL    HW1 7925   6.708   0.183   5.123
 2342SOL    HW2 7926   6.562   0.118   5.154
 2343SOL     OW 7927   1.085   6.663   0.385
 2343SOL    HW1 7928   1.182   6.679   0.369
 2343SOL    HW2 7929   1.070   6.567   0.409
 2344SOL     OW 7930   1.933   1.640   2.449
 2344SOL    HW1 7931   1.939   1.561   2.510
 2344SOL    HW2 7932   2.022   1.686   2.444
 2345SOL     OW 7933   2.293   1.500   3.824
 2345SOL    HW1 7934   2.196   1.484   3.847
 2345SOL    HW2 7935   2.339   1.538   3.904
 2346SOL     OW 7936   4.843   3.517   5.749
 2346SOL    HW1 7937   4.832   3.616   5.742
 2346SOL    HW2 7938   4.759   3.472   5.720
 2347SOL     OW 7939   1.228   2.997   1.129
 2347SOL    HW1 7940   1.306   2.963   1.076
 2347SOL    HW2 7941   1.146   2.998   1.072
 2348SOL     OW 7942   2.852   6.708   2.240
 2348SOL    HW1 7943   2.811   6.665   2.321
 2348SOL    HW2 7944   2.871   6.804   2.260
 2349SOL     OW 7945   4.732   5.628   6.117
 2349SOL    HW1 7946   4.820   5.587   6.096
 2349SOL    HW2 7947   4.668   5.611   6.043
 2350SOL     OW 7948   2.508   6.437   5.361
 2350SOL    HW1 7949   2.464   6.399   5.280
 2350SOL    HW2 7950   2.479   6.386   5.442
 2351SOL     OW 7951   2.663   5.392   4.149
 2351SOL    HW1 7952   2.688   5.404   4.245
 2351SOL    HW2 7953   2.714   5.458   4.093
 2352SOL     OW 7954   0.125   3.429   2.180
 2352SOL    HW1 7955   0.082   3.341   2.198
 2352SOL    HW2 7956   0.134   3.480   2.265
 2353SOL     OW 7957   2.340   4.165   6.192
 2353SOL    HW1 7958   2.265   4.106   6.221
 2353SOL    HW2 7959   2.418   4.109   6.164
 2354SOL     OW 7960   3.818   2.726   0.943
 2354SOL    HW1 7961   3.780   2.737   0.851
 2354SOL    HW2 7962   3.749   2.688   1.004
 2355SOL     OW 7963   0.505   6.984   1.102
 2355SOL    HW1 7964   0.494   0.025   1.029
 2355SOL    HW2 7965   0.423   6.928   1.108
 2356SOL     OW 7966   2.910   5.085   3.298
 2356SOL    HW1 7967   2.814   5.110   3.308
 2356SOL    HW2 7968   2.944   5.120   3.210
 2357SOL     OW 7969   6.690   4.523   1.172
 2357SOL    HW1 7970   6.615   4.580   1.137
 2357SOL    HW2 7971   6.668   4.494   1.265
 2358SOL     OW 7972   3.914   1.293   5.843
 2358SOL    HW1 7973   3.884   1.386   5.864
 2358SOL    HW2 7974   3.839   1.244   5.799
 2359SOL     OW 7975   1.510   1.520   5.445
 2359SOL    HW1 7976   1.481   1.472   5.529
 2359SOL    HW2 7977   1.466   1.477   5.366
 2360SOL     OW 7978   4.434   4.524   0.582
 2360SOL    HW1 7979   4.486   4.569   0.655
 2360SOL    HW2 7980   4.497   4.493   0.511
 2361SOL     OW 7981   4.039   5.739   1.811
 2361SOL    HW1 7982   4.061   5.828   1.771
 2361SOL    HW2 7983   4.032   5.748   1.910
 2362SOL     OW 7984   4.007   5.941   3.736
 2362SOL    HW1 7985   3.946   5.905   3.666
 2362SOL    HW2 7986   3.964   5.931   3.826
 2363SOL     OW 7987   2.762   4.115   0.711
 2363SOL    HW1 7988   2.812   4.193   0.673
 2363SOL    HW2 7989   2.821   4.034   0.710
 2364SOL     OW 7990   4.392   1.573   2.491
 2364SOL    HW1 7991   4.412   1.665   2.458
 2364SOL    HW2 7992   4.476   1.518   2.491
 2365SOL     OW 7993   4.852   3.229   3.515
 2365SOL    HW1 7994   4.846   3.223   3.614
 2365SOL    HW2 7995   4.832   3.139   3.475
 2366SOL     OW 7996   2.624   4.678   5.000
 2366SOL    HW1 7997   2.575   4.640   5.078
 2366SOL    HW2 7998   2.722   4.659   5.011
 2367SOL     OW 7999   6.369   4.770   6.158
 2367SOL    HW1 8000   6.274   4.797   6.145
 2367SOL    HW2 8001   6.377   4.716   6.242
 2368SOL     OW 8002   5.476   6.753   3.944
 2368SOL    HW1 8003   5.459   6.678   4.008
 2368SOL    HW2 8004   5.389   6.792   3.915
 2369SOL     OW 8005   3.112   1.781   4.624
 2369SOL    HW1 8006   3.190   1.835   4.658
 2369SOL    HW2 8007   3.146   1.702   4.574
 2370SOL     OW 8008   5.524   2.596   1.311
 2370SOL    HW1 8009   5.616   2.617   1.280
 2370SOL    HW2 8010   5.513   2.627   1.406
 2371SOL     OW 8011   0.698   6.840   3.090
 2371SOL    HW1 8012   0.729   6.889   3.171
 2371SOL    HW2 8013   0.598   6.833   3.091
 2372SOL     OW 8014   6.424   0.990   5.778
 2372SOL    HW1 8015   6.509   0.941   5.793
 2372SOL    HW2 8016   6.430   1.045   5.695
 2373SOL     OW 8017   5.911   5.752   6.683
 2373SOL    HW1 8018   5.966   5.817   6.735
 2373SOL    HW2 8019   5.955   5.734   6.595
 2374SOL     OW 8020   5.855   6.179   1.874
 2374SOL    HW1 8021   5.937   6.230   1.901
 2374SOL    HW2 8022   5.782   6.195   1.940
 2375SOL     OW 8023   0.767   0.186   4.338
 2375SOL    HW1 8024   0.789   0.089   4.332
 2375SOL    HW2 8025   0.851   0.239   4.345
 2376SOL     OW 8026   6.012   1.310   3.321
 2376SOL    HW1 8027   5.979   1.371   3.393
 2376SOL    HW2 8028   6.085   1.356   3.269
 2377SOL     OW 8029   4.254   5.151   5.224
 2377SOL    HW1 8030   4.195   5.231   5.212
 2377SOL    HW2 8031   4.219   5.094   5.298
 2378SOL     OW 8032   6.826   1.059   0.561
 2378SOL    HW1 8033   6.879   1.134   0.522
 2378SOL    HW2 8034   6.763   1.095   0.630
 2379SOL     OW 8035   6.408   4.711   1.198
 2379SOL    HW1 8036   6.317   4.742   1.226
 2379SOL    HW2 8037   6.456   4.785   1.151
 2380SOL     OW 8038   4.836   4.765   4.974
 2380SOL    HW1 8039   4.740   4.737   4.981
 2380SOL    HW2 8040   4.887   4.729   5.051
 2381SOL     OW 8041   2.318   4.860   4.984
 2381SOL    HW1 8042   2.314   4.831   5.080
 2381SOL    HW2 8043   2.361   4.788   4.930
 2382SOL     OW 8044   0.598   6.252   2.503
 2382SOL    HW1 8045   0.639   6.259   2.412
 2382SOL    HW2 8046   0.505   6.217   2.494
 2383SOL     OW 8047   5.663   5.539   5.557
 2383SOL    HW1 8048   5.690   5.489   5.474
 2383SOL    HW2 8049   5.567   5.564   5.551
 2384SOL     OW 8050   0.840   1.834   2.114
 2384SOL    HW1 8051   0.924   1.883   2.092
 2384SOL    HW2 8052   0.840   1.746   2.066
 2385SOL     OW 8053   0.511   2.376   1.081
 2385SOL    HW1 8054   0.571   2.305   1.044
 2385SOL    HW2 8055   0.563   2.460   1.094
 2386SOL     OW 8056   5.065   6.240   3.756
 2386SOL    HW1 8057   5.126   6.181   3.809
 2386SOL    HW2 8058   5.022   6.187   3.683
 2387SOL     OW 8059   1.543   1.780   4.222
 2387SOL    HW1 8060   1.513   1.864   4.176
 2387SOL    HW2 8061   1.553   1.797   4.320
 2388SOL     OW 8062   0.000   1.904   5.472
 2388SOL    HW1 8063   0.016   1.854   5.557
 2388SOL    HW2 8064   6.932   1.933   5.468
 2389SOL     OW 8065   5.266   4.661   4.682
 2389SOL    HW1 8066   5.179   4.631   4.642
 2389SOL    HW2 8067   5.325   4.696   4.609
 2390SOL     OW 8068   4.251   4.058   5.722
 2390SOL    HW1 8069   4.218   4.056   5.628
 2390SOL    HW2 8070   4.348   4.036   5.724
 2391SOL     OW 8071   3.532   4.328   6.132
 2391SOL    HW1 8072   3.600   4.276   6.081
 2391SOL    HW2 8073   3.441   4.314   6.091
 2392SOL     OW 8074   3.896   5.373   5.473
 2392SOL    HW1 8075   3.850   5.381   5.562
 2392SOL    HW2 8076   3.828   5.368   5.400
 2393SOL     OW 8077   3.384   5.139   1.817
 2393SOL    HW1 8078   3.438   5.151   1.900
 2393SOL    HW2 8079   3.288   5.163   1.836
 2394SOL     OW 8080   1.096   2.258   3.717
 2394SOL    HW1 8081   1.174   2.212   3.760
 2394SOL    HW2 8082   1.102   2.356   3.733
 2395SOL     OW 8083   0.040   2.208   4.477
 2395SOL    HW1 8084   7.026   2.299   4.472
 2395SOL    HW2 8085   0.122   2.205   4.420
 2396SOL     OW 8086   6.922   0.878   4.988
 2396SOL    HW1 8087   6.867   0.811   5.038
 2396SOL    HW2 8088   6.864   0.953   4.957
 2397SOL     OW 8089   0.450   4.591   5.936
 2397SOL    HW1 8090   0.435   4.675   5.885
 2397SOL    HW2 8091   0.508   4.610   6.016
 2398SOL     OW 8092   3.433   6.061   3.532
 2398SOL    HW1 8093   3.364   5.992   3.509
 2398SOL    HW2 8094   3.401   6.151   3.503
 2399SOL     OW 8095   3.090   2.047   4.050
 2399SOL    HW1 8096   3.113   1.972   4.112
 2399SOL    HW2 8097   2.992   2.065   4.054
 2400SOL     OW 8098   0.660   4.376   0.771
 2400SOL    HW1 8099   0.653   4.296   0.712
 2400SOL    HW2 8100   0.578   4.432   0.761
 2401SOL     OW 8101   2.889   7.012   5.882
 2401SOL    HW1 8102   2.958   6.976   5.820
 2401SOL    HW2 8103   2.805   0.004   5.832
 2402SOL     OW 8104   1.398   4.302   2.758
 2402SOL    HW1 8105   1.439   4.215   2.785
 2402SOL    HW2 8106   1.459   4.349   2.694
 2403SOL     OW 8107   3.829   4.031   3.115
 2403SOL    HW1 8108   3.760   4.057   3.048
 2403SOL    HW2 8109   3.830   4.098   3.189
 2404SOL     OW 8110   6.380   1.853   0.565
 2404SOL    HW1 8111   6.433   1.801   0.498
 2404SOL    HW2 8112   6.283   1.830   0.557
 2405SOL     OW 8113   1.895   3.253   0.816
 2405SOL    HW1 8114   1.847   3.175   0.776
 2405SOL    HW2 8115   1.946   3.224   0.896
 2406SOL     OW 8116   2.255   6.324   4.848
 2406SOL    HW1 8117   2.243   6.412   4.894
 2406SOL    HW2 8118   2.353   6.303   4.841
 2407SOL     OW 8119   3.502   1.284   3.612
 2407SOL    HW1 8120   3.590   1.249   3.579
 2407SOL    HW2 8121   3.434   1.210   3.612
 2408SOL     OW 8122   3.076   5.616   5.023
 2408SOL    HW1 8123   3.021   5.646   4.944
 2408SOL    HW2 8124   3.049   5.524   5.049
 2409SOL     OW 8125   1.717   3.212   1.594
 2409SOL    HW1 8126   1.752   3.151   1.665
 2409SOL    HW2 8127   1.629   3.251   1.623
 2410SOL     OW 8128   0.978   3.506   5.252
 2410SOL    HW1 8129   0.906   3.569   5.281
 2410SOL    HW2 8130   1.010   3.453   5.331
 2411SOL     OW 8131   2.973   3.968   0.322
 2411SOL    HW1 8132   2.998   4.065   0.314
 2411SOL    HW2 8133   2.900   3.946   0.258
 2412SOL     OW 8134   3.939   1.604   0.058
 2412SOL    HW1 8135   4.010   1.535   0.074
 2412SOL    HW2 8136   3.889   1.619   0.144
 2413SOL     OW 8137   6.798   2.759   0.138
 2413SOL    HW1 8138   6.774   2.663   0.152
 2413SOL    HW2 8139   6.742   2.817   0.197
 2414SOL     OW 8140   6.396   2.429   4.409
 2414SOL    HW1 8141   6.312   2.407   4.360
 2414SOL    HW2 8142   6.402   2.374   4.492
 2415SOL     OW 8143   2.497   5.743   0.945
 2415SOL    HW1 8144   2.434   5.746   1.023
 2415SOL    HW2 8145   2.588   5.771   0.974
 2416SOL     OW 8146   6.895   3.609   2.509
 2416SOL    HW1 8147   6.854   3.530   2.463
 2416SOL    HW2 8148   6.991   3.617   2.483
 2417SOL     OW 8149   3.020   2.987   1.508
 2417SOL    HW1 8150   3.000   2.894   1.478
 2417SOL    HW2 8151   3.118   3.005   1.495
 2418SOL     OW 8152   4.574   3.729   5.789
 2418SOL    HW1 8153   4.524   3.653   5.831
 2418SOL    HW2 8154   4.531   3.753   5.702
 2419SOL     OW 8155   1.645   6.502   4.341
 2419SOL    HW1 8156   1.618   6.565   4.414
 2419SOL    HW2 8157   1.742   6.512   4.323
 2420SOL     OW 8158   1.548   4.464   2.579
 2420SOL    HW1 8159   1.560   4.562   2.594
 2420SOL    HW2 8160   1.636   4.422   2.557
 2421SOL     OW 8161   2.419   6.223   4.412
 2421SOL    HW1 8162   2.392   6.212   4.507
 2421SOL    HW2 8163   2.338   6.221   4.353
 2422SOL     OW 8164   4.562   6.249   7.021
 2422SOL    HW1 8165   4.492   6.187   6.985
 2422SOL    HW2 8166   4.625   6.199   0.052
 2423SOL     OW 8167   2.322   5.130   2.770
 2423SOL    HW1 8168   2.321   5.166   2.677
 2423SOL    HW2 8169   2.241   5.072   2.784
 2424SOL     OW 8170   5.685   1.452   5.861
 2424SOL    HW1 8171   5.689   1.386   5.786
 2424SOL    HW2 8172   5.767   1.509   5.860
 2425SOL     OW 8173   4.996   5.699   5.185
 2425SOL    HW1 8174   4.989   5.797   5.203
 2425SOL    HW2 8175   5.092   5.673   5.179
 2426SOL     OW 8176   2.117   4.045   6.277
 2426SOL    HW1 8177   2.096   4.057   6.374
 2426SOL    HW2 8178   2.038   4.003   6.231
 2427SOL     OW 8179   5.197   0.896   0.187
 2427SOL    HW1 8180   5.183   0.991   0.161
 2427SOL    HW2 8181   5.126   0.839   0.145
 2428SOL     OW 8182   0.342   0.595   3.523
 2428SOL    HW1 8183   0.249   0.557   3.524
 2428SOL    HW2 8184   0.361   0.637   3.434
 2429SOL     OW 8185   5.244   5.390   1.686
 2429SOL    HW1 8186   5.191   5.463   1.730
 2429SOL    HW2 8187   5.284   5.425   1.601
 2430SOL     OW 8188   6.213   2.076   6.374
 2430SOL    HW1 8189   6.153   2.133   6.430
 2430SOL    HW2 8190   6.225   1.987   6.417
 2431SOL     OW 8191   6.559   2.335   1.656
 2431SOL    HW1 8192   6.461   2.337   1.634
 2431SOL    HW2 8193   6.595   2.428   1.654
 2432SOL     OW 8194   3.526   5.316   2.795
 2432SOL    HW1 8195   3.524   5.216   2.796
 2432SOL    HW2 8196   3.506   5.349   2.702
 2433SOL     OW 8197   6.166   4.478   6.336
 2433SOL    HW1 8198   6.148   4.380   6.349
 2433SOL    HW2 8199   6.264   4.495   6.339
 2434SOL     OW 8200   4.648   1.513   3.115
 2434SOL    HW1 8201   4.697   1.582   3.062
 2434SOL    HW2 8202   4.685   1.509   3.207
 2435SOL     OW 8203   5.873   6.769   6.737
 2435SOL    HW1 8204   5.899   6.862   6.714
 2435SOL    HW2 8205   5.952   6.720   6.774
 2436SOL     OW 8206   2.137   1.753   1.847
 2436SOL    HW1 8207   2.189   1.812   1.785
 2436SOL    HW2 8208   2.048   1.795   1.866
 2437SOL     OW 8209   0.036   4.658   3.129
 2437SOL    HW1 8210   0.094   4.579   3.108
 2437SOL    HW2 8211   0.050   4.686   3.224
 2438SOL     OW 8212   3.340   1.459   4.945
 2438SOL    HW1 8213   3.250   1.464   4.987
 2438SOL    HW2 8214   3.343   1.517   4.863
 2439SOL     OW 8215   0.667   6.066   1.054
 2439SOL    HW1 8216   0.762   6.087   1.076
 2439SOL    HW2 8217   0.664   5.989   0.990
 2440SOL     OW 8218   5.397   0.985   5.221
 2440SOL    HW1 8219   5.438   1.077   5.214
 2440SOL    HW2 8220   5.453   0.928   5.281
 2441SOL     OW 8221   5.908   0.260   6.978
 2441SOL    HW1 8222   5.940   0.243   6.885
 2441SOL    HW2 8223   5.972   0.320   7.025
 2442SOL     OW 8224   5.126   3.140   1.943
 2442SOL    HW1 8225   5.176   3.094   2.016
 2442SOL    HW2 8226   5.186   3.206   1.897
 2443SOL     OW 8227   1.127   2.073   0.918
 2443SOL    HW1 8228   1.186   2.056   0.997
 2443SOL    HW2 8229   1.060   1.999   0.910
 2444SOL     OW 8230   3.789   5.701   1.498
 2444SOL    HW1 8231   3.863   5.766   1.518
 2444SOL    HW2 8232   3.711   5.720   1.559
 2445SOL     OW 8233   6.826   2.590   0.859
 2445SOL    HW1 8234   6.744   2.593   0.802
 2445SOL    HW2 8235   6.906   2.610   0.802
 2446SOL     OW 8236   1.908   4.603   1.114
 2446SOL    HW1 8237   1.835   4.592   1.182
 2446SOL    HW2 8238   1.963   4.519   1.111
 2447SOL     OW 8239   3.011   0.131   0.771
 2447SOL    HW1 8240   2.915   0.133   0.744
 2447SOL    HW2 8241   3.039   0.036   0.787
 2448SOL     OW 8242   5.988   1.672   3.733
 2448SOL    HW1 8243   6.074   1.653   3.688
 2448SOL    HW2 8244   5.972   1.605   3.806
 2449SOL     OW 8245   1.748   4.560   2.003
 2449SOL    HW1 8246   1.684   4.501   1.953
 2449SOL    HW2 8247   1.756   4.527   2.097
 2450SOL     OW 8248   1.459   6.179   6.216
 2450SOL    HW1 8249   1.449   6.243   6.291
 2450SOL    HW2 8250   1.552   6.186   6.179
 2451SOL     OW 8251   0.522   0.091   4.818
 2451SOL    HW1 8252   0.557   0.156   4.751
 2451SOL    HW2 8253   0.474   0.140   4.890
 2452SOL     OW 8254   3.175   1.815   4.215
 2452SOL    HW1 8255   3.098   1.833   4.277
 2452SOL    HW2 8256   3.197   1.718   4.218
 2453SOL     OW 8257   1.038   1.416   6.865
 2453SOL    HW1 8258   1.029   1.465   6.778
 2453SOL    HW2 8259   1.135   1.407   6.888
 2454SOL     OW 8260   3.305   5.628   1.127
 2454SOL    HW1 8261   3.375   5.699   1.131
 2454SOL    HW2 8262   3.326   5.558   1.195
 2455SOL     OW 8263   4.095   1.403   0.221
 2455SOL    HW1 8264   4.156   1.335   0.179
 2455SOL    HW2 8265   4.149   1.482   0.250
 2456SOL     OW 8266   0.872   4.601   6.699
 2456SOL    HW1 8267   0.943   4.562   6.641
 2456SOL    HW2 8268   0.841   4.531   6.764
 2457SOL     OW 8269   5.703   2.087   5.311
 2457SOL    HW1 8270   5.686   2.175   5.267
 2457SOL    HW2 8271   5.615   2.047   5.340
 2458SOL     OW 8272   1.508   6.930   1.949
 2458SOL    HW1 8273   1.568   6.906   1.873
 2458SOL    HW2 8274   1.435   6.990   1.915
 2459SOL     OW 8275   2.529   5.823   1.254
 2459SOL    HW1 8276   2.611   5.796   1.205
 2459SOL    HW2 8277   2.493   5.907   1.214
 2460SOL     OW 8278   1.723   0.665   5.942
 2460SOL    HW1 8279   1.734   0.704   5.851
 2460SOL    HW2 8280   1.626   0.647   5.959
 2461SOL     OW 8281   3.649   1.534   4.577
 2461SOL    HW1 8282   3.649   1.439   4.545
 2461SOL    HW2 8283   3.721   1.547   4.645
 2462SOL     OW 8284   0.166   5.105   0.964
 2462SOL    HW1 8285   0.095   5.151   1.018
 2462SOL    HW2 8286   0.256   5.140   0.991
 2463SOL     OW 8287   6.794   1.202   6.455
 2463SOL    HW1 8288   6.873   1.264   6.450
 2463SOL    HW2 8289   6.755   1.192   6.364
 2464SOL     OW 8290   0.722   1.527   3.370
 2464SOL    HW1 8291   0.797   1.585   3.402
 2464SOL    HW2 8292   0.660   1.508   3.446
 2465SOL     OW 8293   0.831   4.775   5.731
 2465SOL    HW1 8294   0.783   4.757   5.645
 2465SOL    HW2 8295   0.791   4.856   5.774
 2466SOL     OW 8296   1.159   2.453   2.070
 2466SOL    HW1 8297   1.223   2.388   2.028
 2466SOL    HW2 8298   1.093   2.482   2.001
 2467SOL     OW 8299   4.946   1.376   6.035
 2467SOL    HW1 8300   4.906   1.467   6.048
 2467SOL    HW2 8301   5.046   1.385   6.031
 2468SOL     OW 8302   3.501   6.684   5.850
 2468SOL    HW1 8303   3.488   6.781   5.869
 2468SOL    HW2 8304   3.587   6.653   5.891
 2469SOL     OW 8305   3.387   2.646   5.471
 2469SOL    HW1 8306   3.327   2.582   5.519
 2469SOL    HW2 8307   3.469   2.662   5.526
 2470SOL     OW 8308   3.646   5.007   0.060
 2470SOL    HW1 8309   3.583   5.082   0.042
 2470SOL    HW2 8310   3.616   4.957   0.141
 2471SOL     OW 8311   4.349   6.115   1.471
 2471SOL    HW1 8312   4.442   6.149   1.489
 2471SOL    HW2 8313   4.287   6.151   1.541
 2472SOL     OW 8314   4.726   1.755   4.469
 2472SOL    HW1 8315   4.775   1.839   4.447
 2472SOL    HW2 8316   4.650   1.743   4.405
 2473SOL     OW 8317   0.059   4.721   4.888
 2473SOL    HW1 8318   0.035   4.681   4.976
 2473SOL    HW2 8319   0.156   4.745   4.887
 2474SOL     OW 8320   0.705   5.608   1.636
 2474SOL    HW1 8321   0.759   5.585   1.717
 2474SOL    HW2 8322   0.739   5.694   1.597
 2475SOL     OW 8323   5.037   0.240   0.782
 2475SOL    HW1 8324   5.096   0.295   0.722
 2475SOL    HW2 8325   5.092   0.173   0.831
 2476SOL     OW 8326   6.097   0.420   0.520
 2476SOL    HW1 8327   6.089   0.416   0.619
 2476SOL    HW2 8328   6.022   0.369   0.478
 2477SOL     OW 8329   3.486   0.557   3.188
 2477SOL    HW1 8330   3.436   0.503   3.255
 2477SOL    HW2 8331   3.425   0.582   3.113
 2478SOL     OW 8332   4.312   1.930   3.157
 2478SOL    HW1 8333   4.357   1.842   3.149
 2478SOL    HW2 8334   4.285   1.963   3.067
 2479SOL     OW 8335   0.814   3.376   0.771
 2479SOL    HW1 8336   0.781   3.470   0.769
 2479SOL    HW2 8337   0.775   3.325   0.695
 2480SOL     OW 8338   3.158   2.435   1.308
 2480SOL    HW1 8339   3.181   2.362   1.372
 2480SOL    HW2 8340   3.211   2.423   1.223
 2481SOL     OW 8341   3.441   0.884   1.320
 2481SOL    HW1 8342   3.429   0.889   1.419
 2481SOL    HW2 8343   3.407   0.968   1.278
 2482SOL     OW 8344   5.435   3.766   6.842
 2482SOL    HW1 8345   5.387   3.694   6.892
 2482SOL    HW2 8346   5.533   3.761   6.863
 2483SOL     OW 8347   0.799   2.425   0.629
 2483SOL    HW1 8348   0.856   2.475   0.563
 2483SOL    HW2 8349   0.781   2.333   0.595
 2484SOL     OW 8350   5.112   1.399   2.748
 2484SOL    HW1 8351   5.030   1.343   2.739
 2484SOL    HW2 8352   5.190   1.340   2.773
 2485SOL     OW 8353   4.822   2.513   6.259
 2485SOL    HW1 8354   4.798   2.523   6.356
 2485SOL    HW2 8355   4.860   2.600   6.225
 2486SOL     OW 8356   0.121   3.992   5.779
 2486SOL    HW1 8357   0.167   3.908   5.750
 2486SOL    HW2 8358   0.051   4.018   5.712
 2487SOL     OW 8359   4.892   6.213   0.397
 2487SOL    HW1 8360   4.803   6.230   0.438
 2487SOL    HW2 8361   4.941   6.143   0.450
 2488SOL     OW 8362   6.527   4.509   2.253
 2488SOL    HW1 8363   6.617   4.465   2.253
 2488SOL    HW2 8364   6.457   4.442   2.276
 2489SOL     OW 8365   0.124   5.964   3.856
 2489SOL    HW1 8366   0.048   5.905   3.830
 2489SOL    HW2 8367   0.180   5.918   3.925
 2490SOL     OW 8368   1.824   6.082   2.317
 2490SOL    HW1 8369   1.739   6.046   2.356
 2490SOL    HW2 8370   1.889   6.007   2.304
 2491SOL     OW 8371   4.140   4.700   1.604
 2491SOL    HW1 8372   4.120   4.706   1.506
 2491SOL    HW2 8373   4.219   4.641   1.619
 2492SOL     OW 8374   5.005   3.552   1.013
 2492SOL    HW1 8375   5.101   3.536   0.992
 2492SOL    HW2 8376   4.979   3.645   0.984
 2493SOL     OW 8377   6.776   6.553   1.469
 2493SOL    HW1 8378   6.814   6.593   1.552
 2493SOL    HW2 8379   6.677   6.570   1.466
 2494SOL     OW 8380   5.928   2.460   1.751
 2494SOL    HW1 8381   6.011   2.427   1.796
 2494SOL    HW2 8382   5.915   2.412   1.664
 2495SOL     OW 8383   5.632   5.686   3.379
 2495SOL    HW1 8384   5.582   5.655   3.459
 2495SOL    HW2 8385   5.573   5.746   3.324
 2496SOL     OW 8386   0.096   4.069   6.793
 2496SOL    HW1 8387   0.038   4.147   6.814
 2496SOL    HW2 8388   0.076   4.036   6.700
 2497SOL     OW 8389   0.052   0.456   1.297
 2497SOL    HW1 8390   0.031   0.530   1.233
 2497SOL    HW2 8391   0.136   0.410   1.268
 2498SOL     OW 8392   2.988   3.121   5.991
 2498SOL    HW1 8393   3.083   3.137   5.963
 2498SOL    HW2 8394   2.987   3.066   6.074
 2499SOL     OW 8395   6.291   3.074   1.372
 2499SOL    HW1 8396   6.246   3.163   1.358
 2499SOL    HW2 8397   6.323   3.039   1.285
 2500SOL     OW 8398   3.553   3.868   6.015
 2500SOL    HW1 8399   3.462   3.838   5.988
 2500SOL    HW2 8400   3.583   3.817   6.096
 2501SOL     OW 8401   5.840   6.000   0.162
 2501SOL    HW1 8402   5.869   6.088   0.124
 2501SOL    HW2 8403   5.819   5.937   0.087
 2502SOL     OW 8404   2.398   5.899   5.189
 2502SOL    HW1 8405   2.436   5.816   5.147
 2502SOL    HW2 8406   2.310   5.921   5.147
 2503SOL     OW 8407   2.976   6.712   5.632
 2503SOL    HW1 8408   2.994   6.681   5.539
 2503SOL    HW2 8409   2.878   6.712   5.649
 2504SOL     OW 8410   3.053   5.610   3.010
 2504SOL    HW1 8411   3.053   5.607   2.910
 2504SOL    HW2 8412   2.963   5.641   3.042
 2505SOL     OW 8413   0.419   5.870   2.996
 2505SOL    HW1 8414   0.394   5.955   3.041
 2505SOL    HW2 8415   0.491   5.824   3.048
 2506SOL     OW 8416   6.101   3.668   6.219
 2506SOL    HW1 8417   6.090   3.721   6.303
 2506SOL    HW2 8418   6.028   3.691   6.155
 2507SOL     OW 8419   6.922   3.159   0.257
 2507SOL    HW1 8420   6.868   3.212   0.191
 2507SOL    HW2 8421   6.871   3.077   0.284
 2508SOL     OW 8422   2.886   2.255   5.097
 2508SOL    HW1 8423   2.980   2.268   5.067
 2508SOL    HW2 8424   2.883   2.246   5.197
 2509SOL     OW 8425   6.727   3.938   6.976
 2509SOL    HW1 8426   6.745   3.933   6.878
 2509SOL    HW2 8427   6.700   3.847   7.009
 2510SOL     OW 8428   4.031   4.322   1.583
 2510SOL    HW1 8429   4.066   4.252   1.520
 2510SOL    HW2 8430   3.933   4.311   1.593
 2511SOL     OW 8431   2.380   0.997   5.050
 2511SOL    HW1 8432   2.342   1.087   5.028
 2511SOL    HW2 8433   2.480   1.003   5.051
 2512SOL     OW 8434   3.721   4.483   5.300
 2512SOL    HW1 8435   3.768   4.571   5.288
 2512SOL    HW2 8436   3.735   4.427   5.219
 2513SOL     OW 8437   2.318   6.378   5.806
 2513SOL    HW1 8438   2.333   6.392   5.904
 2513SOL    HW2 8439   2.321   6.280   5.785
 2514SOL     OW 8440   0.985   3.465   4.192
 2514SOL    HW1 8441   0.949   3.545   4.143
 2514SOL    HW2 8442   0.963   3.383   4.140
 2515SOL     OW 8443   1.949   0.407   1.430
 2515SOL    HW1 8444   1.934   0.329   1.369
 2515SOL    HW2 8445   2.010   0.473   1.386
 2516SOL     OW 8446   5.011   1.421   3.314
 2516SOL    HW1 8447   5.021   1.428   3.215
 2516SOL    HW2 8448   4.924   1.462   3.342
 2517SOL     OW 8449   1.956   0.391   5.617
 2517SOL    HW1 8450   1.960   0.491   5.613
 2517SOL    HW2 8451   1.898   0.357   5.543
 2518SOL     OW 8452   2.264   5.714   1.136
 2518SOL    HW1 8453   2.281   5.784   1.206
 2518SOL    HW2 8454   2.220   5.635   1.178
 2519SOL     OW 8455   3.298   1.058   1.112
 2519SOL    HW1 8456   3.210   1.021   1.143
 2519SOL    HW2 8457   3.308   1.151   1.146
 2520SOL     OW 8458   3.360   1.887   0.298
 2520SOL    HW1 8459   3.441   1.945   0.305
 2520SOL    HW2 8460   3.307   1.914   0.218
 2521SOL     OW 8461   3.988   1.849   5.163
 2521SOL    HW1 8462   3.931   1.838   5.244
 2521SOL    HW2 8463   4.084   1.851   5.190
 2522SOL     OW 8464   1.286   1.526   5.257
 2522SOL    HW1 8465   1.201   1.544   5.307
 2522SOL    HW2 8466   1.269   1.531   5.159
 2523SOL     OW 8467   1.725   4.243   1.345
 2523SOL    HW1 8468   1.660   4.320   1.350
 2523SOL    HW2 8469   1.731   4.212   1.250
 2524SOL     OW 8470   0.271   6.823   4.334
 2524SOL    HW1 8471   0.174   6.802   4.322
 2524SOL    HW2 8472   0.293   6.907   4.284
 2525SOL     OW 8473   1.171   2.866   4.942
 2525SOL    HW1 8474   1.091   2.885   4.885
 2525SOL    HW2 8475   1.166   2.772   4.976
 2526SOL     OW 8476   1.814   4.841   6.935
 2526SOL    HW1 8477   1.825   4.742   6.923
 2526SOL    HW2 8478   1.769   4.879   6.855
 2527SOL     OW 8479   5.747   5.962   5.565
 2527SOL    HW1 8480   5.726   5.931   5.658
 2527SOL    HW2 8481   5.804   5.893   5.519
 2528SOL     OW 8482   5.535   3.877   5.814
 2528SOL    HW1 8483   5.570   3.969   5.798
 2528SOL    HW2 8484   5.435   3.877   5.802
 2529SOL     OW 8485   0.609   0.720   6.489
 2529SOL    HW1 8486   0.704   0.693   6.502
 2529SOL    HW2 8487   0.604   0.794   6.421
 2530SOL     OW 8488   2.305   6.082   5.678
 2530SOL    HW1 8489   2.348   6.090   5.588
 2530SOL    HW2 8490   2.353   6.013   5.732
 2531SOL     OW 8491   5.357   5.766   5.841
 2531SOL    HW1 8492   5.376   5.670   5.858
 2531SOL    HW2 8493   5.265   5.789   5.871
 2532SOL     OW 8494   0.389   6.109   0.960
 2532SOL    HW1 8495   0.377   6.091   0.862
 2532SOL    HW2 8496   0.486   6.124   0.980
 2533SOL     OW 8497   4.488   1.130   3.313
 2533SOL    HW1 8498   4.398   1.154   3.350
 2533SOL    HW2 8499   4.548   1.103   3.388
 2534SOL     OW 8500   5.194   1.695   2.002
 2534SOL    HW1 8501   5.105   1.651   2.000
 2534SOL    HW2 8502   5.252   1.651   2.071
 2535SOL     OW 8503   3.474   2.659   7.008
 2535SOL    HW1 8504   3.447   2.620   0.068
 2535SOL    HW2 8505   3.469   2.589   6.937
 2536SOL     OW 8506   1.476   0.823   6.057
 2536SOL    HW1 8507   1.489   0.857   5.963
 2536SOL    HW2 8508   1.381   0.839   6.084
 2537SOL     OW 8509   3.355   6.766   6.486
 2537SOL    HW1 8510   3.307   6.714   6.557
 2537SOL    HW2 8511   3.372   6.707   6.407
 2538SOL     OW 8512   0.179   3.917   3.905
 2538SOL    HW1 8513   0.112   3.870   3.962
 2538SOL    HW2 8514   0.233   3.851   3.854
 2539SOL     OW 8515   5.879   0.778   3.619
 2539SOL    HW1 8516   5.892   0.877   3.620
 2539SOL    HW2 8517   5.966   0.733   3.598
 2540SOL     OW 8518   4.255   1.977   2.887
 2540SOL    HW1 8519   4.264   2.047   2.816
 2540SOL    HW2 8520   4.292   1.890   2.854
 2541SOL     OW 8521   2.649   0.287   5.613
 2541SOL    HW1 8522   2.567   0.267   5.667
 2541SOL    HW2 8523   2.693   0.369   5.650
 2542SOL     OW 8524   3.209   4.214   6.883
 2542SOL    HW1 8525   3.224   4.305   6.920
 2542SOL    HW2 8526   3.120   4.179   6.914
 2543SOL     OW 8527   0.912   1.195   4.097
 2543SOL    HW1 8528   0.815   1.175   4.101
 2543SOL    HW2 8529   0.926   1.294   4.097
 2544SOL     OW 8530   0.583   5.842   0.802
 2544SOL    HW1 8531   0.676   5.873   0.781
 2544SOL    HW2 8532   0.564   5.758   0.751
 2545SOL     OW 8533   1.256   0.036   2.222
 2545SOL    HW1 8534   1.286   0.029   2.317
 2545SOL    HW2 8535   1.332   0.068   2.165
 2546SOL     OW 8536   6.498   1.808   0.812
 2546SOL    HW1 8537   6.510   1.906   0.828
 2546SOL    HW2 8538   6.464   1.794   0.719
 2547SOL     OW 8539   0.282   3.577   6.884
 2547SOL    HW1 8540   0.183   3.593   6.874
 2547SOL    HW2 8541   0.324   3.571   6.794
 2548SOL     OW 8542   6.990   6.808   4.306
 2548SOL    HW1 8543   6.892   6.803   4.290
 2548SOL    HW2 8544   0.012   6.799   4.220
 2549SOL     OW 8545   1.072   0.574   1.609
 2549SOL    HW1 8546   1.068   0.485   1.564
 2549SOL    HW2 8547   1.071   0.647   1.540
 2550SOL     OW 8548   6.132   6.636   0.403
 2550SOL    HW1 8549   6.147   6.715   0.344
 2550SOL    HW2 8550   6.047   6.648   0.455
 2551SOL     OW 8551   3.257   4.708   0.549
 2551SOL    HW1 8552   3.339   4.653   0.535
 2551SOL    HW2 8553   3.254   4.782   0.481
 2552SOL     OW 8554   2.764   5.250   4.946
 2552SOL    HW1 8555   2.737   5.156   4.926
 2552SOL    HW2 8556   2.747   5.308   4.866
 2553SOL     OW 8557   3.778   3.649   6.056
 2553SOL    HW1 8558   3.844   3.719   6.029
 2553SOL    HW2 8559   3.727   3.618   5.976
 2554SOL     OW 8560   2.242   1.354   0.346
 2554SOL    HW1 8561   2.253   1.336   0.248
 2554SOL    HW2 8562   2.327   1.330   0.393
 2555SOL     OW 8563   5.285   2.757   4.551
 2555SOL    HW1 8564   5.207   2.817   4.531
 2555SOL    HW2 8565   5.297   2.752   4.650
 2556SOL     OW 8566   3.742   5.942   0.333
 2556SOL    HW1 8567   3.665   5.892   0.294
 2556SOL    HW2 8568   3.806   5.878   0.376
 2557SOL     OW 8569   1.888   3.377   6.790
 2557SOL    HW1 8570   1.793   3.363   6.762
 2557SOL    HW2 8571   1.946   3.306   6.750
 2558SOL     OW 8572   5.328   1.130   5.537
 2558SOL    HW1 8573   5.256   1.136   5.468
 2558SOL    HW2 8574   5.290   1.151   5.627
 2559SOL     OW 8575   1.200   4.029   5.710
 2559SOL    HW1 8576   1.153   3.948   5.744
 2559SOL    HW2 8577   1.288   4.003   5.671
 2560SOL     OW 8578   7.007   2.813   5.837
 2560SOL    HW1 8579   6.979   2.768   5.922
 2560SOL    HW2 8580   0.037   2.893   5.859
 2561SOL     OW 8581   2.891   4.861   4.807
 2561SOL    HW1 8582   2.892   4.761   4.799
 2561SOL    HW2 8583   2.895   4.888   4.903
 2562SOL     OW 8584   2.480   4.462   1.087
 2562SOL    HW1 8585   2.407   4.403   1.052
 2562SOL    HW2 8586   2.563   4.408   1.102
 2563SOL     OW 8587   2.813   0.869   0.476
 2563SOL    HW1 8588   2.901   0.913   0.459
 2563SOL    HW2 8589   2.813   0.831   0.568
 2564SOL     OW 8590   1.386   5.174   0.974
 2564SOL    HW1 8591   1.441   5.198   0.895
 2564SOL    HW2 8592   1.427   5.096   1.022
 2565SOL     OW 8593   0.668   0.641   0.558
 2565SOL    HW1 8594   0.661   0.679   0.466
 2565SOL    HW2 8595   0.642   0.711   0.625
 2566SOL     OW 8596   2.476   6.374   1.245
 2566SOL    HW1 8597   2.437   6.298   1.297
 2566SOL    HW2 8598   2.570   6.353   1.220
 2567SOL     OW 8599   1.189   0.172   0.839
 2567SOL    HW1 8600   1.140   0.253   0.807
 2567SOL    HW2 8601   1.233   0.192   0.927
 2568SOL     OW 8602   4.504   2.666   6.948
 2568SOL    HW1 8603   4.556   2.633   7.027
 2568SOL    HW2 8604   4.532   2.617   6.866
 2569SOL     OW 8605   3.355   1.212   3.219
 2569SOL    HW1 8606   3.325   1.280   3.151
 2569SOL    HW2 8607   3.297   1.219   3.300
 2570SOL     OW 8608   5.711   1.078   5.850
 2570SOL    HW1 8609   5.759   1.135   5.783
 2570SOL    HW2 8610   5.613   1.084   5.834
 2571SOL     OW 8611   1.383   4.819   4.035
 2571SOL    HW1 8612   1.433   4.857   3.956
 2571SOL    HW2 8613   1.308   4.761   4.002
 2572SOL     OW 8614   3.035   4.892   2.887
 2572SOL    HW1 8615   3.008   4.817   2.947
 2572SOL    HW2 8616   2.953   4.936   2.850
 2573SOL     OW 8617   0.627   1.641   0.729
 2573SOL    HW1 8618   0.642   1.651   0.631
 2573SOL    HW2 8619   0.640   1.546   0.755
 2574SOL     OW 8620   5.604   3.305   0.777
 2574SOL    HW1 8621   5.584   3.227   0.836
 2574SOL    HW2 8622   5.599   3.276   0.681
 2575SOL     OW 8623   6.276   5.930   0.050
 2575SOL    HW1 8624   6.282   5.830   0.047
 2575SOL    HW2 8625   6.251   5.959   0.142
 2576SOL     OW 8626   4.558   6.242   4.721
 2576SOL    HW1 8627   4.575   6.271   4.627
 2576SOL    HW2 8628   4.500   6.310   4.767
 2577SOL     OW 8629   2.868   4.964   2.154
 2577SOL    HW1 8630   2.892   4.978   2.250
 2577SOL    HW2 8631   2.951   4.951   2.101
 2578SOL     OW 8632   3.970   1.155   3.935
 2578SOL    HW1 8633   4.021   1.192   4.013
 2578SOL    HW2 8634   3.898   1.219   3.908
 2579SOL     OW 8635   0.188   6.210   3.965
 2579SOL    HW1 8636   0.197   6.115   3.934
 2579SOL    HW2 8637   0.094   6.225   3.997
 2580SOL     OW 8638   2.292   4.693   0.009
 2580SOL    HW1 8639   2.264   4.633   0.083
 2580SOL    HW2 8640   2.220   4.697   6.967
 2581SOL     OW 8641   2.687   6.073   6.393
 2581SOL    HW1 8642   2.591   6.095   6.374
 2581SOL    HW2 8643   2.742   6.156   6.381
 2582SOL     OW 8644   6.980   3.806   1.116
 2582SOL    HW1 8645   6.925   3.866   1.058
 2582SOL    HW2 8646   6.920   3.755   1.177
 2583SOL     OW 8647   0.258   0.302   0.739
 2583SOL    HW1 8648   0.246   0.389   0.787
 2583SOL    HW2 8649   0.273   0.319   0.642
 2584SOL     OW 8650   4.128   5.204   5.559
 2584SOL    HW1 8651   4.057   5.161   5.615
 2584SOL    HW2 8652   4.086   5.269   5.497
 2585SOL     OW 8653   3.106   5.018   6.920
 2585SOL    HW1 8654   3.199   5.045   6.893
 2585SOL    HW2 8655   3.100   5.017   7.020
 2586SOL     OW 8656   2.662   1.365   5.737
 2586SOL    HW1 8657   2.687   1.268   5.742
 2586SOL    HW2 8658   2.591   1.377   5.668
 2587SOL     OW 8659   0.753   0.977   2.937
 2587SOL    HW1 8660   0.800   0.921   2.869
 2587SOL    HW2 8661   0.734   1.068   2.898
 2588SOL     OW 8662   4.127   2.151   5.451
 2588SOL    HW1 8663   4.181   2.235   5.449
 2588SOL    HW2 8664   4.129   2.112   5.543
 2589SOL     OW 8665   0.847   6.350   6.638
 2589SOL    HW1 8666   0.842   6.291   6.718
 2589SOL    HW2 8667   0.890   6.437   6.663
 2590SOL     OW 8668   2.984   5.018   0.471
 2590SOL    HW1 8669   2.961   5.051   0.379
 2590SOL    HW2 8670   2.907   4.965   0.507
 2591SOL     OW 8671   6.210   5.499   3.637
 2591SOL    HW1 8672   6.262   5.583   3.651
 2591SOL    HW2 8673   6.261   5.439   3.575
 2592SOL     OW 8674   2.554   3.937   6.790
 2592SOL    HW1 8675   2.629   4.002   6.784
 2592SOL    HW2 8676   2.575   3.856   6.735
 2593SOL     OW 8677   3.148   5.630   0.924
 2593SOL    HW1 8678   3.185   5.558   0.865
 2593SOL    HW2 8679   3.212   5.649   0.998
 2594SOL     OW 8680   2.472   4.558   5.711
 2594SOL    HW1 8681   2.525   4.476   5.688
 2594SOL    HW2 8682   2.377   4.546   5.681
 2595SOL     OW 8683   1.044   1.439   4.121
 2595SOL    HW1 8684   1.119   1.477   4.065
 2595SOL    HW2 8685   1.064   1.455   4.218
 2596SOL     OW 8686   1.807   3.008   1.411
 2596SOL    HW1 8687   1.830   3.059   1.327
 2596SOL    HW2 8688   1.778   3.072   1.481
 2597SOL     OW 8689   0.690   5.072   6.173
 2597SOL    HW1 8690   0.726   5.102   6.262
 2597SOL    HW2 8691   0.761   5.080   6.104
 2598SOL     OW 8692   5.951   1.645   1.904
 2598SOL    HW1 8693   5.970   1.670   1.999
 2598SOL    HW2 8694   5.942   1.546   1.897
 2599SOL     OW 8695   2.747   6.081   1.920
 2599SOL    HW1 8696   2.745   6.153   1.989
 2599SOL    HW2 8697   2.750   6.122   1.829
 2600SOL     OW 8698   6.457   3.793   4.745
 2600SOL    HW1 8699   6.512   3.840   4.676
 2600SOL    HW2 8700   6.467   3.839   4.833
 2601SOL     OW 8701   1.405   1.487   2.117
 2601SOL    HW1 8702   1.439   1.581   2.128
 2601SOL    HW2 8703   1.318   1.489   2.068
 2602SOL     OW 8704   2.016   4.698   4.021
 2602SOL    HW1 8705   2.091   4.694   4.086
 2602SOL    HW2 8706   1.962   4.781   4.036
 2603SOL     OW 8707   2.902   0.881   2.129
 2603SOL    HW1 8708   2.944   0.869   2.219
 2603SOL    HW2 8709   2.912   0.796   2.077
 2604SOL     OW 8710   5.449   1.733   1.563
 2604SOL    HW1 8711   5.358   1.694   1.577
 2604SOL    HW2 8712   5.494   1.746   1.652
 2605SOL     OW 8713   1.377   3.736   2.154
 2605SOL    HW1 8714   1.440   3.658   2.161
 2605SOL    HW2 8715   1.355   3.753   2.058
 2606SOL     OW 8716   5.253   4.663   1.487
 2606SOL    HW1 8717   5.194   4.600   1.537
 2606SOL    HW2 8718   5.201   4.709   1.416
 2607SOL     OW 8719   1.639   2.532   0.969
 2607SOL    HW1 8720   1.614   2.544   1.065
 2607SOL    HW2 8721   1.588   2.597   0.912
 2608SOL     OW 8722   2.208   6.240   6.693
 2608SOL    HW1 8723   2.153   6.248   6.777
 2608SOL    HW2 8724   2.176   6.162   6.640
 2609SOL     OW 8725   0.618   1.137   1.115
 2609SOL    HW1 8726   0.591   1.172   1.025
 2609SOL    HW2 8727   0.538   1.133   1.174
 2610SOL     OW 8728   0.886   5.133   4.587
 2610SOL    HW1 8729   0.898   5.222   4.631
 2610SOL    HW2 8730   0.878   5.062   4.657
 2611SOL     OW 8731   4.879   6.498   6.978
 2611SOL    HW1 8732   4.886   6.444   0.035
 2611SOL    HW2 8733   4.822   6.578   6.994
 2612SOL     OW 8734   5.283   0.457   4.491
 2612SOL    HW1 8735   5.216   0.485   4.560
 2612SOL    HW2 8736   5.341   0.535   4.467
 2613SOL     OW 8737   0.766   5.876   6.653
 2613SOL    HW1 8738   0.783   5.873   6.555
 2613SOL    HW2 8739   0.675   5.914   6.670
 2614SOL     OW 8740   6.115   1.158   5.997
 2614SOL    HW1 8741   6.112   1.080   5.934
 2614SOL    HW2 8742   6.043   1.149   6.065
 2615SOL     OW 8743   1.242   3.728   1.170
 2615SOL    HW1 8744   1.311   3.706   1.102
 2615SOL    HW2 8745   1.155   3.745   1.124
 2616SOL     OW 8746   1.379   0.669   5.254
 2616SOL    HW1 8747   1.446   0.741   5.273
 2616SOL    HW2 8748   1.287   0.703   5.274
 2617SOL     OW 8749   5.585   0.407   0.498
 2617SOL    HW1 8750   5.561   0.335   0.432
 2617SOL    HW2 8751   5.651   0.370   0.564
 2618SOL     OW 8752   1.520   5.716   5.970
 2618SOL    HW1 8753   1.474   5.801   5.946
 2618SOL    HW2 8754   1.459   5.639   5.952
 2619SOL     OW 8755   4.426   1.780   1.927
 2619SOL    HW1 8756   4.432   1.869   1.972
 2619SOL    HW2 8757   4.330   1.758   1.910
 2620SOL     OW 8758   6.654   6.110   1.755
 2620SOL    HW1 8759   6.646   6.018   1.716
 2620SOL    HW2 8760   6.576   6.165   1.725
 2621SOL     OW 8761   0.742   5.764   2.849
 2621SOL    HW1 8762   0.716   5.860   2.857
 2621SOL    HW2 8763   0.797   5.751   2.766
 2622SOL     OW 8764   2.925   3.476   6.297
 2622SOL    HW1 8765   3.005   3.422   6.323
 2622SOL    HW2 8766   2.842   3.431   6.331
 2623SOL     OW 8767   0.628   6.879   4.079
 2623SOL    HW1 8768   0.611   6.874   3.981
 2623SOL    HW2 8769   0.654   6.788   4.113
 2624SOL     OW 8770   6.784   2.012   4.487
 2624SOL    HW1 8771   6.799   2.086   4.554
 2624SOL    HW2 8772   6.812   2.044   4.396
 2625SOL     OW 8773   1.573   5.347   5.713
 2625SOL    HW1 8774   1.511   5.296   5.773
 2625SOL    HW2 8775   1.664   5.350   5.754
 2626SOL     OW 8776   6.606   6.614   5.259
 2626SOL    HW1 8777   6.539   6.606   5.185
 2626SOL    HW2 8778   6.698   6.608   5.221
 2627SOL     OW 8779   0.988   6.863   5.783
 2627SOL    HW1 8780   0.966   6.960   5.778
 2627SOL    HW2 8781   1.068   6.850   5.840
 2628SOL     OW 8782   1.634   3.909   3.006
 2628SOL    HW1 8783   1.597   3.826   2.967
 2628SOL    HW2 8784   1.734   3.910   2.993
 2629SOL     OW 8785   3.153   4.004   3.147
 2629SOL    HW1 8786   3.077   3.940   3.138
 2629SOL    HW2 8787   3.193   4.021   3.056
 2630SOL     OW 8788   3.974   1.433   3.298
 2630SOL    HW1 8789   3.960   1.429   3.397
 2630SOL    HW2 8790   4.032   1.510   3.275
 2631SOL     OW 8791   5.669   0.530   6.893
 2631SOL    HW1 8792   5.621   0.489   6.971
 2631SOL    HW2 8793   5.648   0.628   6.889
 2632SOL     OW 8794   5.814   4.862   2.159
 2632SOL    HW1 8795   5.857   4.812   2.234
 2632SOL    HW2 8796   5.878   4.930   2.124
 2633SOL     OW 8797   6.801   2.766   5.157
 2633SOL    HW1 8798   6.868   2.708   5.203
 2633SOL    HW2 8799   6.781   2.728   5.067
 2634SOL     OW 8800   6.331   0.078   4.765
 2634SOL    HW1 8801   6.403   0.023   4.807
 2634SOL    HW2 8802   6.280   0.127   4.836
 2635SOL     OW 8803   5.025   5.343   3.851
 2635SOL    HW1 8804   5.005   5.290   3.769
 2635SOL    HW2 8805   5.123   5.352   3.863
 2636SOL     OW 8806   3.971   0.322   5.760
 2636SOL    HW1 8807   3.988   0.400   5.699
 2636SOL    HW2 8808   4.016   0.339   5.848
 2637SOL     OW 8809   1.079   1.579   2.633
 2637SOL    HW1 8810   1.054   1.632   2.715
 2637SOL    HW2 8811   1.111   1.641   2.562
 2638SOL     OW 8812   0.983   0.362   4.405
 2638SOL    HW1 8813   1.006   0.454   4.374
 2638SOL    HW2 8814   0.975   0.361   4.505
 2639SOL     OW 8815   4.768   4.991   4.379
 2639SOL    HW1 8816   4.670   5.012   4.389
 2639SOL    HW2 8817   4.820   5.077   4.380
 2640SOL     OW 8818   0.959   6.857   4.382
 2640SOL    HW1 8819   0.947   6.759   4.366
 2640SOL    HW2 8820   0.917   6.883   4.469
 2641SOL     OW 8821   4.925   2.455   6.945
 2641SOL    HW1 8822   4.837   2.416   6.916
 2641SOL    HW2 8823   4.912   2.504   0.004
 2642SOL     OW 8824   0.252   1.432   3.880
 2642SOL    HW1 8825   0.187   1.456   3.952
 2642SOL    HW2 8826   0.238   1.493   3.801
 2643SOL     OW 8827   1.190   4.112   3.504
 2643SOL    HW1 8828   1.224   4.204   3.520
 2643SOL    HW2 8829   1.130   4.112   3.424
 2644SOL     OW 8830   5.189   5.892   4.925
 2644SOL    HW1 8831   5.242   5.808   4.920
 2644SOL    HW2 8832   5.102   5.880   4.876
 2645SOL     OW 8833   4.651   5.094   3.569
 2645SOL    HW1 8834   4.712   5.167   3.539
 2645SOL    HW2 8835   4.664   5.078   3.667
 2646SOL     OW 8836   0.493   3.518   5.784
 2646SOL    HW1 8837   0.504   3.446   5.852
 2646SOL    HW2 8838   0.583   3.549   5.753
 2647SOL     OW 8839   5.073   6.878   1.676
 2647SOL    HW1 8840   5.017   6.804   1.638
 2647SOL    HW2 8841   5.144   6.903   1.610
 2648SOL     OW 8842   0.360   0.268   4.117
 2648SOL    HW1 8843   0.291   0.305   4.056
 2648SOL    HW2 8844   0.449   0.307   4.094
 2649SOL     OW 8845   4.851   2.548   1.936
 2649SOL    HW1 8846   4.785   2.615   1.970
 2649SOL    HW2 8847   4.889   2.579   1.849
 2650SOL     OW 8848   3.597   5.948   5.292
 2650SOL    HW1 8849   3.509   5.988   5.270
 2650SOL    HW2 8850   3.661   5.964   5.217
 2651SOL     OW 8851   4.245   1.868   5.197
 2651SOL    HW1 8852   4.325   1.813   5.224
 2651SOL    HW2 8853   4.272   1.964   5.189
 2652SOL     OW 8854   5.340   3.442   5.335
 2652SOL    HW1 8855   5.303   3.516   5.279
 2652SOL    HW2 8856   5.269   3.407   5.396
 2653SOL     OW 8857   3.366   6.403   6.680
 2653SOL    HW1 8858   3.274   6.422   6.714
 2653SOL    HW2 8859   3.390   6.307   6.700
 2654SOL     OW 8860   5.393   0.723   0.263
 2654SOL    HW1 8861   5.317   0.786   0.241
 2654SOL    HW2 8862   5.479   0.774   0.263
 2655SOL     OW 8863   5.123   6.285   2.910
 2655SOL    HW1 8864   5.120   6.356   2.980
 2655SOL    HW2 8865   5.162   6.202   2.949
 2656SOL     OW 8866   3.459   5.396   3.614
 2656SOL    HW1 8867   3.465   5.490   3.649
 2656SOL    HW2 8868   3.436   5.334   3.688
 2657SOL     OW 8869   2.476   3.214   0.116
 2657SOL    HW1 8870   2.411   3.232   0.042
 2657SOL    HW2 8871   2.433   3.157   0.185
 2658SOL     OW 8872   4.312   4.500   5.834
 2658SOL    HW1 8873   4.269   4.412   5.856
 2658SOL    HW2 8874   4.339   4.546   5.918
 2659SOL     OW 8875   6.094   2.128   4.683
 2659SOL    HW1 8876   6.059   2.142   4.776
 2659SOL    HW2 8877   6.018   2.123   4.619
 2660SOL     OW 8878   0.952   2.055   1.486
 2660SOL    HW1 8879   1.049   2.065   1.504
 2660SOL    HW2 8880   0.932   1.962   1.454
 2661SOL     OW 8881   1.477   0.752   1.237
 2661SOL    HW1 8882   1.392   0.803   1.226
 2661SOL    HW2 8883   1.552   0.817   1.253
 2662SOL     OW 8884   3.104   0.839   2.718
 2662SOL    HW1 8885   3.175   0.830   2.788
 2662SOL    HW2 8886   3.133   0.791   2.635
 2663SOL     OW 8887   3.959   6.791   6.463
 2663SOL    HW1 8888   3.921   6.707   6.504
 2663SOL    HW2 8889   4.046   6.769   6.419
 2664SOL     OW 8890   4.007   2.710   5.804
 2664SOL    HW1 8891   3.954   2.659   5.872
 2664SOL    HW2 8892   3.955   2.789   5.773
 2665SOL     OW 8893   2.234   4.026   5.371
 2665SOL    HW1 8894   2.281   4.000   5.287
 2665SOL    HW2 8895   2.302   4.047   5.442
 2666SOL     OW 8896   2.081   3.951   2.273
 2666SOL    HW1 8897   2.110   3.875   2.214
 2666SOL    HW2 8898   2.079   4.036   2.219
 2667SOL     OW 8899   5.727   3.939   3.919
 2667SOL    HW1 8900   5.632   3.933   3.888
 2667SOL    HW2 8901   5.729   3.970   4.014
 2668SOL     OW 8902   6.042   1.509   4.403
 2668SOL    HW1 8903   5.966   1.556   4.449
 2668SOL    HW2 8904   6.037   1.526   4.305
 2669SOL     OW 8905   2.349   0.558   0.422
 2669SOL    HW1 8906   2.291   0.640   0.416
 2669SOL    HW2 8907   2.313   0.486   0.363
 2670SOL     OW 8908   6.933   1.397   5.866
 2670SOL    HW1 8909   6.933   1.425   5.770
 2670SOL    HW2 8910   6.966   1.472   5.923
 2671SOL     OW 8911   4.275   5.377   5.926
 2671SOL    HW1 8912   4.227   5.454   5.884
 2671SOL    HW2 8913   4.316   5.407   6.012
 2672SOL     OW 8914   4.135   0.607   1.906
 2672SOL    HW1 8915   4.045   0.643   1.931
 2672SOL    HW2 8916   4.206   0.658   1.954
 2673SOL     OW 8917   5.101   0.175   2.405
 2673SOL    HW1 8918   5.022   0.133   2.359
 2673SOL    HW2 8919   5.139   0.247   2.347
 2674SOL     OW 8920   1.048   5.503   2.931
 2674SOL    HW1 8921   1.022   5.407   2.921
 2674SOL    HW2 8922   0.966   5.561   2.927
 2675SOL     OW 8923   6.094   0.151   4.039
 2675SOL    HW1 8924   6.181   0.191   4.065
 2675SOL    HW2 8925   6.092   0.054   4.065
 2676SOL     OW 8926   3.229   3.695   2.989
 2676SOL    HW1 8927   3.303   3.675   3.053
 2676SOL    HW2 8928   3.163   3.758   3.032
 2677SOL     OW 8929   2.239   4.928   1.576
 2677SOL    HW1 8930   2.282   4.910   1.488
 2677SOL    HW2 8931   2.233   5.027   1.591
 2678SOL     OW 8932   5.684   2.473   2.474
 2678SOL    HW1 8933   5.660   2.502   2.567
 2678SOL    HW2 8934   5.614   2.410   2.440
 2679SOL     OW 8935   2.335   5.166   3.433
 2679SOL    HW1 8936   2.330   5.264   3.414
 2679SOL    HW2 8937   2.314   5.115   3.349
 2680SOL     OW 8938   1.345   1.950   6.885
 2680SOL    HW1 8939   1.390   1.925   6.799
 2680SOL    HW2 8940   1.327   2.048   6.886
 2681SOL     OW 8941   1.480   2.502   5.254
 2681SOL    HW1 8942   1.487   2.408   5.222
 2681SOL    HW2 8943   1.522   2.563   5.186
 2682SOL     OW 8944   4.939   4.171   1.502
 2682SOL    HW1 8945   4.944   4.111   1.582
 2682SOL    HW2 8946   4.851   4.219   1.502
 2683SOL     OW 8947   2.102   4.282   2.739
 2683SOL    HW1 8948   2.132   4.247   2.650
 2683SOL    HW2 8949   2.136   4.221   2.811
 2684SOL     OW 8950   5.458   6.071   2.139
 2684SOL    HW1 8951   5.454   6.043   2.044
 2684SOL    HW2 8952   5.458   5.990   2.198
 2685SOL     OW 8953   0.526   5.782   4.993
 2685SOL    HW1 8954   0.603   5.797   4.931
 2685SOL    HW2 8955   0.503   5.868   5.039
 2686SOL     OW 8956   1.430   1.233   4.348
 2686SOL    HW1 8957   1.383   1.145   4.351
 2686SOL    HW2 8958   1.508   1.226   4.287
 2687SOL     OW 8959   3.884   1.504   2.080
 2687SOL    HW1 8960   3.822   1.457   2.017
 2687SOL    HW2 8961   3.965   1.535   2.030
 2688SOL     OW 8962   3.472   3.060   5.976
 2688SOL    HW1 8963   3.451   3.015   6.063
 2688SOL    HW2 8964   3.550   3.015   5.933
 2689SOL     OW 8965   0.685   4.064   3.062
 2689SOL    HW1 8966   0.671   4.144   3.003
 2689SOL    HW2 8967   0.783   4.050   3.076
 2690SOL     OW 8968   3.316   1.546   6.024
 2690SOL    HW1 8969   3.349   1.527   5.932
 2690SOL    HW2 8970   3.317   1.644   6.041
 2691SOL     OW 8971   0.382   4.524   3.877
 2691SOL    HW1 8972   0.312   4.482   3.819
 2691SOL    HW2 8973   0.427   4.454   3.932
 2692SOL     OW 8974   2.951   5.652   2.779
 2692SOL    HW1 8975   2.889   5.631   2.703
 2692SOL    HW2 8976   2.950   5.750   2.797
 2693SOL     OW 8977   1.594   5.913   3.673
 2693SOL    HW1 8978   1.497   5.898   3.655
 2693SOL    HW2 8979   1.633   5.971   3.601
 2694SOL     OW 8980   3.062   6.851   4.160
 2694SOL    HW1 8981   3.049   6.941   4.117
 2694SOL    HW2 8982   3.141   6.806   4.119
 2695SOL     OW 8983   6.563   5.955   3.051
 2695SOL    HW1 8984   6.633   6.023   3.074
 2695SOL    HW2 8985   6.503   5.941   3.130
 2696SOL     OW 8986   4.877   4.453   5.800
 2696SOL    HW1 8987   4.857   4.549   5.779
 2696SOL    HW2 8988   4.949   4.448   5.870
 2697SOL     OW 8989   3.860   2.443   0.681
 2697SOL    HW1 8990   3.932   2.481   0.739
 2697SOL    HW2 8991   3.774   2.442   0.731
 2698SOL     OW 8992   1.598   4.446   6.246
 2698SOL    HW1 8993   1.663   4.436   6.171
 2698SOL    HW2 8994   1.540   4.526   6.228
 2699SOL     OW 8995   3.579   5.783   2.047
 2699SOL    HW1 8996   3.503   5.769   2.111
 2699SOL    HW2 8997   3.644   5.707   2.057
 2700SOL     OW 8998   2.722   1.812   1.639
 2700SOL    HW1 8999   2.783   1.870   1.585
 2700SOL    HW2 9000   2.671   1.868   1.704
 2701SOL     OW 9001   5.165   2.923   4.812
 2701SOL    HW1 9002   5.077   2.907   4.766
 2701SOL    HW2 9003   5.186   3.021   4.808
 2702SOL     OW 9004   2.470   1.934   4.630
 2702SOL    HW1 9005   2.496   2.017   4.680
 2702SOL    HW2 9006   2.550   1.875   4.618
 2703SOL     OW 9007   1.291   6.648   2.289
 2703SOL    HW1 9008   1.358   6.656   2.216
 2703SOL    HW2 9009   1.208   6.697   2.264
 2704SOL     OW 9010   6.214   6.377   3.173
 2704SOL    HW1 9011   6.185   6.455   3.119
 2704SOL    HW2 9012   6.156   6.298   3.152
 2705SOL     OW 9013   0.452   0.600   4.759
 2705SOL    HW1 9014   0.421   0.694   4.774
 2705SOL    HW2 9015   0.379   0.536   4.784
 2706SOL     OW 9016   6.875   4.236   4.089
 2706SOL    HW1 9017   6.804   4.167   4.079
 2706SOL    HW2 9018   6.851   4.299   4.163
 2707SOL     OW 9019   3.929   0.431   2.893
 2707SOL    HW1 9020   4.026   0.450   2.905
 2707SOL    HW2 9021   3.902   0.454   2.799
 2708SOL     OW 9022   5.382   2.754   7.010
 2708SOL    HW1 9023   5.431   2.822   6.956
 2708SOL    HW2 9024   5.376   2.784   0.078
 2709SOL     OW 9025   5.529   0.386   4.845
 2709SOL    HW1 9026   5.596   0.431   4.905
 2709SOL    HW2 9027   5.438   0.394   4.885
 2710SOL     OW 9028   1.340   2.964   4.013
 2710SOL    HW1 9029   1.430   2.942   4.052
 2710SOL    HW2 9030   1.277   2.888   4.030
 2711SOL     OW 9031   3.603   2.138   3.230
 2711SOL    HW1 9032   3.695   2.179   3.224
 2711SOL    HW2 9033   3.591   2.096   3.320
 2712SOL     OW 9034   4.105   5.338   2.615
 2712SOL    HW1 9035   4.197   5.303   2.603
 2712SOL    HW2 9036   4.053   5.277   2.674
 2713SOL     OW 9037   3.806   4.790   6.705
 2713SOL    HW1 9038   3.863   4.747   6.775
 2713SOL    HW2 9039   3.782   4.722   6.636
 2714SOL     OW 9040   3.345   4.157   0.298
 2714SOL    HW1 9041   3.417   4.143   0.367
 2714SOL    HW2 9042   3.259   4.181   0.344
 2715SOL     OW 9043   4.625   1.085   1.199
 2715SOL    HW1 9044   4.566   1.005   1.200
 2715SOL    HW2 9045   4.594   1.150   1.268
 2716SOL     OW 9046   4.042   1.849   2.662
 2716SOL    HW1 9047   3.969   1.810   2.606
 2716SOL    HW2 9048   4.040   1.948   2.656
 2717SOL     OW 9049   0.840   1.091   2.463
 2717SOL    HW1 9050   0.894   1.175   2.468
 2717SOL    HW2 9051   0.896   1.016   2.429
 2718SOL     OW 9052   0.339   0.198   5.933
 2718SOL    HW1 9053   0.344   0.122   5.997
 2718SOL    HW2 9054   0.368   0.167   5.842
 2719SOL     OW 9055   1.833   3.698   2.187
 2719SOL    HW1 9056   1.790   3.725   2.101
 2719SOL    HW2 9057   1.771   3.720   2.263
 2720SOL     OW 9058   1.159   6.780   5.434
 2720SOL    HW1 9059   1.146   6.737   5.523
 2720SOL    HW2 9060   1.201   6.870   5.447
 2721SOL     OW 9061   3.176   5.674   1.799
 2721SOL    HW1 9062   3.229   5.589   1.795
 2721SOL    HW2 9063   3.239   5.752   1.797
 2722SOL     OW 9064   4.461   5.258   6.820
 2722SOL    HW1 9065   4.426   5.172   6.784
 2722SOL    HW2 9066   4.503   5.311   6.747
 2723SOL     OW 9067   3.413   6.660   0.726
 2723SOL    HW1 9068   3.421   6.641   0.824
 2723SOL    HW2 9069   3.395   6.574   0.678
 2724SOL     OW 9070   1.034   5.891   0.916
 2724SOL    HW1 9071   1.036   5.820   0.987
 2724SOL    HW2 9072   1.044   5.981   0.959
 2725SOL     OW 9073   5.656   3.424   4.873
 2725SOL    HW1 9074   5.589   3.495   4.894
 2725SOL    HW2 9075   5.702   3.395   4.957
 2726SOL     OW 9076   0.427   1.869   1.249
 2726SOL    HW1 9077   0.438   1.965   1.275
 2726SOL    HW2 9078   0.331   1.850   1.230
 2727SOL     OW 9079   2.116   4.158   4.649
 2727SOL    HW1 9080   2.189   4.168   4.581
 2727SOL    HW2 9081   2.110   4.063   4.678
 2728SOL     OW 9082   5.405   5.341   6.608
 2728SOL    HW1 9083   5.409   5.437   6.638
 2728SOL    HW2 9084   5.409   5.338   6.508
 2729SOL     OW 9085   5.480   6.010   5.949
 2729SOL    HW1 9086   5.578   5.988   5.949
 2729SOL    HW2 9087   5.429   5.933   5.911
 2730SOL     OW 9088   0.533   5.716   2.294
 2730SOL    HW1 9089   0.477   5.784   2.341
 2730SOL    HW2 9090   0.519   5.725   2.195
 2731SOL     OW 9091   3.261   3.101   3.423
 2731SOL    HW1 9092   3.258   3.085   3.522
 2731SOL    HW2 9093   3.168   3.099   3.386
 2732SOL     OW 9094   5.443   1.403   1.718
 2732SOL    HW1 9095   5.498   1.400   1.801
 2732SOL    HW2 9096   5.495   1.444   1.643
 2733SOL     OW 9097   0.478   0.440   5.964
 2733SOL    HW1 9098   0.425   0.355   5.960
 2733SOL    HW2 9099   0.500   0.469   5.871
 2734SOL     OW 9100   3.211   5.969   1.833
 2734SOL    HW1 9101   3.187   6.043   1.894
 2734SOL    HW2 9102   3.310   5.967   1.819
 2735SOL     OW 9103   0.810   2.149   1.241
 2735SOL    HW1 9104   0.759   2.123   1.159
 2735SOL    HW2 9105   0.867   2.072   1.270
 2736SOL     OW 9106   4.448   5.814   3.245
 2736SOL    HW1 9107   4.430   5.758   3.326
 2736SOL    HW2 9108   4.431   5.910   3.266
 2737SOL     OW 9109   2.580   1.673   6.710
 2737SOL    HW1 9110   2.667   1.659   6.663
 2737SOL    HW2 9111   2.505   1.657   6.646
 2738SOL     OW 9112   5.743   0.118   1.353
 2738SOL    HW1 9113   5.839   0.092   1.345
 2738SOL    HW2 9114   5.711   0.099   1.446
 2739SOL     OW 9115   0.662   5.473   2.256
 2739SOL    HW1 9116   0.751   5.457   2.298
 2739SOL    HW2 9117   0.620   5.554   2.295
 2740SOL     OW 9118   6.614   6.057   2.793
 2740SOL    HW1 9119   6.590   6.014   2.880
 2740SOL    HW2 9120   6.713   6.064   2.785
 2741SOL     OW 9121   1.184   2.412   4.189
 2741SOL    HW1 9122   1.099   2.445   4.228
 2741SOL    HW2 9123   1.195   2.315   4.209
 2742SOL     OW 9124   3.296   4.784   1.835
 2742SOL    HW1 9125   3.382   4.737   1.853
 2742SOL    HW2 9126   3.297   4.874   1.877
 2743SOL     OW 9127   6.098   4.449   2.362
 2743SOL    HW1 9128   6.092   4.487   2.270
 2743SOL    HW2 9129   6.189   4.408   2.375
 2744SOL     OW 9130   3.548   3.785   2.907
 2744SOL    HW1 9131   3.474   3.756   2.846
 2744SOL    HW2 9132   3.573   3.880   2.885
 2745SOL     OW 9133   6.883   1.085   5.559
 2745SOL    HW1 9134   6.810   1.134   5.606
 2745SOL    HW2 9135   6.844   1.034   5.481
 2746SOL     OW 9136   1.354   0.719   3.272
 2746SOL    HW1 9137   1.364   0.759   3.181
 2746SOL    HW2 9138   1.371   0.620   3.266
 2747SOL     OW 9139   3.664   6.075   1.155
 2747SOL    HW1 9140   3.598   6.150   1.147
 2747SOL    HW2 9141   3.717   6.068   1.070
 2748SOL     OW 9142   4.652   6.766   1.177
 2748SOL    HW1 9143   4.609   6.856   1.189
 2748SOL    HW2 9144   4.581   6.698   1.156
 2749SOL     OW 9145   2.154   3.310   0.519
 2749SOL    HW1 9146   2.209   3.355   0.589
 2749SOL    HW2 9147   2.155   3.364   0.436
 2750SOL     OW 9148   2.287   5.315   2.376
 2750SOL    HW1 9149   2.351   5.381   2.415
 2750SOL    HW2 9150   2.200   5.319   2.425
 2751SOL     OW 9151   1.356   2.948   1.375
 2751SOL    HW1 9152   1.447   2.908   1.389
 2751SOL    HW2 9153   1.343   2.966   1.277
 2752SOL     OW 9154   4.045   4.614   5.781
 2752SOL    HW1 9155   4.143   4.599   5.799
 2752SOL    HW2 9156   3.995   4.529   5.794
 2753SOL     OW 9157   6.135   6.267   4.950
 2753SOL    HW1 9158   6.094   6.265   5.041
 2753SOL    HW2 9159   6.065   6.251   4.881
 2754SOL     OW 9160   0.303   6.269   6.264
 2754SOL    HW1 9161   0.264   6.315   6.184
 2754SOL    HW2 9162   0.400   6.293   6.272
 2755SOL     OW 9163   2.867   6.643   3.468
 2755SOL    HW1 9164   2.925   6.584   3.412
 2755SOL    HW2 9165   2.789   6.675   3.414
 2756SOL     OW 9166   5.375   6.528   0.236
 2756SOL    HW1 9167   5.320   6.449   0.208
 2756SOL    HW2 9168   5.398   6.582   0.154
 2757SOL     OW 9169   0.531   4.870   1.625
 2757SOL    HW1 9170   0.509   4.967   1.632
 2757SOL    HW2 9171   0.454   4.821   1.584
 2758SOL     OW 9172   4.970   0.904   5.800
 2758SOL    HW1 9173   4.937   0.814   5.772
 2758SOL    HW2 9174   4.966   0.911   5.900
 2759SOL     OW 9175   5.663   6.346   4.104
 2759SOL    HW1 9176   5.645   6.257   4.060
 2759SOL    HW2 9177   5.587   6.408   4.084
 2760SOL     OW 9178   2.077   5.180   2.088
 2760SOL    HW1 9179   2.143   5.247   2.054
 2760SOL    HW2 9180   2.101   5.153   2.181
 2761SOL     OW 9181   1.446   5.704   3.316
 2761SOL    HW1 9182   1.538   5.741   3.308
 2761SOL    HW2 9183   1.428   5.639   3.242
 2762SOL     OW 9184   1.387   6.417   5.461
 2762SOL    HW1 9185   1.298   6.412   5.415
 2762SOL    HW2 9186   1.391   6.499   5.517
 2763SOL     OW 9187   5.797   2.495   3.711
 2763SOL    HW1 9188   5.797   2.400   3.679
 2763SOL    HW2 9189   5.821   2.556   3.635
 2764SOL     OW 9190   5.682   0.235   0.879
 2764SOL    HW1 9191   5.596   0.276   0.908
 2764SOL    HW2 9192   5.758   0.287   0.917
 2765SOL     OW 9193   5.607   1.451   1.936
 2765SOL    HW1 9194   5.600   1.531   1.996
 2765SOL    HW2 9195   5.704   1.430   1.920
 2766SOL     OW 9196   5.635   1.508   1.213
 2766SOL    HW1 9197   5.733   1.490   1.208
 2766SOL    HW2 9198   5.589   1.463   1.136
 2767SOL     OW 9199   5.854   3.733   6.111
 2767SOL    HW1 9200   5.887   3.742   6.017
 2767SOL    HW2 9201   5.767   3.780   6.121
 2768SOL     OW 9202   4.863   1.519   6.699
 2768SOL    HW1 9203   4.958   1.490   6.688
 2768SOL    HW2 9204   4.803   1.458   6.646
 2769SOL     OW 9205   6.763   4.009   2.454
 2769SOL    HW1 9206   6.776   4.089   2.513
 2769SOL    HW2 9207   6.779   3.926   2.507
 2770SOL     OW 9208   1.578   5.129   1.964
 2770SOL    HW1 9209   1.501   5.067   1.948
 2770SOL    HW2 9210   1.628   5.099   2.045
 2771SOL     OW 9211   5.474   2.125   1.114
 2771SOL    HW1 9212   5.489   2.066   1.035
 2771SOL    HW2 9213   5.439   2.070   1.190
 2772SOL     OW 9214   4.271   2.672   0.370
 2772SOL    HW1 9215   4.293   2.627   0.457
 2772SOL    HW2 9216   4.255   2.602   0.300
 2773SOL     OW 9217   4.509   4.133   6.086
 2773SOL    HW1 9218   4.536   4.180   6.170
 2773SOL    HW2 9219   4.565   4.167   6.010
 2774SOL     OW 9220   5.928   3.066   1.789
 2774SOL    HW1 9221   5.886   3.024   1.869
 2774SOL    HW2 9222   6.010   3.116   1.816
 2775SOL     OW 9223   7.011   5.585   1.298
 2775SOL    HW1 9224   6.936   5.521   1.318
 2775SOL    HW2 9225   0.006   5.636   1.382
 2776SOL     OW 9226   3.882   6.322   5.878
 2776SOL    HW1 9227   3.855   6.356   5.969
 2776SOL    HW2 9228   3.940   6.390   5.833
 2777SOL     OW 9229   3.245   1.436   2.400
 2777SOL    HW1 9230   3.194   1.455   2.317
 2777SOL    HW2 9231   3.325   1.379   2.378
 2778SOL     OW 9232   2.416   1.966   5.972
 2778SOL    HW1 9233   2.437   2.063   5.974
 2778SOL    HW2 9234   2.449   1.923   6.057
 2779SOL     OW 9235   5.222   0.143   0.002
 2779SOL    HW1 9236   5.254   0.192   0.083
 2779SOL    HW2 9237   5.123   0.133   0.005
 2780SOL     OW 9238   4.552   5.383   6.588
 2780SOL    HW1 9239   4.617   5.322   6.544
 2780SOL    HW2 9240   4.580   5.478   6.574
 2781SOL     OW 9241   6.099   4.420   1.843
 2781SOL    HW1 9242   6.120   4.333   1.888
 2781SOL    HW2 9243   6.180   4.454   1.796
 2782SOL     OW 9244   3.271   2.263   6.393
 2782SOL    HW1 9245   3.357   2.296   6.432
 2782SOL    HW2 9246   3.263   2.295   6.299
 2783SOL     OW 9247   6.897   4.603   5.341
 2783SOL    HW1 9248   6.855   4.587   5.252
 2783SOL    HW2 9249   6.958   4.682   5.335
 2784SOL     OW 9250   1.931   2.810   1.237
 2784SOL    HW1 9251   2.005   2.769   1.289
 2784SOL    HW2 9252   1.877   2.869   1.296
 2785SOL     OW 9253   6.528   1.053   0.182
 2785SOL    HW1 9254   6.434   1.083   0.197
 2785SOL    HW2 9255   6.573   1.038   0.270
 2786SOL     OW 9256   4.141   6.239   0.662
 2786SOL    HW1 9257   4.148   6.297   0.582
 2786SOL    HW2 9258   4.089   6.156   0.639
 2787SOL     OW 9259   1.971   3.044   6.173
 2787SOL    HW1 9260   1.956   3.133   6.130
 2787SOL    HW2 9261   1.993   2.976   6.103
 2788SOL     OW 9262   2.644   4.268   0.399
 2788SOL    HW1 9263   2.706   4.266   0.478
 2788SOL    HW2 9264   2.557   4.226   0.423
 2789SOL     OW 9265   1.059   1.494   3.769
 2789SOL    HW1 9266   1.089   1.400   3.754
 2789SOL    HW2 9267   1.137   1.550   3.799
 2790SOL     OW 9268   3.334   5.123   3.290
 2790SOL    HW1 9269   3.414   5.064   3.286
 2790SOL    HW2 9270   3.334   5.186   3.212
 2791SOL     OW 9271   1.535   4.002   5.231
 2791SOL    HW1 9272   1.622   4.047   5.211
 2791SOL    HW2 9273   1.544   3.951   5.317
 2792SOL     OW 9274   1.248   1.030   5.042
 2792SOL    HW1 9275   1.181   1.062   5.109
 2792SOL    HW2 9276   1.204   1.023   4.953
 2793SOL     OW 9277   5.474   1.299   2.590
 2793SOL    HW1 9278   5.458   1.385   2.638
 2793SOL    HW2 9279   5.561   1.305   2.541
 2794SOL     OW 9280   0.388   1.904   0.091
 2794SOL    HW1 9281   0.452   1.832   0.062
 2794SOL    HW2 9282   0.435   1.968   0.152
 2795SOL     OW 9283   3.112   4.158   1.304
 2795SOL    HW1 9284   3.073   4.072   1.269
 2795SOL    HW2 9285   3.040   4.211   1.349
 2796SOL     OW 9286   6.005   3.839   2.810
 2796SOL    HW1 9287   5.981   3.798   2.898
 2796SOL    HW2 9288   5.921   3.867   2.763
 2797SOL     OW 9289   4.910   5.373   4.805
 2797SOL    HW1 9290   4.816   5.367   4.841
 2797SOL    HW2 9291   4.925   5.299   4.739
 2798SOL     OW 9292   1.008   3.958   3.661
 2798SOL    HW1 9293   0.941   3.988   3.594
 2798SOL    HW2 9294   1.093   4.010   3.650
 2799SOL     OW 9295   6.930   5.296   6.330
 2799SOL    HW1 9296   6.957   5.297   6.234
 2799SOL    HW2 9297   7.004   5.256   6.385
 2800SOL     OW 9298   4.091   4.862   6.991
 2800SOL    HW1 9299   4.091   4.799   6.913
 2800SOL    HW2 9300   4.035   4.942   6.970
 2801SOL     OW 9301   4.822   5.274   2.220
 2801SOL    HW1 9302   4.902   5.255   2.163
 2801SOL    HW2 9303   4.796   5.191   2.269
 2802SOL     OW 9304   3.808   1.583   5.587
 2802SOL    HW1 9305   3.804   1.483   5.580
 2802SOL    HW2 9306   3.718   1.618   5.614
 2803SOL     OW 9307   2.457   6.479   6.095
 2803SOL    HW1 9308   2.395   6.557   6.093
 2803SOL    HW2 9309   2.536   6.497   6.037
 2804SOL     OW 9310   6.752   4.600   3.530
 2804SOL    HW1 9311   6.659   4.635   3.547
 2804SOL    HW2 9312   6.819   4.666   3.566
 2805SOL     OW 9313   5.314   3.063   1.239
 2805SOL    HW1 9314   5.291   2.969   1.216
 2805SOL    HW2 9315   5.391   3.064   1.302
 2806SOL     OW 9316   6.229   5.217   3.231
 2806SOL    HW1 9317   6.154   5.247   3.172
 2806SOL    HW2 9318   6.302   5.178   3.175
 2807SOL     OW 9319   4.377   4.616   3.407
 2807SOL    HW1 9320   4.292   4.651   3.368
 2807SOL    HW2 9321   4.358   4.577   3.497
 2808SOL     OW 9322   5.497   1.543   3.250
 2808SOL    HW1 9323   5.587   1.555   3.208
 2808SOL    HW2 9324   5.478   1.445   3.262
 2809SOL     OW 9325   6.180   2.653   1.316
 2809SOL    HW1 9326   6.190   2.676   1.220
 2809SOL    HW2 9327   6.083   2.652   1.340
 2810SOL     OW 9328   2.660   6.879   5.452
 2810SOL    HW1 9329   2.665   6.789   5.497
 2810SOL    HW2 9330   2.739   6.891   5.392
 2811SOL     OW 9331   0.392   0.730   2.767
 2811SOL    HW1 9332   0.310   0.674   2.760
 2811SOL    HW2 9333   0.453   0.709   2.690
 2812SOL     OW 9334   4.998   3.692   3.056
 2812SOL    HW1 9335   5.001   3.688   2.956
 2812SOL    HW2 9336   5.005   3.600   3.094
 2813SOL     OW 9337   6.297   6.866   5.406
 2813SOL    HW1 9338   6.358   6.803   5.454
 2813SOL    HW2 9339   6.267   6.938   5.469
 2814SOL     OW 9340   4.176   4.278   5.917
 2814SOL    HW1 9341   4.081   4.309   5.905
 2814SOL    HW2 9342   4.198   4.209   5.848
 2815SOL     OW 9343   6.586   1.150   4.243
 2815SOL    HW1 9344   6.536   1.088   4.303
 2815SOL    HW2 9345   6.570   1.244   4.273
 2816SOL     OW 9346   5.857   6.935   3.614
 2816SOL    HW1 9347   5.774   6.987   3.591
 2816SOL    HW2 9348   5.868   6.933   3.714
 2817SOL     OW 9349   1.433   1.144   1.286
 2817SOL    HW1 9350   1.525   1.173   1.313
 2817SOL    HW2 9351   1.387   1.103   1.365
 2818SOL     OW 9352   6.911   4.918   6.247
 2818SOL    HW1 9353   6.856   4.977   6.188
 2818SOL    HW2 9354   7.008   4.941   6.236
 2819SOL     OW 9355   0.250   2.363   0.326
 2819SOL    HW1 9356   0.197   2.335   0.406
 2819SOL    HW2 9357   0.224   2.307   0.248
 2820SOL     OW 9358   0.170   2.234   2.673
 2820SOL    HW1 9359   0.261   2.205   2.644
 2820SOL    HW2 9360   0.160   2.220   2.772
 2821SOL     OW 9361   2.194   4.507   5.584
 2821SOL    HW1 9362   2.152   4.504   5.674
 2821SOL    HW2 9363   2.218   4.415   5.555
 2822SOL     OW 9364   4.665   2.586   0.105
 2822SOL    HW1 9365   4.603   2.564   0.180
 2822SOL    HW2 9366   4.759   2.563   0.131
 2823SOL     OW 9367   2.317   6.622   2.787
 2823SOL    HW1 9368   2.236   6.585   2.832
 2823SOL    HW2 9369   2.291   6.667   2.702
 2824SOL     OW 9370   2.500   1.376   5.111
 2824SOL    HW1 9371   2.404   1.388   5.138
 2824SOL    HW2 9372   2.557   1.373   5.193
 2825SOL     OW 9373   7.006   6.741   1.085
 2825SOL    HW1 9374   7.016   6.654   1.134
 2825SOL    HW2 9375   0.018   6.814   1.140
 2826SOL     OW 9376   5.416   1.931   5.358
 2826SOL    HW1 9377   5.352   2.007   5.352
 2826SOL    HW2 9378   5.365   1.845   5.360
 2827SOL     OW 9379   6.316   1.487   4.749
 2827SOL    HW1 9380   6.324   1.538   4.835
 2827SOL    HW2 9381   6.361   1.538   4.675
 2828SOL     OW 9382   4.149   0.858   6.233
 2828SOL    HW1 9383   4.087   0.936   6.234
 2828SOL    HW2 9384   4.100   0.777   6.199
 2829SOL     OW 9385   3.679   5.446   6.469
 2829SOL    HW1 9386   3.593   5.396   6.453
 2829SOL    HW2 9387   3.731   5.449   6.383
 2830SOL     OW 9388   5.585   3.445   6.351
 2830SOL    HW1 9389   5.554   3.540   6.356
 2830SOL    HW2 9390   5.670   3.441   6.299
 2831SOL     OW 9391   5.469   6.164   4.451
 2831SOL    HW1 9392   5.498   6.069   4.464
 2831SOL    HW2 9393   5.549   6.223   4.447
 2832SOL     OW 9394   0.047   1.501   1.247
 2832SOL    HW1 9395   0.049   1.574   1.178
 2832SOL    HW2 9396   0.123   1.437   1.230
 2833SOL     OW 9397   6.018   2.176   1.998
 2833SOL    HW1 9398   6.054   2.238   2.067
 2833SOL    HW2 9399   5.918   2.177   2.001
 2834SOL     OW 9400   3.265   1.609   6.371
 2834SOL    HW1 9401   3.237   1.516   6.395
 2834SOL    HW2 9402   3.364   1.611   6.356
 2835SOL     OW 9403   0.365   6.852   1.727
 2835SOL    HW1 9404   0.275   6.893   1.745
 2835SOL    HW2 9405   0.431   6.888   1.793
 2836SOL     OW 9406   6.801   6.849   1.643
 2836SOL    HW1 9407   6.704   6.826   1.634
 2836SOL    HW2 9408   6.850   6.773   1.686
 2837SOL     OW 9409   5.354   3.258   3.382
 2837SOL    HW1 9410   5.289   3.232   3.454
 2837SOL    HW2 9411   5.309   3.319   3.317
 2838SOL     OW 9412   2.511   4.644   1.970
 2838SOL    HW1 9413   2.479   4.681   1.883
 2838SOL    HW2 9414   2.610   4.632   1.965
 2839SOL     OW 9415   5.824   1.165   2.040
 2839SOL    HW1 9416   5.900   1.226   2.015
 2839SOL    HW2 9417   5.773   1.139   1.959
 2840SOL     OW 9418   0.174   1.688   4.707
 2840SOL    HW1 9419   0.202   1.782   4.729
 2840SOL    HW2 9420   0.101   1.690   4.639
 2841SOL     OW 9421   0.771   6.277   0.371
 2841SOL    HW1 9422   0.746   6.186   0.406
 2841SOL    HW2 9423   0.690   6.335   0.368
 2842SOL     OW 9424   0.053   3.370   3.934
 2842SOL    HW1 9425   0.025   3.275   3.917
 2842SOL    HW2 9426   0.049   3.422   3.849
 2843SOL     OW 9427   3.405   1.430   4.284
 2843SOL    HW1 9428   3.441   1.349   4.330
 2843SOL    HW2 9429   3.478   1.497   4.272
 2844SOL     OW 9430   1.322   4.093   0.174
 2844SOL    HW1 9431   1.227   4.062   0.166
 2844SOL    HW2 9432   1.323   4.188   0.205
 2845SOL     OW 9433   0.641   3.830   0.185
 2845SOL    HW1 9434   0.732   3.793   0.204
 2845SOL    HW2 9435   0.642   3.875   0.096
 2846SOL     OW 9436   5.172   1.638   6.998
 2846SOL    HW1 9437   5.073   1.652   7.009
 2846SOL    HW2 9438   5.219   1.725   7.013
 2847SOL     OW 9439   6.008   3.909   3.859
 2847SOL    HW1 9440   6.070   3.928   3.936
 2847SOL    HW2 9441   5.916   3.941   3.881
 2848SOL     OW 9442   0.325   4.422   5.445
 2848SOL    HW1 9443   0.384   4.453   5.520
 2848SOL    HW2 9444   0.324   4.322   5.443
 2849SOL     OW 9445   3.318   1.052   0.370
 2849SOL    HW1 9446   3.351   1.145   0.357
 2849SOL    HW2 9447   3.374   0.989   0.316
 2850SOL     OW 9448   3.156   0.137   1.258
 2850SOL    HW1 9449   3.167   0.058   1.318
 2850SOL    HW2 9450   3.227   0.135   1.187
 2851SOL     OW 9451   1.245   4.946   5.370
 2851SOL    HW1 9452   1.218   4.850   5.373
 2851SOL    HW2 9453   1.265   4.978   5.462
 2852SOL     OW 9454   5.905   3.375   6.595
 2852SOL    HW1 9455   5.981   3.354   6.656
 2852SOL    HW2 9456   5.827   3.315   6.617
 2853SOL     OW 9457   3.342   2.683   0.804
 2853SOL    HW1 9458   3.330   2.584   0.796
 2853SOL    HW2 9459   3.331   2.711   0.899
 2854SOL     OW 9460   2.558   0.941   4.189
 2854SOL    HW1 9461   2.505   0.887   4.255
 2854SOL    HW2 9462   2.509   0.946   4.102
 2855SOL     OW 9463   2.119   0.588   5.912
 2855SOL    HW1 9464   2.086   0.606   5.819
 2855SOL    HW2 9465   2.169   0.502   5.914
 2856SOL     OW 9466   2.300   2.552   5.666
 2856SOL    HW1 9467   2.267   2.557   5.572
 2856SOL    HW2 9468   2.398   2.531   5.666
 2857SOL     OW 9469   2.850   1.431   1.498
 2857SOL    HW1 9470   2.823   1.351   1.444
 2857SOL    HW2 9471   2.768   1.477   1.532
 2858SOL     OW 9472   6.641   2.784   2.205
 2858SOL    HW1 9473   6.620   2.699   2.157
 2858SOL    HW2 9474   6.685   2.762   2.293
 2859SOL     OW 9475   4.764   0.963   0.884
 2859SOL    HW1 9476   4.793   1.032   0.951
 2859SOL    HW2 9477   4.840   0.939   0.825
 2860SOL     OW 9478   3.876   1.852   1.680
 2860SOL    HW1 9479   3.815   1.892   1.612
 2860SOL    HW2 9480   3.853   1.888   1.771
 2861SOL     OW 9481   4.546   5.387   5.653
 2861SOL    HW1 9482   4.481   5.314   5.673
 2861SOL    HW2 9483   4.520   5.432   5.568
 2862SOL     OW 9484   5.759   1.955   3.919
 2862SOL    HW1 9485   5.819   2.032   3.942
 2862SOL    HW2 9486   5.779   1.877   3.978
 2863SOL     OW 9487   6.463   2.145   0.189
 2863SOL    HW1 9488   6.480   2.134   0.287
 2863SOL    HW2 9489   6.540   2.108   0.137
 2864SOL     OW 9490   3.849   0.596   0.916
 2864SOL    HW1 9491   3.818   0.677   0.966
 2864SOL    HW2 9492   3.787   0.520   0.935
 2865SOL     OW 9493   4.404   4.295   5.318
 2865SOL    HW1 9494   4.379   4.351   5.239
 2865SOL    HW2 9495   4.488   4.331   5.359
 2866SOL     OW 9496   6.811   6.352   6.806
 2866SOL    HW1 9497   6.764   6.384   6.723
 2866SOL    HW2 9498   6.779   6.260   6.828
 2867SOL     OW 9499   5.917   4.394   2.558
 2867SOL    HW1 9500   5.950   4.341   2.636
 2867SOL    HW2 9501   5.988   4.398   2.488
 2868SOL     OW 9502   0.312   3.805   5.453
 2868SOL    HW1 9503   0.246   3.879   5.454
 2868SOL    HW2 9504   0.311   3.757   5.541
 2869SOL     OW 9505   6.345   0.450   2.499
 2869SOL    HW1 9506   6.290   0.391   2.558
 2869SOL    HW2 9507   6.292   0.475   2.418
 2870SOL     OW 9508   6.564   2.018   3.567
 2870SOL    HW1 9509   6.560   1.920   3.587
 2870SOL    HW2 9510   6.482   2.063   3.603
 2871SOL     OW 9511   1.761   1.898   6.367
 2871SOL    HW1 9512   1.763   1.856   6.458
 2871SOL    HW2 9513   1.827   1.974   6.364
 2872SOL     OW 9514   2.681   1.189   3.927
 2872SOL    HW1 9515   2.780   1.198   3.915
 2872SOL    HW2 9516   2.643   1.278   3.952
 2873SOL     OW 9517   0.450   5.816   2.731
 2873SOL    HW1 9518   0.545   5.848   2.733
 2873SOL    HW2 9519   0.409   5.826   2.822
 2874SOL     OW 9520   5.047   3.917   2.223
 2874SOL    HW1 9521   4.950   3.894   2.221
 2874SOL    HW2 9522   5.093   3.873   2.146
 2875SOL     OW 9523   3.705   6.578   5.986
 2875SOL    HW1 9524   3.702   6.498   6.047
 2875SOL    HW2 9525   3.767   6.646   6.025
 2876SOL     OW 9526   0.853   1.101   1.717
 2876SOL    HW1 9527   0.801   1.016   1.723
 2876SOL    HW2 9528   0.812   1.170   1.777
 2877SOL     OW 9529   3.305   2.961   5.394
 2877SOL    HW1 9530   3.366   2.995   5.323
 2877SOL    HW2 9531   3.353   2.894   5.451
 2878SOL     OW 9532   2.440   4.702   4.795
 2878SOL    HW1 9533   2.519   4.689   4.855
 2878SOL    HW2 9534   2.407   4.613   4.763
 2879SOL     OW 9535   5.041   5.144   6.996
 2879SOL    HW1 9536   5.052   5.231   6.947
 2879SOL    HW2 9537   5.102   5.076   6.957
 2880SOL     OW 9538   6.900   5.963   0.553
 2880SOL    HW1 9539   6.954   6.013   0.486
 2880SOL    HW2 9540   6.934   5.983   0.645
 2881SOL     OW 9541   6.073   6.240   0.949
 2881SOL    HW1 9542   6.162   6.215   0.911
 2881SOL    HW2 9543   6.077   6.239   1.048
 2882SOL     OW 9544   0.413   3.142   2.569
 2882SOL    HW1 9545   0.335   3.127   2.630
 2882SOL    HW2 9546   0.483   3.074   2.588
 2883SOL     OW 9547   3.569   6.754   3.536
 2883SOL    HW1 9548   3.648   6.725   3.589
 2883SOL    HW2 9549   3.554   6.852   3.549
 2884SOL     OW 9550   0.701   6.927   3.344
 2884SOL    HW1 9551   0.701   6.827   3.342
 2884SOL    HW2 9552   0.616   6.960   3.384
 2885SOL     OW 9553   0.373   2.364   2.986
 2885SOL    HW1 9554   0.302   2.299   2.959
 2885SOL    HW2 9555   0.447   2.315   3.031
 2886SOL     OW 9556   1.885   2.552   6.922
 2886SOL    HW1 9557   1.825   2.628   6.900
 2886SOL    HW2 9558   1.976   2.568   6.882
 2887SOL     OW 9559   2.508   0.339   5.197
 2887SOL    HW1 9560   2.550   0.311   5.111
 2887SOL    HW2 9561   2.434   0.275   5.220
 2888SOL     OW 9562   6.831   4.532   6.700
 2888SOL    HW1 9563   6.831   4.596   6.776
 2888SOL    HW2 9564   6.795   4.576   6.618
 2889SOL     OW 9565   1.881   0.829   1.659
 2889SOL    HW1 9566   1.895   0.831   1.560
 2889SOL    HW2 9567   1.797   0.778   1.679
 2890SOL     OW 9568   3.321   0.451   1.255
 2890SOL    HW1 9569   3.261   0.394   1.199
 2890SOL    HW2 9570   3.278   0.467   1.344
 2891SOL     OW 9571   2.309   4.692   3.537
 2891SOL    HW1 9572   2.271   4.666   3.626
 2891SOL    HW2 9573   2.366   4.774   3.548
 2892SOL     OW 9574   3.900   4.069   6.696
 2892SOL    HW1 9575   3.850   4.140   6.745
 2892SOL    HW2 9576   3.991   4.059   6.736
 2893SOL     OW 9577   2.161   6.594   5.992
 2893SOL    HW1 9578   2.171   6.562   6.086
 2893SOL    HW2 9579   2.088   6.543   5.946
 2894SOL     OW 9580   2.829   2.820   6.793
 2894SOL    HW1 9581   2.886   2.852   6.869
 2894SOL    HW2 9582   2.794   2.729   6.813
 2895SOL     OW 9583   3.980   3.149   6.868
 2895SOL    HW1 9584   3.999   3.052   6.882
 2895SOL    HW2 9585   3.884   3.161   6.843
 2896SOL     OW 9586   2.672   5.241   0.394
 2896SOL    HW1 9587   2.671   5.148   0.358
 2896SOL    HW2 9588   2.611   5.247   0.473
 2897SOL     OW 9589   2.120   6.664   3.750
 2897SOL    HW1 9590   2.089   6.592   3.687
 2897SOL    HW2 9591   2.147   6.744   3.697
 2898SOL     OW 9592   4.330   5.193   2.642
 2898SOL    HW1 9593   4.292   5.101   2.657
 2898SOL    HW2 9594   4.337   5.241   2.729
 2899SOL     OW 9595   6.743   0.130   6.403
 2899SOL    HW1 9596   6.803   0.178   6.468
 2899SOL    HW2 9597   6.650   0.163   6.414
 2900SOL     OW 9598   1.105   4.853   5.944
 2900SOL    HW1 9599   1.182   4.798   5.912
 2900SOL    HW2 9600   1.035   4.857   5.873
 2901SOL     OW 9601   2.512   0.793   2.302
 2901SOL    HW1 9602   2.453   0.864   2.340
 2901SOL    HW2 9603   2.455   0.724   2.256
 2902SOL     OW 9604   5.225   6.094   0.396
 2902SOL    HW1 9605   5.179   6.059   0.315
 2902SOL    HW2 9606   5.171   6.073   0.477
 2903SOL     OW 9607   3.275   0.811   2.167
 2903SOL    HW1 9608   3.300   0.839   2.260
 2903SOL    HW2 9609   3.316   0.722   2.147
 2904SOL     OW 9610   2.401   3.363   5.377
 2904SOL    HW1 9611   2.456   3.283   5.399
 2904SOL    HW2 9612   2.339   3.342   5.301
 2905SOL     OW 9613   1.288   0.846   2.643
 2905SOL    HW1 9614   1.320   0.933   2.681
 2905SOL    HW2 9615   1.347   0.819   2.567
 2906SOL     OW 9616   5.060   5.226   2.099
 2906SOL    HW1 9617   5.106   5.186   2.020
 2906SOL    HW2 9618   5.124   5.230   2.176
 2907SOL     OW 9619   0.218   1.724   5.146
 2907SOL    HW1 9620   0.280   1.691   5.075
 2907SOL    HW2 9621   0.178   1.811   5.117
 2908SOL     OW 9622   3.821   6.624   4.583
 2908SOL    HW1 9623   3.773   6.537   4.575
 2908SOL    HW2 9624   3.831   6.649   4.680
 2909SOL     OW 9625   0.662   5.254   4.801
 2909SOL    HW1 9626   0.740   5.274   4.861
 2909SOL    HW2 9627   0.658   5.323   4.729
 2910SOL     OW 9628   3.030   6.735   5.346
 2910SOL    HW1 9629   2.989   6.815   5.302
 2910SOL    HW2 9630   3.014   6.654   5.290
 2911SOL     OW 9631   2.642   5.132   3.346
 2911SOL    HW1 9632   2.654   5.103   3.440
 2911SOL    HW2 9633   2.554   5.099   3.311
 2912SOL     OW 9634   2.892   5.776   0.265
 2912SOL    HW1 9635   2.935   5.844   0.205
 2912SOL    HW2 9636   2.948   5.694   0.269
 2913SOL     OW 9637   1.535   3.506   2.086
 2913SOL    HW1 9638   1.471   3.511   2.009
 2913SOL    HW2 9639   1.628   3.492   2.052
 2914SOL     OW 9640   5.294   4.456   5.880
 2914SOL    HW1 9641   5.263   4.491   5.791
 2914SOL    HW2 9642   5.358   4.381   5.866
 2915SOL     OW 9643   4.126   1.265   4.157
 2915SOL    HW1 9644   4.218   1.229   4.139
 2915SOL    HW2 9645   4.132   1.341   4.223
 2916SOL     OW 9646   6.245   4.491   5.566
 2916SOL    HW1 9647   6.218   4.446   5.651
 2916SOL    HW2 9648   6.250   4.423   5.492
 2917SOL     OW 9649   4.115   6.994   0.660
 2917SOL    HW1 9650   4.076   6.948   0.739
 2917SOL    HW2 9651   4.067   0.053   0.645
 2918SOL     OW 9652   0.475   3.561   3.119
 2918SOL    HW1 9653   0.430   3.527   3.201
 2918SOL    HW2 9654   0.504   3.656   3.133
 2919SOL     OW 9655   6.437   6.879   6.965
 2919SOL    HW1 9656   6.380   6.835   6.896
 2919SOL    HW2 9657   6.467   6.969   6.932
 2920SOL     OW 9658   3.686   2.143   2.542
 2920SOL    HW1 9659   3.679   2.136   2.442
 2920SOL    HW2 9660   3.772   2.187   2.567
 2921SOL     OW 9661   0.001   1.333   2.175
 2921SOL    HW1 9662   0.007   1.330   2.275
 2921SOL    HW2 9663   6.933   1.319   2.148
 2922SOL     OW 9664   5.331   6.796   5.787
 2922SOL    HW1 9665   5.296   6.703   5.802
 2922SOL    HW2 9666   5.260   6.851   5.744
 2923SOL     OW 9667   6.818   4.960   2.527
 2923SOL    HW1 9668   6.814   4.860   2.518
 2923SOL    HW2 9669   6.838   4.984   2.622
 2924SOL     OW 9670   0.854   1.404   5.812
 2924SOL    HW1 9671   0.900   1.396   5.723
 2924SOL    HW2 9672   0.771   1.458   5.801
 2925SOL     OW 9673   5.606   2.603   2.123
 2925SOL    HW1 9674   5.637   2.698   2.124
 2925SOL    HW2 9675   5.642   2.558   2.041
 2926SOL     OW 9676   0.296   1.946   4.777
 2926SOL    HW1 9677   0.287   1.975   4.872
 2926SOL    HW2 9678   0.267   2.020   4.716
 2927SOL     OW 9679   1.229   2.598   2.295
 2927SOL    HW1 9680   1.213   2.527   2.226
 2927SOL    HW2 9681   1.302   2.569   2.357
 2928SOL     OW 9682   0.147   0.604   6.698
 2928SOL    HW1 9683   0.074   0.660   6.660
 2928SOL    HW2 9684   0.146   0.611   6.798
 2929SOL     OW 9685   0.301   0.666   6.028
 2929SOL    HW1 9686   0.221   0.612   6.004
 2929SOL    HW2 9687   0.383   0.609   6.025
 2930SOL     OW 9688   5.025   0.599   4.615
 2930SOL    HW1 9689   4.973   0.535   4.558
 2930SOL    HW2 9690   4.972   0.621   4.697
 2931SOL     OW 9691   4.675   6.299   6.470
 2931SOL    HW1 9692   4.707   6.226   6.530
 2931SOL    HW2 9693   4.754   6.344   6.427
 2932SOL     OW 9694   1.273   4.477   1.978
 2932SOL    HW1 9695   1.349   4.541   1.964
 2932SOL    HW2 9696   1.187   4.523   1.957
 2933SOL     OW 9697   5.500   2.674   3.891
 2933SOL    HW1 9698   5.404   2.698   3.900
 2933SOL    HW2 9699   5.548   2.699   3.975
 2934SOL     OW 9700   3.663   6.690   0.425
 2934SOL    HW1 9701   3.610   6.772   0.443
 2934SOL    HW2 9702   3.666   6.673   0.326
 2935SOL     OW 9703   6.563   3.485   0.981
 2935SOL    HW1 9704   6.642   3.504   0.922
 2935SOL    HW2 9705   6.590   3.488   1.077
 2936SOL     OW 9706   4.802   5.794   0.599
 2936SOL    HW1 9707   4.756   5.708   0.623
 2936SOL    HW2 9708   4.737   5.855   0.555
 2937SOL     OW 9709   3.189   5.382   1.309
 2937SOL    HW1 9710   3.208   5.444   1.385
 2937SOL    HW2 9711   3.090   5.369   1.300
 2938SOL     OW 9712   4.793   5.390   5.323
 2938SOL    HW1 9713   4.694   5.397   5.323
 2938SOL    HW2 9714   4.827   5.397   5.229
 2939SOL     OW 9715   5.867   6.924   5.147
 2939SOL    HW1 9716   5.946   6.949   5.091
 2939SOL    HW2 9717   5.823   6.843   5.109
 2940SOL     OW 9718   5.420   6.934   5.496
 2940SOL    HW1 9719   5.453   0.000   5.482
 2940SOL    HW2 9720   5.388   6.925   5.591
 2941SOL     OW 9721   1.455   2.062   4.991
 2941SOL    HW1 9722   1.461   1.988   5.059
 2941SOL    HW2 9723   1.366   2.059   4.947
 2942SOL     OW 9724   3.230   0.233   2.377
 2942SOL    HW1 9725   3.180   0.200   2.296
 2942SOL    HW2 9726   3.173   0.222   2.458
 2943SOL     OW 9727   5.885   2.890   2.767
 2943SOL    HW1 9728   5.977   2.912   2.735
 2943SOL    HW2 9729   5.818   2.933   2.706
 2944SOL     OW 9730   3.194   4.935   5.732
 2944SOL    HW1 9731   3.247   4.939   5.816
 2944SOL    HW2 9732   3.127   4.862   5.738
 2945SOL     OW 9733   3.919   3.376   3.194
 2945SOL    HW1 9734   3.992   3.386   3.128
 2945SOL    HW2 9735   3.853   3.450   3.183
 2946SOL     OW 9736   6.707   6.137   5.676
 2946SOL    HW1 9737   6.735   6.225   5.715
 2946SOL    HW2 9738   6.690   6.148   5.578
 2947SOL     OW 9739   6.622   3.912   6.377
 2947SOL    HW1 9740   6.565   3.921   6.458
 2947SOL    HW2 9741   6.669   3.999   6.360
 2948SOL     OW 9742   6.706   3.598   5.541
 2948SOL    HW1 9743   6.606   3.604   5.552
 2948SOL    HW2 9744   6.727   3.532   5.468
 2949SOL     OW 9745   1.367   6.546   0.976
 2949SOL    HW1 9746   1.283   6.533   0.923
 2949SOL    HW2 9747   1.438   6.485   0.942
 2950SOL     OW 9748   5.803   3.559   4.377
 2950SOL    HW1 9749   5.851   3.490   4.324
 2950SOL    HW2 9750   5.743   3.612   4.318
 2951SOL     OW 9751   0.190   2.132   0.147
 2951SOL    HW1 9752   0.126   2.179   0.086
 2951SOL    HW2 9753   0.254   2.078   0.093
 2952SOL     OW 9754   1.187   4.485   2.592
 2952SOL    HW1 9755   1.148   4.577   2.589
 2952SOL    HW2 9756   1.287   4.491   2.592
 2953SOL     OW 9757   4.886   2.520   2.275
 2953SOL    HW1 9758   4.803   2.524   2.331
 2953SOL    HW2 9759   4.875   2.451   2.204
 2954SOL     OW 9760   0.519   6.291   1.879
 2954SOL    HW1 9761   0.553   6.385   1.879
 2954SOL    HW2 9762   0.523   6.254   1.786
 2955SOL     OW 9763   0.489   3.443   0.514
 2955SOL    HW1 9764   0.459   3.465   0.607
 2955SOL    HW2 9765   0.496   3.528   0.461
 2956SOL     OW 9766   0.170   5.745   2.989
 2956SOL    HW1 9767   0.174   5.649   2.963
 2956SOL    HW2 9768   0.263   5.780   3.002
 2957SOL     OW 9769   0.647   4.035   1.165
 2957SOL    HW1 9770   0.616   4.126   1.140
 2957SOL    HW2 9771   0.579   3.991   1.223
 2958SOL     OW 9772   1.577   4.574   5.922
 2958SOL    HW1 9773   1.663   4.527   5.938
 2958SOL    HW2 9774   1.594   4.673   5.914
 2959SOL     OW 9775   5.452   4.644   5.988
 2959SOL    HW1 9776   5.540   4.619   5.948
 2959SOL    HW2 9777   5.388   4.568   5.977
 2960SOL     OW 9778   3.049   1.743   0.378
 2960SOL    HW1 9779   3.104   1.665   0.346
 2960SOL    HW2 9780   3.088   1.779   0.463
 2961SOL     OW 9781   5.632   3.760   4.908
 2961SOL    HW1 9782   5.570   3.682   4.899
 2961SOL    HW2 9783   5.614   3.805   4.996
 2962SOL     OW 9784   4.623   1.427   3.502
 2962SOL    HW1 9785   4.525   1.418   3.521
 2962SOL    HW2 9786   4.671   1.348   3.538
 2963SOL     OW 9787   1.739   1.617   6.153
 2963SOL    HW1 9788   1.733   1.716   6.141
 2963SOL    HW2 9789   1.736   1.573   6.064
 2964SOL     OW 9790   1.723   6.824   1.753
 2964SOL    HW1 9791   1.719   6.725   1.749
 2964SOL    HW2 9792   1.816   6.853   1.777
 2965SOL     OW 9793   0.356   0.950   5.037
 2965SOL    HW1 9794   0.384   0.896   4.958
 2965SOL    HW2 9795   0.396   1.041   5.031
 2966SOL     OW 9796   5.156   4.343   3.699
 2966SOL    HW1 9797   5.194   4.255   3.728
 2966SOL    HW2 9798   5.076   4.365   3.754
 2967SOL     OW 9799   5.776   2.532   3.221
 2967SOL    HW1 9800   5.693   2.482   3.195
 2967SOL    HW2 9801   5.853   2.499   3.166
 2968SOL     OW 9802   1.141   4.117   5.204
 2968SOL    HW1 9803   1.206   4.074   5.266
 2968SOL    HW2 9804   1.183   4.199   5.164
 2969SOL     OW 9805   5.624   1.884   4.868
 2969SOL    HW1 9806   5.529   1.853   4.857
 2969SOL    HW2 9807   5.624   1.978   4.904
 2970SOL     OW 9808   1.074   4.513   6.547
 2970SOL    HW1 9809   1.144   4.487   6.614
 2970SOL    HW2 9810   1.113   4.510   6.455
 2971SOL     OW 9811   5.815   3.130   3.998
 2971SOL    HW1 9812   5.895   3.138   3.939
 2971SOL    HW2 9813   5.736   3.101   3.944
 2972SOL     OW 9814   6.277   3.596   6.431
 2972SOL    HW1 9815   6.309   3.594   6.336
 2972SOL    HW2 9816   6.341   3.545   6.489
 2973SOL     OW 9817   5.365   0.841   4.057
 2973SOL    HW1 9818   5.311   0.906   4.111
 2973SOL    HW2 9819   5.311   0.809   3.980
 2974SOL     OW 9820   5.734   4.487   3.083
 2974SOL    HW1 9821   5.786   4.420   3.136
 2974SOL    HW2 9822   5.722   4.570   3.139
 2975SOL     OW 9823   0.827   1.768   5.324
 2975SOL    HW1 9824   0.753   1.790   5.389
 2975SOL    HW2 9825   0.810   1.816   5.238
 2976SOL     OW 9826   3.918   1.296   2.556
 2976SOL    HW1 9827   3.841   1.241   2.524
 2976SOL    HW2 9828   3.962   1.251   2.633
 2977SOL     OW 9829   2.988   0.133   4.245
 2977SOL    HW1 9830   3.081   0.131   4.209
 2977SOL    HW2 9831   2.981   0.070   4.322
 2978SOL     OW 9832   4.676   5.201   0.278
 2978SOL    HW1 9833   4.746   5.141   0.317
 2978SOL    HW2 9834   4.715   5.250   0.199
 2979SOL     OW 9835   3.014   0.074   3.499
 2979SOL    HW1 9836   3.024   0.113   3.407
 2979SOL    HW2 9837   3.046   0.140   3.567
 2980SOL     OW 9838   0.372   6.584   4.221
 2980SOL    HW1 9839   0.355   6.678   4.251
 2980SOL    HW2 9840   0.345   6.520   4.293
 2981SOL     OW 9841   1.481   1.034   5.832
 2981SOL    HW1 9842   1.470   1.062   5.927
 2981SOL    HW2 9843   1.396   1.051   5.782
 2982SOL     OW 9844   4.315   6.162   2.583
 2982SOL    HW1 9845   4.413   6.180   2.576
 2982SOL    HW2 9846   4.282   6.126   2.495
 2983SOL     OW 9847   0.436   0.880   4.282
 2983SOL    HW1 9848   0.456   0.848   4.189
 2983SOL    HW2 9849   0.349   0.841   4.312
 2984SOL     OW 9850   6.323   5.324   1.445
 2984SOL    HW1 9851   6.308   5.410   1.397
 2984SOL    HW2 9852   6.335   5.342   1.543
 2985SOL     OW 9853   0.437   2.188   4.446
 2985SOL    HW1 9854   0.362   2.135   4.406
 2985SOL    HW2 9855   0.411   2.217   4.538
 2986SOL     OW 9856   2.090   3.893   5.608
 2986SOL    HW1 9857   2.104   3.928   5.516
 2986SOL    HW2 9858   2.036   3.958   5.661
 2987SOL     OW 9859   4.649   1.339   4.720
 2987SOL    HW1 9860   4.706   1.257   4.735
 2987SOL    HW2 9861   4.554   1.311   4.704
 2988SOL     OW 9862   1.171   0.310   1.810
 2988SOL    HW1 9863   1.080   0.296   1.773
 2988SOL    HW2 9864   1.233   0.338   1.737
 2989SOL     OW 9865   6.674   4.746   1.392
 2989SOL    HW1 9866   6.666   4.648   1.410
 2989SOL    HW2 9867   6.592   4.777   1.344
 2990SOL     OW 9868   3.183   0.724   2.479
 2990SOL    HW1 9869   3.252   0.790   2.448
 2990SOL    HW2 9870   3.228   0.639   2.506
 2991SOL     OW 9871   0.187   3.973   0.371
 2991SOL    HW1 9872   0.093   3.987   0.341
 2991SOL    HW2 9873   0.198   3.880   0.405
 2992SOL     OW 9874   3.444   5.567   6.330
 2992SOL    HW1 9875   3.444   5.467   6.322
 2992SOL    HW2 9876   3.481   5.606   6.246
 2993SOL     OW 9877   2.167   4.352   1.881
 2993SOL    HW1 9878   2.126   4.278   1.934
 2993SOL    HW2 9879   2.095   4.413   1.848
 2994SOL     OW 9880   5.011   0.504   6.888
 2994SOL    HW1 9881   5.105   0.497   6.921
 2994SOL    HW2 9882   4.951   0.531   6.963
 2995SOL     OW 9883   1.180   2.046   0.371
 2995SOL    HW1 9884   1.176   2.112   0.296
 2995SOL    HW2 9885   1.132   1.963   0.345
 2996SOL     OW 9886   2.822   5.079   5.497
 2996SOL    HW1 9887   2.839   5.174   5.522
 2996SOL    HW2 9888   2.725   5.069   5.471
 2997SOL     OW 9889   5.198   6.073   1.655
 2997SOL    HW1 9890   5.240   6.030   1.735
 2997SOL    HW2 9891   5.254   6.152   1.626
 2998SOL     OW 9892   5.359   5.872   3.876
 2998SOL    HW1 9893   5.450   5.863   3.837
 2998SOL    HW2 9894   5.360   5.940   3.949
 2999SOL     OW 9895   3.222   6.245   3.806
 2999SOL    HW1 9896   3.207   6.203   3.896
 2999SOL    HW2 9897   3.191   6.182   3.735
 3000SOL     OW 9898   1.739   3.670   5.373
 3000SOL    HW1 9899   1.679   3.591   5.385
 3000SOL    HW2 9900   1.801   3.653   5.297
 3001SOL     OW 9901   4.838   0.564   5.936
 3001SOL    HW1 9902   4.749   0.517   5.930
 3001SOL    HW2 9903   4.840   0.641   5.873
 3002SOL     OW 9904   4.475   0.375   5.266
 3002SOL    HW1 9905   4.392   0.319   5.269
 3002SOL    HW2 9906   4.456   0.461   5.219
 3003SOL     OW 9907   2.558   6.377   5.639
 3003SOL    HW1 9908   2.478   6.376   5.699
 3003SOL    HW2 9909   2.609   6.291   5.649
 3004SOL     OW 9910   6.031   3.821   3.614
 3004SOL    HW1 9911   6.031   3.853   3.708
 3004SOL    HW2 9912   5.939   3.790   3.590
 3005SOL     OW 9913   3.394   3.117   1.727
 3005SOL    HW1 9914   3.467   3.055   1.698
 3005SOL    HW2 9915   3.430   3.183   1.793
 3006SOL     OW 9916   5.586   1.055   1.087
 3006SOL    HW1 9917   5.628   1.111   1.015
 3006SOL    HW2 9918   5.622   1.085   1.176
 3007SOL     OW 9919   5.565   5.029   2.487
 3007SOL    HW1 9920   5.539   4.958   2.553
 3007SOL    HW2 9921   5.505   5.023   2.407
 3008SOL     OW 9922   3.441   6.954   5.931
 3008SOL    HW1 9923   3.470   0.018   5.900
 3008SOL    HW2 9924   3.343   6.943   5.915
 3009SOL     OW 9925   0.787   0.503   2.658
 3009SOL    HW1 9926   0.845   0.480   2.736
 3009SOL    HW2 9927   0.791   0.602   2.641
 3010SOL     OW 9928   4.264   5.698   3.038
 3010SOL    HW1 9929   4.322   5.738   3.108
 3010SOL    HW2 9930   4.270   5.753   2.954
 3011SOL     OW 9931   6.049   0.898   6.813
 3011SOL    HW1 9932   6.062   0.953   6.730
 3011SOL    HW2 9933   6.051   0.958   6.893
 3012SOL     OW 9934   0.163   3.579   4.058
 3012SOL    HW1 9935   0.083   3.637   4.045
 3012SOL    HW2 9936   0.146   3.489   4.016
 3013SOL     OW 9937   6.116   5.946   2.246
 3013SOL    HW1 9938   6.046   5.876   2.237
 3013SOL    HW2 9939   6.074   6.032   2.277
 3014SOL     OW 9940   5.363   1.809   3.982
 3014SOL    HW1 9941   5.324   1.882   3.925
 3014SOL    HW2 9942   5.414   1.849   4.058
 3015SOL     OW 9943   2.290   2.326   0.944
 3015SOL    HW1 9944   2.249   2.332   1.035
 3015SOL    HW2 9945   2.258   2.403   0.888
 3016SOL     OW 9946   3.695   5.893   4.142
 3016SOL    HW1 9947   3.667   5.836   4.064
 3016SOL    HW2 9948   3.621   5.957   4.164
 3017SOL     OW 9949   1.090   5.781   1.546
 3017SOL    HW1 9950   1.124   5.702   1.597
 3017SOL    HW2 9951   1.127   5.865   1.586
 3018SOL     OW 9952   4.276   0.339   6.702
 3018SOL    HW1 9953   4.299   0.434   6.681
 3018SOL    HW2 9954   4.217   0.302   6.631
 3019SOL     OW 9955   3.454   6.230   1.078
 3019SOL    HW1 9956   3.531   6.272   1.030
 3019SOL    HW2 9957   3.387   6.300   1.102
 3020SOL     OW 9958   3.188   3.653   2.115
 3020SOL    HW1 9959   3.090   3.656   2.093
 3020SOL    HW2 9960   3.241   3.649   2.031
 3021SOL     OW 9961   1.880   2.106   6.755
 3021SOL    HW1 9962   1.956   2.049   6.722
 3021SOL    HW2 9963   1.902   2.202   6.738
 3022SOL     OW 9964   3.637   6.063   3.031
 3022SOL    HW1 9965   3.717   6.011   3.063
 3022SOL    HW2 9966   3.666   6.154   3.002
 3023SOL     OW 9967   3.617   5.869   3.629
 3023SOL    HW1 9968   3.630   5.845   3.533
 3023SOL    HW2 9969   3.546   5.939   3.637
 3024SOL     OW 9970   3.192   0.827   6.751
 3024SOL    HW1 9971   3.125   0.757   6.777
 3024SOL    HW2 9972   3.160   0.917   6.783
 3025SOL     OW 9973   3.059   3.173   0.528
 3025SOL    HW1 9974   3.062   3.185   0.627
 3025SOL    HW2 9975   2.969   3.139   0.501
 3026SOL     OW 9976   1.312   3.251   1.150
 3026SOL    HW1 9977   1.259   3.167   1.138
 3026SOL    HW2 9978   1.253   3.323   1.186
 3027SOL     OW 9979   3.867   1.139   2.005
 3027SOL    HW1 9980   3.801   1.065   2.010
 3027SOL    HW2 9981   3.832   1.211   1.944
 3028SOL     OW 9982   1.453   4.909   0.005
 3028SOL    HW1 9983   1.495   4.822   7.009
 3028SOL    HW2 9984   1.447   4.967   6.951
 3029SOL     OW 9985   6.002   4.980   5.158
 3029SOL    HW1 9986   5.983   4.888   5.125
 3029SOL    HW2 9987   6.005   4.980   5.258
 3030SOL     OW 9988   0.832   0.980   5.681
 3030SOL    HW1 9989   0.757   1.004   5.743
 3030SOL    HW2 9990   0.842   1.051   5.612
 3031SOL     OW 9991   0.771   3.490   0.060
 3031SOL    HW1 9992   0.708   3.413   0.077
 3031SOL    HW2 9993   0.721   3.564   0.017
 3032SOL     OW 9994   5.094   0.378   6.472
 3032SOL    HW1 9995   5.072   0.427   6.387
 3032SOL    HW2 9996   5.087   0.280   6.457
 3033SOL     OW 9997   0.574   3.638   6.974
 3033SOL    HW1 9998   0.481   3.624   7.007
 3033SOL    HW2 9999   0.587   3.734   6.951
 3034SOL     OW10000   2.398   6.254   3.826
 3034SOL    HW110001   2.371   6.350   3.833
 3034SOL    HW210002   2.444   6.226   3.910
 3035SOL     OW10003   6.637   1.342   0.308
 3035SOL    HW110004   6.724   1.334   0.356
 3035SOL    HW210005   6.643   1.297   0.219
 3036SOL     OW10006   1.586   3.863   7.018
 3036SOL    HW110007   1.543   3.773   7.012
 3036SOL    HW210008   1.533   3.922   0.051
 3037SOL     OW10009   6.496   5.911   4.649
 3037SOL    HW110010   6.443   5.958   4.720
 3037SOL    HW210011   6.514   5.974   4.573
 3038SOL     OW10012   5.559   0.187   6.423
 3038SOL    HW110013   5.476   0.131   6.424
 3038SOL    HW210014   5.534   0.284   6.423
 3039SOL     OW10015   6.855   4.669   2.476
 3039SOL    HW110016   6.772   4.629   2.436
 3039SOL    HW210017   6.918   4.596   2.501
 3040SOL     OW10018   3.556   3.979   6.422
 3040SOL    HW110019   3.613   3.913   6.374
 3040SOL    HW210020   3.461   3.968   6.392
 3041SOL     OW10021   1.957   2.559   5.667
 3041SOL    HW110022   1.867   2.598   5.651
 3041SOL    HW210023   2.025   2.632   5.672
 3042SOL     OW10024   5.118   0.158   2.012
 3042SOL    HW110025   5.057   0.223   2.058
 3042SOL    HW210026   5.194   0.207   1.969
 3043SOL     OW10027   0.808   5.323   0.608
 3043SOL    HW110028   0.782   5.236   0.651
 3043SOL    HW210029   0.747   5.342   0.531
 3044SOL     OW10030   3.283   4.448   5.613
 3044SOL    HW110031   3.276   4.348   5.611
 3044SOL    HW210032   3.355   4.477   5.549
 3045SOL     OW10033   4.920   1.249   2.645
 3045SOL    HW110034   4.941   1.179   2.576
 3045SOL    HW210035   4.822   1.265   2.647
 3046SOL     OW10036   1.584   3.466   5.470
 3046SOL    HW110037   1.595   3.367   5.463
 3046SOL    HW210038   1.487   3.489   5.463
 3047SOL     OW10039   5.835   4.883   1.647
 3047SOL    HW110040   5.765   4.821   1.682
 3047SOL    HW210041   5.862   4.948   1.719
 3048SOL     OW10042   3.985   3.465   1.579
 3048SOL    HW110043   4.023   3.383   1.538
 3048SOL    HW210044   4.059   3.521   1.617
 3049SOL     OW10045   0.933   0.112   1.769
 3049SOL    HW110046   0.868   0.084   1.698
 3049SOL    HW210047   0.887   0.171   1.835
 3050SOL     OW10048   3.040   6.368   4.155
 3050SOL    HW110049   2.942   6.369   4.175
 3050SOL    HW210050   3.084   6.444   4.203
 3051SOL     OW10051   2.666   5.397   6.791
 3051SOL    HW110052   2.595   5.334   6.759
 3051SOL    HW210053   2.753   5.374   6.746
 3052SOL     OW10054   3.747   0.856   2.956
 3052SOL    HW110055   3.787   0.825   2.869
 3052SOL    HW210056   3.740   0.956   2.956
 3053SOL     OW10057   5.998   0.853   0.255
 3053SOL    HW110058   5.929   0.916   0.291
 3053SOL    HW210059   5.953   0.781   0.202
 3054SOL     OW10060   0.212   3.183   0.219
 3054SOL    HW110061   0.271   3.225   0.288
 3054SOL    HW210062   0.117   3.192   0.248
 3055SOL     OW10063   5.576   6.976   3.496
 3055SOL    HW110064   5.513   0.022   3.523
 3055SOL    HW210065   5.554   6.893   3.548
 3056SOL     OW10066   6.522   6.978   0.225
 3056SOL    HW110067   6.451   6.932   0.278
 3056SOL    HW210068   6.479   0.010   0.157
 3057SOL     OW10069   5.179   4.992   2.464
 3057SOL    HW110070   5.199   4.939   2.547
 3057SOL    HW210071   5.166   4.929   2.388
 3058SOL     OW10072   6.517   5.928   1.138
 3058SOL    HW110073   6.563   5.926   1.227
 3058SOL    HW210074   6.528   6.019   1.097
 3059SOL     OW10075   0.733   2.888   5.025
 3059SOL    HW110076   0.681   2.803   5.014
 3059SOL    HW210077   0.731   2.939   4.939
 3060SOL     OW10078   0.537   7.005   0.673
 3060SOL    HW110079   0.621   0.014   0.635
 3060SOL    HW210080   0.504   0.038   0.746
 3061SOL     OW10081   0.090   1.122   4.670
 3061SOL    HW110082   0.178   1.082   4.644
 3061SOL    HW210083   0.105   1.200   4.730
 3062SOL     OW10084   2.624   6.413   1.989
 3062SOL    HW110085   2.710   6.365   1.974
 3062SOL    HW210086   2.565   6.403   1.909
 3063SOL     OW10087   2.222   4.791   2.291
 3063SOL    HW110088   2.231   4.720   2.361
 3063SOL    HW210089   2.307   4.798   2.239
 3064SOL     OW10090   6.279   3.831   3.843
 3064SOL    HW110091   6.246   3.864   3.931
 3064SOL    HW210092   6.203   3.791   3.791
 3065SOL     OW10093   1.924   0.704   6.545
 3065SOL    HW110094   1.843   0.666   6.591
 3065SOL    HW210095   1.919   0.686   6.447
 3066SOL     OW10096   5.906   4.305   0.639
 3066SOL    HW110097   5.846   4.334   0.714
 3066SOL    HW210098   5.873   4.344   0.553
 3067SOL     OW10099   3.903   0.970   4.555
 3067SOL    HW110100   3.827   0.947   4.495
 3067SOL    HW210101   3.980   1.003   4.500
 3068SOL     OW10102   5.903   5.952   0.885
 3068SOL    HW110103   5.937   6.044   0.903
 3068SOL    HW210104   5.847   5.922   0.962
 3069SOL     OW10105   0.521   5.335   1.923
 3069SOL    HW110106   0.503   5.350   1.826
 3069SOL    HW210107   0.617   5.355   1.943
 3070SOL     OW10108   2.267   1.513   2.896
 3070SOL    HW110109   2.168   1.525   2.888
 3070SOL    HW210110   2.288   1.415   2.893
 3071SOL     OW10111   5.725   0.239   3.719
 3071SOL    HW110112   5.729   0.266   3.623
 3071SOL    HW210113   5.812   0.198   3.746
 3072SOL     OW10114   0.661   6.539   1.816
 3072SOL    HW110115   0.584   6.571   1.761
 3072SOL    HW210116   0.747   6.561   1.769
 3073SOL     OW10117   0.787   3.286   4.913
 3073SOL    HW110118   0.830   3.269   5.002
 3073SOL    HW210119   0.775   3.199   4.865
 3074SOL     OW10120   4.795   3.136   0.581
 3074SOL    HW110121   4.732   3.136   0.659
 3074SOL    HW210122   4.743   3.121   0.496
 3075SOL     OW10123   1.882   6.558   1.578
 3075SOL    HW110124   1.872   6.612   1.495
 3075SOL    HW210125   1.938   6.607   1.644
 3076SOL     OW10126   6.726   0.667   4.835
 3076SOL    HW110127   6.817   0.643   4.870
 3076SOL    HW210128   6.672   0.709   4.908
 3077SOL     OW10129   6.013   4.592   3.970
 3077SOL    HW110130   5.920   4.556   3.978
 3077SOL    HW210131   6.078   4.516   3.979
 3078SOL     OW10132   2.115   3.719   2.141
 3078SOL    HW110133   2.017   3.702   2.154
 3078SOL    HW210134   2.157   3.637   2.103
 3079SOL     OW10135   0.979   2.856   4.722
 3079SOL    HW110136   0.967   2.757   4.721
 3079SOL    HW210137   1.000   2.888   4.630
 3080SOL     OW10138   6.441   5.152   1.163
 3080SOL    HW110139   6.350   5.185   1.138
 3080SOL    HW210140   6.447   5.141   1.262
 3081SOL     OW10141   0.398   4.364   6.108
 3081SOL    HW110142   0.301   4.361   6.132
 3081SOL    HW210143   0.412   4.430   6.034
 3082SOL     OW10144   3.629   7.024   2.983
 3082SOL    HW110145   3.703   0.059   3.006
 3082SOL    HW210146   3.667   6.937   2.952
 3083SOL     OW10147   3.424   0.587   2.251
 3083SOL    HW110148   3.485   0.666   2.256
 3083SOL    HW210149   3.455   0.526   2.179
 3084SOL     OW10150   4.372   4.850   3.855
 3084SOL    HW110151   4.307   4.777   3.874
 3084SOL    HW210152   4.407   4.888   3.941
 3085SOL     OW10153   6.858   5.166   3.112
 3085SOL    HW110154   6.903   5.076   3.110
 3085SOL    HW210155   6.869   5.206   3.203
 3086SOL     OW10156   4.377   0.718   1.997
 3086SOL    HW110157   4.462   0.727   2.050
 3086SOL    HW210158   4.346   0.808   1.968
 3087SOL     OW10159   6.200   3.974   3.162
 3087SOL    HW110160   6.223   3.884   3.125
 3087SOL    HW210161   6.192   3.969   3.261
 3088SOL     OW10162   2.544   5.050   5.499
 3088SOL    HW110163   2.558   4.952   5.492
 3088SOL    HW210164   2.512   5.073   5.591
 3089SOL     OW10165   1.173   2.685   0.018
 3089SOL    HW110166   1.246   2.658   0.080
 3089SOL    HW210167   1.193   2.652   6.953
 3090SOL     OW10168   1.691   1.991   1.478
 3090SOL    HW110169   1.789   1.977   1.493
 3090SOL    HW210170   1.666   2.084   1.506
 3091SOL     OW10171   3.337   0.111   0.271
 3091SOL    HW110172   3.285   0.102   0.185
 3091SOL    HW210173   3.310   0.196   0.317
 3092SOL     OW10174   5.596   6.949   0.177
 3092SOL    HW110175   5.658   6.874   0.155
 3092SOL    HW210176   5.588   7.009   0.097
 3093SOL     OW10177   5.916   5.485   5.719
 3093SOL    HW110178   5.881   5.529   5.802
 3093SOL    HW210179   5.850   5.498   5.644
 3094SOL     OW10180   2.930   5.524   5.372
 3094SOL    HW110181   3.007   5.588   5.381
 3094SOL    HW210182   2.939   5.473   5.287
 3095SOL     OW10183   2.425   4.363   4.433
 3095SOL    HW110184   2.511   4.366   4.382
 3095SOL    HW210185   2.373   4.282   4.407
 3096SOL     OW10186   6.274   0.046   4.476
 3096SOL    HW110187   6.267   0.034   4.575
 3096SOL    HW210188   6.328   0.128   4.456
 3097SOL     OW10189   0.761   2.879   0.748
 3097SOL    HW110190   0.778   2.926   0.835
 3097SOL    HW210191   0.789   2.783   0.756
 3098SOL     OW10192   2.483   3.982   0.756
 3098SOL    HW110193   2.529   3.919   0.693
 3098SOL    HW210194   2.550   4.048   0.791
 3099SOL     OW10195   6.989   5.928   4.783
 3099SOL    HW110196   7.021   5.896   4.873
 3099SOL    HW210197   6.894   5.959   4.791
 3100SOL     OW10198   6.850   6.547   5.143
 3100SOL    HW110199   6.874   6.564   5.238
 3100SOL    HW210200   6.911   6.600   5.083
 3101SOL     OW10201   4.384   5.954   5.731
 3101SOL    HW110202   4.334   6.030   5.690
 3101SOL    HW210203   4.430   5.902   5.658
 3102SOL     OW10204   1.515   4.430   1.296
 3102SOL    HW110205   1.432   4.379   1.315
 3102SOL    HW210206   1.542   4.417   1.201
 3103SOL     OW10207   3.252   2.417   1.042
 3103SOL    HW110208   3.310   2.409   0.961
 3103SOL    HW210209   3.164   2.374   1.024
 3104SOL     OW10210   5.396   6.531   4.108
 3104SOL    HW110211   5.400   6.511   4.206
 3104SOL    HW210212   5.303   6.518   4.075
 3105SOL     OW10213   5.643   5.986   3.516
 3105SOL    HW110214   5.670   6.076   3.483
 3105SOL    HW210215   5.555   5.961   3.476
 3106SOL     OW10216   6.417   2.574   2.524
 3106SOL    HW110217   6.348   2.601   2.590
 3106SOL    HW210218   6.395   2.483   2.488
 3107SOL     OW10219   3.037   0.635   3.787
 3107SOL    HW110220   2.986   0.569   3.843
 3107SOL    HW210221   2.981   0.661   3.708
 3108SOL     OW10222   2.323   0.482   4.552
 3108SOL    HW110223   2.350   0.425   4.474
 3108SOL    HW210224   2.237   0.447   4.590
 3109SOL     OW10225   5.062   6.309   2.647
 3109SOL    HW110226   5.068   6.288   2.744
 3109SOL    HW210227   5.154   6.316   2.608
 3110SOL     OW10228   0.172   3.028   3.328
 3110SOL    HW110229   0.095   3.015   3.391
 3110SOL    HW210230   0.142   3.084   3.251
 3111SOL     OW10231   6.055   5.285   4.191
 3111SOL    HW110232   6.139   5.330   4.222
 3111SOL    HW210233   6.057   5.273   4.092
 3112SOL     OW10234   4.359   3.073   6.034
 3112SOL    HW110235   4.282   3.113   5.986
 3112SOL    HW210236   4.440   3.076   5.976
 3113SOL     OW10237   2.377   6.681   4.126
 3113SOL    HW110238   2.401   6.630   4.209
 3113SOL    HW210239   2.398   6.778   4.139
 3114SOL     OW10240   5.305   4.160   6.613
 3114SOL    HW110241   5.300   4.140   6.710
 3114SOL    HW210242   5.219   4.134   6.569
 3115SOL     OW10243   3.491   4.000   0.815
 3115SOL    HW110244   3.488   3.900   0.819
 3115SOL    HW210245   3.421   4.034   0.752
 3116SOL     OW10246   6.512   2.690   6.030
 3116SOL    HW110247   6.608   2.671   6.053
 3116SOL    HW210248   6.493   2.787   6.041
 3117SOL     OW10249   4.299   3.434   5.520
 3117SOL    HW110250   4.350   3.422   5.435
 3117SOL    HW210251   4.322   3.361   5.584
 3118SOL     OW10252   6.288   4.873   6.992
 3118SOL    HW110253   6.353   4.920   6.932
 3118SOL    HW210254   6.205   4.927   7.001
 3119SOL     OW10255   1.914   4.443   5.271
 3119SOL    HW110256   1.871   4.501   5.201
 3119SOL    HW210257   1.843   4.404   5.329
 3120SOL     OW10258   1.914   5.577   4.567
 3120SOL    HW110259   1.831   5.524   4.550
 3120SOL    HW210260   1.992   5.530   4.527
 3121SOL     OW10261   0.220   1.702   2.235
 3121SOL    HW110262   0.255   1.795   2.227
 3121SOL    HW210263   0.291   1.636   2.210
 3122SOL     OW10264   3.187   5.507   6.377
 3122SOL    HW110265   3.282   5.537   6.364
 3122SOL    HW210266   3.154   5.539   6.465
 3123SOL     OW10267   3.464   6.424   3.808
 3123SOL    HW110268   3.389   6.440   3.873
 3123SOL    HW210269   3.433   6.361   3.737
 3124SOL     OW10270   4.938   0.623   5.122
 3124SOL    HW110271   5.017   0.639   5.182
 3124SOL    HW210272   4.866   0.577   5.174
 3125SOL     OW10273   6.422   1.714   5.379
 3125SOL    HW110274   6.333   1.669   5.373
 3125SOL    HW210275   6.479   1.668   5.447
 3126SOL     OW10276   5.122   4.773   6.241
 3126SOL    HW110277   5.170   4.786   6.155
 3126SOL    HW210278   5.042   4.714   6.227
 3127SOL     OW10279   1.641   1.319   3.637
 3127SOL    HW110280   1.672   1.350   3.547
 3127SOL    HW210281   1.698   1.361   3.708
 3128SOL     OW10282   1.919   0.771   0.519
 3128SOL    HW110283   1.937   0.861   0.478
 3128SOL    HW210284   1.999   0.712   0.504
 3129SOL     OW10285   0.115   4.441   5.086
 3129SOL    HW110286   0.069   4.379   5.150
 3129SOL    HW210287   0.103   4.407   4.992
 3130SOL     OW10288   2.324   4.742   2.713
 3130SOL    HW110289   2.418   4.719   2.690
 3130SOL    HW210290   2.302   4.703   2.803
 3131SOL     OW10291   0.734   3.433   2.870
 3131SOL    HW110292   0.666   3.371   2.909
 3131SOL    HW210293   0.824   3.389   2.872
 3132SOL     OW10294   4.963   5.866   5.613
 3132SOL    HW110295   4.997   5.772   5.606
 3132SOL    HW210296   4.903   5.886   5.536
 3133SOL     OW10297   2.146   1.857   4.040
 3133SOL    HW110298   2.186   1.948   4.029
 3133SOL    HW210299   2.219   1.790   4.056
 3134SOL     OW10300   4.787   3.240   1.435
 3134SOL    HW110301   4.775   3.216   1.531
 3134SOL    HW210302   4.721   3.188   1.380
 3135SOL     OW10303   4.212   2.010   4.093
 3135SOL    HW110304   4.182   2.106   4.100
 3135SOL    HW210305   4.148   1.960   4.034
 3136SOL     OW10306   5.717   5.882   6.044
 3136SOL    HW110307   5.719   5.813   5.973
 3136SOL    HW210308   5.746   5.842   6.131
 3137SOL     OW10309   4.913   2.037   4.103
 3137SOL    HW110310   4.907   2.061   4.006
 3137SOL    HW210311   4.822   2.020   4.139
 3138SOL     OW10312   6.222   1.741   4.506
 3138SOL    HW110313   6.318   1.730   4.531
 3138SOL    HW210314   6.183   1.651   4.487
 3139SOL     OW10315   4.825   6.105   5.438
 3139SOL    HW110316   4.742   6.060   5.404
 3139SOL    HW210317   4.824   6.106   5.538
 3140SOL     OW10318   6.759   6.500   6.588
 3140SOL    HW110319   6.856   6.501   6.564
 3140SOL    HW210320   6.742   6.567   6.661
 3141SOL     OW10321   0.700   6.500   0.105
 3141SOL    HW110322   0.792   6.541   0.105
 3141SOL    HW210323   0.640   6.554   0.164
 3142SOL     OW10324   4.895   6.279   6.784
 3142SOL    HW110325   4.922   6.308   6.876
 3142SOL    HW210326   4.915   6.181   6.773
 3143SOL     OW10327   0.089   1.996   6.520
 3143SOL    HW110328   0.158   1.977   6.590
 3143SOL    HW210329   0.134   2.019   6.434
 3144SOL     OW10330   2.050   3.915   0.217
 3144SOL    HW110331   2.103   3.855   0.278
 3144SOL    HW210332   1.957   3.881   0.210
 3145SOL     OW10333   2.674   5.797   2.970
 3145SOL    HW110334   2.699   5.710   3.013
 3145SOL    HW210335   2.700   5.795   2.873
 3146SOL     OW10336   1.306   7.013   3.332
 3146SOL    HW110337   1.217   6.982   3.299
 3146SOL    HW210338   1.308   7.009   3.432
 3147SOL     OW10339   4.548   4.416   0.900
 3147SOL    HW110340   4.607   4.410   0.981
 3147SOL    HW210341   4.532   4.512   0.878
 3148SOL     OW10342   3.937   5.430   3.728
 3148SOL    HW110343   3.865   5.476   3.781
 3148SOL    HW210344   3.895   5.367   3.663
 3149SOL     OW10345   3.021   0.379   5.654
 3149SOL    HW110346   2.954   0.391   5.581
 3149SOL    HW210347   3.052   0.469   5.687
 3150SOL     OW10348   5.275   0.360   4.956
 3150SOL    HW110349   5.289   0.329   5.049
 3150SOL    HW210350   5.271   0.281   4.894
 3151SOL     OW10351   4.822   1.469   6.346
 3151SOL    HW110352   4.848   1.565   6.340
 3151SOL    HW210353   4.902   1.411   6.331
 3152SOL     OW10354   0.513   5.275   1.665
 3152SOL    HW110355   0.433   5.222   1.637
 3152SOL    HW210356   0.540   5.336   1.590
 3153SOL     OW10357   6.392   3.635   1.980
 3153SOL    HW110358   6.312   3.682   2.017
 3153SOL    HW210359   6.472   3.694   1.988
 3154SOL     OW10360   6.226   2.604   6.038
 3154SOL    HW110361   6.321   2.634   6.049
 3154SOL    HW210362   6.220   2.506   6.052
 3155SOL     OW10363   6.178   5.181   1.002
 3155SOL    HW110364   6.169   5.097   0.950
 3155SOL    HW210365   6.234   5.247   0.951
 3156SOL     OW10366   3.884   3.895   3.377
 3156SOL    HW110367   3.815   3.966   3.369
 3156SOL    HW210368   3.872   3.847   3.464
 3157SOL     OW10369   2.130   3.622   4.824
 3157SOL    HW110370   2.160   3.582   4.737
 3157SOL    HW210371   2.042   3.583   4.850
 3158SOL     OW10372   4.798   6.484   1.762
 3158SOL    HW110373   4.716   6.459   1.710
 3158SOL    HW210374   4.789   6.449   1.855
 3159SOL     OW10375   4.925   5.673   6.595
 3159SOL    HW110376   4.915   5.585   6.641
 3159SOL    HW210377   5.022   5.693   6.581
 3160SOL     OW10378   4.780   3.765   6.050
 3160SOL    HW110379   4.831   3.709   6.116
 3160SOL    HW210380   4.683   3.744   6.056
 3161SOL     OW10381   1.714   0.657   2.521
 3161SOL    HW110382   1.810   0.678   2.538
 3161SOL    HW210383   1.676   0.723   2.456
 3162SOL     OW10384   0.448   5.493   6.631
 3162SOL    HW110385   0.476   5.470   6.538
 3162SOL    HW210386   0.484   5.583   6.655
 3163SOL     OW10387   3.590   2.888   6.914
 3163SOL    HW110388   3.667   2.831   6.883
 3163SOL    HW210389   3.540   2.839   6.986
 3164SOL     OW10390   5.321   4.100   0.505
 3164SOL    HW110391   5.330   4.086   0.407
 3164SOL    HW210392   5.350   4.017   0.553
 3165SOL     OW10393   0.709   0.422   2.216
 3165SOL    HW110394   0.692   0.339   2.162
 3165SOL    HW210395   0.736   0.396   2.309
 3166SOL     OW10396   4.541   3.333   6.013
 3166SOL    HW110397   4.582   3.415   6.052
 3166SOL    HW210398   4.502   3.277   6.086
 3167SOL     OW10399   0.397   4.438   1.419
 3167SOL    HW110400   0.444   4.364   1.467
 3167SOL    HW210401   0.463   4.493   1.369
 3168SOL     OW10402   5.616   2.640   0.725
 3168SOL    HW110403   5.687   2.616   0.791
 3168SOL    HW210404   5.654   2.700   0.655
 3169SOL     OW10405   1.073   2.335   5.430
 3169SOL    HW110406   1.158   2.385   5.442
 3169SOL    HW210407   1.045   2.340   5.334
 3170SOL     OW10408   4.415   0.994   6.275
 3170SOL    HW110409   4.484   0.945   6.328
 3170SOL    HW210410   4.338   0.933   6.257
 3171SOL     OW10411   6.357   6.941   2.172
 3171SOL    HW110412   6.426   6.871   2.158
 3171SOL    HW210413   6.266   6.902   2.156
 3172SOL     OW10414   6.110   6.711   5.153
 3172SOL    HW110415   6.115   6.750   5.245
 3172SOL    HW210416   6.085   6.782   5.087
 3173SOL     OW10417   2.369   0.139   1.799
 3173SOL    HW110418   2.274   0.140   1.768
 3173SOL    HW210419   2.371   0.143   1.899
 3174SOL     OW10420   2.985   2.744   6.174
 3174SOL    HW110421   2.939   2.833   6.178
 3174SOL    HW210422   3.074   2.754   6.129
 3175SOL     OW10423   0.985   6.413   0.497
 3175SOL    HW110424   0.948   6.469   0.572
 3175SOL    HW210425   0.913   6.353   0.462
 3176SOL     OW10426   1.303   3.922   6.880
 3176SOL    HW110427   1.238   3.926   6.804
 3176SOL    HW210428   1.351   4.009   6.888
 3177SOL     OW10429   5.389   5.579   5.555
 3177SOL    HW110430   5.334   5.654   5.592
 3177SOL    HW210431   5.341   5.492   5.571
 3178SOL     OW10432   0.262   4.422   2.121
 3178SOL    HW110433   0.343   4.374   2.087
 3178SOL    HW210434   0.292   4.499   2.177
 3179SOL     OW10435   1.629   1.855   2.003
 3179SOL    HW110436   1.695   1.889   2.070
 3179SOL    HW210437   1.664   1.873   1.911
 3180SOL     OW10438   5.688   0.453   5.666
 3180SOL    HW110439   5.721   0.363   5.695
 3180SOL    HW210440   5.588   0.449   5.655
 3181SOL     OW10441   0.957   0.932   3.896
 3181SOL    HW110442   0.952   1.026   3.930
 3181SOL    HW210443   0.956   0.932   3.796
 3182SOL     OW10444   0.727   5.931   5.813
 3182SOL    HW110445   0.826   5.932   5.801
 3182SOL    HW210446   0.697   6.022   5.842
 3183SOL     OW10447   4.706   4.866   1.611
 3183SOL    HW110448   4.681   4.818   1.527
 3183SOL    HW210449   4.802   4.894   1.606
 3184SOL     OW10450   2.592   1.962   2.674
 3184SOL    HW110451   2.642   1.975   2.759
 3184SOL    HW210452   2.523   1.890   2.686
 3185SOL     OW10453   0.007   0.152   5.325
 3185SOL    HW110454   7.004   0.187   5.413
 3185SOL    HW210455   0.106   0.138   5.327
 3186SOL     OW10456   3.388   1.125   2.836
 3186SOL    HW110457   3.368   1.219   2.808
 3186SOL    HW210458   3.469   1.125   2.896
 3187SOL     OW10459   3.506   4.826   0.283
 3187SOL    HW110460   3.431   4.836   0.348
 3187SOL    HW210461   3.548   4.736   0.295
 3188SOL     OW10462   3.870   5.732   3.591
 3188SOL    HW110463   3.839   5.799   3.524
 3188SOL    HW210464   3.796   5.712   3.656
 3189SOL     OW10465   1.640   0.458   3.305
 3189SOL    HW110466   1.658   0.397   3.382
 3189SOL    HW210467   1.542   0.462   3.287
 3190SOL     OW10468   1.712   5.994   1.895
 3190SOL    HW110469   1.659   6.026   1.817
 3190SOL    HW210470   1.761   6.071   1.936
 3191SOL     OW10471   3.942   0.204   0.581
 3191SOL    HW110472   3.890   0.284   0.611
 3191SOL    HW210473   4.033   0.233   0.550
 3192SOL     OW10474   0.264   2.941   2.234
 3192SOL    HW110475   0.302   3.033   2.225
 3192SOL    HW210476   0.196   2.940   2.307
 3193SOL     OW10477   4.263   2.322   5.795
 3193SOL    HW110478   4.273   2.340   5.893
 3193SOL    HW210479   4.214   2.398   5.752
 3194SOL     OW10480   1.389   3.393   6.101
 3194SOL    HW110481   1.336   3.459   6.049
 3194SOL    HW210482   1.331   3.318   6.130
 3195SOL     OW10483   0.919   2.930   3.687
 3195SOL    HW110484   1.013   2.962   3.697
 3195SOL    HW210485   0.920   2.831   3.670
 3196SOL     OW10486   0.034   7.023   4.783
 3196SOL    HW110487   0.091   0.006   4.864
 3196SOL    HW210488   6.969   0.028   4.803
 3197SOL     OW10489   1.168   4.680   3.939
 3197SOL    HW110490   1.076   4.708   3.965
 3197SOL    HW210491   1.166   4.642   3.846
 3198SOL     OW10492   0.735   2.146   6.286
 3198SOL    HW110493   0.773   2.105   6.203
 3198SOL    HW210494   0.764   2.241   6.293
 3199SOL     OW10495   4.695   1.866   2.310
 3199SOL    HW110496   4.724   1.806   2.235
 3199SOL    HW210497   4.598   1.849   2.330
 3200SOL     OW10498   6.284   2.343   0.228
 3200SOL    HW110499   6.340   2.262   0.213
 3200SOL    HW210500   6.312   2.415   0.165
 3201SOL     OW10501   5.015   3.942   3.959
 3201SOL    HW110502   4.978   3.865   3.908
 3201SOL    HW210503   4.940   4.003   3.987
 3202SOL     OW10504   1.711   4.489   2.272
 3202SOL    HW110505   1.676   4.579   2.297
 3202SOL    HW210506   1.785   4.464   2.335
 3203SOL     OW10507   6.513   0.741   1.107
 3203SOL    HW110508   6.529   0.815   1.041
 3203SOL    HW210509   6.578   0.667   1.090
 3204SOL     OW10510   6.943   5.685   1.940
 3204SOL    HW110511   6.976   5.635   1.860
 3204SOL    HW210512   6.970   5.782   1.931
 3205SOL     OW10513   0.772   4.172   5.051
 3205SOL    HW110514   0.830   4.108   4.998
 3205SOL    HW210515   0.796   4.266   5.026
 3206SOL     OW10516   1.159   6.829   6.037
 3206SOL    HW110517   1.156   6.752   6.100
 3206SOL    HW210518   1.175   6.913   6.088
 3207SOL     OW10519   0.950   1.133   4.941
 3207SOL    HW110520   0.938   1.076   4.860
 3207SOL    HW210521   1.013   1.207   4.921
 3208SOL     OW10522   4.786   5.856   4.959
 3208SOL    HW110523   4.748   5.929   5.015
 3208SOL    HW210524   4.884   5.873   4.943
 3209SOL     OW10525   2.518   0.680   4.037
 3209SOL    HW110526   2.602   0.699   4.088
 3209SOL    HW210527   2.459   0.620   4.090
 3210SOL     OW10528   6.260   4.472   2.629
 3210SOL    HW110529   6.325   4.420   2.573
 3210SOL    HW210530   6.242   4.561   2.586
 3211SOL     OW10531   1.984   4.539   1.859
 3211SOL    HW110532   2.011   4.623   1.811
 3211SOL    HW210533   1.910   4.559   1.922
 3212SOL     OW10534   5.385   2.208   6.872
 3212SOL    HW110535   5.375   2.246   6.964
 3212SOL    HW210536   5.447   2.129   6.875
 3213SOL     OW10537   5.793   5.865   2.448
 3213SOL    HW110538   5.763   5.821   2.533
 3213SOL    HW210539   5.800   5.963   2.462
 3214SOL     OW10540   3.868   5.567   6.617
 3214SOL    HW110541   3.797   5.517   6.567
 3214SOL    HW210542   3.828   5.608   6.699
 3215SOL     OW10543   5.985   2.314   6.431
 3215SOL    HW110544   6.060   2.358   6.381
 3215SOL    HW210545   5.906   2.375   6.433
 3216SOL     OW10546   5.731   6.921   2.850
 3216SOL    HW110547   5.756   6.946   2.943
 3216SOL    HW210548   5.785   6.842   2.820
 3217SOL     OW10549   6.769   4.341   2.436
 3217SOL    HW110550   6.856   4.380   2.465
 3217SOL    HW210551   6.754   4.363   2.339
 3218SOL     OW10552   3.777   0.832   3.679
 3218SOL    HW110553   3.693   0.790   3.712
 3218SOL    HW210554   3.818   0.774   3.609
 3219SOL     OW10555   0.155   0.821   3.193
 3219SOL    HW110556   0.071   0.793   3.240
 3219SOL    HW210557   0.140   0.909   3.149
 3220SOL     OW10558   0.169   4.684   5.173
 3220SOL    HW110559   0.090   4.740   5.199
 3220SOL    HW210560   0.143   4.588   5.173
 3221SOL     OW10561   2.887   6.871   3.609
 3221SOL    HW110562   2.931   6.956   3.581
 3221SOL    HW210563   2.905   6.800   3.541
 3222SOL     OW10564   5.963   2.468   3.039
 3222SOL    HW110565   5.925   2.481   2.948
 3222SOL    HW210566   6.001   2.555   3.072
 3223SOL     OW10567   2.079   5.071   6.167
 3223SOL    HW110568   2.140   5.003   6.128
 3223SOL    HW210569   2.076   5.061   6.267
 3224SOL     OW10570   4.325   4.847   0.849
 3224SOL    HW110571   4.248   4.784   0.857
 3224SOL    HW210572   4.303   4.920   0.785
 3225SOL     OW10573   2.307   3.530   0.635
 3225SOL    HW110574   2.393   3.516   0.586
 3225SOL    HW210575   2.277   3.625   0.623
 3226SOL     OW10576   1.429   0.668   3.720
 3226SOL    HW110577   1.443   0.617   3.806
 3226SOL    HW210578   1.513   0.666   3.666
 3227SOL     OW10579   3.502   1.100   5.593
 3227SOL    HW110580   3.458   1.189   5.602
 3227SOL    HW210581   3.455   1.046   5.523
 3228SOL     OW10582   5.665   3.934   4.695
 3228SOL    HW110583   5.686   3.850   4.746
 3228SOL    HW210584   5.567   3.954   4.703
 3229SOL     OW10585   4.162   1.359   5.218
 3229SOL    HW110586   4.182   1.342   5.314
 3229SOL    HW210587   4.064   1.350   5.201
 3230SOL     OW10588   1.098   0.509   4.024
 3230SOL    HW110589   1.138   0.552   3.943
 3230SOL    HW210590   1.001   0.532   4.029
 3231SOL     OW10591   5.903   6.327   0.568
 3231SOL    HW110592   5.869   6.270   0.493
 3231SOL    HW210593   5.923   6.419   0.535
 3232SOL     OW10594   2.805   4.754   4.393
 3232SOL    HW110595   2.728   4.719   4.447
 3232SOL    HW210596   2.825   4.690   4.318
 3233SOL     OW10597   0.141   4.057   1.798
 3233SOL    HW110598   0.229   4.010   1.802
 3233SOL    HW210599   0.119   4.093   1.889
 3234SOL     OW10600   0.438   1.822   6.213
 3234SOL    HW110601   0.523   1.856   6.253
 3234SOL    HW210602   0.402   1.748   6.269
 3235SOL     OW10603   5.447   6.928   2.847
 3235SOL    HW110604   5.535   6.909   2.804
 3235SOL    HW210605   5.402   7.004   2.801
 3236SOL     OW10606   0.471   3.178   2.258
 3236SOL    HW110607   0.451   3.197   2.354
 3236SOL    HW210608   0.421   3.242   2.200
 3237SOL     OW10609   3.010   0.126   4.701
 3237SOL    HW110610   3.062   0.176   4.632
 3237SOL    HW210611   2.949   0.061   4.655
 3238SOL     OW10612   0.249   6.042   6.140
 3238SOL    HW110613   0.274   6.110   6.209
 3238SOL    HW210614   0.190   6.084   6.071
 3239SOL     OW10615   6.416   7.010   5.190
 3239SOL    HW110616   6.355   0.061   5.202
 3239SOL    HW210617   6.388   6.937   5.252
 3240SOL     OW10618   1.531   0.336   4.736
 3240SOL    HW110619   1.554   0.371   4.645
 3240SOL    HW210620   1.553   0.405   4.804
 3241SOL     OW10621   4.793   0.815   3.493
 3241SOL    HW110622   4.774   0.771   3.405
 3241SOL    HW210623   4.757   0.908   3.492
 3242SOL     OW10624   3.928   6.499   0.111
 3242SOL    HW110625   3.841   6.483   0.158
 3242SOL    HW210626   3.997   6.434   0.145
 3243SOL     OW10627   4.153   5.039   0.755
 3243SOL    HW110628   4.078   4.999   0.703
 3243SOL    HW210629   4.234   5.044   0.698
 3244SOL     OW10630   3.069   6.408   6.704
 3244SOL    HW110631   2.978   6.429   6.668
 3244SOL    HW210632   3.115   6.343   6.644
 3245SOL     OW10633   3.482   2.165   6.796
 3245SOL    HW110634   3.505   2.093   6.860
 3245SOL    HW210635   3.515   2.140   6.704
 3246SOL     OW10636   5.689   6.073   3.036
 3246SOL    HW110637   5.782   6.079   3.000
 3246SOL    HW210638   5.662   6.161   3.076
 3247SOL     OW10639   0.764   2.499   4.075
 3247SOL    HW110640   0.746   2.507   3.977
 3247SOL    HW210641   0.726   2.413   4.109
 3248SOL     OW10642   6.480   3.267   1.646
 3248SOL    HW110643   6.500   3.208   1.724
 3248SOL    HW210644   6.459   3.359   1.679
 3249SOL     OW10645   2.305   4.828   5.257
 3249SOL    HW110646   2.385   4.816   5.317
 3249SOL    HW210647   2.275   4.923   5.260
 3250SOL     OW10648   5.000   6.792   2.179
 3250SOL    HW110649   4.919   6.755   2.134
 3250SOL    HW210650   5.054   6.844   2.112
 3251SOL     OW10651   3.765   1.750   2.908
 3251SOL    HW110652   3.741   1.783   2.816
 3251SOL    HW210653   3.686   1.701   2.947
 3252SOL     OW10654   2.864   1.150   2.340
 3252SOL    HW110655   2.900   1.057   2.341
 3252SOL    HW210656   2.928   1.211   2.293
 3253SOL     OW10657   5.455   3.028   0.866
 3253SOL    HW110658   5.518   3.056   0.939
 3253SOL    HW210659   5.372   2.990   0.908
 3254SOL     OW10660   5.026   4.125   3.125
 3254SOL    HW110661   5.007   4.222   3.129
 3254SOL    HW210662   5.105   4.109   3.065
 3255SOL     OW10663   4.670   5.584   0.258
 3255SOL    HW110664   4.583   5.570   0.210
 3255SOL    HW210665   4.744   5.590   0.191
 3256SOL     OW10666   5.464   6.493   5.239
 3256SOL    HW110667   5.552   6.484   5.192
 3256SOL    HW210668   5.478   6.540   5.326
 3257SOL     OW10669   1.812   2.758   0.991
 3257SOL    HW110670   1.737   2.695   1.013
 3257SOL    HW210671   1.864   2.780   1.073
 3258SOL     OW10672   5.583   6.459   2.264
 3258SOL    HW110673   5.576   6.538   2.203
 3258SOL    HW210674   5.495   6.443   2.308
 3259SOL     OW10675   4.411   0.264   4.092
 3259SOL    HW110676   4.473   0.214   4.152
 3259SOL    HW210677   4.459   0.291   4.009
 3260SOL     OW10678   1.868   2.193   0.100
 3260SOL    HW110679   1.874   2.162   0.005
 3260SOL    HW210680   1.792   2.148   0.146
 3261SOL     OW10681   4.443   6.938   1.161
 3261SOL    HW110682   4.424   6.931   1.063
 3261SOL    HW210683   4.418   0.001   1.194
 3262SOL     OW10684   3.893   1.820   3.250
 3262SOL    HW110685   3.872   1.864   3.162
 3262SOL    HW210686   3.979   1.856   3.285
 3263SOL     OW10687   3.933   6.536   1.187
 3263SOL    HW110688   4.002   6.607   1.173
 3263SOL    HW210689   3.864   6.569   1.251
 3264SOL     OW10690   5.561   4.905   6.985
 3264SOL    HW110691   5.492   4.919   6.914
 3264SOL    HW210692   5.584   4.993   7.027
 3265SOL     OW10693   4.948   0.829   6.107
 3265SOL    HW110694   4.956   0.790   6.198
 3265SOL    HW210695   4.852   0.852   6.089
 3266SOL     OW10696   1.143   1.195   6.261
 3266SOL    HW110697   1.075   1.264   6.234
 3266SOL    HW210698   1.096   1.117   6.303
 3267SOL     OW10699   3.040   2.274   0.930
 3267SOL    HW110700   3.064   2.217   0.852
 3267SOL    HW210701   2.988   2.220   0.996
 3268SOL     OW10702   1.166   4.423   6.290
 3268SOL    HW110703   1.213   4.387   6.210
 3268SOL    HW210704   1.069   4.399   6.284
 3269SOL     OW10705   4.118   4.140   1.400
 3269SOL    HW110706   4.055   4.101   1.333
 3269SOL    HW210707   4.205   4.091   1.397
 3270SOL     OW10708   0.609   6.403   4.345
 3270SOL    HW110709   0.698   6.357   4.344
 3270SOL    HW210710   0.620   6.497   4.378
 3271SOL     OW10711   5.951   1.727   1.184
 3271SOL    HW110712   5.926   1.823   1.177
 3271SOL    HW210713   5.950   1.686   1.093
 3272SOL     OW10714   4.700   0.046   0.413
 3272SOL    HW110715   4.792   0.058   0.374
 3272SOL    HW210716   4.682   0.120   0.478
 3273SOL     OW10717   0.218   6.505   2.430
 3273SOL    HW110718   0.143   6.567   2.407
 3273SOL    HW210719   0.193   6.450   2.510
 3274SOL     OW10720   3.027   1.951   5.769
 3274SOL    HW110721   3.022   1.967   5.671
 3274SOL    HW210722   2.969   2.018   5.816
 3275SOL     OW10723   2.666   0.782   6.531
 3275SOL    HW110724   2.762   0.762   6.552
 3275SOL    HW210725   2.659   0.870   6.484
 3276SOL     OW10726   3.344   6.669   0.102
 3276SOL    HW110727   3.373   6.640   0.193
 3276SOL    HW210728   3.285   6.599   0.062
 3277SOL     OW10729   0.407   6.444   4.684
 3277SOL    HW110730   0.356   6.435   4.599
 3277SOL    HW210731   0.428   6.354   4.721
 3278SOL     OW10732   1.176   0.486   6.032
 3278SOL    HW110733   1.172   0.386   6.024
 3278SOL    HW210734   1.111   0.516   6.102
 3279SOL     OW10735   1.088   6.800   0.911
 3279SOL    HW110736   1.013   6.842   0.861
 3279SOL    HW210737   1.092   6.702   0.890
 3280SOL     OW10738   2.096   4.569   6.082
 3280SOL    HW110739   2.096   4.469   6.084
 3280SOL    HW210740   2.040   4.604   6.157
 3281SOL     OW10741   2.193   5.771   0.866
 3281SOL    HW110742   2.290   5.773   0.843
 3281SOL    HW210743   2.182   5.752   0.964
 3282SOL     OW10744   2.461   5.549   3.243
 3282SOL    HW110745   2.489   5.488   3.169
 3282SOL    HW210746   2.417   5.496   3.316
 3283SOL     OW10747   2.202   0.895   3.423
 3283SOL    HW110748   2.179   0.989   3.448
 3283SOL    HW210749   2.275   0.896   3.354
 3284SOL     OW10750   0.063   4.628   6.914
 3284SOL    HW110751   0.130   4.560   6.944
 3284SOL    HW210752   7.027   4.647   6.989
 3285SOL     OW10753   0.809   1.451   3.838
 3285SOL    HW110754   0.793   1.415   3.930
 3285SOL    HW210755   0.908   1.457   3.822
 3286SOL     OW10756   3.558   3.521   4.826
 3286SOL    HW110757   3.639   3.514   4.885
 3286SOL    HW210758   3.494   3.587   4.866
 3287SOL     OW10759   1.374   5.381   1.181
 3287SOL    HW110760   1.375   5.323   1.099
 3287SOL    HW210761   1.279   5.408   1.201
 3288SOL     OW10762   7.019   6.000   6.447
 3288SOL    HW110763   6.971   6.088   6.454
 3288SOL    HW210764   6.973   5.942   6.380
 3289SOL     OW10765   1.565   6.405   4.692
 3289SOL    HW110766   1.618   6.468   4.749
 3289SOL    HW210767   1.603   6.313   4.700
 3290SOL     OW10768   6.629   5.088   1.665
 3290SOL    HW110769   6.680   5.115   1.584
 3290SOL    HW210770   6.635   4.989   1.678
 3291SOL     OW10771   1.761   6.480   0.475
 3291SOL    HW110772   1.741   6.537   0.395
 3291SOL    HW210773   1.778   6.386   0.445
 3292SOL     OW10774   0.624   6.186   5.919
 3292SOL    HW110775   0.720   6.208   5.938
 3292SOL    HW210776   0.573   6.184   6.005
 3293SOL     OW10777   0.261   1.190   2.658
 3293SOL    HW110778   0.308   1.110   2.694
 3293SOL    HW210779   0.208   1.234   2.731
 3294SOL     OW10780   0.162   0.766   7.015
 3294SOL    HW110781   0.178   0.667   7.022
 3294SOL    HW210782   0.067   0.785   0.013
 3295SOL     OW10783   1.696   2.750   6.841
 3295SOL    HW110784   1.627   2.766   6.912
 3295SOL    HW210785   1.724   2.837   6.801
 3296SOL     OW10786   1.664   6.739   2.737
 3296SOL    HW110787   1.678   6.805   2.811
 3296SOL    HW210788   1.661   6.646   2.775
 3297SOL     OW10789   3.062   2.501   6.309
 3297SOL    HW110790   3.162   2.500   6.300
 3297SOL    HW210791   3.027   2.589   6.276
 3298SOL     OW10792   6.319   3.177   3.014
 3298SOL    HW110793   6.402   3.137   3.054
 3298SOL    HW210794   6.321   3.276   3.027
 3299SOL     OW10795   2.115   6.815   5.501
 3299SOL    HW110796   2.027   6.816   5.548
 3299SOL    HW210797   2.140   6.721   5.479
 3300SOL     OW10798   6.423   6.850   4.716
 3300SOL    HW110799   6.473   6.829   4.800
 3300SOL    HW210800   6.487   6.879   4.645
 3301SOL     OW10801   0.560   3.802   3.182
 3301SOL    HW110802   0.571   3.882   3.124
 3301SOL    HW210803   0.651   3.769   3.209
 3302SOL     OW10804   1.211   4.371   3.798
 3302SOL    HW110805   1.193   4.316   3.880
 3302SOL    HW210806   1.125   4.388   3.750
 3303SOL     OW10807   4.058   3.878   3.085
 3303SOL    HW110808   4.087   3.814   3.157
 3303SOL    HW210809   3.995   3.946   3.125
 3304SOL     OW10810   6.989   6.543   4.444
 3304SOL    HW110811   0.017   6.548   4.527
 3304SOL    HW210812   6.972   6.635   4.410
 3305SOL     OW10813   1.916   0.838   2.285
 3305SOL    HW110814   1.820   0.818   2.305
 3305SOL    HW210815   1.937   0.932   2.312
 3306SOL     OW10816   1.336   4.405   3.507
 3306SOL    HW110817   1.377   4.414   3.597
 3306SOL    HW210818   1.394   4.450   3.439
 3307SOL     OW10819   0.218   5.769   6.611
 3307SOL    HW110820   0.141   5.830   6.627
 3307SOL    HW210821   0.230   5.708   6.689
 3308SOL     OW10822   4.665   6.231   0.572
 3308SOL    HW110823   4.576   6.239   0.526
 3308SOL    HW210824   4.691   6.321   0.608
 3309SOL     OW10825   0.152   5.077   3.238
 3309SOL    HW110826   0.093   4.999   3.217
 3309SOL    HW210827   0.099   5.149   3.280
 3310SOL     OW10828   0.860   5.517   1.829
 3310SOL    HW110829   0.840   5.452   1.903
 3310SOL    HW210830   0.936   5.575   1.856
 3311SOL     OW10831   4.448   6.533   0.745
 3311SOL    HW110832   4.541   6.504   0.763
 3311SOL    HW210833   4.448   6.606   0.676
 3312SOL     OW10834   3.596   3.908   0.045
 3312SOL    HW110835   3.513   3.958   0.021
 3312SOL    HW210836   3.573   3.834   0.109
 3313SOL     OW10837   6.565   5.851   3.592
 3313SOL    HW110838   6.564   5.824   3.496
 3313SOL    HW210839   6.595   5.773   3.648
 3314SOL     OW10840   1.526   3.356   5.061
 3314SOL    HW110841   1.471   3.430   5.099
 3314SOL    HW210842   1.617   3.356   5.103
 3315SOL     OW10843   0.581   1.793   3.509
 3315SOL    HW110844   0.655   1.846   3.551
 3315SOL    HW210845   0.493   1.832   3.537
 3316SOL     OW10846   4.893   1.706   7.018
 3316SOL    HW110847   4.811   1.659   6.985
 3316SOL    HW210848   4.878   1.738   0.084
 3317SOL     OW10849   4.093   2.555   1.014
 3317SOL    HW110850   4.075   2.458   0.996
 3317SOL    HW210851   4.006   2.605   1.016
 3318SOL     OW10852   2.090   5.396   5.772
 3318SOL    HW110853   2.135   5.339   5.840
 3318SOL    HW210854   2.157   5.457   5.730
 3319SOL     OW10855   0.731   5.562   4.947
 3319SOL    HW110856   0.767   5.470   4.963
 3319SOL    HW210857   0.654   5.578   5.009
 3320SOL     OW10858   0.028   0.843   6.100
 3320SOL    HW110859   0.008   0.815   6.194
 3320SOL    HW210860   0.122   0.877   6.095
 3321SOL     OW10861   3.621   3.845   3.193
 3321SOL    HW110862   3.623   3.920   3.260
 3321SOL    HW210863   3.650   3.880   3.103
 3322SOL     OW10864   4.177   1.535   0.599
 3322SOL    HW110865   4.227   1.577   0.675
 3322SOL    HW210866   4.101   1.594   0.573
 3323SOL     OW10867   2.130   5.176   0.157
 3323SOL    HW110868   2.165   5.083   0.169
 3323SOL    HW210869   2.206   5.241   0.165
 3324SOL     OW10870   0.636   2.147   1.003
 3324SOL    HW110871   0.588   2.076   0.951
 3324SOL    HW210872   0.726   2.163   0.962
 3325SOL     OW10873   1.291   3.004   0.720
 3325SOL    HW110874   1.262   3.096   0.750
 3325SOL    HW210875   1.225   2.937   0.752
 3326SOL     OW10876   6.070   1.502   1.351
 3326SOL    HW110877   6.032   1.582   1.305
 3326SOL    HW210878   6.066   1.515   1.450
 3327SOL     OW10879   3.089   6.663   2.540
 3327SOL    HW110880   3.159   6.642   2.471
 3327SOL    HW210881   3.026   6.586   2.547
 3328SOL     OW10882   4.733   1.008   2.340
 3328SOL    HW110883   4.805   1.073   2.361
 3328SOL    HW210884   4.758   0.956   2.258
 3329SOL     OW10885   5.086   0.223   5.391
 3329SOL    HW110886   5.034   0.285   5.332
 3329SOL    HW210887   5.028   0.191   5.466
 3330SOL     OW10888   6.449   5.373   2.951
 3330SOL    HW110889   6.503   5.327   2.880
 3330SOL    HW210890   6.493   5.361   3.040
 3331SOL     OW10891   2.130   3.490   2.955
 3331SOL    HW110892   2.119   3.407   3.010
 3331SOL    HW210893   2.132   3.466   2.858
 3332SOL     OW10894   4.006   5.527   1.106
 3332SOL    HW110895   3.953   5.609   1.127
 3332SOL    HW210896   4.099   5.553   1.081
 3333SOL     OW10897   3.118   3.380   1.843
 3333SOL    HW110898   3.088   3.354   1.752
 3333SOL    HW210899   3.136   3.479   1.846
 3334SOL     OW10900   1.565   2.766   2.395
 3334SOL    HW110901   1.599   2.689   2.340
 3334SOL    HW210902   1.641   2.807   2.446
 3335SOL     OW10903   3.901   4.713   5.284
 3335SOL    HW110904   3.927   4.797   5.235
 3335SOL    HW210905   3.947   4.711   5.373
 3336SOL     OW10906   4.981   6.098   3.549
 3336SOL    HW110907   5.072   6.058   3.542
 3336SOL    HW210908   4.912   6.025   3.544
 3337SOL     OW10909   3.713   3.594   3.477
 3337SOL    HW110910   3.708   3.557   3.384
 3337SOL    HW210911   3.788   3.550   3.526
 3338SOL     OW10912   2.677   2.090   1.315
 3338SOL    HW110913   2.708   2.119   1.406
 3338SOL    HW210914   2.578   2.074   1.317
 3339SOL     OW10915   1.740   0.031   5.951
 3339SOL    HW110916   1.791   0.084   5.884
 3339SOL    HW210917   1.785   6.969   5.965
 3340SOL     OW10918   4.166   0.779   4.177
 3340SOL    HW110919   4.176   0.761   4.079
 3340SOL    HW210920   4.256   0.771   4.222
 3341SOL     OW10921   1.588   4.313   3.095
 3341SOL    HW110922   1.532   4.236   3.064
 3341SOL    HW210923   1.682   4.300   3.064
 3342SOL     OW10924   0.235   0.544   2.592
 3342SOL    HW110925   0.264   0.471   2.655
 3342SOL    HW210926   0.200   0.503   2.508
 3343SOL     OW10927   4.951   5.094   6.334
 3343SOL    HW110928   5.042   5.059   6.359
 3343SOL    HW210929   4.913   5.037   6.261
 3344SOL     OW10930   0.608   2.979   2.952
 3344SOL    HW110931   0.611   3.078   2.965
 3344SOL    HW210932   0.650   2.935   3.032
 3345SOL     OW10933   6.582   4.413   0.255
 3345SOL    HW110934   6.633   4.415   0.169
 3345SOL    HW210935   6.526   4.330   0.258
 3346SOL     OW10936   1.999   1.184   0.067
 3346SOL    HW110937   1.956   1.216   7.010
 3346SOL    HW210938   1.961   1.095   0.092
 3347SOL     OW10939   0.061   3.616   6.448
 3347SOL    HW110940   0.148   3.568   6.436
 3347SOL    HW210941   7.015   3.563   6.405
 3348SOL     OW10942   3.918   3.738   6.340
 3348SOL    HW110943   3.850   3.764   6.271
 3348SOL    HW210944   3.874   3.732   6.429
 3349SOL     OW10945   2.228   4.769   3.832
 3349SOL    HW110946   2.164   4.786   3.907
 3349SOL    HW210947   2.314   4.734   3.869
 3350SOL     OW10948   0.489   4.395   5.209
 3350SOL    HW110949   0.458   4.317   5.153
 3350SOL    HW210950   0.417   4.421   5.273
 3351SOL     OW10951   5.015   0.815   1.061
 3351SOL    HW110952   5.028   0.757   0.981
 3351SOL    HW210953   5.103   0.830   1.106
 3352SOL     OW10954   5.709   2.002   6.513
 3352SOL    HW110955   5.695   1.948   6.430
 3352SOL    HW210956   5.785   1.962   6.565
 3353SOL     OW10957   2.892   0.233   1.314
 3353SOL    HW110958   2.991   0.239   1.321
 3353SOL    HW210959   2.864   0.138   1.300
 3354SOL     OW10960   3.285   3.888   6.319
 3354SOL    HW110961   3.265   3.983   6.343
 3354SOL    HW210962   3.200   3.837   6.310
 3355SOL     OW10963   2.126   0.830   4.942
 3355SOL    HW110964   2.121   0.839   5.042
 3355SOL    HW210965   2.035   0.847   4.903
 3356SOL     OW10966   1.897   6.770   5.648
 3356SOL    HW110967   1.889   6.804   5.741
 3356SOL    HW210968   1.911   6.671   5.650
 3357SOL     OW10969   2.743   3.352   1.710
 3357SOL    HW110970   2.782   3.283   1.772
 3357SOL    HW210971   2.745   3.317   1.617
 3358SOL     OW10972   6.990   1.117   1.681
 3358SOL    HW110973   6.960   1.026   1.708
 3358SOL    HW210974   7.002   1.121   1.581
 3359SOL     OW10975   6.372   6.361   4.146
 3359SOL    HW110976   6.443   6.429   4.163
 3359SOL    HW210977   6.402   6.299   4.074
 3360SOL     OW10978   0.454   3.772   5.072
 3360SOL    HW110979   0.491   3.823   4.995
 3360SOL    HW210980   0.465   3.825   5.156
 3361SOL     OW10981   6.820   0.910   4.541
 3361SOL    HW110982   6.735   0.925   4.591
 3361SOL    HW210983   6.894   0.891   4.606
 3362SOL     OW10984   3.587   1.368   3.987
 3362SOL    HW110985   3.530   1.434   3.938
 3362SOL    HW210986   3.554   1.275   3.970
 3363SOL     OW10987   6.127   3.343   0.207
 3363SOL    HW110988   6.123   3.400   0.125
 3363SOL    HW210989   6.050   3.364   0.266
 3364SOL     OW10990   2.149   3.664   3.784
 3364SOL    HW110991   2.176   3.568   3.786
 3364SOL    HW210992   2.143   3.699   3.878
 3365SOL     OW10993   2.081   3.792   4.055
 3365SOL    HW110994   2.070   3.883   4.094
 3365SOL    HW210995   2.011   3.731   4.092
 3366SOL     OW10996   5.778   4.090   4.146
 3366SOL    HW110997   5.868   4.128   4.126
 3366SOL    HW210998   5.776   4.058   4.241
 3367SOL     OW10999   3.742   3.363   4.091
 3367SOL    HW111000   3.676   3.430   4.058
 3367SOL    HW211001   3.697   3.298   4.152
 3368SOL     OW11002   1.446   6.072   1.218
 3368SOL    HW111003   1.458   5.993   1.278
 3368SOL    HW211004   1.482   6.051   1.127
 3369SOL     OW11005   4.629   3.002   1.046
 3369SOL    HW111006   4.553   2.954   1.004
 3369SOL    HW211007   4.600   3.095   1.071
 3370SOL     OW11008   0.522   6.095   2.816
 3370SOL    HW111009   0.455   6.065   2.748
 3370SOL    HW211010   0.481   6.166   2.874
 3371SOL     OW11011   1.497   2.701   3.594
 3371SOL    HW111012   1.571   2.766   3.610
 3371SOL    HW211013   1.513   2.651   3.509
 3372SOL     OW11014   6.208   4.227   2.034
 3372SOL    HW111015   6.234   4.257   2.126
 3372SOL    HW211016   6.227   4.129   2.025
 3373SOL     OW11017   6.887   2.792   1.281
 3373SOL    HW111018   6.809   2.787   1.220
 3373SOL    HW211019   6.872   2.732   1.360
 3374SOL     OW11020   0.125   0.342   4.034
 3374SOL    HW111021   0.030   0.323   4.062
 3374SOL    HW211022   0.125   0.390   3.947
 3375SOL     OW11023   6.194   5.229   6.062
 3375SOL    HW111024   6.119   5.238   5.997
 3375SOL    HW211025   6.259   5.161   6.029
 3376SOL     OW11026   2.805   3.959   5.150
 3376SOL    HW111027   2.873   3.963   5.224
 3376SOL    HW211028   2.717   3.930   5.188
 3377SOL     OW11029   6.188   4.545   3.353
 3377SOL    HW111030   6.271   4.489   3.357
 3377SOL    HW211031   6.168   4.569   3.258
 3378SOL     OW11032   1.189   6.158   1.082
 3378SOL    HW111033   1.267   6.111   1.124
 3378SOL    HW211034   1.209   6.177   0.986
 3379SOL     OW11035   6.663   4.367   3.692
 3379SOL    HW111036   6.694   4.458   3.663
 3379SOL    HW211037   6.607   4.326   3.621
 3380SOL     OW11038   3.438   4.877   6.494
 3380SOL    HW111039   3.440   4.793   6.549
 3380SOL    HW211040   3.530   4.915   6.487
 3381SOL     OW11041   1.575   3.597   0.351
 3381SOL    HW111042   1.624   3.680   0.377
 3381SOL    HW211043   1.614   3.559   0.268
 3382SOL     OW11044   0.132   2.873   1.264
 3382SOL    HW111045   0.047   2.820   1.258
 3382SOL    HW211046   0.184   2.843   1.344
 3383SOL     OW11047   5.083   5.458   0.174
 3383SOL    HW111048   5.149   5.532   0.162
 3383SOL    HW211049   5.125   5.384   0.227
 3384SOL     OW11050   2.590   4.299   6.930
 3384SOL    HW111051   2.493   4.289   6.953
 3384SOL    HW211052   2.613   4.396   6.922
 3385SOL     OW11053   0.159   2.378   4.272
 3385SOL    HW111054   0.074   2.339   4.235
 3385SOL    HW211055   0.137   2.455   4.332
 3386SOL     OW11056   0.223   4.444   5.798
 3386SOL    HW111057   0.313   4.484   5.817
 3386SOL    HW211058   0.184   4.407   5.882
 3387SOL     OW11059   6.432   0.413   3.267
 3387SOL    HW111060   6.432   0.493   3.207
 3387SOL    HW211061   6.382   0.435   3.351
 3388SOL     OW11062   6.881   3.488   0.975
 3388SOL    HW111063   6.968   3.461   0.934
 3388SOL    HW211064   6.895   3.511   1.072
 3389SOL     OW11065   6.121   6.019   0.292
 3389SOL    HW111066   6.028   5.982   0.303
 3389SOL    HW211067   6.153   6.054   0.380
 3390SOL     OW11068   3.963   6.709   5.805
 3390SOL    HW111069   3.944   6.807   5.800
 3390SOL    HW211070   3.890   6.663   5.857
 3391SOL     OW11071   5.659   3.331   4.534
 3391SOL    HW111072   5.646   3.409   4.474
 3391SOL    HW211073   5.572   3.309   4.579
 3392SOL     OW11074   4.483   6.278   5.431
 3392SOL    HW111075   4.473   6.246   5.525
 3392SOL    HW211076   4.523   6.370   5.432
 3393SOL     OW11077   4.926   5.415   0.995
 3393SOL    HW111078   4.867   5.410   1.076
 3393SOL    HW211079   4.874   5.451   0.918
 3394SOL     OW11080   2.910   5.228   1.562
 3394SOL    HW111081   2.909   5.296   1.489
 3394SOL    HW211082   2.831   5.243   1.623
 3395SOL     OW11083   2.584   6.928   3.686
 3395SOL    HW111084   2.516   6.896   3.620
 3395SOL    HW211085   2.676   6.906   3.652
 3396SOL     OW11086   4.854   2.024   4.521
 3396SOL    HW111087   4.951   2.045   4.508
 3396SOL    HW211088   4.824   2.064   4.608
 3397SOL     OW11089   2.092   6.350   0.364
 3397SOL    HW111090   2.133   6.396   0.285
 3397SOL    HW211091   2.105   6.406   0.445
 3398SOL     OW11092   6.976   2.292   4.088
 3398SOL    HW111093   6.948   2.383   4.057
 3398SOL    HW211094   7.025   2.245   4.015
 3399SOL     OW11095   6.432   5.791   1.937
 3399SOL    HW111096   6.504   5.813   2.004
 3399SOL    HW211097   6.425   5.692   1.927
 3400SOL     OW11098   5.088   1.716   6.124
 3400SOL    HW111099   5.188   1.722   6.126
 3400SOL    HW211100   5.053   1.708   6.218
 3401SOL     OW11101   6.789   3.238   5.820
 3401SOL    HW111102   6.765   3.143   5.797
 3401SOL    HW211103   6.708   3.285   5.854
 3402SOL     OW11104   6.192   3.326   1.348
 3402SOL    HW111105   6.187   3.397   1.278
 3402SOL    HW211106   6.136   3.352   1.427
 3403SOL     OW11107   4.861   6.779   6.693
 3403SOL    HW111108   4.808   6.776   6.608
 3403SOL    HW211109   4.852   6.869   6.735
 3404SOL     OW11110   5.218   4.262   5.301
 3404SOL    HW111111   5.229   4.185   5.237
 3404SOL    HW211112   5.149   4.239   5.369
 3405SOL     OW11113   5.000   5.601   6.006
 3405SOL    HW111114   5.031   5.658   5.929
 3405SOL    HW211115   4.959   5.517   5.971
 3406SOL     OW11116   2.412   4.829   1.780
 3406SOL    HW111117   2.471   4.909   1.770
 3406SOL    HW211118   2.365   4.810   1.694
 3407SOL     OW11119   1.194   3.584   0.087
 3407SOL    HW111120   1.127   3.659   0.090
 3407SOL    HW211121   1.147   3.497   0.075
 3408SOL     OW11122   5.039   1.986   3.644
 3408SOL    HW111123   4.966   2.024   3.587
 3408SOL    HW211124   5.031   1.886   3.647
 3409SOL     OW11125   4.370   0.446   0.667
 3409SOL    HW111126   4.362   0.544   0.650
 3409SOL    HW211127   4.284   0.401   0.643
 3410SOL     OW11128   5.568   0.586   2.691
 3410SOL    HW111129   5.482   0.544   2.719
 3410SOL    HW211130   5.642   0.520   2.700
 3411SOL     OW11131   6.073   2.323   0.402
 3411SOL    HW111132   6.124   2.323   0.488
 3411SOL    HW211133   6.137   2.313   0.325
 3412SOL     OW11134   5.992   3.050   1.424
 3412SOL    HW111135   6.079   3.038   1.376
 3412SOL    HW211136   6.007   3.101   1.508
 3413SOL     OW11137   0.389   3.092   6.036
 3413SOL    HW111138   0.432   3.056   5.953
 3413SOL    HW211139   0.448   3.076   6.114
 3414SOL     OW11140   3.175   4.352   0.729
 3414SOL    HW111141   3.263   4.398   0.716
 3414SOL    HW211142   3.151   4.353   0.826
 3415SOL     OW11143   2.104   2.051   6.086
 3415SOL    HW111144   2.027   1.992   6.060
 3415SOL    HW211145   2.172   2.050   6.013
 3416SOL     OW11146   6.371   0.335   6.534
 3416SOL    HW111147   6.397   0.354   6.439
 3416SOL    HW211148   6.391   0.240   6.556
 3417SOL     OW11149   6.038   6.807   3.081
 3417SOL    HW111150   5.940   6.821   3.098
 3417SOL    HW211151   6.077   6.889   3.040
 3418SOL     OW11152   4.964   4.739   0.835
 3418SOL    HW111153   5.042   4.706   0.782
 3418SOL    HW211154   4.891   4.767   0.773
 3419SOL     OW11155   2.445   5.929   5.869
 3419SOL    HW111156   2.496   5.879   5.939
 3419SOL    HW211157   2.407   6.012   5.908
 3420SOL     OW11158   4.230   2.332   2.726
 3420SOL    HW111159   4.321   2.291   2.734
 3420SOL    HW211160   4.237   2.419   2.677
 3421SOL     OW11161   6.584   2.307   3.172
 3421SOL    HW111162   6.561   2.351   3.259
 3421SOL    HW211163   6.539   2.218   3.166
 3422SOL     OW11164   2.442   6.781   0.901
 3422SOL    HW111165   2.541   6.784   0.918
 3422SOL    HW211166   2.408   6.689   0.920
 3423SOL     OW11167   1.383   4.634   6.088
 3423SOL    HW111168   1.298   4.615   6.039
 3423SOL    HW211169   1.461   4.604   6.033
 3424SOL     OW11170   4.433   0.550   1.545
 3424SOL    HW111171   4.456   0.459   1.582
 3424SOL    HW211172   4.453   0.619   1.614
 3425SOL     OW11173   5.557   3.590   0.536
 3425SOL    HW111174   5.482   3.534   0.572
 3425SOL    HW211175   5.634   3.586   0.598
 3426SOL     OW11176   5.590   2.960   6.862
 3426SOL    HW111177   5.607   3.027   6.790
 3426SOL    HW211178   5.660   2.888   6.859
 3427SOL     OW11179   1.563   2.355   0.705
 3427SOL    HW111180   1.501   2.284   0.671
 3427SOL    HW211181   1.572   2.346   0.804
 3428SOL     OW11182   4.843   6.153   5.704
 3428SOL    HW111183   4.785   6.183   5.780
 3428SOL    HW211184   4.904   6.228   5.678
 3429SOL     OW11185   6.117   0.241   0.792
 3429SOL    HW111186   6.168   0.323   0.818
 3429SOL    HW211187   6.136   0.168   0.858
 3430SOL     OW11188   1.975   4.688   5.456
 3430SOL    HW111189   1.935   4.624   5.389
 3430SOL    HW211190   2.070   4.664   5.472
 3431SOL     OW11191   1.271   5.089   3.212
 3431SOL    HW111192   1.269   5.069   3.310
 3431SOL    HW211193   1.312   5.179   3.197
 3432SOL     OW11194   1.426   3.973   0.640
 3432SOL    HW111195   1.497   3.920   0.686
 3432SOL    HW211196   1.351   3.990   0.705
 3433SOL     OW11197   2.426   1.839   6.957
 3433SOL    HW111198   2.366   1.793   7.023
 3433SOL    HW211199   2.457   1.773   6.889
 3434SOL     OW11200   2.984   2.554   1.102
 3434SOL    HW111201   3.052   2.562   1.175
 3434SOL    HW211202   2.892   2.549   1.142
 3435SOL     OW11203   2.047   1.080   1.342
 3435SOL    HW111204   2.023   1.131   1.425
 3435SOL    HW211205   2.131   1.118   1.303
 3436SOL     OW11206   3.115   6.621   6.428
 3436SOL    HW111207   3.015   6.620   6.420
 3436SOL    HW211208   3.151   6.529   6.416
 3437SOL     OW11209   1.082   0.421   6.391
 3437SOL    HW111210   1.061   0.435   6.488
 3437SOL    HW211211   1.056   0.503   6.340
 3438SOL     OW11212   1.178   4.041   1.574
 3438SOL    HW111213   1.099   4.099   1.594
 3438SOL    HW211214   1.149   3.946   1.570
 3439SOL     OW11215   2.626   5.080   2.066
 3439SOL    HW111216   2.669   5.134   1.994
 3439SOL    HW211217   2.696   5.037   2.123
 3440SOL     OW11218   3.838   3.653   4.775
 3440SOL    HW111219   3.930   3.689   4.760
 3440SOL    HW211220   3.772   3.707   4.724
 3441SOL     OW11221   5.237   4.857   5.982
 3441SOL    HW111222   5.315   4.795   5.973
 3441SOL    HW211223   5.241   4.926   5.910
 3442SOL     OW11224   3.449   3.049   1.294
 3442SOL    HW111225   3.546   3.069   1.279
 3442SOL    HW211226   3.404   3.038   1.206
 3443SOL     OW11227   1.143   6.127   2.145
 3443SOL    HW111228   1.130   6.226   2.144
 3443SOL    HW211229   1.233   6.104   2.109
 3444SOL     OW11230   6.398   3.652   6.798
 3444SOL    HW111231   6.299   3.639   6.802
 3444SOL    HW211232   6.436   3.596   6.724
 3445SOL     OW11233   6.100   4.276   3.468
 3445SOL    HW111234   6.016   4.300   3.419
 3445SOL    HW211235   6.165   4.351   3.460
 3446SOL     OW11236   4.895   1.065   1.091
 3446SOL    HW111237   4.919   0.969   1.076
 3446SOL    HW211238   4.824   1.070   1.162
 3447SOL     OW11239   5.561   1.116   6.831
 3447SOL    HW111240   5.590   1.020   6.833
 3447SOL    HW211241   5.548   1.145   6.736
 3448SOL     OW11242   1.531   6.110   5.068
 3448SOL    HW111243   1.570   6.180   5.128
 3448SOL    HW211244   1.491   6.153   4.987
 3449SOL     OW11245   6.785   4.311   5.798
 3449SOL    HW111246   6.805   4.213   5.797
 3449SOL    HW211247   6.806   4.350   5.709
 3450SOL     OW11248   2.417   6.346   1.818
 3450SOL    HW111249   2.432   6.264   1.762
 3450SOL    HW211250   2.323   6.377   1.808
 3451SOL     OW11251   2.002   1.265   1.571
 3451SOL    HW111252   1.969   1.210   1.648
 3451SOL    HW211253   1.986   1.362   1.591
 3452SOL     OW11254   4.639   0.727   4.756
 3452SOL    HW111255   4.640   0.745   4.658
 3452SOL    HW211256   4.576   0.653   4.776
 3453SOL     OW11257   4.641   6.140   6.201
 3453SOL    HW111258   4.657   6.044   6.177
 3453SOL    HW211259   4.726   6.183   6.229
 3454SOL     OW11260   0.608   2.910   1.547
 3454SOL    HW111261   0.694   2.949   1.580
 3454SOL    HW211262   0.540   2.912   1.621
 3455SOL     OW11263   0.661   3.370   5.163
 3455SOL    HW111264   0.748   3.412   5.190
 3455SOL    HW211265   0.621   3.421   5.087
 3456SOL     OW11266   5.263   4.750   3.001
 3456SOL    HW111267   5.214   4.763   2.915
 3456SOL    HW211268   5.249   4.830   3.060
 3457SOL     OW11269   3.864   4.864   5.848
 3457SOL    HW111270   3.771   4.872   5.883
 3457SOL    HW211271   3.880   4.770   5.818
 3458SOL     OW11272   4.202   1.122   2.392
 3458SOL    HW111273   4.216   1.198   2.455
 3458SOL    HW211274   4.237   1.037   2.434
 3459SOL     OW11275   4.626   6.526   3.067
 3459SOL    HW111276   4.704   6.499   3.010
 3459SOL    HW211277   4.555   6.567   3.010
 3460SOL     OW11278   4.201   1.596   5.061
 3460SOL    HW111279   4.261   1.666   5.102
 3460SOL    HW211280   4.192   1.519   5.124
 3461SOL     OW11281   6.005   5.612   5.156
 3461SOL    HW111282   6.036   5.690   5.101
 3461SOL    HW211283   6.084   5.566   5.196
 3462SOL     OW11284   1.690   3.787   6.500
 3462SOL    HW111285   1.784   3.790   6.535
 3462SOL    HW211286   1.632   3.738   6.565
 3463SOL     OW11287   5.905   3.879   1.181
 3463SOL    HW111288   5.933   3.892   1.276
 3463SOL    HW211289   5.986   3.870   1.123
 3464SOL     OW11290   0.217   4.962   6.248
 3464SOL    HW111291   0.310   4.926   6.243
 3464SOL    HW211292   0.217   5.059   6.222
 3465SOL     OW11293   1.499   0.926   0.769
 3465SOL    HW111294   1.582   0.870   0.760
 3465SOL    HW211295   1.432   0.877   0.824
 3466SOL     OW11296   6.530   3.931   5.784
 3466SOL    HW111297   6.477   3.979   5.853
 3466SOL    HW211298   6.547   3.837   5.813
 3467SOL     OW11299   2.006   1.730   0.086
 3467SOL    HW111300   1.994   1.631   0.079
 3467SOL    HW211301   2.099   1.755   0.057
 3468SOL     OW11302   3.763   6.953   4.019
 3468SOL    HW111303   3.744   0.023   4.023
 3468SOL    HW211304   3.721   6.913   3.937
 3469SOL     OW11305   5.175   2.611   2.917
 3469SOL    HW111306   5.169   2.682   2.987
 3469SOL    HW211307   5.085   2.593   2.878
 3470SOL     OW11308   6.934   5.308   1.073
 3470SOL    HW111309   6.868   5.345   1.139
 3470SOL    HW211310   6.900   5.322   0.980
 3471SOL     OW11311   4.043   6.388   4.941
 3471SOL    HW111312   4.111   6.335   4.992
 3471SOL    HW211313   3.971   6.326   4.909
 3472SOL     OW11314   3.464   1.230   5.073
 3472SOL    HW111315   3.419   1.313   5.040
 3472SOL    HW211316   3.411   1.190   5.148
 3473SOL     OW11317   5.420   1.091   5.859
 3473SOL    HW111318   5.429   1.013   5.921
 3473SOL    HW211319   5.323   1.107   5.841
 3474SOL     OW11320   4.568   5.552   0.883
 3474SOL    HW111321   4.654   5.527   0.840
 3474SOL    HW211322   4.500   5.573   0.813
 3475SOL     OW11323   1.660   5.884   4.663
 3475SOL    HW111324   1.663   5.919   4.756
 3475SOL    HW211325   1.676   5.959   4.599
 3476SOL     OW11326   4.979   1.169   4.305
 3476SOL    HW111327   5.042   1.208   4.373
 3476SOL    HW211328   4.892   1.148   4.348
 3477SOL     OW11329   4.146   6.226   1.684
 3477SOL    HW111330   4.136   6.299   1.616
 3477SOL    HW211331   4.224   6.247   1.744
 3478SOL     OW11332   4.217   4.417   0.370
 3478SOL    HW111333   4.195   4.496   0.313
 3478SOL    HW211334   4.290   4.441   0.434
 3479SOL     OW11335   0.820   0.576   1.980
 3479SOL    HW111336   0.877   0.658   1.974
 3479SOL    HW211337   0.834   0.533   2.069
 3480SOL     OW11338   1.177   1.157   2.943
 3480SOL    HW111339   1.115   1.134   3.018
 3480SOL    HW211340   1.128   1.212   2.875
 3481SOL     OW11341   2.086   6.446   0.011
 3481SOL    HW111342   2.000   6.468   0.057
 3481SOL    HW211343   2.090   6.494   6.950
 3482SOL     OW11344   0.521   2.322   0.319
 3482SOL    HW111345   0.583   2.395   0.350
 3482SOL    HW211346   0.427   2.348   0.337
 3483SOL     OW11347   3.056   6.729   1.236
 3483SOL    HW111348   3.103   6.665   1.297
 3483SOL    HW211349   3.104   6.732   1.148
 3484SOL     OW11350   3.545   3.835   3.586
 3484SOL    HW111351   3.619   3.772   3.563
 3484SOL    HW211352   3.464   3.812   3.532
 3485SOL     OW11353   0.984   2.543   4.772
 3485SOL    HW111354   0.884   2.544   4.785
 3485SOL    HW211355   1.006   2.485   4.693
 3486SOL     OW11356   4.431   1.820   2.342
 3486SOL    HW111357   4.395   1.911   2.362
 3486SOL    HW211358   4.364   1.767   2.290
 3487SOL     OW11359   6.603   0.390   0.315
 3487SOL    HW111360   6.689   0.440   0.304
 3487SOL    HW211361   6.527   0.454   0.322
 3488SOL     OW11362   5.908   3.365   4.168
 3488SOL    HW111363   5.878   3.275   4.136
 3488SOL    HW211364   5.994   3.389   4.123
 3489SOL     OW11365   3.052   6.871   0.795
 3489SOL    HW111366   2.968   6.822   0.773
 3489SOL    HW211367   3.100   6.825   0.869
 3490SOL     OW11368   3.952   3.794   0.194
 3490SOL    HW111369   3.972   3.737   0.114
 3490SOL    HW211370   3.931   3.735   0.272
 3491SOL     OW11371   0.526   3.161   4.650
 3491SOL    HW111372   0.528   3.240   4.589
 3491SOL    HW211373   0.497   3.080   4.600
 3492SOL     OW11374   6.285   4.874   6.646
 3492SOL    HW111375   6.223   4.891   6.570
 3492SOL    HW211376   6.327   4.960   6.676
 3493SOL     OW11377   6.649   4.545   0.539
 3493SOL    HW111378   6.566   4.585   0.577
 3493SOL    HW211379   6.624   4.482   0.465
 3494SOL     OW11380   3.250   0.273   0.699
 3494SOL    HW111381   3.232   0.302   0.605
 3494SOL    HW211382   3.171   0.225   0.736
 3495SOL     OW11383   5.220   4.791   0.453
 3495SOL    HW111384   5.215   4.773   0.355
 3495SOL    HW211385   5.307   4.757   0.489
 3496SOL     OW11386   1.958   3.408   1.096
 3496SOL    HW111387   1.975   3.460   1.013
 3496SOL    HW211388   1.954   3.470   1.175
 3497SOL     OW11389   4.633   0.203   3.293
 3497SOL    HW111390   4.580   0.182   3.211
 3497SOL    HW211391   4.685   0.122   3.320
 3498SOL     OW11392   2.383   1.390   2.020
 3498SOL    HW111393   2.358   1.475   2.066
 3498SOL    HW211394   2.300   1.336   2.002
 3499SOL     OW11395   6.632   3.340   3.757
 3499SOL    HW111396   6.696   3.327   3.681
 3499SOL    HW211397   6.677   3.395   3.828
 3500SOL     OW11398   6.562   3.515   0.549
 3500SOL    HW111399   6.623   3.544   0.622
 3500SOL    HW211400   6.611   3.455   0.486
 3501SOL     OW11401   1.146   4.648   4.266
 3501SOL    HW111402   1.108   4.717   4.204
 3501SOL    HW211403   1.242   4.633   4.245
 3502SOL     OW11404   0.845   3.308   1.675
 3502SOL    HW111405   0.763   3.337   1.723
 3502SOL    HW211406   0.926   3.340   1.723
 3503SOL     OW11407   4.954   6.339   4.117
 3503SOL    HW111408   4.889   6.284   4.170
 3503SOL    HW211409   4.904   6.398   4.054
 3504SOL     OW11410   1.988   3.542   1.837
 3504SOL    HW111411   2.052   3.553   1.913
 3504SOL    HW211412   2.024   3.475   1.773
 3505SOL     OW11413   5.308   5.389   4.784
 3505SOL    HW111414   5.286   5.301   4.825
 3505SOL    HW211415   5.288   5.462   4.850
 3506SOL     OW11416   4.947   5.613   2.651
 3506SOL    HW111417   4.958   5.663   2.565
 3506SOL    HW211418   4.855   5.572   2.654
 3507SOL     OW11419   0.958   0.616   6.194
 3507SOL    HW111420   0.965   0.712   6.167
 3507SOL    HW211421   0.863   0.585   6.184
 3508SOL     OW11422   5.781   2.754   6.850
 3508SOL    HW111423   5.807   2.732   6.756
 3508SOL    HW211424   5.763   2.670   6.900
 3509SOL     OW11425   6.516   6.472   0.873
 3509SOL    HW111426   6.562   6.418   0.802
 3509SOL    HW211427   6.418   6.471   0.857
 3510SOL     OW11428   1.838   3.264   2.484
 3510SOL    HW111429   1.893   3.325   2.428
 3510SOL    HW211430   1.864   3.273   2.580
 3511SOL     OW11431   0.648   1.534   5.648
 3511SOL    HW111432   0.735   1.503   5.608
 3511SOL    HW211433   0.576   1.530   5.579
 3512SOL     OW11434   2.835   3.582   1.020
 3512SOL    HW111435   2.883   3.497   0.998
 3512SOL    HW211436   2.770   3.604   0.947
 3513SOL     OW11437   6.062   4.719   1.121
 3513SOL    HW111438   6.117   4.729   1.204
 3513SOL    HW211439   5.966   4.732   1.143
 3514SOL     OW11440   0.807   6.181   1.680
 3514SOL    HW111441   0.846   6.255   1.735
 3514SOL    HW211442   0.781   6.105   1.741
 3515SOL     OW11443   2.846   6.359   3.687
 3515SOL    HW111444   2.791   6.373   3.605
 3515SOL    HW211445   2.878   6.447   3.721
 3516SOL     OW11446   2.939   1.199   0.874
 3516SOL    HW111447   2.887   1.173   0.955
 3516SOL    HW211448   2.986   1.286   0.890
 3517SOL     OW11449   1.472   0.828   6.471
 3517SOL    HW111450   1.528   0.909   6.492
 3517SOL    HW211451   1.377   0.856   6.463
 3518SOL     OW11452   4.268   2.771   5.932
 3518SOL    HW111453   4.266   2.833   6.010
 3518SOL    HW211454   4.184   2.782   5.879
 3519SOL     OW11455   1.832   6.330   0.225
 3519SOL    HW111456   1.868   6.422   0.208
 3519SOL    HW211457   1.903   6.274   0.267
 3520SOL     OW11458   4.353   5.639   0.731
 3520SOL    HW111459   4.314   5.606   0.817
 3520SOL    HW211460   4.367   5.737   0.735
 3521SOL     OW11461   5.855   2.495   0.463
 3521SOL    HW111462   5.943   2.447   0.459
 3521SOL    HW211463   5.823   2.512   0.370
 3522SOL     OW11464   3.100   4.858   2.557
 3522SOL    HW111465   3.185   4.824   2.517
 3522SOL    HW211466   3.099   4.839   2.655
 3523SOL     OW11467   2.289   4.816   6.055
 3523SOL    HW111468   2.209   4.756   6.057
 3523SOL    HW211469   2.368   4.765   6.020
 3524SOL     OW11470   2.101   0.359   1.150
 3524SOL    HW111471   2.188   0.357   1.102
 3524SOL    HW211472   2.086   0.273   1.198
 3525SOL     OW11473   0.930   3.014   2.859
 3525SOL    HW111474   1.004   2.946   2.860
 3525SOL    HW211475   0.859   2.987   2.924
 3526SOL     OW11476   2.383   0.969   2.714
 3526SOL    HW111477   2.480   0.962   2.692
 3526SOL    HW211478   2.332   0.901   2.660
 3527SOL     OW11479   4.923   3.110   5.958
 3527SOL    HW111480   4.841   3.072   5.914
 3527SOL    HW211481   4.979   3.157   5.890
 3528SOL     OW11482   6.896   0.020   4.488
 3528SOL    HW111483   6.897   0.034   4.389
 3528SOL    HW211484   6.987   7.020   4.519
 3529SOL     OW11485   3.607   6.228   6.250
 3529SOL    HW111486   3.540   6.181   6.192
 3529SOL    HW211487   3.571   6.235   6.343
 3530SOL     OW11488   1.821   5.735   3.034
 3530SOL    HW111489   1.907   5.758   3.079
 3530SOL    HW211490   1.754   5.807   3.050
 3531SOL     OW11491   4.648   3.971   0.115
 3531SOL    HW111492   4.647   3.932   0.207
 3531SOL    HW211493   4.691   3.907   0.052
 3532SOL     OW11494   1.829   6.993   0.133
 3532SOL    HW111495   1.927   6.997   0.113
 3532SOL    HW211496   1.800   0.052   0.174
 3533SOL     OW11497   1.783   1.217   2.929
 3533SOL    HW111498   1.704   1.164   2.960
 3533SOL    HW211499   1.773   1.312   2.958
 3534SOL     OW11500   5.225   1.058   4.155
 3534SOL    HW111501   5.287   1.110   4.095
 3534SOL    HW211502   5.203   1.112   4.235
 3535SOL     OW11503   4.641   5.892   6.425
 3535SOL    HW111504   4.686   5.802   6.428
 3535SOL    HW211505   4.706   5.962   6.456
 3536SOL     OW11506   1.093   4.498   3.398
 3536SOL    HW111507   1.185   4.470   3.425
 3536SOL    HW211508   1.096   4.534   3.305
 3537SOL     OW11509   2.397   4.827   0.638
 3537SOL    HW111510   2.455   4.860   0.712
 3537SOL    HW211511   2.359   4.738   0.662
 3538SOL     OW11512   2.747   0.782   4.764
 3538SOL    HW111513   2.687   0.726   4.707
 3538SOL    HW211514   2.811   0.832   4.705
 3539SOL     OW11515   5.462   5.622   6.299
 3539SOL    HW111516   5.505   5.676   6.372
 3539SOL    HW211517   5.521   5.623   6.218
 3540SOL     OW11518   3.077   3.735   6.255
 3540SOL    HW111519   3.037   3.782   6.176
 3540SOL    HW211520   3.031   3.647   6.268
 3541SOL     OW11521   2.567   2.899   1.397
 3541SOL    HW111522   2.554   2.996   1.376
 3541SOL    HW211523   2.485   2.848   1.368
 3542SOL     OW11524   5.320   2.162   6.076
 3542SOL    HW111525   5.307   2.262   6.077
 3542SOL    HW211526   5.269   2.122   6.152
 3543SOL     OW11527   0.607   2.476   3.437
 3543SOL    HW111528   0.511   2.452   3.453
 3543SOL    HW211529   0.639   2.432   3.353
 3544SOL     OW11530   2.711   4.314   6.345
 3544SOL    HW111531   2.632   4.373   6.360
 3544SOL    HW211532   2.757   4.297   6.432
 3545SOL     OW11533   3.499   6.257   1.406
 3545SOL    HW111534   3.593   6.236   1.434
 3545SOL    HW211535   3.478   6.207   1.321
 3546SOL     OW11536   0.393   4.447   3.521
 3546SOL    HW111537   0.475   4.397   3.549
 3546SOL    HW211538   0.357   4.407   3.437
 3547SOL     OW11539   1.019   4.456   5.501
 3547SOL    HW111540   0.934   4.413   5.531
 3547SOL    HW211541   1.089   4.386   5.489
 3548SOL     OW11542   5.436   0.726   5.432
 3548SOL    HW111543   5.369   0.655   5.453
 3548SOL    HW211544   5.525   0.685   5.418
 3549SOL     OW11545   2.693   6.717   0.282
 3549SOL    HW111546   2.723   6.624   0.306
 3549SOL    HW211547   2.613   6.741   0.337
 3550SOL     OW11548   5.554   0.975   5.484
 3550SOL    HW111549   5.509   0.886   5.480
 3550SOL    HW211550   5.487   1.045   5.508
 3551SOL     OW11551   4.254   1.917   4.369
 3551SOL    HW111552   4.188   1.988   4.394
 3551SOL    HW211553   4.253   1.905   4.269
 3552SOL     OW11554   0.638   6.636   2.845
 3552SOL    HW111555   0.734   6.606   2.839
 3552SOL    HW211556   0.630   6.706   2.916
 3553SOL     OW11557   5.104   5.785   7.016
 3553SOL    HW111558   5.144   5.838   6.941
 3553SOL    HW211559   5.175   5.731   0.033
 3554SOL     OW11560   5.625   3.066   1.142
 3554SOL    HW111561   5.560   3.054   1.217
 3554SOL    HW211562   5.694   3.134   1.168
 3555SOL     OW11563   2.954   2.050   4.933
 3555SOL    HW111564   2.900   2.113   4.988
 3555SOL    HW211565   3.001   2.101   4.861
 3556SOL     OW11566   5.554   1.280   5.676
 3556SOL    HW111567   5.513   1.226   5.749
 3556SOL    HW211568   5.487   1.346   5.641
 3557SOL     OW11569   6.535   1.007   0.992
 3557SOL    HW111570   6.461   0.995   0.925
 3557SOL    HW211571   6.520   1.092   1.042
 3558SOL     OW11572   3.469   6.508   2.009
 3558SOL    HW111573   3.517   6.485   2.094
 3558SOL    HW211574   3.425   6.426   1.972
 3559SOL     OW11575   4.899   6.361   5.333
 3559SOL    HW111576   4.845   6.391   5.255
 3559SOL    HW211577   4.872   6.269   5.360
 3560SOL     OW11578   2.280   5.218   4.422
 3560SOL    HW111579   2.197   5.161   4.431
 3560SOL    HW211580   2.281   5.261   4.332
 3561SOL     OW11581   4.771   3.730   5.433
 3561SOL    HW111582   4.717   3.647   5.419
 3561SOL    HW211583   4.721   3.809   5.397
 3562SOL     OW11584   1.805   1.438   5.908
 3562SOL    HW111585   1.729   1.436   5.843
 3562SOL    HW211586   1.872   1.506   5.878
 3563SOL     OW11587   6.401   2.825   5.240
 3563SOL    HW111588   6.416   2.920   5.215
 3563SOL    HW211589   6.372   2.773   5.160
 3564SOL     OW11590   6.069   3.830   2.125
 3564SOL    HW111591   6.019   3.866   2.204
 3564SOL    HW211592   6.141   3.895   2.099
 3565SOL     OW11593   3.878   5.918   3.061
 3565SOL    HW111594   3.948   5.934   3.131
 3565SOL    HW211595   3.888   5.825   3.024
 3566SOL     OW11596   0.955   0.366   5.643
 3566SOL    HW111597   0.974   0.447   5.698
 3566SOL    HW211598   1.034   0.346   5.585
 3567SOL     OW11599   0.097   3.637   6.143
 3567SOL    HW111600   0.061   3.603   6.229
 3567SOL    HW211601   0.197   3.630   6.143
 3568SOL     OW11602   6.333   3.695   5.873
 3568SOL    HW111603   6.317   3.779   5.925
 3568SOL    HW211604   6.314   3.616   5.931
 3569SOL     OW11605   1.939   1.058   5.178
 3569SOL    HW111606   2.030   1.041   5.217
 3569SOL    HW211607   1.873   1.069   5.252
 3570SOL     OW11608   6.613   1.704   3.585
 3570SOL    HW111609   6.578   1.624   3.634
 3570SOL    HW211610   6.598   1.692   3.487
 3571SOL     OW11611   6.423   6.470   5.679
 3571SOL    HW111612   6.384   6.509   5.596
 3571SOL    HW211613   6.404   6.372   5.682
 3572SOL     OW11614   5.951   5.331   4.551
 3572SOL    HW111615   5.860   5.308   4.514
 3572SOL    HW211616   6.006   5.372   4.479
 3573SOL     OW11617   1.174   2.852   2.972
 3573SOL    HW111618   1.238   2.866   2.896
 3573SOL    HW211619   1.137   2.759   2.968
 3574SOL     OW11620   6.898   3.845   0.694
 3574SOL    HW111621   6.859   3.886   0.776
 3574SOL    HW211622   6.893   3.910   0.618
 3575SOL     OW11623   6.189   4.926   2.160
 3575SOL    HW111624   6.263   4.864   2.134
 3575SOL    HW211625   6.222   4.991   2.228
 3576SOL     OW11626   0.548   1.732   5.826
 3576SOL    HW111627   0.551   1.816   5.771
 3576SOL    HW211628   0.552   1.652   5.766
 3577SOL     OW11629   1.717   3.080   0.094
 3577SOL    HW111630   1.652   3.149   0.127
 3577SOL    HW211631   1.669   2.994   0.077
 3578SOL     OW11632   3.515   5.284   0.785
 3578SOL    HW111633   3.591   5.309   0.844
 3578SOL    HW211634   3.536   5.199   0.737
 3579SOL     OW11635   6.836   4.600   4.402
 3579SOL    HW111636   6.779   4.660   4.458
 3579SOL    HW211637   6.929   4.635   4.400
 3580SOL     OW11638   6.451   2.116   2.368
 3580SOL    HW111639   6.391   2.064   2.306
 3580SOL    HW211640   6.521   2.056   2.405
 3581SOL     OW11641   0.040   0.349   2.692
 3581SOL    HW111642   6.977   0.352   2.648
 3581SOL    HW211643   0.093   0.274   2.652
 3582SOL     OW11644   1.319   0.318   6.356
 3582SOL    HW111645   1.363   0.292   6.443
 3582SOL    HW211646   1.230   0.358   6.375
 3583SOL     OW11647   1.190   5.410   0.423
 3583SOL    HW111648   1.172   5.401   0.325
 3583SOL    HW211649   1.259   5.480   0.438
 3584SOL     OW11650   5.144   5.611   6.334
 3584SOL    HW111651   5.069   5.545   6.342
 3584SOL    HW211652   5.184   5.605   6.243
 3585SOL     OW11653   3.158   4.965   4.343
 3585SOL    HW111654   3.099   4.932   4.417
 3585SOL    HW211655   3.114   4.947   4.255
 3586SOL     OW11656   0.127   3.040   5.870
 3586SOL    HW111657   0.072   3.123   5.876
 3586SOL    HW211658   0.211   3.059   5.820
 3587SOL     OW11659   4.389   6.866   6.663
 3587SOL    HW111660   4.317   6.864   6.733
 3587SOL    HW211661   4.398   6.959   6.628
 3588SOL     OW11662   1.302   1.812   5.867
 3588SOL    HW111663   1.337   1.871   5.794
 3588SOL    HW211664   1.370   1.741   5.887
 3589SOL     OW11665   3.140   0.797   5.479
 3589SOL    HW111666   3.130   0.830   5.386
 3589SOL    HW211667   3.113   0.868   5.544
 3590SOL     OW11668   1.923   5.468   6.514
 3590SOL    HW111669   1.834   5.503   6.543
 3590SOL    HW211670   1.992   5.489   6.583
 3591SOL     OW11671   4.891   2.562   5.849
 3591SOL    HW111672   4.956   2.527   5.782
 3591SOL    HW211673   4.801   2.522   5.832
 3592SOL     OW11674   4.912   3.223   2.466
 3592SOL    HW111675   4.925   3.220   2.367
 3592SOL    HW211676   4.818   3.250   2.486
 3593SOL     OW11677   1.535   5.993   4.009
 3593SOL    HW111678   1.633   6.005   4.018
 3593SOL    HW211679   1.516   5.924   3.939
 3594SOL     OW11680   3.005   1.332   4.151
 3594SOL    HW111681   2.914   1.328   4.194
 3594SOL    HW211682   3.001   1.287   4.062
 3595SOL     OW11683   2.869   6.185   6.195
 3595SOL    HW111684   2.937   6.113   6.182
 3595SOL    HW211685   2.791   6.168   6.135
 3596SOL     OW11686   6.410   2.036   2.826
 3596SOL    HW111687   6.451   1.951   2.792
 3596SOL    HW211688   6.438   2.112   2.767
 3597SOL     OW11689   3.488   5.648   3.726
 3597SOL    HW111690   3.548   5.614   3.799
 3597SOL    HW211691   3.533   5.723   3.678
 3598SOL     OW11692   1.200   0.130   6.662
 3598SOL    HW111693   1.172   0.121   6.757
 3598SOL    HW211694   1.279   0.192   6.656
 3599SOL     OW11695   0.511   1.772   4.745
 3599SOL    HW111696   0.496   1.731   4.654
 3599SOL    HW211697   0.439   1.839   4.763
 3600SOL     OW11698   6.018   2.113   0.656
 3600SOL    HW111699   5.957   2.144   0.729
 3600SOL    HW211700   5.968   2.114   0.569
 3601SOL     OW11701   6.985   3.817   5.997
 3601SOL    HW111702   6.987   3.910   6.032
 3601SOL    HW211703   0.030   3.763   6.040
 3602SOL     OW11704   1.885   0.904   0.029
 3602SOL    HW111705   1.791   0.904   7.023
 3602SOL    HW211706   1.933   0.825   7.020
 3603SOL     OW11707   4.140   4.751   3.587
 3603SOL    HW111708   4.173   4.794   3.503
 3603SOL    HW211709   4.079   4.814   3.635
 3604SOL     OW11710   0.480   2.604   2.930
 3604SOL    HW111711   0.435   2.692   2.947
 3604SOL    HW211712   0.416   2.530   2.950
 3605SOL     OW11713   5.306   3.320   6.478
 3605SOL    HW111714   5.281   3.234   6.523
 3605SOL    HW211715   5.399   3.313   6.442
 3606SOL     OW11716   0.748   4.477   5.205
 3606SOL    HW111717   0.795   4.406   5.257
 3606SOL    HW211718   0.652   4.450   5.192
 3607SOL     OW11719   5.129   0.031   0.363
 3607SOL    HW111720   5.170   0.035   0.454
 3607SOL    HW211721   5.059   0.102   0.355
 3608SOL     OW11722   0.599   2.235   2.256
 3608SOL    HW111723   0.528   2.300   2.228
 3608SOL    HW211724   0.671   2.283   2.304
 3609SOL     OW11725   6.618   0.698   4.450
 3609SOL    HW111726   6.593   0.636   4.524
 3609SOL    HW211727   6.712   0.729   4.462
 3610SOL     OW11728   1.492   6.511   5.809
 3610SOL    HW111729   1.476   6.598   5.855
 3610SOL    HW211730   1.409   6.456   5.813
 3611SOL     OW11731   3.882   5.290   5.803
 3611SOL    HW111732   3.879   5.205   5.751
 3611SOL    HW211733   3.821   5.357   5.761
 3612SOL     OW11734   1.297   6.951   0.785
 3612SOL    HW111735   1.286   0.022   0.798
 3612SOL    HW211736   1.230   6.902   0.839
 3613SOL     OW11737   5.854   5.283   6.682
 3613SOL    HW111738   5.847   5.196   6.632
 3613SOL    HW211739   5.795   5.351   6.639
 3614SOL     OW11740   3.705   3.012   3.539
 3614SOL    HW111741   3.639   2.944   3.569
 3614SOL    HW211742   3.715   3.008   3.439
 3615SOL     OW11743   6.034   5.954   6.143
 3615SOL    HW111744   6.014   6.049   6.120
 3615SOL    HW211745   6.062   5.948   6.239
 3616SOL     OW11746   6.984   2.077   5.002
 3616SOL    HW111747   6.936   2.149   5.053
 3616SOL    HW211748   0.013   2.118   4.931
 3617SOL     OW11749   6.912   1.564   6.461
 3617SOL    HW111750   6.978   1.529   6.528
 3617SOL    HW211751   6.822   1.570   6.503
 3618SOL     OW11752   2.096   1.943   6.652
 3618SOL    HW111753   2.141   1.936   6.741
 3618SOL    HW211754   2.066   1.852   6.623
 3619SOL     OW11755   5.642   2.441   4.177
 3619SOL    HW111756   5.639   2.405   4.084
 3619SOL    HW211757   5.573   2.395   4.233
 3620SOL     OW11758   5.875   0.034   4.800
 3620SOL    HW111759   5.894   7.012   4.715
 3620SOL    HW211760   5.776   0.048   4.809
 3621SOL     OW11761   2.485   3.564   5.725
 3621SOL    HW111762   2.536   3.508   5.791
 3621SOL    HW211763   2.398   3.593   5.766
 3622SOL     OW11764   1.072   2.184   1.820
 3622SOL    HW111765   0.975   2.175   1.841
 3622SOL    HW211766   1.103   2.277   1.841
 3623SOL     OW11767   5.400   5.000   3.263
 3623SOL    HW111768   5.322   4.972   3.206
 3623SOL    HW211769   5.397   5.099   3.276
 3624SOL     OW11770   2.683   6.726   3.303
 3624SOL    HW111771   2.640   6.674   3.229
 3624SOL    HW211772   2.614   6.756   3.368
 3625SOL     OW11773   6.526   3.334   5.066
 3625SOL    HW111774   6.616   3.295   5.048
 3625SOL    HW211775   6.530   3.433   5.055
 3626SOL     OW11776   2.003   3.913   5.224
 3626SOL    HW111777   2.079   3.944   5.281
 3626SOL    HW211778   2.038   3.880   5.136
 3627SOL     OW11779   3.171   3.591   3.597
 3627SOL    HW111780   3.146   3.682   3.631
 3627SOL    HW211781   3.270   3.579   3.604
 3628SOL     OW11782   2.369   5.674   2.256
 3628SOL    HW111783   2.433   5.743   2.220
 3628SOL    HW211784   2.365   5.682   2.355
 3629SOL     OW11785   6.146   1.546   5.093
 3629SOL    HW111786   6.194   1.460   5.110
 3629SOL    HW211787   6.048   1.532   5.107
 3630SOL     OW11788   6.559   1.897   4.370
 3630SOL    HW111789   6.475   1.943   4.402
 3630SOL    HW211790   6.639   1.943   4.410
 3631SOL     OW11791   2.870   0.596   4.973
 3631SOL    HW111792   2.836   0.617   5.064
 3631SOL    HW211793   2.871   0.680   4.918
 3632SOL     OW11794   5.060   0.955   0.447
 3632SOL    HW111795   5.030   0.967   0.541
 3632SOL    HW211796   5.153   0.989   0.437
 3633SOL     OW11797   2.595   2.645   5.904
 3633SOL    HW111798   2.618   2.585   5.980
 3633SOL    HW211799   2.596   2.741   5.935
 3634SOL     OW11800   2.127   5.930   5.053
 3634SOL    HW111801   2.059   5.946   5.124
 3634SOL    HW211802   2.082   5.895   4.971
 3635SOL     OW11803   2.671   1.667   5.928
 3635SOL    HW111804   2.661   1.569   5.944
 3635SOL    HW211805   2.702   1.712   6.013
 3636SOL     OW11806   0.512   5.388   5.908
 3636SOL    HW111807   0.607   5.372   5.879
 3636SOL    HW211808   0.504   5.366   6.005
 3637SOL     OW11809   5.408   0.860   1.504
 3637SOL    HW111810   5.309   0.875   1.496
 3637SOL    HW211811   5.425   0.782   1.564
 3638SOL     OW11812   0.140   4.532   4.035
 3638SOL    HW111813   0.218   4.471   4.050
 3638SOL    HW211814   0.141   4.605   4.104
 3639SOL     OW11815   2.197   4.887   0.898
 3639SOL    HW111816   2.235   4.796   0.916
 3639SOL    HW211817   2.116   4.901   0.954
 3640SOL     OW11818   3.486   5.577   1.385
 3640SOL    HW111819   3.520   5.643   1.452
 3640SOL    HW211820   3.407   5.529   1.424
 3641SOL     OW11821   3.185   0.838   5.193
 3641SOL    HW111822   3.106   0.826   5.133
 3641SOL    HW211823   3.251   0.764   5.178
 3642SOL     OW11824   4.939   0.897   4.218
 3642SOL    HW111825   4.980   0.986   4.239
 3642SOL    HW211826   5.005   0.825   4.240
 3643SOL     OW11827   2.133   5.274   5.075
 3643SOL    HW111828   2.083   5.355   5.045
 3643SOL    HW211829   2.069   5.199   5.091
 3644SOL     OW11830   6.695   1.738   0.965
 3644SOL    HW111831   6.666   1.765   1.057
 3644SOL    HW211832   6.627   1.769   0.898
 3645SOL     OW11833   4.451   1.819   3.626
 3645SOL    HW111834   4.467   1.730   3.669
 3645SOL    HW211835   4.361   1.819   3.583
 3646SOL     OW11836   0.358   4.793   5.786
 3646SOL    HW111837   0.277   4.778   5.844
 3646SOL    HW211838   0.359   4.887   5.754
 3647SOL     OW11839   1.512   2.713   0.807
 3647SOL    HW111840   1.440   2.650   0.776
 3647SOL    HW211841   1.549   2.762   0.728
 3648SOL     OW11842   3.395   5.515   2.095
 3648SOL    HW111843   3.383   5.609   2.127
 3648SOL    HW211844   3.490   5.502   2.065
 3649SOL     OW11845   4.335   3.487   0.926
 3649SOL    HW111846   4.305   3.468   1.020
 3649SOL    HW211847   4.266   3.455   0.862
 3650SOL     OW11848   0.236   6.111   1.177
 3650SOL    HW111849   0.218   6.017   1.205
 3650SOL    HW211850   0.298   6.112   1.099
 3651SOL     OW11851   0.366   5.888   2.448
 3651SOL    HW111852   0.380   5.908   2.546
 3651SOL    HW211853   0.280   5.929   2.417
 3652SOL     OW11854   4.882   6.205   3.235
 3652SOL    HW111855   4.861   6.139   3.164
 3652SOL    HW211856   4.970   6.184   3.277
 3653SOL     OW11857   6.345   1.709   3.082
 3653SOL    HW111858   6.326   1.728   2.986
 3653SOL    HW211859   6.352   1.610   3.096
 3654SOL     OW11860   1.589   6.545   0.705
 3654SOL    HW111861   1.648   6.529   0.626
 3654SOL    HW211862   1.640   6.528   0.789
 3655SOL     OW11863   1.702   0.156   4.620
 3655SOL    HW111864   1.677   0.176   4.525
 3655SOL    HW211865   1.642   0.206   4.681
 3656SOL     OW11866   1.855   2.583   2.247
 3656SOL    HW111867   1.880   2.495   2.207
 3656SOL    HW211868   1.758   2.600   2.233
 3657SOL     OW11869   3.713   5.625   0.970
 3657SOL    HW111870   3.631   5.655   0.922
 3657SOL    HW211871   3.731   5.687   1.047
 3658SOL     OW11872   1.125   5.822   5.291
 3658SOL    HW111873   1.123   5.725   5.264
 3658SOL    HW211874   1.168   5.876   5.219
 3659SOL     OW11875   2.890   4.792   0.256
 3659SOL    HW111876   2.884   4.818   0.353
 3659SOL    HW211877   2.817   4.728   0.234
 3660SOL     OW11878   4.728   6.011   1.788
 3660SOL    HW111879   4.818   6.053   1.796
 3660SOL    HW211880   4.738   5.917   1.755
 3661SOL     OW11881   4.869   1.225   0.699
 3661SOL    HW111882   4.795   1.292   0.703
 3661SOL    HW211883   4.948   1.264   0.652
 3662SOL     OW11884   3.501   0.081   5.472
 3662SOL    HW111885   3.569   0.137   5.518
 3662SOL    HW211886   3.455   0.134   5.401
 3663SOL     OW11887   1.464   2.102   0.388
 3663SOL    HW111888   1.370   2.094   0.356
 3663SOL    HW211889   1.468   2.081   0.485
 3664SOL     OW11890   5.134   1.575   0.807
 3664SOL    HW111891   5.167   1.490   0.847
 3664SOL    HW211892   5.166   1.653   0.861
 3665SOL     OW11893   0.277   0.132   5.275
 3665SOL    HW111894   0.370   0.108   5.249
 3665SOL    HW211895   0.278   0.213   5.334
 3666SOL     OW11896   1.584   4.071   4.080
 3666SOL    HW111897   1.602   4.124   3.997
 3666SOL    HW211898   1.544   4.130   4.149
 3667SOL     OW11899   6.736   0.814   6.650
 3667SOL    HW111900   6.685   0.899   6.658
 3667SOL    HW211901   6.781   0.793   6.737
 3668SOL     OW11902   1.615   6.950   2.933
 3668SOL    HW111903   1.645   7.021   2.868
 3668SOL    HW211904   1.560   6.991   3.005
 3669SOL     OW11905   6.173   1.795   4.096
 3669SOL    HW111906   6.153   1.844   4.011
 3669SOL    HW211907   6.257   1.742   4.084
 3670SOL     OW11908   2.560   5.674   6.386
 3670SOL    HW111909   2.464   5.693   6.406
 3670SOL    HW211910   2.618   5.733   6.443
 3671SOL     OW11911   0.572   0.354   3.309
 3671SOL    HW111912   0.522   0.277   3.271
 3671SOL    HW211913   0.572   0.429   3.243
 3672SOL     OW11914   6.186   2.006   0.031
 3672SOL    HW111915   6.235   2.077   7.008
 3672SOL    HW211916   6.177   2.033   0.127
 3673SOL     OW11917   4.616   1.181   6.925
 3673SOL    HW111918   4.666   1.266   6.938
 3673SOL    HW211919   4.554   1.189   6.847
 3674SOL     OW11920   0.524   6.780   6.895
 3674SOL    HW111921   0.482   6.754   6.982
 3674SOL    HW211922   0.518   6.703   6.831
 3675SOL     OW11923   1.722   2.609   5.402
 3675SOL    HW111924   1.688   2.549   5.475
 3675SOL    HW211925   1.688   2.576   5.314
 3676SOL     OW11926   3.668   4.922   4.256
 3676SOL    HW111927   3.690   4.981   4.334
 3676SOL    HW211928   3.571   4.930   4.235
 3677SOL     OW11929   6.825   6.368   2.910
 3677SOL    HW111930   6.763   6.425   2.855
 3677SOL    HW211931   6.901   6.424   2.943
 3678SOL     OW11932   1.492   2.198   3.876
 3678SOL    HW111933   1.463   2.279   3.927
 3678SOL    HW211934   1.592   2.189   3.879
 3679SOL     OW11935   0.267   0.930   2.182
 3679SOL    HW111936   0.268   0.946   2.281
 3679SOL    HW211937   0.286   0.833   2.165
 3680SOL     OW11938   6.161   3.043   3.710
 3680SOL    HW111939   6.220   3.091   3.645
 3680SOL    HW211940   6.074   3.021   3.665
 3681SOL     OW11941   0.603   6.875   5.761
 3681SOL    HW111942   0.514   6.851   5.799
 3681SOL    HW211943   0.601   6.863   5.662
 3682SOL     OW11944   6.762   1.986   5.456
 3682SOL    HW111945   6.730   1.915   5.519
 3682SOL    HW211946   6.724   2.074   5.484
 3683SOL     OW11947   6.119   6.470   4.619
 3683SOL    HW111948   6.167   6.382   4.617
 3683SOL    HW211949   6.172   6.539   4.571
 3684SOL     OW11950   1.745   3.430   1.899
 3684SOL    HW111951   1.751   3.333   1.876
 3684SOL    HW211952   1.834   3.474   1.883
 3685SOL     OW11953   6.262   6.252   6.191
 3685SOL    HW111954   6.310   6.267   6.277
 3685SOL    HW211955   6.312   6.186   6.135
 3686SOL     OW11956   6.488   4.813   1.985
 3686SOL    HW111957   6.574   4.770   2.014
 3686SOL    HW211958   6.499   4.912   1.986
 3687SOL     OW11959   2.481   0.169   6.663
 3687SOL    HW111960   2.527   0.104   6.602
 3687SOL    HW211961   2.550   0.221   6.714
 3688SOL     OW11962   1.012   3.792   6.992
 3688SOL    HW111963   1.053   3.805   6.902
 3688SOL    HW211964   0.930   3.734   6.984
 3689SOL     OW11965   2.206   1.390   5.219
 3689SOL    HW111966   2.167   1.480   5.201
 3689SOL    HW211967   2.212   1.375   5.318
 3690SOL     OW11968   5.817   0.649   6.069
 3690SOL    HW111969   5.787   0.711   5.996
 3690SOL    HW211970   5.736   0.612   6.115
 3691SOL     OW11971   3.030   4.032   7.025
 3691SOL    HW111972   2.940   4.007   0.035
 3691SOL    HW211973   3.093   3.956   0.008
 3692SOL     OW11974   1.028   6.407   5.039
 3692SOL    HW111975   0.933   6.438   5.047
 3692SOL    HW211976   1.036   6.315   5.078
 3693SOL     OW11977   3.011   2.221   3.551
 3693SOL    HW111978   3.066   2.180   3.624
 3693SOL    HW211979   3.054   2.201   3.463
 3694SOL     OW11980   1.173   6.471   3.453
 3694SOL    HW111981   1.106   6.398   3.461
 3694SOL    HW211982   1.254   6.437   3.405
 3695SOL     OW11983   1.662   1.800   2.408
 3695SOL    HW111984   1.629   1.879   2.459
 3695SOL    HW211985   1.727   1.748   2.464
 3696SOL     OW11986   4.586   6.505   5.597
 3696SOL    HW111987   4.646   6.565   5.543
 3696SOL    HW211988   4.632   6.482   5.683
 3697SOL     OW11989   6.732   6.723   3.590
 3697SOL    HW111990   6.796   6.662   3.636
 3697SOL    HW211991   6.710   6.686   3.500
 3698SOL     OW11992   3.061   0.207   5.969
 3698SOL    HW111993   3.091   0.130   5.912
 3698SOL    HW211994   2.970   0.236   5.940
 3699SOL     OW11995   6.496   3.683   2.746
 3699SOL    HW111996   6.465   3.728   2.829
 3699SOL    HW211997   6.570   3.736   2.704
 3700SOL     OW11998   5.966   0.295   4.229
 3700SOL    HW111999   5.873   0.329   4.233
 3700SOL    HW212000   5.981   0.247   4.142
 3701SOL     OW12001   0.068   0.807   3.998
 3701SOL    HW112002   7.002   0.813   3.962
 3701SOL    HW212003   0.083   0.880   4.065
 3702SOL     OW12004   3.604   0.290   1.253
 3702SOL    HW112005   3.522   0.340   1.225
 3702SOL    HW212006   3.598   0.270   1.351
 3703SOL     OW12007   4.012   4.719   6.278
 3703SOL    HW112008   4.031   4.795   6.215
 3703SOL    HW212009   3.915   4.719   6.302
 3704SOL     OW12010   2.632   0.964   2.575
 3704SOL    HW112011   2.669   0.921   2.493
 3704SOL    HW212012   2.706   0.979   2.640
 3705SOL     OW12013   5.013   0.331   3.577
 3705SOL    HW112014   5.055   0.422   3.568
 3705SOL    HW212015   5.042   0.290   3.663
 3706SOL     OW12016   1.858   3.386   4.185
 3706SOL    HW112017   1.872   3.346   4.094
 3706SOL    HW212018   1.848   3.313   4.253
 3707SOL     OW12019   4.844   2.127   5.914
 3707SOL    HW112020   4.877   2.217   5.940
 3707SOL    HW212021   4.915   2.079   5.861
 3708SOL     OW12022   6.123   0.652   6.718
 3708SOL    HW112023   6.099   0.741   6.756
 3708SOL    HW212024   6.164   0.665   6.627
 3709SOL     OW12025   3.801   0.901   5.916
 3709SOL    HW112026   3.705   0.918   5.937
 3709SOL    HW212027   3.827   0.955   5.836
 3710SOL     OW12028   6.469   5.176   0.233
 3710SOL    HW112029   6.392   5.209   0.179
 3710SOL    HW212030   6.443   5.091   0.280
 3711SOL     OW12031   0.243   6.278   2.271
 3711SOL    HW112032   0.329   6.275   2.220
 3711SOL    HW212033   0.239   6.361   2.325
 3712SOL     OW12034   0.632   6.701   6.550
 3712SOL    HW112035   0.639   6.794   6.587
 3712SOL    HW212036   0.665   6.700   6.456
 3713SOL     OW12037   2.890   5.904   5.062
 3713SOL    HW112038   2.834   5.862   5.133
 3713SOL    HW212039   2.904   5.838   4.988
 3714SOL     OW12040   4.332   0.041   4.554
 3714SOL    HW112041   4.277   6.992   4.518
 3714SOL    HW212042   4.357   0.022   4.649
 3715SOL     OW12043   4.964   4.912   4.095
 3715SOL    HW112044   4.969   5.012   4.093
 3715SOL    HW212045   4.985   4.880   4.188
 3716SOL     OW12046   6.758   0.267   4.469
 3716SOL    HW112047   6.794   0.177   4.493
 3716SOL    HW212048   6.833   0.325   4.437
 3717SOL     OW12049   6.288   5.537   0.572
 3717SOL    HW112050   6.276   5.440   0.548
 3717SOL    HW212051   6.199   5.577   0.596
 3718SOL     OW12052   1.231   6.604   0.076
 3718SOL    HW112053   1.299   6.590   0.147
 3718SOL    HW212054   1.240   6.533   0.007
 3719SOL     OW12055   4.856   5.015   0.389
 3719SOL    HW112056   4.810   4.926   0.385
 3719SOL    HW212057   4.926   5.013   0.461
 3720SOL     OW12058   6.934   1.689   6.210
 3720SOL    HW112059   6.934   1.644   6.300
 3720SOL    HW212060   6.933   1.788   6.223
 3721SOL     OW12061   5.768   4.725   0.358
 3721SOL    HW112062   5.787   4.791   0.430
 3721SOL    HW212063   5.672   4.696   0.362
 3722SOL     OW12064   0.085   5.714   2.541
 3722SOL    HW112065   0.185   5.721   2.550
 3722SOL    HW212066   0.060   5.711   2.444
 3723SOL     OW12067   5.363   6.784   1.833
 3723SOL    HW112068   5.412   6.871   1.824
 3723SOL    HW212069   5.418   6.710   1.795
 3724SOL     OW12070   1.000   5.511   0.606
 3724SOL    HW112071   1.080   5.473   0.559
 3724SOL    HW212072   0.928   5.442   0.610
 3725SOL     OW12073   6.974   5.881   6.671
 3725SOL    HW112074   7.006   5.951   6.735
 3725SOL    HW212075   6.990   5.911   6.577
 3726SOL     OW12076   5.419   3.761   2.123
 3726SOL    HW112077   5.470   3.712   2.194
 3726SOL    HW212078   5.417   3.858   2.145
 3727SOL     OW12079   1.403   2.937   5.206
 3727SOL    HW112080   1.485   2.993   5.212
 3727SOL    HW212081   1.405   2.882   5.123
 3728SOL     OW12082   2.293   3.281   6.941
 3728SOL    HW112083   2.277   3.195   6.894
 3728SOL    HW212084   2.207   3.330   6.954
 3729SOL     OW12085   0.769   2.063   3.593
 3729SOL    HW112086   0.778   2.158   3.624
 3729SOL    HW212087   0.790   2.001   3.667
 3730SOL     OW12088   2.838   0.878   6.886
 3730SOL    HW112089   2.858   0.791   6.931
 3730SOL    HW212090   2.912   0.942   6.902
 3731SOL     OW12091   4.336   0.699   0.656
 3731SOL    HW112092   4.397   0.742   0.723
 3731SOL    HW212093   4.276   0.769   0.617
 3732SOL     OW12094   1.934   3.357   5.568
 3732SOL    HW112095   1.931   3.454   5.541
 3732SOL    HW212096   1.998   3.345   5.643
 3733SOL     OW12097   2.621   3.634   1.421
 3733SOL    HW112098   2.582   3.615   1.512
 3733SOL    HW212099   2.709   3.679   1.432
 3734SOL     OW12100   4.285   1.322   2.594
 3734SOL    HW112101   4.327   1.299   2.682
 3734SOL    HW212102   4.269   1.420   2.590
 3735SOL     OW12103   2.156   2.520   2.883
 3735SOL    HW112104   2.107   2.567   2.809
 3735SOL    HW212105   2.213   2.587   2.932
 3736SOL     OW12106   6.435   2.675   0.916
 3736SOL    HW112107   6.448   2.590   0.866
 3736SOL    HW212108   6.384   2.740   0.860
 3737SOL     OW12109   5.106   0.082   3.102
 3737SOL    HW112110   5.028   0.139   3.076
 3737SOL    HW212111   5.148   0.119   3.185
 3738SOL     OW12112   6.231   6.238   3.904
 3738SOL    HW112113   6.159   6.293   3.945
 3738SOL    HW212114   6.196   6.193   3.822
 3739SOL     OW12115   1.102   3.916   2.642
 3739SOL    HW112116   1.120   3.835   2.698
 3739SOL    HW212117   1.030   3.895   2.576
 3740SOL     OW12118   5.151   1.470   6.753
 3740SOL    HW112119   5.180   1.553   6.801
 3740SOL    HW212120   5.186   1.389   6.802
 3741SOL     OW12121   4.887   2.989   1.120
 3741SOL    HW112122   4.790   2.965   1.115
 3741SOL    HW212123   4.898   3.086   1.103
 3742SOL     OW12124   3.711   2.081   6.090
 3742SOL    HW112125   3.668   1.996   6.061
 3742SOL    HW212126   3.789   2.102   6.031
 3743SOL     OW12127   6.785   5.102   0.143
 3743SOL    HW112128   6.839   5.020   0.166
 3743SOL    HW212129   6.801   5.172   0.213
 3744SOL     OW12130   6.936   4.997   3.922
 3744SOL    HW112131   0.004   5.028   3.919
 3744SOL    HW212132   6.932   4.899   3.903
 3745SOL     OW12133   3.715   5.602   2.617
 3745SOL    HW112134   3.689   5.683   2.670
 3745SOL    HW212135   3.815   5.593   2.619
 3746SOL     OW12136   4.796   2.106   1.750
 3746SOL    HW112137   4.798   2.007   1.735
 3746SOL    HW212138   4.745   2.126   1.833
 3747SOL     OW12139   3.389   0.009   6.814
 3747SOL    HW112140   3.374   7.001   6.722
 3747SOL    HW212141   3.406   6.960   6.876
 3748SOL     OW12142   5.925   0.650   1.296
 3748SOL    HW112143   5.942   0.666   1.199
 3748SOL    HW212144   5.847   0.704   1.326
 3749SOL     OW12145   1.514   6.740   4.459
 3749SOL    HW112146   1.499   6.754   4.361
 3749SOL    HW212147   1.469   6.814   4.510
 3750SOL     OW12148   0.144   3.716   0.429
 3750SOL    HW112149   0.105   3.665   0.352
 3750SOL    HW212150   0.115   3.673   0.515
 3751SOL     OW12151   0.368   4.607   2.979
 3751SOL    HW112152   0.379   4.687   3.038
 3751SOL    HW212153   0.457   4.568   2.958
 3752SOL     OW12154   6.399   1.137   5.553
 3752SOL    HW112155   6.430   1.102   5.465
 3752SOL    HW212156   6.361   1.229   5.542
 3753SOL     OW12157   6.373   1.087   3.752
 3753SOL    HW112158   6.345   1.182   3.767
 3753SOL    HW212159   6.461   1.085   3.706
 3754SOL     OW12160   1.726   1.734   1.376
 3754SOL    HW112161   1.640   1.711   1.331
 3754SOL    HW212162   1.709   1.803   1.447
 3755SOL     OW12163   2.687   5.031   4.421
 3755SOL    HW112164   2.624   5.046   4.497
 3755SOL    HW212165   2.734   4.943   4.433
 3756SOL     OW12166   2.727   6.369   6.933
 3756SOL    HW112167   2.736   6.293   6.997
 3756SOL    HW212168   2.638   6.413   6.945
 3757SOL     OW12169   6.309   4.487   1.662
 3757SOL    HW112170   6.240   4.486   1.590
 3757SOL    HW212171   6.357   4.574   1.661
 3758SOL     OW12172   1.954   0.134   3.162
 3758SOL    HW112173   2.009   0.095   3.088
 3758SOL    HW212174   1.859   0.143   3.131
 3759SOL     OW12175   5.108   0.686   4.276
 3759SOL    HW112176   5.073   0.596   4.305
 3759SOL    HW212177   5.208   0.684   4.273
 3760SOL     OW12178   0.019   0.497   3.502
 3760SOL    HW112179   0.077   0.447   3.566
 3760SOL    HW212180   0.032   0.461   3.410
 3761SOL     OW12181   5.442   1.219   4.021
 3761SOL    HW112182   5.501   1.251   3.947
 3761SOL    HW212183   5.499   1.180   4.093
 3762SOL     OW12184   0.843   3.894   2.778
 3762SOL    HW112185   0.943   3.890   2.768
 3762SOL    HW212186   0.815   3.837   2.855
 3763SOL     OW12187   6.895   4.530   0.360
 3763SOL    HW112188   6.811   4.530   0.414
 3763SOL    HW212189   6.886   4.465   0.284
 3764SOL     OW12190   1.999   0.058   2.832
 3764SOL    HW112191   1.951   0.102   2.756
 3764SOL    HW212192   2.081   0.111   2.855
 3765SOL     OW12193   6.058   1.889   2.046
 3765SOL    HW112194   6.136   1.837   2.013
 3765SOL    HW212195   6.056   1.979   2.001
 3766SOL     OW12196   1.508   4.171   3.395
 3766SOL    HW112197   1.447   4.230   3.448
 3766SOL    HW212198   1.603   4.197   3.413
 3767SOL     OW12199   2.662   5.258   6.453
 3767SOL    HW112200   2.642   5.208   6.369
 3767SOL    HW212201   2.587   5.245   6.518
 3768SOL     OW12202   1.576   0.204   5.083
 3768SOL    HW112203   1.675   0.220   5.078
 3768SOL    HW212204   1.535   0.270   5.146
 3769SOL     OW12205   4.973   6.319   4.566
 3769SOL    HW112206   4.949   6.222   4.565
 3769SOL    HW212207   5.065   6.330   4.528
 3770SOL     OW12208   0.637   0.770   0.305
 3770SOL    HW112209   0.717   0.782   0.246
 3770SOL    HW212210   0.554   0.794   0.254
 3771SOL     OW12211   0.623   4.882   0.264
 3771SOL    HW112212   0.673   4.866   0.349
 3771SOL    HW212213   0.627   4.979   0.240
 3772SOL     OW12214   1.569   5.546   0.687
 3772SOL    HW112215   1.615   5.502   0.764
 3772SOL    HW212216   1.614   5.633   0.667
 3773SOL     OW12217   5.656   3.241   5.952
 3773SOL    HW112218   5.728   3.238   6.021
 3773SOL    HW212219   5.644   3.150   5.912
 3774SOL     OW12220   5.405   5.981   1.351
 3774SOL    HW112221   5.400   5.917   1.428
 3774SOL    HW212222   5.329   5.965   1.289
 3775SOL     OW12223   4.397   5.035   3.472
 3775SOL    HW112224   4.362   5.053   3.564
 3775SOL    HW212225   4.497   5.033   3.474
 3776SOL     OW12226   3.421   2.465   6.806
 3776SOL    HW112227   3.409   2.366   6.803
 3776SOL    HW212228   3.489   2.492   6.738
 3777SOL     OW12229   3.109   6.144   4.433
 3777SOL    HW112230   3.036   6.102   4.378
 3777SOL    HW212231   3.073   6.225   4.480
 3778SOL     OW12232   2.966   5.369   5.136
 3778SOL    HW112233   3.051   5.320   5.151
 3778SOL    HW212234   2.913   5.324   5.065
 3779SOL     OW12235   0.070   5.247   0.105
 3779SOL    HW112236   0.061   5.199   0.018
 3779SOL    HW212237   0.054   5.183   0.180
 3780SOL     OW12238   6.475   3.760   0.971
 3780SOL    HW112239   6.528   3.805   1.043
 3780SOL    HW212240   6.490   3.662   0.975
 3781SOL     OW12241   2.389   6.334   5.141
 3781SOL    HW112242   2.439   6.254   5.108
 3781SOL    HW212243   2.416   6.415   5.087
 3782SOL     OW12244   5.080   5.971   1.413
 3782SOL    HW112245   5.151   5.991   1.480
 3782SOL    HW212246   5.118   5.973   1.321
 3783SOL     OW12247   5.618   4.972   5.289
 3783SOL    HW112248   5.534   5.016   5.257
 3783SOL    HW212249   5.684   5.043   5.314
 3784SOL     OW12250   5.463   2.651   3.559
 3784SOL    HW112251   5.534   2.686   3.620
 3784SOL    HW212252   5.492   2.562   3.522
 3785SOL     OW12253   1.122   3.919   4.551
 3785SOL    HW112254   1.029   3.883   4.547
 3785SOL    HW212255   1.187   3.843   4.549
 3786SOL     OW12256   2.421   2.464   4.575
 3786SOL    HW112257   2.429   2.518   4.659
 3786SOL    HW212258   2.372   2.379   4.596
 3787SOL     OW12259   4.590   7.019   3.059
 3787SOL    HW112260   4.568   0.024   2.967
 3787SOL    HW212261   4.505   7.008   3.112
 3788SOL     OW12262   0.121   2.761   5.412
 3788SOL    HW112263   0.061   2.831   5.450
 3788SOL    HW212264   0.163   2.709   5.487
 3789SOL     OW12265   1.647   3.095   2.705
 3789SOL    HW112266   1.726   3.134   2.752
 3789SOL    HW212267   1.566   3.100   2.764
 3790SOL     OW12268   0.336   6.812   0.721
 3790SOL    HW112269   0.419   6.866   0.734
 3790SOL    HW212270   0.277   6.822   0.801
 3791SOL     OW12271   5.847   1.479   6.194
 3791SOL    HW112272   5.850   1.471   6.094
 3791SOL    HW212273   5.757   1.452   6.227
 3792SOL     OW12274   0.905   0.608   3.784
 3792SOL    HW112275   1.001   0.632   3.775
 3792SOL    HW212276   0.891   0.559   3.870
 3793SOL     OW12277   5.896   5.820   0.361
 3793SOL    HW112278   5.952   5.738   0.352
 3793SOL    HW212279   5.861   5.847   0.271
 3794SOL     OW12280   2.060   4.111   6.955
 3794SOL    HW112281   2.134   4.074   6.898
 3794SOL    HW212282   2.085   4.101   0.024
 3795SOL     OW12283   3.003   5.719   1.363
 3795SOL    HW112284   2.943   5.757   1.433
 3795SOL    HW212285   3.094   5.701   1.402
 3796SOL     OW12286   3.958   2.601   6.643
 3796SOL    HW112287   3.926   2.619   6.550
 3796SOL    HW212288   4.051   2.636   6.654
 3797SOL     OW12289   0.828   4.755   3.172
 3797SOL    HW112290   0.832   4.810   3.088
 3797SOL    HW212291   0.825   4.815   3.252
 3798SOL     OW12292   2.072   6.589   2.913
 3798SOL    HW112293   2.041   6.564   3.004
 3798SOL    HW212294   2.038   6.681   2.890
 3799SOL     OW12295   0.124   2.195   2.929
 3799SOL    HW112296   0.048   2.246   2.970
 3799SOL    HW212297   0.105   2.097   2.931
 3800SOL     OW12298   6.056   1.958   2.764
 3800SOL    HW112299   5.983   2.011   2.721
 3800SOL    HW212300   6.074   1.993   2.856
 3801SOL     OW12301   5.501   0.010   1.878
 3801SOL    HW112302   5.436   0.040   1.808
 3801SOL    HW212303   5.463   0.028   1.969
 3802SOL     OW12304   6.312   1.972   2.205
 3802SOL    HW112305   6.385   1.927   2.153
 3802SOL    HW212306   6.236   1.908   2.216
 3803SOL     OW12307   2.921   3.568   4.363
 3803SOL    HW112308   2.929   3.581   4.264
 3803SOL    HW212309   2.924   3.471   4.385
 3804SOL     OW12310   3.397   6.653   4.613
 3804SOL    HW112311   3.446   6.650   4.526
 3804SOL    HW212312   3.389   6.748   4.643
 3805SOL     OW12313   2.078   2.684   0.145
 3805SOL    HW112314   2.007   2.677   0.215
 3805SOL    HW212315   2.115   2.593   0.126
 3806SOL     OW12316   3.882   4.283   0.135
 3806SOL    HW112317   3.797   4.233   0.120
 3806SOL    HW212318   3.941   4.231   0.197
 3807SOL     OW12319   1.813   4.520   4.205
 3807SOL    HW112320   1.780   4.577   4.130
 3807SOL    HW212321   1.911   4.504   4.193
 3808SOL     OW12322   4.291   0.042   6.073
 3808SOL    HW112323   4.259   6.977   6.094
 3808SOL    HW212324   4.391   0.043   6.069
 3809SOL     OW12325   5.246   2.172   1.509
 3809SOL    HW112326   5.204   2.209   1.425
 3809SOL    HW212327   5.190   2.196   1.588
 3810SOL     OW12328   6.839   2.408   2.337
 3810SOL    HW112329   6.892   2.327   2.359
 3810SOL    HW212330   6.863   2.441   2.246
 3811SOL     OW12331   6.352   5.458   4.676
 3811SOL    HW112332   6.334   5.552   4.705
 3811SOL    HW212333   6.450   5.441   4.680
 3812SOL     OW12334   3.848   6.360   6.882
 3812SOL    HW112335   3.892   6.301   6.814
 3812SOL    HW212336   3.916   6.396   6.945
 3813SOL     OW12337   6.436   3.849   0.192
 3813SOL    HW112338   6.479   3.839   0.281
 3813SOL    HW212339   6.433   3.760   0.145
 3814SOL     OW12340   6.564   0.037   4.186
 3814SOL    HW112341   6.513   7.020   4.113
 3814SOL    HW212342   6.541   0.134   4.188
 3815SOL     OW12343   4.832   3.370   0.249
 3815SOL    HW112344   4.911   3.384   0.309
 3815SOL    HW212345   4.836   3.433   0.171
 3816SOL     OW12346   1.076   5.738   6.560
 3816SOL    HW112347   1.028   5.650   6.563
 3816SOL    HW212348   1.077   5.772   6.466
 3817SOL     OW12349   5.114   3.474   2.293
 3817SOL    HW112350   5.186   3.463   2.225
 3817SOL    HW212351   5.147   3.532   2.367
 3818SOL     OW12352   0.244   0.712   1.833
 3818SOL    HW112353   0.158   0.680   1.795
 3818SOL    HW212354   0.254   0.679   1.927
 3819SOL     OW12355   6.145   4.986   3.890
 3819SOL    HW112356   6.119   4.943   3.976
 3819SOL    HW212357   6.083   4.958   3.818
 3820SOL     OW12358   5.422   0.230   4.409
 3820SOL    HW112359   5.369   0.308   4.441
 3820SOL    HW212360   5.514   0.232   4.448
 3821SOL     OW12361   0.697   0.221   6.823
 3821SOL    HW112362   0.695   0.170   6.737
 3821SOL    HW212363   0.713   0.157   6.899
 3822SOL     OW12364   3.735   1.125   0.143
 3822SOL    HW112365   3.778   1.186   0.076
 3822SOL    HW212366   3.637   1.123   0.128
 3823SOL     OW12367   4.892   4.598   6.131
 3823SOL    HW112368   4.958   4.523   6.134
 3823SOL    HW212369   4.834   4.588   6.050
 3824SOL     OW12370   1.877   3.359   0.482
 3824SOL    HW112371   1.882   3.385   0.386
 3824SOL    HW212372   1.969   3.362   0.522
 3825SOL     OW12373   1.600   3.713   6.237
 3825SOL    HW112374   1.694   3.717   6.204
 3825SOL    HW212375   1.596   3.749   6.331
 3826SOL     OW12376   5.301   4.210   2.502
 3826SOL    HW112377   5.400   4.204   2.517
 3826SOL    HW212378   5.282   4.202   2.404
 3827SOL     OW12379   1.327   1.032   1.509
 3827SOL    HW112380   1.369   1.082   1.585
 3827SOL    HW212381   1.354   0.935   1.514
 3828SOL     OW12382   3.851   4.065   4.636
 3828SOL    HW112383   3.926   4.000   4.624
 3828SOL    HW212384   3.814   4.090   4.546
 3829SOL     OW12385   0.342   4.112   2.520
 3829SOL    HW112386   0.370   4.070   2.434
 3829SOL    HW212387   0.366   4.209   2.520
 3830SOL     OW12388   0.421   0.868   4.795
 3830SOL    HW112389   0.519   0.881   4.779
 3830SOL    HW212390   0.368   0.923   4.732
 3831SOL     OW12391   4.597   1.870   3.374
 3831SOL    HW112392   4.697   1.870   3.379
 3831SOL    HW212393   4.559   1.863   3.466
 3832SOL     OW12394   0.834   0.319   2.435
 3832SOL    HW112395   0.826   0.384   2.510
 3832SOL    HW212396   0.814   0.227   2.469
 3833SOL     OW12397   1.094   0.118   6.433
 3833SOL    HW112398   1.073   0.214   6.416
 3833SOL    HW212399   1.143   0.109   6.520
 3834SOL     OW12400   4.952   3.805   1.468
 3834SOL    HW112401   4.973   3.822   1.372
 3834SOL    HW212402   4.898   3.721   1.475
 3835SOL     OW12403   3.756   6.275   5.623
 3835SOL    HW112404   3.825   6.299   5.691
 3835SOL    HW212405   3.789   6.199   5.567
 3836SOL     OW12406   0.418   5.162   6.400
 3836SOL    HW112407   0.423   5.178   6.499
 3836SOL    HW212408   0.415   5.064   6.382
 3837SOL     OW12409   4.004   4.914   4.880
 3837SOL    HW112410   4.093   4.958   4.879
 3837SOL    HW212411   3.993   4.859   4.798
 3838SOL     OW12412   1.936   1.221   3.233
 3838SOL    HW112413   1.887   1.192   3.151
 3838SOL    HW212414   2.033   1.234   3.213
 3839SOL     OW12415   4.231   0.293   3.016
 3839SOL    HW112416   4.176   0.289   3.099
 3839SOL    HW212417   4.224   0.206   2.967
 3840SOL     OW12418   2.477   0.661   0.207
 3840SOL    HW112419   2.398   0.719   0.187
 3840SOL    HW212420   2.455   0.598   0.281
 3841SOL     OW12421   6.071   4.866   4.126
 3841SOL    HW112422   5.991   4.914   4.161
 3841SOL    HW212423   6.046   4.772   4.102
 3842SOL     OW12424   2.264   2.768   5.177
 3842SOL    HW112425   2.200   2.786   5.252
 3842SOL    HW212426   2.285   2.854   5.130
 3843SOL     OW12427   4.987   2.919   0.529
 3843SOL    HW112428   5.041   2.887   0.607
 3843SOL    HW212429   4.944   3.006   0.553
 3844SOL     OW12430   1.373   5.269   0.064
 3844SOL    HW112431   1.351   5.199   0.133
 3844SOL    HW212432   1.472   5.284   0.063
 3845SOL     OW12433   2.318   6.455   0.664
 3845SOL    HW112434   2.218   6.455   0.665
 3845SOL    HW212435   2.351   6.548   0.680
 3846SOL     OW12436   0.919   3.164   4.205
 3846SOL    HW112437   0.986   3.090   4.209
 3846SOL    HW212438   0.911   3.206   4.296
 3847SOL     OW12439   6.314   1.312   5.146
 3847SOL    HW112440   6.301   1.216   5.121
 3847SOL    HW212441   6.411   1.330   5.159
 3848SOL     OW12442   5.071   3.449   2.599
 3848SOL    HW112443   5.036   3.367   2.554
 3848SOL    HW212444   5.031   3.530   2.555
 3849SOL     OW12445   0.328   5.850   5.886
 3849SOL    HW112446   0.357   5.772   5.831
 3849SOL    HW212447   0.313   5.929   5.827
 3850SOL     OW12448   2.942   1.982   1.585
 3850SOL    HW112449   2.964   2.022   1.496
 3850SOL    HW212450   2.999   2.023   1.656
 3851SOL     OW12451   7.014   5.523   3.463
 3851SOL    HW112452   6.996   5.490   3.555
 3851SOL    HW212453   6.949   5.596   3.440
 3852SOL     OW12454   2.942   6.725   4.382
 3852SOL    HW112455   3.014   6.661   4.408
 3852SOL    HW212456   2.963   6.764   4.292
 3853SOL     OW12457   1.993   1.414   3.837
 3853SOL    HW112458   2.020   1.388   3.930
 3853SOL    HW212459   1.988   1.332   3.780
 3854SOL     OW12460   1.884   2.349   2.815
 3854SOL    HW112461   1.904   2.263   2.861
 3854SOL    HW212462   1.893   2.337   2.716
 3855SOL     OW12463   4.378   6.324   0.173
 3855SOL    HW112464   4.382   6.423   0.180
 3855SOL    HW212465   4.447   6.293   0.107
 3856SOL     OW12466   6.939   2.214   5.904
 3856SOL    HW112467   6.967   2.274   5.829
 3856SOL    HW212468   6.920   2.123   5.869
 3857SOL     OW12469   2.374   0.427   6.260
 3857SOL    HW112470   2.310   0.350   6.262
 3857SOL    HW212471   2.323   0.513   6.257
 3858SOL     OW12472   3.419   1.646   5.393
 3858SOL    HW112473   3.471   1.685   5.317
 3858SOL    HW212474   3.327   1.623   5.362
 3859SOL     OW12475   5.423   0.153   0.982
 3859SOL    HW112476   5.456   0.126   1.072
 3859SOL    HW212477   5.346   0.216   0.992
 3860SOL     OW12478   2.080   0.727   4.478
 3860SOL    HW112479   2.015   0.707   4.405
 3860SOL    HW212480   2.167   0.755   4.438
 3861SOL     OW12481   4.403   5.411   2.416
 3861SOL    HW112482   4.483   5.455   2.375
 3861SOL    HW212483   4.433   5.338   2.477
 3862SOL     OW12484   0.432   7.026   4.194
 3862SOL    HW112485   0.429   0.094   4.164
 3862SOL    HW212486   0.510   6.980   4.151
 3863SOL     OW12487   4.247   0.668   0.026
 3863SOL    HW112488   4.221   0.597   6.988
 3863SOL    HW212489   4.312   0.631   0.092
 3864SOL     OW12490   2.249   0.487   4.968
 3864SOL    HW112491   2.243   0.512   5.065
 3864SOL    HW212492   2.196   0.550   4.913
 3865SOL     OW12493   4.865   0.805   6.950
 3865SOL    HW112494   4.936   0.811   6.880
 3865SOL    HW212495   4.892   0.740   7.021
 3866SOL     OW12496   3.279   2.034   0.032
 3866SOL    HW112497   3.202   1.998   0.084
 3866SOL    HW212498   3.283   2.134   0.042
 3867SOL     OW12499   1.529   4.522   3.318
 3867SOL    HW112500   1.588   4.521   3.399
 3867SOL    HW212501   1.554   4.447   3.257
 3868SOL     OW12502   3.831   0.574   6.411
 3868SOL    HW112503   3.782   0.525   6.482
 3868SOL    HW212504   3.769   0.597   6.336
 3869SOL     OW12505   6.984   3.724   3.914
 3869SOL    HW112506   6.914   3.653   3.922
 3869SOL    HW212507   6.970   3.774   3.828
 3870SOL     OW12508   6.662   0.032   2.832
 3870SOL    HW112509   6.580   0.087   2.851
 3870SOL    HW212510   6.658   6.975   2.886
 3871SOL     OW12511   3.285   6.267   3.425
 3871SOL    HW112512   3.319   6.361   3.419
 3871SOL    HW212513   3.187   6.268   3.441
 3872SOL     OW12514   3.363   3.576   4.244
 3872SOL    HW112515   3.271   3.576   4.283
 3872SOL    HW212516   3.387   3.669   4.217
 3873SOL     OW12517   5.282   3.683   0.336
 3873SOL    HW112518   5.242   3.756   0.391
 3873SOL    HW212519   5.215   3.609   0.326
 3874SOL     OW12520   4.422   0.024   0.359
 3874SOL    HW112521   4.518   0.037   0.384
 3874SOL    HW212522   4.388   6.966   0.399
 3875SOL     OW12523   1.929   2.928   4.227
 3875SOL    HW112524   1.888   2.926   4.318
 3875SOL    HW212525   2.006   2.992   4.226
 3876SOL     OW12526   3.813   6.130   0.146
 3876SOL    HW112527   3.874   6.095   0.075
 3876SOL    HW212528   3.804   6.063   0.219
 3877SOL     OW12529   6.814   2.275   0.666
 3877SOL    HW112530   6.761   2.351   0.629
 3877SOL    HW212531   6.857   2.303   0.753
 3878SOL     OW12532   4.969   0.067   4.286
 3878SOL    HW112533   4.978   0.153   4.235
 3878SOL    HW212534   4.955   7.019   4.221
 3879SOL     OW12535   5.536   5.174   0.136
 3879SOL    HW112536   5.472   5.106   0.172
 3879SOL    HW212537   5.486   5.254   0.104
 3880SOL     OW12538   5.305   3.879   4.927
 3880SOL    HW112539   5.356   3.917   4.850
 3880SOL    HW212540   5.249   3.802   4.895
 3881SOL     OW12541   1.159   3.218   0.838
 3881SOL    HW112542   1.154   3.249   0.743
 3881SOL    HW212543   1.167   3.297   0.899
 3882SOL     OW12544   1.192   1.056   6.948
 3882SOL    HW112545   1.108   1.077   6.897
 3882SOL    HW212546   1.221   1.137   6.999
 3883SOL     OW12547   4.646   0.407   2.574
 3883SOL    HW112548   4.735   0.431   2.536
 3883SOL    HW212549   4.578   0.473   2.542
 3884SOL     OW12550   0.684   6.203   3.251
 3884SOL    HW112551   0.775   6.177   3.220
 3884SOL    HW212552   0.665   6.160   3.339
 3885SOL     OW12553   5.836   6.599   3.330
 3885SOL    HW112554   5.915   6.660   3.338
 3885SOL    HW212555   5.752   6.653   3.330
 3886SOL     OW12556   4.603   5.577   5.874
 3886SOL    HW112557   4.527   5.641   5.878
 3886SOL    HW212558   4.593   5.517   5.794
 3887SOL     OW12559   0.705   6.723   0.303
 3887SOL    HW112560   0.737   6.793   0.367
 3887SOL    HW212561   0.769   6.717   0.226
 3888SOL     OW12562   5.667   6.360   4.544
 3888SOL    HW112563   5.716   6.333   4.627
 3888SOL    HW212564   5.581   6.404   4.569
 3889SOL     OW12565   6.259   2.350   6.595
 3889SOL    HW112566   6.257   2.418   6.669
 3889SOL    HW212567   6.180   2.290   6.602
 3890SOL     OW12568   5.778   4.463   4.278
 3890SOL    HW112569   5.869   4.428   4.257
 3890SOL    HW212570   5.759   4.453   4.375
 3891SOL     OW12571   4.840   4.210   3.423
 3891SOL    HW112572   4.812   4.172   3.334
 3891SOL    HW212573   4.762   4.256   3.465
 3892SOL     OW12574   0.563   3.101   1.309
 3892SOL    HW112575   0.546   3.167   1.235
 3892SOL    HW212576   0.484   3.101   1.371
 3893SOL     OW12577   4.285   3.435   1.378
 3893SOL    HW112578   4.355   3.427   1.448
 3893SOL    HW212579   4.272   3.531   1.354
 3894SOL     OW12580   5.284   0.692   6.635
 3894SOL    HW112581   5.374   0.736   6.628
 3894SOL    HW212582   5.294   0.604   6.681
 3895SOL     OW12583   1.836   0.327   5.015
 3895SOL    HW112584   1.927   0.327   5.056
 3895SOL    HW212585   1.812   0.420   4.987
 3896SOL     OW12586   0.497   1.048   6.502
 3896SOL    HW112587   0.443   0.966   6.516
 3896SOL    HW212588   0.450   1.126   6.544
 3897SOL     OW12589   4.328   5.757   2.264
 3897SOL    HW112590   4.263   5.681   2.269
 3897SOL    HW212591   4.419   5.722   2.240
 3898SOL     OW12592   3.718   2.688   0.164
 3898SOL    HW112593   3.677   2.614   0.217
 3898SOL    HW212594   3.797   2.653   0.113
 3899SOL     OW12595   4.739   6.830   6.105
 3899SOL    HW112596   4.663   6.767   6.091
 3899SOL    HW212597   4.804   6.821   6.030
 3900SOL     OW12598   5.323   2.943   3.747
 3900SOL    HW112599   5.309   2.847   3.726
 3900SOL    HW212600   5.367   2.988   3.669
 3901SOL     OW12601   3.463   0.996   6.307
 3901SOL    HW112602   3.482   0.899   6.321
 3901SOL    HW212603   3.543   1.050   6.333
 3902SOL     OW12604   6.073   3.344   2.080
 3902SOL    HW112605   6.060   3.298   2.168
 3902SOL    HW212606   6.121   3.283   2.018
 3903SOL     OW12607   3.694   6.355   0.196
 3903SOL    HW112608   3.748   6.277   0.165
 3903SOL    HW212609   3.651   6.399   0.117
 3904SOL     OW12610   1.774   7.006   6.806
 3904SOL    HW112611   1.742   0.068   6.838
 3904SOL    HW212612   1.863   7.017   6.762
 3905SOL     OW12613   6.765   6.622   5.899
 3905SOL    HW112614   6.811   6.686   5.838
 3905SOL    HW212615   6.828   6.595   5.972
 3906SOL     OW12616   5.870   6.992   5.800
 3906SOL    HW112617   5.866   7.024   5.894
 3906SOL    HW212618   5.870   6.892   5.799
 3907SOL     OW12619   6.084   0.776   3.954
 3907SOL    HW112620   6.132   0.688   3.952
 3907SOL    HW212621   6.094   0.817   4.045
 3908SOL     OW12622   0.815   2.547   6.930
 3908SOL    HW112623   0.844   2.453   6.946
 3908SOL    HW212624   0.844   2.577   6.839
 3909SOL     OW12625   5.562   5.913   4.409
 3909SOL    HW112626   5.615   5.894   4.327
 3909SOL    HW212627   5.586   5.847   4.481
 3910SOL     OW12628   3.674   4.097   2.545
 3910SOL    HW112629   3.760   4.057   2.577
 3910SOL    HW212630   3.694   4.162   2.471
 3911SOL     OW12631   5.940   1.640   5.339
 3911SOL    HW112632   5.915   1.590   5.256
 3911SOL    HW212633   5.861   1.643   5.401
 3912SOL     OW12634   5.889   0.700   4.770
 3912SOL    HW112635   5.840   0.786   4.757
 3912SOL    HW212636   5.848   0.629   4.712
 3913SOL     OW12637   2.371   6.983   6.467
 3913SOL    HW112638   2.434   7.013   6.396
 3913SOL    HW212639   2.310   0.031   6.492
 3914SOL     OW12640   2.776   0.837   1.326
 3914SOL    HW112641   2.692   0.852   1.379
 3914SOL    HW212642   2.752   0.817   1.231
 3915SOL     OW12643   5.427   6.162   1.002
 3915SOL    HW112644   5.368   6.216   0.941
 3915SOL    HW212645   5.406   6.065   0.992
 3916SOL     OW12646   1.197   6.952   3.680
 3916SOL    HW112647   1.113   7.008   3.681
 3916SOL    HW212648   1.177   6.863   3.638
 3917SOL     OW12649   0.215   6.580   6.679
 3917SOL    HW112650   0.312   6.565   6.698
 3917SOL    HW212651   0.165   6.585   6.765
 3918SOL     OW12652   5.402   5.695   1.796
 3918SOL    HW112653   5.413   5.714   1.698
 3918SOL    HW212654   5.486   5.655   1.832
 3919SOL     OW12655   4.772   6.739   7.000
 3919SOL    HW112656   4.848   6.802   7.020
 3919SOL    HW212657   4.686   6.781   0.002
 3920SOL     OW12658   2.705   3.625   0.642
 3920SOL    HW112659   2.690   3.715   0.602
 3920SOL    HW212660   2.802   3.612   0.661
 3921SOL     OW12661   0.141   3.616   1.081
 3921SOL    HW112662   0.206   3.651   1.014
 3921SOL    HW212663   0.060   3.676   1.083
 3922SOL     OW12664   6.761   4.238   1.744
 3922SOL    HW112665   6.823   4.185   1.801
 3922SOL    HW212666   6.808   4.319   1.709
 3923SOL     OW12667   6.638   0.905   0.447
 3923SOL    HW112668   6.666   0.811   0.431
 3923SOL    HW212669   6.716   0.959   0.479
 3924SOL     OW12670   5.302   5.391   3.908
 3924SOL    HW112671   5.325   5.400   4.005
 3924SOL    HW212672   5.353   5.459   3.855
 3925SOL     OW12673   1.910   4.847   1.388
 3925SOL    HW112674   1.841   4.810   1.325
 3925SOL    HW212675   1.871   4.853   1.480
 3926SOL     OW12676   5.231   4.705   2.574
 3926SOL    HW112677   5.133   4.689   2.583
 3926SOL    HW212678   5.279   4.617   2.568
 3927SOL     OW12679   6.619   2.689   5.334
 3927SOL    HW112680   6.532   2.727   5.304
 3927SOL    HW212681   6.691   2.711   5.268
 3928SOL     OW12682   3.695   5.821   6.861
 3928SOL    HW112683   3.648   5.782   6.782
 3928SOL    HW212684   3.744   5.903   6.833
 3929SOL     OW12685   0.402   0.425   4.522
 3929SOL    HW112686   0.323   0.371   4.491
 3929SOL    HW212687   0.373   0.488   4.593
 3930SOL     OW12688   2.910   2.249   4.560
 3930SOL    HW112689   2.846   2.320   4.591
 3930SOL    HW212690   2.977   2.231   4.632
 3931SOL     OW12691   1.314   2.213   1.366
 3931SOL    HW112692   1.249   2.281   1.399
 3931SOL    HW212693   1.296   2.125   1.411
 3932SOL     OW12694   1.485   4.396   3.769
 3932SOL    HW112695   1.537   4.318   3.803
 3932SOL    HW212696   1.390   4.389   3.801
 3933SOL     OW12697   1.846   6.600   6.641
 3933SOL    HW112698   1.869   6.663   6.568
 3933SOL    HW212699   1.856   6.646   6.730
 3934SOL     OW12700   6.598   0.655   0.001
 3934SOL    HW112701   6.606   0.755   0.003
 3934SOL    HW212702   6.547   0.627   6.947
 3935SOL     OW12703   3.223   6.763   6.811
 3935SOL    HW112704   3.199   6.785   6.905
 3935SOL    HW212705   3.322   6.752   6.804
 3936SOL     OW12706   6.520   5.182   5.549
 3936SOL    HW112707   6.483   5.091   5.528
 3936SOL    HW212708   6.613   5.189   5.511
 3937SOL     OW12709   0.397   1.442   2.854
 3937SOL    HW112710   0.445   1.431   2.767
 3937SOL    HW212711   0.316   1.384   2.855
 3938SOL     OW12712   0.536   2.199   3.109
 3938SOL    HW112713   0.575   2.157   3.027
 3938SOL    HW212714   0.543   2.135   3.186
 3939SOL     OW12715   1.955   2.907   3.290
 3939SOL    HW112716   1.948   2.941   3.384
 3939SOL    HW212717   2.021   2.832   3.286
 3940SOL     OW12718   4.716   4.395   1.095
 3940SOL    HW112719   4.753   4.487   1.081
 3940SOL    HW212720   4.786   4.337   1.136
 3941SOL     OW12721   5.676   3.234   5.343
 3941SOL    HW112722   5.697   3.154   5.399
 3941SOL    HW212723   5.642   3.308   5.401
 3942SOL     OW12724   0.486   6.569   6.729
 3942SOL    HW112725   0.534   6.620   6.658
 3942SOL    HW212726   0.528   6.479   6.740
 3943SOL     OW12727   6.978   2.706   3.481
 3943SOL    HW112728   7.020   2.775   3.541
 3943SOL    HW212729   0.000   2.703   3.394
 3944SOL     OW12730   4.759   2.833   4.849
 3944SOL    HW112731   4.823   2.815   4.775
 3944SOL    HW212732   4.673   2.786   4.830
 3945SOL     OW12733   0.196   1.813   6.908
 3945SOL    HW112734   0.239   1.861   6.985
 3945SOL    HW212735   0.200   1.870   6.826
 3946SOL     OW12736   5.422   4.308   4.844
 3946SOL    HW112737   5.460   4.337   4.756
 3946SOL    HW212738   5.446   4.375   4.915
 3947SOL     OW12739   5.439   6.106   6.929
 3947SOL    HW112740   5.478   6.065   7.012
 3947SOL    HW212741   5.375   6.178   6.955
 3948SOL     OW12742   0.301   4.672   2.708
 3948SOL    HW112743   0.215   4.720   2.728
 3948SOL    HW212744   0.343   4.641   2.793
 3949SOL     OW12745   5.427   6.521   3.231
 3949SOL    HW112746   5.452   6.528   3.328
 3949SOL    HW212747   5.415   6.613   3.194
 3950SOL     OW12748   1.483   4.663   0.742
 3950SOL    HW112749   1.576   4.664   0.778
 3950SOL    HW212750   1.485   4.662   0.643
 3951SOL     OW12751   4.847   0.321   1.299
 3951SOL    HW112752   4.880   0.336   1.392
 3951SOL    HW212753   4.755   0.360   1.290
 3952SOL     OW12754   6.983   2.261   1.742
 3952SOL    HW112755   6.914   2.212   1.689
 3952SOL    HW212756   6.975   2.359   1.723
 3953SOL     OW12757   4.003   4.770   1.353
 3953SOL    HW112758   3.999   4.671   1.348
 3953SOL    HW212759   4.090   4.802   1.315
 3954SOL     OW12760   4.231   4.940   5.523
 3954SOL    HW112761   4.132   4.928   5.522
 3954SOL    HW212762   4.253   5.037   5.522
 3955SOL     OW12763   3.198   0.425   6.102
 3955SOL    HW112764   3.137   0.457   6.174
 3955SOL    HW212765   3.152   0.354   6.049
 3956SOL     OW12766   1.649   0.864   2.350
 3956SOL    HW112767   1.647   0.963   2.361
 3956SOL    HW212768   1.560   0.833   2.316
 3957SOL     OW12769   4.519   0.066   4.303
 3957SOL    HW112770   4.456   0.080   4.379
 3957SOL    HW212771   4.612   0.054   4.340
 3958SOL     OW12772   5.624   1.634   4.297
 3958SOL    HW112773   5.648   1.700   4.226
 3958SOL    HW212774   5.669   1.547   4.280
 3959SOL     OW12775   5.156   6.306   0.123
 3959SOL    HW112776   5.071   6.336   0.167
 3959SOL    HW212777   5.157   6.206   0.121
 3960SOL     OW12778   5.240   1.058   6.363
 3960SOL    HW112779   5.207   0.964   6.357
 3960SOL    HW212780   5.248   1.085   6.458
 3961SOL     OW12781   4.658   1.247   2.647
 3961SOL    HW112782   4.616   1.187   2.715
 3961SOL    HW212783   4.594   1.261   2.571
 3962SOL     OW12784   2.290   5.226   6.368
 3962SOL    HW112785   2.239   5.257   6.288
 3962SOL    HW212786   2.282   5.294   6.441
 3963SOL     OW12787   4.577   5.336   2.162
 3963SOL    HW112788   4.670   5.329   2.200
 3963SOL    HW212789   4.542   5.244   2.143
 3964SOL     OW12790   4.584   4.790   3.466
 3964SOL    HW112791   4.586   4.806   3.565
 3964SOL    HW212792   4.514   4.722   3.445
 3965SOL     OW12793   4.890   3.161   4.556
 3965SOL    HW112794   4.865   3.174   4.652
 3965SOL    HW212795   4.957   3.087   4.548
 3966SOL     OW12796   4.067   6.102   6.506
 3966SOL    HW112797   4.028   6.019   6.468
 3966SOL    HW212798   4.001   6.146   6.567
 3967SOL     OW12799   2.240   3.914   1.956
 3967SOL    HW112800   2.249   3.868   1.868
 3967SOL    HW212801   2.233   3.846   2.029
 3968SOL     OW12802   4.017   0.616   0.709
 3968SOL    HW112803   4.114   0.633   0.727
 3968SOL    HW212804   3.965   0.619   0.794
 3969SOL     OW12805   1.526   5.125   2.320
 3969SOL    HW112806   1.533   5.147   2.417
 3969SOL    HW212807   1.616   5.102   2.284
 3970SOL     OW12808   4.851   6.031   3.002
 3970SOL    HW112809   4.946   6.043   2.974
 3970SOL    HW212810   4.791   6.075   2.936
 3971SOL     OW12811   3.185   5.231   4.066
 3971SOL    HW112812   3.211   5.246   4.161
 3971SOL    HW212813   3.107   5.169   4.062
 3972SOL     OW12814   1.782   3.892   0.198
 3972SOL    HW112815   1.778   3.988   0.225
 3972SOL    HW212816   1.742   3.881   0.107
 3973SOL     OW12817   1.186   5.701   0.282
 3973SOL    HW112818   1.087   5.702   0.297
 3973SOL    HW212819   1.233   5.696   0.370
 3974SOL     OW12820   1.987   6.825   5.939
 3974SOL    HW112821   2.050   6.903   5.932
 3974SOL    HW212822   2.034   6.749   5.986
 3975SOL     OW12823   5.254   1.429   6.054
 3975SOL    HW112824   5.317   1.354   6.073
 3975SOL    HW212825   5.304   1.506   6.016
 3976SOL     OW12826   1.921   6.053   2.902
 3976SOL    HW112827   1.998   6.066   2.964
 3976SOL    HW212828   1.952   6.060   2.808
 3977SOL     OW12829   2.126   2.416   6.427
 3977SOL    HW112830   2.058   2.366   6.479
 3977SOL    HW212831   2.109   2.514   6.436
 3978SOL     OW12832   5.365   5.257   3.428
 3978SOL    HW112833   5.425   5.208   3.492
 3978SOL    HW212834   5.274   5.266   3.469
 3979SOL     OW12835   3.996   0.745   6.583
 3979SOL    HW112836   3.940   0.703   6.512
 3979SOL    HW212837   3.961   0.718   6.673
 3980SOL     OW12838   5.738   0.111   6.589
 3980SOL    HW112839   5.695   0.128   6.678
 3980SOL    HW212840   5.683   0.153   6.517
 3981SOL     OW12841   4.112   6.057   0.298
 3981SOL    HW112842   4.169   6.012   0.367
 3981SOL    HW212843   4.080   5.988   0.233
 3982SOL     OW12844   2.114   6.502   3.200
 3982SOL    HW112845   2.186   6.447   3.157
 3982SOL    HW212846   2.155   6.584   3.241
 3983SOL     OW12847   4.826   4.996   3.805
 3983SOL    HW112848   4.880   5.058   3.748
 3983SOL    HW212849   4.886   4.946   3.867
 3984SOL     OW12850   6.470   1.095   1.557
 3984SOL    HW112851   6.528   1.029   1.605
 3984SOL    HW212852   6.527   1.151   1.496
 3985SOL     OW12853   2.701   5.640   6.946
 3985SOL    HW112854   2.700   5.629   0.018
 3985SOL    HW212855   2.678   5.553   6.902
 3986SOL     OW12856   5.208   1.688   2.666
 3986SOL    HW112857   5.283   1.738   2.711
 3986SOL    HW212858   5.189   1.604   2.718
 3987SOL     OW12859   3.403   5.043   4.257
 3987SOL    HW112860   3.328   4.997   4.305
 3987SOL    HW212861   3.385   5.041   4.159
 3988SOL     OW12862   3.474   5.201   0.010
 3988SOL    HW112863   3.494   5.292   7.003
 3988SOL    HW212864   3.404   5.207   0.081
 3989SOL     OW12865   0.135   2.317   6.715
 3989SOL    HW112866   0.154   2.403   6.763
 3989SOL    HW212867   0.201   2.248   6.744
 3990SOL     OW12868   4.666   2.668   2.279
 3990SOL    HW112869   4.587   2.663   2.340
 3990SOL    HW212870   4.729   2.738   2.312
 3991SOL     OW12871   0.171   1.538   1.543
 3991SOL    HW112872   0.139   1.513   1.451
 3991SOL    HW212873   0.148   1.634   1.560
 3992SOL     OW12874   2.887   2.192   0.614
 3992SOL    HW112875   2.841   2.118   0.662
 3992SOL    HW212876   2.836   2.215   0.531
 3993SOL     OW12877   1.307   2.824   2.734
 3993SOL    HW112878   1.253   2.830   2.649
 3993SOL    HW212879   1.344   2.915   2.756
 3994SOL     OW12880   2.850   0.426   6.149
 3994SOL    HW112881   2.872   0.410   6.245
 3994SOL    HW212882   2.803   0.347   6.112
 3995SOL     OW12883   2.263   3.821   6.241
 3995SOL    HW112884   2.246   3.833   6.143
 3995SOL    HW212885   2.225   3.899   6.291
 3996SOL     OW12886   7.011   6.742   5.010
 3996SOL    HW112887   7.001   6.778   5.102
 3996SOL    HW212888   0.079   6.746   4.982
 3997SOL     OW12889   5.801   2.006   3.335
 3997SOL    HW112890   5.742   1.998   3.415
 3997SOL    HW212891   5.888   2.049   3.361
 3998SOL     OW12892   3.513   0.870   4.207
 3998SOL    HW112893   3.608   0.842   4.218
 3998SOL    HW212894   3.460   0.836   4.285
 3999SOL     OW12895   5.755   1.735   4.089
 3999SOL    HW112896   5.708   1.678   4.022
 3999SOL    HW212897   5.833   1.685   4.127
 4000SOL     OW12898   2.738   6.479   4.304
 4000SOL    HW112899   2.761   6.558   4.246
 4000SOL    HW212900   2.744   6.506   4.400
 4001SOL     OW12901   2.855   1.764   4.371
 4001SOL    HW112902   2.805   1.818   4.304
 4001SOL    HW212903   2.931   1.818   4.408
 4002SOL     OW12904   3.213   3.372   1.561
 4002SOL    HW112905   3.208   3.294   1.498
 4002SOL    HW212906   3.203   3.457   1.509
 4003SOL     OW12907   3.155   0.249   3.995
 4003SOL    HW112908   3.099   0.221   3.917
 4003SOL    HW212909   3.239   0.196   3.996
 4004SOL     OW12910   6.293   2.115   4.467
 4004SOL    HW112911   6.252   2.071   4.387
 4004SOL    HW212912   6.227   2.117   4.542
 4005SOL     OW12913   4.740   5.217   6.097
 4005SOL    HW112914   4.661   5.242   6.152
 4005SOL    HW212915   4.711   5.162   6.019
 4006SOL     OW12916   3.943   4.959   1.879
 4006SOL    HW112917   3.849   4.963   1.844
 4006SOL    HW212918   3.997   5.032   1.837
 4007SOL     OW12919   0.012   2.889   0.153
 4007SOL    HW112920   0.016   2.976   0.104
 4007SOL    HW212921   6.956   2.840   0.127
 4008SOL     OW12922   2.680   2.268   4.905
 4008SOL    HW112923   2.748   2.261   4.978
 4008SOL    HW212924   2.711   2.335   4.837
 4009SOL     OW12925   4.169   3.141   1.751
 4009SOL    HW112926   4.115   3.185   1.679
 4009SOL    HW212927   4.147   3.184   1.839
 4010SOL     OW12928   2.584   3.270   1.413
 4010SOL    HW112929   2.574   3.350   1.354
 4010SOL    HW212930   2.679   3.237   1.409
 4011SOL     OW12931   1.027   2.199   2.166
 4011SOL    HW112932   1.105   2.247   2.127
 4011SOL    HW212933   0.960   2.180   2.093
 4012SOL     OW12934   6.515   4.321   2.536
 4012SOL    HW112935   6.612   4.342   2.519
 4012SOL    HW212936   6.507   4.268   2.620
 4013SOL     OW12937   3.823   2.108   4.873
 4013SOL    HW112938   3.831   2.172   4.797
 4013SOL    HW212939   3.905   2.114   4.930
 4014SOL     OW12940   6.241   6.661   2.290
 4014SOL    HW112941   6.145   6.660   2.318
 4014SOL    HW212942   6.255   6.597   2.214
 4015SOL     OW12943   4.781   4.226   6.399
 4015SOL    HW112944   4.736   4.311   6.371
 4015SOL    HW212945   4.855   4.205   6.334
 4016SOL     OW12946   2.541   5.938   6.141
 4016SOL    HW112947   2.490   5.976   6.218
 4016SOL    HW212948   2.508   5.846   6.121
 4017SOL     OW12949   6.745   5.589   0.362
 4017SOL    HW112950   6.708   5.682   0.353
 4017SOL    HW212951   6.817   5.589   0.431
 4018SOL     OW12952   4.595   6.068   2.323
 4018SOL    HW112953   4.681   6.025   2.298
 4018SOL    HW212954   4.608   6.125   2.404
 4019SOL     OW12955   5.044   4.344   2.846
 4019SOL    HW112956   5.035   4.270   2.779
 4019SOL    HW212957   4.965   4.343   2.907
 4020SOL     OW12958   4.583   2.769   5.251
 4020SOL    HW112959   4.547   2.711   5.324
 4020SOL    HW212960   4.570   2.723   5.163
 4021SOL     OW12961   3.455   5.299   6.329
 4021SOL    HW112962   3.395   5.269   6.403
 4021SOL    HW212963   3.478   5.222   6.271
 4022SOL     OW12964   4.867   1.825   0.249
 4022SOL    HW112965   4.932   1.858   0.317
 4022SOL    HW212966   4.781   1.802   0.293
 4023SOL     OW12967   6.478   2.468   4.872
 4023SOL    HW112968   6.507   2.424   4.956
 4023SOL    HW212969   6.487   2.403   4.796
 4024SOL     OW12970   4.091   5.364   4.392
 4024SOL    HW112971   4.120   5.374   4.297
 4024SOL    HW212972   4.092   5.453   4.437
 4025SOL     OW12973   0.508   3.750   3.476
 4025SOL    HW112974   0.537   3.788   3.387
 4025SOL    HW212975   0.589   3.726   3.529
 4026SOL     OW12976   4.706   6.866   3.857
 4026SOL    HW112977   4.720   6.771   3.886
 4026SOL    HW212978   4.786   6.920   3.884
 4027SOL     OW12979   3.746   4.546   1.485
 4027SOL    HW112980   3.825   4.500   1.445
 4027SOL    HW212981   3.662   4.505   1.451
 4028SOL     OW12982   1.934   1.949   3.817
 4028SOL    HW112983   1.855   1.891   3.833
 4028SOL    HW212984   2.010   1.918   3.874
 4029SOL     OW12985   1.927   4.116   5.683
 4029SOL    HW112986   1.851   4.176   5.707
 4029SOL    HW212987   1.989   4.163   5.621
 4030SOL     OW12988   1.069   1.925   5.220
 4030SOL    HW112989   1.080   2.006   5.163
 4030SOL    HW212990   0.978   1.923   5.261
 4031SOL     OW12991   4.105   5.631   4.392
 4031SOL    HW112992   4.007   5.641   4.409
 4031SOL    HW212993   4.133   5.692   4.318
 4032SOL     OW12994   5.129   0.158   3.755
 4032SOL    HW112995   5.121   0.068   3.712
 4032SOL    HW212996   5.223   0.172   3.786
 4033SOL     OW12997   3.005   3.324   4.490
 4033SOL    HW112998   3.012   3.382   4.571
 4033SOL    HW212999   3.060   3.241   4.503
 4034SOL     OW13000   6.998   1.858   3.731
 4034SOL    HW113001   6.902   1.849   3.760
 4034SOL    HW213002   7.015   1.952   3.701
 4035SOL     OW13003   0.642   4.200   0.017
 4035SOL    HW113004   0.708   4.238   0.081
 4035SOL    HW213005   0.569   4.153   0.067
 4036SOL     OW13006   6.291   6.613   2.792
 4036SOL    HW113007   6.367   6.666   2.753
 4036SOL    HW213008   6.227   6.587   2.720
 4037SOL     OW13009   1.010   3.375   0.028
 4037SOL    HW113010   1.000   3.294   0.086
 4037SOL    HW213011   0.922   3.421   0.020
 4038SOL     OW13012   4.769   4.870   2.949
 4038SOL    HW113013   4.725   4.856   3.037
 4038SOL    HW213014   4.819   4.956   2.950
 4039SOL     OW13015   5.281   6.410   6.948
 4039SOL    HW113016   5.215   6.396   7.022
 4039SOL    HW213017   5.349   6.478   6.977
 4040SOL     OW13018   3.209   6.579   1.502
 4040SOL    HW113019   3.165   6.524   1.431
 4040SOL    HW213020   3.301   6.544   1.518
 4041SOL     OW13021   1.363   6.246   3.582
 4041SOL    HW113022   1.280   6.302   3.578
 4041SOL    HW213023   1.341   6.156   3.620
 4042SOL     OW13024   5.871   5.108   1.829
 4042SOL    HW113025   5.779   5.147   1.818
 4042SOL    HW213026   5.938   5.169   1.786
 4043SOL     OW13027   5.988   2.329   1.214
 4043SOL    HW113028   6.001   2.421   1.251
 4043SOL    HW213029   5.896   2.320   1.177
 4044SOL     OW13030   5.748   0.084   3.338
 4044SOL    HW113031   5.681   0.031   3.390
 4044SOL    HW213032   5.715   0.177   3.326
 4045SOL     OW13033   2.271   5.731   6.396
 4045SOL    HW113034   2.212   5.730   6.477
 4045SOL    HW213035   2.215   5.721   6.314
 4046SOL     OW13036   1.074   2.832   1.644
 4046SOL    HW113037   1.138   2.860   1.716
 4046SOL    HW213038   1.105   2.867   1.556
 4047SOL     OW13039   2.666   3.797   1.709
 4047SOL    HW113040   2.601   3.721   1.704
 4047SOL    HW213041   2.623   3.881   1.676
 4048SOL     OW13042   4.778   0.249   0.930
 4048SOL    HW113043   4.877   0.257   0.934
 4048SOL    HW213044   4.753   0.156   0.903
 4049SOL     OW13045   5.346   6.899   4.870
 4049SOL    HW113046   5.384   6.926   4.959
 4049SOL    HW213047   5.389   6.813   4.841
 4050SOL     OW13048   2.199   6.995   0.352
 4050SOL    HW113049   2.132   6.971   0.422
 4050SOL    HW213050   2.278   0.010   0.396
 4051SOL     OW13051   3.770   4.187   1.596
 4051SOL    HW113052   3.699   4.241   1.641
 4051SOL    HW213053   3.728   4.105   1.555
 4052SOL     OW13054   0.547   0.400   0.406
 4052SOL    HW113055   0.575   0.413   0.311
 4052SOL    HW213056   0.582   0.475   0.461
 4053SOL     OW13057   4.025   4.961   3.717
 4053SOL    HW113058   4.122   4.980   3.705
 4053SOL    HW213059   3.993   5.004   3.801
 4054SOL     OW13060   3.654   2.380   1.056
 4054SOL    HW113061   3.676   2.453   0.991
 4054SOL    HW213062   3.737   2.353   1.105
 4055SOL     OW13063   3.914   1.562   5.950
 4055SOL    HW113064   3.842   1.577   5.882
 4055SOL    HW213065   3.879   1.588   6.040
 4056SOL     OW13066   3.709   3.698   0.550
 4056SOL    HW113067   3.720   3.794   0.523
 4056SOL    HW213068   3.667   3.694   0.641
 4057SOL     OW13069   4.851   2.701   6.868
 4057SOL    HW113070   4.880   2.608   6.845
 4057SOL    HW213071   4.869   2.718   6.965
 4058SOL     OW13072   1.937   0.991   5.858
 4058SOL    HW113073   1.894   0.945   5.935
 4058SOL    HW213074   2.028   1.022   5.884
 4059SOL     OW13075   1.023   1.609   4.683
 4059SOL    HW113076   1.060   1.685   4.737
 4059SOL    HW213077   1.080   1.528   4.695
 4060SOL     OW13078   3.918   5.013   4.588
 4060SOL    HW113079   3.940   5.030   4.492
 4060SOL    HW213080   3.818   5.012   4.599
 4061SOL     OW13081   3.178   2.997   1.826
 4061SOL    HW113082   3.109   2.997   1.754
 4061SOL    HW213083   3.260   3.044   1.794
 4062SOL     OW13084   2.728   0.591   3.274
 4062SOL    HW113085   2.750   0.564   3.368
 4062SOL    HW213086   2.807   0.573   3.215
 4063SOL     OW13087   2.875   5.031   6.527
 4063SOL    HW113088   2.939   5.037   6.451
 4063SOL    HW213089   2.805   5.102   6.517
 4064SOL     OW13090   6.614   1.129   3.633
 4064SOL    HW113091   6.644   1.184   3.555
 4064SOL    HW213092   6.693   1.094   3.683
 4065SOL     OW13093   6.339   6.162   0.821
 4065SOL    HW113094   6.347   6.143   0.919
 4065SOL    HW213095   6.424   6.138   0.775
 4066SOL     OW13096   6.026   4.074   1.390
 4066SOL    HW113097   6.031   4.071   1.490
 4066SOL    HW213098   5.943   4.123   1.363
 4067SOL     OW13099   6.224   0.894   2.011
 4067SOL    HW113100   6.258   0.805   2.041
 4067SOL    HW213101   6.212   0.953   2.090
 4068SOL     OW13102   6.292   0.381   3.802
 4068SOL    HW113103   6.216   0.377   3.737
 4068SOL    HW213104   6.322   0.476   3.810
 4069SOL     OW13105   5.950   5.281   0.893
 4069SOL    HW113106   6.004   5.248   0.970
 4069SOL    HW213107   6.000   5.353   0.845
 4070SOL     OW13108   1.450   3.438   2.813
 4070SOL    HW113109   1.355   3.406   2.810
 4070SOL    HW213110   1.485   3.431   2.906
 4071SOL     OW13111   1.419   6.822   4.194
 4071SOL    HW113112   1.328   6.861   4.185
 4071SOL    HW213113   1.470   6.834   4.109
 4072SOL     OW13114   1.433   0.133   4.872
 4072SOL    HW113115   1.493   0.147   4.950
 4072SOL    HW213116   1.451   0.203   4.803
 4073SOL     OW13117   2.239   5.919   6.909
 4073SOL    HW113118   2.233   5.992   6.977
 4073SOL    HW213119   2.293   5.844   6.946
 4074SOL     OW13120   1.678   3.886   0.720
 4074SOL    HW113121   1.717   3.974   0.749
 4074SOL    HW213122   1.683   3.821   0.796
 4075SOL     OW13123   4.770   1.569   3.342
 4075SOL    HW113124   4.795   1.662   3.369
 4075SOL    HW213125   4.710   1.529   3.412
 4076SOL     OW13126   1.884   3.659   4.215
 4076SOL    HW113127   1.880   3.559   4.220
 4076SOL    HW213128   1.792   3.695   4.200
 4077SOL     OW13129   3.198   1.414   0.634
 4077SOL    HW113130   3.200   1.318   0.662
 4077SOL    HW213131   3.110   1.436   0.594
 4078SOL     OW13132   6.160   3.833   1.634
 4078SOL    HW113133   6.102   3.818   1.714
 4078SOL    HW213134   6.106   3.827   1.551
 4079SOL     OW13135   0.475   0.745   4.047
 4079SOL    HW113136   0.525   0.685   4.109
 4079SOL    HW213137   0.415   0.690   3.988
 4080SOL     OW13138   2.854   3.213   1.443
 4080SOL    HW113139   2.900   3.257   1.366
 4080SOL    HW213140   2.904   3.129   1.467
 4081SOL     OW13141   2.467   2.222   6.050
 4081SOL    HW113142   2.566   2.239   6.050
 4081SOL    HW213143   2.426   2.262   6.132
 4082SOL     OW13144   0.932   2.539   4.353
 4082SOL    HW113145   0.902   2.534   4.257
 4082SOL    HW213146   0.921   2.632   4.386
 4083SOL     OW13147   5.820   5.300   2.889
 4083SOL    HW113148   5.781   5.269   2.803
 4083SOL    HW213149   5.832   5.222   2.950
 4084SOL     OW13150   4.990   0.647   3.570
 4084SOL    HW113151   4.916   0.704   3.534
 4084SOL    HW213152   4.986   0.647   3.670
 4085SOL     OW13153   3.747   5.014   2.776
 4085SOL    HW113154   3.688   4.940   2.744
 4085SOL    HW213155   3.754   5.012   2.875
 4086SOL     OW13156   5.719   5.603   5.915
 4086SOL    HW113157   5.689   5.510   5.895
 4086SOL    HW213158   5.760   5.605   6.007
 4087SOL     OW13159   2.897   7.012   2.644
 4087SOL    HW113160   2.815   0.040   2.655
 4087SOL    HW213161   2.971   0.023   2.699
 4088SOL     OW13162   0.628   1.831   5.496
 4088SOL    HW113163   0.555   1.777   5.453
 4088SOL    HW213164   0.588   1.899   5.558
 4089SOL     OW13165   0.469   0.087   3.750
 4089SOL    HW113166   0.473   0.187   3.755
 4089SOL    HW213167   0.463   0.058   3.655
 4090SOL     OW13168   3.057   1.228   6.275
 4090SOL    HW113169   3.135   1.248   6.216
 4090SOL    HW213170   3.042   1.129   6.278
 4091SOL     OW13171   2.644   6.151   2.363
 4091SOL    HW113172   2.547   6.127   2.361
 4091SOL    HW213173   2.698   6.073   2.331
 4092SOL     OW13174   5.515   2.988   4.121
 4092SOL    HW113175   5.581   2.974   4.047
 4092SOL    HW213176   5.467   2.903   4.139
 4093SOL     OW13177   4.285   5.250   2.948
 4093SOL    HW113178   4.356   5.186   2.976
 4093SOL    HW213179   4.199   5.228   2.994
 4094SOL     OW13180   6.600   5.596   6.534
 4094SOL    HW113181   6.665   5.596   6.609
 4094SOL    HW213182   6.514   5.554   6.563
 4095SOL     OW13183   0.745   4.741   0.037
 4095SOL    HW113184   0.708   4.743   0.130
 4095SOL    HW213185   0.680   4.784   7.002
 4096SOL     OW13186   1.390   0.929   6.791
 4096SOL    HW113187   1.386   0.963   6.697
 4096SOL    HW213188   1.355   0.998   6.853
 4097SOL     OW13189   7.009   4.836   5.276
 4097SOL    HW113190   0.022   4.927   5.291
 4097SOL    HW213191   6.944   4.840   5.200
 4098SOL     OW13192   2.600   4.552   3.208
 4098SOL    HW113193   2.633   4.541   3.302
 4098SOL    HW213194   2.586   4.462   3.167
 4099SOL     OW13195   4.442   4.482   5.614
 4099SOL    HW113196   4.383   4.481   5.695
 4099SOL    HW213197   4.476   4.574   5.597
 4100SOL     OW13198   1.640   6.794   4.013
 4100SOL    HW113199   1.642   6.810   3.915
 4100SOL    HW213200   1.673   6.702   4.033
 4101SOL     OW13201   6.025   6.405   0.304
 4101SOL    HW113202   6.066   6.345   0.235
 4101SOL    HW213203   6.087   6.482   0.322
 4102SOL     OW13204   1.230   0.910   0.260
 4102SOL    HW113205   1.309   0.970   0.246
 4102SOL    HW213206   1.188   0.932   0.348
 4103SOL     OW13207   1.356   6.655   2.903
 4103SOL    HW113208   1.292   6.720   2.944
 4103SOL    HW213209   1.435   6.644   2.964
 4104SOL     OW13210   1.276   5.915   4.507
 4104SOL    HW113211   1.361   5.944   4.465
 4104SOL    HW213212   1.238   5.990   4.561
 4105SOL     OW13213   4.645   1.440   1.143
 4105SOL    HW113214   4.616   1.409   1.234
 4105SOL    HW213215   4.636   1.364   1.078
 4106SOL     OW13216   0.777   1.796   3.254
 4106SOL    HW113217   0.819   1.886   3.263
 4106SOL    HW213218   0.692   1.794   3.307
 4107SOL     OW13219   0.525   6.287   6.748
 4107SOL    HW113220   0.619   6.275   6.780
 4107SOL    HW213221   0.461   6.260   6.820
 4108SOL     OW13222   6.657   5.951   4.371
 4108SOL    HW113223   6.604   6.034   4.384
 4108SOL    HW213224   6.596   5.875   4.350
 4109SOL     OW13225   6.702   6.775   2.905
 4109SOL    HW113226   6.711   6.791   3.003
 4109SOL    HW213227   6.652   6.690   2.889
 4110SOL     OW13228   4.533   3.403   0.463
 4110SOL    HW113229   4.529   3.411   0.562
 4110SOL    HW213230   4.597   3.331   0.437
 4111SOL     OW13231   6.480   3.855   4.161
 4111SOL    HW113232   6.549   3.857   4.089
 4111SOL    HW213233   6.415   3.781   4.142
 4112SOL     OW13234   4.706   6.632   5.395
 4112SOL    HW113235   4.779   6.697   5.375
 4112SOL    HW213236   4.699   6.566   5.320
 4113SOL     OW13237   4.554   5.227   4.929
 4113SOL    HW113238   4.607   5.184   5.002
 4113SOL    HW213239   4.556   5.168   4.848
 4114SOL     OW13240   0.208   2.225   2.096
 4114SOL    HW113241   0.231   2.161   2.023
 4114SOL    HW213242   0.116   2.262   2.081
 4115SOL     OW13243   4.174   5.770   4.160
 4115SOL    HW113244   4.262   5.759   4.113
 4115SOL    HW213245   4.102   5.726   4.107
 4116SOL     OW13246   5.465   3.076   3.548
 4116SOL    HW113247   5.422   3.153   3.502
 4116SOL    HW213248   5.473   2.999   3.485
 4117SOL     OW13249   1.374   2.265   3.245
 4117SOL    HW113250   1.300   2.214   3.200
 4117SOL    HW213251   1.458   2.212   3.241
 4118SOL     OW13252   0.420   5.752   6.130
 4118SOL    HW113253   0.382   5.801   6.209
 4118SOL    HW213254   0.371   5.780   6.047
 4119SOL     OW13255   1.379   0.967   3.433
 4119SOL    HW113256   1.450   1.004   3.372
 4119SOL    HW213257   1.352   0.876   3.401
 4120SOL     OW13258   1.300   1.096   6.577
 4120SOL    HW113259   1.200   1.092   6.573
 4120SOL    HW213260   1.333   1.166   6.514
 4121SOL     OW13261   6.367   6.605   1.949
 4121SOL    HW113262   6.346   6.512   1.920
 4121SOL    HW213263   6.466   6.617   1.955
 4122SOL     OW13264   6.425   4.425   3.363
 4122SOL    HW113265   6.503   4.433   3.300
 4122SOL    HW213266   6.437   4.344   3.421
 4123SOL     OW13267   4.251   5.262   1.915
 4123SOL    HW113268   4.237   5.352   1.957
 4123SOL    HW213269   4.232   5.190   1.982
 4124SOL     OW13270   6.450   6.010   0.506
 4124SOL    HW113271   6.443   6.091   0.447
 4124SOL    HW213272   6.360   5.989   0.544
 4125SOL     OW13273   5.805   1.818   1.712
 4125SOL    HW113274   5.851   1.890   1.660
 4125SOL    HW213275   5.872   1.751   1.745
 4126SOL     OW13276   1.598   2.926   2.015
 4126SOL    HW113277   1.684   2.882   2.040
 4126SOL    HW213278   1.535   2.921   2.093
 4127SOL     OW13279   3.838   1.384   3.837
 4127SOL    HW113280   3.765   1.384   3.905
 4127SOL    HW213281   3.800   1.364   3.746
 4128SOL     OW13282   0.633   3.052   0.587
 4128SOL    HW113283   0.683   2.978   0.633
 4128SOL    HW213284   0.699   3.118   0.549
 4129SOL     OW13285   2.085   2.478   1.120
 4129SOL    HW113286   2.127   2.555   1.072
 4129SOL    HW213287   2.001   2.451   1.073
 4130SOL     OW13288   5.805   2.564   0.917
 4130SOL    HW113289   5.741   2.495   0.952
 4130SOL    HW213290   5.786   2.652   0.961
 4131SOL     OW13291   4.666   0.302   2.825
 4131SOL    HW113292   4.666   0.350   2.737
 4131SOL    HW213293   4.732   0.226   2.822
 4132SOL     OW13294   6.964   4.730   3.914
 4132SOL    HW113295   6.897   4.739   3.986
 4132SOL    HW213296   6.996   4.635   3.910
 4133SOL     OW13297   5.898   0.084   2.713
 4133SOL    HW113298   5.805   0.088   2.750
 4133SOL    HW213299   5.917   7.017   2.684
 4134SOL     OW13300   1.575   3.455   1.214
 4134SOL    HW113301   1.514   3.377   1.199
 4134SOL    HW213302   1.589   3.504   1.128
 4135SOL     OW13303   0.326   1.377   2.455
 4135SOL    HW113304   0.288   1.345   2.542
 4135SOL    HW213305   0.271   1.453   2.422
 4136SOL     OW13306   1.492   4.650   2.045
 4136SOL    HW113307   1.456   4.728   1.995
 4136SOL    HW213308   1.590   4.641   2.026
 4137SOL     OW13309   1.516   2.375   7.020
 4137SOL    HW113310   1.496   2.447   0.059
 4137SOL    HW213311   1.556   2.416   6.938
 4138SOL     OW13312   4.864   6.814   0.539
 4138SOL    HW113313   4.774   6.798   0.580
 4138SOL    HW213314   4.906   6.894   0.581
 4139SOL     OW13315   2.120   3.082   2.720
 4139SOL    HW113316   2.148   3.032   2.802
 4139SOL    HW213317   2.023   3.105   2.726
 4140SOL     OW13318   2.526   1.857   5.722
 4140SOL    HW113319   2.493   1.951   5.714
 4140SOL    HW213320   2.514   1.826   5.816
 4141SOL     OW13321   4.728   0.210   6.432
 4141SOL    HW113322   4.800   0.252   6.488
 4141SOL    HW213323   4.760   0.122   6.396
 4142SOL     OW13324   6.805   4.560   3.148
 4142SOL    HW113325   6.898   4.558   3.110
 4142SOL    HW213326   6.805   4.518   3.238
 4143SOL     OW13327   5.561   3.203   0.515
 4143SOL    HW113328   5.518   3.121   0.553
 4143SOL    HW213329   5.623   3.178   0.441
 4144SOL     OW13330   6.121   1.866   0.624
 4144SOL    HW113331   6.052   1.805   0.585
 4144SOL    HW213332   6.087   1.960   0.622
 4145SOL     OW13333   0.043   6.922   1.511
 4145SOL    HW113334   6.975   6.943   1.529
 4145SOL    HW213335   0.098   6.947   1.591
 4146SOL     OW13336   4.797   6.459   3.255
 4146SOL    HW113337   4.735   6.492   3.184
 4146SOL    HW213338   4.809   6.360   3.245
 4147SOL     OW13339   5.208   4.290   5.621
 4147SOL    HW113340   5.128   4.252   5.575
 4147SOL    HW213341   5.279   4.220   5.629
 4148SOL     OW13342   2.200   1.588   6.324
 4148SOL    HW113343   2.135   1.520   6.290
 4148SOL    HW213344   2.248   1.631   6.247
 4149SOL     OW13345   2.395   2.478   6.898
 4149SOL    HW113346   2.462   2.542   6.861
 4149SOL    HW213347   2.312   2.528   6.924
 4150SOL     OW13348   5.853   2.034   5.967
 4150SOL    HW113349   5.789   2.006   5.896
 4150SOL    HW213350   5.803   2.073   6.044
 4151SOL     OW13351   2.166   6.509   4.231
 4151SOL    HW113352   2.161   6.573   4.155
 4151SOL    HW213353   2.261   6.504   4.264
 4152SOL     OW13354   2.684   5.307   1.182
 4152SOL    HW113355   2.700   5.322   1.085
 4152SOL    HW213356   2.667   5.210   1.199
 4153SOL     OW13357   6.795   5.147   1.447
 4153SOL    HW113358   6.811   5.229   1.393
 4153SOL    HW213359   6.862   5.077   1.424
 4154SOL     OW13360   1.105   6.144   3.637
 4154SOL    HW113361   1.107   6.157   3.537
 4154SOL    HW213362   1.042   6.210   3.677
 4155SOL     OW13363   0.421   1.547   1.072
 4155SOL    HW113364   0.333   1.535   1.119
 4155SOL    HW213365   0.490   1.577   1.138
 4156SOL     OW13366   6.846   5.626   5.616
 4156SOL    HW113367   6.764   5.630   5.674
 4156SOL    HW213368   6.857   5.533   5.580
 4157SOL     OW13369   7.020   5.943   2.020
 4157SOL    HW113370   0.025   5.874   2.085
 4157SOL    HW213371   0.071   5.982   1.972
 4158SOL     OW13372   1.387   2.911   2.195
 4158SOL    HW113373   1.423   2.837   2.252
 4158SOL    HW213374   1.292   2.891   2.171
 4159SOL     OW13375   3.140   1.599   3.669
 4159SOL    HW113376   3.208   1.548   3.722
 4159SOL    HW213377   3.085   1.535   3.616
 4160SOL     OW13378   6.524   6.436   6.860
 4160SOL    HW113379   6.582   6.517   6.850
 4160SOL    HW213380   6.578   6.354   6.841
 4161SOL     OW13381   3.247   2.787   1.336
 4161SOL    HW113382   3.263   2.875   1.380
 4161SOL    HW213383   3.154   2.756   1.356
 4162SOL     OW13384   5.153   5.713   2.108
 4162SOL    HW113385   5.103   5.668   2.182
 4162SOL    HW213386   5.177   5.645   2.038
 4163SOL     OW13387   3.862   6.538   0.934
 4163SOL    HW113388   3.927   6.487   0.876
 4163SOL    HW213389   3.896   6.539   1.028
 4164SOL     OW13390   6.574   0.533   4.657
 4164SOL    HW113391   6.636   0.556   4.732
 4164SOL    HW213392   6.547   0.437   4.665
 4165SOL     OW13393   4.689   1.044   5.303
 4165SOL    HW113394   4.708   1.079   5.211
 4165SOL    HW213395   4.592   1.020   5.310
 4166SOL     OW13396   5.869   0.825   1.694
 4166SOL    HW113397   5.831   0.897   1.636
 4166SOL    HW213398   5.932   0.769   1.641
 4167SOL     OW13399   4.059   5.268   4.954
 4167SOL    HW113400   4.014   5.269   4.865
 4167SOL    HW213401   4.056   5.360   4.993
 4168SOL     OW13402   4.963   4.236   6.601
 4168SOL    HW113403   4.932   4.272   6.689
 4168SOL    HW213404   4.885   4.223   6.541
 4169SOL     OW13405   4.923   3.744   4.858
 4169SOL    HW113406   4.897   3.834   4.825
 4169SOL    HW213407   4.876   3.724   4.944
 4170SOL     OW13408   6.619   3.618   4.458
 4170SOL    HW113409   6.633   3.527   4.499
 4170SOL    HW213410   6.706   3.666   4.454
 4171SOL     OW13411   0.509   3.268   1.074
 4171SOL    HW113412   0.524   3.366   1.059
 4171SOL    HW213413   0.546   3.217   0.996
 4172SOL     OW13414   2.875   4.845   0.790
 4172SOL    HW113415   2.882   4.937   0.827
 4172SOL    HW213416   2.823   4.787   0.854
 4173SOL     OW13417   4.790   2.919   5.095
 4173SOL    HW113418   4.719   2.874   5.149
 4173SOL    HW213419   4.780   2.894   4.999
 4174SOL     OW13420   4.255   0.392   4.904
 4174SOL    HW113421   4.167   0.395   4.951
 4174SOL    HW213422   4.316   0.329   4.952
 4175SOL     OW13423   1.582   4.579   6.680
 4175SOL    HW113424   1.606   4.669   6.644
 4175SOL    HW213425   1.544   4.589   6.772
 4176SOL     OW13426   5.396   0.076   6.142
 4176SOL    HW113427   5.493   0.056   6.125
 4176SOL    HW213428   5.341   0.042   6.066
 4177SOL     OW13429   4.598   4.385   3.308
 4177SOL    HW113430   4.533   4.425   3.244
 4177SOL    HW213431   4.632   4.299   3.271
 4178SOL     OW13432   4.233   5.071   2.112
 4178SOL    HW113433   4.283   5.068   2.199
 4178SOL    HW213434   4.179   4.987   2.102
 4179SOL     OW13435   5.136   3.217   4.820
 4179SOL    HW113436   5.055   3.159   4.808
 4179SOL    HW213437   5.124   3.274   4.901
 4180SOL     OW13438   4.978   3.799   0.103
 4180SOL    HW113439   5.018   3.788   0.013
 4180SOL    HW213440   4.896   3.742   0.110
 4181SOL     OW13441   4.548   0.347   5.824
 4181SOL    HW113442   4.577   0.326   5.731
 4181SOL    HW213443   4.485   0.424   5.823
 4182SOL     OW13444   6.667   6.555   3.975
 4182SOL    HW113445   6.675   6.466   4.021
 4182SOL    HW213446   6.574   6.567   3.941
 4183SOL     OW13447   3.502   1.836   1.597
 4183SOL    HW113448   3.420   1.781   1.579
 4183SOL    HW213449   3.530   1.822   1.692
 4184SOL     OW13450   3.102   5.341   3.629
 4184SOL    HW113451   3.153   5.387   3.556
 4184SOL    HW213452   3.163   5.325   3.707
 4185SOL     OW13453   6.754   3.796   2.666
 4185SOL    HW113454   6.789   3.800   2.759
 4185SOL    HW213455   6.799   3.722   2.616
 4186SOL     OW13456   1.571   6.223   0.187
 4186SOL    HW113457   1.500   6.257   0.250
 4186SOL    HW213458   1.657   6.270   0.205
 4187SOL     OW13459   1.646   3.343   0.125
 4187SOL    HW113460   1.624   3.429   0.079
 4187SOL    HW213461   1.745   3.334   0.135
 4188SOL     OW13462   4.631   6.981   0.018
 4188SOL    HW113463   4.657   0.036   0.068
 4188SOL    HW213464   4.652   6.992   6.949
 4189SOL     OW13465   5.003   5.200   2.505
 4189SOL    HW113466   4.967   5.194   2.598
 4189SOL    HW213467   5.081   5.137   2.495
 4190SOL     OW13468   0.234   6.544   0.932
 4190SOL    HW113469   0.197   6.607   0.863
 4190SOL    HW213470   0.166   6.473   0.951
 4191SOL     OW13471   4.408   4.610   6.046
 4191SOL    HW113472   4.462   4.694   6.041
 4191SOL    HW213473   4.405   4.578   6.140
 4192SOL     OW13474   1.009   2.743   1.986
 4192SOL    HW113475   0.915   2.776   1.978
 4192SOL    HW213476   1.017   2.653   1.942
 4193SOL     OW13477   6.711   0.387   0.605
 4193SOL    HW113478   6.624   0.435   0.596
 4193SOL    HW213479   6.725   0.328   0.526
 4194SOL     OW13480   4.654   0.752   5.026
 4194SOL    HW113481   4.716   0.691   5.076
 4194SOL    HW213482   4.685   0.760   4.931
 4195SOL     OW13483   4.373   5.638   1.247
 4195SOL    HW113484   4.462   5.683   1.234
 4195SOL    HW213485   4.362   5.614   1.343
 4196SOL     OW13486   6.840   1.977   3.129
 4196SOL    HW113487   6.863   2.062   3.177
 4196SOL    HW213488   6.910   1.957   3.062
 4197SOL     OW13489   3.452   6.620   6.231
 4197SOL    HW113490   3.398   6.580   6.158
 4197SOL    HW213491   3.494   6.548   6.286
 4198SOL     OW13492   6.507   0.960   2.209
 4198SOL    HW113493   6.507   0.969   2.109
 4198SOL    HW213494   6.413   0.948   2.241
 4199SOL     OW13495   0.991   3.884   5.997
 4199SOL    HW113496   1.001   3.846   5.905
 4199SOL    HW213497   0.983   3.984   5.991
 4200SOL     OW13498   4.786   1.077   4.450
 4200SOL    HW113499   4.691   1.047   4.438
 4200SOL    HW213500   4.844   0.997   4.471
 4201SOL     OW13501   5.525   0.291   2.978
 4201SOL    HW113502   5.488   0.382   2.996
 4201SOL    HW213503   5.524   0.237   3.063
 4202SOL     OW13504   4.311   5.289   0.712
 4202SOL    HW113505   4.395   5.292   0.658
 4202SOL    HW213506   4.325   5.230   0.791
 4203SOL     OW13507   5.884   5.335   6.963
 4203SOL    HW113508   5.865   5.312   6.868
 4203SOL    HW213509   5.978   5.369   6.971
 4204SOL     OW13510   3.337   3.645   5.835
 4204SOL    HW113511   3.306   3.684   5.748
 4204SOL    HW213512   3.283   3.564   5.856
 4205SOL     OW13513   3.435   5.730   5.369
 4205SOL    HW113514   3.488   5.814   5.356
 4205SOL    HW213515   3.392   5.703   5.283
 4206SOL     OW13516   1.634   2.145   4.554
 4206SOL    HW113517   1.641   2.190   4.643
 4206SOL    HW213518   1.694   2.190   4.489
 4207SOL     OW13519   1.460   2.924   1.790
 4207SOL    HW113520   1.371   2.881   1.802
 4207SOL    HW213521   1.516   2.909   1.872
 4208SOL     OW13522   2.200   3.562   5.083
 4208SOL    HW113523   2.230   3.637   5.140
 4208SOL    HW213524   2.206   3.589   4.986
 4209SOL     OW13525   6.934   6.068   2.757
 4209SOL    HW113526   6.942   5.969   2.758
 4209SOL    HW213527   6.920   6.100   2.664
 4210SOL     OW13528   4.161   3.652   4.934
 4210SOL    HW113529   4.260   3.661   4.941
 4210SOL    HW213530   4.129   3.583   4.999
 4211SOL     OW13531   3.976   2.270   5.256
 4211SOL    HW113532   4.041   2.223   5.314
 4211SOL    HW213533   4.008   2.362   5.236
 4212SOL     OW13534   0.318   1.594   3.058
 4212SOL    HW113535   0.352   1.559   2.971
 4212SOL    HW213536   0.365   1.550   3.134
 4213SOL     OW13537   3.460   0.342   2.848
 4213SOL    HW113538   3.390   0.412   2.844
 4213SOL    HW213539   3.538   0.376   2.900
 4214SOL     OW13540   0.900   5.197   4.327
 4214SOL    HW113541   0.861   5.115   4.285
 4214SOL    HW213542   0.909   5.183   4.426
 4215SOL     OW13543   5.134   6.206   5.200
 4215SOL    HW113544   5.093   6.213   5.109
 4215SOL    HW213545   5.129   6.295   5.246
 4216SOL     OW13546   2.289   6.759   2.543
 4216SOL    HW113547   2.270   6.857   2.542
 4216SOL    HW213548   2.362   6.739   2.477
 4217SOL     OW13549   1.090   0.496   2.057
 4217SOL    HW113550   1.068   0.426   2.125
 4217SOL    HW213551   1.125   0.453   1.974
 4218SOL     OW13552   2.961   1.109   1.940
 4218SOL    HW113553   2.944   1.021   1.983
 4218SOL    HW213554   2.875   1.158   1.926
 4219SOL     OW13555   3.677   6.388   4.193
 4219SOL    HW113556   3.693   6.343   4.105
 4219SOL    HW213557   3.762   6.428   4.226
 4220SOL     OW13558   4.847   1.789   1.665
 4220SOL    HW113559   4.823   1.825   1.575
 4220SOL    HW213560   4.885   1.697   1.655
 4221SOL     OW13561   0.140   5.547   6.151
 4221SOL    HW113562   0.139   5.640   6.115
 4221SOL    HW213563   0.062   5.496   6.113
 4222SOL     OW13564   4.898   1.850   3.412
 4222SOL    HW113565   4.954   1.776   3.451
 4222SOL    HW213566   4.927   1.869   3.319
 4223SOL     OW13567   4.184   3.740   1.885
 4223SOL    HW113568   4.160   3.831   1.852
 4223SOL    HW213569   4.102   3.695   1.920
 4224SOL     OW13570   4.816   4.002   4.308
 4224SOL    HW113571   4.871   4.059   4.247
 4224SOL    HW213572   4.847   3.908   4.302
 4225SOL     OW13573   0.447   2.697   4.864
 4225SOL    HW113574   0.395   2.673   4.946
 4225SOL    HW213575   0.394   2.763   4.810
 4226SOL     OW13576   1.036   5.293   4.806
 4226SOL    HW113577   1.101   5.223   4.836
 4226SOL    HW213578   1.086   5.371   4.768
 4227SOL     OW13579   5.412   5.264   1.846
 4227SOL    HW113580   5.345   5.301   1.781
 4227SOL    HW213581   5.504   5.274   1.808
 4228SOL     OW13582   1.025   5.961   4.351
 4228SOL    HW113583   0.989   5.873   4.319
 4228SOL    HW213584   1.120   5.950   4.379
 4229SOL     OW13585   5.820   4.821   5.889
 4229SOL    HW113586   5.808   4.787   5.796
 4229SOL    HW213587   5.807   4.747   5.954
 4230SOL     OW13588   1.393   0.726   2.333
 4230SOL    HW113589   1.412   0.629   2.324
 4230SOL    HW213590   1.332   0.755   2.259
 4231SOL     OW13591   5.271   1.332   5.112
 4231SOL    HW113592   5.215   1.274   5.171
 4231SOL    HW213593   5.368   1.321   5.138
 4232SOL     OW13594   2.363   5.383   4.194
 4232SOL    HW113595   2.451   5.428   4.184
 4232SOL    HW213596   2.296   5.449   4.228
 4233SOL     OW13597   5.774   6.178   3.866
 4233SOL    HW113598   5.765   6.225   3.778
 4233SOL    HW213599   5.859   6.206   3.911
 4234SOL     OW13600   1.752   5.368   6.069
 4234SOL    HW113601   1.813   5.401   6.141
 4234SOL    HW213602   1.659   5.359   6.106
 4235SOL     OW13603   6.996   4.621   6.148
 4235SOL    HW113604   6.924   4.593   6.084
 4235SOL    HW213605   6.965   4.701   6.199
 4236SOL     OW13606   0.309   5.103   1.620
 4236SOL    HW113607   0.265   5.081   1.707
 4236SOL    HW213608   0.256   5.065   1.544
 4237SOL     OW13609   6.945   4.058   3.675
 4237SOL    HW113610   6.965   4.120   3.599
 4237SOL    HW213611   6.987   4.094   3.759
 4238SOL     OW13612   1.951   1.018   3.007
 4238SOL    HW113613   1.881   0.956   3.042
 4238SOL    HW213614   1.940   1.027   2.908
 4239SOL     OW13615   3.738   1.144   2.815
 4239SOL    HW113616   3.719   1.208   2.890
 4239SOL    HW213617   3.830   1.160   2.781
 4240SOL     OW13618   0.582   5.356   1.003
 4240SOL    HW113619   0.643   5.293   1.050
 4240SOL    HW213620   0.635   5.414   0.941
 4241SOL     OW13621   6.727   1.871   6.939
 4241SOL    HW113622   6.661   1.796   6.938
 4241SOL    HW213623   6.766   1.882   6.847
 4242SOL     OW13624   2.264   2.152   4.369
 4242SOL    HW113625   2.209   2.069   4.379
 4242SOL    HW213626   2.293   2.184   4.459
 4243SOL     OW13627   5.221   1.068   3.136
 4243SOL    HW113628   5.227   0.982   3.186
 4243SOL    HW213629   5.129   1.107   3.147
 4244SOL     OW13630   3.565   3.866   2.441
 4244SOL    HW113631   3.466   3.870   2.429
 4244SOL    HW213632   3.596   3.946   2.493
 4245SOL     OW13633   6.369   2.748   5.616
 4245SOL    HW113634   6.320   2.702   5.542
 4245SOL    HW213635   6.422   2.681   5.668
 4246SOL     OW13636   7.021   4.077   2.824
 4246SOL    HW113637   6.972   4.037   2.747
 4246SOL    HW213638   0.079   4.028   2.839
 4247SOL     OW13639   6.807   6.271   5.164
 4247SOL    HW113640   6.805   6.368   5.141
 4247SOL    HW213641   6.889   6.229   5.124
 4248SOL     OW13642   1.499   2.573   5.933
 4248SOL    HW113643   1.470   2.602   5.841
 4248SOL    HW213644   1.598   2.579   5.940
 4249SOL     OW13645   5.970   2.779   5.565
 4249SOL    HW113646   6.015   2.762   5.477
 4249SOL    HW213647   6.034   2.760   5.640
 4250SOL     OW13648   6.403   5.052   3.865
 4250SOL    HW113649   6.310   5.017   3.855
 4250SOL    HW213650   6.454   4.995   3.930
 4251SOL     OW13651   5.923   3.880   0.175
 4251SOL    HW113652   5.925   3.977   0.198
 4251SOL    HW213653   5.866   3.831   0.241
 4252SOL     OW13654   6.799   5.806   4.996
 4252SOL    HW113655   6.774   5.851   4.910
 4252SOL    HW213656   6.746   5.845   5.071
 4253SOL     OW13657   4.731   0.658   1.570
 4253SOL    HW113658   4.668   0.724   1.530
 4253SOL    HW213659   4.683   0.604   1.639
 4254SOL     OW13660   1.418   3.681   1.381
 4254SOL    HW113661   1.477   3.761   1.372
 4254SOL    HW213662   1.356   3.677   1.303
 4255SOL     OW13663   6.246   2.948   4.433
 4255SOL    HW113664   6.319   2.881   4.424
 4255SOL    HW213665   6.206   2.942   4.524
 4256SOL     OW13666   1.740   6.765   0.933
 4256SOL    HW113667   1.804   6.800   1.001
 4256SOL    HW213668   1.753   6.666   0.922
 4257SOL     OW13669   3.627   1.778   5.196
 4257SOL    HW113670   3.620   1.874   5.169
 4257SOL    HW213671   3.687   1.769   5.275
 4258SOL     OW13672   6.078   6.387   1.878
 4258SOL    HW113673   6.129   6.305   1.902
 4258SOL    HW213674   6.072   6.447   1.958
 4259SOL     OW13675   2.671   1.606   6.950
 4259SOL    HW113676   2.704   1.688   6.998
 4259SOL    HW213677   2.640   1.632   6.858
 4260SOL     OW13678   4.180   5.705   3.615
 4260SOL    HW113679   4.085   5.674   3.608
 4260SOL    HW213680   4.187   5.774   3.686
 4261SOL     OW13681   2.357   6.279   2.174
 4261SOL    HW113682   2.445   6.300   2.131
 4261SOL    HW213683   2.308   6.364   2.193
 4262SOL     OW13684   2.012   5.148   6.736
 4262SOL    HW113685   1.970   5.113   6.652
 4262SOL    HW213686   1.943   5.153   6.808
 4263SOL     OW13687   2.319   5.420   5.250
 4263SOL    HW113688   2.289   5.367   5.170
 4263SOL    HW213689   2.415   5.398   5.270
 4264SOL     OW13690   0.323   1.532   0.200
 4264SOL    HW113691   0.305   1.459   0.133
 4264SOL    HW213692   0.402   1.585   0.171
 4265SOL     OW13693   6.648   2.097   0.015
 4265SOL    HW113694   6.675   2.011   6.999
 4265SOL    HW213695   6.598   2.153   6.976
 4266SOL     OW13696   2.301   5.702   0.582
 4266SOL    HW113697   2.283   5.610   0.549
 4266SOL    HW213698   2.370   5.699   0.654
 4267SOL     OW13699   2.288   3.745   5.247
 4267SOL    HW113700   2.329   3.833   5.224
 4267SOL    HW213701   2.331   3.709   5.331
 4268SOL     OW13702   1.909   0.365   0.309
 4268SOL    HW113703   1.835   0.429   0.333
 4268SOL    HW213704   1.947   0.327   0.393
 4269SOL     OW13705   3.154   3.140   0.232
 4269SOL    HW113706   3.198   3.088   0.306
 4269SOL    HW213707   3.127   3.077   0.159
 4270SOL     OW13708   3.693   2.953   4.757
 4270SOL    HW113709   3.673   2.925   4.663
 4270SOL    HW213710   3.610   2.944   4.813
 4271SOL     OW13711   0.554   6.526   5.617
 4271SOL    HW113712   0.621   6.475   5.561
 4271SOL    HW213713   0.482   6.561   5.558
 4272SOL     OW13714   6.684   4.762   5.451
 4272SOL    HW113715   6.723   4.703   5.381
 4272SOL    HW213716   6.598   4.722   5.484
 4273SOL     OW13717   4.852   0.102   5.153
 4273SOL    HW113718   4.941   0.066   5.181
 4273SOL    HW213719   4.842   0.091   5.054
 4274SOL     OW13720   1.498   7.009   3.678
 4274SOL    HW113721   1.529   0.062   3.627
 4274SOL    HW213722   1.449   0.011   3.761
 4275SOL     OW13723   0.130   0.822   5.127
 4275SOL    HW113724   0.050   0.840   5.069
 4275SOL    HW213725   0.202   0.889   5.106
 4276SOL     OW13726   2.347   5.002   3.232
 4276SOL    HW113727   2.423   4.937   3.239
 4276SOL    HW213728   2.269   4.958   3.188
 4277SOL     OW13729   6.691   5.516   3.599
 4277SOL    HW113730   6.790   5.519   3.588
 4277SOL    HW213731   6.646   5.546   3.515
 4278SOL     OW13732   6.616   6.235   4.664
 4278SOL    HW113733   6.677   6.313   4.681
 4278SOL    HW213734   6.565   6.215   4.748
 4279SOL     OW13735   3.232   6.595   5.729
 4279SOL    HW113736   3.167   6.571   5.800
 4279SOL    HW213737   3.182   6.623   5.647
 4280SOL     OW13738   6.681   1.975   5.071
 4280SOL    HW113739   6.766   1.988   5.122
 4280SOL    HW213740   6.646   1.882   5.087
 4281SOL     OW13741   1.751   4.720   5.240
 4281SOL    HW113742   1.694   4.751   5.164
 4281SOL    HW213743   1.847   4.726   5.215
 4282SOL     OW13744   2.646   2.877   0.619
 4282SOL    HW113745   2.580   2.865   0.693
 4282SOL    HW213746   2.666   2.787   0.578
 4283SOL     OW13747   2.031   0.233   4.014
 4283SOL    HW113748   2.015   0.230   4.112
 4283SOL    HW213749   2.071   0.146   3.984
 4284SOL     OW13750   5.482   0.860   2.270
 4284SOL    HW113751   5.448   0.820   2.355
 4284SOL    HW213752   5.562   0.808   2.239
 4285SOL     OW13753   0.352   6.855   5.855
 4285SOL    HW113754   0.331   6.945   5.815
 4285SOL    HW213755   0.366   6.866   5.954
 4286SOL     OW13756   4.704   5.716   6.885
 4286SOL    HW113757   4.681   5.619   6.893
 4286SOL    HW213758   4.649   5.757   6.812
 4287SOL     OW13759   5.597   7.017   5.062
 4287SOL    HW113760   5.602   0.004   4.963
 4287SOL    HW213761   5.690   7.012   5.100
 4288SOL     OW13762   0.841   6.851   3.651
 4288SOL    HW113763   0.840   6.785   3.576
 4288SOL    HW213764   0.878   6.938   3.619
 4289SOL     OW13765   5.322   2.426   1.592
 4289SOL    HW113766   5.322   2.338   1.545
 4289SOL    HW213767   5.363   2.415   1.682
 4290SOL     OW13768   2.329   0.180   2.066
 4290SOL    HW113769   2.317   0.131   2.152
 4290SOL    HW213770   2.240   0.214   2.034
 4291SOL     OW13771   5.520   2.938   0.620
 4291SOL    HW113772   5.479   2.953   0.710
 4291SOL    HW213773   5.447   2.922   0.553
 4292SOL     OW13774   6.180   4.021   5.781
 4292SOL    HW113775   6.220   4.022   5.873
 4292SOL    HW213776   6.232   4.081   5.721
 4293SOL     OW13777   6.761   3.690   6.502
 4293SOL    HW113778   6.796   3.611   6.453
 4293SOL    HW213779   6.715   3.752   6.438
 4294SOL     OW13780   3.851   2.871   6.145
 4294SOL    HW113781   3.764   2.835   6.180
 4294SOL    HW213782   3.919   2.797   6.146
 4295SOL     OW13783   3.220   0.278   5.061
 4295SOL    HW113784   3.268   0.224   4.991
 4295SOL    HW213785   3.131   0.306   5.026
 4296SOL     OW13786   2.562   1.605   0.904
 4296SOL    HW113787   2.622   1.526   0.895
 4296SOL    HW213788   2.492   1.586   0.973
 4297SOL     OW13789   4.994   6.854   4.754
 4297SOL    HW113790   4.935   6.924   4.795
 4297SOL    HW213791   5.049   6.811   4.825
 4298SOL     OW13792   1.800   5.983   1.192
 4298SOL    HW113793   1.791   5.974   1.093
 4298SOL    HW213794   1.877   6.044   1.214
 4299SOL     OW13795   0.976   3.223   5.954
 4299SOL    HW113796   0.964   3.292   6.026
 4299SOL    HW213797   0.944   3.134   5.987
 4300SOL     OW13798   3.055   1.045   6.893
 4300SOL    HW113799   3.023   1.057   6.799
 4300SOL    HW213800   3.146   1.084   6.902
 4301SOL     OW13801   1.960   1.521   0.254
 4301SOL    HW113802   1.863   1.523   0.233
 4301SOL    HW213803   1.986   1.608   0.298
 4302SOL     OW13804   1.048   6.176   6.541
 4302SOL    HW113805   1.049   6.200   6.444
 4302SOL    HW213806   0.987   6.238   6.590
 4303SOL     OW13807   6.435   4.173   3.132
 4303SOL    HW113808   6.481   4.162   3.220
 4303SOL    HW213809   6.349   4.122   3.133
 4304SOL     OW13810   3.510   3.764   3.856
 4304SOL    HW113811   3.515   3.817   3.772
 4304SOL    HW213812   3.422   3.716   3.860
 4305SOL     OW13813   6.543   1.074   3.098
 4305SOL    HW113814   6.558   1.039   3.191
 4305SOL    HW213815   6.577   1.168   3.092
 4306SOL     OW13816   0.420   3.975   6.305
 4306SOL    HW113817   0.375   3.919   6.374
 4306SOL    HW213818   0.455   3.917   6.232
 4307SOL     OW13819   4.621   4.224   5.614
 4307SOL    HW113820   4.557   4.294   5.583
 4307SOL    HW213821   4.572   4.154   5.666
 4308SOL     OW13822   5.385   6.235   5.308
 4308SOL    HW113823   5.315   6.200   5.246
 4308SOL    HW213824   5.398   6.333   5.293
 4309SOL     OW13825   1.480   0.694   0.472
 4309SOL    HW113826   1.526   0.778   0.500
 4309SOL    HW213827   1.392   0.688   0.519
 4310SOL     OW13828   1.896   2.482   3.565
 4310SOL    HW113829   1.969   2.530   3.517
 4310SOL    HW213830   1.846   2.424   3.500
 4311SOL     OW13831   1.039   6.083   4.012
 4311SOL    HW113832   1.102   6.134   3.953
 4311SOL    HW213833   1.087   6.009   4.057
 4312SOL     OW13834   1.913   6.286   1.748
 4312SOL    HW113835   1.842   6.298   1.679
 4312SOL    HW213836   1.871   6.263   1.836
 4313SOL     OW13837   5.742   0.788   1.423
 4313SOL    HW113838   5.693   0.870   1.394
 4313SOL    HW213839   5.694   0.744   1.499
 4314SOL     OW13840   4.821   2.856   3.042
 4314SOL    HW113841   4.820   2.952   3.014
 4314SOL    HW213842   4.748   2.807   2.996
 4315SOL     OW13843   2.516   0.360   1.839
 4315SOL    HW113844   2.590   0.303   1.874
 4315SOL    HW213845   2.435   0.302   1.824
 4316SOL     OW13846   5.198   0.038   0.875
 4316SOL    HW113847   5.196   6.966   0.867
 4316SOL    HW213848   5.293   0.068   0.889
 4317SOL     OW13849   3.927   1.524   5.006
 4317SOL    HW113850   3.855   1.586   4.975
 4317SOL    HW213851   4.013   1.575   5.013
 4318SOL     OW13852   1.197   4.092   3.950
 4318SOL    HW113853   1.240   4.028   4.014
 4318SOL    HW213854   1.228   4.072   3.857
 4319SOL     OW13855   2.634   3.389   6.667
 4319SOL    HW113856   2.682   3.373   6.753
 4319SOL    HW213857   2.556   3.328   6.659
 4320SOL     OW13858   1.275   6.674   2.583
 4320SOL    HW113859   1.318   6.705   2.498
 4320SOL    HW213860   1.340   6.685   2.659
 4321SOL     OW13861   6.084   0.807   4.971
 4321SOL    HW113862   6.125   0.718   4.994
 4321SOL    HW213863   6.022   0.795   4.893
 4322SOL     OW13864   0.019   1.037   6.671
 4322SOL    HW113865   0.019   0.996   6.580
 4322SOL    HW213866   6.996   1.123   6.670
 4323SOL     OW13867   5.929   2.821   2.249
 4323SOL    HW113868   5.909   2.724   2.257
 4323SOL    HW213869   6.022   2.839   2.280
 4324SOL     OW13870   5.809   3.803   6.498
 4324SOL    HW113871   5.853   3.855   6.425
 4324SOL    HW213872   5.863   3.721   6.517
 4325SOL     OW13873   2.237   0.822   0.135
 4325SOL    HW113874   2.166   0.875   0.181
 4325SOL    HW213875   2.314   0.881   0.112
 4326SOL     OW13876   6.630   3.595   5.135
 4326SOL    HW113877   6.722   3.629   5.155
 4326SOL    HW213878   6.579   3.665   5.085
 4327SOL     OW13879   5.278   5.774   2.458
 4327SOL    HW113880   5.330   5.789   2.541
 4327SOL    HW213881   5.341   5.759   2.381
 4328SOL     OW13882   4.551   4.845   6.099
 4328SOL    HW113883   4.486   4.894   6.158
 4328SOL    HW213884   4.593   4.909   6.035
 4329SOL     OW13885   3.520   1.978   5.679
 4329SOL    HW113886   3.507   2.050   5.612
 4329SOL    HW213887   3.438   1.968   5.735
 4330SOL     OW13888   2.581   0.577   6.000
 4330SOL    HW113889   2.680   0.580   5.989
 4330SOL    HW213890   2.557   0.499   6.058
 4331SOL     OW13891   5.322   3.377   0.439
 4331SOL    HW113892   5.400   3.347   0.494
 4331SOL    HW213893   5.335   3.350   0.344
 4332SOL     OW13894   4.950   3.272   2.148
 4332SOL    HW113895   4.948   3.360   2.195
 4332SOL    HW213896   4.982   3.285   2.054
 4333SOL     OW13897   5.594   1.618   5.145
 4333SOL    HW113898   5.499   1.644   5.127
 4333SOL    HW213899   5.642   1.694   5.187
 4334SOL     OW13900   3.287   2.170   1.973
 4334SOL    HW113901   3.210   2.185   1.911
 4334SOL    HW213902   3.252   2.152   2.065
 4335SOL     OW13903   3.031   3.849   4.135
 4335SOL    HW113904   3.017   3.864   4.233
 4335SOL    HW213905   3.075   3.929   4.095
 4336SOL     OW13906   1.775   5.967   5.412
 4336SOL    HW113907   1.702   5.927   5.356
 4336SOL    HW213908   1.798   5.905   5.487
 4337SOL     OW13909   0.616   5.152   0.225
 4337SOL    HW113910   0.699   5.202   0.250
 4337SOL    HW213911   0.536   5.209   0.245
 4338SOL     OW13912   6.202   5.950   4.844
 4338SOL    HW113913   6.133   5.982   4.909
 4338SOL    HW213914   6.203   6.010   4.764
 4339SOL     OW13915   6.693   2.632   4.936
 4339SOL    HW113916   6.735   2.647   4.846
 4339SOL    HW213917   6.602   2.593   4.924
 4340SOL     OW13918   6.345   3.254   2.457
 4340SOL    HW113919   6.436   3.241   2.496
 4340SOL    HW213920   6.352   3.278   2.361
 4341SOL     OW13921   1.660   3.808   1.927
 4341SOL    HW113922   1.598   3.886   1.916
 4341SOL    HW213923   1.607   3.724   1.934
 4342SOL     OW13924   0.612   2.894   3.389
 4342SOL    HW113925   0.516   2.869   3.376
 4342SOL    HW213926   0.663   2.877   3.305
 4343SOL     OW13927   3.513   0.843   0.262
 4343SOL    HW113928   3.529   0.893   0.177
 4343SOL    HW213929   3.587   0.777   0.276
 4344SOL     OW13930   2.085   4.772   3.407
 4344SOL    HW113931   2.168   4.760   3.462
 4344SOL    HW213932   2.084   4.863   3.367
 4345SOL     OW13933   1.852   2.844   5.358
 4345SOL    HW113934   1.806   2.757   5.378
 4345SOL    HW213935   1.823   2.877   5.268
 4346SOL     OW13936   2.413   3.232   1.679
 4346SOL    HW113937   2.455   3.253   1.591
 4346SOL    HW213938   2.406   3.315   1.734
 4347SOL     OW13939   6.560   0.267   1.841
 4347SOL    HW113940   6.590   0.353   1.883
 4347SOL    HW213941   6.618   0.193   1.874
 4348SOL     OW13942   0.789   3.676   1.682
 4348SOL    HW113943   0.880   3.657   1.645
 4348SOL    HW213944   0.784   3.772   1.709
 4349SOL     OW13945   0.451   1.216   3.683
 4349SOL    HW113946   0.371   1.194   3.628
 4349SOL    HW213947   0.422   1.252   3.772
 4350SOL     OW13948   5.181   2.395   4.841
 4350SOL    HW113949   5.248   2.327   4.870
 4350SOL    HW213950   5.167   2.388   4.742
 4351SOL     OW13951   2.846   5.986   2.271
 4351SOL    HW113952   2.910   5.929   2.323
 4351SOL    HW213953   2.819   5.939   2.188
 4352SOL     OW13954   0.598   1.968   2.174
 4352SOL    HW113955   0.686   1.921   2.172
 4352SOL    HW213956   0.606   2.051   2.230
 4353SOL     OW13957   2.180   6.078   0.324
 4353SOL    HW113958   2.176   6.010   0.397
 4353SOL    HW213959   2.146   6.166   0.358
 4354SOL     OW13960   2.119   0.273   6.993
 4354SOL    HW113961   2.203   0.226   6.967
 4354SOL    HW213962   2.107   0.354   6.935
 4355SOL     OW13963   3.870   0.945   1.292
 4355SOL    HW113964   3.863   1.019   1.225
 4355SOL    HW213965   3.949   0.962   1.352
 4356SOL     OW13966   4.813   4.120   1.258
 4356SOL    HW113967   4.748   4.069   1.315
 4356SOL    HW213968   4.896   4.139   1.311
 4357SOL     OW13969   6.239   0.783   0.052
 4357SOL    HW113970   6.178   0.727   0.108
 4357SOL    HW213971   6.202   0.876   0.045
 4358SOL     OW13972   0.443   5.922   1.528
 4358SOL    HW113973   0.491   6.007   1.551
 4358SOL    HW213974   0.411   5.927   1.433
 4359SOL     OW13975   1.035   2.380   4.549
 4359SOL    HW113976   1.003   2.434   4.471
 4359SOL    HW213977   1.011   2.284   4.536
 4360SOL     OW13978   0.421   3.973   2.026
 4360SOL    HW113979   0.385   3.954   2.117
 4360SOL    HW213980   0.392   3.901   1.963
 4361SOL     OW13981   4.464   2.432   1.661
 4361SOL    HW113982   4.430   2.518   1.622
 4361SOL    HW213983   4.545   2.403   1.611
 4362SOL     OW13984   6.405   3.620   5.569
 4362SOL    HW113985   6.340   3.683   5.526
 4362SOL    HW213986   6.400   3.631   5.668
 4363SOL     OW13987   5.228   2.823   5.485
 4363SOL    HW113988   5.161   2.772   5.430
 4363SOL    HW213989   5.188   2.844   5.574
 4364SOL     OW13990   3.144   4.050   4.899
 4364SOL    HW113991   3.107   4.124   4.956
 4364SOL    HW213992   3.244   4.055   4.900
 4365SOL     OW13993   4.072   2.179   2.345
 4365SOL    HW113994   4.150   2.229   2.308
 4365SOL    HW213995   3.987   2.222   2.314
 4366SOL     OW13996   6.538   6.673   1.565
 4366SOL    HW113997   6.530   6.770   1.544
 4366SOL    HW213998   6.447   6.632   1.568
 4367SOL     OW13999   0.914   5.485   5.642
 4367SOL    HW114000   0.840   5.550   5.660
 4367SOL    HW214001   1.002   5.528   5.661
 4368SOL     OW14002   5.399   4.716   1.905
 4368SOL    HW114003   5.351   4.631   1.886
 4368SOL    HW214004   5.493   4.695   1.933
 4369SOL     OW14005   4.617   4.421   2.193
 4369SOL    HW114006   4.582   4.369   2.115
 4369SOL    HW214007   4.586   4.516   2.187
 4370SOL     OW14008   5.811   4.350   3.458
 4370SOL    HW114009   5.850   4.407   3.531
 4370SOL    HW214010   5.719   4.382   3.437
 4371SOL     OW14011   6.121   0.554   1.711
 4371SOL    HW114012   6.196   0.488   1.715
 4371SOL    HW214013   6.157   0.647   1.712
 4372SOL     OW14014   4.850   1.343   3.013
 4372SOL    HW114015   4.842   1.278   2.938
 4372SOL    HW214016   4.768   1.400   3.017
 4373SOL     OW14017   6.763   2.450   6.672
 4373SOL    HW114018   6.737   2.409   6.759
 4373SOL    HW214019   6.831   2.522   6.688
 4374SOL     OW14020   1.530   2.267   2.274
 4374SOL    HW114021   1.554   2.214   2.193
 4374SOL    HW214022   1.491   2.206   2.343
 4375SOL     OW14023   2.438   6.518   4.334
 4375SOL    HW114024   2.513   6.453   4.348
 4375SOL    HW214025   2.413   6.559   4.422
 4376SOL     OW14026   6.574   0.343   2.457
 4376SOL    HW114027   6.588   0.347   2.358
 4376SOL    HW214028   6.487   0.385   2.480
 4377SOL     OW14029   5.854   3.573   0.092
 4377SOL    HW114030   5.947   3.601   0.115
 4377SOL    HW214031   5.839   3.479   0.122
 4378SOL     OW14032   2.254   0.691   3.842
 4378SOL    HW114033   2.232   0.735   3.755
 4378SOL    HW214034   2.195   0.612   3.855
 4379SOL     OW14035   2.659   1.189   4.949
 4379SOL    HW114036   2.730   1.161   5.014
 4379SOL    HW214037   2.598   1.255   4.993
 4380SOL     OW14038   1.158   1.490   1.460
 4380SOL    HW114039   1.174   1.546   1.542
 4380SOL    HW214040   1.236   1.429   1.447
 4381SOL     OW14041   1.073   5.555   5.204
 4381SOL    HW114042   1.158   5.507   5.228
 4381SOL    HW214043   0.996   5.511   5.249
 4382SOL     OW14044   0.135   3.450   5.106
 4382SOL    HW114045   0.227   3.419   5.081
 4382SOL    HW214046   0.085   3.374   5.148
 4383SOL     OW14047   5.355   2.682   5.915
 4383SOL    HW114048   5.373   2.775   5.884
 4383SOL    HW214049   5.369   2.618   5.840
 4384SOL     OW14050   0.164   0.044   3.375
 4384SOL    HW114051   0.137   0.058   3.470
 4384SOL    HW214052   0.094   7.017   3.328
 4385SOL     OW14053   5.369   1.857   4.741
 4385SOL    HW114054   5.393   1.893   4.651
 4385SOL    HW214055   5.314   1.774   4.731
 4386SOL     OW14056   1.490   4.055   5.939
 4386SOL    HW114057   1.543   3.984   5.892
 4386SOL    HW214058   1.393   4.045   5.915
 4387SOL     OW14059   6.795   2.921   0.571
 4387SOL    HW114060   6.876   2.929   0.629
 4387SOL    HW214061   6.719   2.884   0.625
 4388SOL     OW14062   5.023   2.025   6.182
 4388SOL    HW114063   5.106   2.020   6.237
 4388SOL    HW214064   4.998   2.120   6.167
 4389SOL     OW14065   0.037   3.680   1.738
 4389SOL    HW114066   0.112   3.649   1.680
 4389SOL    HW214067   0.005   3.769   1.706
 4390SOL     OW14068   5.730   0.191   0.601
 4390SOL    HW114069   5.692   0.203   0.692
 4390SOL    HW214070   5.674   0.126   0.549
 4391SOL     OW14071   1.899   5.533   6.249
 4391SOL    HW114072   1.814   5.586   6.245
 4391SOL    HW214073   1.914   5.502   6.343
 4392SOL     OW14074   1.353   1.393   4.099
 4392SOL    HW114075   1.331   1.317   4.038
 4392SOL    HW214076   1.381   1.356   4.188
 4393SOL     OW14077   6.004   0.057   1.318
 4393SOL    HW114078   6.019   7.011   1.384
 4393SOL    HW214079   6.041   0.031   1.229
 4394SOL     OW14080   1.570   0.069   1.357
 4394SOL    HW114081   1.554   0.011   1.437
 4394SOL    HW214082   1.560   0.015   1.273
 4395SOL     OW14083   2.592   6.620   2.167
 4395SOL    HW114084   2.606   6.542   2.106
 4395SOL    HW214085   2.680   6.661   2.190
 4396SOL     OW14086   1.366   0.453   3.252
 4396SOL    HW114087   1.371   0.423   3.157
 4396SOL    HW214088   1.288   0.409   3.297
 4397SOL     OW14089   2.681   2.312   3.854
 4397SOL    HW114090   2.701   2.333   3.758
 4397SOL    HW214091   2.655   2.395   3.902
 4398SOL     OW14092   2.079   3.579   6.250
 4398SOL    HW114093   2.131   3.664   6.247
 4398SOL    HW214094   2.135   3.507   6.291
 4399SOL     OW14095   2.492   6.537   2.470
 4399SOL    HW114096   2.484   6.524   2.371
 4399SOL    HW214097   2.413   6.496   2.516
 4400SOL     OW14098   1.911   6.437   4.308
 4400SOL    HW114099   2.004   6.462   4.281
 4400SOL    HW214100   1.909   6.418   4.406
 4401SOL     OW14101   3.542   6.441   5.604
 4401SOL    HW114102   3.618   6.380   5.623
 4401SOL    HW214103   3.495   6.411   5.520
 4402SOL     OW14104   1.565   0.620   2.977
 4402SOL    HW114105   1.500   0.693   3.000
 4402SOL    HW214106   1.521   0.531   2.984
 4403SOL     OW14107   0.717   4.931   1.398
 4403SOL    HW114108   0.669   4.894   1.478
 4403SOL    HW214109   0.689   5.026   1.384
 4404SOL     OW14110   1.087   5.840   6.306
 4404SOL    HW114111   1.179   5.877   6.296
 4404SOL    HW214112   1.029   5.872   6.231
 4405SOL     OW14113   2.751   4.778   3.528
 4405SOL    HW114114   2.671   4.720   3.542
 4405SOL    HW214115   2.802   4.787   3.614
 4406SOL     OW14116   6.300   3.695   2.335
 4406SOL    HW114117   6.251   3.710   2.421
 4406SOL    HW214118   6.240   3.716   2.258
 4407SOL     OW14119   7.017   6.357   2.092
 4407SOL    HW114120   0.080   6.329   2.124
 4407SOL    HW214121   7.022   6.386   1.997
 4408SOL     OW14122   4.081   6.819   0.284
 4408SOL    HW114123   4.046   6.810   0.191
 4408SOL    HW214124   4.026   6.885   0.335
 4409SOL     OW14125   3.907   0.978   2.528
 4409SOL    HW114126   3.883   1.050   2.463
 4409SOL    HW214127   3.996   0.998   2.569
 4410SOL     OW14128   0.356   5.745   1.031
 4410SOL    HW114129   0.279   5.774   0.975
 4410SOL    HW214130   0.441   5.759   0.981
 4411SOL     OW14131   3.180   4.546   5.840
 4411SOL    HW114132   3.207   4.491   5.761
 4411SOL    HW214133   3.192   4.493   5.923
 4412SOL     OW14134   4.062   6.732   3.579
 4412SOL    HW114135   4.155   6.699   3.598
 4412SOL    HW214136   4.065   6.831   3.565
 4413SOL     OW14137   3.375   0.165   4.459
 4413SOL    HW114138   3.293   0.219   4.477
 4413SOL    HW214139   3.454   0.210   4.501
 4414SOL     OW14140   5.015   4.870   2.166
 4414SOL    HW114141   5.113   4.852   2.157
 4414SOL    HW214142   4.987   4.938   2.098
 4415SOL     OW14143   3.309   4.052   1.778
 4415SOL    HW114144   3.340   4.128   1.720
 4415SOL    HW214145   3.389   4.010   1.822
 4416SOL     OW14146   4.149   1.674   4.437
 4416SOL    HW114147   4.065   1.664   4.383
 4416SOL    HW214148   4.194   1.760   4.414
 4417SOL     OW14149   0.346   3.687   3.894
 4417SOL    HW114150   0.431   3.636   3.910
 4417SOL    HW214151   0.276   3.654   3.957
 4418SOL     OW14152   6.256   0.495   0.838
 4418SOL    HW114153   6.205   0.540   0.912
 4418SOL    HW214154   6.344   0.464   0.873
 4419SOL     OW14155   6.407   5.688   5.865
 4419SOL    HW114156   6.430   5.744   5.944
 4419SOL    HW214157   6.391   5.594   5.894
 4420SOL     OW14158   3.529   2.023   1.227
 4420SOL    HW114159   3.582   1.949   1.269
 4420SOL    HW214160   3.499   2.087   1.297
 4421SOL     OW14161   1.294   2.869   4.418
 4421SOL    HW114162   1.291   2.853   4.319
 4421SOL    HW214163   1.218   2.930   4.444
 4422SOL     OW14164   0.220   4.832   6.816
 4422SOL    HW114165   0.262   4.865   6.901
 4422SOL    HW214166   0.150   4.764   6.839
 4423SOL     OW14167   5.759   4.054   5.835
 4423SOL    HW114168   5.700   4.073   5.914
 4423SOL    HW214169   5.796   3.961   5.843
 4424SOL     OW14170   4.751   6.194   4.206
 4424SOL    HW114171   4.740   6.162   4.112
 4424SOL    HW214172   4.714   6.125   4.269
 4425SOL     OW14173   1.811   5.546   1.322
 4425SOL    HW114174   1.763   5.464   1.354
 4425SOL    HW214175   1.747   5.606   1.275
 4426SOL     OW14176   0.891   6.983   4.152
 4426SOL    HW114177   0.904   6.930   4.236
 4426SOL    HW214178   0.797   6.973   4.120
 4427SOL     OW14179   3.497   6.371   3.144
 4427SOL    HW114180   3.588   6.363   3.103
 4427SOL    HW214181   3.502   6.354   3.242
 4428SOL     OW14182   5.851   0.988   4.010
 4428SOL    HW114183   5.885   0.986   4.105
 4428SOL    HW214184   5.870   0.900   3.966
 4429SOL     OW14185   2.638   6.117   3.431
 4429SOL    HW114186   2.676   6.183   3.366
 4429SOL    HW214187   2.711   6.087   3.493
 4430SOL     OW14188   4.991   4.846   4.354
 4430SOL    HW114189   4.898   4.878   4.373
 4430SOL    HW214190   5.055   4.891   4.416
 4431SOL     OW14191   3.260   0.755   3.697
 4431SOL    HW114192   3.245   0.736   3.600
 4431SOL    HW214193   3.175   0.741   3.748
 4432SOL     OW14194   1.618   3.438   6.215
 4432SOL    HW114195   1.630   3.536   6.201
 4432SOL    HW214196   1.542   3.406   6.159
 4433SOL     OW14197   1.222   1.092   4.641
 4433SOL    HW114198   1.167   1.012   4.663
 4433SOL    HW214199   1.170   1.154   4.582
 4434SOL     OW14200   6.671   1.792   1.238
 4434SOL    HW114201   6.613   1.838   1.305
 4434SOL    HW214202   6.764   1.785   1.274
 4435SOL     OW14203   2.639   3.405   0.223
 4435SOL    HW114204   2.732   3.376   0.206
 4435SOL    HW214205   2.575   3.336   0.189
 4436SOL     OW14206   4.801   1.825   1.396
 4436SOL    HW114207   4.734   1.892   1.365
 4436SOL    HW214208   4.819   1.760   1.322
 4437SOL     OW14209   6.936   3.796   2.244
 4437SOL    HW114210   7.021   3.747   2.263
 4437SOL    HW214211   6.949   3.894   2.258
 4438SOL     OW14212   4.395   6.760   5.794
 4438SOL    HW114213   4.375   6.717   5.706
 4438SOL    HW214214   4.431   6.851   5.780
 4439SOL     OW14215   2.196   6.879   3.015
 4439SOL    HW114216   2.109   6.862   2.969
 4439SOL    HW214217   2.263   6.910   2.948
 4440SOL     OW14218   1.854   5.090   0.721
 4440SOL    HW114219   1.869   5.032   0.640
 4440SOL    HW214220   1.935   5.147   0.736
 4441SOL     OW14221   0.747   1.464   6.937
 4441SOL    HW114222   0.702   1.517   6.864
 4441SOL    HW214223   0.840   1.442   6.909
 4442SOL     OW14224   1.957   4.794   6.366
 4442SOL    HW114225   2.057   4.797   6.356
 4442SOL    HW214226   1.932   4.712   6.418
 4443SOL     OW14227   0.681   5.176   6.992
 4443SOL    HW114228   0.646   5.172   0.058
 4443SOL    HW214229   0.608   5.210   6.931
 4444SOL     OW14230   5.106   3.815   0.556
 4444SOL    HW114231   5.035   3.843   0.491
 4444SOL    HW214232   5.119   3.887   0.624
 4445SOL     OW14233   0.501   5.738   6.818
 4445SOL    HW114234   0.413   5.691   6.826
 4445SOL    HW214235   0.488   5.836   6.833
 4446SOL     OW14236   4.975   0.976   0.699
 4446SOL    HW114237   4.930   1.066   0.694
 4446SOL    HW214238   5.062   0.985   0.746
 4447SOL     OW14239   5.631   4.687   5.266
 4447SOL    HW114240   5.621   4.787   5.270
 4447SOL    HW214241   5.541   4.645   5.252
 4448SOL     OW14242   3.003   6.566   2.072
 4448SOL    HW114243   2.940   6.623   2.124
 4448SOL    HW214244   3.066   6.625   2.021
 4449SOL     OW14245   3.636   0.970   6.699
 4449SOL    HW114246   3.704   1.024   6.749
 4449SOL    HW214247   3.622   1.009   6.609
 4450SOL     OW14248   3.622   0.249   0.076
 4450SOL    HW114249   3.600   0.260   7.006
 4450SOL    HW214250   3.629   0.152   0.098
 4451SOL     OW14251   4.880   4.699   3.611
 4451SOL    HW114252   4.812   4.766   3.582
 4451SOL    HW214253   4.854   4.661   3.700
 4452SOL     OW14254   5.182   6.445   3.987
 4452SOL    HW114255   5.119   6.382   4.033
 4452SOL    HW214256   5.135   6.490   3.912
 4453SOL     OW14257   0.209   3.532   1.332
 4453SOL    HW114258   0.199   3.570   1.240
 4453SOL    HW214259   0.161   3.444   1.338
 4454SOL     OW14260   1.174   2.207   0.167
 4454SOL    HW114261   1.083   2.247   0.167
 4454SOL    HW214262   1.195   2.172   0.075
 4455SOL     OW14263   6.743   6.006   4.781
 4455SOL    HW114264   6.729   6.100   4.748
 4455SOL    HW214265   6.675   5.946   4.739
 4456SOL     OW14266   2.034   6.971   3.849
 4456SOL    HW114267   2.070   6.911   3.920
 4456SOL    HW214268   1.935   6.959   3.843
 4457SOL     OW14269   1.540   1.825   4.716
 4457SOL    HW114270   1.527   1.920   4.744
 4457SOL    HW214271   1.586   1.822   4.628
 4458SOL     OW14272   1.947   3.896   1.491
 4458SOL    HW114273   1.935   3.853   1.580
 4458SOL    HW214274   1.863   3.941   1.463
 4459SOL     OW14275   1.623   2.665   4.277
 4459SOL    HW114276   1.669   2.747   4.244
 4459SOL    HW214277   1.684   2.586   4.266
 4460SOL     OW14278   0.301   3.742   4.272
 4460SOL    HW114279   0.239   3.804   4.321
 4460SOL    HW214280   0.249   3.685   4.209
 4461SOL     OW14281   2.791   1.174   1.326
 4461SOL    HW114282   2.795   1.121   1.411
 4461SOL    HW214283   2.880   1.171   1.280
 4462SOL     OW14284   6.296   3.986   1.952
 4462SOL    HW114285   6.325   3.957   1.861
 4462SOL    HW214286   6.374   4.023   2.003
 4463SOL     OW14287   5.934   2.001   1.531
 4463SOL    HW114288   5.985   1.926   1.490
 4463SOL    HW214289   5.847   2.014   1.483
 4464SOL     OW14290   0.299   5.512   0.452
 4464SOL    HW114291   0.348   5.427   0.429
 4464SOL    HW214292   0.303   5.527   0.551
 4465SOL     OW14293   2.476   5.892   0.479
 4465SOL    HW114294   2.412   5.815   0.482
 4465SOL    HW214295   2.491   5.927   0.572
 4466SOL     OW14296   1.771   2.194   3.915
 4466SOL    HW114297   1.840   2.143   3.864
 4466SOL    HW214298   1.813   2.272   3.961
 4467SOL     OW14299   3.228   5.835   3.001
 4467SOL    HW114300   3.223   5.736   2.987
 4467SOL    HW214301   3.174   5.860   3.082
 4468SOL     OW14302   1.188   3.162   2.093
 4468SOL    HW114303   1.124   3.150   2.169
 4468SOL    HW214304   1.281   3.148   2.125
 4469SOL     OW14305   2.560   0.069   1.596
 4469SOL    HW114306   2.491   0.085   1.667
 4469SOL    HW214307   2.633   0.138   1.604
 4470SOL     OW14308   1.456   0.413   2.336
 4470SOL    HW114309   1.539   0.408   2.392
 4470SOL    HW214310   1.482   0.428   2.240
 4471SOL     OW14311   1.989   1.776   6.227
 4471SOL    HW114312   1.905   1.781   6.281
 4471SOL    HW214313   2.058   1.724   6.277
 4472SOL     OW14314   1.684   3.093   0.981
 4472SOL    HW114315   1.721   3.072   0.891
 4472SOL    HW214316   1.616   3.166   0.973
 4473SOL     OW14317   0.289   3.230   4.272
 4473SOL    HW114318   0.224   3.252   4.345
 4473SOL    HW214319   0.348   3.309   4.256
 4474SOL     OW14320   3.205   0.544   1.864
 4474SOL    HW114321   3.278   0.518   1.800
 4474SOL    HW214322   3.231   0.518   1.957
 4475SOL     OW14323   0.954   3.790   2.015
 4475SOL    HW114324   0.896   3.714   2.042
 4475SOL    HW214325   1.021   3.808   2.087
 4476SOL     OW14326   5.558   1.564   3.919
 4476SOL    HW114327   5.501   1.522   3.849
 4476SOL    HW214328   5.517   1.650   3.948
 4477SOL     OW14329   2.360   0.413   5.864
 4477SOL    HW114330   2.316   0.357   5.934
 4477SOL    HW214331   2.422   0.479   5.907
 4478SOL     OW14332   1.612   0.097   0.365
 4478SOL    HW114333   1.570   0.139   0.445
 4478SOL    HW214334   1.545   0.095   0.290
 4479SOL     OW14335   0.940   2.973   0.545
 4479SOL    HW114336   0.909   2.950   0.637
 4479SOL    HW214337   0.899   2.910   0.479
 4480SOL     OW14338   6.767   5.998   4.121
 4480SOL    HW114339   6.690   5.970   4.064
 4480SOL    HW214340   6.765   5.947   4.207
 4481SOL     OW14341   2.890   4.920   6.167
 4481SOL    HW114342   2.817   4.877   6.219
 4481SOL    HW214343   2.957   4.961   6.229
 4482SOL     OW14344   3.072   5.273   6.696
 4482SOL    HW114345   3.035   5.180   6.703
 4482SOL    HW214346   3.156   5.271   6.642
 4483SOL     OW14347   0.363   2.826   1.738
 4483SOL    HW114348   0.408   2.749   1.783
 4483SOL    HW214349   0.369   2.907   1.797
 4484SOL     OW14350   2.500   2.679   6.578
 4484SOL    HW114351   2.457   2.588   6.580
 4484SOL    HW214352   2.435   2.747   6.612
 4485SOL     OW14353   5.281   2.512   4.448
 4485SOL    HW114354   5.368   2.475   4.413
 4485SOL    HW214355   5.299   2.596   4.498
 4486SOL     OW14356   4.961   4.998   5.052
 4486SOL    HW114357   4.991   4.915   5.099
 4486SOL    HW214358   4.889   4.975   4.986
 4487SOL     OW14359   1.578   2.504   6.794
 4487SOL    HW114360   1.626   2.592   6.792
 4487SOL    HW214361   1.560   2.473   6.701
 4488SOL     OW14362   0.475   4.669   4.411
 4488SOL    HW114363   0.466   4.737   4.483
 4488SOL    HW214364   0.423   4.587   4.436
 4489SOL     OW14365   4.756   5.124   5.443
 4489SOL    HW114366   4.828   5.145   5.377
 4489SOL    HW214367   4.669   5.163   5.411
 4490SOL     OW14368   5.228   1.785   0.970
 4490SOL    HW114369   5.312   1.836   0.950
 4490SOL    HW214370   5.158   1.848   1.006
 4491SOL     OW14371   1.156   2.690   3.457
 4491SOL    HW114372   1.237   2.734   3.421
 4491SOL    HW214373   1.141   2.603   3.410
 4492SOL     OW14374   5.745   0.247   1.735
 4492SOL    HW114375   5.737   0.291   1.825
 4492SOL    HW214376   5.797   0.306   1.673
 4493SOL     OW14377   5.213   0.915   5.050
 4493SOL    HW114378   5.135   0.876   5.101
 4493SOL    HW214379   5.283   0.946   5.115
 4494SOL     OW14380   6.938   0.283   0.177
 4494SOL    HW114381   6.932   0.183   0.189
 4494SOL    HW214382   6.891   0.309   0.092
 4495SOL     OW14383   3.888   5.976   2.104
 4495SOL    HW114384   3.802   5.928   2.094
 4495SOL    HW214385   3.964   5.913   2.090
 4496SOL     OW14386   3.774   6.001   6.441
 4496SOL    HW114387   3.759   5.946   6.359
 4496SOL    HW214388   3.687   6.041   6.471
 4497SOL     OW14389   3.805   1.884   6.309
 4497SOL    HW114390   3.854   1.820   6.368
 4497SOL    HW214391   3.839   1.977   6.324
 4498SOL     OW14392   0.340   5.143   5.723
 4498SOL    HW114393   0.365   5.226   5.771
 4498SOL    HW214394   0.247   5.152   5.686
 4499SOL     OW14395   6.137   1.861   2.516
 4499SOL    HW114396   6.226   1.816   2.518
 4499SOL    HW214397   6.112   1.888   2.608
 4500SOL     OW14398   3.309   5.191   0.281
 4500SOL    HW114399   3.253   5.231   0.209
 4500SOL    HW214400   3.329   5.259   0.351
 4501SOL     OW14401   5.577   1.488   2.238
 4501SOL    HW114402   5.483   1.476   2.207
 4501SOL    HW214403   5.589   1.444   2.327
 4502SOL     OW14404   0.639   3.210   6.735
 4502SOL    HW114405   0.683   3.186   6.649
 4502SOL    HW214406   0.638   3.309   6.745
 4503SOL     OW14407   2.646   0.013   2.290
 4503SOL    HW114408   2.626   0.012   2.388
 4503SOL    HW214409   2.741   7.013   2.274
 4504SOL     OW14410   0.420   1.461   3.261
 4504SOL    HW114411   0.482   1.482   3.336
 4504SOL    HW214412   0.375   1.373   3.277
 4505SOL     OW14413   5.757   3.920   2.695
 4505SOL    HW114414   5.714   3.976   2.766
 4505SOL    HW214415   5.705   3.836   2.683
 4506SOL     OW14416   5.091   2.953   4.493
 4506SOL    HW114417   5.158   3.024   4.476
 4506SOL    HW214418   5.051   2.923   4.406
 4507SOL     OW14419   6.337   3.129   3.532
 4507SOL    HW114420   6.407   3.079   3.481
 4507SOL    HW214421   6.355   3.227   3.526
 4508SOL     OW14422   0.762   5.039   0.733
 4508SOL    HW114423   0.826   4.963   0.748
 4508SOL    HW214424   0.680   5.024   0.787
 4509SOL     OW14425   4.583   2.239   2.365
 4509SOL    HW114426   4.675   2.200   2.364
 4509SOL    HW214427   4.560   2.275   2.275
 4510SOL     OW14428   5.017   1.546   4.511
 4510SOL    HW114429   4.949   1.610   4.546
 4510SOL    HW214430   5.063   1.586   4.431
 4511SOL     OW14431   0.370   4.670   1.209
 4511SOL    HW114432   0.275   4.647   1.228
 4511SOL    HW214433   0.375   4.755   1.158
 4512SOL     OW14434   3.477   2.197   5.982
 4512SOL    HW114435   3.502   2.220   5.888
 4512SOL    HW214436   3.543   2.132   6.019
 4513SOL     OW14437   1.571   6.412   7.006
 4513SOL    HW114438   1.572   6.327   0.032
 4513SOL    HW214439   1.654   6.417   6.951
 4514SOL     OW14440   3.378   3.631   6.376
 4514SOL    HW114441   3.406   3.644   6.471
 4514SOL    HW214442   3.351   3.718   6.336
 4515SOL     OW14443   4.921   0.072   5.565
 4515SOL    HW114444   4.870   0.074   5.652
 4515SOL    HW214445   4.856   0.075   5.489
 4516SOL     OW14446   3.838   1.791   5.406
 4516SOL    HW114447   3.864   1.719   5.471
 4516SOL    HW214448   3.868   1.880   5.440
 4517SOL     OW14449   4.044   0.468   6.003
 4517SOL    HW114450   4.049   0.427   6.094
 4517SOL    HW214451   4.027   0.566   6.011
 4518SOL     OW14452   1.736   0.128   0.687
 4518SOL    HW114453   1.702   0.040   0.720
 4518SOL    HW214454   1.782   0.176   0.761
 4519SOL     OW14455   5.458   6.509   6.630
 4519SOL    HW114456   5.375   6.565   6.628
 4519SOL    HW214457   5.446   6.434   6.694
 4520SOL     OW14458   4.079   6.661   5.064
 4520SOL    HW114459   4.144   6.700   4.999
 4520SOL    HW214460   4.031   6.585   5.022
 4521SOL     OW14461   4.889   3.105   4.842
 4521SOL    HW114462   4.861   3.012   4.868
 4521SOL    HW214463   4.897   3.162   4.923
 4522SOL     OW14464   4.977   3.469   3.688
 4522SOL    HW114465   5.024   3.412   3.755
 4522SOL    HW214466   4.888   3.429   3.665
 4523SOL     OW14467   0.697   3.259   6.216
 4523SOL    HW114468   0.786   3.298   6.194
 4523SOL    HW214469   0.706   3.199   6.296
 4524SOL     OW14470   0.580   3.253   2.993
 4524SOL    HW114471   0.588   3.299   3.081
 4524SOL    HW214472   0.486   3.222   2.980
 4525SOL     OW14473   1.979   2.326   5.791
 4525SOL    HW114474   1.974   2.425   5.775
 4525SOL    HW214475   2.060   2.289   5.746
 4526SOL     OW14476   0.631   0.077   5.923
 4526SOL    HW114477   0.628   0.005   5.854
 4526SOL    HW214478   0.615   0.036   6.013
 4527SOL     OW14479   6.026   0.068   3.442
 4527SOL    HW114480   5.964   0.125   3.388
 4527SOL    HW214481   5.973   7.024   3.488
 4528SOL     OW14482   3.705   0.777   5.604
 4528SOL    HW114483   3.676   0.864   5.645
 4528SOL    HW214484   3.655   0.702   5.647
 4529SOL     OW14485   3.101   0.957   5.717
 4529SOL    HW114486   3.049   0.932   5.799
 4529SOL    HW214487   3.099   1.056   5.705
 4530SOL     OW14488   2.546   6.122   5.123
 4530SOL    HW114489   2.485   6.046   5.146
 4530SOL    HW214490   2.629   6.117   5.178
 4531SOL     OW14491   0.916   5.304   6.064
 4531SOL    HW114492   0.989   5.248   6.102
 4531SOL    HW214493   0.876   5.361   6.135
 4532SOL     OW14494   5.614   0.835   2.808
 4532SOL    HW114495   5.600   0.738   2.786
 4532SOL    HW214496   5.697   0.844   2.863
 4533SOL     OW14497   2.416   0.560   1.988
 4533SOL    HW114498   2.446   0.648   1.953
 4533SOL    HW214499   2.462   0.487   1.938
 4534SOL     OW14500   4.474   1.522   3.993
 4534SOL    HW114501   4.537   1.598   3.980
 4534SOL    HW214502   4.411   1.544   4.068
 4535SOL     OW14503   2.975   1.415   0.494
 4535SOL    HW114504   2.943   1.337   0.439
 4535SOL    HW214505   2.898   1.475   0.515
 4536SOL     OW14506   2.825   1.387   6.198
 4536SOL    HW114507   2.885   1.413   6.122
 4536SOL    HW214508   2.878   1.338   6.267
 4537SOL     OW14509   3.557   4.161   4.106
 4537SOL    HW114510   3.475   4.211   4.131
 4537SOL    HW214511   3.554   4.138   4.008
 4538SOL     OW14512   6.895   2.306   0.953
 4538SOL    HW114513   6.974   2.365   0.971
 4538SOL    HW214514   6.833   2.307   1.032
 4539SOL     OW14515   1.079   5.619   6.129
 4539SOL    HW114516   0.995   5.567   6.146
 4539SOL    HW214517   1.068   5.713   6.162
 4540SOL     OW14518   0.101   1.305   0.619
 4540SOL    HW114519   0.019   1.345   0.577
 4540SOL    HW214520   0.079   1.267   0.708
 4541SOL     OW14521   4.131   2.082   5.712
 4541SOL    HW114522   4.154   2.175   5.738
 4541SOL    HW214523   4.196   2.018   5.754
 4542SOL     OW14524   0.472   2.912   1.112
 4542SOL    HW114525   0.499   2.954   1.199
 4542SOL    HW214526   0.375   2.929   1.096
 4543SOL     OW14527   3.524   1.949   6.984
 4543SOL    HW114528   3.568   1.873   0.004
 4543SOL    HW214529   3.434   1.966   7.023
 4544SOL     OW14530   5.822   5.445   0.599
 4544SOL    HW114531   5.797   5.437   0.696
 4544SOL    HW214532   5.748   5.411   0.542
 4545SOL     OW14533   1.923   3.166   5.159
 4545SOL    HW114534   1.972   3.121   5.085
 4545SOL    HW214535   1.987   3.217   5.217
 4546SOL     OW14536   2.368   1.366   6.681
 4546SOL    HW114537   2.396   1.439   6.743
 4546SOL    HW214538   2.330   1.290   6.734
 4547SOL     OW14539   6.437   0.213   0.136
 4547SOL    HW114540   6.526   0.251   0.164
 4547SOL    HW214541   6.364   0.273   0.170
 4548SOL     OW14542   2.013   3.105   3.121
 4548SOL    HW114543   2.034   3.041   3.195
 4548SOL    HW214544   2.033   3.198   3.151
 4549SOL     OW14545   5.726   3.813   3.060
 4549SOL    HW114546   5.649   3.831   3.121
 4549SOL    HW214547   5.767   3.900   3.032
 4550SOL     OW14548   0.805   4.597   2.904
 4550SOL    HW114549   0.866   4.519   2.896
 4550SOL    HW214550   0.803   4.628   3.000
 4551SOL     OW14551   0.989   3.502   4.942
 4551SOL    HW114552   1.006   3.510   5.040
 4551SOL    HW214553   0.935   3.420   4.925
 4552SOL     OW14554   5.704   1.104   1.340
 4552SOL    HW114555   5.633   1.129   1.406
 4552SOL    HW214556   5.777   1.173   1.343
 4553SOL     OW14557   5.560   5.121   5.955
 4553SOL    HW114558   5.491   5.137   6.027
 4553SOL    HW214559   5.642   5.083   5.997
 4554SOL     OW14560   0.932   6.346   1.869
 4554SOL    HW114561   0.951   6.353   1.967
 4554SOL    HW214562   0.969   6.426   1.822
 4555SOL     OW14563   0.548   1.256   6.837
 4555SOL    HW114564   0.539   1.156   6.836
 4555SOL    HW214565   0.621   1.283   6.900
 4556SOL     OW14566   6.027   3.306   5.975
 4556SOL    HW114567   5.966   3.275   6.047
 4556SOL    HW214568   5.993   3.392   5.936
 4557SOL     OW14569   6.281   4.902   3.244
 4557SOL    HW114570   6.276   4.926   3.341
 4557SOL    HW214571   6.322   4.977   3.192
 4558SOL     OW14572   0.029   3.216   5.218
 4558SOL    HW114573   7.016   3.162   5.144
 4558SOL    HW214574   0.021   3.166   5.304
 4559SOL     OW14575   0.604   2.955   2.566
 4559SOL    HW114576   0.679   2.960   2.501
 4559SOL    HW214577   0.629   2.893   2.640
 4560SOL     OW14578   5.716   4.635   2.613
 4560SOL    HW114579   5.744   4.570   2.542
 4560SOL    HW214580   5.770   4.620   2.695
 4561SOL     OW14581   3.937   2.185   4.584
 4561SOL    HW114582   3.977   2.158   4.497
 4561SOL    HW214583   4.007   2.231   4.640
 4562SOL     OW14584   2.421   0.801   0.988
 4562SOL    HW114585   2.360   0.726   0.961
 4562SOL    HW214586   2.366   0.879   1.019
 4563SOL     OW14587   0.318   3.130   1.469
 4563SOL    HW114588   0.250   3.193   1.431
 4563SOL    HW214589   0.381   3.181   1.528
 4564SOL     OW14590   6.903   4.216   2.049
 4564SOL    HW114591   6.995   4.198   2.014
 4564SOL    HW214592   6.858   4.130   2.072
 4565SOL     OW14593   1.971   6.537   5.216
 4565SOL    HW114594   1.947   6.447   5.180
 4565SOL    HW214595   2.048   6.527   5.280
 4566SOL     OW14596   6.579   4.562   1.737
 4566SOL    HW114597   6.613   4.537   1.646
 4566SOL    HW214598   6.574   4.480   1.794
 4567SOL     OW14599   0.195   0.369   6.255
 4567SOL    HW114600   0.153   0.418   6.332
 4567SOL    HW214601   0.289   0.400   6.243
 4568SOL     OW14602   0.476   5.398   3.583
 4568SOL    HW114603   0.543   5.375   3.655
 4568SOL    HW214604   0.384   5.376   3.616
 4569SOL     OW14605   2.805   1.256   2.867
 4569SOL    HW114606   2.740   1.194   2.911
 4569SOL    HW214607   2.816   1.231   2.771
 4570SOL     OW14608   6.408   5.369   1.720
 4570SOL    HW114609   6.495   5.354   1.767
 4570SOL    HW214610   6.341   5.302   1.751
 4571SOL     OW14611   3.516   3.161   6.457
 4571SOL    HW114612   3.428   3.155   6.504
 4571SOL    HW214613   3.566   3.076   6.467
 4572SOL     OW14614   2.557   3.346   0.982
 4572SOL    HW114615   2.632   3.293   0.944
 4572SOL    HW214616   2.568   3.442   0.956
 4573SOL     OW14617   1.673   6.305   1.215
 4573SOL    HW114618   1.574   6.297   1.220
 4573SOL    HW214619   1.708   6.249   1.139
 4574SOL     OW14620   5.976   3.168   0.572
 4574SOL    HW114621   6.061   3.117   0.561
 4574SOL    HW214622   5.996   3.258   0.611
 4575SOL     OW14623   6.494   0.562   4.157
 4575SOL    HW114624   6.588   0.587   4.179
 4575SOL    HW214625   6.438   0.567   4.240
 4576SOL     OW14626   2.663   5.072   5.232
 4576SOL    HW114627   2.593   5.093   5.301
 4576SOL    HW214628   2.633   5.107   5.143
 4577SOL     OW14629   1.936   1.562   2.787
 4577SOL    HW114630   1.865   1.616   2.741
 4577SOL    HW214631   1.957   1.481   2.731
 4578SOL     OW14632   1.156   0.985   2.048
 4578SOL    HW114633   1.248   0.978   2.086
 4578SOL    HW214634   1.114   0.894   2.047
 4579SOL     OW14635   4.009   0.445   2.226
 4579SOL    HW114636   4.064   0.528   2.217
 4579SOL    HW214637   4.062   0.375   2.273
 4580SOL     OW14638   6.452   2.855   0.444
 4580SOL    HW114639   6.545   2.877   0.417
 4580SOL    HW214640   6.416   2.784   0.383
 4581SOL     OW14641   3.463   6.992   1.829
 4581SOL    HW114642   3.387   0.003   1.777
 4581SOL    HW214643   3.541   6.976   1.769
 4582SOL     OW14644   6.054   0.718   2.672
 4582SOL    HW114645   6.046   0.626   2.709
 4582SOL    HW214646   5.968   0.745   2.630
 4583SOL     OW14647   2.036   0.018   6.681
 4583SOL    HW114648   1.986   0.103   6.667
 4583SOL    HW214649   2.114   0.034   6.741
 4584SOL     OW14650   1.423   0.487   5.725
 4584SOL    HW114651   1.337   0.533   5.704
 4584SOL    HW214652   1.452   0.510   5.818
 4585SOL     OW14653   0.931   3.940   3.156
 4585SOL    HW114654   0.906   3.859   3.104
 4585SOL    HW214655   1.025   3.966   3.134
 4586SOL     OW14656   5.373   4.547   6.752
 4586SOL    HW114657   5.422   4.523   6.836
 4586SOL    HW214658   5.277   4.520   6.762
 4587SOL     OW14659   2.970   3.895   4.412
 4587SOL    HW114660   2.982   3.975   4.471
 4587SOL    HW214661   2.920   3.824   4.462
 4588SOL     OW14662   2.474   4.182   5.857
 4588SOL    HW114663   2.444   4.239   5.933
 4588SOL    HW214664   2.539   4.114   5.889
 4589SOL     OW14665   5.091   6.638   2.388
 4589SOL    HW114666   5.061   6.697   2.314
 4589SOL    HW214667   5.010   6.602   2.436
 4590SOL     OW14668   3.233   5.316   2.036
 4590SOL    HW114669   3.150   5.355   1.998
 4590SOL    HW214670   3.295   5.389   2.066
 4591SOL     OW14671   2.163   0.365   5.391
 4591SOL    HW114672   2.141   0.394   5.484
 4591SOL    HW214673   2.228   0.288   5.394
 4592SOL     OW14674   2.497   1.526   4.361
 4592SOL    HW114675   2.470   1.621   4.373
 4592SOL    HW214676   2.442   1.468   4.421
 4593SOL     OW14677   0.614   5.888   4.470
 4593SOL    HW114678   0.618   5.791   4.494
 4593SOL    HW214679   0.556   5.900   4.389
 4594SOL     OW14680   2.121   0.346   2.560
 4594SOL    HW114681   2.153   0.354   2.466
 4594SOL    HW214682   2.199   0.338   2.622
 4595SOL     OW14683   4.787   1.916   6.136
 4595SOL    HW114684   4.793   1.820   6.110
 4595SOL    HW214685   4.876   1.959   6.124
 4596SOL     OW14686   1.030   1.195   2.173
 4596SOL    HW114687   1.067   1.190   2.265
 4596SOL    HW214688   1.068   1.120   2.118
 4597SOL     OW14689   3.012   5.799   6.921
 4597SOL    HW114690   2.981   5.749   6.840
 4597SOL    HW214691   3.093   5.753   6.959
 4598SOL     OW14692   2.214   5.502   6.812
 4598SOL    HW114693   2.218   5.596   6.779
 4598SOL    HW214694   2.182   5.501   6.907
 4599SOL     OW14695   1.644   5.057   2.910
 4599SOL    HW114696   1.624   5.055   3.008
 4599SOL    HW214697   1.558   5.047   2.859
 4600SOL     OW14698   6.752   6.465   5.580
 4600SOL    HW114699   6.703   6.389   5.537
 4600SOL    HW214700   6.768   6.444   5.676
 4601SOL     OW14701   1.062   1.247   4.427
 4601SOL    HW114702   1.065   1.191   4.344
 4601SOL    HW214703   1.088   1.341   4.405
 4602SOL     OW14704   3.152   1.387   7.016
 4602SOL    HW114705   3.178   1.347   6.928
 4602SOL    HW214706   3.054   1.404   7.016
 4603SOL     OW14707   4.563   5.841   0.976
 4603SOL    HW114708   4.559   5.865   1.073
 4603SOL    HW214709   4.590   5.746   0.966
 4604SOL     OW14710   5.596   0.157   5.952
 4604SOL    HW114711   5.595   0.180   6.049
 4604SOL    HW214712   5.684   0.185   5.912
 4605SOL     OW14713   3.144   6.895   2.194
 4605SOL    HW114714   3.120   6.871   2.100
 4605SOL    HW214715   3.242   6.884   2.207
 4606SOL     OW14716   6.831   6.567   3.218
 4606SOL    HW114717   6.771   6.488   3.230
 4606SOL    HW214718   6.776   6.650   3.209
 4607SOL     OW14719   1.863   3.008   2.355
 4607SOL    HW114720   1.828   2.925   2.399
 4607SOL    HW214721   1.833   3.088   2.406
 4608SOL     OW14722   0.033   3.731   4.893
 4608SOL    HW114723   6.970   3.732   4.852
 4608SOL    HW214724   0.029   3.686   4.982
 4609SOL     OW14725   4.399   6.291   6.527
 4609SOL    HW114726   4.495   6.318   6.529
 4609SOL    HW214727   4.368   6.284   6.432
 4610SOL     OW14728   5.161   2.329   0.746
 4610SOL    HW114729   5.177   2.277   0.830
 4610SOL    HW214730   5.246   2.374   0.718
 4611SOL     OW14731   0.842   0.117   5.742
 4611SOL    HW114732   0.882   0.207   5.725
 4611SOL    HW214733   0.798   0.116   5.832
 4612SOL     OW14734   1.796   6.465   2.112
 4612SOL    HW114735   1.731   6.488   2.040
 4612SOL    HW214736   1.790   6.531   2.186
 4613SOL     OW14737   1.711   5.194   1.727
 4613SOL    HW114738   1.714   5.288   1.692
 4613SOL    HW214739   1.678   5.195   1.821
 4614SOL     OW14740   6.815   3.739   4.775
 4614SOL    HW114741   6.811   3.744   4.675
 4614SOL    HW214742   6.767   3.817   4.814
 4615SOL     OW14743   1.284   1.967   1.110
 4615SOL    HW114744   1.366   1.909   1.116
 4615SOL    HW214745   1.304   2.056   1.151
 4616SOL     OW14746   6.423   3.185   4.559
 4616SOL    HW114747   6.513   3.228   4.570
 4616SOL    HW214748   6.375   3.185   4.646
 4617SOL     OW14749   0.408   2.171   2.595
 4617SOL    HW114750   0.469   2.215   2.662
 4617SOL    HW214751   0.435   2.199   2.503
 4618SOL     OW14752   2.624   4.326   5.627
 4618SOL    HW114753   2.570   4.242   5.635
 4618SOL    HW214754   2.710   4.306   5.580
 4619SOL     OW14755   3.432   6.132   5.172
 4619SOL    HW114756   3.479   6.203   5.121
 4619SOL    HW214757   3.341   6.117   5.133
 4620SOL     OW14758   0.856   5.706   2.597
 4620SOL    HW114759   0.802   5.763   2.535
 4620SOL    HW214760   0.944   5.684   2.555
 4621SOL     OW14761   5.195   0.376   2.280
 4621SOL    HW114762   5.241   0.464   2.282
 4621SOL    HW214763   5.116   0.380   2.219
 4622SOL     OW14764   4.542   5.886   1.273
 4622SOL    HW114765   4.638   5.866   1.254
 4622SOL    HW214766   4.523   5.870   1.370
 4623SOL     OW14767   3.020   4.909   1.202
 4623SOL    HW114768   2.947   4.857   1.246
 4623SOL    HW214769   2.997   4.923   1.106
 4624SOL     OW14770   4.076   0.928   3.185
 4624SOL    HW114771   3.977   0.922   3.194
 4624SOL    HW214772   4.107   0.859   3.119
 4625SOL     OW14773   1.915   5.385   1.871
 4625SOL    HW114774   1.892   5.407   1.966
 4625SOL    HW214775   1.869   5.450   1.810
 4626SOL     OW14776   3.982   3.969   1.605
 4626SOL    HW114777   3.890   4.005   1.618
 4626SOL    HW214778   4.026   4.016   1.529
 4627SOL     OW14779   6.633   6.641   4.627
 4627SOL    HW114780   6.691   6.722   4.628
 4627SOL    HW214781   6.688   6.561   4.602
 4628SOL     OW14782   5.079   5.309   3.375
 4628SOL    HW114783   5.004   5.243   3.374
 4628SOL    HW214784   5.137   5.294   3.295
 4629SOL     OW14785   2.153   5.776   6.685
 4629SOL    HW114786   2.053   5.771   6.693
 4629SOL    HW214787   2.189   5.830   6.761
 4630SOL     OW14788   1.878   4.041   1.794
 4630SOL    HW114789   1.809   4.094   1.844
 4630SOL    HW214790   1.834   3.963   1.750
 4631SOL     OW14791   0.333   0.676   3.816
 4631SOL    HW114792   0.236   0.695   3.833
 4631SOL    HW214793   0.356   0.700   3.722
 4632SOL     OW14794   3.541   4.872   2.717
 4632SOL    HW114795   3.479   4.858   2.639
 4632SOL    HW214796   3.489   4.866   2.802
 4633SOL     OW14797   5.244   1.617   3.805
 4633SOL    HW114798   5.296   1.658   3.880
 4633SOL    HW214799   5.232   1.520   3.823
 4634SOL     OW14800   3.314   3.425   4.586
 4634SOL    HW114801   3.320   3.522   4.561
 4634SOL    HW214802   3.237   3.412   4.648
 4635SOL     OW14803   5.263   5.678   0.642
 4635SOL    HW114804   5.341   5.617   0.630
 4635SOL    HW214805   5.205   5.675   0.561
 4636SOL     OW14806   1.962   5.918   0.098
 4636SOL    HW114807   2.043   5.926   0.039
 4636SOL    HW214808   1.971   5.836   0.155
 4637SOL     OW14809   1.743   0.127   2.391
 4637SOL    HW114810   1.778   0.201   2.334
 4637SOL    HW214811   1.696   0.059   2.333
 4638SOL     OW14812   3.924   5.141   0.504
 4638SOL    HW114813   4.004   5.201   0.501
 4638SOL    HW214814   3.917   5.091   0.418
 4639SOL     OW14815   1.698   1.968   0.658
 4639SOL    HW114816   1.707   1.869   0.669
 4639SOL    HW214817   1.735   1.995   0.569
 4640SOL     OW14818   6.737   2.920   5.501
 4640SOL    HW114819   6.703   2.945   5.591
 4640SOL    HW214820   6.694   2.835   5.471
 4641SOL     OW14821   0.533   5.397   4.171
 4641SOL    HW114822   0.529   5.374   4.074
 4641SOL    HW214823   0.528   5.313   4.225
 4642SOL     OW14824   0.915   1.622   3.567
 4642SOL    HW114825   0.965   1.566   3.633
 4642SOL    HW214826   0.974   1.695   3.534
 4643SOL     OW14827   0.287   1.969   6.683
 4643SOL    HW114828   0.306   2.058   6.726
 4643SOL    HW214829   0.373   1.926   6.655
 4644SOL     OW14830   1.771   0.810   0.766
 4644SOL    HW114831   1.818   0.823   0.678
 4644SOL    HW214832   1.825   0.749   0.824
 4645SOL     OW14833   1.688   1.063   3.341
 4645SOL    HW114834   1.775   1.087   3.297
 4645SOL    HW214835   1.617   1.127   3.312
 4646SOL     OW14836   2.141   5.392   3.923
 4646SOL    HW114837   2.146   5.336   3.841
 4646SOL    HW214838   2.138   5.334   4.004
 4647SOL     OW14839   1.817   6.769   3.068
 4647SOL    HW114840   1.721   6.743   3.058
 4647SOL    HW214841   1.854   6.791   2.978
 4648SOL     OW14842   2.964   1.471   4.476
 4648SOL    HW114843   2.939   1.545   4.414
 4648SOL    HW214844   2.881   1.428   4.512
 4649SOL     OW14845   5.801   0.540   0.365
 4649SOL    HW114846   5.712   0.510   0.402
 4649SOL    HW214847   5.861   0.461   0.355
 4650SOL     OW14848   5.466   6.548   1.587
 4650SOL    HW114849   5.554   6.577   1.549
 4650SOL    HW214850   5.396   6.614   1.561
 4651SOL     OW14851   5.929   3.054   5.881
 4651SOL    HW114852   5.903   2.988   5.951
 4651SOL    HW214853   5.972   3.133   5.924
 4652SOL     OW14854   0.079   6.331   4.298
 4652SOL    HW114855   0.012   6.382   4.350
 4652SOL    HW214856   0.065   6.348   4.200
 4653SOL     OW14857   5.343   5.914   0.946
 4653SOL    HW114858   5.276   5.914   0.872
 4653SOL    HW214859   5.377   5.821   0.960
 4654SOL     OW14860   0.319   6.515   5.179
 4654SOL    HW114861   0.253   6.445   5.206
 4654SOL    HW214862   0.411   6.478   5.185
 4655SOL     OW14863   4.581   2.714   0.966
 4655SOL    HW114864   4.489   2.673   0.971
 4655SOL    HW214865   4.636   2.681   1.043
 4656SOL     OW14866   0.879   1.268   1.491
 4656SOL    HW114867   0.851   1.199   1.558
 4656SOL    HW214868   0.969   1.244   1.455
 4657SOL     OW14869   5.031   6.942   1.949
 4657SOL    HW114870   5.080   0.001   1.964
 4657SOL    HW214871   5.038   6.916   1.853
 4658SOL     OW14872   2.662   2.365   5.334
 4658SOL    HW114873   2.608   2.446   5.355
 4658SOL    HW214874   2.758   2.382   5.356
 4659SOL     OW14875   3.511   4.751   0.991
 4659SOL    HW114876   3.452   4.673   0.967
 4659SOL    HW214877   3.474   4.834   0.949
 4660SOL     OW14878   1.050   6.326   4.141
 4660SOL    HW114879   1.072   6.234   4.110
 4660SOL    HW214880   1.134   6.375   4.163
 4661SOL     OW14881   1.972   3.338   5.998
 4661SOL    HW114882   2.020   3.342   5.910
 4661SOL    HW214883   2.035   3.362   6.072
 4662SOL     OW14884   2.582   6.452   4.712
 4662SOL    HW114885   2.532   6.456   4.798
 4662SOL    HW214886   2.634   6.367   4.707
 4663SOL     OW14887   0.942   0.015   0.072
 4663SOL    HW114888   0.883   0.079   0.122
 4663SOL    HW214889   0.887   6.986   0.012
 4664SOL     OW14890   6.334   6.463   0.506
 4664SOL    HW114891   6.287   6.543   0.467
 4664SOL    HW214892   6.269   6.412   0.563
 4665SOL     OW14893   2.374   0.791   4.848
 4665SOL    HW114894   2.278   0.761   4.855
 4665SOL    HW214895   2.387   0.874   4.904
 4666SOL     OW14896   1.775   1.883   5.725
 4666SOL    HW114897   1.822   1.892   5.637
 4666SOL    HW214898   1.840   1.899   5.799
 4667SOL     OW14899   6.689   3.874   1.539
 4667SOL    HW114900   6.600   3.911   1.566
 4667SOL    HW214901   6.761   3.941   1.557
 4668SOL     OW14902   4.452   2.487   4.754
 4668SOL    HW114903   4.453   2.394   4.793
 4668SOL    HW214904   4.443   2.554   4.828
 4669SOL     OW14905   5.558   0.190   0.302
 4669SOL    HW114906   5.461   0.198   0.283
 4669SOL    HW214907   5.585   0.094   0.300
 4670SOL     OW14908   0.694   3.623   0.795
 4670SOL    HW114909   0.778   3.676   0.803
 4670SOL    HW214910   0.624   3.679   0.751
 4671SOL     OW14911   0.307   3.635   0.153
 4671SOL    HW114912   0.303   3.646   0.053
 4671SOL    HW214913   0.218   3.655   0.193
 4672SOL     OW14914   3.234   4.151   5.595
 4672SOL    HW114915   3.251   4.079   5.528
 4672SOL    HW214916   3.143   4.141   5.634
 4673SOL     OW14917   5.871   0.516   6.702
 4673SOL    HW114918   5.961   0.536   6.742
 4673SOL    HW214919   5.800   0.531   6.772
 4674SOL     OW14920   0.701   1.877   0.323
 4674SOL    HW114921   0.723   1.780   0.312
 4674SOL    HW214922   0.684   1.897   0.420
 4675SOL     OW14923   3.109   6.109   0.399
 4675SOL    HW114924   3.138   6.194   0.354
 4675SOL    HW214925   3.063   6.050   0.332
 4676SOL     OW14926   0.774   6.155   3.766
 4676SOL    HW114927   0.840   6.080   3.764
 4676SOL    HW214928   0.690   6.124   3.810
 4677SOL     OW14929   4.360   0.658   6.115
 4677SOL    HW114930   4.451   0.699   6.126
 4677SOL    HW214931   4.348   0.586   6.183
 4678SOL     OW14932   2.041   4.797   0.296
 4678SOL    HW114933   2.056   4.698   0.298
 4678SOL    HW214934   2.123   4.842   0.259
 4679SOL     OW14935   2.771   0.721   6.213
 4679SOL    HW114936   2.791   0.626   6.190
 4679SOL    HW214937   2.691   0.725   6.273
 4680SOL     OW14938   1.686   5.264   0.493
 4680SOL    HW114939   1.659   5.171   0.470
 4680SOL    HW214940   1.638   5.328   0.434
 4681SOL     OW14941   6.995   5.062   5.842
 4681SOL    HW114942   7.011   5.113   5.927
 4681SOL    HW214943   0.010   5.111   5.766
 4682SOL     OW14944   3.595   6.307   0.441
 4682SOL    HW114945   3.611   6.321   0.343
 4682SOL    HW214946   3.669   6.251   0.479
 4683SOL     OW14947   5.894   3.946   2.309
 4683SOL    HW114948   5.840   4.029   2.294
 4683SOL    HW214949   5.849   3.889   2.378
 4684SOL     OW14950   1.658   1.876   4.459
 4684SOL    HW114951   1.678   1.971   4.481
 4684SOL    HW214952   1.740   1.832   4.424
 4685SOL     OW14953   5.090   5.229   4.555
 4685SOL    HW114954   5.184   5.254   4.578
 4685SOL    HW214955   5.084   5.130   4.547
 4686SOL     OW14956   4.786   5.240   6.517
 4686SOL    HW114957   4.847   5.300   6.570
 4686SOL    HW214958   4.839   5.192   6.447
 4687SOL     OW14959   5.882   4.746   5.041
 4687SOL    HW114960   5.850   4.802   4.964
 4687SOL    HW214961   5.846   4.653   5.032
 4688SOL     OW14962   0.648   3.094   6.977
 4688SOL    HW114963   0.665   3.169   6.913
 4688SOL    HW214964   0.577   3.121   0.015
 4689SOL     OW14965   7.003   6.158   4.609
 4689SOL    HW114966   0.019   6.086   4.663
 4689SOL    HW214967   7.005   6.244   4.661
 4690SOL     OW14968   1.740   1.121   0.247
 4690SOL    HW114969   1.754   1.217   0.270
 4690SOL    HW214970   1.669   1.114   0.176
 4691SOL     OW14971   2.573   4.892   0.823
 4691SOL    HW114972   2.527   4.940   0.898
 4691SOL    HW214973   2.642   4.830   0.861
 4692SOL     OW14974   7.015   5.246   3.351
 4692SOL    HW114975   7.023   5.220   3.448
 4692SOL    HW214976   0.013   5.342   3.340
 4693SOL     OW14977   0.634   1.250   4.341
 4693SOL    HW114978   0.678   1.173   4.296
 4693SOL    HW214979   0.684   1.274   4.424
 4694SOL     OW14980   1.587   1.374   0.605
 4694SOL    HW114981   1.528   1.297   0.626
 4694SOL    HW214982   1.535   1.459   0.610
 4695SOL     OW14983   3.942   2.975   2.230
 4695SOL    HW114984   3.996   2.891   2.221
 4695SOL    HW214985   3.942   3.023   2.142
 4696SOL     OW14986   6.809   3.026   6.154
 4696SOL    HW114987   6.891   3.017   6.097
 4696SOL    HW214988   6.811   2.957   6.226
 4697SOL     OW14989   1.177   4.401   7.012
 4697SOL    HW114990   1.081   4.424   6.993
 4697SOL    HW214991   1.185   4.363   0.077
 4698SOL     OW14992   5.705   3.726   1.088
 4698SOL    HW114993   5.765   3.792   1.133
 4698SOL    HW214994   5.748   3.636   1.088
 4699SOL     OW14995   0.186   0.827   2.541
 4699SOL    HW114996   0.183   0.730   2.518
 4699SOL    HW214997   0.148   0.840   2.633
 4700SOL     OW14998   4.632   1.205   0.946
 4700SOL    HW114999   4.645   1.153   0.862
 4700SOL    HW215000   4.647   1.145   1.025
 4701SOL     OW15001   0.574   1.355   0.113
 4701SOL    HW115002   0.625   1.393   0.036
 4701SOL    HW215003   0.494   1.305   0.079
 4702SOL     OW15004   3.547   3.695   0.183
 4702SOL    HW115005   3.624   3.631   0.192
 4702SOL    HW215006   3.510   3.715   0.274
 4703SOL     OW15007   1.962   0.769   2.562
 4703SOL    HW115008   1.997   0.827   2.635
 4703SOL    HW215009   1.987   0.808   2.473
 4704SOL     OW15010   6.969   6.768   0.644
 4704SOL    HW115011   6.942   6.701   0.712
 4704SOL    HW215012   6.995   6.853   0.690
 4705SOL     OW15013   3.544   3.522   4.009
 4705SOL    HW115014   3.497   3.566   3.933
 4705SOL    HW215015   3.480   3.504   4.083
 4706SOL     OW15016   4.124   6.503   6.764
 4706SOL    HW115017   4.220   6.475   6.771
 4706SOL    HW215018   4.101   6.564   6.839
 4707SOL     OW15019   2.067   5.516   1.183
 4707SOL    HW115020   1.986   5.532   1.239
 4707SOL    HW215021   2.068   5.420   1.154
 4708SOL     OW15022   2.757   2.709   1.256
 4708SOL    HW115023   2.729   2.782   1.319
 4708SOL    HW215024   2.684   2.691   1.191
 4709SOL     OW15025   3.853   5.188   5.126
 4709SOL    HW115026   3.812   5.277   5.149
 4709SOL    HW215027   3.945   5.202   5.088
 4710SOL     OW15028   4.478   1.328   6.697
 4710SOL    HW115029   4.405   1.322   6.629
 4710SOL    HW215030   4.566   1.320   6.651
 4711SOL     OW15031   3.650   6.966   2.588
 4711SOL    HW115032   3.678   6.913   2.668
 4711SOL    HW215033   3.583   0.008   2.615
 4712SOL     OW15034   1.876   4.638   0.673
 4712SOL    HW115035   1.886   4.725   0.625
 4712SOL    HW215036   1.826   4.653   0.758
 4713SOL     OW15037   2.027   5.216   1.116
 4713SOL    HW115038   2.032   5.144   1.046
 4713SOL    HW215039   1.969   5.185   1.191
 4714SOL     OW15040   3.255   1.979   1.615
 4714SOL    HW115041   3.226   1.903   1.557
 4714SOL    HW215042   3.353   1.995   1.603
 4715SOL     OW15043   0.085   2.486   2.982
 4715SOL    HW115044   0.125   2.511   3.070
 4715SOL    HW215045   7.018   2.454   2.995
 4716SOL     OW15046   3.530   5.578   0.416
 4716SOL    HW115047   3.555   5.546   0.325
 4716SOL    HW215048   3.611   5.580   0.474
 4717SOL     OW15049   1.210   6.021   3.380
 4717SOL    HW115050   1.272   5.946   3.355
 4717SOL    HW215051   1.241   6.105   3.337
 4718SOL     OW15052   6.040   1.267   6.345
 4718SOL    HW115053   6.022   1.365   6.341
 4718SOL    HW215054   5.955   1.217   6.324
 4719SOL     OW15055   5.296   3.335   1.812
 4719SOL    HW115056   5.365   3.371   1.875
 4719SOL    HW215057   5.247   3.411   1.769
 4720SOL     OW15058   2.367   0.295   5.633
 4720SOL    HW115059   2.368   0.354   5.713
 4720SOL    HW215060   2.279   0.247   5.628
 4721SOL     OW15061   1.957   1.815   1.062
 4721SOL    HW115062   1.889   1.888   1.052
 4721SOL    HW215063   1.954   1.780   1.155
 4722SOL     OW15064   1.620   6.823   0.109
 4722SOL    HW115065   1.709   6.866   0.097
 4722SOL    HW215066   1.554   6.891   0.141
 4723SOL     OW15067   2.725   6.767   6.606
 4723SOL    HW115068   2.673   6.851   6.622
 4723SOL    HW215069   2.803   6.762   6.668
 4724SOL     OW15070   3.641   6.539   1.780
 4724SOL    HW115071   3.705   6.615   1.776
 4724SOL    HW215072   3.593   6.540   1.868
 4725SOL     OW15073   5.896   6.383   3.490
 4725SOL    HW115074   5.865   6.441   3.415
 4725SOL    HW215075   5.833   6.391   3.567
 4726SOL     OW15076   1.040   4.214   6.699
 4726SOL    HW115077   0.954   4.227   6.749
 4726SOL    HW215078   1.111   4.271   6.740
 4727SOL     OW15079   6.803   5.606   6.740
 4727SOL    HW115080   6.902   5.607   6.752
 4727SOL    HW215081   6.767   5.700   6.749
 4728SOL     OW15082   0.297   0.870   6.544
 4728SOL    HW115083   0.214   0.909   6.505
 4728SOL    HW215084   0.284   0.854   6.642
 4729SOL     OW15085   3.609   0.190   2.265
 4729SOL    HW115086   3.510   0.195   2.261
 4729SOL    HW215087   3.644   0.153   2.179
 4730SOL     OW15088   2.015   6.230   5.510
 4730SOL    HW115089   2.018   6.148   5.567
 4730SOL    HW215090   1.925   6.273   5.518
 4731SOL     OW15091   5.987   1.158   4.799
 4731SOL    HW115092   6.018   1.116   4.714
 4731SOL    HW215093   6.002   1.257   4.795
 4732SOL     OW15094   0.086   3.123   6.977
 4732SOL    HW115095   0.146   3.164   0.018
 4732SOL    HW215096   0.089   3.177   6.892
 4733SOL     OW15097   6.938   4.238   3.462
 4733SOL    HW115098   6.996   4.306   3.505
 4733SOL    HW215099   6.994   4.171   3.413
 4734SOL     OW15100   4.228   3.755   6.553
 4734SOL    HW115101   4.171   3.832   6.524
 4734SOL    HW215102   4.258   3.703   6.473
 4735SOL     OW15103   0.989   4.972   3.550
 4735SOL    HW115104   1.040   4.897   3.591
 4735SOL    HW215105   0.937   5.021   3.620
 4736SOL     OW15106   0.852   0.851   0.130
 4736SOL    HW115107   0.932   0.799   0.099
 4736SOL    HW215108   0.881   0.939   0.166
 4737SOL     OW15109   2.247   4.914   1.983
 4737SOL    HW115110   2.316   4.883   1.917
 4737SOL    HW215111   2.241   4.848   2.058
 4738SOL     OW15112   0.037   6.826   1.978
 4738SOL    HW115113   6.976   6.800   2.016
 4738SOL    HW215114   0.099   6.851   2.053
 4739SOL     OW15115   4.676   0.503   2.299
 4739SOL    HW115116   4.727   0.424   2.333
 4739SOL    HW215117   4.595   0.471   2.250
 4740SOL     OW15118   1.352   2.063   2.816
 4740SOL    HW115119   1.396   2.018   2.738
 4740SOL    HW215120   1.373   2.161   2.814
 4741SOL     OW15121   4.466   3.406   1.577
 4741SOL    HW115122   4.487   3.310   1.556
 4741SOL    HW215123   4.547   3.462   1.560
 4742SOL     OW15124   2.919   6.926   0.498
 4742SOL    HW115125   3.013   6.943   0.529
 4742SOL    HW215126   2.874   6.864   0.562
 4743SOL     OW15127   2.414   5.063   1.001
 4743SOL    HW115128   2.396   5.161   0.990
 4743SOL    HW215129   2.328   5.013   0.994
 4744SOL     OW15130   1.582   6.949   0.789
 4744SOL    HW115131   1.640   6.871   0.815
 4744SOL    HW215132   1.486   6.925   0.805
 4745SOL     OW15133   1.585   4.267   0.280
 4745SOL    HW115134   1.545   4.312   0.360
 4745SOL    HW215135   1.554   4.172   0.277
 4746SOL     OW15136   4.653   5.774   4.491
 4746SOL    HW115137   4.719   5.701   4.474
 4746SOL    HW215138   4.664   5.808   4.585
 4747SOL     OW15139   1.528   2.235   0.999
 4747SOL    HW115140   1.437   2.262   1.032
 4747SOL    HW215141   1.598   2.285   1.050
 4748SOL     OW15142   1.938   6.858   3.280
 4748SOL    HW115143   1.884   6.823   3.203
 4748SOL    HW215144   2.034   6.859   3.254
 4749SOL     OW15145   2.098   0.011   0.099
 4749SOL    HW115146   2.134   7.023   0.191
 4749SOL    HW215147   2.109   0.107   0.074
 4750SOL     OW15148   5.540   3.184   5.648
 4750SOL    HW115149   5.507   3.148   5.735
 4750SOL    HW215150   5.605   3.119   5.608
 4751SOL     OW15151   4.702   0.886   2.919
 4751SOL    HW115152   4.766   0.963   2.914
 4751SOL    HW215153   4.608   0.920   2.912
 4752SOL     OW15154   4.695   2.059   0.078
 4752SOL    HW115155   4.616   2.008   0.112
 4752SOL    HW215156   4.737   2.009   0.002
 4753SOL     OW15157   2.867   6.554   5.170
 4753SOL    HW115158   2.895   6.497   5.247
 4753SOL    HW215159   2.781   6.601   5.193
 4754SOL     OW15160   4.384   4.719   6.509
 4754SOL    HW115161   4.382   4.633   6.458
 4754SOL    HW215162   4.364   4.795   6.446
 4755SOL     OW15163   1.067   0.736   1.397
 4755SOL    HW115164   1.002   0.789   1.343
 4755SOL    HW215165   1.131   0.688   1.337
 4756SOL     OW15166   6.344   4.001   6.553
 4756SOL    HW115167   6.343   4.100   6.571
 4756SOL    HW215168   6.389   3.954   6.629
 4757SOL     OW15169   1.660   3.721   1.494
 4757SOL    HW115170   1.715   3.699   1.575
 4757SOL    HW215171   1.685   3.812   1.460
 4758SOL     OW15172   1.761   6.980   3.485
 4758SOL    HW115173   1.848   6.963   3.438
 4758SOL    HW215174   1.744   6.906   3.551
 4759SOL     OW15175   1.269   5.037   1.247
 4759SOL    HW115176   1.267   4.945   1.209
 4759SOL    HW215177   1.195   5.048   1.314
 4760SOL     OW15178   1.454   6.288   0.619
 4760SOL    HW115179   1.502   6.371   0.648
 4760SOL    HW215180   1.406   6.305   0.533
 4761SOL     OW15181   6.741   6.853   1.245
 4761SOL    HW115182   6.824   6.810   1.210
 4761SOL    HW215183   6.685   6.784   1.292
 4762SOL     OW15184   2.126   5.991   2.167
 4762SOL    HW115185   2.124   6.084   2.132
 4762SOL    HW215186   2.151   5.928   2.093
 4763SOL     OW15187   4.601   5.758   1.972
 4763SOL    HW115188   4.589   5.788   1.878
 4763SOL    HW215189   4.699   5.749   1.992
 4764SOL     OW15190   3.940   3.837   5.993
 4764SOL    HW115191   4.031   3.851   5.954
 4764SOL    HW215192   3.922   3.909   6.061
 4765SOL     OW15193   3.638   1.613   4.957
 4765SOL    HW115194   3.635   1.660   5.045
 4765SOL    HW215195   3.544   1.601   4.922
 4766SOL     OW15196   0.085   6.754   4.044
 4766SOL    HW115197   0.155   6.683   4.043
 4766SOL    HW215198   0.010   6.728   3.983
 4767SOL     OW15199   2.021   4.767   5.156
 4767SOL    HW115200   2.005   4.865   5.138
 4767SOL    HW215201   2.088   4.757   5.229
 4768SOL     OW15202   4.312   1.962   0.308
 4768SOL    HW115203   4.257   1.951   0.390
 4768SOL    HW215204   4.254   1.952   0.227
 4769SOL     OW15205   2.996   5.303   1.862
 4769SOL    HW115206   2.943   5.222   1.840
 4769SOL    HW215207   3.053   5.328   1.784
 4770SOL     OW15208   0.397   1.094   5.334
 4770SOL    HW115209   0.411   0.996   5.325
 4770SOL    HW215210   0.342   1.113   5.415
 4771SOL     OW15211   2.181   6.568   5.391
 4771SOL    HW115212   2.249   6.600   5.325
 4771SOL    HW215213   2.221   6.498   5.449
 4772SOL     OW15214   2.329   6.198   1.575
 4772SOL    HW115215   2.401   6.189   1.507
 4772SOL    HW215216   2.335   6.123   1.640
 4773SOL     OW15217   2.240   5.098   5.291
 4773SOL    HW115218   2.227   5.181   5.236
 4773SOL    HW215219   2.246   5.124   5.387
 4774SOL     OW15220   1.515   4.039   0.366
 4774SOL    HW115221   1.423   4.034   0.327
 4774SOL    HW215222   1.518   3.985   0.450
 4775SOL     OW15223   6.222   6.513   4.884
 4775SOL    HW115224   6.213   6.427   4.934
 4775SOL    HW215225   6.189   6.501   4.790
 4776SOL     OW15226   0.898   0.956   5.970
 4776SOL    HW115227   0.868   0.896   6.044
 4776SOL    HW215228   0.823   0.967   5.904
 4777SOL     OW15229   0.981   6.149   1.423
 4777SOL    HW115230   0.955   6.177   1.515
 4777SOL    HW215231   1.075   6.115   1.422
 4778SOL     OW15232   1.699   2.778   5.658
 4778SOL    HW115233   1.723   2.787   5.561
 4778SOL    HW215234   1.724   2.862   5.707
 4779SOL     OW15235   5.192   1.119   3.722
 4779SOL    HW115236   5.122   1.163   3.780
 4779SOL    HW215237   5.173   1.138   3.626
 4780SOL     OW15238   6.345   2.707   4.975
 4780SOL    HW115239   6.372   2.794   4.934
 4780SOL    HW215240   6.379   2.632   4.917
 4781SOL     OW15241   2.378   6.238   3.027
 4781SOL    HW115242   2.408   6.318   2.975
 4781SOL    HW215243   2.419   6.155   2.988
 4782SOL     OW15244   6.060   5.551   4.410
 4782SOL    HW115245   5.994   5.627   4.411
 4782SOL    HW215246   6.140   5.577   4.357
 4783SOL     OW15247   6.689   3.151   1.303
 4783SOL    HW115248   6.607   3.199   1.334
 4783SOL    HW215249   6.704   3.069   1.359
 4784SOL     OW15250   4.929   2.324   6.101
 4784SOL    HW115251   5.013   2.344   6.153
 4784SOL    HW215252   4.860   2.393   6.122
 4785SOL     OW15253   0.292   5.584   4.180
 4785SOL    HW115254   0.384   5.551   4.202
 4785SOL    HW215255   0.245   5.611   4.264
 4786SOL     OW15256   2.460   6.266   0.497
 4786SOL    HW115257   2.392   6.334   0.525
 4786SOL    HW215258   2.415   6.196   0.441
 4787SOL     OW15259   3.149   0.993   4.536
 4787SOL    HW115260   3.173   1.035   4.623
 4787SOL    HW215261   3.164   1.059   4.462
 4788SOL     OW15262   5.935   6.488   6.569
 4788SOL    HW115263   5.956   6.541   6.651
 4788SOL    HW215264   5.984   6.526   6.491
 4789SOL     OW15265   5.391   0.745   2.550
 4789SOL    HW115266   5.465   0.691   2.590
 4789SOL    HW215267   5.328   0.773   2.622
 4790SOL     OW15268   6.302   2.009   4.839
 4790SOL    HW115269   6.253   1.926   4.811
 4790SOL    HW215270   6.252   2.090   4.808
 4791SOL     OW15271   0.068   1.663   0.091
 4791SOL    HW115272   0.133   1.705   0.028
 4791SOL    HW215273   0.112   1.589   0.141
 4792SOL     OW15274   2.128   3.620   3.432
 4792SOL    HW115275   2.122   3.644   3.529
 4792SOL    HW215276   2.125   3.520   3.423
 4793SOL     OW15277   0.761   3.582   5.731
 4793SOL    HW115278   0.768   3.681   5.720
 4793SOL    HW215279   0.851   3.545   5.754
 4794SOL     OW15280   4.591   0.788   3.811
 4794SOL    HW115281   4.566   0.699   3.774
 4794SOL    HW215282   4.658   0.832   3.751
 4795SOL     OW15283   0.816   0.958   5.213
 4795SOL    HW115284   0.732   0.929   5.166
 4795SOL    HW215285   0.827   0.906   5.297
 4796SOL     OW15286   3.908   1.342   5.332
 4796SOL    HW115287   3.845   1.310   5.262
 4796SOL    HW215288   3.875   1.429   5.369
 4797SOL     OW15289   0.960   5.782   4.705
 4797SOL    HW115290   1.034   5.754   4.645
 4797SOL    HW215291   0.964   5.729   4.790
 4798SOL     OW15292   4.378   4.501   6.317
 4798SOL    HW115293   4.305   4.441   6.284
 4798SOL    HW215294   4.467   4.459   6.297
 4799SOL     OW15295   3.406   2.712   6.460
 4799SOL    HW115296   3.445   2.621   6.478
 4799SOL    HW215297   3.377   2.753   6.545
 4800SOL     OW15298   0.964   5.011   0.434
 4800SOL    HW115299   0.928   4.924   0.400
 4800SOL    HW215300   0.915   5.086   0.390
 4801SOL     OW15301   4.919   2.697   1.708
 4801SOL    HW115302   4.938   2.779   1.762
 4801SOL    HW215303   4.829   2.706   1.665
 4802SOL     OW15304   6.985   6.964   2.513
 4802SOL    HW115305   6.921   7.025   2.467
 4802SOL    HW215306   6.934   6.898   2.568
 4803SOL     OW15307   5.624   3.849   6.105
 4803SOL    HW115308   5.605   3.789   6.183
 4803SOL    HW215309   5.561   3.827   6.030
 4804SOL     OW15310   5.436   1.312   0.629
 4804SOL    HW115311   5.528   1.342   0.604
 4804SOL    HW215312   5.412   1.230   0.577
 4805SOL     OW15313   6.215   1.991   0.845
 4805SOL    HW115314   6.211   1.927   0.768
 4805SOL    HW215315   6.293   2.052   0.833
 4806SOL     OW15316   1.101   0.816   3.355
 4806SOL    HW115317   1.002   0.805   3.346
 4806SOL    HW215318   1.148   0.744   3.304
 4807SOL     OW15319   1.064   2.947   6.100
 4807SOL    HW115320   1.089   2.871   6.041
 4807SOL    HW215321   1.045   2.913   6.192
 4808SOL     OW15322   3.909   5.696   0.413
 4808SOL    HW115323   3.998   5.668   0.447
 4808SOL    HW215324   3.837   5.663   0.474
 4809SOL     OW15325   3.642   4.959   1.798
 4809SOL    HW115326   3.611   4.902   1.873
 4809SOL    HW215327   3.596   5.048   1.802
 4810SOL     OW15328   0.620   3.961   3.692
 4810SOL    HW115329   0.658   3.872   3.668
 4810SOL    HW215330   0.569   3.998   3.615
 4811SOL     OW15331   2.891   3.651   4.666
 4811SOL    HW115332   2.902   3.621   4.572
 4811SOL    HW215333   2.796   3.643   4.694
 4812SOL     OW15334   0.291   0.148   2.390
 4812SOL    HW115335   0.358   0.222   2.400
 4812SOL    HW215336   0.261   0.119   2.481
 4813SOL     OW15337   6.419   1.491   6.220
 4813SOL    HW115338   6.327   1.479   6.183
 4813SOL    HW215339   6.414   1.492   6.320
 4814SOL     OW15340   6.687   4.164   1.473
 4814SOL    HW115341   6.706   4.173   1.571
 4814SOL    HW215342   6.597   4.123   1.460
 4815SOL     OW15343   5.208   5.222   2.728
 4815SOL    HW115344   5.174   5.128   2.723
 4815SOL    HW215345   5.134   5.284   2.750
 4816SOL     OW15346   1.872   0.317   2.177
 4816SOL    HW115347   1.910   0.270   2.097
 4816SOL    HW215348   1.941   0.378   2.216
 4817SOL     OW15349   4.276   1.203   0.967
 4817SOL    HW115350   4.253   1.228   0.873
 4817SOL    HW215351   4.358   1.147   0.968
 4818SOL     OW15352   3.557   0.113   5.104
 4818SOL    HW115353   3.559   0.033   5.044
 4818SOL    HW215354   3.493   0.097   5.179
 4819SOL     OW15355   2.681   0.518   1.224
 4819SOL    HW115356   2.731   0.582   1.282
 4819SOL    HW215357   2.583   0.537   1.228
 4820SOL     OW15358   6.525   3.943   2.346
 4820SOL    HW115359   6.554   3.854   2.312
 4820SOL    HW215360   6.604   3.996   2.375
 4821SOL     OW15361   6.395   5.077   1.449
 4821SOL    HW115362   6.466   5.091   1.519
 4821SOL    HW215363   6.358   5.166   1.421
 4822SOL     OW15364   1.782   4.176   3.419
 4822SOL    HW115365   1.815   4.083   3.403
 4822SOL    HW215366   1.846   4.224   3.479
 4823SOL     OW15367   1.063   0.656   4.645
 4823SOL    HW115368   1.051   0.665   4.546
 4823SOL    HW215369   1.070   0.559   4.670
 4824SOL     OW15370   5.110   2.808   2.580
 4824SOL    HW115371   5.149   2.871   2.513
 4824SOL    HW215372   5.155   2.822   2.669
 4825SOL     OW15373   1.080   3.664   2.808
 4825SOL    HW115374   1.079   3.596   2.735
 4825SOL    HW215375   0.987   3.680   2.839
 4826SOL     OW15376   0.212   5.820   0.802
 4826SOL    HW115377   0.115   5.840   0.818
 4826SOL    HW215378   0.261   5.905   0.787
 4827SOL     OW15379   4.658   0.658   1.046
 4827SOL    HW115380   4.642   0.584   0.982
 4827SOL    HW215381   4.708   0.732   1.000
 4828SOL     OW15382   4.978   3.422   1.356
 4828SOL    HW115383   4.930   3.346   1.400
 4828SOL    HW215384   5.066   3.389   1.320
 4829SOL     OW15385   3.308   1.303   6.152
 4829SOL    HW115386   3.298   1.398   6.123
 4829SOL    HW215387   3.384   1.261   6.103
 4830SOL     OW15388   4.430   6.781   4.323
 4830SOL    HW115389   4.462   6.850   4.259
 4830SOL    HW215390   4.501   6.763   4.391
 4831SOL     OW15391   6.416   4.614   5.791
 4831SOL    HW115392   6.374   4.583   5.705
 4831SOL    HW215393   6.445   4.709   5.782
 4832SOL     OW15394   2.587   3.430   5.948
 4832SOL    HW115395   2.532   3.391   6.022
 4832SOL    HW215396   2.684   3.425   5.972
 4833SOL     OW15397   3.938   1.316   3.062
 4833SOL    HW115398   3.850   1.357   3.035
 4833SOL    HW215399   3.955   1.336   3.158
 4834SOL     OW15400   4.876   1.486   2.249
 4834SOL    HW115401   4.957   1.480   2.191
 4834SOL    HW215402   4.899   1.536   2.333
 4835SOL     OW15403   2.093   6.756   0.002
 4835SOL    HW115404   2.113   6.835   0.059
 4835SOL    HW215405   2.177   6.725   6.984
 4836SOL     OW15406   4.621   2.100   4.353
 4836SOL    HW115407   4.702   2.091   4.411
 4836SOL    HW215408   4.612   2.020   4.295
 4837SOL     OW15409   2.301   2.831   0.502
 4837SOL    HW115410   2.202   2.820   0.494
 4837SOL    HW215411   2.323   2.869   0.592
 4838SOL     OW15412   3.604   4.945   2.162
 4838SOL    HW115413   3.512   4.962   2.197
 4838SOL    HW215414   3.599   4.889   2.079
 4839SOL     OW15415   0.515   5.284   6.173
 4839SOL    HW115416   0.468   5.256   6.257
 4839SOL    HW215417   0.598   5.230   6.162
 4840SOL     OW15418   6.798   6.119   0.103
 4840SOL    HW115419   6.890   6.156   0.094
 4840SOL    HW215420   6.804   6.026   0.140
 4841SOL     OW15421   2.909   5.314   2.395
 4841SOL    HW115422   2.961   5.371   2.331
 4841SOL    HW215423   2.813   5.313   2.368
 4842SOL     OW15424   4.886   6.215   1.231
 4842SOL    HW115425   4.977   6.188   1.199
 4842SOL    HW215426   4.872   6.182   1.324
 4843SOL     OW15427   6.578   3.373   0.159
 4843SOL    HW115428   6.662   3.347   0.111
 4843SOL    HW215429   6.558   3.307   0.231
 4844SOL     OW15430   5.873   2.228   6.169
 4844SOL    HW115431   5.931   2.164   6.219
 4844SOL    HW215432   5.838   2.298   6.232
 4845SOL     OW15433   5.673   5.209   4.132
 4845SOL    HW115434   5.697   5.251   4.045
 4845SOL    HW215435   5.586   5.160   4.122
 4846SOL     OW15436   1.485   2.912   1.000
 4846SOL    HW115437   1.564   2.967   0.972
 4846SOL    HW215438   1.456   2.853   0.924
 4847SOL     OW15439   3.632   2.056   5.087
 4847SOL    HW115440   3.708   2.054   5.022
 4847SOL    HW215441   3.547   2.072   5.038
 4848SOL     OW15442   2.765   1.621   2.760
 4848SOL    HW115443   2.842   1.562   2.784
 4848SOL    HW215444   2.783   1.664   2.672
 4849SOL     OW15445   0.869   0.590   0.296
 4849SOL    HW115446   0.943   0.580   0.363
 4849SOL    HW215447   0.867   0.684   0.263
 4850SOL     OW15448   4.046   0.378   1.792
 4850SOL    HW115449   4.075   0.374   1.696
 4850SOL    HW215450   4.086   0.459   1.835
 4851SOL     OW15451   4.513   6.544   5.187
 4851SOL    HW115452   4.461   6.568   5.269
 4851SOL    HW215453   4.482   6.600   5.110
 4852SOL     OW15454   2.413   0.942   6.725
 4852SOL    HW115455   2.340   1.010   6.729
 4852SOL    HW215456   2.375   0.853   6.699
 4853SOL     OW15457   3.570   1.392   2.356
 4853SOL    HW115458   3.623   1.313   2.324
 4853SOL    HW215459   3.573   1.396   2.456
 4854SOL     OW15460   5.207   6.378   2.226
 4854SOL    HW115461   5.239   6.288   2.197
 4854SOL    HW215462   5.187   6.434   2.145
 4855SOL     OW15463   5.966   1.483   2.294
 4855SOL    HW115464   5.940   1.562   2.239
 4855SOL    HW215465   5.894   1.414   2.288
 4856SOL     OW15466   2.607   4.836   4.146
 4856SOL    HW115467   2.545   4.825   4.068
 4856SOL    HW215468   2.632   4.932   4.155
 4857SOL     OW15469   0.505   1.988   5.681
 4857SOL    HW115470   0.541   2.014   5.770
 4857SOL    HW215471   0.406   1.973   5.687
 4858SOL     OW15472   2.011   2.352   4.601
 4858SOL    HW115473   1.980   2.403   4.682
 4858SOL    HW215474   2.010   2.254   4.622
 4859SOL     OW15475   1.663   5.916   4.935
 4859SOL    HW115476   1.616   5.988   4.988
 4859SOL    HW215477   1.635   5.827   4.970
 4860SOL     OW15478   4.681   5.160   1.721
 4860SOL    HW115479   4.620   5.088   1.688
 4860SOL    HW215480   4.627   5.235   1.759
 4861SOL     OW15481   4.980   4.178   5.503
 4861SOL    HW115482   4.918   4.241   5.550
 4861SOL    HW215483   4.951   4.169   5.407
 4862SOL     OW15484   2.059   5.889   2.389
 4862SOL    HW115485   2.053   5.790   2.379
 4862SOL    HW215486   2.085   5.929   2.301
 4863SOL     OW15487   5.967   3.832   6.939
 4863SOL    HW115488   5.945   3.836   0.009
 4863SOL    HW215489   5.903   3.890   6.888
 4864SOL     OW15490   3.050   0.983   3.081
 4864SOL    HW115491   3.133   0.961   3.133
 4864SOL    HW215492   3.039   1.082   3.078
 4865SOL     OW15493   2.628   5.658   4.840
 4865SOL    HW115494   2.564   5.705   4.780
 4865SOL    HW215495   2.601   5.562   4.851
 4866SOL     OW15496   6.803   3.968   0.907
 4866SOL    HW115497   6.712   3.951   0.944
 4866SOL    HW215498   6.808   4.063   0.874
 4867SOL     OW15499   4.860   6.477   2.896
 4867SOL    HW115500   4.811   6.395   2.865
 4867SOL    HW215501   4.893   6.529   2.818
 4868SOL     OW15502   6.606   4.477   1.428
 4868SOL    HW115503   6.665   4.406   1.468
 4868SOL    HW215504   6.519   4.435   1.399
 4869SOL     OW15505   0.604   1.491   6.286
 4869SOL    HW115506   0.679   1.555   6.304
 4869SOL    HW215507   0.517   1.537   6.305
 4870SOL     OW15508   0.971   6.051   1.961
 4870SOL    HW115509   0.975   6.134   1.905
 4870SOL    HW215510   1.036   6.059   2.037
 4871SOL     OW15511   1.629   0.806   4.558
 4871SOL    HW115512   1.552   0.863   4.530
 4871SOL    HW215513   1.712   0.862   4.564
 4872SOL     OW15514   6.915   6.927   3.346
 4872SOL    HW115515   6.951   6.871   3.420
 4872SOL    HW215516   6.864   7.004   3.385
 4873SOL     OW15517   0.264   6.551   4.903
 4873SOL    HW115518   0.295   6.527   4.995
 4873SOL    HW215519   0.339   6.535   4.838
 4874SOL     OW15520   4.806   2.968   3.426
 4874SOL    HW115521   4.856   2.897   3.475
 4874SOL    HW215522   4.852   2.988   3.339
 4875SOL     OW15523   5.225   6.735   6.621
 4875SOL    HW115524   5.245   6.755   6.525
 4875SOL    HW215525   5.183   6.814   6.664
 4876SOL     OW15526   1.478   1.639   2.827
 4876SOL    HW115527   1.537   1.653   2.907
 4876SOL    HW215528   1.406   1.573   2.850
 4877SOL     OW15529   0.764   0.996   4.265
 4877SOL    HW115530   0.738   0.949   4.350
 4877SOL    HW215531   0.845   0.951   4.226
 4878SOL     OW15532   6.631   1.713   2.311
 4878SOL    HW115533   6.693   1.699   2.388
 4878SOL    HW215534   6.667   1.667   2.230
 4879SOL     OW15535   4.590   1.784   2.742
 4879SOL    HW115536   4.496   1.813   2.723
 4879SOL    HW215537   4.631   1.750   2.658
 4880SOL     OW15538   6.060   2.825   6.141
 4880SOL    HW115539   6.107   2.751   6.092
 4880SOL    HW215540   6.101   2.913   6.116
 4881SOL     OW15541   1.816   2.815   2.135
 4881SOL    HW115542   1.869   2.731   2.147
 4881SOL    HW215543   1.861   2.890   2.184
 4882SOL     OW15544   4.450   2.537   5.061
 4882SOL    HW115545   4.365   2.485   5.061
 4882SOL    HW215546   4.527   2.475   5.075
 4883SOL     OW15547   5.532   3.482   0.951
 4883SOL    HW115548   5.571   3.568   0.920
 4883SOL    HW215549   5.556   3.409   0.887
 4884SOL     OW15550   1.751   6.304   1.498
 4884SOL    HW115551   1.723   6.287   1.403
 4884SOL    HW215552   1.783   6.399   1.506
 4885SOL     OW15553   1.950   4.937   0.992
 4885SOL    HW115554   1.887   4.942   1.070
 4885SOL    HW215555   1.900   4.954   0.907
 4886SOL     OW15556   3.749   0.746   2.240
 4886SOL    HW115557   3.727   0.650   2.223
 4886SOL    HW215558   3.720   0.770   2.333
 4887SOL     OW15559   1.087   6.481   2.034
 4887SOL    HW115560   1.181   6.454   2.015
 4887SOL    HW215561   1.063   6.457   2.128
 4888SOL     OW15562   3.144   6.690   3.120
 4888SOL    HW115563   3.133   6.786   3.097
 4888SOL    HW215564   3.182   6.641   3.041
 4889SOL     OW15565   6.582   2.353   3.861
 4889SOL    HW115566   6.535   2.318   3.942
 4889SOL    HW215567   6.558   2.449   3.848
 4890SOL     OW15568   0.985   0.815   5.037
 4890SOL    HW115569   1.062   0.801   5.100
 4890SOL    HW215570   0.925   0.886   5.074
 4891SOL     OW15571   2.747   5.498   6.312
 4891SOL    HW115572   2.737   5.407   6.353
 4891SOL    HW215573   2.695   5.565   6.365
 4892SOL     OW15574   5.725   6.644   2.447
 4892SOL    HW115575   5.699   6.564   2.393
 4892SOL    HW215576   5.655   6.662   2.516
 4893SOL     OW15577   6.905   3.979   1.745
 4893SOL    HW115578   6.895   3.919   1.824
 4893SOL    HW215579   7.002   4.000   1.730
 4894SOL     OW15580   3.686   6.533   2.190
 4894SOL    HW115581   3.775   6.488   2.185
 4894SOL    HW215582   3.691   6.621   2.144
 4895SOL     OW15583   6.996   5.183   3.616
 4895SOL    HW115584   0.035   5.138   3.676
 4895SOL    HW215585   6.903   5.157   3.642
 4896SOL     OW15586   2.167   5.060   3.619
 4896SOL    HW115587   2.210   5.078   3.707
 4896SOL    HW215588   2.217   5.109   3.547
 4897SOL     OW15589   1.861   5.787   5.615
 4897SOL    HW115590   1.955   5.760   5.639
 4897SOL    HW215591   1.798   5.750   5.683
 4898SOL     OW15592   3.821   1.926   4.379
 4898SOL    HW115593   3.871   1.847   4.414
 4898SOL    HW215594   3.770   1.969   4.454
 4899SOL     OW15595   6.723   5.227   2.107
 4899SOL    HW115596   6.735   5.300   2.174
 4899SOL    HW215597   6.750   5.140   2.147
 4900SOL     OW15598   4.205   6.187   5.392
 4900SOL    HW115599   4.139   6.262   5.390
 4900SOL    HW215600   4.298   6.224   5.386
 4901SOL     OW15601   0.478   1.446   5.995
 4901SOL    HW115602   0.502   1.538   6.024
 4901SOL    HW215603   0.558   1.386   6.005
 4902SOL     OW15604   2.320   0.531   6.619
 4902SOL    HW115605   2.416   0.534   6.591
 4902SOL    HW215606   2.278   0.447   6.584
 4903SOL     OW15607   5.359   5.680   1.274
 4903SOL    HW115608   5.420   5.704   1.199
 4903SOL    HW215609   5.265   5.674   1.241
 4904SOL     OW15610   1.357   0.724   6.952
 4904SOL    HW115611   1.441   0.670   6.960
 4904SOL    HW215612   1.375   0.807   6.899
 4905SOL     OW15613   3.544   6.938   3.236
 4905SOL    HW115614   3.524   6.843   3.213
 4905SOL    HW215615   3.568   6.989   3.154
 4906SOL     OW15616   4.965   3.130   5.147
 4906SOL    HW115617   4.883   3.079   5.172
 4906SOL    HW215618   4.940   3.217   5.105
 4907SOL     OW15619   4.840   1.390   6.991
 4907SOL    HW115620   4.921   1.405   0.020
 4907SOL    HW215621   4.848   1.442   6.906
 4908SOL     OW15622   4.934   0.221   0.023
 4908SOL    HW115623   4.963   0.181   6.964
 4908SOL    HW215624   4.888   0.309   0.006
 4909SOL     OW15625   5.876   3.921   3.338
 4909SOL    HW115626   5.856   3.835   3.384
 4909SOL    HW215627   5.967   3.953   3.364
 4910SOL     OW15628   4.742   1.058   5.703
 4910SOL    HW115629   4.833   1.017   5.705
 4910SOL    HW215630   4.683   1.005   5.643
 4911SOL     OW15631   1.919   1.898   1.924
 4911SOL    HW115632   1.903   1.997   1.921
 4911SOL    HW215633   1.888   1.862   2.012
 4912SOL     OW15634   6.006   1.852   5.118
 4912SOL    HW115635   6.085   1.902   5.082
 4912SOL    HW215636   6.038   1.766   5.159
 4913SOL     OW15637   5.856   2.752   4.807
 4913SOL    HW115638   5.901   2.775   4.721
 4913SOL    HW215639   5.820   2.659   4.802
 4914SOL     OW15640   4.680   0.898   4.196
 4914SOL    HW115641   4.649   0.991   4.176
 4914SOL    HW215642   4.771   0.901   4.237
 4915SOL     OW15643   3.122   5.998   5.390
 4915SOL    HW115644   3.110   5.901   5.368
 4915SOL    HW215645   3.220   6.018   5.401
 4916SOL     OW15646   6.108   1.011   3.801
 4916SOL    HW115647   6.195   1.056   3.781
 4916SOL    HW215648   6.123   0.937   3.866
 4917SOL     OW15649   4.331   6.207   0.841
 4917SOL    HW115650   4.402   6.274   0.817
 4917SOL    HW215651   4.261   6.206   0.770
 4918SOL     OW15652   6.681   5.548   1.969
 4918SOL    HW115653   6.772   5.578   1.944
 4918SOL    HW215654   6.668   5.453   1.941
 4919SOL     OW15655   4.153   3.365   1.981
 4919SOL    HW115656   4.123   3.426   1.908
 4919SOL    HW215657   4.251   3.348   1.971
 4920SOL     OW15658   6.117   1.064   5.045
 4920SOL    HW115659   6.099   1.125   4.968
 4920SOL    HW215660   6.120   0.969   5.013
 4921SOL     OW15661   0.386   6.809   1.270
 4921SOL    HW115662   0.474   6.763   1.283
 4921SOL    HW215663   0.313   6.741   1.266
 4922SOL     OW15664   3.876   2.040   5.481
 4922SOL    HW115665   3.796   2.094   5.454
 4922SOL    HW215666   3.953   2.102   5.499
 4923SOL     OW15667   3.338   1.784   2.903
 4923SOL    HW115668   3.413   1.811   2.964
 4923SOL    HW215669   3.285   1.712   2.946
 4924SOL     OW15670   2.658   1.535   6.357
 4924SOL    HW115671   2.710   1.472   6.299
 4924SOL    HW215672   2.714   1.615   6.378
 4925SOL     OW15673   4.715   6.783   2.939
 4925SOL    HW115674   4.732   6.790   2.841
 4925SOL    HW215675   4.665   6.864   2.970
 4926SOL     OW15676   5.636   2.032   1.782
 4926SOL    HW115677   5.542   2.020   1.751
 4926SOL    HW215678   5.684   1.945   1.774
 4927SOL     OW15679   3.716   1.521   6.597
 4927SOL    HW115680   3.692   1.558   6.687
 4927SOL    HW215681   3.642   1.463   6.564
 4928SOL     OW15682   0.924   2.563   1.080
 4928SOL    HW115683   0.963   2.499   1.013
 4928SOL    HW215684   0.869   2.512   1.145
 4929SOL     OW15685   6.922   0.091   3.912
 4929SOL    HW115686   6.871   0.036   3.846
 4929SOL    HW215687   7.010   0.048   3.931
 4930SOL     OW15688   5.912   6.683   2.037
 4930SOL    HW115689   5.867   6.768   2.063
 4930SOL    HW215690   6.009   6.701   2.020
 4931SOL     OW15691   6.231   6.029   1.852
 4931SOL    HW115692   6.157   6.005   1.789
 4931SOL    HW215693   6.298   5.954   1.855
 4932SOL     OW15694   3.046   3.431   2.557
 4932SOL    HW115695   3.003   3.390   2.477
 4932SOL    HW215696   3.134   3.386   2.574
 4933SOL     OW15697   2.832   6.086   4.864
 4933SOL    HW115698   2.772   6.033   4.804
 4933SOL    HW215699   2.850   6.035   4.948
 4934SOL     OW15700   3.471   5.584   3.294
 4934SOL    HW115701   3.461   5.680   3.268
 4934SOL    HW215702   3.567   5.564   3.310
 4935SOL     OW15703   0.717   1.839   6.901
 4935SOL    HW115704   0.634   1.853   6.847
 4935SOL    HW215705   0.793   1.816   6.840
 4936SOL     OW15706   2.301   4.225   1.153
 4936SOL    HW115707   2.203   4.232   1.171
 4936SOL    HW215708   2.351   4.229   1.240
 4937SOL     OW15709   4.920   3.466   4.769
 4937SOL    HW115710   4.865   3.467   4.686
 4937SOL    HW215711   4.942   3.560   4.795
 4938SOL     OW15712   4.305   5.019   6.031
 4938SOL    HW115713   4.221   4.991   6.076
 4938SOL    HW215714   4.314   4.971   5.944
 4939SOL     OW15715   4.660   3.147   5.508
 4939SOL    HW115716   4.647   3.078   5.579
 4939SOL    HW215717   4.752   3.139   5.470
 4940SOL     OW15718   2.022   6.201   4.952
 4940SOL    HW115719   2.109   6.249   4.939
 4940SOL    HW215720   2.036   6.120   5.009
 4941SOL     OW15721   5.017   1.399   0.188
 4941SOL    HW115722   4.946   1.368   0.252
 4941SOL    HW215723   5.081   1.458   0.237
 4942SOL     OW15724   5.040   3.676   5.188
 4942SOL    HW115725   5.111   3.656   5.120
 4942SOL    HW215726   4.953   3.636   5.157
 4943SOL     OW15727   3.939   2.295   1.013
 4943SOL    HW115728   4.018   2.255   1.059
 4943SOL    HW215729   3.908   2.234   0.941
 4944SOL     OW15730   1.901   4.653   2.570
 4944SOL    HW115731   1.991   4.659   2.527
 4944SOL    HW215732   1.858   4.743   2.571
 4945SOL     OW15733   7.003   6.423   4.059
 4945SOL    HW115734   6.950   6.341   4.037
 4945SOL    HW215735   6.966   6.501   4.010
 4946SOL     OW15736   1.634   3.824   2.399
 4946SOL    HW115737   1.584   3.909   2.421
 4946SOL    HW215738   1.582   3.746   2.434
 4947SOL     OW15739   0.787   0.051   0.625
 4947SOL    HW115740   0.830   0.071   0.713
 4947SOL    HW215741   0.842   7.012   0.575
 4948SOL     OW15742   2.669   0.997   2.076
 4948SOL    HW115743   2.592   1.003   2.139
 4948SOL    HW215744   2.750   0.963   2.124
 4949SOL     OW15745   5.667   0.984   4.995
 4949SOL    HW115746   5.608   0.905   4.981
 4949SOL    HW215747   5.672   1.005   5.093
 4950SOL     OW15748   2.620   5.441   5.393
 4950SOL    HW115749   2.590   5.415   5.485
 4950SOL    HW215750   2.705   5.493   5.399
 4951SOL     OW15751   4.343   1.851   4.656
 4951SOL    HW115752   4.359   1.762   4.698
 4951SOL    HW215753   4.283   1.840   4.577
 4952SOL     OW15754   0.128   6.402   5.497
 4952SOL    HW115755   0.181   6.441   5.573
 4952SOL    HW215756   0.176   6.321   5.462
 4953SOL     OW15757   1.738   5.725   1.862
 4953SOL    HW115758   1.833   5.705   1.887
 4953SOL    HW215759   1.727   5.824   1.852
 4954SOL     OW15760   5.485   5.754   6.946
 4954SOL    HW115761   5.509   5.813   7.023
 4954SOL    HW215762   5.557   5.758   6.877
 4955SOL     OW15763   1.686   6.695   1.328
 4955SOL    HW115764   1.760   6.660   1.270
 4955SOL    HW215765   1.608   6.632   1.323
 4956SOL     OW15766   4.235   6.767   4.840
 4956SOL    HW115767   4.312   6.830   4.828
 4956SOL    HW215768   4.263   6.675   4.814
 4957SOL     OW15769   1.175   0.660   3.815
 4957SOL    HW115770   1.260   0.660   3.764
 4957SOL    HW215771   1.150   0.754   3.839
 4958SOL     OW15772   0.521   5.687   0.058
 4958SOL    HW115773   0.543   5.697   6.989
 4958SOL    HW215774   0.548   5.770   0.107
 4959SOL     OW15775   0.744   0.786   1.668
 4959SOL    HW115776   0.840   0.802   1.690
 4959SOL    HW215777   0.695   0.756   1.750
 4960SOL     OW15778   3.722   6.362   4.566
 4960SOL    HW115779   3.647   6.296   4.572
 4960SOL    HW215780   3.794   6.326   4.508
 4961SOL     OW15781   4.928   0.698   4.871
 4961SOL    HW115782   4.840   0.659   4.846
 4961SOL    HW215783   4.947   0.680   4.967
 4962SOL     OW15784   6.694   2.488   1.151
 4962SOL    HW115785   6.648   2.542   1.222
 4962SOL    HW215786   6.663   2.519   1.061
 4963SOL     OW15787   0.712   4.833   1.935
 4963SOL    HW115788   0.807   4.806   1.946
 4963SOL    HW215789   0.683   4.817   1.840
 4964SOL     OW15790   3.146   6.597   3.611
 4964SOL    HW115791   3.063   6.562   3.654
 4964SOL    HW215792   3.122   6.650   3.530
 4965SOL     OW15793   6.360   0.320   4.435
 4965SOL    HW115794   6.445   0.362   4.402
 4965SOL    HW215795   6.282   0.360   4.386
 4966SOL     OW15796   3.184   5.187   5.087
 4966SOL    HW115797   3.130   5.113   5.127
 4966SOL    HW215798   3.274   5.152   5.061
 4967SOL     OW15799   3.653   2.504   6.107
 4967SOL    HW115800   3.600   2.573   6.058
 4967SOL    HW215801   3.613   2.413   6.089
 4968SOL     OW15802   6.117   3.386   5.320
 4968SOL    HW115803   6.037   3.326   5.319
 4968SOL    HW215804   6.115   3.445   5.239
 4969SOL     OW15805   1.404   0.790   1.528
 4969SOL    HW115806   1.492   0.771   1.571
 4969SOL    HW215807   1.395   0.736   1.445
 4970SOL     OW15808   0.977   2.205   4.991
 4970SOL    HW115809   1.045   2.255   4.938
 4970SOL    HW215810   0.936   2.133   4.934
 4971SOL     OW15811   6.127   6.468   3.573
 4971SOL    HW115812   6.200   6.444   3.509
 4971SOL    HW215813   6.040   6.433   3.538
 4972SOL     OW15814   2.021   3.607   0.542
 4972SOL    HW115815   2.113   3.595   0.505
 4972SOL    HW215816   1.955   3.614   0.468
 4973SOL     OW15817   5.953   6.184   2.304
 4973SOL    HW115818   5.942   6.218   2.397
 4973SOL    HW215819   5.869   6.199   2.252
 4974SOL     OW15820   5.678   6.263   2.103
 4974SOL    HW115821   5.616   6.185   2.113
 4974SOL    HW215822   5.648   6.338   2.161
 4975SOL     OW15823   6.124   5.818   0.808
 4975SOL    HW115824   6.110   5.730   0.763
 4975SOL    HW215825   6.036   5.864   0.820
 4976SOL     OW15826   3.677   0.516   5.115
 4976SOL    HW115827   3.707   0.594   5.061
 4976SOL    HW215828   3.636   0.548   5.200
 4977SOL     OW15829   3.522   3.016   0.600
 4977SOL    HW115830   3.488   2.924   0.583
 4977SOL    HW215831   3.469   3.058   0.673
 4978SOL     OW15832   5.521   3.199   6.252
 4978SOL    HW115833   5.533   3.294   6.282
 4978SOL    HW215834   5.611   3.154   6.248
 4979SOL     OW15835   0.833   0.037   5.279
 4979SOL    HW115836   0.851   0.134   5.294
 4979SOL    HW215837   0.833   7.016   5.366
 4980SOL     OW15838   3.535   5.216   2.434
 4980SOL    HW115839   3.553   5.308   2.469
 4980SOL    HW215840   3.468   5.221   2.360
 4981SOL     OW15841   4.026   6.390   5.405
 4981SOL    HW115842   4.029   6.391   5.505
 4981SOL    HW215843   3.942   6.434   5.374
 4982SOL     OW15844   2.408   2.672   0.325
 4982SOL    HW115845   2.362   2.740   0.381
 4982SOL    HW215846   2.371   2.581   0.346
 4983SOL     OW15847   5.348   3.094   4.531
 4983SOL    HW115848   5.397   3.024   4.583
 4983SOL    HW215849   5.371   3.184   4.568
 4984SOL     OW15850   4.853   3.711   4.091
 4984SOL    HW115851   4.857   3.702   3.991
 4984SOL    HW215852   4.779   3.775   4.115
 4985SOL     OW15853   5.286   5.232   2.303
 4985SOL    HW115854   5.229   5.170   2.357
 4985SOL    HW215855   5.297   5.319   2.353
 4986SOL     OW15856   5.023   4.752   2.836
 4986SOL    HW115857   5.000   4.694   2.758
 4986SOL    HW215858   4.939   4.780   2.883
 4987SOL     OW15859   0.140   3.278   1.264
 4987SOL    HW115860   0.071   3.220   1.306
 4987SOL    HW215861   0.176   3.234   1.182
 4988SOL     OW15862   0.587   1.435   4.134
 4988SOL    HW115863   0.518   1.396   4.073
 4988SOL    HW215864   0.589   1.383   4.219
 4989SOL     OW15865   0.225   1.546   0.597
 4989SOL    HW115866   0.164   1.596   0.657
 4989SOL    HW215867   0.216   1.448   0.615
 4990SOL     OW15868   1.299   2.521   5.435
 4990SOL    HW115869   1.257   2.606   5.402
 4990SOL    HW215870   1.369   2.491   5.369
 4991SOL     OW15871   1.138   2.789   4.103
 4991SOL    HW115872   1.101   2.728   4.032
 4991SOL    HW215873   1.211   2.742   4.152
 4992SOL     OW15874   3.387   0.926   5.391
 4992SOL    HW115875   3.473   0.891   5.352
 4992SOL    HW215876   3.325   0.850   5.408
 4993SOL     OW15877   2.617   6.149   4.022
 4993SOL    HW115878   2.684   6.128   3.951
 4993SOL    HW215879   2.664   6.187   4.102
 4994SOL     OW15880   0.568   0.143   2.787
 4994SOL    HW115881   0.563   0.211   2.713
 4994SOL    HW215882   0.662   0.135   2.818
 4995SOL     OW15883   6.218   2.291   6.093
 4995SOL    HW115884   6.237   2.326   6.185
 4995SOL    HW215885   6.204   2.192   6.097
 4996SOL     OW15886   1.045   1.528   2.965
 4996SOL    HW115887   1.007   1.488   3.049
 4996SOL    HW215888   0.971   1.545   2.900
 4997SOL     OW15889   7.021   2.876   3.762
 4997SOL    HW115890   6.979   2.945   3.820
 4997SOL    HW215891   0.093   2.880   3.770
 4998SOL     OW15892   1.330   5.521   4.777
 4998SOL    HW115893   1.371   5.571   4.701
 4998SOL    HW215894   1.296   5.586   4.845
 4999SOL     OW15895   5.805   5.435   1.430
 4999SOL    HW115896   5.747   5.431   1.348
 4999SOL    HW215897   5.897   5.463   1.404
 5000SOL     OW15898   0.199   0.019   4.554
 5000SOL    HW115899   0.206   6.948   4.543
 5000SOL    HW215900   0.152   0.040   4.640
 5001SOL     OW15901   3.307   4.206   5.153
 5001SOL    HW115902   3.347   4.237   5.239
 5001SOL    HW215903   3.209   4.228   5.151
 5002SOL     OW15904   1.923   1.086   1.749
 5002SOL    HW115905   1.825   1.096   1.768
 5002SOL    HW215906   1.940   0.995   1.710
 5003SOL     OW15907   6.175   6.196   2.837
 5003SOL    HW115908   6.180   6.097   2.830
 5003SOL    HW215909   6.267   6.235   2.828
 5004SOL     OW15910   2.948   6.520   6.949
 5004SOL    HW115911   2.862   6.470   6.960
 5004SOL    HW215912   2.991   6.492   6.864
 5005SOL     OW15913   4.332   2.846   0.172
 5005SOL    HW115914   4.406   2.815   0.112
 5005SOL    HW215915   4.334   2.794   0.257
 5006SOL     OW15916   5.088   6.521   4.724
 5006SOL    HW115917   5.050   6.450   4.665
 5006SOL    HW215918   5.126   6.480   4.807
 5007SOL     OW15919   4.023   1.070   5.140
 5007SOL    HW115920   4.042   0.980   5.102
 5007SOL    HW215921   4.099   1.132   5.119
 5008SOL     OW15922   6.216   0.995   3.202
 5008SOL    HW115923   6.216   1.052   3.120
 5008SOL    HW215924   6.123   0.985   3.236
 5009SOL     OW15925   0.871   6.473   2.885
 5009SOL    HW115926   0.822   6.415   2.819
 5009SOL    HW215927   0.966   6.482   2.856
 5010SOL     OW15928   3.889   4.024   4.101
 5010SOL    HW115929   3.898   4.124   4.106
 5010SOL    HW215930   3.800   4.001   4.061
 5011SOL     OW15931   0.928   2.682   2.745
 5011SOL    HW115932   0.964   2.646   2.659
 5011SOL    HW215933   0.836   2.720   2.729
 5012SOL     OW15934   6.833   2.849   6.359
 5012SOL    HW115935   6.774   2.780   6.402
 5012SOL    HW215936   6.894   2.887   6.428
 5013SOL     OW15937   4.145   1.678   5.972
 5013SOL    HW115938   4.049   1.651   5.963
 5013SOL    HW215939   4.184   1.639   6.055
 5014SOL     OW15940   5.775   6.351   0.205
 5014SOL    HW115941   5.858   6.391   0.245
 5014SOL    HW215942   5.700   6.358   0.270
 5015SOL     OW15943   4.492   2.547   3.734
 5015SOL    HW115944   4.518   2.591   3.648
 5015SOL    HW215945   4.574   2.530   3.788
 5016SOL     OW15946   2.606   0.365   2.774
 5016SOL    HW115947   2.695   0.411   2.777
 5016SOL    HW215948   2.537   0.424   2.815
 5017SOL     OW15949   2.545   2.621   1.107
 5017SOL    HW115950   2.571   2.567   1.027
 5017SOL    HW215951   2.488   2.566   1.167
 5018SOL     OW15952   6.020   5.249   3.918
 5018SOL    HW115953   6.010   5.301   3.833
 5018SOL    HW215954   6.057   5.158   3.896
 5019SOL     OW15955   1.855   4.255   6.909
 5019SOL    HW115956   1.823   4.246   6.815
 5019SOL    HW215957   1.936   4.197   6.922
 5020SOL     OW15958   5.372   4.769   6.587
 5020SOL    HW115959   5.284   4.735   6.554
 5020SOL    HW215960   5.413   4.701   6.648
 5021SOL     OW15961   1.786   4.492   6.049
 5021SOL    HW115962   1.871   4.445   6.025
 5021SOL    HW215963   1.806   4.587   6.072
 5022SOL     OW15964   1.377   5.992   0.395
 5022SOL    HW115965   1.358   5.986   0.297
 5022SOL    HW215966   1.291   5.984   0.446
 5023SOL     OW15967   6.190   3.138   1.912
 5023SOL    HW115968   6.228   3.136   1.820
 5023SOL    HW215969   6.238   3.073   1.971
 5024SOL     OW15970   6.185   3.831   4.607
 5024SOL    HW115971   6.176   3.787   4.518
 5024SOL    HW215972   6.280   3.827   4.637
 5025SOL     OW15973   5.445   1.237   3.241
 5025SOL    HW115974   5.368   1.177   3.219
 5025SOL    HW215975   5.504   1.192   3.308
 5026SOL     OW15976   6.718   6.359   4.138
 5026SOL    HW115977   6.765   6.364   4.226
 5026SOL    HW215978   6.744   6.273   4.092
 5027SOL     OW15979   0.759   6.658   3.368
 5027SOL    HW115980   0.825   6.644   3.442
 5027SOL    HW215981   0.768   6.585   3.300
 5028SOL     OW15982   0.271   0.625   3.040
 5028SOL    HW115983   0.259   0.548   3.103
 5028SOL    HW215984   0.217   0.703   3.072
 5029SOL     OW15985   7.015   2.124   1.217
 5029SOL    HW115986   0.044   2.129   1.135
 5029SOL    HW215987   0.045   2.101   1.296
 5030SOL     OW15988   0.486   7.023   0.051
 5030SOL    HW115989   0.463   0.087   0.085
 5030SOL    HW215990   0.483   7.022   6.979
 5031SOL     OW15991   5.802   0.666   4.170
 5031SOL    HW115992   5.831   0.682   4.076
 5031SOL    HW215993   5.705   0.642   4.172
 5032SOL     OW15994   1.575   5.563   1.033
 5032SOL    HW115995   1.619   5.629   1.093
 5032SOL    HW215996   1.530   5.492   1.088
 5033SOL     OW15997   2.465   4.067   5.609
 5033SOL    HW115998   2.524   3.990   5.632
 5033SOL    HW215999   2.430   4.109   5.692
 5034SOL     OW16000   6.830   3.315   1.481
 5034SOL    HW116001   6.809   3.413   1.482
 5034SOL    HW216002   6.817   3.279   1.388
 5035SOL     OW16003   5.086   5.006   0.529
 5035SOL    HW116004   5.127   4.920   0.499
 5035SOL    HW216005   5.137   5.042   0.607
 5036SOL     OW16006   0.982   6.843   1.454
 5036SOL    HW116007   1.054   6.912   1.448
 5036SOL    HW216008   0.927   6.858   1.536
 5037SOL     OW16009   4.440   2.097   3.971
 5037SOL    HW116010   4.379   2.044   4.030
 5037SOL    HW216011   4.495   2.034   3.916
 5038SOL     OW16012   1.551   6.289   5.659
 5038SOL    HW116013   1.596   6.372   5.692
 5038SOL    HW216014   1.463   6.313   5.618
 5039SOL     OW16015   1.919   2.319   5.500
 5039SOL    HW116016   2.010   2.286   5.475
 5039SOL    HW216017   1.923   2.363   5.590
 5040SOL     OW16018   3.277   3.979   5.364
 5040SOL    HW116019   3.292   3.891   5.319
 5040SOL    HW216020   3.354   4.040   5.343
 5041SOL     OW16021   1.065   3.852   1.347
 5041SOL    HW116022   1.145   3.853   1.287
 5041SOL    HW216023   1.020   3.763   1.341
 5042SOL     OW16024   5.147   2.662   6.102
 5042SOL    HW116025   5.212   2.678   6.028
 5042SOL    HW216026   5.101   2.747   6.125
 5043SOL     OW16027   3.249   0.647   3.442
 5043SOL    HW116028   3.300   0.561   3.444
 5043SOL    HW216029   3.304   0.718   3.400
 5044SOL     OW16030   5.754   5.087   3.547
 5044SOL    HW116031   5.730   5.138   3.465
 5044SOL    HW216032   5.806   5.005   3.521
 5045SOL     OW16033   6.566   2.526   6.485
 5045SOL    HW116034   6.655   2.508   6.527
 5045SOL    HW216035   6.500   2.458   6.517
 5046SOL     OW16036   3.189   3.296   5.148
 5046SOL    HW116037   3.136   3.381   5.146
 5046SOL    HW216038   3.264   3.303   5.082
 5047SOL     OW16039   0.539   0.866   2.325
 5047SOL    HW116040   0.493   0.934   2.382
 5047SOL    HW216041   0.577   0.910   2.244
 5048SOL     OW16042   6.620   2.624   1.388
 5048SOL    HW116043   6.536   2.575   1.409
 5048SOL    HW216044   6.675   2.633   1.471
 5049SOL     OW16045   0.780   2.422   2.394
 5049SOL    HW116046   0.787   2.429   2.295
 5049SOL    HW216047   0.716   2.491   2.428
 5050SOL     OW16048   1.105   3.362   1.922
 5050SOL    HW116049   1.147   3.284   1.968
 5050SOL    HW216050   1.081   3.432   1.989
 5051SOL     OW16051   2.896   5.030   0.992
 5051SOL    HW116052   2.908   5.127   0.970
 5051SOL    HW216053   2.818   5.018   1.052
 5052SOL     OW16054   5.612   4.669   1.421
 5052SOL    HW116055   5.594   4.672   1.519
 5052SOL    HW216056   5.549   4.604   1.378
 5053SOL     OW16057   2.429   4.133   0.521
 5053SOL    HW116058   2.337   4.173   0.527
 5053SOL    HW216059   2.453   4.093   0.609
 5054SOL     OW16060   3.518   5.615   4.952
 5054SOL    HW116061   3.434   5.628   5.005
 5054SOL    HW216062   3.505   5.651   4.860
 5055SOL     OW16063   0.693   1.557   5.078
 5055SOL    HW116064   0.705   1.458   5.072
 5055SOL    HW216065   0.598   1.581   5.060
 5056SOL     OW16066   0.955   3.272   5.135
 5056SOL    HW116067   0.975   3.362   5.174
 5056SOL    HW216068   1.041   3.222   5.123
 5057SOL     OW16069   6.872   5.468   3.126
 5057SOL    HW116070   6.853   5.455   3.029
 5057SOL    HW216071   6.921   5.554   3.139
 5058SOL     OW16072   4.716   4.538   6.586
 5058SOL    HW116073   4.682   4.595   6.511
 5058SOL    HW216074   4.668   4.562   6.670
 5059SOL     OW16075   3.408   2.095   3.748
 5059SOL    HW116076   3.425   2.145   3.834
 5059SOL    HW216077   3.340   2.024   3.764
 5060SOL     OW16078   0.733   3.117   5.535
 5060SOL    HW116079   0.720   3.215   5.519
 5060SOL    HW216080   0.798   3.081   5.468
 5061SOL     OW16081   3.488   3.011   5.202
 5061SOL    HW116082   3.526   3.101   5.180
 5061SOL    HW216083   3.456   2.967   5.119
 5062SOL     OW16084   5.188   0.932   2.722
 5062SOL    HW116085   5.168   0.880   2.805
 5062SOL    HW216086   5.268   0.990   2.737
 5063SOL     OW16087   1.066   6.991   2.514
 5063SOL    HW116088   1.046   0.036   2.581
 5063SOL    HW216089   1.150   7.013   2.465
 5064SOL     OW16090   4.594   5.589   0.554
 5064SOL    HW116091   4.506   5.616   0.593
 5064SOL    HW216092   4.593   5.604   0.455
 5065SOL     OW16093   2.445   7.008   3.200
 5065SOL    HW116094   2.461   6.927   3.256
 5065SOL    HW216095   2.366   6.992   3.141
 5066SOL     OW16096   2.491   4.436   1.700
 5066SOL    HW116097   2.394   4.447   1.679
 5066SOL    HW216098   2.507   4.457   1.796
 5067SOL     OW16099   3.843   3.092   1.661
 5067SOL    HW116100   3.917   3.052   1.715
 5067SOL    HW216101   3.813   3.026   1.591
 5068SOL     OW16102   2.960   6.204   0.617
 5068SOL    HW116103   3.012   6.162   0.543
 5068SOL    HW216104   2.896   6.137   0.655
 5069SOL     OW16105   3.533   4.609   6.120
 5069SOL    HW116106   3.522   4.521   6.167
 5069SOL    HW216107   3.516   4.598   6.022
 5070SOL     OW16108   6.483   3.609   3.898
 5070SOL    HW116109   6.406   3.663   3.864
 5070SOL    HW216110   6.468   3.586   3.994
 5071SOL     OW16111   2.926   0.846   3.595
 5071SOL    HW116112   2.990   0.874   3.524
 5071SOL    HW216113   2.846   0.906   3.593
 5072SOL     OW16114   1.253   1.333   1.159
 5072SOL    HW116115   1.260   1.372   1.066
 5072SOL    HW216116   1.333   1.276   1.177
 5073SOL     OW16117   2.787   6.766   2.670
 5073SOL    HW116118   2.833   6.848   2.636
 5073SOL    HW216119   2.800   6.691   2.605
 5074SOL     OW16120   3.423   2.225   1.703
 5074SOL    HW116121   3.344   2.190   1.753
 5074SOL    HW216122   3.492   2.257   1.768
 5075SOL     OW16123   1.211   3.324   6.855
 5075SOL    HW116124   1.145   3.324   6.930
 5075SOL    HW216125   1.260   3.236   6.855
 5076SOL     OW16126   5.650   0.264   0.069
 5076SOL    HW116127   5.644   0.219   0.158
 5076SOL    HW216128   5.741   0.250   0.030
 5077SOL     OW16129   0.878   4.584   3.782
 5077SOL    HW116130   0.908   4.492   3.757
 5077SOL    HW216131   0.778   4.589   3.773
 5078SOL     OW16132   0.409   1.224   4.011
 5078SOL    HW116133   0.373   1.297   3.953
 5078SOL    HW216134   0.374   1.136   3.978
 5079SOL     OW16135   1.582   2.568   6.246
 5079SOL    HW116136   1.523   2.557   6.166
 5079SOL    HW216137   1.674   2.536   6.225
 5080SOL     OW16138   5.393   5.136   6.170
 5080SOL    HW116139   5.357   5.058   6.221
 5080SOL    HW216140   5.379   5.220   6.223
 5081SOL     OW16141   3.131   5.710   5.412
 5081SOL    HW116142   3.224   5.673   5.414
 5081SOL    HW216143   3.088   5.700   5.502
 5082SOL     OW16144   5.570   6.154   1.757
 5082SOL    HW116145   5.543   6.250   1.758
 5082SOL    HW216146   5.662   6.146   1.717
 5083SOL     OW16147   2.363   0.276   3.143
 5083SOL    HW116148   2.397   0.198   3.197
 5083SOL    HW216149   2.277   0.309   3.182
 5084SOL     OW16150   1.136   4.890   5.647
 5084SOL    HW116151   1.217   4.877   5.705
 5084SOL    HW216152   1.111   4.804   5.605
 5085SOL     OW16153   0.382   3.623   6.143
 5085SOL    HW116154   0.427   3.573   6.069
 5085SOL    HW216155   0.450   3.681   6.190
 5086SOL     OW16156   1.738   4.854   2.114
 5086SOL    HW116157   1.727   4.872   2.016
 5086SOL    HW216158   1.816   4.792   2.128
 5087SOL     OW16159   6.327   4.943   2.746
 5087SOL    HW116160   6.364   4.851   2.760
 5087SOL    HW216161   6.276   4.971   2.828
 5088SOL     OW16162   4.380   6.324   1.832
 5088SOL    HW116163   4.440   6.272   1.892
 5088SOL    HW216164   4.433   6.362   1.756
 5089SOL     OW16165   5.667   5.134   4.612
 5089SOL    HW116166   5.757   5.143   4.571
 5089SOL    HW216167   5.633   5.223   4.641
 5090SOL     OW16168   3.015   0.338   4.877
 5090SOL    HW116169   2.928   0.366   4.919
 5090SOL    HW216170   2.999   0.258   4.819
 5091SOL     OW16171   6.193   6.746   7.013
 5091SOL    HW116172   6.159   6.664   6.966
 5091SOL    HW216173   6.290   6.736   0.004
 5092SOL     OW16174   3.405   3.618   5.028
 5092SOL    HW116175   3.465   3.614   5.108
 5092SOL    HW216176   3.310   3.611   5.058
 5093SOL     OW16177   1.836   1.899   2.190
 5093SOL    HW116178   1.759   1.880   2.251
 5093SOL    HW216179   1.916   1.922   2.244
 5094SOL     OW16180   2.650   5.873   6.581
 5094SOL    HW116181   2.681   5.928   6.504
 5094SOL    HW216182   2.564   5.909   6.616
 5095SOL     OW16183   0.133   0.885   2.810
 5095SOL    HW116184   0.058   0.822   2.787
 5095SOL    HW216185   0.212   0.832   2.841
 5096SOL     OW16186   4.847   2.769   6.088
 5096SOL    HW116187   4.846   2.697   6.018
 5096SOL    HW216188   4.920   2.834   6.068
 5097SOL     OW16189   0.101   6.034   6.852
 5097SOL    HW116190   0.147   6.100   6.793
 5097SOL    HW216191   0.168   5.970   6.890
 5098SOL     OW16192   3.784   2.137   1.729
 5098SOL    HW116193   3.749   2.107   1.641
 5098SOL    HW216194   3.718   2.201   1.771
 5099SOL     OW16195   1.194   6.030   1.635
 5099SOL    HW116196   1.233   6.082   1.560
 5099SOL    HW216197   1.258   6.028   1.712
 5100SOL     OW16198   4.988   3.783   2.745
 5100SOL    HW116199   4.987   3.740   2.654
 5100SOL    HW216200   4.902   3.832   2.759
 5101SOL     OW16201   4.119   6.793   5.406
 5101SOL    HW116202   4.145   6.837   5.492
 5101SOL    HW216203   4.036   6.740   5.419
 5102SOL     OW16204   5.140   4.966   4.551
 5102SOL    HW116205   5.226   5.011   4.576
 5102SOL    HW216206   5.097   4.930   4.634
 5103SOL     OW16207   0.896   6.978   5.520
 5103SOL    HW116208   0.990   7.006   5.503
 5103SOL    HW216209   0.868   7.011   5.610
 5104SOL     OW16210   3.502   4.468   1.404
 5104SOL    HW116211   3.523   4.379   1.363
 5104SOL    HW216212   3.431   4.513   1.349
 5105SOL     OW16213   3.798   2.737   6.821
 5105SOL    HW116214   3.798   2.679   6.902
 5105SOL    HW216215   3.830   2.684   6.742
 5106SOL     OW16216   4.189   2.853   1.151
 5106SOL    HW116217   4.264   2.814   1.098
 5106SOL    HW216218   4.112   2.871   1.090
 5107SOL     OW16219   4.886   3.261   1.121
 5107SOL    HW116220   4.934   3.284   1.206
 5107SOL    HW216221   4.901   3.334   1.053
 5108SOL     OW16222   4.562   3.456   6.300
 5108SOL    HW116223   4.560   3.499   6.391
 5108SOL    HW216224   4.522   3.365   6.306
 5109SOL     OW16225   1.854   2.384   0.968
 5109SOL    HW116226   1.798   2.466   0.953
 5109SOL    HW216227   1.832   2.315   0.900
 5110SOL     OW16228   6.212   0.654   6.456
 5110SOL    HW116229   6.142   0.686   6.392
 5110SOL    HW216230   6.261   0.577   6.416
 5111SOL     OW16231   1.011   6.142   5.159
 5111SOL    HW116232   1.063   6.076   5.104
 5111SOL    HW216233   0.926   6.100   5.190
 5112SOL     OW16234   0.112   0.403   3.219
 5112SOL    HW116235   0.041   0.350   3.172
 5112SOL    HW216236   0.201   0.360   3.203
 5113SOL     OW16237   1.955   4.865   0.554
 5113SOL    HW116238   1.994   4.849   0.463
 5113SOL    HW216239   2.019   4.921   0.607
 5114SOL     OW16240   4.351   6.320   1.116
 5114SOL    HW116241   4.286   6.277   1.179
 5114SOL    HW216242   4.353   6.269   1.030
 5115SOL     OW16243   1.691   3.720   0.948
 5115SOL    HW116244   1.714   3.625   0.925
 5115SOL    HW216245   1.726   3.742   1.039
 5116SOL     OW16246   2.077   6.537   6.775
 5116SOL    HW116247   2.172   6.520   6.749
 5116SOL    HW216248   2.035   6.598   6.709
 5117SOL     OW16249   1.683   2.959   4.118
 5117SOL    HW116250   1.775   2.950   4.155
 5117SOL    HW216251   1.619   2.979   4.193
 5118SOL     OW16252   6.034   6.151   0.054
 5118SOL    HW116253   6.055   6.084   0.125
 5118SOL    HW216254   6.109   6.216   0.045
 5119SOL     OW16255   4.837   1.555   0.499
 5119SOL    HW116256   4.807   1.631   0.441
 5119SOL    HW216257   4.793   1.563   0.588
 5120SOL     OW16258   5.094   6.956   5.288
 5120SOL    HW116259   5.185   6.942   5.249
 5120SOL    HW216260   5.101   7.020   5.365
 5121SOL     OW16261   2.866   3.852   6.809
 5121SOL    HW116262   2.857   3.949   6.830
 5121SOL    HW216263   2.805   3.799   6.867
 5122SOL     OW16264   4.483   5.169   3.886
 5122SOL    HW116265   4.505   5.104   3.959
 5122SOL    HW216266   4.540   5.251   3.896
 5123SOL     OW16267   4.500   2.462   2.199
 5123SOL    HW116268   4.559   2.540   2.222
 5123SOL    HW216269   4.502   2.446   2.101
 5124SOL     OW16270   2.079   6.227   4.126
 5124SOL    HW116271   2.104   6.169   4.203
 5124SOL    HW216272   2.076   6.323   4.156
 5125SOL     OW16273   0.288   2.165   4.154
 5125SOL    HW116274   0.357   2.192   4.087
 5125SOL    HW216275   0.246   2.248   4.192
 5126SOL     OW16276   1.876   6.998   1.303
 5126SOL    HW116277   1.886   0.066   1.275
 5126SOL    HW216278   1.788   6.986   1.349
 5127SOL     OW16279   1.982   5.506   0.648
 5127SOL    HW116280   1.906   5.449   0.679
 5127SOL    HW216281   1.995   5.494   0.550
 5128SOL     OW16282   6.343   6.117   1.423
 5128SOL    HW116283   6.293   6.132   1.338
 5128SOL    HW216284   6.377   6.023   1.425
 5129SOL     OW16285   5.237   6.525   0.877
 5129SOL    HW116286   5.201   6.433   0.892
 5129SOL    HW216287   5.337   6.519   0.865
 5130SOL     OW16288   5.963   4.914   3.711
 5130SOL    HW116289   5.917   4.983   3.656
 5130SOL    HW216290   5.902   4.836   3.726
 5131SOL     OW16291   2.047   2.352   3.776
 5131SOL    HW116292   1.981   2.397   3.717
 5131SOL    HW216293   2.117   2.308   3.721
 5132SOL     OW16294   3.320   5.067   5.923
 5132SOL    HW116295   3.259   5.146   5.936
 5132SOL    HW216296   3.415   5.099   5.916
 5133SOL     OW16297   4.032   6.384   6.328
 5133SOL    HW116298   4.069   6.295   6.356
 5133SOL    HW216299   4.071   6.456   6.385
 5134SOL     OW16300   0.517   3.566   1.069
 5134SOL    HW116301   0.473   3.562   1.158
 5134SOL    HW216302   0.460   3.618   1.005
 5135SOL     OW16303   7.025   1.937   4.596
 5135SOL    HW116304   0.053   2.004   4.546
 5135SOL    HW216305   6.931   1.938   4.561
 5136SOL     OW16306   4.790   1.133   4.073
 5136SOL    HW116307   4.863   1.110   4.137
 5136SOL    HW216308   4.748   1.219   4.100
 5137SOL     OW16309   4.642   4.389   5.942
 5137SOL    HW116310   4.736   4.367   5.916
 5137SOL    HW216311   4.597   4.438   5.868
 5138SOL     OW16312   2.320   3.881   5.974
 5138SOL    HW116313   2.317   3.813   5.901
 5138SOL    HW216314   2.415   3.909   5.991
 5139SOL     OW16315   1.186   6.949   4.118
 5139SOL    HW116316   1.143   7.024   4.169
 5139SOL    HW216317   1.127   6.869   4.119
 5140SOL     OW16318   3.416   2.772   0.552
 5140SOL    HW116319   3.462   2.695   0.509
 5140SOL    HW216320   3.391   2.748   0.646
 5141SOL     OW16321   5.617   3.006   0.194
 5141SOL    HW116322   5.700   3.032   0.243
 5141SOL    HW216323   5.638   2.991   0.098
 5142SOL     OW16324   5.892   3.685   4.933
 5142SOL    HW116325   5.900   3.694   4.833
 5142SOL    HW216326   5.811   3.735   4.964
 5143SOL     OW16327   6.657   5.128   4.455
 5143SOL    HW116328   6.746   5.137   4.411
 5143SOL    HW216329   6.598   5.204   4.427
 5144SOL     OW16330   1.468   0.526   5.986
 5144SOL    HW116331   1.376   0.511   6.022
 5144SOL    HW216332   1.522   0.444   5.999
 5145SOL     OW16333   2.567   5.376   6.073
 5145SOL    HW116334   2.473   5.402   6.052
 5145SOL    HW216335   2.610   5.446   6.131
 5146SOL     OW16336   3.559   4.321   6.876
 5146SOL    HW116337   3.521   4.412   6.887
 5146SOL    HW216338   3.522   4.260   6.947
 5147SOL     OW16339   6.373   4.077   6.911
 5147SOL    HW116340   6.283   4.081   6.867
 5147SOL    HW216341   6.375   4.000   6.975
 5148SOL     OW16342   0.007   6.045   1.608
 5148SOL    HW116343   6.969   6.089   1.669
 5148SOL    HW216344   0.100   6.071   1.634
 5149SOL     OW16345   6.210   1.324   3.738
 5149SOL    HW116346   6.218   1.414   3.695
 5149SOL    HW216347   6.260   1.323   3.824
 5150SOL     OW16348   1.582   5.703   3.832
 5150SOL    HW116349   1.566   5.621   3.777
 5150SOL    HW216350   1.597   5.781   3.771
 5151SOL     OW16351   5.048   1.293   6.302
 5151SOL    HW116352   5.045   1.284   6.203
 5151SOL    HW216353   5.111   1.226   6.340
 5152SOL     OW16354   0.877   4.208   0.186
 5152SOL    HW116355   0.951   4.145   0.159
 5152SOL    HW216356   0.817   4.162   0.252
 5153SOL     OW16357   1.453   2.066   0.666
 5153SOL    HW116358   1.550   2.046   0.648
 5153SOL    HW216359   1.418   2.001   0.734
 5154SOL     OW16360   1.570   3.193   5.486
 5154SOL    HW116361   1.517   3.208   5.569
 5154SOL    HW216362   1.654   3.144   5.508
 5155SOL     OW16363   3.707   6.750   1.996
 5155SOL    HW116364   3.671   6.842   2.009
 5155SOL    HW216365   3.806   6.754   1.980
 5156SOL     OW16366   6.464   2.464   5.265
 5156SOL    HW116367   6.506   2.387   5.217
 5156SOL    HW216368   6.534   2.529   5.292
 5157SOL     OW16369   5.027   2.898   3.641
 5157SOL    HW116370   5.109   2.914   3.587
 5157SOL    HW216371   5.053   2.866   3.732
 5158SOL     OW16372   4.126   1.022   1.108
 5158SOL    HW116373   4.181   1.099   1.075
 5158SOL    HW216374   4.035   1.025   1.066
 5159SOL     OW16375   1.297   3.704   4.494
 5159SOL    HW116376   1.266   3.655   4.575
 5159SOL    HW216377   1.264   3.658   4.412
 5160SOL     OW16378   1.721   3.964   4.692
 5160SOL    HW116379   1.751   3.998   4.781
 5160SOL    HW216380   1.643   4.019   4.660
 5161SOL     OW16381   1.128   3.005   5.513
 5161SOL    HW116382   1.113   3.017   5.611
 5161SOL    HW216383   1.200   3.067   5.482
 5162SOL     OW16384   6.925   6.540   3.651
 5162SOL    HW116385   6.862   6.469   3.623
 5162SOL    HW216386   7.011   6.498   3.681
 5163SOL     OW16387   5.859   4.565   1.504
 5163SOL    HW116388   5.854   4.540   1.601
 5163SOL    HW216389   5.771   4.604   1.476
 5164SOL     OW16390   6.222   3.765   5.413
 5164SOL    HW116391   6.151   3.808   5.357
 5164SOL    HW216392   6.179   3.708   5.483
 5165SOL     OW16393   6.629   4.456   4.272
 5165SOL    HW116394   6.608   4.515   4.194
 5165SOL    HW216395   6.718   4.482   4.309
 5166SOL     OW16396   1.756   5.343   2.429
 5166SOL    HW116397   1.705   5.356   2.343
 5166SOL    HW216398   1.692   5.346   2.506
 5167SOL     OW16399   0.272   6.494   5.727
 5167SOL    HW116400   0.355   6.536   5.690
 5167SOL    HW216401   0.294   6.443   5.810
 5168SOL     OW16402   4.126   2.252   2.987
 5168SOL    HW116403   4.156   2.156   2.983
 5168SOL    HW216404   4.150   2.298   2.902
 5169SOL     OW16405   3.272   3.884   5.957
 5169SOL    HW116406   3.208   3.883   6.034
 5169SOL    HW216407   3.281   3.792   5.919
 5170SOL     OW16408   6.517   4.523   4.764
 5170SOL    HW116409   6.615   4.520   4.745
 5170SOL    HW216410   6.480   4.430   4.765
 5171SOL     OW16411   1.582   4.863   4.647
 5171SOL    HW116412   1.539   4.952   4.662
 5171SOL    HW216413   1.600   4.851   4.549
 5172SOL     OW16414   0.820   4.566   2.419
 5172SOL    HW116415   0.766   4.634   2.369
 5172SOL    HW216416   0.760   4.518   2.484
 5173SOL     OW16417   5.006   3.020   6.409
 5173SOL    HW116418   5.097   3.028   6.367
 5173SOL    HW216419   4.939   3.070   6.355
 5174SOL     OW16420   1.635   4.969   6.277
 5174SOL    HW116421   1.693   4.994   6.200
 5174SOL    HW216422   1.607   5.051   6.327
 5175SOL     OW16423   1.075   4.234   0.773
 5175SOL    HW116424   1.073   4.298   0.696
 5175SOL    HW216425   1.021   4.272   0.849
 5176SOL     OW16426   3.908   3.999   0.925
 5176SOL    HW116427   3.905   3.900   0.914
 5176SOL    HW216428   3.831   4.040   0.875
 5177SOL     OW16429   5.156   6.776   6.121
 5177SOL    HW116430   5.160   6.678   6.104
 5177SOL    HW216431   5.244   6.818   6.101
 5178SOL     OW16432   2.573   2.491   1.613
 5178SOL    HW116433   2.627   2.438   1.678
 5178SOL    HW216434   2.596   2.588   1.621
 5179SOL     OW16435   3.345   6.290   5.415
 5179SOL    HW116436   3.336   6.232   5.495
 5179SOL    HW216437   3.353   6.232   5.333
 5180SOL     OW16438   2.981   2.717   0.872
 5180SOL    HW116439   2.982   2.661   0.955
 5180SOL    HW216440   2.985   2.659   0.791
 5181SOL     OW16441   4.452   0.092   2.832
 5181SOL    HW116442   4.354   0.101   2.811
 5181SOL    HW216443   4.496   0.181   2.822
 5182SOL     OW16444   5.702   4.424   2.062
 5182SOL    HW116445   5.718   4.447   2.158
 5182SOL    HW216446   5.748   4.338   2.040
 5183SOL     OW16447   4.708   6.628   1.406
 5183SOL    HW116448   4.656   6.648   1.489
 5183SOL    HW216449   4.666   6.676   1.329
 5184SOL     OW16450   0.621   0.639   2.954
 5184SOL    HW116451   0.615   0.715   3.018
 5184SOL    HW216452   0.554   0.652   2.881
 5185SOL     OW16453   3.668   0.488   2.193
 5185SOL    HW116454   3.737   0.448   2.132
 5185SOL    HW216455   3.618   0.415   2.239
 5186SOL     OW16456   6.743   4.578   0.858
 5186SOL    HW116457   6.728   4.677   0.851
 5186SOL    HW216458   6.785   4.545   0.773
 5187SOL     OW16459   6.260   1.855   3.484
 5187SOL    HW116460   6.314   1.879   3.404
 5187SOL    HW216461   6.245   1.756   3.485
 5188SOL     OW16462   0.607   4.233   5.992
 5188SOL    HW116463   0.659   4.317   5.978
 5188SOL    HW216464   0.533   4.250   6.057
 5189SOL     OW16465   4.850   4.844   6.469
 5189SOL    HW116466   4.842   4.845   6.369
 5189SOL    HW216467   4.924   4.781   6.495
 5190SOL     OW16468   1.017   2.595   3.962
 5190SOL    HW116469   1.028   2.578   3.864
 5190SOL    HW216470   0.922   2.575   3.989
 5191SOL     OW16471   3.679   1.454   1.529
 5191SOL    HW116472   3.593   1.499   1.554
 5191SOL    HW216473   3.672   1.356   1.547
 5192SOL     OW16474   5.745   5.760   2.686
 5192SOL    HW116475   5.669   5.744   2.749
 5192SOL    HW216476   5.831   5.768   2.737
 5193SOL     OW16477   4.897   4.173   4.075
 5193SOL    HW116478   4.810   4.207   4.110
 5193SOL    HW216479   4.952   4.250   4.042
 5194SOL     OW16480   5.717   0.812   5.852
 5194SOL    HW116481   5.705   0.911   5.867
 5194SOL    HW216482   5.762   0.797   5.765
 5195SOL     OW16483   6.272   6.464   5.287
 5195SOL    HW116484   6.263   6.537   5.220
 5195SOL    HW216485   6.222   6.488   5.370
 5196SOL     OW16486   0.087   4.237   1.601
 5196SOL    HW116487   0.151   4.314   1.601
 5196SOL    HW216488   0.109   4.177   1.678
 5197SOL     OW16489   2.478   5.653   5.110
 5197SOL    HW116490   2.419   5.594   5.165
 5197SOL    HW216491   2.554   5.601   5.074
 5198SOL     OW16492   3.756   6.484   5.378
 5198SOL    HW116493   3.707   6.436   5.451
 5198SOL    HW216494   3.709   6.570   5.358
 5199SOL     OW16495   2.240   5.207   1.255
 5199SOL    HW116496   2.257   5.109   1.266
 5199SOL    HW216497   2.164   5.220   1.191
 5200SOL     OW16498   0.086   1.548   4.935
 5200SOL    HW116499   0.058   1.616   5.004
 5200SOL    HW216500   0.127   1.595   4.857
 5201SOL     OW16501   5.559   4.965   4.414
 5201SOL    HW116502   5.601   5.022   4.485
 5201SOL    HW216503   5.629   4.913   4.366
 5202SOL     OW16504   3.681   2.942   6.650
 5202SOL    HW116505   3.685   3.030   6.698
 5202SOL    HW216506   3.726   2.873   6.706
 5203SOL     OW16507   2.110   0.260   0.562
 5203SOL    HW116508   2.072   0.175   0.525
 5203SOL    HW216509   2.203   0.243   0.593
 5204SOL     OW16510   3.471   1.039   0.061
 5204SOL    HW116511   3.473   0.964   7.022
 5204SOL    HW216512   3.378   1.073   0.070
 5205SOL     OW16513   0.153   5.535   0.743
 5205SOL    HW116514   0.057   5.521   0.720
 5205SOL    HW216515   0.167   5.631   0.769
 5206SOL     OW16516   0.856   4.715   5.201
 5206SOL    HW116517   0.830   4.755   5.289
 5206SOL    HW216518   0.820   4.623   5.194
 5207SOL     OW16519   0.270   0.693   4.434
 5207SOL    HW116520   0.187   0.661   4.388
 5207SOL    HW216521   0.343   0.625   4.421
 5208SOL     OW16522   4.475   2.365   0.611
 5208SOL    HW116523   4.530   2.307   0.551
 5208SOL    HW216524   4.469   2.324   0.702
 5209SOL     OW16525   5.044   5.823   2.889
 5209SOL    HW116526   5.004   5.829   2.981
 5209SOL    HW216527   5.000   5.749   2.839
 5210SOL     OW16528   5.599   4.185   0.419
 5210SOL    HW116529   5.639   4.100   0.453
 5210SOL    HW216530   5.516   4.164   0.367
 5211SOL     OW16531   4.713   2.823   4.217
 5211SOL    HW116532   4.674   2.745   4.266
 5211SOL    HW216533   4.710   2.805   4.119
 5212SOL     OW16534   1.112   3.294   1.385
 5212SOL    HW116535   1.118   3.194   1.381
 5212SOL    HW216536   1.051   3.321   1.459
 5213SOL     OW16537   4.101   3.524   2.697
 5213SOL    HW116538   4.025   3.489   2.750
 5213SOL    HW216539   4.171   3.453   2.687
 5214SOL     OW16540   5.566   3.488   5.848
 5214SOL    HW116541   5.634   3.537   5.793
 5214SOL    HW216542   5.597   3.394   5.863
 5215SOL     OW16543   0.404   3.986   4.841
 5215SOL    HW116544   0.417   4.071   4.790
 5215SOL    HW216545   0.469   3.917   4.808
 5216SOL     OW16546   5.335   5.028   0.272
 5216SOL    HW116547   5.339   4.932   0.243
 5216SOL    HW216548   5.240   5.056   0.282
 5217SOL     OW16549   4.202   6.307   3.994
 5217SOL    HW116550   4.279   6.258   4.035
 5217SOL    HW216551   4.181   6.388   4.049
 5218SOL     OW16552   0.476   0.174   0.853
 5218SOL    HW116553   0.528   0.237   0.912
 5218SOL    HW216554   0.400   0.223   0.810
 5219SOL     OW16555   2.162   2.179   5.465
 5219SOL    HW116556   2.161   2.079   5.468
 5219SOL    HW216557   2.178   2.216   5.556
 5220SOL     OW16558   1.794   4.611   3.838
 5220SOL    HW116559   1.776   4.689   3.898
 5220SOL    HW216560   1.870   4.632   3.778
 5221SOL     OW16561   6.501   0.032   0.945
 5221SOL    HW116562   6.496   0.104   0.876
 5221SOL    HW216563   6.576   0.051   1.008
 5222SOL     OW16564   4.925   4.490   1.346
 5222SOL    HW116565   4.844   4.492   1.405
 5222SOL    HW216566   4.949   4.583   1.318
 5223SOL     OW16567   0.830   3.095   1.233
 5223SOL    HW116568   0.856   3.138   1.146
 5223SOL    HW216569   0.733   3.109   1.250
 5224SOL     OW16570   0.705   2.567   4.803
 5224SOL    HW116571   0.617   2.607   4.828
 5224SOL    HW216572   0.697   2.522   4.713
 5225SOL     OW16573   0.803   1.837   4.777
 5225SOL    HW116574   0.703   1.843   4.772
 5225SOL    HW216575   0.832   1.750   4.738
 5226SOL     OW16576   6.890   6.688   3.894
 5226SOL    HW116577   6.893   6.638   3.807
 5226SOL    HW216578   6.817   6.651   3.951
 5227SOL     OW16579   0.277   2.660   5.058
 5227SOL    HW116580   0.274   2.738   5.121
 5227SOL    HW216581   0.282   2.575   5.111
 5228SOL     OW16582   1.724   2.331   5.902
 5228SOL    HW116583   1.816   2.319   5.865
 5228SOL    HW216584   1.701   2.428   5.903
 5229SOL     OW16585   4.374   1.029   6.000
 5229SOL    HW116586   4.381   1.038   6.099
 5229SOL    HW216587   4.381   1.119   5.957
 5230SOL     OW16588   6.711   0.066   1.942
 5230SOL    HW116589   6.743   7.000   1.928
 5230SOL    HW216590   6.683   0.078   2.037
 5231SOL     OW16591   6.558   1.859   2.659
 5231SOL    HW116592   6.611   1.912   2.593
 5231SOL    HW216593   6.506   1.788   2.611
 5232SOL     OW16594   2.304   2.930   5.605
 5232SOL    HW116595   2.402   2.922   5.592
 5232SOL    HW216596   2.256   2.887   5.529
 5233SOL     OW16597   2.978   0.477   2.658
 5233SOL    HW116598   2.937   0.483   2.749
 5233SOL    HW216599   2.940   0.549   2.600
 5234SOL     OW16600   2.450   2.209   0.755
 5234SOL    HW116601   2.394   2.251   0.826
 5234SOL    HW216602   2.483   2.120   0.788
 5235SOL     OW16603   2.711   1.644   1.285
 5235SOL    HW116604   2.681   1.581   1.357
 5235SOL    HW216605   2.754   1.592   1.211
 5236SOL     OW16606   3.630   5.471   1.774
 5236SOL    HW116607   3.663   5.386   1.734
 5236SOL    HW216608   3.610   5.457   1.871
 5237SOL     OW16609   1.948   2.375   4.019
 5237SOL    HW116610   1.975   2.378   3.923
 5237SOL    HW216611   2.022   2.338   4.074
 5238SOL     OW16612   0.986   6.168   2.832
 5238SOL    HW116613   1.017   6.249   2.781
 5238SOL    HW216614   0.906   6.129   2.786
 5239SOL     OW16615   2.588   3.974   1.046
 5239SOL    HW116616   2.656   3.901   1.057
 5239SOL    HW216617   2.513   3.960   1.110
 5240SOL     OW16618   2.248   3.701   5.774
 5240SOL    HW116619   2.198   3.762   5.712
 5240SOL    HW216620   2.184   3.643   5.823
 5241SOL     OW16621   0.684   5.889   2.465
 5241SOL    HW116622   0.588   5.890   2.436
 5241SOL    HW216623   0.741   5.927   2.391
 5242SOL     OW16624   4.855   0.674   6.406
 5242SOL    HW116625   4.815   0.610   6.341
 5242SOL    HW216626   4.857   0.631   6.497
 5243SOL     OW16627   2.475   6.690   1.885
 5243SOL    HW116628   2.534   6.703   1.965
 5243SOL    HW216629   2.471   6.593   1.861
 5244SOL     OW16630   5.142   2.998   0.948
 5244SOL    HW116631   5.148   3.098   0.948
 5244SOL    HW216632   5.056   2.970   0.992
 5245SOL     OW16633   4.270   3.715   1.288
 5245SOL    HW116634   4.326   3.783   1.335
 5245SOL    HW216635   4.259   3.741   1.192
 5246SOL     OW16636   6.304   2.969   1.116
 5246SOL    HW116637   6.230   2.912   1.080
 5246SOL    HW216638   6.328   3.039   1.049
 5247SOL     OW16639   4.283   2.141   6.576
 5247SOL    HW116640   4.318   2.083   6.501
 5247SOL    HW216641   4.323   2.232   6.569
 5248SOL     OW16642   6.625   1.337   3.421
 5248SOL    HW116643   6.716   1.378   3.417
 5248SOL    HW216644   6.593   1.320   3.328
 5249SOL     OW16645   0.618   4.928   6.922
 5249SOL    HW116646   0.566   4.964   6.845
 5249SOL    HW216647   0.667   5.003   6.967
 5250SOL     OW16648   2.383   6.194   0.906
 5250SOL    HW116649   2.366   6.289   0.931
 5250SOL    HW216650   2.298   6.150   0.879
 5251SOL     OW16651   0.783   4.751   0.816
 5251SOL    HW116652   0.842   4.708   0.885
 5251SOL    HW216653   0.691   4.761   0.853
 5252SOL     OW16654   3.855   0.499   2.565
 5252SOL    HW116655   3.927   0.530   2.502
 5252SOL    HW216656   3.793   0.438   2.517
 5253SOL     OW16657   6.006   4.915   4.795
 5253SOL    HW116658   5.924   4.932   4.740
 5253SOL    HW216659   6.044   4.826   4.769
 5254SOL     OW16660   5.950   0.196   3.042
 5254SOL    HW116661   6.008   0.144   2.979
 5254SOL    HW216662   5.947   0.291   3.014
 5255SOL     OW16663   6.356   1.675   4.955
 5255SOL    HW116664   6.316   1.634   5.037
 5255SOL    HW216665   6.282   1.711   4.897
 5256SOL     OW16666   5.805   1.118   2.605
 5256SOL    HW116667   5.738   1.089   2.537
 5256SOL    HW216668   5.820   1.044   2.671
 5257SOL     OW16669   4.013   0.754   6.008
 5257SOL    HW116670   4.045   0.844   6.038
 5257SOL    HW216671   3.924   0.764   5.963
 5258SOL     OW16672   4.788   2.240   2.634
 5258SOL    HW116673   4.762   2.188   2.715
 5258SOL    HW216674   4.781   2.181   2.553
 5259SOL     OW16675   5.706   5.588   2.904
 5259SOL    HW116676   5.666   5.560   2.817
 5259SOL    HW216677   5.759   5.513   2.943
 5260SOL     OW16678   2.197   0.980   1.074
 5260SOL    HW116679   2.146   1.014   0.995
 5260SOL    HW216680   2.229   1.058   1.129
 5261SOL     OW16681   6.081   4.285   0.057
 5261SOL    HW116682   6.086   4.194   0.015
 5261SOL    HW216683   6.000   4.333   0.023
 5262SOL     OW16684   2.105   0.886   2.754
 5262SOL    HW116685   2.189   0.940   2.763
 5262SOL    HW216686   2.102   0.817   2.826
 5263SOL     OW16687   2.286   0.468   2.766
 5263SOL    HW116688   2.352   0.516   2.708
 5263SOL    HW216689   2.222   0.534   2.805
 5264SOL     OW16690   6.778   2.167   1.538
 5264SOL    HW116691   6.757   2.072   1.563
 5264SOL    HW216692   6.715   2.228   1.586
 5265SOL     OW16693   6.404   4.117   4.652
 5265SOL    HW116694   6.382   4.184   4.582
 5265SOL    HW216695   6.475   4.055   4.619
 5266SOL     OW16696   2.288   0.586   0.893
 5266SOL    HW116697   2.330   0.561   0.806
 5266SOL    HW216698   2.283   0.505   0.952
 5267SOL     OW16699   5.035   2.244   4.267
 5267SOL    HW116700   4.970   2.312   4.235
 5267SOL    HW216701   5.007   2.153   4.236
 5268SOL     OW16702   5.931   0.987   6.191
 5268SOL    HW116703   5.944   0.915   6.258
 5268SOL    HW216704   5.947   0.950   6.099
 5269SOL     OW16705   0.339   6.480   3.522
 5269SOL    HW116706   0.330   6.553   3.455
 5269SOL    HW216707   0.428   6.486   3.566
 5270SOL     OW16708   0.207   2.440   6.330
 5270SOL    HW116709   0.130   2.396   6.376
 5270SOL    HW216710   0.282   2.374   6.320
 5271SOL     OW16711   6.471   5.547   4.065
 5271SOL    HW116712   6.526   5.583   3.989
 5271SOL    HW216713   6.502   5.455   4.088
 5272SOL     OW16714   4.656   0.622   0.372
 5272SOL    HW116715   4.631   0.719   0.375
 5272SOL    HW216716   4.667   0.587   0.465
 5273SOL     OW16717   1.135   2.570   2.900
 5273SOL    HW116718   1.193   2.517   2.838
 5273SOL    HW216719   1.059   2.610   2.849
 5274SOL     OW16720   4.553   5.607   2.197
 5274SOL    HW116721   4.552   5.662   2.113
 5274SOL    HW216722   4.553   5.510   2.172
 5275SOL     OW16723   3.684   1.067   6.469
 5275SOL    HW116724   3.767   1.122   6.477
 5275SOL    HW216725   3.702   0.988   6.409
 5276SOL     OW16726   3.625   6.170   2.399
 5276SOL    HW116727   3.716   6.130   2.383
 5276SOL    HW216728   3.635   6.267   2.419
 5277SOL     OW16729   2.319   1.919   1.702
 5277SOL    HW116730   2.301   2.018   1.695
 5277SOL    HW216731   2.413   1.904   1.733
 5278SOL     OW16732   4.811   4.930   1.292
 5278SOL    HW116733   4.744   5.002   1.278
 5278SOL    HW216734   4.765   4.841   1.293
 5279SOL     OW16735   2.888   5.047   1.816
 5279SOL    HW116736   2.908   5.023   1.721
 5279SOL    HW216737   2.889   4.965   1.872
 5280SOL     OW16738   4.161   6.050   4.542
 5280SOL    HW116739   4.131   6.100   4.623
 5280SOL    HW216740   4.160   5.952   4.560
 5281SOL     OW16741   0.616   1.912   1.623
 5281SOL    HW116742   0.639   1.994   1.677
 5281SOL    HW216743   0.664   1.833   1.661
 5282SOL     OW16744   3.573   1.872   3.376
 5282SOL    HW116745   3.605   1.840   3.287
 5282SOL    HW216746   3.600   1.807   3.447
 5283SOL     OW16747   5.401   5.145   6.795
 5283SOL    HW116748   5.416   5.228   6.741
 5283SOL    HW216749   5.320   5.097   6.761
 5284SOL     OW16750   5.875   2.918   3.046
 5284SOL    HW116751   5.835   2.915   2.954
 5284SOL    HW216752   5.958   2.973   3.044
 5285SOL     OW16753   3.190   5.382   3.150
 5285SOL    HW116754   3.155   5.462   3.101
 5285SOL    HW216755   3.122   5.308   3.144
 5286SOL     OW16756   2.171   4.449   1.427
 5286SOL    HW116757   2.072   4.433   1.419
 5286SOL    HW216758   2.203   4.415   1.515
 5287SOL     OW16759   1.771   2.245   1.186
 5287SOL    HW116760   1.742   2.289   1.271
 5287SOL    HW216761   1.802   2.314   1.122
 5288SOL     OW16762   3.803   6.889   0.726
 5288SOL    HW116763   3.704   6.879   0.735
 5288SOL    HW216764   3.844   6.800   0.711
 5289SOL     OW16765   1.993   5.526   1.532
 5289SOL    HW116766   2.009   5.442   1.583
 5289SOL    HW216767   1.924   5.510   1.461
 5290SOL     OW16768   4.414   6.219   0.443
 5290SOL    HW116769   4.345   6.166   0.492
 5290SOL    HW216770   4.372   6.259   0.361
 5291SOL     OW16771   2.161   4.983   6.416
 5291SOL    HW116772   2.225   5.060   6.406
 5291SOL    HW216773   2.209   4.897   6.397
 5292SOL     OW16774   4.169   3.202   5.873
 5292SOL    HW116775   4.157   3.293   5.912
 5292SOL    HW216776   4.085   3.175   5.825
 5293SOL     OW16777   0.608   0.260   4.607
 5293SOL    HW116778   0.618   0.204   4.524
 5293SOL    HW216779   0.558   0.344   4.585
 5294SOL     OW16780   5.664   2.163   5.742
 5294SOL    HW116781   5.620   2.234   5.688
 5294SOL    HW216782   5.743   2.202   5.790
 5295SOL     OW16783   6.398   1.183   1.815
 5295SOL    HW116784   6.407   1.095   1.863
 5295SOL    HW216785   6.405   1.167   1.716
 5296SOL     OW16786   0.742   4.662   1.104
 5296SOL    HW116787   0.750   4.630   1.199
 5296SOL    HW216788   0.673   4.609   1.056
 5297SOL     OW16789   2.125   2.612   1.354
 5297SOL    HW116790   2.221   2.636   1.360
 5297SOL    HW216791   2.110   2.555   1.273
 5298SOL     OW16792   0.704   5.230   1.395
 5298SOL    HW116793   0.759   5.265   1.471
 5298SOL    HW216794   0.621   5.285   1.387
 5299SOL     OW16795   3.027   0.218   2.155
 5299SOL    HW116796   2.961   0.292   2.160
 5299SOL    HW216797   2.981   0.133   2.129
 5300SOL     OW16798   6.626   5.332   3.168
 5300SOL    HW116799   6.593   5.320   3.261
 5300SOL    HW216800   6.722   5.303   3.162
 5301SOL     OW16801   4.247   1.796   6.991
 5301SOL    HW116802   4.234   1.765   6.896
 5301SOL    HW216803   4.161   1.786   0.014
 5302SOL     OW16804   6.051   4.206   3.108
 5302SOL    HW116805   6.115   4.132   3.126
 5302SOL    HW216806   6.098   4.282   3.064
 5303SOL     OW16807   0.505   4.729   3.493
 5303SOL    HW116808   0.476   4.644   3.537
 5303SOL    HW216809   0.465   4.735   3.402
 5304SOL     OW16810   5.018   2.000   5.762
 5304SOL    HW116811   5.063   1.916   5.793
 5304SOL    HW216812   4.976   1.985   5.672
 5305SOL     OW16813   2.357   1.205   3.225
 5305SOL    HW116814   2.444   1.194   3.177
 5305SOL    HW216815   2.283   1.169   3.167
 5306SOL     OW16816   2.691   0.025   5.690
 5306SOL    HW116817   2.714   0.116   5.657
 5306SOL    HW216818   2.674   6.992   5.612
 5307SOL     OW16819   5.307   6.896   6.986
 5307SOL    HW116820   5.306   6.892   6.887
 5307SOL    HW216821   5.287   6.990   7.015
 5308SOL     OW16822   0.007   1.125   2.580
 5308SOL    HW116823   0.092   1.127   2.631
 5308SOL    HW216824   7.026   1.038   2.531
 5309SOL     OW16825   3.304   3.828   3.394
 5309SOL    HW116826   3.225   3.796   3.447
 5309SOL    HW216827   3.331   3.757   3.329
 5310SOL     OW16828   4.754   2.345   0.897
 5310SOL    HW116829   4.805   2.401   0.963
 5310SOL    HW216830   4.746   2.395   0.811
 5311SOL     OW16831   0.917   5.753   0.210
 5311SOL    HW116832   0.859   5.674   0.189
 5311SOL    HW216833   0.943   5.798   0.124
 5312SOL     OW16834   0.556   3.625   2.798
 5312SOL    HW116835   0.468   3.579   2.809
 5312SOL    HW216836   0.630   3.561   2.817
 5313SOL     OW16837   1.133   5.584   1.291
 5313SOL    HW116838   1.047   5.541   1.265
 5313SOL    HW216839   1.143   5.671   1.243
 5314SOL     OW16840   3.635   4.851   0.627
 5314SOL    HW116841   3.730   4.872   0.647
 5314SOL    HW216842   3.581   4.936   0.630
 5315SOL     OW16843   5.358   2.551   2.305
 5315SOL    HW116844   5.431   2.535   2.239
 5315SOL    HW216845   5.277   2.585   2.258
 5316SOL     OW16846   5.889   5.053   4.243
 5316SOL    HW116847   5.952   5.129   4.233
 5316SOL    HW216848   5.803   5.075   4.197
 5317SOL     OW16849   5.539   6.215   2.628
 5317SOL    HW116850   5.472   6.246   2.560
 5317SOL    HW216851   5.630   6.245   2.600
 5318SOL     OW16852   0.475   2.642   4.503
 5318SOL    HW116853   0.389   2.593   4.514
 5318SOL    HW216854   0.552   2.578   4.511
 5319SOL     OW16855   4.790   0.286   0.631
 5319SOL    HW116856   4.727   0.211   0.649
 5319SOL    HW216857   4.867   0.282   0.695
 5320SOL     OW16858   5.757   2.618   5.677
 5320SOL    HW116859   5.777   2.528   5.637
 5320SOL    HW216860   5.821   2.685   5.640
 5321SOL     OW16861   2.159   5.350   6.171
 5321SOL    HW116862   2.093   5.282   6.140
 5321SOL    HW216863   2.118   5.406   6.243
 5322SOL     OW16864   3.310   5.715   0.260
 5322SOL    HW116865   3.325   5.812   0.280
 5322SOL    HW216866   3.387   5.661   0.296
 5323SOL     OW16867   5.528   2.795   0.325
 5323SOL    HW116868   5.556   2.877   0.275
 5323SOL    HW216869   5.438   2.811   0.366
 5324SOL     OW16870   3.397   3.621   1.908
 5324SOL    HW116871   3.456   3.624   1.827
 5324SOL    HW216872   3.450   3.642   1.989
 5325SOL     OW16873   5.110   5.729   3.492
 5325SOL    HW116874   5.163   5.722   3.407
 5325SOL    HW216875   5.061   5.643   3.507
 5326SOL     OW16876   6.583   6.209   2.067
 5326SOL    HW116877   6.614   6.227   1.973
 5326SOL    HW216878   6.656   6.166   2.118
 5327SOL     OW16879   6.464   0.619   3.546
 5327SOL    HW116880   6.449   0.694   3.611
 5327SOL    HW216881   6.490   0.537   3.597
 5328SOL     OW16882   3.793   4.939   1.013
 5328SOL    HW116883   3.716   4.886   1.047
 5328SOL    HW216884   3.841   4.887   0.942
 5329SOL     OW16885   0.042   5.145   6.878
 5329SOL    HW116886   0.105   5.107   6.810
 5329SOL    HW216887   6.975   5.137   6.844
 5330SOL     OW16888   4.844   4.396   0.801
 5330SOL    HW116889   4.765   4.442   0.841
 5330SOL    HW216890   4.900   4.356   0.874
 5331SOL     OW16891   4.511   3.279   6.691
 5331SOL    HW116892   4.470   3.195   6.725
 5331SOL    HW216893   4.445   3.329   6.635
 5332SOL     OW16894   5.719   2.573   0.238
 5332SOL    HW116895   5.657   2.641   0.278
 5332SOL    HW216896   5.667   2.514   0.176
 5333SOL     OW16897   1.507   1.611   4.011
 5333SOL    HW116898   1.519   1.675   4.087
 5333SOL    HW216899   1.472   1.524   4.046
 5334SOL     OW16900   4.170   5.487   2.010
 5334SOL    HW116901   4.158   5.487   2.110
 5334SOL    HW216902   4.210   5.574   1.981
 5335SOL     OW16903   0.245   3.892   1.177
 5335SOL    HW116904   0.154   3.854   1.188
 5335SOL    HW216905   0.259   3.916   1.081
 5336SOL     OW16906   1.479   3.630   4.029
 5336SOL    HW116907   1.503   3.619   4.125
 5336SOL    HW216908   1.472   3.728   4.008
 5337SOL     OW16909   6.357   4.656   0.674
 5337SOL    HW116910   6.297   4.661   0.754
 5337SOL    HW216911   6.306   4.616   0.598
 5338SOL     OW16912   6.753   3.609   0.764
 5338SOL    HW116913   6.809   3.587   0.844
 5338SOL    HW216914   6.795   3.684   0.713
 5339SOL     OW16915   5.410   3.240   2.858
 5339SOL    HW116916   5.481   3.185   2.903
 5339SOL    HW216917   5.409   3.331   2.897
 5340SOL     OW16918   6.167   2.889   2.331
 5340SOL    HW116919   6.241   2.937   2.284
 5340SOL    HW216920   6.152   2.931   2.421
 5341SOL     OW16921   3.952   5.103   3.968
 5341SOL    HW116922   3.902   5.185   3.995
 5341SOL    HW216923   4.051   5.121   3.975
 5342SOL     OW16924   6.023   0.026   4.371
 5342SOL    HW116925   6.118   0.031   4.402
 5342SOL    HW216926   5.985   0.119   4.367
 5343SOL     OW16927   3.527   3.652   6.603
 5343SOL    HW116928   3.572   3.565   6.623
 5343SOL    HW216929   3.593   3.726   6.611
 5344SOL     OW16930   1.333   1.743   6.564
 5344SOL    HW116931   1.398   1.813   6.593
 5344SOL    HW216932   1.363   1.654   6.598
 5345SOL     OW16933   5.230   1.793   0.281
 5345SOL    HW116934   5.189   1.845   0.355
 5345SOL    HW216935   5.298   1.730   0.318
 5346SOL     OW16936   3.192   6.175   4.071
 5346SOL    HW116937   3.138   6.257   4.092
 5346SOL    HW216938   3.130   6.102   4.041
 5347SOL     OW16939   5.995   1.604   4.146
 5347SOL    HW116940   6.059   1.680   4.151
 5347SOL    HW216941   5.973   1.585   4.050
 5348SOL     OW16942   5.644   2.526   2.747
 5348SOL    HW116943   5.741   2.539   2.770
 5348SOL    HW216944   5.587   2.570   2.816
 5349SOL     OW16945   0.549   3.801   2.259
 5349SOL    HW116946   0.530   3.734   2.331
 5349SOL    HW216947   0.570   3.890   2.301
 5350SOL     OW16948   1.382   6.589   0.327
 5350SOL    HW116949   1.403   6.640   0.410
 5350SOL    HW216950   1.467   6.560   0.283
 5351SOL     OW16951   6.449   6.283   2.788
 5351SOL    HW116952   6.516   6.209   2.796
 5351SOL    HW216953   6.477   6.359   2.848
 5352SOL     OW16954   1.308   3.261   4.936
 5352SOL    HW116955   1.239   3.219   4.996
 5352SOL    HW216956   1.392   3.277   4.988
 5353SOL     OW16957   3.740   5.523   3.290
 5353SOL    HW116958   3.822   5.559   3.247
 5353SOL    HW216959   3.750   5.424   3.302
 5354SOL     OW16960   4.622   5.949   0.435
 5354SOL    HW116961   4.643   6.041   0.468
 5354SOL    HW216962   4.578   5.954   0.346
 5355SOL     OW16963   5.152   4.503   5.201
 5355SOL    HW116964   5.151   4.409   5.236
 5355SOL    HW216965   5.128   4.502   5.103
 5356SOL     OW16966   0.391   5.356   1.172
 5356SOL    HW116967   0.394   5.451   1.203
 5356SOL    HW216968   0.464   5.341   1.104
 5357SOL     OW16969   5.870   3.243   2.476
 5357SOL    HW116970   5.849   3.320   2.536
 5357SOL    HW216971   5.794   3.179   2.476
 5358SOL     OW16972   4.519   1.869   0.143
 5358SOL    HW116973   4.464   1.893   0.223
 5358SOL    HW216974   4.467   1.807   0.085
 5359SOL     OW16975   3.578   2.236   0.080
 5359SOL    HW116976   3.579   2.162   0.012
 5359SOL    HW216977   3.488   2.279   0.081
 5360SOL     OW16978   5.533   4.451   3.420
 5360SOL    HW116979   5.490   4.435   3.331
 5360SOL    HW216980   5.465   4.489   3.483
 5361SOL     OW16981   2.160   5.553   2.120
 5361SOL    HW116982   2.232   5.609   2.161
 5361SOL    HW216983   2.198   5.503   2.042
 5362SOL     OW16984   5.308   0.297   1.901
 5362SOL    HW116985   5.292   0.394   1.917
 5362SOL    HW216986   5.394   0.285   1.850
 5363SOL     OW16987   5.860   5.525   3.208
 5363SOL    HW116988   5.866   5.539   3.307
 5363SOL    HW216989   5.855   5.614   3.162
 5364SOL     OW16990   4.837   0.932   2.090
 5364SOL    HW116991   4.935   0.917   2.085
 5364SOL    HW216992   4.812   1.010   2.032
 5365SOL     OW16993   3.413   2.914   3.625
 5365SOL    HW116994   3.349   2.846   3.660
 5365SOL    HW216995   3.419   2.991   3.689
 5366SOL     OW16996   6.317   5.772   2.501
 5366SOL    HW116997   6.352   5.836   2.433
 5366SOL    HW216998   6.219   5.788   2.514
 5367SOL     OW16999   6.478   6.267   1.599
 5367SOL    HW117000   6.433   6.198   1.542
 5367SOL    HW217001   6.420   6.348   1.606
 5368SOL     OW17002   6.556   5.918   3.960
 5368SOL    HW117003   6.538   5.890   3.866
 5368SOL    HW217004   6.474   5.960   4.000
 5369SOL     OW17005   2.845   5.370   2.802
 5369SOL    HW117006   2.848   5.432   2.880
 5369SOL    HW217007   2.918   5.393   2.738
 5370SOL     OW17008   1.430   3.730   0.961
 5370SOL    HW117009   1.529   3.741   0.961
 5370SOL    HW217010   1.386   3.813   0.926
 5371SOL     OW17011   5.581   5.695   4.621
 5371SOL    HW117012   5.639   5.661   4.695
 5371SOL    HW217013   5.492   5.721   4.657
 5372SOL     OW17014   1.123   0.045   3.026
 5372SOL    HW117015   1.119   0.015   3.121
 5372SOL    HW217016   1.108   6.995   2.965
 5373SOL     OW17017   3.770   1.692   6.879
 5373SOL    HW117018   3.671   1.699   6.891
 5373SOL    HW217019   3.812   1.659   6.963
 5374SOL     OW17020   1.784   5.020   2.479
 5374SOL    HW117021   1.793   5.096   2.414
 5374SOL    HW217022   1.770   4.935   2.429
 5375SOL     OW17023   1.724   4.327   4.755
 5375SOL    HW117024   1.653   4.394   4.732
 5375SOL    HW217025   1.776   4.304   4.673
 5376SOL     OW17026   0.393   6.923   6.138
 5376SOL    HW117027   0.483   6.964   6.151
 5376SOL    HW217028   0.325   6.977   6.188
 5377SOL     OW17029   1.896   0.817   3.320
 5377SOL    HW117030   1.929   0.723   3.305
 5377SOL    HW217031   1.971   0.881   3.304
 5378SOL     OW17032   5.149   0.905   2.093
 5378SOL    HW117033   5.121   0.902   2.189
 5378SOL    HW217034   5.246   0.930   2.087
 5379SOL     OW17035   1.634   2.133   5.745
 5379SOL    HW117036   1.703   2.064   5.724
 5379SOL    HW217037   1.670   2.197   5.813
 5380SOL     OW17038   4.382   6.553   1.392
 5380SOL    HW117039   4.339   6.635   1.431
 5380SOL    HW217040   4.372   6.554   1.293
 5381SOL     OW17041   4.131   0.122   4.089
 5381SOL    HW117042   4.106   0.121   4.185
 5381SOL    HW217043   4.223   0.159   4.078
 5382SOL     OW17044   4.285   1.441   1.540
 5382SOL    HW117045   4.333   1.521   1.502
 5382SOL    HW217046   4.289   1.445   1.640
 5383SOL     OW17047   2.206   2.839   4.548
 5383SOL    HW117048   2.109   2.862   4.557
 5383SOL    HW217049   2.257   2.880   4.624
 5384SOL     OW17050   5.411   5.586   4.253
 5384SOL    HW117051   5.344   5.644   4.207
 5384SOL    HW217052   5.373   5.555   4.340
 5385SOL     OW17053   3.690   2.941   5.913
 5385SOL    HW117054   3.743   2.976   5.836
 5385SOL    HW217055   3.744   2.950   5.997
 5386SOL     OW17056   5.771   4.670   4.654
 5386SOL    HW117057   5.747   4.573   4.645
 5386SOL    HW217058   5.870   4.679   4.661
 5387SOL     OW17059   1.793   1.377   3.405
 5387SOL    HW117060   1.843   1.310   3.350
 5387SOL    HW217061   1.782   1.461   3.353
 5388SOL     OW17062   0.433   6.519   2.221
 5388SOL    HW117063   0.383   6.516   2.307
 5388SOL    HW217064   0.426   6.610   2.181
 5389SOL     OW17065   4.487   1.662   4.314
 5389SOL    HW117066   4.525   1.571   4.333
 5389SOL    HW217067   4.393   1.652   4.282
 5390SOL     OW17068   0.751   2.843   3.163
 5390SOL    HW117069   0.735   2.749   3.131
 5390SOL    HW217070   0.848   2.855   3.183
 5391SOL     OW17071   2.958   3.580   0.249
 5391SOL    HW117072   2.898   3.573   0.328
 5391SOL    HW217073   2.903   3.593   0.166
 5392SOL     OW17074   5.274   1.987   3.792
 5392SOL    HW117075   5.191   2.002   3.739
 5392SOL    HW217076   5.316   2.075   3.814
 5393SOL     OW17077   4.601   1.778   5.051
 5393SOL    HW117078   4.682   1.788   5.109
 5393SOL    HW217079   4.616   1.703   4.987
 5394SOL     OW17080   1.569   1.961   0.996
 5394SOL    HW117081   1.637   1.938   1.065
 5394SOL    HW217082   1.563   2.060   0.986
 5395SOL     OW17083   6.525   2.107   0.449
 5395SOL    HW117084   6.455   2.052   0.493
 5395SOL    HW217085   6.615   2.066   0.464
 5396SOL     OW17086   5.102   4.162   0.719
 5396SOL    HW117087   5.029   4.197   0.778
 5396SOL    HW217088   5.102   4.212   0.633
 5397SOL     OW17089   0.656   0.983   2.631
 5397SOL    HW117090   0.587   1.051   2.654
 5397SOL    HW217091   0.722   1.022   2.566
 5398SOL     OW17092   5.922   1.656   2.602
 5398SOL    HW117093   5.837   1.707   2.588
 5398SOL    HW217094   5.988   1.681   2.531
 5399SOL     OW17095   2.068   1.440   7.024
 5399SOL    HW117096   1.973   1.409   0.006
 5399SOL    HW217097   2.107   1.453   0.088
 5400SOL     OW17098   4.961   3.410   1.908
 5400SOL    HW117099   5.012   3.425   1.824
 5400SOL    HW217100   4.871   3.373   1.887
 5401SOL     OW17101   5.762   2.734   1.275
 5401SOL    HW117102   5.748   2.744   1.176
 5401SOL    HW217103   5.748   2.821   1.320
 5402SOL     OW17104   1.346   6.365   1.986
 5402SOL    HW117105   1.396   6.300   2.041
 5402SOL    HW217106   1.367   6.350   1.889
 5403SOL     OW17107   4.732   2.957   0.211
 5403SOL    HW117108   4.671   3.008   0.272
 5403SOL    HW217109   4.699   2.964   0.117
 5404SOL     OW17110   5.820   0.960   0.440
 5404SOL    HW117111   5.832   0.885   0.505
 5404SOL    HW217112   5.726   0.995   0.445
 5405SOL     OW17113   6.912   5.457   0.090
 5405SOL    HW117114   6.977   5.381   0.093
 5405SOL    HW217115   6.846   5.448   0.164
 5406SOL     OW17116   2.336   0.695   5.564
 5406SOL    HW117117   2.386   0.743   5.636
 5406SOL    HW217118   2.401   0.650   5.503
 5407SOL     OW17119   2.168   7.002   2.566
 5407SOL    HW117120   2.073   0.004   2.557
 5407SOL    HW217121   2.195   7.005   2.663
 5408SOL     OW17122   3.659   1.664   4.113
 5408SOL    HW117123   3.690   1.569   4.101
 5408SOL    HW217124   3.580   1.681   4.054
 5409SOL     OW17125   0.778   2.894   1.912
 5409SOL    HW117126   0.732   2.950   1.980
 5409SOL    HW217127   0.758   2.930   1.820
 5410SOL     OW17128   0.992   2.738   1.295
 5410SOL    HW117129   0.919   2.777   1.350
 5410SOL    HW217130   0.953   2.684   1.221
 5411SOL     OW17131   3.152   5.307   0.095
 5411SOL    HW117132   3.099   5.284   0.013
 5411SOL    HW217133   3.121   5.396   0.130
 5412SOL     OW17134   0.196   2.093   5.905
 5412SOL    HW117135   0.245   2.180   5.908
 5412SOL    HW217136   0.100   2.110   5.879
 5413SOL     OW17137   6.818   6.219   4.392
 5413SOL    HW117138   6.806   6.139   4.334
 5413SOL    HW217139   6.868   6.192   4.475
 5414SOL     OW17140   5.288   3.978   5.903
 5414SOL    HW117141   5.316   3.952   5.996
 5414SOL    HW217142   5.207   4.036   5.908
 5415SOL     OW17143   4.493   1.036   0.116
 5415SOL    HW117144   4.478   1.095   0.195
 5415SOL    HW217145   4.527   1.090   0.039
 5416SOL     OW17146   3.518   5.768   6.098
 5416SOL    HW117147   3.425   5.794   6.123
 5416SOL    HW217148   3.583   5.831   6.140
 5417SOL     OW17149   4.185   6.880   4.441
 5417SOL    HW117150   4.106   6.819   4.430
 5417SOL    HW217151   4.264   6.839   4.397
 5418SOL     OW17152   6.949   3.206   4.572
 5418SOL    HW117153   6.895   3.123   4.576
 5418SOL    HW217154   6.938   3.258   4.657
 5419SOL     OW17155   5.116   0.060   6.061
 5419SOL    HW117156   5.114   0.123   6.139
 5419SOL    HW217157   5.036   0.077   6.003
 5420SOL     OW17158   0.751   1.212   2.139
 5420SOL    HW117159   0.851   1.213   2.149
 5420SOL    HW217160   0.709   1.237   2.227
 5421SOL     OW17161   4.087   4.836   2.071
 5421SOL    HW117162   4.160   4.782   2.029
 5421SOL    HW217163   4.027   4.871   1.999
 5422SOL     OW17164   2.613   5.360   3.646
 5422SOL    HW117165   2.670   5.285   3.611
 5422SOL    HW217166   2.570   5.331   3.731
 5423SOL     OW17167   5.412   5.984   1.872
 5423SOL    HW117168   5.478   6.036   1.818
 5423SOL    HW217169   5.418   5.887   1.848
 5424SOL     OW17170   4.210   4.137   5.467
 5424SOL    HW117171   4.139   4.201   5.495
 5424SOL    HW217172   4.281   4.185   5.416
 5425SOL     OW17173   1.737   4.326   5.416
 5425SOL    HW117174   1.747   4.316   5.515
 5425SOL    HW217175   1.657   4.382   5.396
 5426SOL     OW17176   6.075   5.507   1.331
 5426SOL    HW117177   6.091   5.493   1.429
 5426SOL    HW217178   6.121   5.590   1.301
 5427SOL     OW17179   4.399   1.955   6.371
 5427SOL    HW117180   4.476   1.900   6.402
 5427SOL    HW217181   4.421   1.999   6.284
 5428SOL     OW17182   6.057   5.772   2.584
 5428SOL    HW117183   6.014   5.682   2.578
 5428SOL    HW217184   6.065   5.799   2.680
 5429SOL     OW17185   3.697   0.167   4.883
 5429SOL    HW117186   3.664   0.259   4.863
 5429SOL    HW217187   3.660   0.138   4.972
 5430SOL     OW17188   2.609   3.851   5.684
 5430SOL    HW117189   2.576   3.763   5.717
 5430SOL    HW217190   2.696   3.838   5.635
 5431SOL     OW17191   3.658   4.150   0.179
 5431SOL    HW117192   3.639   4.163   0.276
 5431SOL    HW217193   3.614   4.066   0.147
 5432SOL     OW17194   0.238   5.585   6.834
 5432SOL    HW117195   0.149   5.611   6.871
 5432SOL    HW217196   0.229   5.503   6.778
 5433SOL     OW17197   1.942   0.805   1.397
 5433SOL    HW117198   2.001   0.880   1.366
 5433SOL    HW217199   1.986   0.717   1.376
 5434SOL     OW17200   5.449   0.835   4.946
 5434SOL    HW117201   5.370   0.878   4.989
 5434SOL    HW217202   5.422   0.747   4.905
 5435SOL     OW17203   6.478   4.447   0.928
 5435SOL    HW117204   6.413   4.522   0.941
 5435SOL    HW217205   6.571   4.484   0.923
 5436SOL     OW17206   1.370   4.543   2.885
 5436SOL    HW117207   1.369   4.457   2.834
 5436SOL    HW217208   1.465   4.576   2.894
 5437SOL     OW17209   3.938   5.470   1.549
 5437SOL    HW117210   3.886   5.555   1.549
 5437SOL    HW217211   4.025   5.484   1.597
 5438SOL     OW17212   4.686   5.641   2.430
 5438SOL    HW117213   4.652   5.586   2.354
 5438SOL    HW217214   4.667   5.737   2.413
 5439SOL     OW17215   0.978   4.784   1.980
 5439SOL    HW117216   1.016   4.874   1.962
 5439SOL    HW217217   1.005   4.753   2.071
 5440SOL     OW17218   6.233   6.869   3.815
 5440SOL    HW117219   6.203   6.952   3.768
 5440SOL    HW217220   6.205   6.789   3.762
 5441SOL     OW17221   6.330   3.505   4.185
 5441SOL    HW117222   6.339   3.562   4.267
 5441SOL    HW217223   6.386   3.423   4.196
 5442SOL     OW17224   4.182   6.882   5.643
 5442SOL    HW117225   4.159   6.974   5.611
 5442SOL    HW217226   4.207   6.885   5.739
 5443SOL     OW17227   4.752   1.065   3.433
 5443SOL    HW117228   4.785   1.114   3.513
 5443SOL    HW217229   4.802   1.096   3.352
 5444SOL     OW17230   6.705   1.450   4.590
 5444SOL    HW117231   6.640   1.385   4.628
 5444SOL    HW217232   6.787   1.455   4.648
 5445SOL     OW17233   5.934   5.762   4.676
 5445SOL    HW117234   5.901   5.767   4.582
 5445SOL    HW217235   5.952   5.666   4.699
 5446SOL     OW17236   7.026   4.066   6.493
 5446SOL    HW117237   0.034   4.081   6.401
 5446SOL    HW217238   7.003   4.153   6.535
 5447SOL     OW17239   0.582   2.637   1.142
 5447SOL    HW117240   0.647   2.644   1.218
 5447SOL    HW217241   0.546   2.727   1.120
 5448SOL     OW17242   4.474   5.265   3.218
 5448SOL    HW117243   4.396   5.322   3.192
 5448SOL    HW217244   4.461   5.173   3.181
 5449SOL     OW17245   3.268   1.276   2.091
 5449SOL    HW117246   3.277   1.374   2.108
 5449SOL    HW217247   3.172   1.254   2.071
 5450SOL     OW17248   4.154   5.490   1.705
 5450SOL    HW117249   4.126   5.584   1.722
 5450SOL    HW217250   4.215   5.460   1.779
 5451SOL     OW17251   0.028   6.797   2.869
 5451SOL    HW117252   0.096   6.724   2.864
 5451SOL    HW217253   6.996   6.792   2.788
 5452SOL     OW17254   2.444   4.338   1.965
 5452SOL    HW117255   2.346   4.342   1.945
 5452SOL    HW217256   2.466   4.405   2.036
 5453SOL     OW17257   5.980   3.694   3.060
 5453SOL    HW117258   5.888   3.733   3.058
 5453SOL    HW217259   5.979   3.605   3.106
 5454SOL     OW17260   5.766   4.453   2.323
 5454SOL    HW117261   5.808   4.544   2.324
 5454SOL    HW217262   5.816   4.393   2.385
 5455SOL     OW17263   1.850   2.011   4.149
 5455SOL    HW117264   1.829   1.914   4.137
 5455SOL    HW217265   1.823   2.062   4.068
 5456SOL     OW17266   5.333   1.532   1.131
 5456SOL    HW117267   5.424   1.520   1.092
 5456SOL    HW217268   5.302   1.626   1.117
 5457SOL     OW17269   5.710   1.370   6.823
 5457SOL    HW117270   5.645   1.419   6.881
 5457SOL    HW217271   5.662   1.330   6.745
 5458SOL     OW17272   6.310   3.115   0.145
 5458SOL    HW117273   6.262   3.028   0.154
 5458SOL    HW217274   6.245   3.190   0.157
 5459SOL     OW17275   1.785   3.399   5.159
 5459SOL    HW117276   1.850   3.327   5.135
 5459SOL    HW217277   1.832   3.469   5.213
 5460SOL     OW17278   1.277   0.924   1.166
 5460SOL    HW117279   1.324   1.005   1.200
 5460SOL    HW217280   1.178   0.941   1.163
 5461SOL     OW17281   6.575   1.387   5.195
 5461SOL    HW117282   6.629   1.339   5.264
 5461SOL    HW217283   6.632   1.409   5.116
 5462SOL     OW17284   4.701   4.037   6.581
 5462SOL    HW117285   4.645   4.061   6.660
 5462SOL    HW217286   4.725   4.120   6.531
 5463SOL     OW17287   1.531   2.879   0.040
 5463SOL    HW117288   1.519   2.846   0.134
 5463SOL    HW217289   1.447   2.926   0.011
 5464SOL     OW17290   0.913   5.890   6.113
 5464SOL    HW117291   0.916   5.972   6.056
 5464SOL    HW217292   0.825   5.844   6.101
 5465SOL     OW17293   6.410   6.566   3.845
 5465SOL    HW117294   6.315   6.594   3.830
 5465SOL    HW217295   6.432   6.489   3.785
 5466SOL     OW17296   5.958   2.425   5.074
 5466SOL    HW117297   5.958   2.335   5.031
 5466SOL    HW217298   5.976   2.495   5.004
 5467SOL     OW17299   4.620   2.581   4.363
 5467SOL    HW117300   4.614   2.515   4.439
 5467SOL    HW217301   4.562   2.549   4.288
 5468SOL     OW17302   6.969   1.612   1.000
 5468SOL    HW117303   6.883   1.663   0.989
 5468SOL    HW217304   6.949   1.514   1.001
 5469SOL     OW17305   3.395   0.234   5.301
 5469SOL    HW117306   3.357   0.261   5.213
 5469SOL    HW217307   3.349   0.283   5.375
 5470SOL     OW17308   3.575   5.203   3.459
 5470SOL    HW117309   3.553   5.280   3.519
 5470SOL    HW217310   3.495   5.182   3.403
 5471SOL     OW17311   4.462   0.884   3.198
 5471SOL    HW117312   4.468   0.976   3.236
 5471SOL    HW217313   4.549   0.837   3.209
 5472SOL     OW17314   2.698   2.219   6.799
 5472SOL    HW117315   2.602   2.223   6.827
 5472SOL    HW217316   2.723   2.304   6.752
 5473SOL     OW17317   2.727   4.549   1.624
 5473SOL    HW117318   2.641   4.500   1.634
 5473SOL    HW217319   2.787   4.528   1.701
 5474SOL     OW17320   0.957   5.240   2.918
 5474SOL    HW117321   0.978   5.204   2.827
 5474SOL    HW217322   0.963   5.165   2.985
 5475SOL     OW17323   0.006   1.614   5.296
 5475SOL    HW117324   6.990   1.678   5.359
 5475SOL    HW217325   0.089   1.656   5.258
 5476SOL     OW17326   2.665   6.538   5.930
 5476SOL    HW117327   2.627   6.587   5.851
 5476SOL    HW217328   2.757   6.571   5.948
 5477SOL     OW17329   1.336   4.409   4.499
 5477SOL    HW117330   1.298   4.473   4.565
 5477SOL    HW217331   1.310   4.316   4.524
 5478SOL     OW17332   5.603   3.997   5.491
 5478SOL    HW117333   5.563   3.908   5.513
 5478SOL    HW217334   5.545   4.070   5.527
 5479SOL     OW17335   3.772   1.107   4.756
 5479SOL    HW117336   3.710   1.183   4.733
 5479SOL    HW217337   3.811   1.069   4.672
 5480SOL     OW17338   7.023   3.976   4.135
 5480SOL    HW117339   0.013   3.905   4.202
 5480SOL    HW217340   0.019   4.065   4.174
 5481SOL     OW17341   4.465   0.729   6.717
 5481SOL    HW117342   4.478   0.766   6.809
 5481SOL    HW217343   4.540   0.667   6.696
 5482SOL     OW17344   5.216   2.787   1.260
 5482SOL    HW117345   5.295   2.729   1.281
 5482SOL    HW217346   5.156   2.791   1.339
 5483SOL     OW17347   0.236   3.175   5.617
 5483SOL    HW117348   0.236   3.275   5.617
 5483SOL    HW217349   0.267   3.142   5.528
 5484SOL     OW17350   5.809   6.429   4.305
 5484SOL    HW117351   5.765   6.413   4.394
 5484SOL    HW217352   5.752   6.392   4.232
 5485SOL     OW17353   3.130   6.955   5.500
 5485SOL    HW117354   3.214   6.920   5.542
 5485SOL    HW217355   3.088   6.883   5.445
 5486SOL     OW17356   0.443   0.748   3.325
 5486SOL    HW117357   0.392   0.827   3.293
 5486SOL    HW217358   0.521   0.732   3.263
 5487SOL     OW17359   5.458   5.147   0.525
 5487SOL    HW117360   5.479   5.065   0.578
 5487SOL    HW217361   5.425   5.121   0.434
 5488SOL     OW17362   5.510   1.672   6.343
 5488SOL    HW117363   5.536   1.578   6.319
 5488SOL    HW217364   5.420   1.692   6.305
 5489SOL     OW17365   1.305   4.190   3.198
 5489SOL    HW117366   1.385   4.182   3.258
 5489SOL    HW217367   1.308   4.278   3.151
 5490SOL     OW17368   2.104   1.388   0.728
 5490SOL    HW117369   2.191   1.339   0.728
 5490SOL    HW217370   2.119   1.482   0.761
 5491SOL     OW17371   1.051   4.935   0.897
 5491SOL    HW117372   1.076   4.947   0.801
 5491SOL    HW217373   1.055   5.024   0.944
 5492SOL     OW17374   0.882   1.392   6.523
 5492SOL    HW117375   0.948   1.424   6.455
 5492SOL    HW217376   0.820   1.326   6.482
 5493SOL     OW17377   3.647   3.529   6.903
 5493SOL    HW117378   3.556   3.541   6.943
 5493SOL    HW217379   3.704   3.474   6.964
 5494SOL     OW17380   5.720   2.812   1.690
 5494SOL    HW117381   5.778   2.767   1.757
 5494SOL    HW217382   5.706   2.907   1.717
 5495SOL     OW17383   3.934   3.610   2.463
 5495SOL    HW117384   3.985   3.609   2.549
 5495SOL    HW217385   3.985   3.663   2.395
 5496SOL     OW17386   3.988   5.902   1.538
 5496SOL    HW117387   3.967   5.943   1.627
 5496SOL    HW217388   3.938   5.951   1.467
 5497SOL     OW17389   6.434   0.652   1.717
 5497SOL    HW117390   6.507   0.675   1.652
 5497SOL    HW217391   6.395   0.736   1.755
 5498SOL     OW17392   4.174   0.927   5.462
 5498SOL    HW117393   4.123   0.995   5.409
 5498SOL    HW217394   4.113   0.883   5.527
 5499SOL     OW17395   0.147   1.344   2.856
 5499SOL    HW117396   0.109   1.420   2.803
 5499SOL    HW217397   0.085   1.321   2.931
 5500SOL     OW17398   2.260   5.635   1.479
 5500SOL    HW117399   2.316   5.554   1.459
 5500SOL    HW217400   2.165   5.607   1.493
 5501SOL     OW17401   2.820   0.391   2.178
 5501SOL    HW117402   2.782   0.471   2.134
 5501SOL    HW217403   2.889   0.419   2.246
 5502SOL     OW17404   5.876   3.793   5.493
 5502SOL    HW117405   5.919   3.779   5.404
 5502SOL    HW217406   5.812   3.869   5.488
 5503SOL     OW17407   1.214   5.270   3.507
 5503SOL    HW117408   1.220   5.174   3.480
 5503SOL    HW217409   1.288   5.291   3.571
 5504SOL     OW17410   3.129   1.953   5.128
 5504SOL    HW117411   3.064   1.997   5.065
 5504SOL    HW217412   3.217   1.941   5.082
 5505SOL     OW17413   2.944   5.488   5.824
 5505SOL    HW117414   2.930   5.422   5.750
 5505SOL    HW217415   2.864   5.487   5.885
 5506SOL     OW17416   6.307   0.597   5.614
 5506SOL    HW117417   6.240   0.527   5.587
 5506SOL    HW217418   6.260   0.685   5.625
 5507SOL     OW17419   2.358   6.092   4.116
 5507SOL    HW117420   2.457   6.096   4.101
 5507SOL    HW217421   2.321   6.185   4.121
 5508SOL     OW17422   3.429   0.779   6.628
 5508SOL    HW117423   3.340   0.780   6.675
 5508SOL    HW217424   3.487   0.852   6.665
 5509SOL     OW17425   5.960   7.011   6.664
 5509SOL    HW117426   5.880   0.029   6.624
 5509SOL    HW217427   6.019   0.053   6.705
 5510SOL     OW17428   5.464   0.884   6.040
 5510SOL    HW117429   5.527   0.917   6.111
 5510SOL    HW217430   5.515   0.838   5.968
 5511SOL     OW17431   0.509   0.615   2.230
 5511SOL    HW117432   0.590   0.559   2.245
 5511SOL    HW217433   0.535   0.711   2.227
 5512SOL     OW17434   1.277   0.507   6.813
 5512SOL    HW117435   1.260   0.438   6.885
 5512SOL    HW217436   1.288   0.597   6.855
 5513SOL     OW17437   4.669   4.348   4.447
 5513SOL    HW117438   4.683   4.253   4.477
 5513SOL    HW217439   4.681   4.354   4.348
 5514SOL     OW17440   5.199   4.561   2.316
 5514SOL    HW117441   5.211   4.631   2.245
 5514SOL    HW217442   5.285   4.548   2.364
 5515SOL     OW17443   6.768   2.629   1.618
 5515SOL    HW117444   6.733   2.668   1.703
 5515SOL    HW217445   6.868   2.639   1.615
 5516SOL     OW17446   1.193   3.878   6.433
 5516SOL    HW117447   1.133   3.843   6.361
 5516SOL    HW217448   1.209   3.976   6.418
 5517SOL     OW17449   2.603   1.759   2.032
 5517SOL    HW117450   2.697   1.754   2.065
 5517SOL    HW217451   2.597   1.827   1.959
 5518SOL     OW17452   6.136   5.235   5.157
 5518SOL    HW117453   6.087   5.175   5.093
 5518SOL    HW217454   6.136   5.328   5.121
 5519SOL     OW17455   5.237   4.040   3.837
 5519SOL    HW117456   5.150   4.021   3.882
 5519SOL    HW217457   5.239   3.993   3.748
 5520SOL     OW17458   1.388   4.076   1.859
 5520SOL    HW117459   1.301   4.124   1.854
 5520SOL    HW217460   1.462   4.141   1.878
 5521SOL     OW17461   6.010   5.310   1.675
 5521SOL    HW117462   5.926   5.328   1.624
 5521SOL    HW217463   6.081   5.374   1.645
 5522SOL     OW17464   2.562   3.559   1.681
 5522SOL    HW117465   2.630   3.486   1.679
 5522SOL    HW217466   2.481   3.529   1.731
 5523SOL     OW17467   3.327   0.487   2.511
 5523SOL    HW117468   3.282   0.398   2.521
 5523SOL    HW217469   3.362   0.497   2.418
 5524SOL     OW17470   0.121   4.838   5.943
 5524SOL    HW117471   0.078   4.924   5.915
 5524SOL    HW217472   0.153   4.846   6.038
 5525SOL     OW17473   6.458   5.612   5.616
 5525SOL    HW117474   6.405   5.644   5.694
 5525SOL    HW217475   6.498   5.690   5.568
 5526SOL     OW17476   6.459   3.271   4.224
 5526SOL    HW117477   6.526   3.301   4.292
 5526SOL    HW217478   6.382   3.226   4.271
 5527SOL     OW17479   1.395   3.342   1.471
 5527SOL    HW117480   1.301   3.345   1.437
 5527SOL    HW217481   1.407   3.260   1.526
 5528SOL     OW17482   0.624   3.788   4.476
 5528SOL    HW117483   0.573   3.703   4.484
 5528SOL    HW217484   0.572   3.853   4.420
 5529SOL     OW17485   2.529   1.627   4.757
 5529SOL    HW117486   2.582   1.682   4.693
 5529SOL    HW217487   2.583   1.549   4.788
 5530SOL     OW17488   1.000   2.525   0.441
 5530SOL    HW117489   1.085   2.520   0.389
 5530SOL    HW217490   0.922   2.524   0.378
 5531SOL     OW17491   3.473   2.855   5.716
 5531SOL    HW117492   3.518   2.772   5.683
 5531SOL    HW217493   3.543   2.921   5.746
 5532SOL     OW17494   2.337   1.644   1.323
 5532SOL    HW117495   2.322   1.625   1.226
 5532SOL    HW217496   2.381   1.733   1.333
 5533SOL     OW17497   3.660   1.201   1.658
 5533SOL    HW117498   3.673   1.102   1.649
 5533SOL    HW217499   3.674   1.228   1.754
 5534SOL     OW17500   0.421   3.950   6.595
 5534SOL    HW117501   0.481   4.018   6.636
 5534SOL    HW217502   0.332   3.951   6.640
 5535SOL     OW17503   6.622   3.113   2.375
 5535SOL    HW117504   6.573   3.066   2.301
 5535SOL    HW217505   6.581   3.088   2.463
 5536SOL     OW17506   2.640   0.911   3.927
 5536SOL    HW117507   2.670   1.003   3.953
 5536SOL    HW217508   2.696   0.844   3.975
 5537SOL     OW17509   4.224   0.239   5.196
 5537SOL    HW117510   4.159   0.222   5.271
 5537SOL    HW217511   4.194   0.189   5.115
 5538SOL     OW17512   4.398   1.436   0.029
 5538SOL    HW117513   4.336   1.359   0.041
 5538SOL    HW217514   4.356   1.503   6.995
 5539SOL     OW17515   2.574   6.811   1.555
 5539SOL    HW117516   2.487   6.781   1.596
 5539SOL    HW217517   2.591   6.906   1.581
 5540SOL     OW17518   5.285   1.909   0.019
 5540SOL    HW117519   5.259   1.874   0.109
 5540SOL    HW217520   5.215   1.973   7.014
 5541SOL     OW17521   4.651   3.758   6.606
 5541SOL    HW117522   4.553   3.741   6.621
 5541SOL    HW217523   4.664   3.852   6.574
 5542SOL     OW17524   5.566   4.072   6.513
 5542SOL    HW117525   5.612   4.124   6.584
 5542SOL    HW217526   5.467   4.069   6.532
 5543SOL     OW17527   1.586   0.177   1.025
 5543SOL    HW117528   1.519   0.122   1.075
 5543SOL    HW217529   1.635   0.119   0.960
 5544SOL     OW17530   4.462   5.178   6.180
 5544SOL    HW117531   4.428   5.128   6.101
 5544SOL    HW217532   4.431   5.273   6.177
 5545SOL     OW17533   4.412   0.963   2.948
 5545SOL    HW117534   4.416   0.947   3.046
 5545SOL    HW217535   4.341   1.031   2.927
 5546SOL     OW17536   7.027   6.225   5.680
 5546SOL    HW117537   7.006   6.306   5.625
 5546SOL    HW217538   6.989   6.144   5.636
 5547SOL     OW17539   5.346   1.403   5.400
 5547SOL    HW117540   5.271   1.336   5.392
 5547SOL    HW217541   5.417   1.380   5.334
 5548SOL     OW17542   6.953   4.063   5.020
 5548SOL    HW117543   6.966   3.982   5.078
 5548SOL    HW217544   7.019   4.062   4.945
 5549SOL     OW17545   3.889   3.456   1.835
 5549SOL    HW117546   3.919   3.453   1.740
 5549SOL    HW217547   3.822   3.383   1.851
 5550SOL     OW17548   1.833   4.459   3.294
 5550SOL    HW117549   1.798   4.375   3.337
 5550SOL    HW217550   1.780   4.537   3.327
 5551SOL     OW17551   2.209   5.565   3.612
 5551SOL    HW117552   2.230   5.582   3.708
 5551SOL    HW217553   2.196   5.652   3.565
 5552SOL     OW17554   6.943   6.867   6.146
 5552SOL    HW117555   6.849   6.902   6.138
 5552SOL    HW217556   6.943   6.785   6.204
 5553SOL     OW17557   4.934   0.514   6.643
 5553SOL    HW117558   4.966   0.512   6.738
 5553SOL    HW217559   5.000   0.466   6.584
 5554SOL     OW17560   5.904   3.073   0.959
 5554SOL    HW117561   5.983   3.132   0.943
 5554SOL    HW217562   5.853   3.061   0.874
 5555SOL     OW17563   1.195   4.127   2.819
 5555SOL    HW117564   1.256   4.201   2.790
 5555SOL    HW217565   1.146   4.091   2.740
 5556SOL     OW17566   6.751   0.948   4.107
 5556SOL    HW117567   6.814   0.989   4.041
 5556SOL    HW217568   6.707   1.020   4.160
 5557SOL     OW17569   3.110   5.435   2.276
 5557SOL    HW117570   3.121   5.513   2.339
 5557SOL    HW217571   3.200   5.411   2.239
 5558SOL     OW17572   3.416   4.526   0.813
 5558SOL    HW117573   3.449   4.532   0.718
 5558SOL    HW217574   3.493   4.504   0.873
 5559SOL     OW17575   1.341   7.023   2.795
 5559SOL    HW117576   1.428   6.987   2.830
 5559SOL    HW217577   1.276   6.947   2.786
 5560SOL     OW17578   0.220   5.491   2.947
 5560SOL    HW117579   0.163   5.412   2.926
 5560SOL    HW217580   0.306   5.460   2.987
 5561SOL     OW17581   3.016   1.024   3.795
 5561SOL    HW117582   3.006   0.952   3.727
 5561SOL    HW217583   3.023   0.984   3.886
 5562SOL     OW17584   4.281   4.134   0.304
 5562SOL    HW117585   4.346   4.103   0.374
 5562SOL    HW217586   4.275   4.234   0.306
 5563SOL     OW17587   3.197   4.857   3.219
 5563SOL    HW117588   3.196   4.949   3.258
 5563SOL    HW217589   3.117   4.806   3.252
 5564SOL     OW17590   5.310   0.491   5.896
 5564SOL    HW117591   5.313   0.433   5.977
 5564SOL    HW217592   5.292   0.586   5.924
 5565SOL     OW17593   3.915   3.325   0.505
 5565SOL    HW117594   3.875   3.297   0.418
 5565SOL    HW217595   3.863   3.402   0.542
 5566SOL     OW17596   0.825   3.807   0.520
 5566SOL    HW117597   0.906   3.865   0.516
 5566SOL    HW217598   0.817   3.767   0.612
 5567SOL     OW17599   6.798   3.612   1.523
 5567SOL    HW117600   6.744   3.696   1.516
 5567SOL    HW217601   6.806   3.585   1.619
 5568SOL     OW17602   4.274   6.456   2.555
 5568SOL    HW117603   4.369   6.467   2.526
 5568SOL    HW217604   4.263   6.366   2.599
 5569SOL     OW17605   2.814   2.032   3.560
 5569SOL    HW117606   2.870   2.114   3.571
 5569SOL    HW217607   2.736   2.037   3.622
 5570SOL     OW17608   6.421   3.370   3.576
 5570SOL    HW117609   6.494   3.372   3.644
 5570SOL    HW217610   6.366   3.454   3.584
 5571SOL     OW17611   0.067   5.419   2.059
 5571SOL    HW117612   0.036   5.417   2.154
 5571SOL    HW217613   0.158   5.459   2.054
 5572SOL     OW17614   1.420   3.572   5.213
 5572SOL    HW117615   1.350   3.578   5.141
 5572SOL    HW217616   1.394   3.629   5.290
 5573SOL     OW17617   1.287   5.261   5.470
 5573SOL    HW117618   1.346   5.192   5.511
 5573SOL    HW217619   1.192   5.236   5.484
 5574SOL     OW17620   0.847   2.421   6.278
 5574SOL    HW117621   0.874   2.447   6.371
 5574SOL    HW217622   0.857   2.500   6.218
 5575SOL     OW17623   0.875   0.446   1.756
 5575SOL    HW117624   0.920   0.504   1.688
 5575SOL    HW217625   0.861   0.499   1.840
 5576SOL     OW17626   2.297   4.484   3.329
 5576SOL    HW117627   2.280   4.506   3.233
 5576SOL    HW217628   2.267   4.560   3.386
 5577SOL     OW17629   1.453   3.453   6.852
 5577SOL    HW117630   1.361   3.414   6.845
 5577SOL    HW217631   1.450   3.533   6.912
 5578SOL     OW17632   3.749   3.173   3.303
 5578SOL    HW117633   3.818   3.240   3.275
 5578SOL    HW217634   3.694   3.211   3.378
 5579SOL     OW17635   0.234   3.195   1.034
 5579SOL    HW117636   0.321   3.242   1.021
 5579SOL    HW217637   0.230   3.115   0.974
 5580SOL     OW17638   4.845   1.663   6.010
 5580SOL    HW117639   4.933   1.701   6.039
 5580SOL    HW217640   4.846   1.648   5.911
 5581SOL     OW17641   0.698   1.885   1.153
 5581SOL    HW117642   0.765   1.813   1.135
 5581SOL    HW217643   0.615   1.844   1.190
 5582SOL     OW17644   2.586   3.659   6.632
 5582SOL    HW117645   2.629   3.708   6.556
 5582SOL    HW217646   2.609   3.561   6.625
 5583SOL     OW17647   4.903   0.488   2.499
 5583SOL    HW117648   4.994   0.461   2.469
 5583SOL    HW217649   4.865   0.554   2.434
 5584SOL     OW17650   6.785   4.186   4.665
 5584SOL    HW117651   6.717   4.189   4.592
 5584SOL    HW217652   6.791   4.275   4.709
 5585SOL     OW17653   4.989   4.571   2.639
 5585SOL    HW117654   5.012   4.508   2.713
 5585SOL    HW217655   4.963   4.518   2.558
 5586SOL     OW17656   6.634   3.697   5.859
 5586SOL    HW117657   6.717   3.658   5.820
 5586SOL    HW217658   6.654   3.736   5.949
 5587SOL     OW17659   4.210   1.268   6.498
 5587SOL    HW117660   4.192   1.177   6.536
 5587SOL    HW217661   4.248   1.259   6.406
 5588SOL     OW17662   2.556   6.774   2.829
 5588SOL    HW117663   2.490   6.698   2.824
 5588SOL    HW217664   2.644   6.744   2.792
 5589SOL     OW17665   5.766   4.378   6.134
 5589SOL    HW117666   5.847   4.436   6.134
 5589SOL    HW217667   5.723   4.382   6.225
 5590SOL     OW17668   5.232   5.618   3.755
 5590SOL    HW117669   5.289   5.698   3.771
 5590SOL    HW217670   5.138   5.638   3.784
 5591SOL     OW17671   0.199   1.814   1.810
 5591SOL    HW117672   0.108   1.796   1.845
 5591SOL    HW217673   0.231   1.903   1.843
 5592SOL     OW17674   1.636   4.894   3.375
 5592SOL    HW117675   1.660   4.867   3.282
 5592SOL    HW217676   1.545   4.860   3.397
 5593SOL     OW17677   6.912   2.707   6.709
 5593SOL    HW117678   6.935   2.792   6.661
 5593SOL    HW217679   6.827   2.721   6.762
 5594SOL     OW17680   4.959   1.383   4.767
 5594SOL    HW117681   4.908   1.313   4.818
 5594SOL    HW217682   4.897   1.458   4.744
 5595SOL     OW17683   1.271   2.355   5.049
 5595SOL    HW117684   1.353   2.392   5.005
 5595SOL    HW217685   1.294   2.269   5.095
 5596SOL     OW17686   3.917   6.914   2.855
 5596SOL    HW117687   3.881   6.861   2.778
 5596SOL    HW217688   3.945   6.851   2.928
 5597SOL     OW17689   4.951   2.736   4.327
 5597SOL    HW117690   4.995   2.662   4.276
 5597SOL    HW217691   4.874   2.772   4.274
 5598SOL     OW17692   4.616   2.720   3.550
 5598SOL    HW117693   4.711   2.729   3.581
 5598SOL    HW217694   4.568   2.807   3.563
 5599SOL     OW17695   1.251   0.495   4.751
 5599SOL    HW117696   1.292   0.569   4.804
 5599SOL    HW217697   1.295   0.490   4.661
 5600SOL     OW17698   1.040   2.213   3.191
 5600SOL    HW117699   1.053   2.309   3.169
 5600SOL    HW217700   1.100   2.157   3.133
 5601SOL     OW17701   2.521   0.797   5.764
 5601SOL    HW117702   2.544   0.708   5.803
 5601SOL    HW217703   2.459   0.845   5.826
 5602SOL     OW17704   0.476   1.314   0.934
 5602SOL    HW117705   0.539   1.326   0.858
 5602SOL    HW217706   0.453   1.403   0.974
 5603SOL     OW17707   5.488   1.748   0.061
 5603SOL    HW117708   5.537   1.778   0.143
 5603SOL    HW217709   5.410   1.809   0.045
 5604SOL     OW17710   6.591   1.980   5.748
 5604SOL    HW117711   6.579   1.889   5.708
 5604SOL    HW217712   6.566   2.049   5.680
 5605SOL     OW17713   0.559   1.147   4.961
 5605SOL    HW117714   0.584   1.096   4.879
 5605SOL    HW217715   0.637   1.205   4.988
 5606SOL     OW17716   5.710   6.350   1.249
 5606SOL    HW117717   5.741   6.289   1.175
 5606SOL    HW217718   5.650   6.299   1.311
 5607SOL     OW17719   5.388   1.293   2.321
 5607SOL    HW117720   5.471   1.238   2.328
 5607SOL    HW217721   5.339   1.291   2.408
 5608SOL     OW17722   4.516   0.395   4.341
 5608SOL    HW117723   4.420   0.373   4.354
 5608SOL    HW217724   4.569   0.369   4.422
 5609SOL     OW17725   2.100   5.873   0.501
 5609SOL    HW117726   2.158   5.803   0.544
 5609SOL    HW217727   2.036   5.909   0.569
 5610SOL     OW17728   4.911   0.179   0.278
 5610SOL    HW117729   4.897   0.267   0.324
 5610SOL    HW217730   4.927   0.195   0.181
 5611SOL     OW17731   1.817   4.921   2.727
 5611SOL    HW117732   1.805   4.972   2.641
 5611SOL    HW217733   1.760   4.962   2.798
 5612SOL     OW17734   3.810   2.176   6.325
 5612SOL    HW117735   3.781   2.135   6.239
 5612SOL    HW217736   3.910   2.190   6.323
 5613SOL     OW17737   4.747   3.959   2.709
 5613SOL    HW117738   4.756   4.058   2.693
 5613SOL    HW217739   4.651   3.933   2.702
 5614SOL     OW17740   4.380   2.347   3.376
 5614SOL    HW117741   4.409   2.266   3.325
 5614SOL    HW217742   4.441   2.423   3.354
 5615SOL     OW17743   0.452   0.412   6.338
 5615SOL    HW117744   0.428   0.315   6.341
 5615SOL    HW217745   0.428   0.455   6.426
 5616SOL     OW17746   2.260   0.580   5.232
 5616SOL    HW117747   2.250   0.515   5.307
 5616SOL    HW217748   2.217   0.667   5.257
 5617SOL     OW17749   2.377   7.019   6.099
 5617SOL    HW117750   2.351   0.044   6.180
 5617SOL    HW217751   2.476   7.025   6.085
 5618SOL     OW17752   6.967   4.006   4.591
 5618SOL    HW117753   6.901   4.078   4.614
 5618SOL    HW217754   0.021   4.017   4.649
 5619SOL     OW17755   2.837   3.875   6.495
 5619SOL    HW117756   2.832   3.788   6.446
 5619SOL    HW217757   2.851   3.858   6.593
 5620SOL     OW17758   3.802   3.203   0.280
 5620SOL    HW117759   3.815   3.129   0.215
 5620SOL    HW217760   3.708   3.201   0.315
 5621SOL     OW17761   1.537   1.467   5.816
 5621SOL    HW117762   1.446   1.446   5.851
 5621SOL    HW217763   1.557   1.563   5.833
 5622SOL     OW17764   4.792   0.051   5.857
 5622SOL    HW117765   4.840   7.001   5.897
 5622SOL    HW217766   4.814   0.134   5.909
 5623SOL     OW17767   1.852   6.360   6.310
 5623SOL    HW117768   1.815   6.271   6.284
 5623SOL    HW217769   1.807   6.432   6.258
 5624SOL     OW17770   1.409   4.742   3.448
 5624SOL    HW117771   1.411   4.717   3.545
 5624SOL    HW217772   1.442   4.666   3.393
 5625SOL     OW17773   6.146   2.309   4.265
 5625SOL    HW117774   6.087   2.367   4.321
 5625SOL    HW217775   6.123   2.320   4.169
 5626SOL     OW17776   2.850   6.497   4.906
 5626SOL    HW117777   2.846   6.399   4.885
 5626SOL    HW217778   2.874   6.510   5.002
 5627SOL     OW17779   1.482   5.919   0.960
 5627SOL    HW117780   1.558   5.942   0.899
 5627SOL    HW217781   1.483   5.821   0.979
 5628SOL     OW17782   1.375   2.307   5.732
 5628SOL    HW117783   1.375   2.207   5.734
 5628SOL    HW217784   1.397   2.342   5.823
 5629SOL     OW17785   3.191   3.642   1.705
 5629SOL    HW117786   3.106   3.653   1.756
 5629SOL    HW217787   3.268   3.643   1.768
 5630SOL     OW17788   1.614   4.999   0.871
 5630SOL    HW117789   1.530   4.978   0.822
 5630SOL    HW217790   1.681   5.037   0.807
 5631SOL     OW17791   4.054   1.906   0.216
 5631SOL    HW117792   3.962   1.911   0.177
 5631SOL    HW217793   4.051   1.936   0.312
 5632SOL     OW17794   4.365   3.885   6.088
 5632SOL    HW117795   4.291   3.887   6.155
 5632SOL    HW217796   4.429   3.960   6.106
 5633SOL     OW17797   6.582   2.444   3.419
 5633SOL    HW117798   6.588   2.544   3.412
 5633SOL    HW217799   6.651   2.411   3.484
 5634SOL     OW17800   2.931   5.311   5.562
 5634SOL    HW117801   3.018   5.269   5.537
 5634SOL    HW217802   2.915   5.391   5.504
 5635SOL     OW17803   2.127   3.124   4.958
 5635SOL    HW117804   2.204   3.064   4.981
 5635SOL    HW217805   2.127   3.141   4.859
 5636SOL     OW17806   3.479   5.965   2.502
 5636SOL    HW117807   3.522   6.041   2.453
 5636SOL    HW217808   3.379   5.977   2.500
 5637SOL     OW17809   5.854   6.897   3.896
 5637SOL    HW117810   5.932   6.906   3.957
 5637SOL    HW217811   5.770   6.922   3.946
 5638SOL     OW17812   5.717   2.813   1.002
 5638SOL    HW117813   5.803   2.842   0.960
 5638SOL    HW217814   5.667   2.893   1.034
 5639SOL     OW17815   0.488   1.516   6.604
 5639SOL    HW117816   0.469   1.522   6.702
 5639SOL    HW217817   0.581   1.484   6.590
 5640SOL     OW17818   2.745   0.445   4.219
 5640SOL    HW117819   2.687   0.378   4.173
 5640SOL    HW217820   2.712   0.459   4.313
 5641SOL     OW17821   6.881   4.297   6.144
 5641SOL    HW117822   6.828   4.267   6.223
 5641SOL    HW217823   6.832   4.368   6.095
 5642SOL     OW17824   1.822   0.459   0.068
 5642SOL    HW117825   1.871   0.410   0.140
 5642SOL    HW217826   1.872   0.542   0.043
 5643SOL     OW17827   5.657   2.148   4.556
 5643SOL    HW117828   5.661   2.202   4.640
 5643SOL    HW217829   5.745   2.153   4.509
 5644SOL     OW17830   2.873   6.974   5.295
 5644SOL    HW117831   2.834   0.026   5.341
 5644SOL    HW217832   2.957   7.001   5.248
 5645SOL     OW17833   6.481   3.781   3.281
 5645SOL    HW117834   6.565   3.751   3.327
 5645SOL    HW217835   6.432   3.702   3.245
 5646SOL     OW17836   2.304   4.600   3.080
 5646SOL    HW117837   2.251   4.682   3.104
 5646SOL    HW217838   2.258   4.551   3.006
 5647SOL     OW17839   5.320   6.299   2.004
 5647SOL    HW117840   5.363   6.218   2.045
 5647SOL    HW217841   5.383   6.340   1.938
 5648SOL     OW17842   2.820   6.010   3.104
 5648SOL    HW117843   2.752   5.952   3.058
 5648SOL    HW217844   2.819   6.101   3.063
 5649SOL     OW17845   0.948   5.609   4.009
 5649SOL    HW117846   1.041   5.605   3.974
 5649SOL    HW217847   0.900   5.524   3.989
 5650SOL     OW17848   0.784   4.778   0.451
 5650SOL    HW117849   0.793   4.679   0.461
 5650SOL    HW217850   0.783   4.820   0.542
 5651SOL     OW17851   1.409   0.311   0.508
 5651SOL    HW117852   1.442   0.324   0.601
 5651SOL    HW217853   1.412   0.398   0.459
 5652SOL     OW17854   0.051   5.093   2.168
 5652SOL    HW117855   0.026   5.185   2.138
 5652SOL    HW217856   0.116   5.099   2.244
 5653SOL     OW17857   0.034   6.356   1.027
 5653SOL    HW117858   6.970   6.322   1.049
 5653SOL    HW217859   0.085   6.372   1.111
 5654SOL     OW17860   1.410   6.275   4.899
 5654SOL    HW117861   1.486   6.339   4.910
 5654SOL    HW217862   1.345   6.311   4.832
 5655SOL     OW17863   6.153   3.143   3.955
 5655SOL    HW117864   6.179   3.063   4.010
 5655SOL    HW217865   6.136   3.114   3.861
 5656SOL     OW17866   0.288   3.320   6.601
 5656SOL    HW117867   0.299   3.363   6.512
 5656SOL    HW217868   0.352   3.243   6.609
 5657SOL     OW17869   4.412   4.569   4.061
 5657SOL    HW117870   4.318   4.597   4.077
 5657SOL    HW217871   4.471   4.606   4.133
 5658SOL     OW17872   1.764   2.631   5.927
 5658SOL    HW117873   1.743   2.690   5.849
 5658SOL    HW217874   1.790   2.688   6.005
 5659SOL     OW17875   3.282   4.076   6.645
 5659SOL    HW117876   3.256   4.138   6.719
 5659SOL    HW217877   3.382   4.068   6.641
 5660SOL     OW17878   4.817   6.993   6.368
 5660SOL    HW117879   4.814   6.937   6.285
 5660SOL    HW217880   4.754   6.955   6.436
 5661SOL     OW17881   0.662   5.797   6.052
 5661SOL    HW117882   0.569   5.792   6.088
 5661SOL    HW217883   0.659   5.805   5.952
 5662SOL     OW17884   2.406   6.361   3.307
 5662SOL    HW117885   2.427   6.293   3.236
 5662SOL    HW217886   2.409   6.318   3.397
 5663SOL     OW17887   1.215   2.653   1.118
 5663SOL    HW117888   1.120   2.638   1.144
 5663SOL    HW217889   1.219   2.686   1.023
 5664SOL     OW17890   5.440   4.424   4.604
 5664SOL    HW117891   5.378   4.487   4.651
 5664SOL    HW217892   5.415   4.419   4.507
 5665SOL     OW17893   1.888   0.072   0.470
 5665SOL    HW117894   1.820   0.103   0.536
 5665SOL    HW217895   1.864   0.107   0.379
 5666SOL     OW17896   6.316   1.373   3.973
 5666SOL    HW117897   6.408   1.334   3.967
 5666SOL    HW217898   6.260   1.317   4.034
 5667SOL     OW17899   1.522   4.929   4.934
 5667SOL    HW117900   1.597   4.909   4.872
 5667SOL    HW217901   1.514   5.028   4.946
 5668SOL     OW17902   6.301   2.764   2.943
 5668SOL    HW117903   6.393   2.728   2.932
 5668SOL    HW217904   6.279   2.772   3.040
 5669SOL     OW17905   6.140   3.665   6.787
 5669SOL    HW117906   6.142   3.707   6.696
 5669SOL    HW217907   6.077   3.717   6.845
 5670SOL     OW17908   1.194   2.832   2.491
 5670SOL    HW117909   1.114   2.772   2.493
 5670SOL    HW217910   1.238   2.824   2.401
 5671SOL     OW17911   6.706   6.382   3.570
 5671SOL    HW117912   6.702   6.377   3.471
 5671SOL    HW217913   6.617   6.358   3.609
 5672SOL     OW17914   4.962   4.075   5.023
 5672SOL    HW117915   4.928   4.005   5.087
 5672SOL    HW217916   5.053   4.048   4.991
 5673SOL     OW17917   0.536   6.966   1.904
 5673SOL    HW117918   0.628   6.956   1.940
 5673SOL    HW217919   0.485   0.002   1.962
 5674SOL     OW17920   1.413   5.165   5.042
 5674SOL    HW117921   1.460   5.248   5.072
 5674SOL    HW217922   1.332   5.150   5.099
 5675SOL     OW17923   2.812   1.217   0.154
 5675SOL    HW117924   2.906   1.184   0.164
 5675SOL    HW217925   2.791   1.230   0.057
 5676SOL     OW17926   2.717   2.350   1.809
 5676SOL    HW117927   2.652   2.312   1.874
 5676SOL    HW217928   2.807   2.357   1.853
 5677SOL     OW17929   6.815   0.889   1.012
 5677SOL    HW117930   6.721   0.920   1.028
 5677SOL    HW217931   6.833   0.884   0.914
 5678SOL     OW17932   3.522   1.592   1.958
 5678SOL    HW117933   3.507   1.496   1.934
 5678SOL    HW217934   3.507   1.605   2.056
 5679SOL     OW17935   6.248   3.001   4.772
 5679SOL    HW117936   6.279   3.089   4.807
 5679SOL    HW217937   6.151   3.008   4.748
 5680SOL     OW17938   1.083   5.317   5.854
 5680SOL    HW117939   1.022   5.331   5.931
 5680SOL    HW217940   1.112   5.406   5.818
 5681SOL     OW17941   0.467   4.184   3.181
 5681SOL    HW117942   0.420   4.155   3.098
 5681SOL    HW217943   0.565   4.162   3.173
 5682SOL     OW17944   2.199   4.585   2.523
 5682SOL    HW117945   2.221   4.657   2.588
 5682SOL    HW217946   2.262   4.508   2.536
 5683SOL     OW17947   4.283   2.430   0.223
 5683SOL    HW117948   4.351   2.363   0.253
 5683SOL    HW217949   4.295   2.448   0.125
 5684SOL     OW17950   2.133   2.765   5.727
 5684SOL    HW117951   2.203   2.698   5.752
 5684SOL    HW217952   2.173   2.834   5.667
 5685SOL     OW17953   2.315   2.417   4.023
 5685SOL    HW117954   2.397   2.387   4.072
 5685SOL    HW217955   2.235   2.403   4.082
 5686SOL     OW17956   3.572   0.470   5.970
 5686SOL    HW117957   3.571   0.469   5.870
 5686SOL    HW217958   3.606   0.383   6.003
 5687SOL     OW17959   1.124   6.118   5.554
 5687SOL    HW117960   1.209   6.085   5.513
 5687SOL    HW217961   1.085   6.190   5.497
 5688SOL     OW17962   2.071   3.785   3.229
 5688SOL    HW117963   2.104   3.718   3.296
 5688SOL    HW217964   2.072   3.743   3.138
 5689SOL     OW17965   1.298   0.828   0.924
 5689SOL    HW117966   1.320   0.862   1.015
 5689SOL    HW217967   1.207   0.786   0.925
 5690SOL     OW17968   0.749   5.539   0.147
 5690SOL    HW117969   0.804   5.524   0.065
 5690SOL    HW217970   0.668   5.593   0.125
 5691SOL     OW17971   3.701   1.147   2.405
 5691SOL    HW117972   3.689   1.127   2.308
 5691SOL    HW217973   3.659   1.074   2.459
 5692SOL     OW17974   4.914   5.544   1.302
 5692SOL    HW117975   4.861   5.550   1.387
 5692SOL    HW217976   4.942   5.449   1.287
 5693SOL     OW17977   3.586   0.659   0.851
 5693SOL    HW117978   3.643   0.668   0.770
 5693SOL    HW217979   3.592   0.743   0.906
 5694SOL     OW17980   0.542   0.376   2.640
 5694SOL    HW117981   0.469   0.421   2.693
 5694SOL    HW217982   0.624   0.433   2.642
 5695SOL     OW17983   1.208   0.770   1.753
 5695SOL    HW117984   1.132   0.745   1.693
 5695SOL    HW217985   1.289   0.790   1.699
 5696SOL     OW17986   1.310   0.217   4.419
 5696SOL    HW117987   1.258   0.175   4.345
 5696SOL    HW217988   1.278   0.183   4.507
 5697SOL     OW17989   6.591   2.907   1.424
 5697SOL    HW117990   6.606   2.817   1.383
 5697SOL    HW217991   6.502   2.942   1.395
 5698SOL     OW17992   1.716   3.137   3.346
 5698SOL    HW117993   1.683   3.068   3.282
 5698SOL    HW217994   1.652   3.213   3.351
 5699SOL     OW17995   2.198   2.587   3.484
 5699SOL    HW117996   2.284   2.604   3.531
 5699SOL    HW217997   2.124   2.636   3.530
 5700SOL     OW17998   6.345   0.400   1.728
 5700SOL    HW117999   6.372   0.492   1.700
 5700SOL    HW218000   6.421   0.357   1.778
 5701SOL     OW18001   6.262   1.323   1.275
 5701SOL    HW118002   6.339   1.369   1.318
 5701SOL    HW218003   6.179   1.377   1.288
 5702SOL     OW18004   2.103   0.086   4.833
 5702SOL    HW118005   2.120   0.179   4.801
 5702SOL    HW218006   2.014   0.055   4.799
 5703SOL     OW18007   6.724   3.791   6.108
 5703SOL    HW118008   6.729   3.826   6.202
 5703SOL    HW218009   6.814   3.758   6.080
 5704SOL     OW18010   5.069   4.014   3.437
 5704SOL    HW118011   5.000   4.084   3.417
 5704SOL    HW218012   5.102   3.975   3.352
 5705SOL     OW18013   5.974   6.296   6.160
 5705SOL    HW118014   5.936   6.386   6.138
 5705SOL    HW218015   6.069   6.306   6.190
 5706SOL     OW18016   5.869   2.124   0.410
 5706SOL    HW118017   5.868   2.064   0.329
 5706SOL    HW218018   5.920   2.208   0.388
 5707SOL     OW18019   5.223   6.634   1.483
 5707SOL    HW118020   5.133   6.636   1.526
 5707SOL    HW218021   5.213   6.616   1.385
 5708SOL     OW18022   4.738   5.407   3.515
 5708SOL    HW118023   4.654   5.406   3.569
 5708SOL    HW218024   4.809   5.456   3.565
 5709SOL     OW18025   1.146   1.117   1.774
 5709SOL    HW118026   1.151   1.060   1.855
 5709SOL    HW218027   1.055   1.110   1.733
 5710SOL     OW18028   2.516   2.870   0.989
 5710SOL    HW118029   2.499   2.781   1.031
 5710SOL    HW218030   2.614   2.883   0.975
 5711SOL     OW18031   5.159   0.595   1.478
 5711SOL    HW118032   5.098   0.600   1.557
 5711SOL    HW218033   5.108   0.558   1.400
 5712SOL     OW18034   6.851   6.245   1.142
 5712SOL    HW118035   6.825   6.173   1.077
 5712SOL    HW218036   6.878   6.203   1.228
 5713SOL     OW18037   2.820   5.992   0.694
 5713SOL    HW118038   2.808   5.922   0.624
 5713SOL    HW218039   2.731   6.028   0.721
 5714SOL     OW18040   5.888   5.774   1.398
 5714SOL    HW118041   5.986   5.780   1.381
 5714SOL    HW218042   5.850   5.866   1.409
 5715SOL     OW18043   1.214   0.110   0.515
 5715SOL    HW118044   1.207   0.040   0.586
 5715SOL    HW218045   1.310   0.135   0.503
 5716SOL     OW18046   0.913   4.634   6.059
 5716SOL    HW118047   0.924   4.583   6.144
 5716SOL    HW218048   1.003   4.666   6.028
 5717SOL     OW18049   2.135   4.827   3.059
 5717SOL    HW118050   2.122   4.836   2.960
 5717SOL    HW218051   2.050   4.793   3.100
 5718SOL     OW18052   1.077   3.173   0.427
 5718SOL    HW118053   1.039   3.099   0.484
 5718SOL    HW218054   1.177   3.170   0.431
 5719SOL     OW18055   3.081   3.597   1.463
 5719SOL    HW118056   2.986   3.626   1.474
 5719SOL    HW218057   3.133   3.623   1.545
 5720SOL     OW18058   2.312   5.488   6.021
 5720SOL    HW118059   2.240   5.444   6.075
 5720SOL    HW218060   2.285   5.490   5.924
 5721SOL     OW18061   5.030   3.993   6.793
 5721SOL    HW118062   5.078   3.934   6.728
 5721SOL    HW218063   4.989   4.070   6.744
 5722SOL     OW18064   0.880   0.715   5.349
 5722SOL    HW118065   0.909   0.739   5.442
 5722SOL    HW218066   0.795   0.661   5.354
 5723SOL     OW18067   4.089   3.322   0.195
 5723SOL    HW118068   4.118   3.347   0.287
 5723SOL    HW218069   4.086   3.222   0.187
 5724SOL     OW18070   5.473   2.399   3.222
 5724SOL    HW118071   5.386   2.396   3.270
 5724SOL    HW218072   5.457   2.414   3.124
 5725SOL     OW18073   5.874   4.878   3.386
 5725SOL    HW118074   5.895   4.866   3.289
 5725SOL    HW218075   5.925   4.811   3.440
 5726SOL     OW18076   4.727   4.154   3.192
 5726SOL    HW118077   4.745   4.181   3.097
 5726SOL    HW218078   4.744   4.056   3.202
 5727SOL     OW18079   1.330   2.408   4.583
 5727SOL    HW118080   1.362   2.484   4.639
 5727SOL    HW218081   1.230   2.405   4.583
 5728SOL     OW18082   4.993   5.969   5.207
 5728SOL    HW118083   4.908   6.000   5.250
 5728SOL    HW218084   5.063   6.040   5.216
 5729SOL     OW18085   2.407   1.568   6.110
 5729SOL    HW118086   2.491   1.516   6.096
 5729SOL    HW218087   2.430   1.661   6.140
 5730SOL     OW18088   6.742   4.507   5.991
 5730SOL    HW118089   6.645   4.517   6.009
 5730SOL    HW218090   6.756   4.460   5.904
 5731SOL     OW18091   0.166   6.433   1.584
 5731SOL    HW118092   0.141   6.511   1.528
 5731SOL    HW218093   0.141   6.451   1.679
 5732SOL     OW18094   0.956   6.582   4.289
 5732SOL    HW118095   0.999   6.579   4.198
 5732SOL    HW218096   0.910   6.495   4.307
 5733SOL     OW18097   3.719   6.801   5.270
 5733SOL    HW118098   3.799   6.856   5.248
 5733SOL    HW218099   3.690   6.750   5.189
 5734SOL     OW18100   1.627   6.085   3.455
 5734SOL    HW118101   1.717   6.081   3.410
 5734SOL    HW218102   1.556   6.066   3.388
 5735SOL     OW18103   3.161   1.182   1.779
 5735SOL    HW118104   3.081   1.167   1.837
 5735SOL    HW218105   3.173   1.280   1.763
 5736SOL     OW18106   0.770   5.667   6.830
 5736SOL    HW118107   0.778   5.746   6.770
 5736SOL    HW218108   0.677   5.630   6.825
 5737SOL     OW18109   4.900   4.975   6.708
 5737SOL    HW118110   4.878   4.935   6.619
 5737SOL    HW218111   4.997   5.000   6.710
 5738SOL     OW18112   1.451   3.383   6.437
 5738SOL    HW118113   1.539   3.376   6.391
 5738SOL    HW218114   1.389   3.438   6.380
 5739SOL     OW18115   1.017   1.060   0.899
 5739SOL    HW118116   1.031   1.144   0.951
 5739SOL    HW218117   1.027   0.981   0.960
 5740SOL     OW18118   3.985   5.816   6.512
 5740SOL    HW118119   3.981   5.728   6.560
 5740SOL    HW218120   3.894   5.859   6.514
 5741SOL     OW18121   6.967   5.599   5.075
 5741SOL    HW118122   6.920   5.682   5.046
 5741SOL    HW218123   0.039   5.612   5.067
 5742SOL     OW18124   6.540   6.535   2.914
 5742SOL    HW118125   6.555   6.527   3.013
 5742SOL    HW218126   6.452   6.581   2.898
 5743SOL     OW18127   1.626   6.300   5.205
 5743SOL    HW118128   1.685   6.295   5.285
 5743SOL    HW218129   1.583   6.391   5.201
 5744SOL     OW18130   5.852   0.713   0.584
 5744SOL    HW118131   5.825   0.648   0.512
 5744SOL    HW218132   5.851   0.667   0.672
 5745SOL     OW18133   2.110   1.932   4.335
 5745SOL    HW118134   2.054   1.853   4.362
 5745SOL    HW218135   2.083   1.963   4.244
 5746SOL     OW18136   4.539   2.353   6.811
 5746SOL    HW118137   4.533   2.268   6.864
 5746SOL    HW218138   4.601   2.340   6.734
 5747SOL     OW18139   0.861   5.706   3.229
 5747SOL    HW118140   0.791   5.672   3.291
 5747SOL    HW218141   0.870   5.805   3.240
 5748SOL     OW18142   2.793   5.953   2.743
 5748SOL    HW118143   2.739   6.011   2.803
 5748SOL    HW218144   2.889   5.955   2.772
 5749SOL     OW18145   2.227   2.343   3.314
 5749SOL    HW118146   2.221   2.434   3.356
 5749SOL    HW218147   2.159   2.335   3.241
 5750SOL     OW18148   6.310   5.617   3.177
 5750SOL    HW118149   6.342   5.565   3.098
 5750SOL    HW218150   6.265   5.555   3.242
 5751SOL     OW18151   2.481   3.613   5.437
 5751SOL    HW118152   2.481   3.601   5.536
 5751SOL    HW218153   2.435   3.535   5.394
 5752SOL     OW18154   6.770   6.880   6.645
 5752SOL    HW118155   6.745   6.849   6.554
 5752SOL    HW218156   6.780   6.979   6.645
 5753SOL     OW18157   3.711   2.417   0.281
 5753SOL    HW118158   3.709   2.337   0.222
 5753SOL    HW218159   3.806   2.442   0.299
 5754SOL     OW18160   6.383   4.820   1.571
 5754SOL    HW118161   6.368   4.918   1.578
 5754SOL    HW218162   6.479   4.799   1.591
 5755SOL     OW18163   3.074   4.244   0.347
 5755SOL    HW118164   3.056   4.328   0.399
 5755SOL    HW218165   3.059   4.262   0.249
 5756SOL     OW18166   6.732   5.560   4.318
 5756SOL    HW118167   6.788   5.490   4.363
 5756SOL    HW218168   6.654   5.584   4.376
 5757SOL     OW18169   7.011   5.207   0.711
 5757SOL    HW118170   6.970   5.116   0.720
 5757SOL    HW218171   6.942   5.277   0.732
 5758SOL     OW18172   1.585   2.450   5.573
 5758SOL    HW118173   1.490   2.463   5.544
 5758SOL    HW218174   1.587   2.386   5.650
 5759SOL     OW18175   5.358   1.729   6.066
 5759SOL    HW118176   5.401   1.819   6.067
 5759SOL    HW218177   5.401   1.673   5.995
 5760SOL     OW18178   1.741   5.649   2.441
 5760SOL    HW118179   1.783   5.728   2.487
 5760SOL    HW218180   1.805   5.612   2.374
 5761SOL     OW18181   4.746   6.992   4.401
 5761SOL    HW118182   4.763   6.910   4.346
 5761SOL    HW218183   4.822   0.028   4.390
 5762SOL     OW18184   5.753   6.022   1.384
 5762SOL    HW118185   5.776   5.994   1.478
 5762SOL    HW218186   5.681   6.092   1.387
 5763SOL     OW18187   1.345   0.552   1.412
 5763SOL    HW118188   1.388   0.581   1.326
 5763SOL    HW218189   1.415   0.520   1.475
 5764SOL     OW18190   5.115   3.606   5.620
 5764SOL    HW118191   5.198   3.567   5.660
 5764SOL    HW218192   5.035   3.575   5.672
 5765SOL     OW18193   5.868   4.433   6.995
 5765SOL    HW118194   5.880   4.518   0.018
 5765SOL    HW218195   5.773   4.426   6.965
 5766SOL     OW18196   2.952   2.192   2.600
 5766SOL    HW118197   2.890   2.127   2.555
 5766SOL    HW218198   3.028   2.214   2.539
 5767SOL     OW18199   0.123   6.669   1.453
 5767SOL    HW118200   0.148   6.682   1.357
 5767SOL    HW218201   0.095   6.756   1.493
 5768SOL     OW18202   6.682   1.996   2.460
 5768SOL    HW118203   6.744   2.051   2.516
 5768SOL    HW218204   6.719   1.988   2.368
 5769SOL     OW18205   2.273   5.800   4.362
 5769SOL    HW118206   2.227   5.712   4.371
 5769SOL    HW218207   2.225   5.868   4.417
 5770SOL     OW18208   6.128   0.546   1.085
 5770SOL    HW118209   6.178   0.500   1.159
 5770SOL    HW218210   6.152   0.643   1.084
 5771SOL     OW18211   1.492   1.538   0.980
 5771SOL    HW118212   1.522   1.630   0.953
 5771SOL    HW218213   1.570   1.476   0.977
 5772SOL     OW18214   5.577   3.970   0.062
 5772SOL    HW118215   5.667   4.009   0.081
 5772SOL    HW218216   5.547   3.916   0.140
 5773SOL     OW18217   5.318   5.781   4.602
 5773SOL    HW118218   5.303   5.873   4.638
 5773SOL    HW218219   5.300   5.781   4.503
 5774SOL     OW18220   1.848   5.616   4.238
 5774SOL    HW118221   1.843   5.629   4.139
 5774SOL    HW218222   1.767   5.566   4.270
 5775SOL     OW18223   0.331   6.429   6.011
 5775SOL    HW118224   0.423   6.440   5.971
 5775SOL    HW218225   0.303   6.515   6.053
 5776SOL     OW18226   4.839   0.421   5.637
 5776SOL    HW118227   4.766   0.354   5.644
 5776SOL    HW218228   4.922   0.385   5.679
 5777SOL     OW18229   0.388   1.130   4.379
 5777SOL    HW118230   0.460   1.199   4.373
 5777SOL    HW218231   0.410   1.052   4.320
 5778SOL     OW18232   1.346   0.009   3.899
 5778SOL    HW118233   1.325   7.009   3.993
 5778SOL    HW218234   1.273   7.005   3.838
 5779SOL     OW18235   4.334   0.998   1.916
 5779SOL    HW118236   4.386   1.072   1.873
 5779SOL    HW218237   4.257   1.036   1.967
 5780SOL     OW18238   5.780   3.895   1.704
 5780SOL    HW118239   5.841   3.841   1.762
 5780SOL    HW218240   5.733   3.963   1.760
 5781SOL     OW18241   1.663   5.436   4.852
 5781SOL    HW118242   1.568   5.469   4.847
 5781SOL    HW218243   1.708   5.477   4.932
 5782SOL     OW18244   2.851   1.740   2.481
 5782SOL    HW118245   2.795   1.822   2.494
 5782SOL    HW218246   2.809   1.681   2.412
 5783SOL     OW18247   1.520   6.905   1.167
 5783SOL    HW118248   1.434   6.897   1.116
 5783SOL    HW218249   1.574   6.821   1.154
 5784SOL     OW18250   1.759   6.036   0.241
 5784SOL    HW118251   1.837   6.001   0.189
 5784SOL    HW218252   1.699   6.088   0.180
 5785SOL     OW18253   1.764   1.747   0.474
 5785SOL    HW118254   1.822   1.800   0.412
 5785SOL    HW218255   1.690   1.705   0.422
 5786SOL     OW18256   1.328   3.501   1.866
 5786SOL    HW118257   1.242   3.454   1.885
 5786SOL    HW218258   1.313   3.600   1.864
 5787SOL     OW18259   6.742   3.189   4.944
 5787SOL    HW118260   6.803   3.122   4.988
 5787SOL    HW218261   6.776   3.211   4.853
 5788SOL     OW18262   2.663   1.296   2.231
 5788SOL    HW118263   2.715   1.220   2.268
 5788SOL    HW218264   2.725   1.360   2.184
 5789SOL     OW18265   3.678   4.342   6.405
 5789SOL    HW118266   3.744   4.266   6.407
 5789SOL    HW218267   3.640   4.351   6.313
 5790SOL     OW18268   5.228   5.759   4.131
 5790SOL    HW118269   5.145   5.804   4.162
 5790SOL    HW218270   5.251   5.790   4.039
 5791SOL     OW18271   3.959   1.509   2.382
 5791SOL    HW118272   3.909   1.474   2.303
 5791SOL    HW218273   3.956   1.442   2.455
 5792SOL     OW18274   4.824   3.102   2.967
 5792SOL    HW118275   4.847   3.097   2.870
 5792SOL    HW218276   4.853   3.190   3.005
 5793SOL     OW18277   4.597   2.061   5.840
 5793SOL    HW118278   4.576   2.138   5.780
 5793SOL    HW218279   4.694   2.062   5.864
 5794SOL     OW18280   4.303   0.242   0.257
 5794SOL    HW118281   4.336   0.165   0.311
 5794SOL    HW218282   4.369   0.317   0.262
 5795SOL     OW18283   2.035   6.035   1.745
 5795SOL    HW118284   2.028   6.131   1.718
 5795SOL    HW218285   1.995   5.977   1.674
 5796SOL     OW18286   4.747   2.447   6.595
 5796SOL    HW118287   4.844   2.472   6.598
 5796SOL    HW218288   4.691   2.529   6.602
 5797SOL     OW18289   5.366   2.491   1.097
 5797SOL    HW118290   5.425   2.523   1.171
 5797SOL    HW218291   5.289   2.554   1.085
 5798SOL     OW18292   1.685   4.225   5.698
 5798SOL    HW118293   1.649   4.132   5.709
 5798SOL    HW218294   1.624   4.290   5.744
 5799SOL     OW18295   2.361   6.550   3.514
 5799SOL    HW118296   2.286   6.559   3.448
 5799SOL    HW218297   2.382   6.453   3.526
 5800SOL     OW18298   0.714   0.052   1.612
 5800SOL    HW118299   0.666   0.137   1.633
 5800SOL    HW218300   0.688   0.020   1.521
 5801SOL     OW18301   2.388   1.977   2.890
 5801SOL    HW118302   2.457   1.934   2.947
 5801SOL    HW218303   2.371   2.070   2.922
 5802SOL     OW18304   0.403   1.336   1.510
 5802SOL    HW118305   0.425   1.266   1.577
 5802SOL    HW218306   0.326   1.391   1.542
 5803SOL     OW18307   0.361   4.995   3.964
 5803SOL    HW118308   0.376   4.968   4.059
 5803SOL    HW218309   0.373   4.915   3.905
 5804SOL     OW18310   5.764   1.670   3.560
 5804SOL    HW118311   5.715   1.757   3.565
 5804SOL    HW218312   5.826   1.663   3.638
 5805SOL     OW18313   1.846   2.495   1.738
 5805SOL    HW118314   1.929   2.460   1.694
 5805SOL    HW218315   1.843   2.595   1.729
 5806SOL     OW18316   0.157   4.179   2.028
 5806SOL    HW118317   0.188   4.127   2.107
 5806SOL    HW218318   0.179   4.275   2.041
 5807SOL     OW18319   0.949   0.192   1.292
 5807SOL    HW118320   0.857   0.158   1.307
 5807SOL    HW218321   1.006   0.119   1.253
 5808SOL     OW18322   6.843   6.815   5.726
 5808SOL    HW118323   6.931   6.853   5.755
 5808SOL    HW218324   6.820   6.850   5.635
 5809SOL     OW18325   0.738   2.333   5.717
 5809SOL    HW118326   0.787   2.251   5.747
 5809SOL    HW218327   0.792   2.380   5.647
 5810SOL     OW18328   3.671   6.972   5.687
 5810SOL    HW118329   3.649   0.042   5.695
 5810SOL    HW218330   3.752   6.951   5.741
 5811SOL     OW18331   2.986   3.880   6.065
 5811SOL    HW118332   2.960   3.816   5.993
 5811SOL    HW218333   2.956   3.972   6.040
 5812SOL     OW18334   5.469   2.225   0.333
 5812SOL    HW118335   5.386   2.270   0.299
 5812SOL    HW218336   5.484   2.251   0.428
 5813SOL     OW18337   4.923   6.435   0.233
 5813SOL    HW118338   4.897   6.529   0.256
 5813SOL    HW218339   4.887   6.373   0.303
 5814SOL     OW18340   5.067   1.498   1.108
 5814SOL    HW118341   5.060   1.407   1.067
 5814SOL    HW218342   5.162   1.528   1.107
 5815SOL     OW18343   6.384   1.625   4.035
 5815SOL    HW118344   6.445   1.640   4.113
 5815SOL    HW218345   6.371   1.526   4.022
 5816SOL     OW18346   0.646   3.394   2.429
 5816SOL    HW118347   0.655   3.321   2.497
 5816SOL    HW218348   0.718   3.384   2.360
 5817SOL     OW18349   6.374   3.504   3.191
 5817SOL    HW118350   6.310   3.452   3.247
 5817SOL    HW218351   6.436   3.441   3.144
 5818SOL     OW18352   2.124   0.151   5.658
 5818SOL    HW118353   2.078   0.089   5.595
 5818SOL    HW218354   2.080   0.240   5.657
 5819SOL     OW18355   4.414   5.206   0.238
 5819SOL    HW118356   4.514   5.209   0.248
 5819SOL    HW218357   4.389   5.126   0.184
 5820SOL     OW18358   5.409   5.749   2.180
 5820SOL    HW118359   5.470   5.738   2.102
 5820SOL    HW218360   5.314   5.757   2.147
 5821SOL     OW18361   6.803   0.056   0.643
 5821SOL    HW118362   6.752   0.045   0.558
 5821SOL    HW218363   6.752   0.014   0.718
 5822SOL     OW18364   1.891   3.253   2.760
 5822SOL    HW118365   1.983   3.291   2.768
 5822SOL    HW218366   1.837   3.282   2.839
 5823SOL     OW18367   2.297   5.637   3.911
 5823SOL    HW118368   2.234   5.567   3.945
 5823SOL    HW218369   2.251   5.726   3.910
 5824SOL     OW18370   0.745   0.098   2.240
 5824SOL    HW118371   0.770   0.086   2.336
 5824SOL    HW218372   0.827   0.102   2.184
 5825SOL     OW18373   6.021   0.671   4.367
 5825SOL    HW118374   6.046   0.756   4.414
 5825SOL    HW218375   5.942   0.689   4.308
 5826SOL     OW18376   0.036   0.073   5.061
 5826SOL    HW118377   0.112   0.116   5.014
 5826SOL    HW218378   0.029   0.109   5.154
 5827SOL     OW18379   2.444   4.442   4.669
 5827SOL    HW118380   2.423   4.399   4.581
 5827SOL    HW218381   2.437   4.374   4.742
 5828SOL     OW18382   4.270   6.519   4.733
 5828SOL    HW118383   4.177   6.499   4.703
 5828SOL    HW218384   4.331   6.523   4.654
 5829SOL     OW18385   2.234   1.153   4.196
 5829SOL    HW118386   2.240   1.069   4.142
 5829SOL    HW218387   2.209   1.130   4.290
 5830SOL     OW18388   3.727   5.662   4.516
 5830SOL    HW118389   3.650   5.718   4.547
 5830SOL    HW218390   3.701   5.566   4.517
 5831SOL     OW18391   1.562   2.243   5.162
 5831SOL    HW118392   1.661   2.239   5.167
 5831SOL    HW218393   1.527   2.161   5.115
 5832SOL     OW18394   2.718   5.021   1.539
 5832SOL    HW118395   2.805   5.068   1.526
 5832SOL    HW218396   2.674   5.006   1.451
 5833SOL     OW18397   3.496   4.353   6.613
 5833SOL    HW118398   3.529   4.296   6.687
 5833SOL    HW218399   3.552   4.340   6.532
 5834SOL     OW18400   5.665   2.773   6.168
 5834SOL    HW118401   5.572   2.748   6.196
 5834SOL    HW218402   5.698   2.709   6.099
 5835SOL     OW18403   5.349   1.700   2.450
 5835SOL    HW118404   5.260   1.710   2.494
 5835SOL    HW218405   5.412   1.768   2.486
 5836SOL     OW18406   4.799   6.515   3.656
 5836SOL    HW118407   4.767   6.606   3.628
 5836SOL    HW218408   4.725   6.449   3.644
 5837SOL     OW18409   3.178   4.732   0.199
 5837SOL    HW118410   3.242   4.807   0.182
 5837SOL    HW218411   3.085   4.763   0.181
 5838SOL     OW18412   2.861   2.086   1.096
 5838SOL    HW118413   2.786   2.072   1.161
 5838SOL    HW218414   2.895   1.998   1.065
 5839SOL     OW18415   2.087   2.034   0.896
 5839SOL    HW118416   2.075   1.960   0.962
 5839SOL    HW218417   2.154   2.099   0.930
 5840SOL     OW18418   0.919   3.257   3.187
 5840SOL    HW118419   0.920   3.184   3.255
 5840SOL    HW218420   0.826   3.271   3.154
 5841SOL     OW18421   4.976   2.175   0.598
 5841SOL    HW118422   5.041   2.242   0.634
 5841SOL    HW218423   4.915   2.145   0.671
 5842SOL     OW18424   2.284   1.756   0.937
 5842SOL    HW118425   2.220   1.678   0.939
 5842SOL    HW218426   2.324   1.764   0.846
 5843SOL     OW18427   1.813   3.797   1.168
 5843SOL    HW118428   1.903   3.816   1.129
 5843SOL    HW218429   1.824   3.750   1.256
 5844SOL     OW18430   0.530   0.042   5.205
 5844SOL    HW118431   0.617   0.035   5.253
 5844SOL    HW218432   0.514   6.986   5.151
 5845SOL     OW18433   1.232   6.777   1.863
 5845SOL    HW118434   1.141   6.757   1.899
 5845SOL    HW218435   1.242   6.876   1.854
 5846SOL     OW18436   6.369   4.004   6.012
 5846SOL    HW118437   6.402   3.937   6.078
 5846SOL    HW218438   6.343   4.088   6.060
 5847SOL     OW18439   2.629   3.848   0.523
 5847SOL    HW118440   2.588   3.832   0.433
 5847SOL    HW218441   2.712   3.903   0.512
 5848SOL     OW18442   1.783   5.109   2.215
 5848SOL    HW118443   1.867   5.163   2.204
 5848SOL    HW218444   1.805   5.012   2.202
 5849SOL     OW18445   3.809   6.043   5.478
 5849SOL    HW118446   3.730   6.022   5.419
 5849SOL    HW218447   3.893   6.036   5.424
 5850SOL     OW18448   1.192   1.687   2.414
 5850SOL    HW118449   1.230   1.695   2.322
 5850SOL    HW218450   1.262   1.713   2.481
 5851SOL     OW18451   6.070   4.088   4.493
 5851SOL    HW118452   6.066   4.006   4.551
 5851SOL    HW218453   6.126   4.068   4.413
 5852SOL     OW18454   4.928   4.004   2.482
 5852SOL    HW118455   4.908   3.932   2.548
 5852SOL    HW218456   4.956   3.963   2.395
 5853SOL     OW18457   3.452   4.998   5.613
 5853SOL    HW118458   3.358   4.983   5.643
 5853SOL    HW218459   3.496   5.064   5.673
 5854SOL     OW18460   3.013   4.500   5.490
 5854SOL    HW118461   2.976   4.477   5.400
 5854SOL    HW218462   3.110   4.477   5.492
 5855SOL     OW18463   2.051   3.363   3.204
 5855SOL    HW118464   2.050   3.357   3.304
 5855SOL    HW218465   1.994   3.440   3.175
 5856SOL     OW18466   1.497   6.800   3.331
 5856SOL    HW118467   1.405   6.829   3.357
 5856SOL    HW218468   1.550   6.880   3.303
 5857SOL     OW18469   6.273   4.259   6.591
 5857SOL    HW118470   6.300   4.346   6.633
 5857SOL    HW218471   6.178   4.239   6.613
 5858SOL     OW18472   1.967   0.546   3.326
 5858SOL    HW118473   1.869   0.536   3.306
 5858SOL    HW218474   2.019   0.489   3.262
 5859SOL     OW18475   6.102   0.254   1.738
 5859SOL    HW118476   6.045   0.257   1.656
 5859SOL    HW218477   6.186   0.305   1.722
 5860SOL     OW18478   0.637   4.337   3.584
 5860SOL    HW118479   0.702   4.376   3.519
 5860SOL    HW218480   0.687   4.297   3.661
 5861SOL     OW18481   5.170   1.116   5.789
 5861SOL    HW118482   5.116   1.033   5.773
 5861SOL    HW218483   5.111   1.196   5.780
 5862SOL     OW18484   0.163   5.773   2.247
 5862SOL    HW118485   0.242   5.834   2.242
 5862SOL    HW218486   0.193   5.681   2.274
 5863SOL     OW18487   4.331   0.397   5.557
 5863SOL    HW118488   4.295   0.450   5.634
 5863SOL    HW218489   4.288   0.428   5.472
 5864SOL     OW18490   3.276   3.939   2.378
 5864SOL    HW118491   3.341   3.980   2.314
 5864SOL    HW218492   3.187   3.928   2.333
 5865SOL     OW18493   6.356   0.704   5.897
 5865SOL    HW118494   6.368   0.637   5.823
 5865SOL    HW218495   6.378   0.796   5.862
 5866SOL     OW18496   3.618   2.857   3.215
 5866SOL    HW118497   3.542   2.913   3.180
 5866SOL    HW218498   3.588   2.762   3.223
 5867SOL     OW18499   3.803   1.757   2.036
 5867SOL    HW118500   3.741   1.758   1.958
 5867SOL    HW218501   3.815   1.664   2.069
 5868SOL     OW18502   1.161   1.381   5.712
 5868SOL    HW118503   1.207   1.425   5.789
 5868SOL    HW218504   1.189   1.285   5.707
 5869SOL     OW18505   0.317   5.844   4.027
 5869SOL    HW118506   0.386   5.804   3.967
 5869SOL    HW218507   0.281   5.772   4.087
 5870SOL     OW18508   4.073   4.813   4.346
 5870SOL    HW118509   4.069   4.753   4.267
 5870SOL    HW218510   4.013   4.892   4.331
 5871SOL     OW18511   3.249   3.662   3.923
 5871SOL    HW118512   3.216   3.725   3.993
 5871SOL    HW218513   3.177   3.597   3.899
 5872SOL     OW18514   4.335   5.705   1.904
 5872SOL    HW118515   4.430   5.723   1.929
 5872SOL    HW218516   4.320   5.732   1.809
 5873SOL     OW18517   3.733   5.481   2.320
 5873SOL    HW118518   3.800   5.407   2.326
 5873SOL    HW218519   3.697   5.501   2.411
 5874SOL     OW18520   2.471   4.798   5.850
 5874SOL    HW118521   2.545   4.863   5.867
 5874SOL    HW218522   2.507   4.718   5.801
 5875SOL     OW18523   2.514   1.163   0.894
 5875SOL    HW118524   2.538   1.087   0.834
 5875SOL    HW218525   2.547   1.145   0.986
 5876SOL     OW18526   3.476   3.325   1.885
 5876SOL    HW118527   3.409   3.375   1.831
 5876SOL    HW218528   3.482   3.366   1.976
 5877SOL     OW18529   5.843   4.388   0.342
 5877SOL    HW118530   5.908   4.464   0.345
 5877SOL    HW218531   5.756   4.417   0.381
 5878SOL     OW18532   2.349   4.340   2.560
 5878SOL    HW118533   2.414   4.365   2.489
 5878SOL    HW218534   2.325   4.243   2.551
 5879SOL     OW18535   6.997   4.154   5.619
 5879SOL    HW118536   6.903   4.122   5.624
 5879SOL    HW218537   6.999   4.249   5.588
 5880SOL     OW18538   2.104   6.061   0.953
 5880SOL    HW118539   2.127   6.069   1.049
 5880SOL    HW218540   2.105   5.964   0.927
 5881SOL     OW18541   0.556   5.623   4.547
 5881SOL    HW118542   0.631   5.556   4.542
 5881SOL    HW218543   0.481   5.584   4.601
 5882SOL     OW18544   4.895   1.138   1.543
 5882SOL    HW118545   4.900   1.217   1.604
 5882SOL    HW218546   4.970   1.142   1.477
 5883SOL     OW18547   0.287   3.703   5.739
 5883SOL    HW118548   0.362   3.663   5.793
 5883SOL    HW218549   0.199   3.675   5.779
 5884SOL     OW18550   1.308   1.459   2.903
 5884SOL    HW118551   1.217   1.468   2.944
 5884SOL    HW218552   1.353   1.378   2.939
 5885SOL     OW18553   6.311   6.774   1.352
 5885SOL    HW118554   6.352   6.723   1.277
 5885SOL    HW218555   6.214   6.752   1.359
 5886SOL     OW18556   1.285   1.490   5.934
 5886SOL    HW118557   1.315   1.489   6.029
 5886SOL    HW218558   1.244   1.578   5.912
 5887SOL     OW18559   3.723   6.948   4.521
 5887SOL    HW118560   3.735   6.850   4.536
 5887SOL    HW218561   3.759   6.999   4.599
 5888SOL     OW18562   2.453   0.430   3.796
 5888SOL    HW118563   2.388   0.365   3.756
 5888SOL    HW218564   2.545   0.412   3.761
 5889SOL     OW18565   2.878   0.577   0.949
 5889SOL    HW118566   2.927   0.556   1.034
 5889SOL    HW218567   2.861   0.492   0.899
 5890SOL     OW18568   2.680   4.959   5.976
 5890SOL    HW118569   2.754   4.958   6.043
 5890SOL    HW218570   2.716   4.983   5.886
 5891SOL     OW18571   3.346   4.050   0.045
 5891SOL    HW118572   3.332   4.111   6.994
 5891SOL    HW218573   3.320   4.097   0.129
 5892SOL     OW18574   0.806   6.810   1.694
 5892SOL    HW118575   0.755   6.801   1.780
 5892SOL    HW218576   0.779   6.895   1.648
 5893SOL     OW18577   1.353   0.903   3.829
 5893SOL    HW118578   1.357   0.825   3.767
 5893SOL    HW218579   1.384   0.985   3.781
 5894SOL     OW18580   1.017   3.712   3.535
 5894SOL    HW118581   1.078   3.689   3.459
 5894SOL    HW218582   1.045   3.799   3.575
 5895SOL     OW18583   5.476   3.820   4.033
 5895SOL    HW118584   5.533   3.800   4.114
 5895SOL    HW218585   5.380   3.817   4.059
 5896SOL     OW18586   3.606   2.507   6.633
 5896SOL    HW118587   3.594   2.445   6.555
 5896SOL    HW218588   3.703   2.529   6.643
 5897SOL     OW18589   3.863   0.082   0.866
 5897SOL    HW118590   3.826   0.174   0.853
 5897SOL    HW218591   3.862   0.033   0.779
 5898SOL     OW18592   1.953   0.125   2.557
 5898SOL    HW118593   2.011   0.205   2.542
 5898SOL    HW218594   1.881   0.122   2.488
 5899SOL     OW18595   5.738   0.013   4.309
 5899SOL    HW118596   5.716   6.967   4.244
 5899SOL    HW218597   5.838   0.025   4.314
 5900SOL     OW18598   4.725   5.215   2.723
 5900SOL    HW118599   4.653   5.176   2.665
 5900SOL    HW218600   4.728   5.314   2.710
 5901SOL     OW18601   2.690   6.665   5.631
 5901SOL    HW118602   2.628   6.693   5.704
 5901SOL    HW218603   2.672   6.570   5.606
 5902SOL     OW18604   6.511   2.223   6.587
 5902SOL    HW118605   6.417   2.258   6.579
 5902SOL    HW218606   6.525   2.151   6.519
 5903SOL     OW18607   6.102   3.010   6.660
 5903SOL    HW118608   6.112   2.910   6.658
 5903SOL    HW218609   6.166   3.051   6.595
 5904SOL     OW18610   6.957   3.488   2.752
 5904SOL    HW118611   6.889   3.527   2.690
 5904SOL    HW218612   0.015   3.540   2.746
 5905SOL     OW18613   6.866   5.693   2.203
 5905SOL    HW118614   6.882   5.700   2.105
 5905SOL    HW218615   6.926   5.623   2.242
 5906SOL     OW18616   5.902   1.068   3.626
 5906SOL    HW118617   5.865   1.160   3.613
 5906SOL    HW218618   5.954   1.064   3.711
 5907SOL     OW18619   1.243   5.710   1.986
 5907SOL    HW118620   1.226   5.655   2.067
 5907SOL    HW218621   1.341   5.717   1.970
 5908SOL     OW18622   6.741   3.128   5.321
 5908SOL    HW118623   6.786   3.090   5.240
 5908SOL    HW218624   6.742   3.061   5.394
 5909SOL     OW18625   6.823   5.384   0.818
 5909SOL    HW118626   6.741   5.340   0.779
 5909SOL    HW218627   6.810   5.483   0.819
 5910SOL     OW18628   2.470   2.570   3.284
 5910SOL    HW118629   2.470   2.545   3.381
 5910SOL    HW218630   2.552   2.624   3.263
 5911SOL     OW18631   6.439   6.116   6.029
 5911SOL    HW118632   6.437   6.081   5.935
 5911SOL    HW218633   6.480   6.047   6.089
 5912SOL     OW18634   0.253   1.150   3.521
 5912SOL    HW118635   0.171   1.183   3.473
 5912SOL    HW218636   0.255   1.050   3.518
 5913SOL     OW18637   5.480   2.445   6.708
 5913SOL    HW118638   5.462   2.369   6.770
 5913SOL    HW218639   5.575   2.441   6.676
 5914SOL     OW18640   0.918   6.678   0.113
 5914SOL    HW118641   0.922   6.758   0.053
 5914SOL    HW218642   1.008   6.660   0.152
 5915SOL     OW18643   4.231   1.715   6.659
 5915SOL    HW118644   4.247   1.652   6.583
 5915SOL    HW218645   4.207   1.805   6.623
 5916SOL     OW18646   0.766   5.999   2.702
 5916SOL    HW118647   0.686   6.031   2.753
 5916SOL    HW218648   0.737   5.971   2.610
 5917SOL     OW18649   3.412   4.384   0.163
 5917SOL    HW118650   3.399   4.309   0.228
 5917SOL    HW218651   3.494   4.436   0.188
 5918SOL     OW18652   3.413   6.044   5.790
 5918SOL    HW118653   3.431   6.141   5.802
 5918SOL    HW218654   3.494   5.999   5.752
 5919SOL     OW18655   3.839   2.988   3.109
 5919SOL    HW118656   3.825   3.065   3.172
 5919SOL    HW218657   3.775   2.915   3.131
 5920SOL     OW18658   6.900   0.260   5.751
 5920SOL    HW118659   6.964   0.284   5.824
 5920SOL    HW218660   6.812   0.234   5.791
 5921SOL     OW18661   3.317   5.014   6.277
 5921SOL    HW118662   3.387   5.012   6.207
 5921SOL    HW218663   3.352   4.970   6.360
 5922SOL     OW18664   5.166   3.644   3.403
 5922SOL    HW118665   5.196   3.726   3.354
 5922SOL    HW218666   5.066   3.639   3.401
 5923SOL     OW18667   6.667   0.422   1.555
 5923SOL    HW118668   6.652   0.516   1.587
 5923SOL    HW218669   6.617   0.359   1.614
 5924SOL     OW18670   6.124   0.251   3.250
 5924SOL    HW118671   6.150   0.173   3.308
 5924SOL    HW218672   6.046   0.225   3.192
 5925SOL     OW18673   4.610   6.171   1.569
 5925SOL    HW118674   4.642   6.125   1.651
 5925SOL    HW218675   4.687   6.186   1.507
 5926SOL     OW18676   4.179   5.382   3.398
 5926SOL    HW118677   4.218   5.416   3.312
 5926SOL    HW218678   4.123   5.302   3.379
 5927SOL     OW18679   1.035   4.549   1.841
 5927SOL    HW118680   1.031   4.637   1.888
 5927SOL    HW218681   0.942   4.512   1.832
 5928SOL     OW18682   3.428   0.437   0.886
 5928SOL    HW118683   3.486   0.518   0.883
 5928SOL    HW218684   3.383   0.423   0.798
 5929SOL     OW18685   0.968   0.916   6.342
 5929SOL    HW118686   0.944   0.960   6.429
 5929SOL    HW218687   0.885   0.893   6.292
 5930SOL     OW18688   1.395   3.448   2.315
 5930SOL    HW118689   1.335   3.370   2.331
 5930SOL    HW218690   1.431   3.443   2.221
 5931SOL     OW18691   5.205   6.063   3.188
 5931SOL    HW118692   5.229   6.034   3.096
 5931SOL    HW218693   5.216   6.162   3.196
 5932SOL     OW18694   2.411   1.458   6.976
 5932SOL    HW118695   2.480   1.482   0.017
 5932SOL    HW218696   2.347   1.393   7.017
 5933SOL     OW18697   6.370   6.035   3.686
 5933SOL    HW118698   6.408   5.943   3.682
 5933SOL    HW218699   6.271   6.031   3.696
 5934SOL     OW18700   2.963   3.659   5.858
 5934SOL    HW118701   3.022   3.578   5.860
 5934SOL    HW218702   2.917   3.666   5.769
 5935SOL     OW18703   6.662   6.232   5.426
 5935SOL    HW118704   6.718   6.229   5.343
 5935SOL    HW218705   6.566   6.235   5.401
 5936SOL     OW18706   2.902   3.145   1.908
 5936SOL    HW118707   2.971   3.217   1.903
 5936SOL    HW218708   2.936   3.072   1.967
 5937SOL     OW18709   6.866   3.141   1.698
 5937SOL    HW118710   6.862   3.205   1.621
 5937SOL    HW218711   6.874   3.191   1.784
 5938SOL     OW18712   6.895   5.168   5.234
 5938SOL    HW118713   6.994   5.162   5.225
 5938SOL    HW218714   6.853   5.167   5.143
 5939SOL     OW18715   3.879   0.026   4.721
 5939SOL    HW118716   3.843   0.096   4.782
 5939SOL    HW218717   3.953   0.065   4.666
 5940SOL     OW18718   4.571   6.232   2.548
 5940SOL    HW118719   4.560   6.319   2.500
 5940SOL    HW218720   4.669   6.209   2.552
 5941SOL     OW18721   6.774   1.891   1.533
 5941SOL    HW118722   6.827   1.838   1.467
 5941SOL    HW218723   6.694   1.837   1.562
 5942SOL     OW18724   6.004   3.535   5.822
 5942SOL    HW118725   6.090   3.550   5.774
 5942SOL    HW218726   5.931   3.516   5.756
 5943SOL     OW18727   3.289   3.824   1.158
 5943SOL    HW118728   3.272   3.726   1.168
 5943SOL    HW218729   3.203   3.874   1.167
 5944SOL     OW18730   0.965   3.411   6.160
 5944SOL    HW118731   0.915   3.497   6.150
 5944SOL    HW218732   1.047   3.427   6.215
 5945SOL     OW18733   0.153   5.497   5.478
 5945SOL    HW118734   0.245   5.489   5.442
 5945SOL    HW218735   0.088   5.462   5.411
 5946SOL     OW18736   3.540   3.922   1.099
 5946SOL    HW118737   3.533   3.952   1.003
 5946SOL    HW218738   3.452   3.884   1.128
 5947SOL     OW18739   3.234   3.118   4.758
 5947SOL    HW118740   3.214   3.048   4.826
 5947SOL    HW218741   3.256   3.205   4.803
 5948SOL     OW18742   5.175   3.759   1.802
 5948SOL    HW118743   5.176   3.717   1.892
 5948SOL    HW218744   5.247   3.828   1.796
 5949SOL     OW18745   7.025   4.432   2.487
 5949SOL    HW118746   0.067   4.488   2.442
 5949SOL    HW218747   0.015   4.430   2.586
 5950SOL     OW18748   4.936   1.593   5.619
 5950SOL    HW118749   5.012   1.629   5.672
 5950SOL    HW218750   4.855   1.584   5.677
 5951SOL     OW18751   1.186   4.254   5.863
 5951SOL    HW118752   1.196   4.180   5.796
 5951SOL    HW218753   1.150   4.217   5.949
 5952SOL     OW18754   4.003   5.170   0.973
 5952SOL    HW118755   3.943   5.092   0.954
 5952SOL    HW218756   4.098   5.145   0.953
 5953SOL     OW18757   5.730   2.277   4.778
 5953SOL    HW118758   5.811   2.319   4.735
 5953SOL    HW218759   5.673   2.349   4.817
 5954SOL     OW18760   0.808   6.463   4.688
 5954SOL    HW118761   0.726   6.509   4.652
 5954SOL    HW218762   0.883   6.477   4.624
 5955SOL     OW18763   5.957   3.814   0.812
 5955SOL    HW118764   6.010   3.815   0.728
 5955SOL    HW218765   6.018   3.827   0.890
 5956SOL     OW18766   4.813   2.427   4.210
 5956SOL    HW118767   4.749   2.353   4.189
 5956SOL    HW218768   4.764   2.501   4.256
 5957SOL     OW18769   1.212   1.134   2.383
 5957SOL    HW118770   1.203   1.227   2.420
 5957SOL    HW218771   1.198   1.068   2.456
 5958SOL     OW18772   3.655   6.778   2.835
 5958SOL    HW118773   3.652   6.729   2.922
 5958SOL    HW218774   3.592   6.734   2.770
 5959SOL     OW18775   5.076   2.324   4.561
 5959SOL    HW118776   5.129   2.378   4.496
 5959SOL    HW218777   5.006   2.272   4.513
 5960SOL     OW18778   4.505   0.021   5.722
 5960SOL    HW118779   4.505   0.078   5.804
 5960SOL    HW218780   4.595   7.007   5.710
 5961SOL     OW18781   2.927   1.735   2.985
 5961SOL    HW118782   2.989   1.759   3.060
 5961SOL    HW218783   2.969   1.760   2.898
 5962SOL     OW18784   5.805   6.100   0.428
 5962SOL    HW118785   5.727   6.042   0.450
 5962SOL    HW218786   5.820   6.103   0.330
 5963SOL     OW18787   3.938   4.550   0.118
 5963SOL    HW118788   4.032   4.574   0.141
 5963SOL    HW218789   3.926   4.451   0.128
 5964SOL     OW18790   2.240   6.387   2.515
 5964SOL    HW118791   2.175   6.332   2.463
 5964SOL    HW218792   2.221   6.377   2.613
 5965SOL     OW18793   1.799   6.459   6.896
 5965SOL    HW118794   1.808   6.558   6.898
 5965SOL    HW218795   1.859   6.421   6.826
 5966SOL     OW18796   2.089   0.913   5.544
 5966SOL    HW118797   2.188   0.912   5.541
 5966SOL    HW218798   2.054   0.987   5.488
 5967SOL     OW18799   2.295   1.624   4.164
 5967SOL    HW118800   2.381   1.615   4.114
 5967SOL    HW218801   2.310   1.681   4.246
 5968SOL     OW18802   5.714   2.163   0.770
 5968SOL    HW118803   5.717   2.088   0.705
 5968SOL    HW218804   5.782   2.232   0.745
 5969SOL     OW18805   5.423   0.882   7.020
 5969SOL    HW118806   5.449   0.927   0.078
 5969SOL    HW218807   5.358   0.939   6.970
 5970SOL     OW18808   0.366   2.995   0.582
 5970SOL    HW118809   0.465   2.992   0.570
 5970SOL    HW218810   0.323   2.927   0.522
 5971SOL     OW18811   6.873   6.987   3.647
 5971SOL    HW118812   6.811   0.010   3.587
 5971SOL    HW218813   6.849   6.890   3.645
 5972SOL     OW18814   5.148   5.272   0.972
 5972SOL    HW118815   5.055   5.307   0.976
 5972SOL    HW218816   5.186   5.266   1.064
 5973SOL     OW18817   1.909   2.821   2.799
 5973SOL    HW118818   1.860   2.746   2.844
 5973SOL    HW218819   1.976   2.860   2.863
 5974SOL     OW18820   4.465   1.631   6.077
 5974SOL    HW118821   4.539   1.696   6.059
 5974SOL    HW218822   4.410   1.620   5.995
 5975SOL     OW18823   5.823   4.903   0.539
 5975SOL    HW118824   5.814   5.003   0.537
 5975SOL    HW218825   5.878   4.877   0.618
 5976SOL     OW18826   3.222   3.733   5.601
 5976SOL    HW118827   3.185   3.718   5.509
 5976SOL    HW218828   3.169   3.803   5.648
 5977SOL     OW18829   6.885   4.883   0.291
 5977SOL    HW118830   6.975   4.920   0.316
 5977SOL    HW218831   6.843   4.841   0.372
 5978SOL     OW18832   3.258   4.978   0.446
 5978SOL    HW118833   3.161   4.999   0.463
 5978SOL    HW218834   3.292   5.039   0.374
 5979SOL     OW18835   6.210   0.441   1.370
 5979SOL    HW118836   6.256   0.352   1.362
 5979SOL    HW218837   6.115   0.426   1.398
 5980SOL     OW18838   3.578   2.917   1.684
 5980SOL    HW118839   3.648   2.850   1.660
 5980SOL    HW218840   3.500   2.871   1.725
 5981SOL     OW18841   2.964   2.400   0.212
 5981SOL    HW118842   3.011   2.410   0.124
 5981SOL    HW218843   2.995   2.473   0.274
 5982SOL     OW18844   6.245   2.365   1.792
 5982SOL    HW118845   6.289   2.331   1.875
 5982SOL    HW218846   6.204   2.289   1.742
 5983SOL     OW18847   0.317   0.949   3.970
 5983SOL    HW118848   0.222   0.921   3.951
 5983SOL    HW218849   0.375   0.868   3.972
 5984SOL     OW18850   5.981   6.219   3.164
 5984SOL    HW118851   5.950   6.174   3.080
 5984SOL    HW218852   5.930   6.304   3.177
 5985SOL     OW18853   6.186   2.305   2.752
 5985SOL    HW118854   6.171   2.267   2.843
 5985SOL    HW218855   6.107   2.282   2.694
 5986SOL     OW18856   4.144   3.614   5.777
 5986SOL    HW118857   4.158   3.709   5.805
 5986SOL    HW218858   4.120   3.611   5.680
 5987SOL     OW18859   6.563   0.734   5.052
 5987SOL    HW118860   6.623   0.753   5.130
 5987SOL    HW218861   6.511   0.650   5.069
 5988SOL     OW18862   2.122   2.068   0.045
 5988SOL    HW118863   2.170   2.062   0.132
 5988SOL    HW218864   2.039   2.123   0.057
 5989SOL     OW18865   0.247   6.169   6.688
 5989SOL    HW118866   0.256   6.254   6.740
 5989SOL    HW218867   0.338   6.136   6.663
 5990SOL     OW18868   4.031   5.068   1.443
 5990SOL    HW118869   3.968   5.062   1.366
 5990SOL    HW218870   4.091   4.988   1.443
 5991SOL     OW18871   5.224   6.330   0.551
 5991SOL    HW118872   5.249   6.275   0.471
 5991SOL    HW218873   5.243   6.426   0.531
 5992SOL     OW18874   3.652   0.015   2.038
 5992SOL    HW118875   3.569   0.024   1.983
 5992SOL    HW218876   3.727   0.063   1.995
 5993SOL     OW18877   5.865   2.043   6.921
 5993SOL    HW118878   5.955   2.039   6.964
 5993SOL    HW218879   5.860   1.976   6.847
 5994SOL     OW18880   0.721   2.539   0.310
 5994SOL    HW118881   0.771   2.599   0.246
 5994SOL    HW218882   0.674   2.595   0.378
 5995SOL     OW18883   5.056   3.417   1.655
 5995SOL    HW118884   5.077   3.506   1.616
 5995SOL    HW218885   5.058   3.347   1.583
 5996SOL     OW18886   2.918   5.426   1.335
 5996SOL    HW118887   2.893   5.516   1.370
 5996SOL    HW218888   2.843   5.388   1.282
 5997SOL     OW18889   0.094   0.053   3.654
 5997SOL    HW118890   0.002   0.017   3.641
 5997SOL    HW218891   0.125   0.033   3.747
 5998SOL     OW18892   6.441   0.634   1.364
 5998SOL    HW118893   6.387   0.549   1.358
 5998SOL    HW218894   6.441   0.679   1.274
 5999SOL     OW18895   4.152   2.993   1.398
 5999SOL    HW118896   4.165   2.954   1.307
 5999SOL    HW218897   4.156   2.919   1.466
 6000SOL     OW18898   6.509   5.059   6.750
 6000SOL    HW118899   6.553   5.117   6.819
 6000SOL    HW218900   6.578   5.004   6.704
 6001SOL     OW18901   5.704   6.365   5.167
 6001SOL    HW118902   5.715   6.313   5.251
 6001SOL    HW218903   5.794   6.383   5.126
 6002SOL     OW18904   6.335   6.301   4.735
 6002SOL    HW118905   6.268   6.266   4.800
 6002SOL    HW218906   6.339   6.241   4.656
 6003SOL     OW18907   6.908   3.106   3.950
 6003SOL    HW118908   6.836   3.139   4.010
 6003SOL    HW218909   6.984   3.072   4.005
 6004SOL     OW18910   5.696   2.786   3.624
 6004SOL    HW118911   5.669   2.870   3.577
 6004SOL    HW218912   5.728   2.719   3.558
 6005SOL     OW18913   4.023   4.961   6.094
 6005SOL    HW118914   3.986   4.913   6.014
 6005SOL    HW218915   4.031   5.058   6.074
 6006SOL     OW18916   3.686   5.706   5.511
 6006SOL    HW118917   3.688   5.637   5.583
 6006SOL    HW218918   3.597   5.704   5.465
 6007SOL     OW18919   1.446   5.048   5.579
 6007SOL    HW118920   1.484   4.982   5.514
 6007SOL    HW218921   1.515   5.070   5.649
 6008SOL     OW18922   2.414   5.047   6.021
 6008SOL    HW118923   2.374   4.957   6.040
 6008SOL    HW218924   2.504   5.035   5.978
 6009SOL     OW18925   4.016   5.135   3.377
 6009SOL    HW118926   4.081   5.082   3.431
 6009SOL    HW218927   3.953   5.072   3.331
 6010SOL     OW18928   6.930   4.968   4.799
 6010SOL    HW118929   6.897   5.043   4.856
 6010SOL    HW218930   6.944   4.886   4.856
 6011SOL     OW18931   6.238   1.499   2.323
 6011SOL    HW118932   6.260   1.536   2.232
 6011SOL    HW218933   6.143   1.469   2.324
 6012SOL     OW18934   0.105   0.349   5.942
 6012SOL    HW118935   0.190   0.297   5.935
 6012SOL    HW218936   0.076   0.352   6.038
 6013SOL     OW18937   5.615   1.076   2.427
 6013SOL    HW118938   5.545   1.033   2.371
 6013SOL    HW218939   5.670   1.137   2.370
 6014SOL     OW18940   3.653   2.961   4.112
 6014SOL    HW118941   3.701   2.991   4.194
 6014SOL    HW218942   3.715   2.965   4.033
 6015SOL     OW18943   6.592   1.647   4.234
 6015SOL    HW118944   6.580   1.722   4.299
 6015SOL    HW218945   6.651   1.577   4.274
 6016SOL     OW18946   5.233   1.608   4.705
 6016SOL    HW118947   5.170   1.566   4.639
 6016SOL    HW218948   5.236   1.553   4.788
 6017SOL     OW18949   0.295   2.870   5.248
 6017SOL    HW118950   0.319   2.960   5.282
 6017SOL    HW218951   0.229   2.827   5.310
 6018SOL     OW18952   3.638   1.574   5.915
 6018SOL    HW118953   3.585   1.500   5.873
 6018SOL    HW218954   3.656   1.645   5.847
 6019SOL     OW18955   0.062   3.833   6.610
 6019SOL    HW118956   0.044   3.757   6.548
 6019SOL    HW218957   0.051   3.919   6.560
 6020SOL     OW18958   1.036   4.426   0.551
 6020SOL    HW118959   1.054   4.521   0.574
 6020SOL    HW218960   0.965   4.421   0.481
 6021SOL     OW18961   4.166   0.671   3.016
 6021SOL    HW118962   4.094   0.626   3.069
 6021SOL    HW218963   4.255   0.640   3.050
 6022SOL     OW18964   6.928   1.697   1.982
 6022SOL    HW118965   6.987   1.639   1.925
 6022SOL    HW218966   6.979   1.725   2.064
 6023SOL     OW18967   4.479   0.854   1.177
 6023SOL    HW118968   4.542   0.779   1.158
 6023SOL    HW218969   4.387   0.830   1.146
 6024SOL     OW18970   0.664   5.449   0.387
 6024SOL    HW118971   0.715   5.456   0.301
 6024SOL    HW218972   0.603   5.527   0.396
 6025SOL     OW18973   2.496   1.319   4.175
 6025SOL    HW118974   2.406   1.276   4.177
 6025SOL    HW218975   2.492   1.406   4.225
 6026SOL     OW18976   6.403   4.286   4.395
 6026SOL    HW118977   6.454   4.368   4.369
 6026SOL    HW218978   6.325   4.311   4.452
 6027SOL     OW18979   6.284   3.402   5.934
 6027SOL    HW118980   6.261   3.407   6.031
 6027SOL    HW218981   6.227   3.332   5.889
 6028SOL     OW18982   5.243   4.988   6.383
 6028SOL    HW118983   5.343   4.994   6.388
 6028SOL    HW218984   5.217   4.911   6.325
 6029SOL     OW18985   2.437   0.866   3.270
 6029SOL    HW118986   2.531   0.837   3.288
 6029SOL    HW218987   2.432   0.908   3.179
 6030SOL     OW18988   5.186   3.684   4.800
 6030SOL    HW118989   5.217   3.635   4.718
 6030SOL    HW218990   5.090   3.708   4.790
 6031SOL     OW18991   0.672   5.995   5.459
 6031SOL    HW118992   0.743   5.964   5.396
 6031SOL    HW218993   0.642   5.918   5.516
 6032SOL     OW18994   2.897   6.006   3.476
 6032SOL    HW118995   2.958   5.940   3.519
 6032SOL    HW218996   2.829   5.959   3.421
 6033SOL     OW18997   2.146   1.790   2.807
 6033SOL    HW118998   2.230   1.843   2.819
 6033SOL    HW218999   2.157   1.730   2.728
 6034SOL     OW19000   1.538   0.162   6.852
 6034SOL    HW119001   1.506   0.069   6.867
 6034SOL    HW219002   1.486   0.225   6.910
 6035SOL     OW19003   1.710   0.855   3.096
 6035SOL    HW119004   1.747   0.836   3.187
 6035SOL    HW219005   1.681   0.769   3.054
 6036SOL     OW19006   6.177   2.993   0.491
 6036SOL    HW119007   6.269   2.954   0.491
 6036SOL    HW219008   6.115   2.932   0.441
 6037SOL     OW19009   4.356   2.238   0.839
 6037SOL    HW119010   4.349   2.198   0.930
 6037SOL    HW219011   4.285   2.199   0.780
 6038SOL     OW19012   0.481   2.081   6.011
 6038SOL    HW119013   0.444   2.000   6.055
 6038SOL    HW219014   0.581   2.075   6.008
 6039SOL     OW19015   3.107   3.869   3.637
 6039SOL    HW119016   3.078   3.932   3.565
 6039SOL    HW219017   3.027   3.829   3.681
 6040SOL     OW19018   1.167   1.720   6.818
 6040SOL    HW119019   1.209   1.748   6.731
 6040SOL    HW219020   1.238   1.701   6.885
 6041SOL     OW19021   3.197   3.058   6.333
 6041SOL    HW119022   3.196   3.088   6.428
 6041SOL    HW219023   3.104   3.050   6.299
 6042SOL     OW19024   2.771   5.824   3.300
 6042SOL    HW119025   2.794   5.872   3.215
 6042SOL    HW219026   2.822   5.738   3.305
 6043SOL     OW19027   1.986   0.764   4.177
 6043SOL    HW119028   1.988   0.733   4.082
 6043SOL    HW219029   1.902   0.732   4.221
 6044SOL     OW19030   1.650   2.226   1.584
 6044SOL    HW119031   1.615   2.238   1.677
 6044SOL    HW219032   1.627   2.307   1.529
 6045SOL     OW19033   5.115   2.647   3.449
 6045SOL    HW119034   5.167   2.624   3.531
 6045SOL    HW219035   5.140   2.739   3.418
 6046SOL     OW19036   3.500   3.317   2.170
 6046SOL    HW119037   3.498   3.220   2.192
 6046SOL    HW219038   3.409   3.356   2.179
 6047SOL     OW19039   5.789   1.744   0.692
 6047SOL    HW119040   5.848   1.685   0.637
 6047SOL    HW219041   5.770   1.828   0.641
 6048SOL     OW19042   5.308   6.079   4.746
 6048SOL    HW119043   5.235   6.041   4.802
 6048SOL    HW219044   5.396   6.060   4.790
 6049SOL     OW19045   4.622   4.790   5.301
 6049SOL    HW119046   4.634   4.692   5.311
 6049SOL    HW219047   4.650   4.836   5.385
 6050SOL     OW19048   3.444   5.325   1.535
 6050SOL    HW119049   3.456   5.320   1.435
 6050SOL    HW219050   3.527   5.292   1.580
 6051SOL     OW19051   1.364   0.856   3.048
 6051SOL    HW119052   1.385   0.952   3.066
 6051SOL    HW219053   1.268   0.847   3.021
 6052SOL     OW19054   5.435   6.861   0.367
 6052SOL    HW119055   5.509   6.884   0.303
 6052SOL    HW219056   5.348   6.860   0.317
 6053SOL     OW19057   4.277   2.410   6.061
 6053SOL    HW119058   4.196   2.439   6.112
 6053SOL    HW219059   4.343   2.486   6.058
 6054SOL     OW19060   4.177   4.636   0.975
 6054SOL    HW119061   4.163   4.537   0.969
 6054SOL    HW219062   4.102   4.683   0.928
 6055SOL     OW19063   3.502   4.563   0.553
 6055SOL    HW119064   3.574   4.499   0.525
 6055SOL    HW219065   3.542   4.653   0.569
 6056SOL     OW19066   6.145   4.509   5.044
 6056SOL    HW119067   6.117   4.489   4.950
 6056SOL    HW219068   6.092   4.586   5.079
 6057SOL     OW19069   4.880   0.234   3.096
 6057SOL    HW119070   4.796   0.221   3.149
 6057SOL    HW219071   4.908   0.330   3.103
 6058SOL     OW19072   5.699   2.303   6.577
 6058SOL    HW119073   5.691   2.351   6.489
 6058SOL    HW219074   5.713   2.206   6.560
 6059SOL     OW19075   5.064   4.402   6.024
 6059SOL    HW119076   5.149   4.414   5.973
 6059SOL    HW219077   5.039   4.306   6.025
 6060SOL     OW19078   2.955   3.255   6.738
 6060SOL    HW119079   2.899   3.311   6.799
 6060SOL    HW219080   3.045   3.297   6.726
 6061SOL     OW19081   4.373   5.033   0.604
 6061SOL    HW119082   4.458   5.084   0.589
 6061SOL    HW219083   4.337   5.002   0.516
 6062SOL     OW19084   2.199   2.697   0.976
 6062SOL    HW119085   2.148   2.782   0.989
 6062SOL    HW219086   2.206   2.676   0.878
 6063SOL     OW19087   3.721   4.636   5.565
 6063SOL    HW119088   3.806   4.625   5.513
 6063SOL    HW219089   3.652   4.681   5.507
 6064SOL     OW19090   6.902   6.597   0.874
 6064SOL    HW119091   6.896   6.500   0.897
 6064SOL    HW219092   6.926   6.649   0.956
 6065SOL     OW19093   1.106   5.659   2.453
 6065SOL    HW119094   1.171   5.734   2.466
 6065SOL    HW219095   1.156   5.572   2.444
 6066SOL     OW19096   4.984   0.100   3.441
 6066SOL    HW119097   4.996   0.188   3.488
 6066SOL    HW219098   5.062   0.041   3.462
 6067SOL     OW19099   6.073   0.455   5.605
 6067SOL    HW119100   6.023   0.514   5.667
 6067SOL    HW219101   6.035   0.363   5.608
 6068SOL     OW19102   4.699   1.584   5.731
 6068SOL    HW119103   4.683   1.494   5.772
 6068SOL    HW219104   4.613   1.622   5.699
 6069SOL     OW19105   0.138   3.215   6.186
 6069SOL    HW119106   0.081   3.195   6.106
 6069SOL    HW219107   0.231   3.234   6.157
 6070SOL     OW19108   3.401   1.514   0.973
 6070SOL    HW119109   3.473   1.494   0.907
 6070SOL    HW219110   3.408   1.610   1.002
 6071SOL     OW19111   5.375   6.980   5.201
 6071SOL    HW119112   5.457   7.013   5.155
 6071SOL    HW219113   5.402   6.935   5.287
 6072SOL     OW19114   0.304   2.541   0.666
 6072SOL    HW119115   0.399   2.557   0.639
 6072SOL    HW219116   0.288   2.442   0.673
 6073SOL     OW19117   4.730   2.528   0.678
 6073SOL    HW119118   4.701   2.604   0.620
 6073SOL    HW219119   4.719   2.442   0.629
 6074SOL     OW19120   0.959   5.831   2.253
 6074SOL    HW119121   1.034   5.877   2.206
 6074SOL    HW219122   0.996   5.758   2.311
 6075SOL     OW19123   4.689   6.754   6.489
 6075SOL    HW119124   4.589   6.749   6.490
 6075SOL    HW219125   4.725   6.682   6.430
 6076SOL     OW19126   2.282   5.131   3.848
 6076SOL    HW119127   2.292   5.122   3.947
 6076SOL    HW219128   2.336   5.209   3.817
 6077SOL     OW19129   6.155   6.780   1.975
 6077SOL    HW119130   6.168   6.875   1.947
 6077SOL    HW219131   6.238   6.727   1.956
 6078SOL     OW19132   4.599   3.834   0.335
 6078SOL    HW119133   4.639   3.755   0.382
 6078SOL    HW219134   4.501   3.837   0.352
 6079SOL     OW19135   3.976   4.398   6.281
 6079SOL    HW119136   3.989   4.331   6.208
 6079SOL    HW219137   4.027   4.482   6.259
 6080SOL     OW19138   0.845   4.479   0.264
 6080SOL    HW119139   0.850   4.390   0.218
 6080SOL    HW219140   0.894   4.547   0.210
 6081SOL     OW19141   0.832   3.791   4.890
 6081SOL    HW119142   0.863   3.713   4.835
 6081SOL    HW219143   0.860   3.777   4.985
 6082SOL     OW19144   4.260   0.791   1.037
 6082SOL    HW119145   4.219   0.882   1.047
 6082SOL    HW219146   4.191   0.721   1.059
 6083SOL     OW19147   5.107   6.191   6.344
 6083SOL    HW119148   5.165   6.123   6.299
 6083SOL    HW219149   5.143   6.211   6.434
 6084SOL     OW19150   0.536   6.952   2.517
 6084SOL    HW119151   0.539   6.855   2.496
 6084SOL    HW219152   0.515   7.004   2.435
 6085SOL     OW19153   0.039   5.838   0.188
 6085SOL    HW119154   0.078   5.930   0.180
 6085SOL    HW219155   6.969   5.844   0.207
 6086SOL     OW19156   3.834   3.419   6.405
 6086SOL    HW119157   3.768   3.426   6.480
 6086SOL    HW219158   3.890   3.502   6.402
 6087SOL     OW19159   5.280   0.148   0.568
 6087SOL    HW119160   5.264   0.238   0.608
 6087SOL    HW219161   5.376   0.121   0.582
 6088SOL     OW19162   5.382   0.145   3.857
 6088SOL    HW119163   5.379   0.122   3.954
 6088SOL    HW219164   5.462   0.102   3.815
 6089SOL     OW19165   6.209   2.594   2.720
 6089SOL    HW119166   6.211   2.651   2.802
 6089SOL    HW219167   6.179   2.502   2.745
 6090SOL     OW19168   3.503   6.213   4.616
 6090SOL    HW119169   3.467   6.125   4.647
 6090SOL    HW219170   3.445   6.249   4.543
 6091SOL     OW19171   2.454   1.402   1.723
 6091SOL    HW119172   2.469   1.309   1.691
 6091SOL    HW219173   2.430   1.401   1.820
 6092SOL     OW19174   4.110   6.319   1.980
 6092SOL    HW119175   4.152   6.237   1.942
 6092SOL    HW219176   4.125   6.396   1.917
 6093SOL     OW19177   2.150   1.513   2.217
 6093SOL    HW119178   2.100   1.476   2.296
 6093SOL    HW219179   2.170   1.609   2.233
 6094SOL     OW19180   0.283   6.767   4.632
 6094SOL    HW119181   0.239   6.679   4.621
 6094SOL    HW219182   0.336   6.789   4.550
 6095SOL     OW19183   4.202   5.849   0.022
 6095SOL    HW119184   4.202   5.780   6.977
 6095SOL    HW219185   4.163   5.810   0.105
 6096SOL     OW19186   5.905   6.445   2.159
 6096SOL    HW119187   5.900   6.526   2.101
 6096SOL    HW219188   5.838   6.377   2.128
 6097SOL     OW19189   1.799   5.852   2.608
 6097SOL    HW119190   1.709   5.885   2.636
 6097SOL    HW219191   1.869   5.915   2.640
 6098SOL     OW19192   6.983   1.123   4.431
 6098SOL    HW119193   0.016   1.123   4.511
 6098SOL    HW219194   6.908   1.060   4.447
 6099SOL     OW19195   5.001   5.880   6.106
 6099SOL    HW119196   4.909   5.899   6.138
 6099SOL    HW219197   5.001   5.798   6.048
 6100SOL     OW19198   6.835   5.938   3.701
 6100SOL    HW119199   6.858   6.035   3.688
 6100SOL    HW219200   6.823   5.895   3.612
 6101SOL     OW19201   6.371   2.464   1.384
 6101SOL    HW119202   6.327   2.381   1.420
 6101SOL    HW219203   6.302   2.535   1.371
 6102SOL     OW19204   4.264   6.282   2.203
 6102SOL    HW119205   4.277   6.188   2.236
 6102SOL    HW219206   4.191   6.284   2.136
 6103SOL     OW19207   6.434   1.480   1.439
 6103SOL    HW119208   6.405   1.572   1.411
 6103SOL    HW219209   6.502   1.487   1.512
 6104SOL     OW19210   6.161   1.272   4.423
 6104SOL    HW119211   6.113   1.360   4.429
 6104SOL    HW219212   6.119   1.207   4.486
 6105SOL     OW19213   2.625   6.116   5.711
 6105SOL    HW119214   2.609   6.029   5.758
 6105SOL    HW219215   2.615   6.104   5.613
 6106SOL     OW19216   0.360   4.151   6.795
 6106SOL    HW119217   0.374   4.133   6.893
 6106SOL    HW219218   0.267   4.123   6.769
 6107SOL     OW19219   4.560   4.617   4.488
 6107SOL    HW119220   4.580   4.520   4.477
 6107SOL    HW219221   4.461   4.631   4.485
 6108SOL     OW19222   1.563   1.418   1.751
 6108SOL    HW119223   1.582   1.397   1.847
 6108SOL    HW219224   1.623   1.491   1.720
 6109SOL     OW19225   5.566   6.305   3.119
 6109SOL    HW119226   5.528   6.282   3.029
 6109SOL    HW219227   5.530   6.393   3.149
 6110SOL     OW19228   1.376   1.886   5.397
 6110SOL    HW119229   1.438   1.874   5.319
 6110SOL    HW219230   1.284   1.906   5.363
 6111SOL     OW19231   1.450   4.036   1.586
 6111SOL    HW119232   1.465   4.042   1.684
 6111SOL    HW219233   1.354   4.016   1.567
 6112SOL     OW19234   4.206   0.030   2.495
 6112SOL    HW119235   4.211   0.090   2.575
 6112SOL    HW219236   4.278   0.054   2.431
 6113SOL     OW19237   2.401   5.682   6.971
 6113SOL    HW119238   2.488   5.725   6.993
 6113SOL    HW219239   2.416   5.586   6.948
 6114SOL     OW19240   5.088   1.446   0.550
 6114SOL    HW119241   4.992   1.465   0.534
 6114SOL    HW219242   5.115   1.478   0.641
 6115SOL     OW19243   0.855   1.241   5.529
 6115SOL    HW119244   0.780   1.233   5.464
 6115SOL    HW219245   0.891   1.334   5.527
 6116SOL     OW19246   4.266   1.999   4.866
 6116SOL    HW119247   4.196   1.945   4.914
 6116SOL    HW219248   4.279   1.961   4.774
 6117SOL     OW19249   1.620   2.289   2.836
 6117SOL    HW119250   1.629   2.261   2.931
 6117SOL    HW219251   1.705   2.332   2.805
 6118SOL     OW19252   5.810   1.032   0.103
 6118SOL    HW119253   5.799   0.944   0.056
 6118SOL    HW219254   5.907   1.056   0.105
 6119SOL     OW19255   0.432   2.113   0.529
 6119SOL    HW119256   0.455   2.145   0.437
 6119SOL    HW219257   0.367   2.037   0.523
 6120SOL     OW19258   2.184   0.009   5.908
 6120SOL    HW119259   2.238   0.045   5.832
 6120SOL    HW219260   2.242   7.025   5.988
 6121SOL     OW19261   1.183   3.089   5.144
 6121SOL    HW119262   1.266   3.054   5.188
 6121SOL    HW219263   1.126   3.013   5.113
 6122SOL     OW19264   5.141   6.187   5.587
 6122SOL    HW119265   5.122   6.098   5.630
 6122SOL    HW219266   5.171   6.173   5.493
 6123SOL     OW19267   6.099   1.017   5.324
 6123SOL    HW119268   6.144   0.930   5.342
 6123SOL    HW219269   6.129   1.053   5.236
 6124SOL     OW19270   2.122   0.324   4.719
 6124SOL    HW119271   2.211   0.336   4.763
 6124SOL    HW219272   2.071   0.410   4.722
 6125SOL     OW19273   2.077   3.446   6.988
 6125SOL    HW119274   2.119   3.535   6.968
 6125SOL    HW219275   2.004   3.429   6.921
 6126SOL     OW19276   0.126   2.702   4.838
 6126SOL    HW119277   0.185   2.668   4.910
 6126SOL    HW219278   0.158   2.792   4.808
 6127SOL     OW19279   4.290   1.491   1.816
 6127SOL    HW119280   4.357   1.530   1.880
 6127SOL    HW219281   4.200   1.528   1.838
 6128SOL     OW19282   5.891   5.607   0.995
 6128SOL    HW119283   5.898   5.702   1.022
 6128SOL    HW219284   5.819   5.597   0.926
 6129SOL     OW19285   1.933   4.697   3.200
 6129SOL    HW119286   1.906   4.601   3.196
 6129SOL    HW219287   1.982   4.715   3.285
 6130SOL     OW19288   4.969   2.878   1.379
 6130SOL    HW119289   4.966   2.914   1.286
 6130SOL    HW219290   5.000   2.949   1.442
 6131SOL     OW19291   0.125   1.934   2.484
 6131SOL    HW119292   0.171   1.897   2.404
 6131SOL    HW219293   0.191   1.944   2.559
 6132SOL     OW19294   3.014   1.738   6.875
 6132SOL    HW119295   2.927   1.786   6.883
 6132SOL    HW219296   2.999   1.643   6.851
 6133SOL     OW19297   1.784   2.455   4.251
 6133SOL    HW119298   1.854   2.457   4.179
 6133SOL    HW219299   1.814   2.395   4.325
 6134SOL     OW19300   5.241   5.977   6.209
 6134SOL    HW119301   5.285   6.008   6.124
 6134SOL    HW219302   5.156   5.929   6.188
 6135SOL     OW19303   5.489   0.475   0.060
 6135SOL    HW119304   5.518   0.379   0.065
 6135SOL    HW219305   5.480   0.512   0.152
 6136SOL     OW19306   0.712   2.746   2.257
 6136SOL    HW119307   0.657   2.698   2.325
 6136SOL    HW219308   0.733   2.685   2.181
 6137SOL     OW19309   0.363   5.070   3.438
 6137SOL    HW119310   0.291   5.065   3.369
 6137SOL    HW219311   0.451   5.086   3.394
 6138SOL     OW19312   3.441   0.403   1.722
 6138SOL    HW119313   3.523   0.443   1.762
 6138SOL    HW219314   3.449   0.303   1.724
 6139SOL     OW19315   1.159   0.102   5.532
 6139SOL    HW119316   1.233   0.122   5.468
 6139SOL    HW219317   1.198   0.081   5.622
 6140SOL     OW19318   2.204   0.228   2.902
 6140SOL    HW119319   2.229   0.309   2.849
 6140SOL    HW219320   2.274   0.210   2.971
 6141SOL     OW19321   7.012   0.665   5.292
 6141SOL    HW119322   0.046   0.709   5.226
 6141SOL    HW219323   0.030   0.661   5.381
 6142SOL     OW19324   0.357   1.099   0.775
 6142SOL    HW119325   0.336   1.140   0.687
 6142SOL    HW219326   0.413   1.162   0.829
 6143SOL     OW19327   6.215   3.404   6.201
 6143SOL    HW119328   6.169   3.493   6.205
 6143SOL    HW219329   6.314   3.417   6.206
 6144SOL     OW19330   4.766   4.356   2.960
 6144SOL    HW119331   4.754   4.448   2.924
 6144SOL    HW219332   4.791   4.361   3.057
 6145SOL     OW19333   4.932   3.419   4.487
 6145SOL    HW119334   4.910   3.328   4.522
 6145SOL    HW219335   5.002   3.412   4.416
 6146SOL     OW19336   4.071   0.671   4.434
 6146SOL    HW119337   3.971   0.674   4.441
 6146SOL    HW219338   4.098   0.686   4.339
 6147SOL     OW19339   2.404   2.690   4.089
 6147SOL    HW119340   2.379   2.701   4.186
 6147SOL    HW219341   2.420   2.593   4.071
 6148SOL     OW19342   4.021   5.044   0.252
 6148SOL    HW119343   3.991   4.956   0.214
 6148SOL    HW219344   3.997   5.117   0.189
 6149SOL     OW19345   2.751   0.244   1.918
 6149SOL    HW119346   2.774   0.147   1.908
 6149SOL    HW219347   2.800   0.283   1.996
 6150SOL     OW19348   5.996   3.612   6.503
 6150SOL    HW119349   5.972   3.517   6.527
 6150SOL    HW219350   6.093   3.616   6.478
 6151SOL     OW19351   5.015   4.227   4.450
 6151SOL    HW119352   4.930   4.183   4.481
 6151SOL    HW219353   5.055   4.277   4.527
 6152SOL     OW19354   0.648   4.944   3.897
 6152SOL    HW119355   0.578   4.938   3.969
 6152SOL    HW219356   0.603   4.958   3.809
 6153SOL     OW19357   4.792   5.461   0.741
 6153SOL    HW119358   4.766   5.365   0.740
 6153SOL    HW219359   4.752   5.507   0.661
 6154SOL     OW19360   5.735   3.006   2.325
 6154SOL    HW119361   5.663   2.997   2.256
 6154SOL    HW219362   5.801   2.932   2.314
 6155SOL     OW19363   2.288   1.494   3.232
 6155SOL    HW119364   2.321   1.400   3.242
 6155SOL    HW219365   2.347   1.544   3.170
 6156SOL     OW19366   5.516   4.190   1.483
 6156SOL    HW119367   5.496   4.111   1.424
 6156SOL    HW219368   5.446   4.260   1.469
 6157SOL     OW19369   0.700   2.372   3.206
 6157SOL    HW119370   0.784   2.325   3.232
 6157SOL    HW219371   0.639   2.308   3.159
 6158SOL     OW19372   2.564   2.924   5.567
 6158SOL    HW119373   2.635   2.900   5.633
 6158SOL    HW219374   2.572   2.865   5.487
 6159SOL     OW19375   5.726   2.282   6.867
 6159SOL    HW119376   5.779   2.198   6.874
 6159SOL    HW219377   5.710   2.303   6.770
 6160SOL     OW19378   0.434   0.004   6.789
 6160SOL    HW119379   0.409   6.936   6.806
 6160SOL    HW219380   0.379   0.040   6.713
 6161SOL     OW19381   5.024   2.530   6.644
 6161SOL    HW119382   5.086   2.599   6.606
 6161SOL    HW219383   5.078   2.456   6.684
 6162SOL     OW19384   6.597   6.104   2.433
 6162SOL    HW119385   6.544   6.062   2.359
 6162SOL    HW219386   6.544   6.177   2.475
 6163SOL     OW19387   6.108   6.536   2.600
 6163SOL    HW119388   6.065   6.598   2.534
 6163SOL    HW219389   6.070   6.444   2.588
 6164SOL     OW19390   3.928   3.841   4.301
 6164SOL    HW119391   3.872   3.764   4.270
 6164SOL    HW219392   3.931   3.912   4.231
 6165SOL     OW19393   4.151   2.380   0.510
 6165SOL    HW119394   4.237   2.402   0.463
 6165SOL    HW219395   4.074   2.413   0.456
 6166SOL     OW19396   0.649   2.187   6.677
 6166SOL    HW119397   0.576   2.252   6.655
 6166SOL    HW219398   0.647   2.167   6.775
 6167SOL     OW19399   1.643   4.204   3.845
 6167SOL    HW119400   1.677   4.110   3.831
 6167SOL    HW219401   1.719   4.268   3.836
 6168SOL     OW19402   0.107   3.045   4.098
 6168SOL    HW119403   0.149   3.091   4.176
 6168SOL    HW219404   0.133   2.948   4.098
 6169SOL     OW19405   0.714   6.913   6.687
 6169SOL    HW119406   0.715   6.996   6.630
 6169SOL    HW219407   0.636   6.917   6.749
 6170SOL     OW19408   3.975   4.283   0.455
 6170SOL    HW119409   3.978   4.188   0.424
 6170SOL    HW219410   4.052   4.333   0.417
 6171SOL     OW19411   1.130   4.807   2.389
 6171SOL    HW119412   1.201   4.739   2.370
 6171SOL    HW219413   1.150   4.890   2.337
 6172SOL     OW19414   1.323   0.414   2.673
 6172SOL    HW119415   1.288   0.407   2.580
 6172SOL    HW219416   1.272   0.353   2.733
 6173SOL     OW19417   1.419   4.678   3.694
 6173SOL    HW119418   1.367   4.733   3.759
 6173SOL    HW219419   1.442   4.590   3.736
 6174SOL     OW19420   5.457   4.833   2.641
 6174SOL    HW119421   5.370   4.792   2.613
 6174SOL    HW219422   5.528   4.763   2.640
 6175SOL     OW19423   5.333   6.333   2.473
 6175SOL    HW119424   5.342   6.428   2.502
 6175SOL    HW219425   5.275   6.327   2.392
 6176SOL     OW19426   5.627   3.045   6.545
 6176SOL    HW119427   5.559   3.110   6.578
 6176SOL    HW219428   5.707   3.047   6.605
 6177SOL     OW19429   5.276   1.557   2.219
 6177SOL    HW119430   5.276   1.457   2.219
 6177SOL    HW219431   5.288   1.591   2.312
 6178SOL     OW19432   4.797   4.644   1.039
 6178SOL    HW119433   4.853   4.662   1.121
 6178SOL    HW219434   4.839   4.689   0.960
 6179SOL     OW19435   0.436   3.087   4.927
 6179SOL    HW119436   0.513   3.068   4.866
 6179SOL    HW219437   0.461   3.062   5.021
 6180SOL     OW19438   3.684   6.332   0.929
 6180SOL    HW119439   3.728   6.242   0.926
 6180SOL    HW219440   3.753   6.404   0.931
 6181SOL     OW19441   5.122   6.499   6.714
 6181SOL    HW119442   5.165   6.579   6.672
 6181SOL    HW219443   5.171   6.475   6.798
 6182SOL     OW19444   5.503   5.493   5.021
 6182SOL    HW119445   5.529   5.402   4.990
 6182SOL    HW219446   5.583   5.553   5.021
 6183SOL     OW19447   2.448   0.639   2.618
 6183SOL    HW119448   2.521   0.665   2.682
 6183SOL    HW219449   2.486   0.581   2.546
 6184SOL     OW19450   1.514   0.019   6.359
 6184SOL    HW119451   1.532   7.009   6.451
 6184SOL    HW219452   1.539   0.115   6.357
 6185SOL     OW19453   0.057   3.755   6.913
 6185SOL    HW119454   0.012   3.784   6.828
 6185SOL    HW219455   0.044   3.826   6.983
 6186SOL     OW19456   5.439   0.175   3.534
 6186SOL    HW119457   5.454   0.208   3.627
 6186SOL    HW219458   5.407   0.251   3.476
 6187SOL     OW19459   5.172   4.908   3.936
 6187SOL    HW119460   5.147   4.876   3.844
 6187SOL    HW219461   5.099   4.883   4.000
 6188SOL     OW19462   2.612   5.908   1.521
 6188SOL    HW119463   2.552   5.853   1.463
 6188SOL    HW219464   2.695   5.856   1.541
 6189SOL     OW19465   5.042   5.413   2.802
 6189SOL    HW119466   5.035   5.411   2.902
 6189SOL    HW219467   5.013   5.502   2.768
 6190SOL     OW19468   4.668   2.990   6.069
 6190SOL    HW119469   4.657   3.018   5.973
 6190SOL    HW219470   4.704   2.897   6.073
 6191SOL     OW19471   5.514   2.337   0.578
 6191SOL    HW119472   5.595   2.377   0.537
 6191SOL    HW219473   5.481   2.395   0.653
 6192SOL     OW19474   3.009   3.665   0.668
 6192SOL    HW119475   3.028   3.702   0.760
 6192SOL    HW219476   3.093   3.624   0.632
 6193SOL     OW19477   5.646   0.122   2.502
 6193SOL    HW119478   5.697   0.192   2.452
 6193SOL    HW219479   5.654   0.138   2.600
 6194SOL     OW19480   2.306   0.821   1.284
 6194SOL    HW119481   2.284   0.848   1.190
 6194SOL    HW219482   2.346   0.899   1.332
 6195SOL     OW19483   4.077   5.487   6.131
 6195SOL    HW119484   4.067   5.419   6.059
 6195SOL    HW219485   4.133   5.449   6.205
 6196SOL     OW19486   0.778   2.556   5.941
 6196SOL    HW119487   0.738   2.568   5.850
 6196SOL    HW219488   0.878   2.567   5.936
 6197SOL     OW19489   2.609   4.224   0.895
 6197SOL    HW119490   2.602   4.159   0.971
 6197SOL    HW219491   2.684   4.197   0.835
 6198SOL     OW19492   3.478   5.341   3.154
 6198SOL    HW119493   3.461   5.398   3.234
 6198SOL    HW219494   3.417   5.368   3.080
 6199SOL     OW19495   1.022   0.379   1.078
 6199SOL    HW119496   0.991   0.334   1.162
 6199SOL    HW219497   1.117   0.354   1.059
 6200SOL     OW19498   2.779   1.201   6.542
 6200SOL    HW119499   2.755   1.146   6.622
 6200SOL    HW219500   2.701   1.205   6.480
 6201SOL     OW19501   1.943   3.924   5.891
 6201SOL    HW119502   1.912   3.993   5.825
 6201SOL    HW219503   1.948   3.964   5.982
 6202SOL     OW19504   4.127   1.758   1.307
 6202SOL    HW119505   4.109   1.664   1.334
 6202SOL    HW219506   4.043   1.812   1.314
 6203SOL     OW19507   5.110   0.936   3.908
 6203SOL    HW119508   5.158   0.998   3.846
 6203SOL    HW219509   5.119   0.969   4.002
 6204SOL     OW19510   0.925   5.417   5.392
 6204SOL    HW119511   0.901   5.321   5.408
 6204SOL    HW219512   0.958   5.457   5.478
 6205SOL     OW19513   5.396   5.336   6.977
 6205SOL    HW119514   5.334   5.400   6.933
 6205SOL    HW219515   5.410   5.256   6.918
 6206SOL     OW19516   6.655   0.939   1.682
 6206SOL    HW119517   6.755   0.942   1.690
 6206SOL    HW219518   6.627   0.855   1.636
 6207SOL     OW19519   1.071   4.592   5.053
 6207SOL    HW119520   1.135   4.667   5.037
 6207SOL    HW219521   1.002   4.622   5.119
 6208SOL     OW19522   6.808   0.622   5.531
 6208SOL    HW119523   6.716   0.649   5.502
 6208SOL    HW219524   6.826   0.528   5.501
 6209SOL     OW19525   4.724   6.117   0.174
 6209SOL    HW119526   4.774   6.031   0.186
 6209SOL    HW219527   4.785   6.194   0.195
 6210SOL     OW19528   5.397   3.526   2.921
 6210SOL    HW119529   5.398   3.534   3.021
 6210SOL    HW219530   5.349   3.605   2.882
 6211SOL     OW19531   2.544   0.556   6.482
 6211SOL    HW119532   2.505   0.547   6.390
 6211SOL    HW219533   2.574   0.651   6.496
 6212SOL     OW19534   6.629   6.281   3.312
 6212SOL    HW119535   6.663   6.238   3.229
 6212SOL    HW219536   6.582   6.214   3.368
 6213SOL     OW19537   5.809   0.809   6.945
 6213SOL    HW119538   5.895   0.834   6.900
 6213SOL    HW219539   5.825   0.729   7.004
 6214SOL     OW19540   6.199   5.201   2.634
 6214SOL    HW119541   6.133   5.239   2.570
 6214SOL    HW219542   6.154   5.181   2.721
 6215SOL     OW19543   3.124   2.471   0.502
 6215SOL    HW119544   3.132   2.557   0.451
 6215SOL    HW219545   3.077   2.488   0.589
 6216SOL     OW19546   6.114   1.790   1.472
 6216SOL    HW119547   6.186   1.777   1.404
 6216SOL    HW219548   6.122   1.720   1.543
 6217SOL     OW19549   4.681   2.811   1.429
 6217SOL    HW119550   4.775   2.845   1.418
 6217SOL    HW219551   4.647   2.837   1.519
 6218SOL     OW19552   2.471   4.979   4.691
 6218SOL    HW119553   2.398   5.040   4.660
 6218SOL    HW219554   2.431   4.901   4.739
 6219SOL     OW19555   1.624   2.265   4.835
 6219SOL    HW119556   1.559   2.340   4.844
 6219SOL    HW219557   1.616   2.204   4.914
 6220SOL     OW19558   1.876   4.768   6.086
 6220SOL    HW119559   1.887   4.861   6.050
 6220SOL    HW219560   1.871   4.771   6.185
 6221SOL     OW19561   4.600   5.460   4.762
 6221SOL    HW119562   4.550   5.401   4.825
 6221SOL    HW219563   4.630   5.407   4.683
 6222SOL     OW19564   6.824   0.097   1.571
 6222SOL    HW119565   6.755   0.152   1.526
 6222SOL    HW219566   6.788   0.005   1.588
 6223SOL     OW19567   5.794   3.986   4.435
 6223SOL    HW119568   5.746   3.972   4.522
 6223SOL    HW219569   5.892   3.996   4.452
 6224SOL     OW19570   1.618   1.251   5.999
 6224SOL    HW119571   1.688   1.320   6.017
 6224SOL    HW219572   1.609   1.239   5.900
 6225SOL     OW19573   3.551   3.462   1.075
 6225SOL    HW119574   3.606   3.533   1.032
 6225SOL    HW219575   3.538   3.484   1.172
 6226SOL     OW19576   5.838   1.503   3.908
 6226SOL    HW119577   5.858   1.406   3.895
 6226SOL    HW219578   5.742   1.520   3.887
 6227SOL     OW19579   3.225   4.362   6.030
 6227SOL    HW119580   3.190   4.335   6.120
 6227SOL    HW219581   3.253   4.281   5.979
 6228SOL     OW19582   6.703   1.537   2.807
 6228SOL    HW119583   6.687   1.621   2.858
 6228SOL    HW219584   6.694   1.459   2.869
 6229SOL     OW19585   2.404   1.581   2.654
 6229SOL    HW119586   2.492   1.628   2.652
 6229SOL    HW219587   2.372   1.573   2.748
 6230SOL     OW19588   2.755   1.278   4.254
 6230SOL    HW119589   2.746   1.298   4.352
 6230SOL    HW219590   2.669   1.299   4.207
 6231SOL     OW19591   6.970   4.547   1.052
 6231SOL    HW119592   6.982   4.448   1.061
 6231SOL    HW219593   6.874   4.568   1.038
 6232SOL     OW19594   0.289   1.335   0.001
 6232SOL    HW119595   0.205   1.283   7.014
 6232SOL    HW219596   0.306   1.395   6.950
 6233SOL     OW19597   5.450   1.915   6.633
 6233SOL    HW119598   5.475   1.918   6.730
 6233SOL    HW219599   5.516   1.969   6.580
 6234SOL     OW19600   1.653   1.540   4.582
 6234SOL    HW119601   1.568   1.490   4.596
 6234SOL    HW219602   1.648   1.628   4.629
 6235SOL     OW19603   2.156   6.891   3.584
 6235SOL    HW119604   2.098   6.888   3.503
 6235SOL    HW219605   2.108   6.937   3.659
 6236SOL     OW19606   0.146   4.925   1.420
 6236SOL    HW119607   0.187   4.991   1.357
 6236SOL    HW219608   0.047   4.920   1.402
 6237SOL     OW19609   4.251   5.926   0.498
 6237SOL    HW119610   4.302   5.850   0.457
 6237SOL    HW219611   4.268   5.928   0.596
 6238SOL     OW19612   4.881   5.806   1.958
 6238SOL    HW119613   4.901   5.867   1.882
 6238SOL    HW219614   4.965   5.761   1.988
 6239SOL     OW19615   2.764   6.542   2.891
 6239SOL    HW119616   2.793   6.594   2.811
 6239SOL    HW219617   2.832   6.550   2.963
 6240SOL     OW19618   2.360   2.856   0.779
 6240SOL    HW119619   2.420   2.857   0.859
 6240SOL    HW219620   2.289   2.926   0.790
 6241SOL     OW19621   3.125   0.829   1.925
 6241SOL    HW119622   3.132   0.847   2.023
 6241SOL    HW219623   3.124   0.730   1.909
 6242SOL     OW19624   5.139   1.192   3.446
 6242SOL    HW119625   5.077   1.248   3.391
 6242SOL    HW219626   5.234   1.221   3.428
 6243SOL     OW19627   6.124   6.582   3.827
 6243SOL    HW119628   6.040   6.569   3.881
 6243SOL    HW219629   6.117   6.530   3.742
 6244SOL     OW19630   2.610   2.443   2.385
 6244SOL    HW119631   2.670   2.406   2.456
 6244SOL    HW219632   2.539   2.500   2.427
 6245SOL     OW19633   2.682   4.302   1.225
 6245SOL    HW119634   2.748   4.363   1.268
 6245SOL    HW219635   2.637   4.247   1.295
 6246SOL     OW19636   2.685   2.486   6.686
 6246SOL    HW119637   2.693   2.550   6.609
 6246SOL    HW219638   2.680   2.537   6.771
 6247SOL     OW19639   0.302   6.546   3.973
 6247SOL    HW119640   0.329   6.551   4.069
 6247SOL    HW219641   0.230   6.478   3.962
 6248SOL     OW19642   0.962   4.229   1.610
 6248SOL    HW119643   0.951   4.185   1.521
 6248SOL    HW219644   0.872   4.251   1.648
 6249SOL     OW19645   0.108   4.670   0.349
 6249SOL    HW119646   0.024   4.624   0.319
 6249SOL    HW219647   0.156   4.611   0.415
 6250SOL     OW19648   7.014   5.964   0.788
 6250SOL    HW119649   0.037   6.050   0.782
 6250SOL    HW219650   6.947   5.969   0.862
 6251SOL     OW19651   4.325   0.342   1.392
 6251SOL    HW119652   4.355   0.332   1.297
 6251SOL    HW219653   4.348   0.434   1.425
 6252SOL     OW19654   2.267   5.519   4.781
 6252SOL    HW119655   2.330   5.445   4.804
 6252SOL    HW219656   2.319   5.603   4.764
 6253SOL     OW19657   2.420   4.087   1.824
 6253SOL    HW119658   2.372   4.021   1.882
 6253SOL    HW219659   2.431   4.173   1.874
 6254SOL     OW19660   6.142   0.149   6.782
 6254SOL    HW119661   6.125   0.211   6.706
 6254SOL    HW219662   6.233   0.166   6.819
 6255SOL     OW19663   1.182   1.604   1.686
 6255SOL    HW119664   1.259   1.635   1.742
 6255SOL    HW219665   1.141   1.522   1.727
 6256SOL     OW19666   4.176   4.975   2.734
 6256SOL    HW119667   4.255   4.914   2.739
 6256SOL    HW219668   4.113   4.942   2.664
 6257SOL     OW19669   5.671   2.328   1.292
 6257SOL    HW119670   5.610   2.392   1.338
 6257SOL    HW219671   5.624   2.288   1.214
 6258SOL     OW19672   4.011   1.218   2.792
 6258SOL    HW119673   4.057   1.144   2.840
 6258SOL    HW219674   4.023   1.304   2.843
 6259SOL     OW19675   2.910   1.494   1.171
 6259SOL    HW119676   2.973   1.425   1.206
 6259SOL    HW219677   2.928   1.510   1.074
 6260SOL     OW19678   4.135   3.598   0.573
 6260SOL    HW119679   4.176   3.672   0.521
 6260SOL    HW219680   4.116   3.629   0.666
 6261SOL     OW19681   3.978   6.929   0.052
 6261SOL    HW119682   3.882   6.952   0.067
 6261SOL    HW219683   4.034   6.974   0.121
 6262SOL     OW19684   1.606   4.278   0.718
 6262SOL    HW119685   1.508   4.273   0.697
 6262SOL    HW219686   1.653   4.329   0.646
 6263SOL     OW19687   0.097   6.270   6.452
 6263SOL    HW119688   0.147   6.207   6.511
 6263SOL    HW219689   0.154   6.293   6.373
 6264SOL     OW19690   2.568   1.837   1.096
 6264SOL    HW119691   2.506   1.799   1.027
 6264SOL    HW219692   2.649   1.778   1.105
 6265SOL     OW19693   3.573   4.741   1.255
 6265SOL    HW119694   3.508   4.682   1.301
 6265SOL    HW219695   3.578   4.716   1.158
 6266SOL     OW19696   3.744   1.216   3.537
 6266SOL    HW119697   3.800   1.299   3.535
 6266SOL    HW219698   3.804   1.136   3.550
 6267SOL     OW19699   2.932   0.262   0.429
 6267SOL    HW119700   2.920   0.217   0.518
 6267SOL    HW219701   2.845   0.261   0.379
 6268SOL     OW19702   3.043   5.160   3.066
 6268SOL    HW119703   2.972   5.178   2.998
 6268SOL    HW219704   3.097   5.081   3.037
 6269SOL     OW19705   6.075   5.674   2.009
 6269SOL    HW119706   6.017   5.665   2.090
 6269SOL    HW219707   6.152   5.611   2.016
 6270SOL     OW19708   1.716   0.661   5.511
 6270SOL    HW119709   1.689   0.715   5.591
 6270SOL    HW219710   1.646   0.670   5.440
 6271SOL     OW19711   0.175   2.872   6.068
 6271SOL    HW119712   0.171   2.952   6.008
 6271SOL    HW219713   0.244   2.888   6.139
 6272SOL     OW19714   1.633   3.513   4.390
 6272SOL    HW119715   1.702   3.484   4.323
 6272SOL    HW219716   1.645   3.610   4.410
 6273SOL     OW19717   1.659   1.112   1.823
 6273SOL    HW119718   1.652   1.166   1.907
 6273SOL    HW219719   1.584   1.136   1.761
 6274SOL     OW19720   3.149   5.944   6.718
 6274SOL    HW119721   3.080   5.943   6.646
 6274SOL    HW219722   3.113   5.900   6.800
 6275SOL     OW19723   2.718   0.211   5.351
 6275SOL    HW119724   2.647   0.263   5.305
 6275SOL    HW219725   2.699   0.208   5.449
 6276SOL     OW19726   0.974   5.365   3.664
 6276SOL    HW119727   0.982   5.273   3.626
 6276SOL    HW219728   0.991   5.432   3.592
 6277SOL     OW19729   4.931   2.586   2.822
 6277SOL    HW119730   4.974   2.595   2.732
 6277SOL    HW219731   4.843   2.633   2.822
 6278SOL     OW19732   4.725   0.359   4.110
 6278SOL    HW119733   4.693   0.402   4.026
 6278SOL    HW219734   4.648   0.346   4.173
 6279SOL     OW19735   4.197   1.236   0.470
 6279SOL    HW119736   4.161   1.303   0.535
 6279SOL    HW219737   4.145   1.242   0.385
 6280SOL     OW19738   0.716   3.404   5.531
 6280SOL    HW119739   0.722   3.466   5.609
 6280SOL    HW219740   0.620   3.386   5.509
 6281SOL     OW19741   2.067   0.293   5.154
 6281SOL    HW119742   2.086   0.323   5.247
 6281SOL    HW219743   2.153   0.277   5.106
 6282SOL     OW19744   1.510   6.559   5.250
 6282SOL    HW119745   1.460   6.645   5.244
 6282SOL    HW219746   1.493   6.517   5.340
 6283SOL     OW19747   6.915   2.315   5.105
 6283SOL    HW119748   6.970   2.294   5.185
 6283SOL    HW219749   6.941   2.404   5.068
 6284SOL     OW19750   1.451   5.163   5.874
 6284SOL    HW119751   1.498   5.075   5.875
 6284SOL    HW219752   1.381   5.163   5.945
 6285SOL     OW19753   1.240   3.225   4.034
 6285SOL    HW119754   1.287   3.282   3.967
 6285SOL    HW219755   1.261   3.129   4.015
 6286SOL     OW19756   5.758   1.333   2.936
 6286SOL    HW119757   5.676   1.282   2.961
 6286SOL    HW219758   5.839   1.277   2.956
 6287SOL     OW19759   4.942   4.019   1.719
 6287SOL    HW119760   4.938   3.919   1.721
 6287SOL    HW219761   4.901   4.056   1.802
 6288SOL     OW19762   5.350   4.131   0.807
 6288SOL    HW119763   5.256   4.134   0.771
 6288SOL    HW219764   5.414   4.128   0.731
 6289SOL     OW19765   2.401   2.442   3.765
 6289SOL    HW119766   2.325   2.412   3.708
 6289SOL    HW219767   2.378   2.425   3.861
 6290SOL     OW19768   5.370   4.540   4.354
 6290SOL    HW119769   5.340   4.636   4.351
 6290SOL    HW219770   5.327   4.490   4.279
 6291SOL     OW19771   3.678   3.282   3.808
 6291SOL    HW119772   3.731   3.317   3.885
 6291SOL    HW219773   3.708   3.326   3.724
 6292SOL     OW19774   0.858   2.034   3.316
 6292SOL    HW119775   0.830   2.048   3.411
 6292SOL    HW219776   0.919   2.108   3.288
 6293SOL     OW19777   5.350   0.177   6.804
 6293SOL    HW119778   5.309   0.159   6.893
 6293SOL    HW219779   5.447   0.199   6.816
 6294SOL     OW19780   3.260   5.563   2.686
 6294SOL    HW119781   3.298   5.555   2.778
 6294SOL    HW219782   3.172   5.514   2.682
 6295SOL     OW19783   5.621   5.828   5.772
 6295SOL    HW119784   5.639   5.732   5.793
 6295SOL    HW219785   5.524   5.841   5.753
 6296SOL     OW19786   6.236   0.724   3.358
 6296SOL    HW119787   6.332   0.725   3.383
 6296SOL    HW219788   6.215   0.805   3.302
 6297SOL     OW19789   5.001   6.298   5.956
 6297SOL    HW119790   4.991   6.337   5.864
 6297SOL    HW219791   5.071   6.227   5.955
 6298SOL     OW19792   1.221   3.361   5.678
 6298SOL    HW119793   1.309   3.408   5.678
 6298SOL    HW219794   1.236   3.263   5.694
 6299SOL     OW19795   6.268   2.411   6.329
 6299SOL    HW119796   6.258   2.511   6.328
 6299SOL    HW219797   6.265   2.378   6.423
 6300SOL     OW19798   5.593   0.836   4.556
 6300SOL    HW119799   5.597   0.880   4.645
 6300SOL    HW219800   5.599   0.737   4.568
 6301SOL     OW19801   2.695   6.507   1.007
 6301SOL    HW119802   2.759   6.507   1.083
 6301SOL    HW219803   2.735   6.455   0.931
 6302SOL     OW19804   1.645   0.925   3.880
 6302SOL    HW119805   1.545   0.915   3.884
 6302SOL    HW219806   1.671   0.962   3.791
 6303SOL     OW19807   2.264   6.884   5.283
 6303SOL    HW119808   2.210   6.912   5.203
 6303SOL    HW219809   2.203   6.865   5.359
 6304SOL     OW19810   3.211   0.739   0.754
 6304SOL    HW119811   3.208   0.735   0.854
 6304SOL    HW219812   3.145   0.807   0.722
 6305SOL     OW19813   6.683   0.070   1.156
 6305SOL    HW119814   6.767   0.120   1.133
 6305SOL    HW219815   6.705   7.001   1.173
 6306SOL     OW19816   6.583   3.065   3.792
 6306SOL    HW119817   6.495   3.026   3.766
 6306SOL    HW219818   6.587   3.161   3.764
 6307SOL     OW19819   2.828   5.082   5.782
 6307SOL    HW119820   2.921   5.069   5.817
 6307SOL    HW219821   2.829   5.076   5.682
 6308SOL     OW19822   1.947   1.685   5.138
 6308SOL    HW119823   2.039   1.716   5.117
 6308SOL    HW219824   1.891   1.764   5.164
 6309SOL     OW19825   4.634   2.238   4.125
 6309SOL    HW119826   4.646   2.186   4.209
 6309SOL    HW219827   4.556   2.200   4.074
 6310SOL     OW19828   1.316   4.811   4.472
 6310SOL    HW119829   1.348   4.762   4.553
 6310SOL    HW219830   1.332   4.755   4.391
 6311SOL     OW19831   6.993   0.377   4.382
 6311SOL    HW119832   0.042   0.313   4.384
 6311SOL    HW219833   0.001   0.470   4.368
 6312SOL     OW19834   4.631   4.989   6.512
 6312SOL    HW119835   4.700   4.919   6.490
 6312SOL    HW219836   4.677   5.075   6.535
 6313SOL     OW19837   1.836   5.541   3.713
 6313SOL    HW119838   1.846   5.550   3.812
 6313SOL    HW219839   1.801   5.627   3.675
 6314SOL     OW19840   2.608   5.901   2.544
 6314SOL    HW119841   2.598   5.975   2.478
 6314SOL    HW219842   2.677   5.927   2.612
 6315SOL     OW19843   4.236   3.449   6.772
 6315SOL    HW119844   4.137   3.458   6.759
 6315SOL    HW219845   4.257   3.454   6.870
 6316SOL     OW19846   4.538   2.077   6.122
 6316SOL    HW119847   4.540   2.066   6.023
 6316SOL    HW219848   4.612   2.024   6.163
 6317SOL     OW19849   4.897   6.968   2.594
 6317SOL    HW119850   4.808   6.954   2.638
 6317SOL    HW219851   4.968   6.973   2.664
 6318SOL     OW19852   2.569   2.460   5.692
 6318SOL    HW119853   2.636   2.465   5.618
 6318SOL    HW219854   2.587   2.534   5.758
 6319SOL     OW19855   0.704   3.392   3.700
 6319SOL    HW119856   0.754   3.385   3.613
 6319SOL    HW219857   0.766   3.424   3.771
 6320SOL     OW19858   6.246   3.719   3.078
 6320SOL    HW119859   6.292   3.636   3.110
 6320SOL    HW219860   6.148   3.702   3.068
 6321SOL     OW19861   2.848   5.546   0.673
 6321SOL    HW119862   2.873   5.637   0.642
 6321SOL    HW219863   2.827   5.488   0.593
 6322SOL     OW19864   1.314   1.435   6.806
 6322SOL    HW119865   1.377   1.440   6.729
 6322SOL    HW219866   1.353   1.484   6.884
 6323SOL     OW19867   3.207   2.326   1.592
 6323SOL    HW119868   3.300   2.305   1.620
 6323SOL    HW219869   3.146   2.250   1.617
 6324SOL     OW19870   4.306   0.744   5.606
 6324SOL    HW119871   4.279   0.837   5.580
 6324SOL    HW219872   4.317   0.739   5.705
 6325SOL     OW19873   0.697   3.005   2.152
 6325SOL    HW119874   0.699   2.913   2.190
 6325SOL    HW219875   0.625   3.058   2.198
 6326SOL     OW19876   5.481   5.767   1.519
 6326SOL    HW119877   5.575   5.800   1.529
 6326SOL    HW219878   5.462   5.751   1.422
 6327SOL     OW19879   5.773   5.863   5.225
 6327SOL    HW119880   5.813   5.840   5.314
 6327SOL    HW219881   5.725   5.950   5.231
 6328SOL     OW19882   1.708   4.421   0.071
 6328SOL    HW119883   1.757   4.358   0.011
 6328SOL    HW219884   1.680   4.372   0.154
 6329SOL     OW19885   1.697   0.995   3.614
 6329SOL    HW119886   1.728   0.954   3.528
 6329SOL    HW219887   1.689   1.094   3.601
 6330SOL     OW19888   4.574   0.928   0.438
 6330SOL    HW119889   4.495   0.989   0.431
 6330SOL    HW219890   4.648   0.963   0.380
 6331SOL     OW19891   6.483   2.131   0.888
 6331SOL    HW119892   6.564   2.107   0.943
 6331SOL    HW219893   6.441   2.213   0.925
 6332SOL     OW19894   6.173   5.540   1.613
 6332SOL    HW119895   6.097   5.588   1.656
 6332SOL    HW219896   6.246   5.527   1.679
 6333SOL     OW19897   3.330   5.247   3.816
 6333SOL    HW119898   3.307   5.163   3.766
 6333SOL    HW219899   3.268   5.257   3.894
 6334SOL     OW19900   2.587   6.998   2.564
 6334SOL    HW119901   2.577   6.917   2.622
 6334SOL    HW219902   2.561   0.052   2.617
 6335SOL     OW19903   6.168   1.482   6.819
 6335SOL    HW119904   6.201   1.443   6.732
 6335SOL    HW219905   6.205   1.574   6.830
 6336SOL     OW19906   6.710   2.675   4.675
 6336SOL    HW119907   6.614   2.689   4.654
 6336SOL    HW219908   6.765   2.744   4.627
 6337SOL     OW19909   5.338   3.253   5.993
 6337SOL    HW119910   5.427   3.258   6.037
 6337SOL    HW219911   5.266   3.268   6.061
 6338SOL     OW19912   2.517   1.831   2.294
 6338SOL    HW119913   2.518   1.741   2.250
 6338SOL    HW219914   2.526   1.902   2.224
 6339SOL     OW19915   0.687   2.687   3.610
 6339SOL    HW119916   0.669   2.767   3.552
 6339SOL    HW219917   0.652   2.605   3.565
 6340SOL     OW19918   2.813   5.527   3.971
 6340SOL    HW119919   2.828   5.606   4.032
 6340SOL    HW219920   2.754   5.555   3.895
 6341SOL     OW19921   6.773   5.051   3.676
 6341SOL    HW119922   6.771   5.052   3.776
 6341SOL    HW219923   6.685   5.083   3.641
 6342SOL     OW19924   2.384   2.595   2.528
 6342SOL    HW119925   2.321   2.525   2.493
 6342SOL    HW219926   2.333   2.676   2.555
 6343SOL     OW19927   4.150   2.608   6.961
 6343SOL    HW119928   4.208   2.685   6.934
 6343SOL    HW219929   4.169   2.530   6.902
 6344SOL     OW19930   0.122   3.675   5.278
 6344SOL    HW119931   0.150   3.598   5.221
 6344SOL    HW219932   0.203   3.724   5.310
 6345SOL     OW19933   3.859   1.723   2.509
 6345SOL    HW119934   3.824   1.672   2.588
 6345SOL    HW219935   3.906   1.661   2.447
 6346SOL     OW19936   7.023   3.326   3.654
 6346SOL    HW119937   6.993   3.250   3.712
 6346SOL    HW219938   0.078   3.300   3.605
 6347SOL     OW19939   2.893   0.154   1.037
 6347SOL    HW119940   2.937   0.085   1.094
 6347SOL    HW219941   2.959   0.188   0.970
 6348SOL     OW19942   0.730   3.441   4.713
 6348SOL    HW119943   0.748   3.377   4.788
 6348SOL    HW219944   0.805   3.507   4.707
 6349SOL     OW19945   2.913   0.618   1.751
 6349SOL    HW119946   2.918   0.631   1.652
 6349SOL    HW219947   3.003   0.591   1.785
 6350SOL     OW19948   1.343   5.895   2.698
 6350SOL    HW119949   1.311   5.801   2.716
 6350SOL    HW219950   1.317   5.953   2.775
 6351SOL     OW19951   0.068   2.570   2.379
 6351SOL    HW119952   0.094   2.648   2.435
 6351SOL    HW219953   6.997   2.551   2.391
 6352SOL     OW19954   1.266   4.982   3.483
 6352SOL    HW119955   1.322   4.901   3.498
 6352SOL    HW219956   1.171   4.960   3.505
 6353SOL     OW19957   0.323   0.242   6.501
 6353SOL    HW119958   0.303   0.146   6.520
 6353SOL    HW219959   0.377   0.280   6.576
 6354SOL     OW19960   1.059   6.830   2.266
 6354SOL    HW119961   1.062   6.913   2.321
 6354SOL    HW219962   0.971   6.785   2.277
 6355SOL     OW19963   1.609   3.343   3.562
 6355SOL    HW119964   1.566   3.253   3.570
 6355SOL    HW219965   1.614   3.386   3.652
 6356SOL     OW19966   5.005   4.741   1.239
 6356SOL    HW119967   5.093   4.777   1.208
 6356SOL    HW219968   4.937   4.814   1.240
 6357SOL     OW19969   4.520   3.130   0.745
 6357SOL    HW119970   4.483   3.096   0.659
 6357SOL    HW219971   4.445   3.144   0.810
 6358SOL     OW19972   6.947   2.562   3.995
 6358SOL    HW119973   6.933   2.551   3.897
 6358SOL    HW219974   0.000   2.619   4.011
 6359SOL     OW19975   6.803   0.442   5.248
 6359SOL    HW119976   6.795   0.377   5.323
 6359SOL    HW219977   6.874   0.510   5.269
 6360SOL     OW19978   2.584   4.591   4.261
 6360SOL    HW119979   2.524   4.594   4.341
 6360SOL    HW219980   2.585   4.680   4.217
 6361SOL     OW19981   4.289   5.351   6.571
 6361SOL    HW119982   4.384   5.377   6.553
 6361SOL    HW219983   4.266   5.271   6.515
 6362SOL     OW19984   6.087   4.703   6.711
 6362SOL    HW119985   6.006   4.745   6.671
 6362SOL    HW219986   6.166   4.763   6.698
 6363SOL     OW19987   2.151   6.408   4.603
 6363SOL    HW119988   2.054   6.428   4.587
 6363SOL    HW219989   2.164   6.379   4.698
 6364SOL     OW19990   2.845   1.972   5.470
 6364SOL    HW119991   2.764   2.027   5.492
 6364SOL    HW219992   2.928   2.024   5.491
 6365SOL     OW19993   4.744   6.985   3.379
 6365SOL    HW119994   4.756   6.901   3.326
 6365SOL    HW219995   4.832   0.004   3.389
 6366SOL     OW19996   0.835   5.151   5.429
 6366SOL    HW119997   0.761   5.139   5.494
 6366SOL    HW219998   0.923   5.133   5.474
 6367SOL     OW19999   4.947   0.449   3.289
 6367SOL    HW120000   4.935   0.437   3.388
 6367SOL    HW220001   4.858   0.470   3.247
 6368SOL     OW20002   3.265   0.055   4.217
 6368SOL    HW120003   3.330   0.109   4.270
 6368SOL    HW220004   3.293   6.986   4.219
 6369SOL     OW20005   2.829   5.290   4.651
 6369SOL    HW120006   2.774   5.206   4.651
 6369SOL    HW220007   2.924   5.267   4.672
 6370SOL     OW20008   0.185   2.100   1.802
 6370SOL    HW120009   0.109   2.162   1.785
 6370SOL    HW220010   0.241   2.092   1.720
 6371SOL     OW20011   4.658   2.704   2.887
 6371SOL    HW120012   4.665   2.707   2.787
 6371SOL    HW220013   4.596   2.630   2.914
 6372SOL     OW20014   3.229   6.445   2.143
 6372SOL    HW120015   3.289   6.432   2.064
 6372SOL    HW220016   3.143   6.485   2.113
 6373SOL     OW20017   5.418   4.454   5.520
 6373SOL    HW120018   5.355   4.392   5.566
 6373SOL    HW220019   5.462   4.513   5.588
 6374SOL     OW20020   2.992   3.161   3.402
 6374SOL    HW120021   2.901   3.139   3.437
 6374SOL    HW220022   2.996   3.141   3.304
 6375SOL     OW20023   1.428   0.362   2.985
 6375SOL    HW120024   1.334   0.377   2.955
 6375SOL    HW220025   1.481   0.323   2.910
 6376SOL     OW20026   0.350   1.715   4.358
 6376SOL    HW120027   0.264   1.686   4.400
 6376SOL    HW220028   0.331   1.763   4.273
 6377SOL     OW20029   0.394   1.361   4.960
 6377SOL    HW120030   0.461   1.298   4.921
 6377SOL    HW220031   0.302   1.335   4.931
 6378SOL     OW20032   4.986   4.445   4.038
 6378SOL    HW120033   4.960   4.440   4.134
 6378SOL    HW220034   5.084   4.465   4.032
 6379SOL     OW20035   2.592   4.714   3.842
 6379SOL    HW120036   2.565   4.766   3.761
 6379SOL    HW220037   2.690   4.696   3.839
 6380SOL     OW20038   0.562   1.254   5.730
 6380SOL    HW120039   0.625   1.322   5.690
 6380SOL    HW220040   0.474   1.297   5.747
 6381SOL     OW20041   3.134   3.705   2.612
 6381SOL    HW120042   3.106   3.609   2.601
 6381SOL    HW220043   3.055   3.764   2.601
 6382SOL     OW20044   1.238   2.575   6.107
 6382SOL    HW120045   1.316   2.576   6.044
 6382SOL    HW220046   1.156   2.543   6.059
 6383SOL     OW20047   2.203   2.111   3.937
 6383SOL    HW120048   2.177   2.122   3.841
 6383SOL    HW220049   2.277   2.174   3.959
 6384SOL     OW20050   5.776   5.468   2.334
 6384SOL    HW120051   5.758   5.381   2.380
 6384SOL    HW220052   5.733   5.542   2.384
 6385SOL     OW20053   6.492   5.240   4.062
 6385SOL    HW120054   6.441   5.194   3.989
 6385SOL    HW220055   6.583   5.200   4.070
 6386SOL     OW20056   2.662   5.303   0.921
 6386SOL    HW120057   2.689   5.267   0.832
 6386SOL    HW220058   2.562   5.301   0.928
 6387SOL     OW20059   0.361   2.304   5.902
 6387SOL    HW120060   0.407   2.243   5.966
 6387SOL    HW220061   0.430   2.355   5.850
 6388SOL     OW20062   3.432   4.707   1.593
 6388SOL    HW120063   3.456   4.691   1.689
 6388SOL    HW220064   3.332   4.713   1.585
 6389SOL     OW20065   0.989   5.831   2.998
 6389SOL    HW120066   0.952   5.779   3.074
 6389SOL    HW220067   0.914   5.880   2.952
 6390SOL     OW20068   0.247   2.428   3.220
 6390SOL    HW120069   0.243   2.346   3.277
 6390SOL    HW220070   0.295   2.407   3.135
 6391SOL     OW20071   3.317   1.632   0.311
 6391SOL    HW120072   3.360   1.721   0.327
 6391SOL    HW220073   3.281   1.628   0.218
 6392SOL     OW20074   2.040   6.720   4.001
 6392SOL    HW120075   2.070   6.681   3.914
 6392SOL    HW220076   1.959   6.671   4.033
 6393SOL     OW20077   5.533   6.676   0.765
 6393SOL    HW120078   5.544   6.752   0.829
 6393SOL    HW220079   5.530   6.590   0.815
 6394SOL     OW20080   2.661   5.153   0.698
 6394SOL    HW120081   2.615   5.066   0.716
 6394SOL    HW220082   2.760   5.140   0.701
 6395SOL     OW20083   5.876   1.418   1.042
 6395SOL    HW120084   5.963   1.373   1.062
 6395SOL    HW220085   5.893   1.503   0.992
 6396SOL     OW20086   4.672   2.407   5.894
 6396SOL    HW120087   4.619   2.460   5.960
 6396SOL    HW220088   4.691   2.316   5.931
 6397SOL     OW20089   0.364   2.194   6.791
 6397SOL    HW120090   0.441   2.182   6.853
 6397SOL    HW220091   0.378   2.276   6.735
 6398SOL     OW20092   2.865   0.991   1.611
 6398SOL    HW120093   2.895   0.978   1.706
 6398SOL    HW220094   2.939   0.964   1.549
 6399SOL     OW20095   1.751   5.781   0.002
 6399SOL    HW120096   1.844   5.818   0.011
 6399SOL    HW220097   1.690   5.852   6.996
 6400SOL     OW20098   2.557   5.614   3.869
 6400SOL    HW120099   2.587   5.681   3.801
 6400SOL    HW220100   2.465   5.636   3.900
 6401SOL     OW20101   0.164   4.880   3.559
 6401SOL    HW120102   0.212   4.833   3.632
 6401SOL    HW220103   0.222   4.952   3.521
 6402SOL     OW20104   3.024   0.706   3.039
 6402SOL    HW120105   3.118   0.677   3.020
 6402SOL    HW220106   3.022   0.804   3.058
 6403SOL     OW20107   1.228   4.322   0.298
 6403SOL    HW120108   1.234   4.415   0.261
 6403SOL    HW220109   1.169   4.321   0.378
 6404SOL     OW20110   4.110   1.983   3.360
 6404SOL    HW120111   4.188   1.946   3.310
 6404SOL    HW220112   4.106   2.082   3.348
 6405SOL     OW20113   2.175   1.763   2.519
 6405SOL    HW120114   2.238   1.688   2.498
 6405SOL    HW220115   2.208   1.847   2.477
 6406SOL     OW20116   2.153   1.086   3.784
 6406SOL    HW120117   2.102   1.126   3.708
 6406SOL    HW220118   2.089   1.058   3.856
 6407SOL     OW20119   3.076   6.744   4.805
 6407SOL    HW120120   3.092   6.839   4.832
 6407SOL    HW220121   3.062   6.688   4.886
 6408SOL     OW20122   5.885   1.827   6.766
 6408SOL    HW120123   5.800   1.781   6.739
 6408SOL    HW220124   5.915   1.791   6.854
 6409SOL     OW20125   6.550   3.345   3.052
 6409SOL    HW120126   6.631   3.292   3.028
 6409SOL    HW220127   6.525   3.403   2.975
 6410SOL     OW20128   1.433   1.395   0.232
 6410SOL    HW120129   1.490   1.343   0.169
 6410SOL    HW220130   1.475   1.483   0.251
 6411SOL     OW20131   1.127   1.082   3.453
 6411SOL    HW120132   1.210   1.035   3.423
 6411SOL    HW220133   1.047   1.030   3.424
 6412SOL     OW20134   7.005   2.587   5.247
 6412SOL    HW120135   0.047   2.651   5.280
 6412SOL    HW220136   0.013   2.494   5.252
 6413SOL     OW20137   6.248   5.277   2.023
 6413SOL    HW120138   6.161   5.232   2.002
 6413SOL    HW220139   6.247   5.307   2.119
 6414SOL     OW20140   5.902   0.417   0.992
 6414SOL    HW120141   5.864   0.367   1.070
 6414SOL    HW220142   5.985   0.466   1.021
 6415SOL     OW20143   2.241   2.342   2.121
 6415SOL    HW120144   2.226   2.246   2.097
 6415SOL    HW220145   2.299   2.385   2.053
 6416SOL     OW20146   0.760   6.890   6.948
 6416SOL    HW120147   0.667   6.860   6.964
 6416SOL    HW220148   0.781   6.887   6.851
 6417SOL     OW20149   0.450   7.013   3.492
 6417SOL    HW120150   0.379   0.052   3.471
 6417SOL    HW220151   0.409   6.932   3.534
 6418SOL     OW20152   6.525   5.298   2.469
 6418SOL    HW120153   6.566   5.371   2.525
 6418SOL    HW220154   6.534   5.322   2.373
 6419SOL     OW20155   3.568   5.182   2.006
 6419SOL    HW120156   3.570   5.117   2.082
 6419SOL    HW220157   3.657   5.224   1.996
 6420SOL     OW20158   3.172   3.428   6.366
 6420SOL    HW120159   3.214   3.516   6.387
 6420SOL    HW220160   3.203   3.359   6.431
 6421SOL     OW20161   5.731   0.353   1.185
 6421SOL    HW120162   5.643   0.393   1.160
 6421SOL    HW220163   5.717   0.275   1.246
 6422SOL     OW20164   6.395   0.601   3.063
 6422SOL    HW120165   6.421   0.686   3.017
 6422SOL    HW220166   6.325   0.554   3.008
 6423SOL     OW20167   4.579   3.418   1.171
 6423SOL    HW120168   4.519   3.343   1.200
 6423SOL    HW220169   4.671   3.382   1.155
 6424SOL     OW20170   6.142   3.905   6.372
 6424SOL    HW120171   6.129   3.987   6.317
 6424SOL    HW220172   6.191   3.929   6.456
 6425SOL     OW20173   0.062   4.746   2.826
 6425SOL    HW120174   0.046   4.651   2.800
 6425SOL    HW220175   0.076   4.751   2.925
 6426SOL     OW20176   1.217   2.929   3.688
 6426SOL    HW120177   1.225   2.861   3.614
 6426SOL    HW220178   1.263   2.895   3.769
 6427SOL     OW20179   1.335   3.706   6.162
 6427SOL    HW120180   1.306   3.802   6.156
 6427SOL    HW220181   1.433   3.702   6.181
 6428SOL     OW20182   6.682   3.710   2.318
 6428SOL    HW120183   6.650   3.617   2.336
 6428SOL    HW220184   6.780   3.716   2.339
 6429SOL     OW20185   1.848   0.857   4.822
 6429SOL    HW120186   1.819   0.767   4.791
 6429SOL    HW220187   1.773   0.900   4.873
 6430SOL     OW20188   4.970   1.302   1.810
 6430SOL    HW120189   5.061   1.273   1.782
 6430SOL    HW220190   4.929   1.231   1.868
 6431SOL     OW20191   4.840   6.765   3.199
 6431SOL    HW120192   4.854   6.672   3.232
 6431SOL    HW220193   4.799   6.762   3.108
 6432SOL     OW20194   4.549   3.423   0.735
 6432SOL    HW120195   4.496   3.453   0.814
 6432SOL    HW220196   4.555   3.323   0.735
 6433SOL     OW20197   3.318   4.234   1.171
 6433SOL    HW120198   3.246   4.206   1.234
 6433SOL    HW220199   3.395   4.171   1.177
 6434SOL     OW20200   0.928   4.085   1.390
 6434SOL    HW120201   0.837   4.046   1.404
 6434SOL    HW220202   0.996   4.012   1.388
 6435SOL     OW20203   3.877   4.837   0.148
 6435SOL    HW120204   3.833   4.911   0.098
 6435SOL    HW220205   3.910   4.768   0.084
 6436SOL     OW20206   2.028   3.360   3.480
 6436SOL    HW120207   1.929   3.348   3.476
 6436SOL    HW220208   2.064   3.311   3.559
 6437SOL     OW20209   0.872   0.447   6.861
 6437SOL    HW120210   0.810   0.370   6.845
 6437SOL    HW220211   0.932   0.425   6.938
 6438SOL     OW20212   0.892   4.056   4.859
 6438SOL    HW120213   0.983   4.098   4.861
 6438SOL    HW220214   0.902   3.957   4.847
 6439SOL     OW20215   0.903   6.842   0.474
 6439SOL    HW120216   0.933   6.926   0.430
 6439SOL    HW220217   0.953   6.764   0.435
 6440SOL     OW20218   1.581   2.159   2.027
 6440SOL    HW120219   1.678   2.167   2.005
 6440SOL    HW220220   1.543   2.079   1.980
 6441SOL     OW20221   1.558   1.053   2.975
 6441SOL    HW120222   1.619   0.982   3.010
 6441SOL    HW220223   1.491   1.012   2.913
 6442SOL     OW20224   2.362   1.811   4.388
 6442SOL    HW120225   2.274   1.857   4.399
 6442SOL    HW220226   2.429   1.854   4.448
 6443SOL     OW20227   2.741   3.127   0.514
 6443SOL    HW120228   2.728   3.032   0.543
 6443SOL    HW220229   2.653   3.175   0.515
 6444SOL     OW20230   0.642   1.707   3.039
 6444SOL    HW120231   0.598   1.622   3.069
 6444SOL    HW220232   0.720   1.727   3.098
 6445SOL     OW20233   4.188   2.646   5.450
 6445SOL    HW120234   4.165   2.624   5.356
 6445SOL    HW220235   4.121   2.603   5.512
 6446SOL     OW20236   6.809   1.202   6.145
 6446SOL    HW120237   6.715   1.227   6.125
 6446SOL    HW220238   6.840   1.133   6.080
 6447SOL     OW20239   2.145   6.325   2.802
 6447SOL    HW120240   2.141   6.264   2.881
 6447SOL    HW220241   2.106   6.414   2.827
 6448SOL     OW20242   6.485   3.050   2.595
 6448SOL    HW120243   6.389   3.077   2.593
 6448SOL    HW220244   6.496   2.960   2.554
 6449SOL     OW20245   3.692   3.931   1.589
 6449SOL    HW120246   3.663   3.859   1.526
 6449SOL    HW220247   3.664   3.908   1.682
 6450SOL     OW20248   6.474   3.356   1.396
 6450SOL    HW120249   6.379   3.359   1.365
 6450SOL    HW220250   6.477   3.327   1.491
 6451SOL     OW20251   3.021   6.373   5.339
 6451SOL    HW120252   2.933   6.326   5.337
 6451SOL    HW220253   3.079   6.339   5.264
 6452SOL     OW20254   3.575   6.946   4.924
 6452SOL    HW120255   3.522   6.937   4.840
 6452SOL    HW220256   3.606   6.855   4.954
 6453SOL     OW20257   1.372   6.311   0.347
 6453SOL    HW120258   1.289   6.279   0.302
 6453SOL    HW220259   1.366   6.410   0.363
 6454SOL     OW20260   3.002   1.981   4.459
 6454SOL    HW120261   3.036   1.931   4.539
 6454SOL    HW220262   2.961   2.067   4.489
 6455SOL     OW20263   0.256   2.935   4.788
 6455SOL    HW120264   0.322   2.994   4.834
 6455SOL    HW220265   0.167   2.981   4.784
 6456SOL     OW20266   1.288   0.248   3.478
 6456SOL    HW120267   1.188   0.246   3.465
 6456SOL    HW220268   1.331   0.190   3.409
 6457SOL     OW20269   6.444   2.079   1.689
 6457SOL    HW120270   6.346   2.089   1.703
 6457SOL    HW220271   6.487   2.169   1.686
 6458SOL     OW20272   1.332   5.353   3.209
 6458SOL    HW120273   1.287   5.418   3.148
 6458SOL    HW220274   1.426   5.384   3.227
 6459SOL     OW20275   6.571   4.840   0.256
 6459SOL    HW120276   6.633   4.792   0.319
 6459SOL    HW220277   6.621   4.913   0.210
 6460SOL     OW20278   4.521   4.486   0.062
 6460SOL    HW120279   4.436   4.437   0.042
 6460SOL    HW220280   4.582   4.427   0.115
 6461SOL     OW20281   2.697   5.737   5.608
 6461SOL    HW120282   2.650   5.682   5.677
 6461SOL    HW220283   2.791   5.756   5.638
 6462SOL     OW20284   2.236   3.057   5.305
 6462SOL    HW120285   2.321   3.015   5.273
 6462SOL    HW220286   2.211   3.132   5.244
 6463SOL     OW20287   2.515   4.936   6.660
 6463SOL    HW120288   2.435   4.885   6.690
 6463SOL    HW220289   2.580   4.874   6.617
 6464SOL     OW20290   0.215   5.368   3.655
 6464SOL    HW120291   0.203   5.277   3.695
 6464SOL    HW220292   0.131   5.421   3.668
 6465SOL     OW20293   5.676   2.116   4.206
 6465SOL    HW120294   5.696   2.019   4.215
 6465SOL    HW220295   5.749   2.162   4.155
 6466SOL     OW20296   7.011   2.448   4.876
 6466SOL    HW120297   6.928   2.470   4.826
 6466SOL    HW220298   0.046   2.526   4.875
 6467SOL     OW20299   2.288   1.251   0.095
 6467SOL    HW120300   2.342   1.176   0.133
 6467SOL    HW220301   2.191   1.228   0.100
 6468SOL     OW20302   4.513   6.436   1.621
 6468SOL    HW120303   4.573   6.362   1.591
 6468SOL    HW220304   4.445   6.454   1.550
 6469SOL     OW20305   6.523   1.105   5.014
 6469SOL    HW120306   6.621   1.125   5.015
 6469SOL    HW220307   6.505   1.025   4.957
 6470SOL     OW20308   6.537   6.673   5.530
 6470SOL    HW120309   6.534   6.644   5.434
 6470SOL    HW220310   6.617   6.632   5.575
 6471SOL     OW20311   6.743   5.136   6.473
 6471SOL    HW120312   6.810   5.178   6.412
 6471SOL    HW220313   6.687   5.071   6.422
 6472SOL     OW20314   0.721   5.989   1.868
 6472SOL    HW120315   0.724   5.889   1.871
 6472SOL    HW220316   0.801   6.027   1.915
 6473SOL     OW20317   2.241   1.235   6.265
 6473SOL    HW120318   2.165   1.170   6.263
 6473SOL    HW220319   2.291   1.231   6.179
 6474SOL     OW20320   1.206   3.514   6.296
 6474SOL    HW120321   1.262   3.580   6.246
 6474SOL    HW220322   1.189   3.547   6.389
 6475SOL     OW20323   5.432   6.335   3.617
 6475SOL    HW120324   5.409   6.319   3.713
 6475SOL    HW220325   5.396   6.260   3.561
 6476SOL     OW20326   4.535   4.583   3.088
 6476SOL    HW120327   4.605   4.574   3.017
 6476SOL    HW220328   4.452   4.623   3.048
 6477SOL     OW20329   6.353   5.614   6.639
 6477SOL    HW120330   6.260   5.579   6.650
 6477SOL    HW220331   6.388   5.647   6.727
 6478SOL     OW20332   3.962   5.675   2.311
 6478SOL    HW120333   3.986   5.642   2.403
 6478SOL    HW220334   3.880   5.629   2.279
 6479SOL     OW20335   4.531   4.903   1.823
 6479SOL    HW120336   4.584   4.874   1.743
 6479SOL    HW220337   4.439   4.929   1.794
 6480SOL     OW20338   3.152   2.534   5.941
 6480SOL    HW120339   3.127   2.623   5.980
 6480SOL    HW220340   3.071   2.490   5.904
 6481SOL     OW20341   3.825   1.598   1.734
 6481SOL    HW120342   3.834   1.692   1.701
 6481SOL    HW220343   3.781   1.542   1.663
 6482SOL     OW20344   6.654   0.191   6.693
 6482SOL    HW120345   6.586   0.122   6.667
 6482SOL    HW220346   6.612   0.281   6.687
 6483SOL     OW20347   1.877   6.416   2.682
 6483SOL    HW120348   1.939   6.341   2.700
 6483SOL    HW220349   1.799   6.411   2.745
 6484SOL     OW20350   4.753   0.254   2.373
 6484SOL    HW120351   4.695   0.255   2.454
 6484SOL    HW220352   4.782   0.160   2.354
 6485SOL     OW20353   1.893   3.283   3.940
 6485SOL    HW120354   1.804   3.264   3.898
 6485SOL    HW220355   1.949   3.201   3.936
 6486SOL     OW20356   0.751   4.061   4.371
 6486SOL    HW120357   0.786   4.027   4.283
 6486SOL    HW220358   0.727   3.984   4.429
 6487SOL     OW20359   6.204   6.612   4.123
 6487SOL    HW120360   6.192   6.614   4.023
 6487SOL    HW220361   6.251   6.528   4.149
 6488SOL     OW20362   3.338   5.792   5.711
 6488SOL    HW120363   3.334   5.889   5.737
 6488SOL    HW220364   3.275   5.740   5.768
 6489SOL     OW20365   2.145   2.089   6.361
 6489SOL    HW120366   2.158   2.054   6.453
 6489SOL    HW220367   2.203   2.040   6.297
 6490SOL     OW20368   3.873   2.846   0.549
 6490SOL    HW120369   3.867   2.942   0.576
 6490SOL    HW220370   3.916   2.838   0.460
 6491SOL     OW20371   4.730   1.201   6.119
 6491SOL    HW120372   4.661   1.273   6.130
 6491SOL    HW220373   4.805   1.234   6.062
 6492SOL     OW20374   6.382   6.429   0.223
 6492SOL    HW120375   6.457   6.486   0.189
 6492SOL    HW220376   6.380   6.434   0.323
 6493SOL     OW20377   2.109   6.492   6.247
 6493SOL    HW120378   2.122   6.578   6.297
 6493SOL    HW220379   2.023   6.449   6.276
 6494SOL     OW20380   1.071   0.200   3.888
 6494SOL    HW120381   1.085   0.297   3.907
 6494SOL    HW220382   1.153   0.149   3.914
 6495SOL     OW20383   5.020   5.529   3.098
 6495SOL    HW120384   5.109   5.567   3.124
 6495SOL    HW220385   4.970   5.597   3.044
 6496SOL     OW20386   0.133   6.340   1.283
 6496SOL    HW120387   0.163   6.253   1.243
 6496SOL    HW220388   0.150   6.338   1.382
 6497SOL     OW20389   2.273   3.694   0.984
 6497SOL    HW120390   2.223   3.612   0.956
 6497SOL    HW220391   2.259   3.710   1.082
 6498SOL     OW20392   1.818   4.224   4.297
 6498SOL    HW120393   1.841   4.298   4.234
 6498SOL    HW220394   1.851   4.246   4.388
 6499SOL     OW20395   4.806   1.136   4.786
 6499SOL    HW120396   4.738   1.077   4.742
 6499SOL    HW220397   4.897   1.094   4.779
 6500SOL     OW20398   6.140   3.998   3.434
 6500SOL    HW120399   6.152   4.095   3.456
 6500SOL    HW220400   6.137   3.946   3.519
 6501SOL     OW20401   6.145   3.852   1.050
 6501SOL    HW120402   6.211   3.778   1.063
 6501SOL    HW220403   6.187   3.924   0.994
 6502SOL     OW20404   0.740   4.571   4.026
 6502SOL    HW120405   0.684   4.558   3.944
 6502SOL    HW220406   0.830   4.529   4.012
 6503SOL     OW20407   5.700   6.218   3.407
 6503SOL    HW120408   5.677   6.271   3.325
 6503SOL    HW220409   5.780   6.258   3.451
 6504SOL     OW20410   4.496   0.478   7.017
 6504SOL    HW120411   4.521   0.407   6.951
 6504SOL    HW220412   4.505   0.568   6.974
 6505SOL     OW20413   5.683   4.610   0.712
 6505SOL    HW120414   5.780   4.626   0.692
 6505SOL    HW220415   5.674   4.568   0.803
 6506SOL     OW20416   1.021   3.004   0.948
 6506SOL    HW120417   1.054   3.087   0.904
 6506SOL    HW220418   0.936   3.023   0.997
 6507SOL     OW20419   1.666   5.837   1.598
 6507SOL    HW120420   1.763   5.820   1.614
 6507SOL    HW220421   1.651   5.936   1.589
 6508SOL     OW20422   2.239   2.261   3.590
 6508SOL    HW120423   2.262   2.284   3.496
 6508SOL    HW220424   2.167   2.192   3.591
 6509SOL     OW20425   1.828   2.436   4.791
 6509SOL    HW120426   1.747   2.383   4.818
 6509SOL    HW220427   1.804   2.498   4.716
 6510SOL     OW20428   6.821   5.150   6.738
 6510SOL    HW120429   6.784   5.152   6.645
 6510SOL    HW220430   6.807   5.239   6.781
 6511SOL     OW20431   6.562   0.130   5.564
 6511SOL    HW120432   6.560   0.176   5.652
 6511SOL    HW220433   6.469   0.100   5.540
 6512SOL     OW20434   4.620   6.880   2.681
 6512SOL    HW120435   4.559   6.952   2.714
 6512SOL    HW220436   4.565   6.804   2.645
 6513SOL     OW20437   3.574   6.837   4.231
 6513SOL    HW120438   3.613   6.893   4.158
 6513SOL    HW220439   3.614   6.864   4.319
 6514SOL     OW20440   4.690   0.672   4.463
 6514SOL    HW120441   4.749   0.601   4.425
 6514SOL    HW220442   4.743   0.755   4.477
 6515SOL     OW20443   6.885   5.687   4.115
 6515SOL    HW120444   6.818   5.636   4.169
 6515SOL    HW220445   6.938   5.746   4.176
 6516SOL     OW20446   0.983   1.942   6.160
 6516SOL    HW120447   1.073   1.979   6.138
 6516SOL    HW220448   0.990   1.879   6.237
 6517SOL     OW20449   0.662   1.606   0.450
 6517SOL    HW120450   0.570   1.643   0.439
 6517SOL    HW220451   0.657   1.506   0.458
 6518SOL     OW20452   0.640   6.374   1.084
 6518SOL    HW120453   0.649   6.275   1.084
 6518SOL    HW220454   0.568   6.401   1.019
 6519SOL     OW20455   2.127   1.375   4.094
 6519SOL    HW120456   2.187   1.454   4.096
 6519SOL    HW220457   2.173   1.296   4.134
 6520SOL     OW20458   6.334   5.538   2.049
 6520SOL    HW120459   6.361   5.522   2.144
 6520SOL    HW220460   6.329   5.451   2.000
 6521SOL     OW20461   1.257   1.783   4.717
 6521SOL    HW120462   1.355   1.767   4.733
 6521SOL    HW220463   1.241   1.801   4.620
 6522SOL     OW20464   2.472   5.984   6.755
 6522SOL    HW120465   2.393   5.980   6.816
 6522SOL    HW220466   2.486   6.079   6.725
 6523SOL     OW20467   2.209   1.608   6.841
 6523SOL    HW120468   2.289   1.581   6.894
 6523SOL    HW220469   2.136   1.540   6.853
 6524SOL     OW20470   3.938   3.970   3.839
 6524SOL    HW120471   4.013   4.024   3.801
 6524SOL    HW220472   3.946   3.966   3.938
 6525SOL     OW20473   0.716   2.599   3.067
 6525SOL    HW120474   0.629   2.604   3.020
 6525SOL    HW220475   0.718   2.518   3.125
 6526SOL     OW20476   1.158   6.098   4.673
 6526SOL    HW120477   1.189   6.192   4.666
 6526SOL    HW220478   1.067   6.096   4.714
 6527SOL     OW20479   1.200   0.010   4.996
 6527SOL    HW120480   1.192   6.941   4.971
 6527SOL    HW220481   1.285   0.047   4.960
 6528SOL     OW20482   0.637   0.847   4.463
 6528SOL    HW120483   0.653   0.748   4.466
 6528SOL    HW220484   0.563   0.866   4.398
 6529SOL     OW20485   5.865   1.715   2.165
 6529SOL    HW120486   5.793   1.737   2.099
 6529SOL    HW220487   5.939   1.782   2.157
 6530SOL     OW20488   6.858   2.457   0.078
 6530SOL    HW120489   6.953   2.489   0.079
 6530SOL    HW220490   6.845   2.390   0.151
 6531SOL     OW20491   5.606   2.407   3.900
 6531SOL    HW120492   5.552   2.489   3.920
 6531SOL    HW220493   5.668   2.426   3.824
 6532SOL     OW20494   6.301   1.511   6.483
 6532SOL    HW120495   6.302   1.411   6.483
 6532SOL    HW220496   6.207   1.543   6.487
 6533SOL     OW20497   4.942   6.397   0.612
 6533SOL    HW120498   4.974   6.488   0.638
 6533SOL    HW220499   5.017   6.346   0.571
 6534SOL     OW20500   2.040   3.658   1.358
 6534SOL    HW120501   2.135   3.659   1.326
 6534SOL    HW220502   2.018   3.745   1.402
 6535SOL     OW20503   0.536   3.482   4.964
 6535SOL    HW120504   0.509   3.576   4.986
 6535SOL    HW220505   0.590   3.482   4.879
 6536SOL     OW20506   5.834   1.914   0.252
 6536SOL    HW120507   5.749   1.868   0.279
 6536SOL    HW220508   5.862   1.882   0.161
 6537SOL     OW20509   6.909   0.045   6.875
 6537SOL    HW120510   6.866   7.008   6.939
 6537SOL    HW220511   7.005   0.056   6.900
 6538SOL     OW20512   3.383   3.797   0.406
 6538SOL    HW120513   3.387   3.848   0.492
 6538SOL    HW220514   3.288   3.779   0.382
 6539SOL     OW20515   2.051   1.659   6.614
 6539SOL    HW120516   2.121   1.635   6.682
 6539SOL    HW220517   2.049   1.589   6.543
 6540SOL     OW20518   3.606   1.121   4.265
 6540SOL    HW120519   3.634   1.173   4.184
 6540SOL    HW220520   3.556   1.039   4.237
 6541SOL     OW20521   3.201   2.485   5.586
 6541SOL    HW120522   3.136   2.439   5.647
 6541SOL    HW220523   3.154   2.511   5.501
 6542SOL     OW20524   6.045   4.709   3.505
 6542SOL    HW120525   6.094   4.666   3.429
 6542SOL    HW220526   6.107   4.721   3.583
 6543SOL     OW20527   6.391   6.087   6.880
 6543SOL    HW120528   6.317   6.138   6.836
 6543SOL    HW220529   6.355   6.041   6.962
 6544SOL     OW20530   6.910   6.177   3.962
 6544SOL    HW120531   6.899   6.164   3.863
 6544SOL    HW220532   6.864   6.102   4.010
 6545SOL     OW20533   5.307   1.427   5.669
 6545SOL    HW120534   5.303   1.421   5.569
 6545SOL    HW220535   5.218   1.456   5.704
 6546SOL     OW20536   3.584   5.077   6.185
 6546SOL    HW120537   3.626   5.012   6.122
 6546SOL    HW220538   3.618   5.060   6.277
 6547SOL     OW20539   5.120   2.779   6.491
 6547SOL    HW120540   5.069   2.740   6.414
 6547SOL    HW220541   5.127   2.878   6.481
 6548SOL     OW20542   6.471   4.524   6.026
 6548SOL    HW120543   6.431   4.599   6.079
 6548SOL    HW220544   6.461   4.543   5.928
 6549SOL     OW20545   3.899   2.077   0.854
 6549SOL    HW120546   3.925   2.023   0.935
 6549SOL    HW220547   3.806   2.054   0.828
 6550SOL     OW20548   0.913   5.959   3.349
 6550SOL    HW120549   0.997   5.986   3.396
 6550SOL    HW220550   0.834   5.983   3.405
 6551SOL     OW20551   1.804   4.919   1.804
 6551SOL    HW120552   1.901   4.900   1.786
 6551SOL    HW220553   1.780   5.008   1.765
 6552SOL     OW20554   2.230   5.199   5.913
 6552SOL    HW120555   2.162   5.127   5.894
 6552SOL    HW220556   2.309   5.158   5.958
 6553SOL     OW20557   0.482   3.295   1.647
 6553SOL    HW120558   0.394   3.304   1.694
 6553SOL    HW220559   0.545   3.366   1.679
 6554SOL     OW20560   6.642   2.045   6.024
 6554SOL    HW120561   6.639   2.017   5.928
 6554SOL    HW220562   6.644   2.145   6.029
 6555SOL     OW20563   1.861   1.251   2.210
 6555SOL    HW120564   1.934   1.241   2.143
 6555SOL    HW220565   1.843   1.348   2.227
 6556SOL     OW20566   4.572   4.729   4.939
 6556SOL    HW120567   4.600   4.773   4.854
 6556SOL    HW220568   4.489   4.676   4.924
 6557SOL     OW20569   6.028   5.648   0.613
 6557SOL    HW120570   5.973   5.565   0.615
 6557SOL    HW220571   5.968   5.728   0.605
 6558SOL     OW20572   6.153   6.332   0.650
 6558SOL    HW120573   6.066   6.321   0.602
 6558SOL    HW220574   6.180   6.244   0.690
 6559SOL     OW20575   5.276   3.638   1.263
 6559SOL    HW120576   5.269   3.553   1.210
 6559SOL    HW220577   5.234   3.625   1.352
 6560SOL     OW20578   3.774   3.017   1.056
 6560SOL    HW120579   3.864   2.976   1.043
 6560SOL    HW220580   3.705   2.944   1.063
 6561SOL     OW20581   3.910   4.034   2.721
 6561SOL    HW120582   3.943   3.949   2.762
 6561SOL    HW220583   3.975   4.108   2.740
 6562SOL     OW20584   6.362   5.013   5.997
 6562SOL    HW120585   6.273   4.997   5.953
 6562SOL    HW220586   6.385   4.935   6.055
 6563SOL     OW20587   0.588   6.245   0.065
 6563SOL    HW120588   0.610   6.180   0.139
 6563SOL    HW220589   0.657   6.317   0.062
 6564SOL     OW20590   1.046   3.522   2.133
 6564SOL    HW120591   0.954   3.536   2.170
 6564SOL    HW220592   1.110   3.580   2.183
 6565SOL     OW20593   6.226   2.753   4.676
 6565SOL    HW120594   6.239   2.844   4.713
 6565SOL    HW220595   6.307   2.727   4.623
 6566SOL     OW20596   3.220   6.736   0.999
 6566SOL    HW120597   3.264   6.653   1.032
 6566SOL    HW220598   3.285   6.812   1.005
 6567SOL     OW20599   5.175   2.805   0.750
 6567SOL    HW120600   5.111   2.728   0.752
 6567SOL    HW220601   5.151   2.870   0.822
 6568SOL     OW20602   4.373   4.610   1.718
 6568SOL    HW120603   4.468   4.608   1.749
 6568SOL    HW220604   4.344   4.517   1.694
 6569SOL     OW20605   2.183   5.004   0.657
 6569SOL    HW120606   2.257   4.980   0.594
 6569SOL    HW220607   2.206   4.970   0.748
 6570SOL     OW20608   5.322   0.996   1.773
 6570SOL    HW120609   5.302   0.996   1.871
 6570SOL    HW220610   5.365   0.909   1.748
 6571SOL     OW20611   2.222   6.000   3.680
 6571SOL    HW120612   2.319   5.984   3.661
 6571SOL    HW220613   2.168   5.922   3.648
 6572SOL     OW20614   6.890   3.815   5.492
 6572SOL    HW120615   6.962   3.793   5.558
 6572SOL    HW220616   6.828   3.737   5.483
 6573SOL     OW20617   3.316   0.966   2.418
 6573SOL    HW120618   3.316   1.037   2.347
 6573SOL    HW220619   3.402   0.915   2.414
 6574SOL     OW20620   2.446   5.397   2.135
 6574SOL    HW120621   2.376   5.422   2.203
 6574SOL    HW220622   2.418   5.313   2.088
 6575SOL     OW20623   1.063   1.393   1.789
 6575SOL    HW120624   1.090   1.304   1.754
 6575SOL    HW220625   0.966   1.408   1.773
 6576SOL     OW20626   1.353   5.783   6.612
 6576SOL    HW120627   1.343   5.840   6.693
 6576SOL    HW220628   1.265   5.740   6.590
 6577SOL     OW20629   1.299   1.610   3.826
 6577SOL    HW120630   1.370   1.623   3.895
 6577SOL    HW220631   1.337   1.564   3.747
 6578SOL     OW20632   5.987   5.344   3.648
 6578SOL    HW120633   5.913   5.394   3.605
 6578SOL    HW220634   6.070   5.400   3.649
 6579SOL     OW20635   6.713   4.382   3.376
 6579SOL    HW120636   6.772   4.327   3.435
 6579SOL    HW220637   6.703   4.474   3.415
 6580SOL     OW20638   5.440   0.440   0.889
 6580SOL    HW120639   5.382   0.400   0.960
 6580SOL    HW220640   5.466   0.533   0.915
 6581SOL     OW20641   4.359   2.405   6.518
 6581SOL    HW120642   4.415   2.451   6.587
 6581SOL    HW220643   4.417   2.346   6.462
 6582SOL     OW20644   0.328   6.822   3.080
 6582SOL    HW120645   0.275   6.782   3.004
 6582SOL    HW220646   0.321   6.921   3.076
 6583SOL     OW20647   5.447   1.563   5.862
 6583SOL    HW120648   5.407   1.507   5.790
 6583SOL    HW220649   5.538   1.529   5.885
 6584SOL     OW20650   6.028   1.576   6.507
 6584SOL    HW120651   6.000   1.671   6.489
 6584SOL    HW220652   5.957   1.530   6.560
 6585SOL     OW20653   0.390   1.567   6.888
 6585SOL    HW120654   0.450   1.589   6.965
 6585SOL    HW220655   0.323   1.641   6.876
 6586SOL     OW20656   6.810   1.714   5.956
 6586SOL    HW120657   6.862   1.709   6.041
 6586SOL    HW220658   6.716   1.740   5.975
 6587SOL     OW20659   1.778   5.913   4.149
 6587SOL    HW120660   1.842   5.901   4.073
 6587SOL    HW220661   1.773   6.010   4.174
 6588SOL     OW20662   1.642   3.087   0.467
 6588SOL    HW120663   1.583   3.100   0.388
 6588SOL    HW220664   1.712   3.159   0.469
 6589SOL     OW20665   4.648   1.300   5.835
 6589SOL    HW120666   4.669   1.212   5.792
 6589SOL    HW220667   4.550   1.304   5.857
 6590SOL     OW20668   0.118   1.631   4.430
 6590SOL    HW120669   0.019   1.636   4.441
 6590SOL    HW220670   0.148   1.536   4.436
 6591SOL     OW20671   5.535   6.690   2.658
 6591SOL    HW120672   5.436   6.674   2.647
 6591SOL    HW220673   5.567   6.646   2.742
 6592SOL     OW20674   4.487   0.279   4.664
 6592SOL    HW120675   4.442   0.348   4.720
 6592SOL    HW220676   4.430   0.198   4.659
 6593SOL     OW20677   3.350   2.122   4.024
 6593SOL    HW120678   3.261   2.076   4.029
 6593SOL    HW220679   3.338   2.220   4.040
 6594SOL     OW20680   5.114   0.812   6.410
 6594SOL    HW120681   5.187   0.773   6.466
 6594SOL    HW220682   5.028   0.763   6.428
 6595SOL     OW20683   1.405   3.332   0.668
 6595SOL    HW120684   1.499   3.350   0.641
 6595SOL    HW220685   1.358   3.419   0.685
 6596SOL     OW20686   4.573   0.280   5.560
 6596SOL    HW120687   4.486   0.331   5.563
 6596SOL    HW220688   4.571   0.216   5.483
 6597SOL     OW20689   6.529   6.555   4.290
 6597SOL    HW120690   6.501   6.651   4.299
 6597SOL    HW220691   6.576   6.526   4.373
 6598SOL     OW20692   1.538   5.653   5.035
 6598SOL    HW120693   1.539   5.654   5.135
 6598SOL    HW220694   1.446   5.634   5.003
 6599SOL     OW20695   3.986   5.209   6.333
 6599SOL    HW120696   3.930   5.284   6.370
 6599SOL    HW220697   3.968   5.200   6.235
 6600SOL     OW20698   4.413   5.674   4.576
 6600SOL    HW120699   4.393   5.692   4.673
 6600SOL    HW220700   4.494   5.726   4.550
 6601SOL     OW20701   0.355   1.234   0.525
 6601SOL    HW120702   0.338   1.157   0.463
 6601SOL    HW220703   0.268   1.264   0.565
 6602SOL     OW20704   0.637   2.143   1.466
 6602SOL    HW120705   0.688   2.160   1.382
 6602SOL    HW220706   0.624   2.045   1.478
 6603SOL     OW20707   1.871   3.525   3.058
 6603SOL    HW120708   1.835   3.599   3.115
 6603SOL    HW220709   1.879   3.557   2.963
 6604SOL     OW20710   2.752   5.676   2.475
 6604SOL    HW120711   2.711   5.589   2.445
 6604SOL    HW220712   2.681   5.746   2.482
 6605SOL     OW20713   5.304   5.658   0.103
 6605SOL    HW120714   5.381   5.645   0.041
 6605SOL    HW220715   5.333   5.711   0.182
 6606SOL     OW20716   5.259   0.632   2.340
 6606SOL    HW120717   5.319   0.650   2.418
 6606SOL    HW220718   5.176   0.686   2.349
 6607SOL     OW20719   1.776   1.514   2.267
 6607SOL    HW120720   1.814   1.566   2.344
 6607SOL    HW220721   1.763   1.575   2.189
 6608SOL     OW20722   5.138   3.273   3.562
 6608SOL    HW120723   5.153   3.271   3.661
 6608SOL    HW220724   5.039   3.275   3.544
 6609SOL     OW20725   5.677   1.248   0.067
 6609SOL    HW120726   5.634   1.232   7.006
 6609SOL    HW220727   5.720   1.164   0.099
 6610SOL     OW20728   2.031   0.493   0.666
 6610SOL    HW120729   2.102   0.436   0.626
 6610SOL    HW220730   1.946   0.482   0.614
 6611SOL     OW20731   6.315   2.261   3.325
 6611SOL    HW120732   6.280   2.343   3.281
 6611SOL    HW220733   6.352   2.199   3.256
 6612SOL     OW20734   1.615   5.972   6.880
 6612SOL    HW120735   1.522   5.998   6.853
 6612SOL    HW220736   1.681   6.024   6.826
 6613SOL     OW20737   5.324   5.369   3.050
 6613SOL    HW120738   5.315   5.416   2.962
 6613SOL    HW220739   5.395   5.413   3.105
 6614SOL     OW20740   5.054   5.325   6.221
 6614SOL    HW120741   4.999   5.358   6.144
 6614SOL    HW220742   5.006   5.248   6.265
 6615SOL     OW20743   0.451   3.373   5.490
 6615SOL    HW120744   0.379   3.425   5.536
 6615SOL    HW220745   0.411   3.292   5.447
 6616SOL     OW20746   4.957   1.386   5.428
 6616SOL    HW120747   4.888   1.422   5.365
 6616SOL    HW220748   4.952   1.435   5.515
 6617SOL     OW20749   2.795   6.552   4.561
 6617SOL    HW120750   2.830   6.636   4.520
 6617SOL    HW220751   2.728   6.575   4.631
 6618SOL     OW20752   1.131   4.157   2.282
 6618SOL    HW120753   1.157   4.073   2.234
 6618SOL    HW220754   1.054   4.199   2.234
 6619SOL     OW20755   4.058   0.020   3.628
 6619SOL    HW120756   4.017   0.090   3.687
 6619SOL    HW220757   4.152   0.044   3.607
 6620SOL     OW20758   1.446   2.971   6.173
 6620SOL    HW120759   1.453   2.893   6.235
 6620SOL    HW220760   1.532   3.022   6.174
 6621SOL     OW20761   2.900   3.906   0.588
 6621SOL    HW120762   2.945   3.827   0.628
 6621SOL    HW220763   2.941   3.928   0.500
 6622SOL     OW20764   6.544   6.288   0.612
 6622SOL    HW120765   6.588   6.234   0.541
 6622SOL    HW220766   6.471   6.343   0.571
 6623SOL     OW20767   3.589   2.924   2.904
 6623SOL    HW120768   3.591   3.011   2.953
 6623SOL    HW220769   3.680   2.882   2.906
 6624SOL     OW20770   3.700   5.677   5.140
 6624SOL    HW120771   3.655   5.749   5.192
 6624SOL    HW220772   3.642   5.649   5.064
 6625SOL     OW20773   6.401   0.965   6.564
 6625SOL    HW120774   6.329   0.994   6.501
 6625SOL    HW220775   6.479   1.026   6.555
 6626SOL     OW20776   3.232   5.447   3.424
 6626SOL    HW120777   3.323   5.488   3.424
 6626SOL    HW220778   3.226   5.379   3.350
 6627SOL     OW20779   1.871   0.878   6.134
 6627SOL    HW120780   1.863   0.801   6.070
 6627SOL    HW220781   1.788   0.885   6.188
 6628SOL     OW20782   4.514   4.482   2.690
 6628SOL    HW120783   4.565   4.449   2.611
 6628SOL    HW220784   4.417   4.490   2.666
 6629SOL     OW20785   3.211   5.637   1.496
 6629SOL    HW120786   3.188   5.638   1.594
 6629SOL    HW220787   3.259   5.721   1.472
 6630SOL     OW20788   3.236   1.645   0.059
 6630SOL    HW120789   3.222   1.547   0.043
 6630SOL    HW220790   3.170   1.698   0.006
 6631SOL     OW20791   5.525   0.548   2.172
 6631SOL    HW120792   5.467   0.605   2.230
 6631SOL    HW220793   5.535   0.458   2.213
 6632SOL     OW20794   6.877   1.379   0.429
 6632SOL    HW120795   6.946   1.423   0.371
 6632SOL    HW220796   6.833   1.449   0.486
 6633SOL     OW20797   1.388   5.986   0.116
 6633SOL    HW120798   1.416   5.890   0.112
 6633SOL    HW220799   1.470   6.044   0.113
 6634SOL     OW20800   6.644   2.964   5.761
 6634SOL    HW120801   6.665   2.868   5.779
 6634SOL    HW220802   6.564   2.991   5.813
 6635SOL     OW20803   4.733   5.265   3.295
 6635SOL    HW120804   4.639   5.248   3.266
 6635SOL    HW220805   4.733   5.311   3.384
 6636SOL     OW20806   1.394   2.921   4.770
 6636SOL    HW120807   1.374   3.004   4.718
 6636SOL    HW220808   1.310   2.891   4.815
 6637SOL     OW20809   1.056   0.538   0.487
 6637SOL    HW120810   1.036   0.475   0.562
 6637SOL    HW220811   1.122   0.606   0.517
 6638SOL     OW20812   1.659   5.671   5.732
 6638SOL    HW120813   1.640   5.693   5.828
 6638SOL    HW220814   1.606   5.591   5.705
 6639SOL     OW20815   5.930   4.545   6.480
 6639SOL    HW120816   6.013   4.538   6.425
 6639SOL    HW220817   5.950   4.515   6.574
 6640SOL     OW20818   0.177   2.205   3.433
 6640SOL    HW120819   0.116   2.157   3.497
 6640SOL    HW220820   0.218   2.284   3.479
 6641SOL     OW20821   3.060   4.060   6.454
 6641SOL    HW120822   2.990   3.989   6.448
 6641SOL    HW220823   3.128   4.034   6.522
 6642SOL     OW20824   1.637   4.863   6.723
 6642SOL    HW120825   1.587   4.949   6.737
 6642SOL    HW220826   1.646   4.846   6.625
 6643SOL     OW20827   5.914   4.075   6.132
 6643SOL    HW120828   5.937   3.981   6.156
 6643SOL    HW220829   5.885   4.079   6.037
 6644SOL     OW20830   2.957   4.791   1.895
 6644SOL    HW120831   3.018   4.719   1.862
 6644SOL    HW220832   2.879   4.749   1.942
 6645SOL     OW20833   6.893   4.761   6.476
 6645SOL    HW120834   6.900   4.822   6.397
 6645SOL    HW220835   6.985   4.738   6.508
 6646SOL     OW20836   3.553   5.339   4.640
 6646SOL    HW120837   3.561   5.355   4.542
 6646SOL    HW220838   3.511   5.249   4.656
 6647SOL     OW20839   3.679   0.509   1.780
 6647SOL    HW120840   3.759   0.497   1.838
 6647SOL    HW220841   3.707   0.550   1.693
 6648SOL     OW20842   4.423   5.851   2.617
 6648SOL    HW120843   4.397   5.911   2.541
 6648SOL    HW220844   4.521   5.863   2.636
 6649SOL     OW20845   5.000   2.085   6.539
 6649SOL    HW120846   4.912   2.051   6.506
 6649SOL    HW220847   5.033   2.157   6.478
 6650SOL     OW20848   3.989   1.057   3.517
 6650SOL    HW120849   4.045   1.001   3.579
 6650SOL    HW220850   3.938   0.997   3.455
 6651SOL     OW20851   1.306   2.205   6.917
 6651SOL    HW120852   1.380   2.251   6.966
 6651SOL    HW220853   1.295   2.247   6.826
 6652SOL     OW20854   6.805   5.430   1.651
 6652SOL    HW120855   6.756   5.355   1.694
 6652SOL    HW220856   6.894   5.442   1.695
 6653SOL     OW20857   2.894   3.729   2.838
 6653SOL    HW120858   2.983   3.688   2.859
 6653SOL    HW220859   2.839   3.664   2.787
 6654SOL     OW20860   2.170   2.992   1.336
 6654SOL    HW120861   2.261   3.029   1.318
 6654SOL    HW220862   2.115   2.998   1.253
 6655SOL     OW20863   3.103   6.817   1.920
 6655SOL    HW120864   3.046   6.782   1.845
 6655SOL    HW220865   3.199   6.808   1.896
 6656SOL     OW20866   6.876   1.265   1.292
 6656SOL    HW120867   6.942   1.337   1.315
 6656SOL    HW220868   6.886   1.241   1.195
 6657SOL     OW20869   3.834   6.784   6.116
 6657SOL    HW120870   3.866   6.874   6.088
 6657SOL    HW220871   3.788   6.791   6.205
 6658SOL     OW20872   5.888   1.245   5.201
 6658SOL    HW120873   5.928   1.181   5.135
 6658SOL    HW220874   5.853   1.194   5.280
 6659SOL     OW20875   2.923   3.303   0.144
 6659SOL    HW120876   2.968   3.375   0.091
 6659SOL    HW220877   2.990   3.255   0.200
 6660SOL     OW20878   6.816   6.800   2.064
 6660SOL    HW120879   6.783   6.732   2.130
 6660SOL    HW220880   6.831   6.887   2.110
 6661SOL     OW20881   6.583   5.293   3.460
 6661SOL    HW120882   6.570   5.200   3.496
 6661SOL    HW220883   6.628   5.349   3.530
 6662SOL     OW20884   2.215   0.827   0.460
 6662SOL    HW120885   2.311   0.846   0.482
 6662SOL    HW220886   2.188   0.880   0.380
 6663SOL     OW20887   0.300   5.563   2.080
 6663SOL    HW120888   0.382   5.609   2.047
 6663SOL    HW220889   0.318   5.524   2.170
 6664SOL     OW20890   1.017   0.270   2.245
 6664SOL    HW120891   1.001   0.197   2.178
 6664SOL    HW220892   0.936   0.282   2.301
 6665SOL     OW20893   1.655   6.044   2.959
 6665SOL    HW120894   1.635   5.990   2.876
 6665SOL    HW220895   1.754   6.054   2.968
 6666SOL     OW20896   6.553   1.744   5.122
 6666SOL    HW120897   6.531   1.749   5.219
 6666SOL    HW220898   6.468   1.743   5.069
 6667SOL     OW20899   6.225   5.246   4.557
 6667SOL    HW120900   6.287   5.321   4.581
 6667SOL    HW220901   6.134   5.267   4.591
 6668SOL     OW20902   0.663   4.786   2.284
 6668SOL    HW120903   0.662   4.883   2.306
 6668SOL    HW220904   0.671   4.774   2.185
 6669SOL     OW20905   2.673   5.124   3.892
 6669SOL    HW120906   2.675   5.223   3.881
 6669SOL    HW220907   2.609   5.100   3.966
 6670SOL     OW20908   3.436   4.862   6.946
 6670SOL    HW120909   3.496   4.787   6.973
 6670SOL    HW220910   3.457   4.943   7.001
 6671SOL     OW20911   6.424   4.152   6.314
 6671SOL    HW120912   6.399   4.082   6.380
 6671SOL    HW220913   6.341   4.188   6.270
 6672SOL     OW20914   1.252   1.079   5.700
 6672SOL    HW120915   1.188   1.087   5.623
 6672SOL    HW220916   1.222   1.004   5.759
 6673SOL     OW20917   4.828   5.034   2.329
 6673SOL    HW120918   4.882   5.080   2.399
 6673SOL    HW220919   4.879   4.954   2.295
 6674SOL     OW20920   1.021   6.280   5.380
 6674SOL    HW120921   1.055   6.374   5.367
 6674SOL    HW220922   1.043   6.225   5.299
 6675SOL     OW20923   5.639   4.258   0.119
 6675SOL    HW120924   5.730   4.219   0.122
 6675SOL    HW220925   5.571   4.185   0.128
 6676SOL     OW20926   0.977   3.349   5.455
 6676SOL    HW120927   0.889   3.383   5.485
 6676SOL    HW220928   1.021   3.299   5.530
 6677SOL     OW20929   0.501   3.752   0.661
 6677SOL    HW120930   0.497   3.727   0.565
 6677SOL    HW220931   0.451   3.838   0.676
 6678SOL     OW20932   1.172   2.653   6.397
 6678SOL    HW120933   1.116   2.736   6.398
 6678SOL    HW220934   1.186   2.623   6.302
 6679SOL     OW20935   1.393   2.703   5.718
 6679SOL    HW120936   1.479   2.715   5.667
 6679SOL    HW220937   1.332   2.643   5.666
 6680SOL     OW20938   4.220   6.538   6.142
 6680SOL    HW120939   4.154   6.478   6.187
 6680SOL    HW220940   4.308   6.531   6.188
 6681SOL     OW20941   5.102   5.258   0.392
 6681SOL    HW120942   5.033   5.320   0.427
 6681SOL    HW220943   5.103   5.175   0.448
 6682SOL     OW20944   0.448   5.573   2.586
 6682SOL    HW120945   0.442   5.667   2.620
 6682SOL    HW220946   0.537   5.559   2.543
 6683SOL     OW20947   4.839   1.800   5.165
 6683SOL    HW120948   4.897   1.878   5.186
 6683SOL    HW220949   4.825   1.745   5.247
 6684SOL     OW20950   1.694   6.560   2.482
 6684SOL    HW120951   1.702   6.648   2.528
 6684SOL    HW220952   1.746   6.490   2.532
 6685SOL     OW20953   5.342   2.565   6.476
 6685SOL    HW120954   5.293   2.651   6.494
 6685SOL    HW220955   5.413   2.553   6.545
 6686SOL     OW20956   6.133   3.868   4.084
 6686SOL    HW120957   6.049   3.838   4.130
 6686SOL    HW220958   6.182   3.933   4.142
 6687SOL     OW20959   1.002   1.549   0.899
 6687SOL    HW120960   1.094   1.510   0.896
 6687SOL    HW220961   0.947   1.510   0.825
 6688SOL     OW20962   0.635   4.705   2.675
 6688SOL    HW120963   0.552   4.652   2.690
 6688SOL    HW220964   0.692   4.702   2.758
 6689SOL     OW20965   5.435   3.887   0.625
 6689SOL    HW120966   5.376   3.835   0.687
 6689SOL    HW220967   5.520   3.910   0.673
 6690SOL     OW20968   2.042   3.008   1.598
 6690SOL    HW120969   1.987   3.090   1.586
 6690SOL    HW220970   2.081   2.981   1.510
 6691SOL     OW20971   2.574   6.168   1.435
 6691SOL    HW120972   2.580   6.073   1.465
 6691SOL    HW220973   2.642   6.185   1.364
 6692SOL     OW20974   3.046   4.211   5.170
 6692SOL    HW120975   3.008   4.131   5.215
 6692SOL    HW220976   2.995   4.293   5.199
 6693SOL     OW20977   4.400   3.743   5.265
 6693SOL    HW120978   4.306   3.716   5.285
 6693SOL    HW220979   4.453   3.663   5.238
 6694SOL     OW20980   4.702   6.429   0.782
 6694SOL    HW120981   4.723   6.421   0.879
 6694SOL    HW220982   4.785   6.417   0.728
 6695SOL     OW20983   0.764   1.572   6.669
 6695SOL    HW120984   0.824   1.651   6.676
 6695SOL    HW220985   0.806   1.503   6.610
 6696SOL     OW20986   2.168   3.365   1.683
 6696SOL    HW120987   2.222   3.409   1.755
 6696SOL    HW220988   2.226   3.299   1.634
 6697SOL     OW20989   4.089   1.481   2.829
 6697SOL    HW120990   4.186   1.484   2.806
 6697SOL    HW220991   4.061   1.570   2.867
 6698SOL     OW20992   4.022   2.892   6.920
 6698SOL    HW120993   4.117   2.873   6.893
 6698SOL    HW220994   3.964   2.817   6.889
 6699SOL     OW20995   3.611   4.652   6.930
 6699SOL    HW120996   3.568   4.650   6.840
 6699SOL    HW220997   3.711   4.653   6.919
 6700SOL     OW20998   0.113   5.274   1.257
 6700SOL    HW120999   0.036   5.294   1.195
 6700SOL    HW221000   0.180   5.348   1.252
 6701SOL     OW21001   0.408   1.757   0.450
 6701SOL    HW121002   0.349   1.685   0.486
 6701SOL    HW221003   0.352   1.829   0.409
 6702SOL     OW21004   2.328   1.440   1.035
 6702SOL    HW121005   2.243   1.396   1.063
 6702SOL    HW221006   2.382   1.376   0.981
 6703SOL     OW21007   0.014   1.341   6.154
 6703SOL    HW121008   0.008   1.427   6.104
 6703SOL    HW221009   6.956   1.289   6.143
 6704SOL     OW21010   4.681   2.465   2.490
 6704SOL    HW121011   4.736   2.420   2.560
 6704SOL    HW221012   4.605   2.404   2.464
 6705SOL     OW21013   6.262   2.205   1.474
 6705SOL    HW121014   6.163   2.207   1.487
 6705SOL    HW221015   6.292   2.111   1.457
 6706SOL     OW21016   0.646   3.907   6.945
 6706SOL    HW121017   0.603   3.994   6.969
 6706SOL    HW221018   0.701   3.919   6.862
 6707SOL     OW21019   6.463   5.529   4.413
 6707SOL    HW121020   6.472   5.437   4.376
 6707SOL    HW221021   6.438   5.524   4.510
 6708SOL     OW21022   2.008   5.689   1.899
 6708SOL    HW121023   2.085   5.631   1.873
 6708SOL    HW221024   2.040   5.765   1.955
 6709SOL     OW21025   3.670   6.946   1.650
 6709SOL    HW121026   3.746   6.935   1.715
 6709SOL    HW221027   3.706   6.974   1.561
 6710SOL     OW21028   2.996   2.518   6.566
 6710SOL    HW121029   2.944   2.443   6.607
 6710SOL    HW221030   3.009   2.501   6.469
 6711SOL     OW21031   5.122   3.811   6.627
 6711SOL    HW121032   5.205   3.762   6.600
 6711SOL    HW221033   5.043   3.770   6.581
 6712SOL     OW21034   3.795   5.377   0.391
 6712SOL    HW121035   3.846   5.321   0.456
 6712SOL    HW221036   3.830   5.360   0.298
 6713SOL     OW21037   2.086   2.500   1.621
 6713SOL    HW121038   2.174   2.462   1.650
 6713SOL    HW221039   2.096   2.544   1.532
 6714SOL     OW21040   5.391   0.648   4.330
 6714SOL    HW121041   5.436   0.611   4.248
 6714SOL    HW221042   5.399   0.747   4.331
 6715SOL     OW21043   0.366   2.098   0.817
 6715SOL    HW121044   0.331   2.191   0.828
 6715SOL    HW221045   0.425   2.094   0.736
 6716SOL     OW21046   2.089   6.072   1.261
 6716SOL    HW121047   2.079   6.160   1.309
 6716SOL    HW221048   2.163   6.020   1.305
 6717SOL     OW21049   3.923   2.507   0.432
 6717SOL    HW121050   3.910   2.505   0.532
 6717SOL    HW221051   3.958   2.596   0.404
 6718SOL     OW21052   3.717   7.014   0.146
 6718SOL    HW121053   3.788   7.022   0.217
 6718SOL    HW221054   3.657   6.937   0.167
 6719SOL     OW21055   0.376   5.961   5.335
 6719SOL    HW121056   0.293   5.908   5.351
 6719SOL    HW221057   0.444   5.938   5.404
 6720SOL     OW21058   2.345   5.224   1.594
 6720SOL    HW121059   2.406   5.168   1.651
 6720SOL    HW221060   2.399   5.280   1.532
 6721SOL     OW21061   5.214   6.783   3.860
 6721SOL    HW121062   5.171   6.695   3.838
 6721SOL    HW221063   5.184   6.813   3.950
 6722SOL     OW21064   4.432   3.518   6.538
 6722SOL    HW121065   4.408   3.540   6.633
 6722SOL    HW221066   4.349   3.501   6.486
 6723SOL     OW21067   2.901   6.585   3.789
 6723SOL    HW121068   2.904   6.626   3.880
 6723SOL    HW221069   2.858   6.649   3.725
 6724SOL     OW21070   3.062   4.707   5.290
 6724SOL    HW121071   3.018   4.634   5.238
 6724SOL    HW221072   3.022   4.713   5.381
 6725SOL     OW21073   0.784   5.185   2.541
 6725SOL    HW121074   0.747   5.265   2.588
 6725SOL    HW221075   0.766   5.103   2.595
 6726SOL     OW21076   2.356   2.683   4.366
 6726SOL    HW121077   2.408   2.631   4.435
 6726SOL    HW221078   2.306   2.757   4.412
 6727SOL     OW21079   4.440   3.492   5.817
 6727SOL    HW121080   4.340   3.498   5.818
 6727SOL    HW221081   4.470   3.429   5.889
 6728SOL     OW21082   4.086   1.743   3.944
 6728SOL    HW121083   4.087   1.644   3.928
 6728SOL    HW221084   3.996   1.779   3.920
 6729SOL     OW21085   6.433   0.718   2.577
 6729SOL    HW121086   6.372   0.780   2.529
 6729SOL    HW221087   6.438   0.631   2.529
 6730SOL     OW21088   2.429   1.018   0.128
 6730SOL    HW121089   2.480   1.063   0.055
 6730SOL    HW221090   2.492   0.991   0.202
 6731SOL     OW21091   2.522   4.743   1.518
 6731SOL    HW121092   2.497   4.666   1.459
 6731SOL    HW221093   2.600   4.717   1.576
 6732SOL     OW21094   2.819   6.294   0.849
 6732SOL    HW121095   2.896   6.283   0.787
 6732SOL    HW221096   2.738   6.249   0.811
 6733SOL     OW21097   5.030   6.247   4.911
 6733SOL    HW121098   4.932   6.247   4.931
 6733SOL    HW221099   5.046   6.207   4.821
 6734SOL     OW21100   1.801   3.077   5.543
 6734SOL    HW121101   1.833   3.009   5.478
 6734SOL    HW221102   1.850   3.163   5.530
 6735SOL     OW21103   6.768   5.139   5.469
 6735SOL    HW121104   6.824   5.069   5.514
 6735SOL    HW221105   6.806   5.159   5.379
 6736SOL     OW21106   2.245   3.025   1.785
 6736SOL    HW121107   2.179   2.997   1.715
 6736SOL    HW221108   2.319   3.076   1.742
 6737SOL     OW21109   2.518   1.523   2.271
 6737SOL    HW121110   2.424   1.500   2.247
 6737SOL    HW221111   2.575   1.441   2.262
 6738SOL     OW21112   2.268   1.244   2.770
 6738SOL    HW121113   2.269   1.297   2.685
 6738SOL    HW221114   2.320   1.159   2.757
 6739SOL     OW21115   3.485   6.369   4.999
 6739SOL    HW121116   3.573   6.396   5.038
 6739SOL    HW221117   3.480   6.402   4.904
 6740SOL     OW21118   1.741   1.774   3.816
 6740SOL    HW121119   1.684   1.741   3.891
 6740SOL    HW221120   1.686   1.784   3.733
 6741SOL     OW21121   6.737   0.403   5.960
 6741SOL    HW121122   6.814   0.452   5.918
 6741SOL    HW221123   6.672   0.469   5.996
 6742SOL     OW21124   6.217   5.996   5.284
 6742SOL    HW121125   6.144   5.974   5.349
 6742SOL    HW221126   6.269   6.074   5.318
 6743SOL     OW21127   3.722   3.342   1.557
 6743SOL    HW121128   3.788   3.417   1.554
 6743SOL    HW221129   3.771   3.255   1.564
 6744SOL     OW21130   4.695   5.002   5.921
 6744SOL    HW121131   4.645   5.037   5.842
 6744SOL    HW221132   4.777   4.954   5.890
 6745SOL     OW21133   1.931   4.971   3.767
 6745SOL    HW121134   2.024   4.992   3.738
 6745SOL    HW221135   1.928   4.966   3.867
 6746SOL     OW21136   0.351   2.163   1.234
 6746SOL    HW121137   0.397   2.242   1.192
 6746SOL    HW221138   0.293   2.119   1.166
 6747SOL     OW21139   5.247   6.393   4.928
 6747SOL    HW121140   5.172   6.328   4.916
 6747SOL    HW221141   5.332   6.344   4.944
 6748SOL     OW21142   1.213   0.334   2.419
 6748SOL    HW121143   1.295   0.351   2.364
 6748SOL    HW221144   1.141   0.297   2.361
 6749SOL     OW21145   4.500   0.422   0.252
 6749SOL    HW121146   4.557   0.485   0.305
 6749SOL    HW221147   4.504   0.448   0.155
 6750SOL     OW21148   2.388   2.611   4.812
 6750SOL    HW121149   2.312   2.577   4.867
 6750SOL    HW221150   2.473   2.601   4.862
 6751SOL     OW21151   2.438   2.138   4.819
 6751SOL    HW121152   2.377   2.085   4.878
 6751SOL    HW221153   2.522   2.160   4.870
 6752SOL     OW21154   5.780   3.057   0.717
 6752SOL    HW121155   5.720   2.998   0.662
 6752SOL    HW221156   5.853   3.093   0.659
 6753SOL     OW21157   4.487   2.626   6.655
 6753SOL    HW121158   4.567   2.684   6.667
 6753SOL    HW221159   4.404   2.676   6.681
 6754SOL     OW21160   6.220   1.063   6.375
 6754SOL    HW121161   6.210   1.012   6.289
 6754SOL    HW221162   6.199   1.159   6.360
 6755SOL     OW21163   4.620   1.871   4.218
 6755SOL    HW121164   4.572   1.794   4.258
 6755SOL    HW221165   4.645   1.849   4.123
 6756SOL     OW21166   4.902   5.256   4.307
 6756SOL    HW121167   4.974   5.287   4.370
 6756SOL    HW221168   4.944   5.218   4.224
 6757SOL     OW21169   5.911   5.902   1.980
 6757SOL    HW121170   5.986   5.836   1.977
 6757SOL    HW221171   5.948   5.995   1.970
 6758SOL     OW21172   5.211   2.476   1.991
 6758SOL    HW121173   5.179   2.384   2.016
 6758SOL    HW221174   5.297   2.468   1.939
 6759SOL     OW21175   0.822   5.360   3.391
 6759SOL    HW121176   0.765   5.442   3.393
 6759SOL    HW221177   0.902   5.377   3.333
 6760SOL     OW21178   6.728   4.128   3.817
 6760SOL    HW121179   6.797   4.083   3.760
 6760SOL    HW221180   6.703   4.216   3.776
 6761SOL     OW21181   4.600   2.365   5.626
 6761SOL    HW121182   4.571   2.447   5.577
 6761SOL    HW221183   4.582   2.377   5.724
 6762SOL     OW21184   6.234   4.648   3.749
 6762SOL    HW121185   6.158   4.641   3.813
 6762SOL    HW221186   6.295   4.570   3.761
 6763SOL     OW21187   6.430   6.807   5.747
 6763SOL    HW121188   6.347   6.766   5.786
 6763SOL    HW221189   6.466   6.747   5.676
 6764SOL     OW21190   2.740   4.133   6.787
 6764SOL    HW121191   2.698   4.199   6.849
 6764SOL    HW221192   2.773   4.181   6.706
 6765SOL     OW21193   5.720   4.173   2.273
 6765SOL    HW121194   5.761   4.162   2.182
 6765SOL    HW221195   5.695   4.269   2.287
 6766SOL     OW21196   1.887   0.463   6.002
 6766SOL    HW121197   1.973   0.488   5.959
 6766SOL    HW221198   1.822   0.539   5.992
 6767SOL     OW21199   6.663   2.771   6.828
 6767SOL    HW121200   6.618   2.796   6.741
 6767SOL    HW221201   6.666   2.851   6.887
 6768SOL     OW21202   6.556   0.658   3.877
 6768SOL    HW121203   6.583   0.628   3.969
 6768SOL    HW221204   6.575   0.584   3.811
 6769SOL     OW21205   2.110   2.855   5.420
 6769SOL    HW121206   2.141   2.943   5.386
 6769SOL    HW221207   2.012   2.845   5.401
 6770SOL     OW21208   0.426   1.169   3.318
 6770SOL    HW121209   0.381   1.164   3.407
 6770SOL    HW221210   0.522   1.141   3.327
 6771SOL     OW21211   3.875   2.171   3.243
 6771SOL    HW121212   3.960   2.222   3.251
 6771SOL    HW221213   3.878   2.114   3.160
 6772SOL     OW21214   7.025   1.509   1.805
 6772SOL    HW121215   0.044   1.548   1.726
 6772SOL    HW221216   6.970   1.430   1.775
 6773SOL     OW21217   1.469   6.580   1.222
 6773SOL    HW121218   1.424   6.571   1.134
 6773SOL    HW221219   1.411   6.542   1.294
 6774SOL     OW21220   2.088   2.180   4.977
 6774SOL    HW121221   2.166   2.125   5.008
 6774SOL    HW221222   2.060   2.242   5.051
 6775SOL     OW21223   0.985   2.094   4.498
 6775SOL    HW121224   0.948   2.109   4.407
 6775SOL    HW221225   1.052   2.021   4.496
 6776SOL     OW21226   3.447   4.088   2.704
 6776SOL    HW121227   3.518   4.089   2.633
 6776SOL    HW221228   3.361   4.057   2.665
 6777SOL     OW21229   6.343   5.630   0.038
 6777SOL    HW121230   6.303   5.618   0.129
 6777SOL    HW221231   6.353   5.541   7.022
 6778SOL     OW21232   6.157   4.684   2.886
 6778SOL    HW121233   6.111   4.598   2.866
 6778SOL    HW221234   6.255   4.673   2.874
 6779SOL     OW21235   5.297   3.516   5.858
 6779SOL    HW121236   5.269   3.421   5.873
 6779SOL    HW221237   5.397   3.522   5.863
 6780SOL     OW21238   2.912   2.161   3.131
 6780SOL    HW121239   2.991   2.127   3.181
 6780SOL    HW221240   2.942   2.200   3.044
 6781SOL     OW21241   0.248   1.646   3.437
 6781SOL    HW121242   0.335   1.620   3.393
 6781SOL    HW221243   0.191   1.695   3.370
 6782SOL     OW21244   6.731   1.469   2.536
 6782SOL    HW121245   6.667   1.402   2.497
 6782SOL    HW221246   6.704   1.490   2.630
 6783SOL     OW21247   1.588   4.857   5.433
 6783SOL    HW121248   1.636   4.818   5.355
 6783SOL    HW221249   1.653   4.875   5.507
 6784SOL     OW21250   2.245   3.699   1.784
 6784SOL    HW121251   2.238   3.641   1.865
 6784SOL    HW221252   2.251   3.642   1.703
 6785SOL     OW21253   5.508   6.292   4.951
 6785SOL    HW121254   5.564   6.323   5.028
 6785SOL    HW221255   5.529   6.196   4.931
 6786SOL     OW21256   5.527   1.935   6.093
 6786SOL    HW121257   5.594   1.898   6.158
 6786SOL    HW221258   5.506   2.029   6.117
 6787SOL     OW21259   3.895   1.942   6.870
 6787SOL    HW121260   3.869   1.845   6.867
 6787SOL    HW221261   3.961   1.961   6.797
 6788SOL     OW21262   6.658   4.476   2.774
 6788SOL    HW121263   6.573   4.433   2.804
 6788SOL    HW221264   6.735   4.434   2.822
 6789SOL     OW21265   5.514   3.870   3.526
 6789SOL    HW121266   5.426   3.903   3.559
 6789SOL    HW221267   5.583   3.943   3.534
 6790SOL     OW21268   0.474   4.905   6.288
 6790SOL    HW121269   0.542   4.962   6.241
 6790SOL    HW221270   0.505   4.810   6.289
 6791SOL     OW21271   3.318   0.666   2.998
 6791SOL    HW121272   3.312   0.605   2.919
 6791SOL    HW221273   3.338   0.759   2.966
 6792SOL     OW21274   3.980   0.120   5.329
 6792SOL    HW121275   3.904   0.178   5.301
 6792SOL    HW221276   3.968   0.028   5.293
 6793SOL     OW21277   2.043   3.442   6.557
 6793SOL    HW121278   2.004   3.513   6.498
 6793SOL    HW221279   1.994   3.440   6.644
 6794SOL     OW21280   4.921   2.003   5.487
 6794SOL    HW121281   4.901   2.098   5.513
 6794SOL    HW221282   4.848   1.943   5.520
 6795SOL     OW21283   0.588   0.336   1.347
 6795SOL    HW121284   0.634   0.412   1.302
 6795SOL    HW221285   0.501   0.368   1.386
 6796SOL     OW21286   6.061   1.075   2.512
 6796SOL    HW121287   5.971   1.059   2.552
 6796SOL    HW221288   6.118   1.124   2.578
 6797SOL     OW21289   0.830   2.411   1.266
 6797SOL    HW121290   0.887   2.419   1.347
 6797SOL    HW221291   0.811   2.314   1.248
 6798SOL     OW21292   5.645   6.814   1.433
 6798SOL    HW121293   5.549   6.808   1.404
 6798SOL    HW221294   5.657   6.893   1.492
 6799SOL     OW21295   6.611   0.977   3.357
 6799SOL    HW121296   6.616   0.877   3.353
 6799SOL    HW221297   6.601   1.006   3.453
 6800SOL     OW21298   6.674   2.243   1.296
 6800SOL    HW121299   6.715   2.221   1.384
 6800SOL    HW221300   6.702   2.335   1.267
 6801SOL     OW21301   1.023   6.276   6.311
 6801SOL    HW121302   0.971   6.360   6.323
 6801SOL    HW221303   1.111   6.297   6.267
 6802SOL     OW21304   3.351   4.892   2.211
 6802SOL    HW121305   3.286   4.946   2.158
 6802SOL    HW221306   3.371   4.807   2.164
 6803SOL     OW21307   5.557   4.979   5.737
 6803SOL    HW121308   5.537   5.028   5.823
 6803SOL    HW221309   5.479   4.920   5.714
 6804SOL     OW21310   3.707   5.013   3.053
 6804SOL    HW121311   3.712   5.113   3.059
 6804SOL    HW221312   3.631   4.980   3.109
 6805SOL     OW21313   6.851   4.666   4.685
 6805SOL    HW121314   6.935   4.693   4.732
 6805SOL    HW221315   6.827   4.735   4.617
 6806SOL     OW21316   6.832   2.006   2.221
 6806SOL    HW121317   6.897   1.936   2.251
 6806SOL    HW221318   6.881   2.091   2.204
 6807SOL     OW21319   3.100   4.056   2.104
 6807SOL    HW121320   3.014   4.074   2.151
 6807SOL    HW221321   3.157   4.138   2.106
 6808SOL     OW21322   3.164   1.172   4.312
 6808SOL    HW121323   3.126   1.247   4.258
 6808SOL    HW221324   3.217   1.112   4.252
 6809SOL     OW21325   5.633   3.492   0.309
 6809SOL    HW121326   5.591   3.500   0.400
 6809SOL    HW221327   5.578   3.542   0.242
 6810SOL     OW21328   2.721   0.560   4.525
 6810SOL    HW121329   2.638   0.609   4.551
 6810SOL    HW221330   2.794   0.625   4.508
 6811SOL     OW21331   6.421   1.264   0.693
 6811SOL    HW121332   6.336   1.211   0.687
 6811SOL    HW221333   6.406   1.344   0.751
 6812SOL     OW21334   3.669   4.270   5.091
 6812SOL    HW121335   3.604   4.262   5.015
 6812SOL    HW221336   3.726   4.188   5.094
 6813SOL     OW21337   6.488   3.542   1.717
 6813SOL    HW121338   6.496   3.610   1.644
 6813SOL    HW221339   6.423   3.575   1.786
 6814SOL     OW21340   5.257   1.115   6.626
 6814SOL    HW121341   5.219   1.128   6.718
 6814SOL    HW221342   5.339   1.172   6.616
 6815SOL     OW21343   1.317   4.928   6.206
 6815SOL    HW121344   1.296   4.994   6.133
 6815SOL    HW221345   1.415   4.927   6.223
 6816SOL     OW21346   6.921   0.729   3.258
 6816SOL    HW121347   6.886   0.649   3.307
 6816SOL    HW221348   6.881   0.732   3.167
 6817SOL     OW21349   4.306   2.014   1.772
 6817SOL    HW121350   4.270   1.960   1.848
 6817SOL    HW221351   4.296   2.111   1.793
 6818SOL     OW21352   1.746   0.021   5.319
 6818SOL    HW121353   1.696   0.106   5.337
 6818SOL    HW221354   1.725   7.017   5.226
 6819SOL     OW21355   4.678   4.263   1.503
 6819SOL    HW121356   4.610   4.290   1.434
 6819SOL    HW221357   4.675   4.163   1.515
 6820SOL     OW21358   2.791   5.485   2.048
 6820SOL    HW121359   2.886   5.505   2.073
 6820SOL    HW221360   2.734   5.484   2.131
 6821SOL     OW21361   3.875   2.620   5.320
 6821SOL    HW121362   3.942   2.566   5.269
 6821SOL    HW221363   3.787   2.574   5.318
 6822SOL     OW21364   6.234   2.709   6.397
 6822SOL    HW121365   6.309   2.771   6.420
 6822SOL    HW221366   6.194   2.736   6.309
 6823SOL     OW21367   5.973   2.177   4.951
 6823SOL    HW121368   5.889   2.137   4.915
 6823SOL    HW221369   6.010   2.119   5.023
 6824SOL     OW21370   1.143   0.209   5.932
 6824SOL    HW121371   1.159   0.154   5.850
 6824SOL    HW221372   1.204   0.178   6.006
 6825SOL     OW21373   5.444   4.708   0.652
 6825SOL    HW121374   5.433   4.798   0.695
 6825SOL    HW221375   5.540   4.680   0.657
 6826SOL     OW21376   6.462   5.275   4.330
 6826SOL    HW121377   6.466   5.243   4.235
 6826SOL    HW221378   6.369   5.265   4.365
 6827SOL     OW21379   4.650   6.033   4.393
 6827SOL    HW121380   4.573   6.091   4.419
 6827SOL    HW221381   4.638   5.942   4.433
 6828SOL     OW21382   2.720   2.340   2.661
 6828SOL    HW121383   2.809   2.304   2.633
 6828SOL    HW221384   2.711   2.336   2.760
 6829SOL     OW21385   3.815   6.668   3.656
 6829SOL    HW121386   3.806   6.628   3.747
 6829SOL    HW221387   3.910   6.695   3.640
 6830SOL     OW21388   5.085   6.535   3.018
 6830SOL    HW121389   4.986   6.524   3.004
 6830SOL    HW221390   5.103   6.539   3.117
 6831SOL     OW21391   1.590   2.154   6.059
 6831SOL    HW121392   1.493   2.179   6.055
 6831SOL    HW221393   1.644   2.226   6.015
 6832SOL     OW21394   3.295   2.888   0.041
 6832SOL    HW121395   3.340   2.808   0.001
 6832SOL    HW221396   3.354   2.928   0.111
 6833SOL     OW21397   3.581   5.153   5.853
 6833SOL    HW121398   3.632   5.166   5.938
 6833SOL    HW221399   3.638   5.179   5.775
 6834SOL     OW21400   5.724   6.615   0.554
 6834SOL    HW121401   5.818   6.641   0.574
 6834SOL    HW221402   5.663   6.654   0.624
 6835SOL     OW21403   2.812   1.573   5.275
 6835SOL    HW121404   2.841   1.518   5.196
 6835SOL    HW221405   2.874   1.651   5.286
 6836SOL     OW21406   2.521   4.547   6.364
 6836SOL    HW121407   2.545   4.581   6.273
 6836SOL    HW221408   2.513   4.623   6.428
 6837SOL     OW21409   0.555   0.964   2.058
 6837SOL    HW121410   0.628   1.032   2.065
 6837SOL    HW221411   0.473   0.997   2.105
 6838SOL     OW21412   2.985   3.833   4.997
 6838SOL    HW121413   2.891   3.862   5.010
 6838SOL    HW221414   3.041   3.912   4.972
 6839SOL     OW21415   6.363   3.240   4.842
 6839SOL    HW121416   6.426   3.281   4.909
 6839SOL    HW221417   6.319   3.312   4.789
 6840SOL     OW21418   2.225   6.809   4.804
 6840SOL    HW121419   2.216   6.904   4.832
 6840SOL    HW221420   2.153   6.786   4.738
 6841SOL     OW21421   4.737   6.047   0.804
 6841SOL    HW121422   4.682   6.111   0.751
 6841SOL    HW221423   4.678   6.000   0.871
 6842SOL     OW21424   0.557   3.885   5.350
 6842SOL    HW121425   0.466   3.858   5.381
 6842SOL    HW221426   0.592   3.958   5.409
 6843SOL     OW21427   3.951   2.087   1.954
 6843SOL    HW121428   3.966   2.110   1.857
 6843SOL    HW221429   3.858   2.111   1.980
 6844SOL     OW21430   4.226   5.123   4.025
 6844SOL    HW121431   4.307   5.121   3.966
 6844SOL    HW221432   4.208   5.031   4.061
 6845SOL     OW21433   4.387   4.536   1.389
 6845SOL    HW121434   4.380   4.517   1.487
 6845SOL    HW221435   4.315   4.600   1.362
 6846SOL     OW21436   3.050   3.112   3.145
 6846SOL    HW121437   2.998   3.033   3.114
 6846SOL    HW221438   3.020   3.194   3.096
 6847SOL     OW21439   5.810   3.614   2.186
 6847SOL    HW121440   5.880   3.559   2.231
 6847SOL    HW221441   5.822   3.609   2.087
 6848SOL     OW21442   0.713   6.466   3.164
 6848SOL    HW121443   0.711   6.376   3.209
 6848SOL    HW221444   0.758   6.458   3.075
 6849SOL     OW21445   3.324   6.721   3.817
 6849SOL    HW121446   3.263   6.660   3.869
 6849SOL    HW221447   3.301   6.716   3.720
 6850SOL     OW21448   5.495   2.755   2.457
 6850SOL    HW121449   5.588   2.721   2.444
 6850SOL    HW221450   5.430   2.690   2.418
 6851SOL     OW21451   1.049   5.860   5.551
 6851SOL    HW121452   1.058   5.960   5.552
 6851SOL    HW221453   1.061   5.826   5.458
 6852SOL     OW21454   6.998   4.670   2.162
 6852SOL    HW121455   0.017   4.689   2.076
 6852SOL    HW221456   0.016   4.720   2.236
 6853SOL     OW21457   0.975   3.432   5.750
 6853SOL    HW121458   0.960   3.357   5.815
 6853SOL    HW221459   1.060   3.416   5.700
 6854SOL     OW21460   6.697   1.929   6.253
 6854SOL    HW121461   6.794   1.934   6.277
 6854SOL    HW221462   6.682   1.977   6.166
 6855SOL     OW21463   2.884   5.993   1.318
 6855SOL    HW121464   2.946   5.923   1.284
 6855SOL    HW221465   2.931   6.051   1.384
 6856SOL     OW21466   6.896   3.428   4.776
 6856SOL    HW121467   6.978   3.396   4.824
 6856SOL    HW221468   6.901   3.528   4.765
 6857SOL     OW21469   4.165   1.686   5.504
 6857SOL    HW121470   4.202   1.594   5.517
 6857SOL    HW221471   4.200   1.724   5.419
 6858SOL     OW21472   4.146   3.321   4.473
 6858SOL    HW121473   4.146   3.419   4.454
 6858SOL    HW221474   4.240   3.288   4.479
 6859SOL     OW21475   4.023   6.861   0.893
 6859SOL    HW121476   3.988   6.805   0.819
 6859SOL    HW221477   3.959   6.935   0.912
 6860SOL     OW21478   5.085   3.507   6.755
 6860SOL    HW121479   5.129   3.422   6.727
 6860SOL    HW221480   4.995   3.488   6.794
 6861SOL     OW21481   6.410   4.632   0.074
 6861SOL    HW121482   6.399   4.721   0.030
 6861SOL    HW221483   6.450   4.643   0.164
 6862SOL     OW21484   3.695   5.533   3.885
 6862SOL    HW121485   3.626   5.461   3.889
 6862SOL    HW221486   3.766   5.515   3.953
 6863SOL     OW21487   5.832   2.711   3.916
 6863SOL    HW121488   5.758   2.696   3.981
 6863SOL    HW221489   5.802   2.684   3.825
 6864SOL     OW21490   4.201   6.217   5.108
 6864SOL    HW121491   4.233   6.144   5.048
 6864SOL    HW221492   4.237   6.204   5.200
 6865SOL     OW21493   6.533   4.884   4.051
 6865SOL    HW121494   6.466   4.885   4.125
 6865SOL    HW221495   6.542   4.790   4.016
 6866SOL     OW21496   6.967   2.961   2.146
 6866SOL    HW121497   6.904   3.004   2.081
 6866SOL    HW221498   0.017   2.922   2.097
 6867SOL     OW21499   1.917   4.144   2.973
 6867SOL    HW121500   1.911   4.047   2.998
 6867SOL    HW221501   1.944   4.197   3.053
 6868SOL     OW21502   1.589   5.320   5.449
 6868SOL    HW121503   1.612   5.413   5.419
 6868SOL    HW221504   1.571   5.321   5.547
 6869SOL     OW21505   6.078   3.430   5.579
 6869SOL    HW121506   6.114   3.432   5.485
 6869SOL    HW221507   6.054   3.336   5.603
 6870SOL     OW21508   5.542   3.675   2.687
 6870SOL    HW121509   5.510   3.646   2.777
 6870SOL    HW221510   5.564   3.594   2.632
 6871SOL     OW21511   5.198   5.905   1.169
 6871SOL    HW121512   5.243   5.904   1.079
 6871SOL    HW221513   5.159   5.815   1.188
 6872SOL     OW21514   2.348   3.441   6.283
 6872SOL    HW121515   2.385   3.363   6.232
 6872SOL    HW221516   2.406   3.521   6.268
 6873SOL     OW21517   5.637   2.973   5.864
 6873SOL    HW121518   5.625   2.890   5.809
 6873SOL    HW221519   5.726   2.970   5.909
 6874SOL     OW21520   0.462   2.529   5.442
 6874SOL    HW121521   0.512   2.616   5.452
 6874SOL    HW221522   0.480   2.471   5.521
 6875SOL     OW21523   2.601   1.847   3.747
 6875SOL    HW121524   2.557   1.903   3.816
 6875SOL    HW221525   2.532   1.810   3.685
 6876SOL     OW21526   4.082   6.229   6.778
 6876SOL    HW121527   4.175   6.196   6.762
 6876SOL    HW221528   4.080   6.328   6.770
 6877SOL     OW21529   2.347   4.069   0.082
 6877SOL    HW121530   2.325   4.089   7.014
 6877SOL    HW221531   2.419   4.132   0.112
 6878SOL     OW21532   2.042   1.594   5.512
 6878SOL    HW121533   2.099   1.632   5.439
 6878SOL    HW221534   1.946   1.610   5.491
 6879SOL     OW21535   1.493   2.496   6.533
 6879SOL    HW121536   1.455   2.441   6.458
 6879SOL    HW221537   1.431   2.572   6.552
 6880SOL     OW21538   2.137   4.217   5.133
 6880SOL    HW121539   2.196   4.297   5.116
 6880SOL    HW221540   2.174   4.138   5.084
 6881SOL     OW21541   6.595   4.360   1.924
 6881SOL    HW121542   6.655   4.307   1.864
 6881SOL    HW221543   6.648   4.395   2.001
 6882SOL     OW21544   1.822   0.173   5.750
 6882SOL    HW121545   1.851   0.259   5.708
 6882SOL    HW221546   1.735   0.144   5.710
 6883SOL     OW21547   3.752   6.677   1.376
 6883SOL    HW121548   3.654   6.659   1.381
 6883SOL    HW221549   3.767   6.775   1.365
 6884SOL     OW21550   2.320   5.103   4.139
 6884SOL    HW121551   2.323   5.196   4.176
 6884SOL    HW221552   2.282   5.041   4.208
 6885SOL     OW21553   3.094   5.504   4.584
 6885SOL    HW121554   3.096   5.412   4.625
 6885SOL    HW221555   3.031   5.562   4.635
 6886SOL     OW21556   5.986   1.458   2.841
 6886SOL    HW121557   5.887   1.465   2.828
 6886SOL    HW221558   6.030   1.443   2.752
 6887SOL     OW21559   6.106   0.805   4.580
 6887SOL    HW121560   6.193   0.782   4.623
 6887SOL    HW221561   6.035   0.745   4.616
 6888SOL     OW21562   5.436   7.004   4.513
 6888SOL    HW121563   5.436   0.068   4.472
 6888SOL    HW221564   5.342   6.975   4.530
 6889SOL     OW21565   1.464   4.660   5.566
 6889SOL    HW121566   1.420   4.584   5.517
 6889SOL    HW221567   1.489   4.732   5.502
 6890SOL     OW21568   1.833   0.264   1.228
 6890SOL    HW121569   1.848   0.346   1.173
 6890SOL    HW221570   1.737   0.239   1.225
 6891SOL     OW21571   1.800   4.601   4.481
 6891SOL    HW121572   1.879   4.578   4.537
 6891SOL    HW221573   1.809   4.558   4.391
 6892SOL     OW21574   3.427   1.154   3.948
 6892SOL    HW121575   3.403   1.120   3.857
 6892SOL    HW221576   3.388   1.094   4.017
 6893SOL     OW21577   4.686   5.525   2.688
 6893SOL    HW121578   4.671   5.560   2.596
 6893SOL    HW221579   4.598   5.503   2.730
 6894SOL     OW21580   6.583   4.933   6.342
 6894SOL    HW121581   6.657   4.920   6.276
 6894SOL    HW221582   6.563   4.846   6.387
 6895SOL     OW21583   3.329   5.534   6.767
 6895SOL    HW121584   3.246   5.515   6.715
 6895SOL    HW221585   3.307   5.597   6.842
 6896SOL     OW21586   3.673   0.511   2.964
 6896SOL    HW121587   3.664   0.511   3.064
 6896SOL    HW221588   3.766   0.487   2.939
 6897SOL     OW21589   3.246   3.387   0.228
 6897SOL    HW121590   3.294   3.432   0.152
 6897SOL    HW221591   3.202   3.304   0.194
 6898SOL     OW21592   4.243   2.158   2.045
 6898SOL    HW121593   4.146   2.134   2.044
 6898SOL    HW221594   4.266   2.209   1.963
 6899SOL     OW21595   4.829   6.080   6.524
 6899SOL    HW121596   4.874   6.062   6.612
 6899SOL    HW221597   4.896   6.117   6.460
 6900SOL     OW21598   4.802   0.489   6.201
 6900SOL    HW121599   4.781   0.570   6.147
 6900SOL    HW221600   4.730   0.421   6.188
 6901SOL     OW21601   1.630   0.675   6.269
 6901SOL    HW121602   1.608   0.719   6.182
 6901SOL    HW221603   1.574   0.716   6.342
 6902SOL     OW21604   6.625   5.817   0.888
 6902SOL    HW121605   6.583   5.782   0.804
 6902SOL    HW221606   6.557   5.821   0.961
 6903SOL     OW21607   4.442   4.196   0.757
 6903SOL    HW121608   4.344   4.210   0.739
 6903SOL    HW221609   4.484   4.283   0.782
 6904SOL     OW21610   6.958   1.252   3.036
 6904SOL    HW121611   6.898   1.220   2.963
 6904SOL    HW221612   6.912   1.324   3.087
 6905SOL     OW21613   5.779   6.201   1.046
 6905SOL    HW121614   5.759   6.211   0.949
 6905SOL    HW221615   5.752   6.109   1.076
 6906SOL     OW21616   4.234   0.823   3.393
 6906SOL    HW121617   4.173   0.858   3.322
 6906SOL    HW221618   4.323   0.801   3.352
 6907SOL     OW21619   4.063   1.622   1.915
 6907SOL    HW121620   3.979   1.621   1.861
 6907SOL    HW221621   4.081   1.714   1.948
 6908SOL     OW21622   1.415   6.773   5.926
 6908SOL    HW121623   1.452   6.865   5.910
 6908SOL    HW221624   1.331   6.780   5.979
 6909SOL     OW21625   4.407   3.742   6.756
 6909SOL    HW121626   4.352   3.760   6.674
 6909SOL    HW221627   4.347   3.736   6.836
 6910SOL     OW21628   6.305   1.492   1.803
 6910SOL    HW121629   6.300   1.393   1.793
 6910SOL    HW221630   6.364   1.515   1.881
 6911SOL     OW21631   4.062   1.349   4.789
 6911SOL    HW121632   4.037   1.413   4.716
 6911SOL    HW221633   4.017   1.376   4.874
 6912SOL     OW21634   4.825   5.023   0.085
 6912SOL    HW121635   4.839   5.045   0.181
 6912SOL    HW221636   4.894   5.071   0.030
 6913SOL     OW21637   5.276   5.064   4.919
 6913SOL    HW121638   5.215   5.088   4.995
 6913SOL    HW221639   5.359   5.021   4.954
 6914SOL     OW21640   6.422   4.914   0.601
 6914SOL    HW121641   6.378   4.923   0.512
 6914SOL    HW221642   6.421   4.818   0.630
 6915SOL     OW21643   0.532   5.168   2.746
 6915SOL    HW121644   0.582   5.246   2.783
 6915SOL    HW221645   0.442   5.197   2.714
 6916SOL     OW21646   6.209   2.272   6.930
 6916SOL    HW121647   6.244   2.299   7.020
 6916SOL    HW221648   6.163   2.350   6.888
 6917SOL     OW21649   4.338   5.859   6.360
 6917SOL    HW121650   4.307   5.895   6.272
 6917SOL    HW221651   4.438   5.860   6.363
 6918SOL     OW21652   0.517   3.476   3.951
 6918SOL    HW121653   0.451   3.421   3.900
 6918SOL    HW221654   0.593   3.418   3.980
 6919SOL     OW21655   2.114   6.142   3.095
 6919SOL    HW121656   2.076   6.170   3.183
 6919SOL    HW221657   2.206   6.180   3.084
 6920SOL     OW21658   4.923   6.587   4.295
 6920SOL    HW121659   4.906   6.497   4.256
 6920SOL    HW221660   5.021   6.609   4.287
 6921SOL     OW21661   0.654   1.058   3.746
 6921SOL    HW121662   0.594   1.128   3.709
 6921SOL    HW221663   0.659   1.067   3.845
 6922SOL     OW21664   2.582   6.259   0.730
 6922SOL    HW121665   2.514   6.232   0.798
 6922SOL    HW221666   2.547   6.239   0.639
 6923SOL     OW21667   4.965   0.717   3.848
 6923SOL    HW121668   5.021   0.799   3.849
 6923SOL    HW221669   4.877   0.736   3.893
 6924SOL     OW21670   0.147   5.373   1.520
 6924SOL    HW121671   0.111   5.328   1.439
 6924SOL    HW221672   0.225   5.321   1.555
 6925SOL     OW21673   4.617   5.861   3.033
 6925SOL    HW121674   4.714   5.877   3.051
 6925SOL    HW221675   4.572   5.827   3.115
 6926SOL     OW21676   3.584   3.214   4.735
 6926SOL    HW121677   3.531   3.229   4.818
 6926SOL    HW221678   3.607   3.117   4.727
 6927SOL     OW21679   4.524   4.000   5.735
 6927SOL    HW121680   4.566   3.977   5.822
 6927SOL    HW221681   4.511   3.917   5.681
 6928SOL     OW21682   5.735   0.563   6.450
 6928SOL    HW121683   5.716   0.467   6.470
 6928SOL    HW221684   5.802   0.597   6.516
 6929SOL     OW21685   4.130   5.336   0.158
 6929SOL    HW121686   4.210   5.366   0.105
 6929SOL    HW221687   4.160   5.291   0.242
 6930SOL     OW21688   0.782   0.241   3.889
 6930SOL    HW121689   0.754   0.265   3.796
 6930SOL    HW221690   0.867   0.189   3.885
 6931SOL     OW21691   1.470   1.704   1.217
 6931SOL    HW121692   1.460   1.641   1.140
 6931SOL    HW221693   1.387   1.703   1.272
 6932SOL     OW21694   2.929   1.807   1.032
 6932SOL    HW121695   3.001   1.761   0.980
 6932SOL    HW221696   2.893   1.745   1.101
 6933SOL     OW21697   4.141   5.588   5.827
 6933SOL    HW121698   4.209   5.660   5.820
 6933SOL    HW221699   4.053   5.628   5.851
 6934SOL     OW21700   4.952   3.145   0.075
 6934SOL    HW121701   4.894   3.139   0.156
 6934SOL    HW221702   4.920   3.081   0.005
 6935SOL     OW21703   4.463   5.368   3.545
 6935SOL    HW121704   4.462   5.289   3.483
 6935SOL    HW221705   4.372   5.380   3.584
 6936SOL     OW21706   0.892   4.072   1.917
 6936SOL    HW121707   0.985   4.101   1.940
 6936SOL    HW221708   0.887   3.972   1.917
 6937SOL     OW21709   4.461   6.807   5.137
 6937SOL    HW121710   4.541   6.768   5.183
 6937SOL    HW221711   4.406   6.858   5.203
 6938SOL     OW21712   5.009   2.776   5.097
 6938SOL    HW121713   5.091   2.833   5.095
 6938SOL    HW221714   4.927   2.834   5.092
 6939SOL     OW21715   0.300   4.338   2.803
 6939SOL    HW121716   0.330   4.337   2.708
 6939SOL    HW221717   0.317   4.249   2.845
 6940SOL     OW21718   5.218   0.487   5.475
 6940SOL    HW121719   5.165   0.571   5.467
 6940SOL    HW221720   5.157   0.411   5.499
 6941SOL     OW21721   4.155   3.609   3.636
 6941SOL    HW121722   4.203   3.542   3.579
 6941SOL    HW221723   4.096   3.561   3.700
 6942SOL     OW21724   0.041   2.247   6.994
 6942SOL    HW121725   6.982   2.296   7.005
 6942SOL    HW221726   0.081   2.269   6.905
 6943SOL     OW21727   5.141   5.441   6.900
 6943SOL    HW121728   5.190   5.515   6.855
 6943SOL    HW221729   5.148   5.451   6.999
 6944SOL     OW21730   1.240   5.416   6.281
 6944SOL    HW121731   1.207   5.506   6.255
 6944SOL    HW221732   1.162   5.359   6.309
 6945SOL     OW21733   6.082   2.715   5.818
 6945SOL    HW121734   6.141   2.652   5.869
 6945SOL    HW221735   6.118   2.808   5.825
 6946SOL     OW21736   5.379   3.978   2.745
 6946SOL    HW121737   5.477   3.986   2.762
 6946SOL    HW221738   5.358   4.014   2.655
 6947SOL     OW21739   3.808   6.297   3.267
 6947SOL    HW121740   3.811   6.388   3.310
 6947SOL    HW221741   3.769   6.231   3.331
 6948SOL     OW21742   4.735   0.773   5.403
 6948SOL    HW121743   4.688   0.849   5.358
 6948SOL    HW221744   4.668   0.716   5.452
 6949SOL     OW21745   5.282   0.090   2.746
 6949SOL    HW121746   5.304   0.183   2.776
 6949SOL    HW221747   5.220   0.094   2.668
 6950SOL     OW21748   2.295   0.662   3.096
 6950SOL    HW121749   2.375   0.606   3.074
 6950SOL    HW221750   2.323   0.737   3.156
 6951SOL     OW21751   6.371   5.453   6.093
 6951SOL    HW121752   6.313   5.371   6.090
 6951SOL    HW221753   6.355   5.502   6.178
 6952SOL     OW21754   0.487   4.932   5.375
 6952SOL    HW121755   0.544   5.015   5.383
 6952SOL    HW221756   0.495   4.896   5.282
 6953SOL     OW21757   4.602   1.255   5.471
 6953SOL    HW121758   4.670   1.212   5.412
 6953SOL    HW221759   4.567   1.189   5.537
 6954SOL     OW21760   6.680   3.688   3.445
 6954SOL    HW121761   6.736   3.703   3.527
 6954SOL    HW221762   6.700   3.598   3.408
 6955SOL     OW21763   6.593   5.869   1.673
 6955SOL    HW121764   6.660   5.799   1.646
 6955SOL    HW221765   6.542   5.836   1.753
 6956SOL     OW21766   4.272   5.367   1.199
 6956SOL    HW121767   4.309   5.460   1.198
 6956SOL    HW221768   4.187   5.365   1.252
 6957SOL     OW21769   0.229   4.465   1.615
 6957SOL    HW121770   0.245   4.515   1.700
 6957SOL    HW221771   0.294   4.496   1.546
 6958SOL     OW21772   3.290   3.104   6.597
 6958SOL    HW121773   3.284   3.181   6.661
 6958SOL    HW221774   3.269   3.019   6.645
 6959SOL     OW21775   3.223   1.536   4.460
 6959SOL    HW121776   3.292   1.501   4.396
 6959SOL    HW221777   3.138   1.485   4.450
 6960SOL     OW21778   0.690   4.806   6.641
 6960SOL    HW121779   0.595   4.777   6.649
 6960SOL    HW221780   0.750   4.740   6.686
 6961SOL     OW21781   0.915   0.635   3.039
 6961SOL    HW121782   0.972   0.715   3.022
 6961SOL    HW221783   0.823   0.664   3.064
 6962SOL     OW21784   5.112   4.278   1.257
 6962SOL    HW121785   5.072   4.229   1.179
 6962SOL    HW221786   5.051   4.353   1.284
 6963SOL     OW21787   6.912   4.852   1.688
 6963SOL    HW121788   6.926   4.796   1.606
 6963SOL    HW221789   6.814   4.860   1.706
 6964SOL     OW21790   4.521   5.452   5.174
 6964SOL    HW121791   4.444   5.484   5.120
 6964SOL    HW221792   4.607   5.479   5.130
 6965SOL     OW21793   7.014   2.959   5.521
 6965SOL    HW121794   0.013   3.028   5.589
 6965SOL    HW221795   6.916   2.940   5.530
 6966SOL     OW21796   4.676   2.223   3.692
 6966SOL    HW121797   4.743   2.269   3.750
 6966SOL    HW221798   4.592   2.278   3.688
 6967SOL     OW21799   1.353   1.150   6.050
 6967SOL    HW121800   1.268   1.183   6.091
 6967SOL    HW221801   1.427   1.214   6.072
 6968SOL     OW21802   4.995   6.048   1.823
 6968SOL    HW121803   5.055   6.031   1.901
 6968SOL    HW221804   5.050   6.059   1.740
 6969SOL     OW21805   3.152   2.131   0.687
 6969SOL    HW121806   3.230   2.166   0.634
 6969SOL    HW221807   3.067   2.150   0.638
 6970SOL     OW21808   5.386   4.127   0.227
 6970SOL    HW121809   5.416   4.034   0.208
 6970SOL    HW221810   5.306   4.149   0.169
 6971SOL     OW21811   5.493   1.145   1.510
 6971SOL    HW121812   5.428   1.220   1.503
 6971SOL    HW221813   5.447   1.064   1.547
 6972SOL     OW21814   5.452   4.989   4.170
 6972SOL    HW121815   5.421   4.900   4.135
 6972SOL    HW221816   5.488   4.978   4.262
 6973SOL     OW21817   1.997   4.257   3.564
 6973SOL    HW121818   2.060   4.279   3.490
 6973SOL    HW221819   2.038   4.186   3.622
 6974SOL     OW21820   3.330   3.906   4.465
 6974SOL    HW121821   3.372   3.834   4.409
 6974SOL    HW221822   3.294   3.866   4.549
 6975SOL     OW21823   4.319   0.784   5.883
 6975SOL    HW121824   4.342   0.873   5.923
 6975SOL    HW221825   4.348   0.711   5.946
 6976SOL     OW21826   2.263   4.852   6.723
 6976SOL    HW121827   2.210   4.907   6.660
 6976SOL    HW221828   2.239   4.876   6.817
 6977SOL     OW21829   3.425   1.810   2.636
 6977SOL    HW121830   3.402   1.758   2.719
 6977SOL    HW221831   3.385   1.766   2.556
 6978SOL     OW21832   0.037   0.532   1.857
 6978SOL    HW121833   0.119   0.475   1.864
 6978SOL    HW221834   7.000   0.492   1.792
 6979SOL     OW21835   0.692   5.056   2.311
 6979SOL    HW121836   0.611   5.114   2.297
 6979SOL    HW221837   0.748   5.096   2.384
 6980SOL     OW21838   2.800   1.013   4.258
 6980SOL    HW121839   2.707   0.984   4.233
 6980SOL    HW221840   2.804   1.112   4.264
 6981SOL     OW21841   1.879   5.525   0.398
 6981SOL    HW121842   1.789   5.514   0.440
 6981SOL    HW221843   1.895   5.450   0.335
 6982SOL     OW21844   0.342   6.899   4.854
 6982SOL    HW121845   0.383   6.987   4.832
 6982SOL    HW221846   0.297   6.863   4.772
 6983SOL     OW21847   6.634   0.305   4.217
 6983SOL    HW121848   6.669   0.295   4.310
 6983SOL    HW221849   6.653   0.398   4.184
 6984SOL     OW21850   1.998   1.249   6.053
 6984SOL    HW121851   1.952   1.215   6.135
 6984SOL    HW221852   1.932   1.301   5.998
 6985SOL     OW21853   4.831   5.910   2.200
 6985SOL    HW121854   4.844   5.878   2.106
 6985SOL    HW221855   4.901   5.871   2.258
 6986SOL     OW21856   2.297   6.283   6.183
 6986SOL    HW121857   2.233   6.358   6.198
 6986SOL    HW221858   2.384   6.319   6.148
 6987SOL     OW21859   0.602   3.499   6.748
 6987SOL    HW121860   0.678   3.518   6.685
 6987SOL    HW221861   0.612   3.555   6.830
 6988SOL     OW21862   5.452   1.379   3.748
 6988SOL    HW121863   5.455   1.280   3.735
 6988SOL    HW221864   5.449   1.425   3.659
 6989SOL     OW21865   1.257   1.855   3.625
 6989SOL    HW121866   1.307   1.802   3.694
 6989SOL    HW221867   1.288   1.950   3.629
 6990SOL     OW21868   3.523   3.219   0.354
 6990SOL    HW121869   3.426   3.211   0.376
 6990SOL    HW221870   3.568   3.274   0.424
 6991SOL     OW21871   2.873   4.637   6.050
 6991SOL    HW121872   2.920   4.552   6.074
 6991SOL    HW221873   2.892   4.706   6.119
 6992SOL     OW21874   5.750   6.648   3.715
 6992SOL    HW121875   5.660   6.688   3.696
 6992SOL    HW221876   5.811   6.720   3.747
 6993SOL     OW21877   0.333   0.146   2.939
 6993SOL    HW121878   0.282   0.060   2.938
 6993SOL    HW221879   0.416   0.136   2.884
 6994SOL     OW21880   2.075   3.172   6.689
 6994SOL    HW121881   2.169   3.195   6.662
 6994SOL    HW221882   2.076   3.129   6.779
 6995SOL     OW21883   5.752   5.216   3.307
 6995SOL    HW121884   5.736   5.172   3.219
 6995SOL    HW221885   5.792   5.307   3.292
 6996SOL     OW21886   2.492   0.511   5.436
 6996SOL    HW121887   2.461   0.451   5.510
 6996SOL    HW221888   2.500   0.457   5.352
 6997SOL     OW21889   4.810   0.020   4.810
 6997SOL    HW121890   4.774   0.085   4.742
 6997SOL    HW221891   4.737   6.984   4.837
 6998SOL     OW21892   1.203   3.345   2.763
 6998SOL    HW121893   1.185   3.355   2.665
 6998SOL    HW221894   1.117   3.332   2.812
 6999SOL     OW21895   3.370   1.516   5.766
 6999SOL    HW121896   3.444   1.572   5.729
 6999SOL    HW221897   3.284   1.542   5.724
 7000SOL     OW21898   0.744   6.300   2.279
 7000SOL    HW121899   0.759   6.207   2.246
 7000SOL    HW221900   0.732   6.362   2.202
 7001SOL     OW21901   2.545   3.194   5.764
 7001SOL    HW121902   2.517   3.220   5.672
 7001SOL    HW221903   2.550   3.276   5.822
 7002SOL     OW21904   1.014   5.017   3.099
 7002SOL    HW121905   1.045   4.981   3.011
 7002SOL    HW221906   1.093   5.040   3.155
 7003SOL     OW21907   3.227   6.407   1.089
 7003SOL    HW121908   3.249   6.452   1.002
 7003SOL    HW221909   3.161   6.334   1.074
 7004SOL     OW21910   1.388   4.120   1.152
 7004SOL    HW121911   1.481   4.086   1.166
 7004SOL    HW221912   1.354   4.162   1.236
 7005SOL     OW21913   5.392   5.962   6.457
 7005SOL    HW121914   5.399   6.042   6.516
 7005SOL    HW221915   5.349   5.988   6.370
 7006SOL     OW21916   4.568   4.535   5.199
 7006SOL    HW121917   4.645   4.480   5.166
 7006SOL    HW221918   4.482   4.497   5.163
 7007SOL     OW21919   4.440   6.096   3.286
 7007SOL    HW121920   4.357   6.103   3.342
 7007SOL    HW221921   4.437   6.166   3.214
 7008SOL     OW21922   1.562   5.179   3.894
 7008SOL    HW121923   1.476   5.225   3.875
 7008SOL    HW221924   1.556   5.083   3.865
 7009SOL     OW21925   0.200   4.602   2.450
 7009SOL    HW121926   0.257   4.667   2.400
 7009SOL    HW221927   0.219   4.609   2.548
 7010SOL     OW21928   3.703   4.998   6.422
 7010SOL    HW121929   3.747   5.015   6.510
 7010SOL    HW221930   3.728   4.907   6.389
 7011SOL     OW21931   2.794   0.297   5.890
 7011SOL    HW121932   2.696   0.290   5.869
 7011SOL    HW221933   2.832   0.379   5.846
 7012SOL     OW21934   1.643   0.642   1.630
 7012SOL    HW121935   1.646   0.576   1.705
 7012SOL    HW221936   1.636   0.594   1.543
 7013SOL     OW21937   1.245   6.920   1.399
 7013SOL    HW121938   1.278   6.839   1.449
 7013SOL    HW221939   1.250   7.000   1.458
 7014SOL     OW21940   2.870   4.202   1.045
 7014SOL    HW121941   2.829   4.221   0.956
 7014SOL    HW221942   2.803   4.220   1.117
 7015SOL     OW21943   5.010   2.565   2.546
 7015SOL    HW121944   4.946   2.570   2.469
 7015SOL    HW221945   5.065   2.648   2.549
 7016SOL     OW21946   4.347   5.084   1.319
 7016SOL    HW121947   4.295   5.170   1.321
 7016SOL    HW221948   4.337   5.042   1.229
 7017SOL     OW21949   2.926   1.799   3.427
 7017SOL    HW121950   3.022   1.809   3.403
 7017SOL    HW221951   2.900   1.872   3.490
 7018SOL     OW21952   0.663   4.876   5.069
 7018SOL    HW121953   0.742   4.817   5.085
 7018SOL    HW221954   0.581   4.835   5.108
 7019SOL     OW21955   2.674   5.639   0.200
 7019SOL    HW121956   2.740   5.714   0.202
 7019SOL    HW221957   2.684   5.583   0.282
 7020SOL     OW21958   6.268   6.436   6.769
 7020SOL    HW121959   6.271   6.427   6.670
 7020SOL    HW221960   6.361   6.431   6.806
 7021SOL     OW21961   2.429   1.133   6.072
 7021SOL    HW121962   2.469   1.214   6.028
 7021SOL    HW221963   2.401   1.067   6.002
 7022SOL     OW21964   5.424   4.036   6.879
 7022SOL    HW121965   5.476   3.999   6.956
 7022SOL    HW221966   5.383   3.962   6.827
 7023SOL     OW21967   6.509   3.533   2.414
 7023SOL    HW121968   6.465   3.461   2.361
 7023SOL    HW221969   6.451   3.614   2.415
 7024SOL     OW21970   1.620   5.842   0.438
 7024SOL    HW121971   1.539   5.897   0.420
 7024SOL    HW221972   1.698   5.880   0.389
 7025SOL     OW21973   3.080   2.284   6.760
 7025SOL    HW121974   3.116   2.366   6.716
 7025SOL    HW221975   3.044   2.222   6.691
 7026SOL     OW21976   3.782   1.532   1.048
 7026SOL    HW121977   3.775   1.579   1.136
 7026SOL    HW221978   3.736   1.444   1.053
 7027SOL     OW21979   3.966   6.333   4.380
 7027SOL    HW121980   4.023   6.258   4.348
 7027SOL    HW221981   4.019   6.418   4.379
 7028SOL     OW21982   4.188   6.562   4.173
 7028SOL    HW121983   4.113   6.616   4.209
 7028SOL    HW221984   4.257   6.623   4.132
 7029SOL     OW21985   3.484   0.269   6.852
 7029SOL    HW121986   3.391   0.305   6.854
 7029SOL    HW221987   3.483   0.171   6.832
 7030SOL     OW21988   0.584   3.767   4.793
 7030SOL    HW121989   0.605   3.775   4.696
 7030SOL    HW221990   0.669   3.768   4.847
 7031SOL     OW21991   1.597   5.785   4.307
 7031SOL    HW121992   1.677   5.811   4.252
 7031SOL    HW221993   1.619   5.703   4.360
 7032SOL     OW21994   6.251   0.899   2.424
 7032SOL    HW121995   6.183   0.825   2.421
 7032SOL    HW221996   6.206   0.983   2.453
 7033SOL     OW21997   0.061   1.263   3.792
 7033SOL    HW121998   0.073   1.232   3.698
 7033SOL    HW221999   0.140   1.318   3.819
 7034SOL     OW22000   6.506   6.792   2.685
 7034SOL    HW122001   6.550   6.842   2.610
 7034SOL    HW222002   6.554   6.813   2.770
 7035SOL     OW22003   6.720   5.613   2.483
 7035SOL    HW122004   6.712   5.705   2.522
 7035SOL    HW222005   6.707   5.545   2.556
 7036SOL     OW22006   6.810   5.013   2.236
 7036SOL    HW122007   6.807   4.984   2.331
 7036SOL    HW222008   6.905   5.023   2.207
 7037SOL     OW22009   1.249   6.310   5.764
 7037SOL    HW122010   1.201   6.254   5.696
 7037SOL    HW222011   1.223   6.281   5.856
 7038SOL     OW22012   0.694   4.681   4.268
 7038SOL    HW122013   0.620   4.658   4.332
 7038SOL    HW222014   0.685   4.625   4.186
 7039SOL     OW22015   3.742   0.930   6.259
 7039SOL    HW122016   3.813   0.960   6.195
 7039SOL    HW222017   3.697   0.848   6.222
 7040SOL     OW22018   5.065   2.298   6.349
 7040SOL    HW122019   5.042   2.392   6.373
 7040SOL    HW222020   5.160   2.279   6.374
 7041SOL     OW22021   1.811   1.955   2.783
 7041SOL    HW122022   1.847   1.973   2.874
 7041SOL    HW222023   1.882   1.973   2.715
 7042SOL     OW22024   3.518   6.109   6.500
 7042SOL    HW122025   3.473   6.033   6.454
 7042SOL    HW222026   3.474   6.126   6.589
 7043SOL     OW22027   2.477   1.909   3.179
 7043SOL    HW122028   2.438   1.822   3.149
 7043SOL    HW222029   2.576   1.901   3.184
 7044SOL     OW22030   4.601   4.863   2.738
 7044SOL    HW122031   4.670   4.886   2.807
 7044SOL    HW222032   4.569   4.947   2.694
 7045SOL     OW22033   5.676   5.699   1.240
 7045SOL    HW122034   5.766   5.723   1.275
 7045SOL    HW222035   5.676   5.603   1.210
 7046SOL     OW22036   3.794   0.635   4.451
 7046SOL    HW122037   3.719   0.655   4.515
 7046SOL    HW222038   3.792   0.538   4.428
 7047SOL     OW22039   1.317   0.985   4.336
 7047SOL    HW122040   1.347   0.901   4.290
 7047SOL    HW222041   1.260   1.039   4.274
 7048SOL     OW22042   6.670   5.871   0.446
 7048SOL    HW122043   6.584   5.921   0.463
 7048SOL    HW222044   6.739   5.900   0.513
 7049SOL     OW22045   2.356   1.266   0.713
 7049SOL    HW122046   2.309   1.179   0.701
 7049SOL    HW222047   2.425   1.257   0.784
 7050SOL     OW22048   3.089   4.076   4.607
 7050SOL    HW122049   3.095   4.089   4.706
 7050SOL    HW222050   3.169   4.119   4.564
 7051SOL     OW22051   0.036   0.171   1.676
 7051SOL    HW122052   0.083   0.087   1.702
 7051SOL    HW222053   6.980   0.148   1.626
 7052SOL     OW22054   0.142   2.185   3.880
 7052SOL    HW122055   0.171   2.278   3.857
 7052SOL    HW222056   0.207   2.146   3.945
 7053SOL     OW22057   0.786   4.307   6.830
 7053SOL    HW122058   0.749   4.278   6.742
 7053SOL    HW222059   0.732   4.267   6.904
 7054SOL     OW22060   6.356   6.286   1.871
 7054SOL    HW122061   6.312   6.200   1.844
 7054SOL    HW222062   6.394   6.277   1.963
 7055SOL     OW22063   4.525   0.705   4.058
 7055SOL    HW122064   4.597   0.744   4.116
 7055SOL    HW222065   4.538   0.736   3.964
 7056SOL     OW22066   5.440   4.835   3.943
 7056SOL    HW122067   5.350   4.829   3.900
 7056SOL    HW222068   5.471   4.930   3.944
 7057SOL     OW22069   6.859   5.778   3.416
 7057SOL    HW122070   6.931   5.843   3.442
 7057SOL    HW222071   6.825   5.801   3.325
 7058SOL     OW22072   0.766   5.345   5.838
 7058SOL    HW122073   0.833   5.403   5.790
 7058SOL    HW222074   0.814   5.289   5.905
 7059SOL     OW22075   1.003   0.036   2.092
 7059SOL    HW122076   0.995   7.010   2.008
 7059SOL    HW222077   1.091   0.015   2.136
 7060SOL     OW22078   3.323   6.195   1.647
 7060SOL    HW122079   3.306   6.098   1.630
 7060SOL    HW222080   3.357   6.238   1.563
 7061SOL     OW22081   0.628   0.374   2.995
 7061SOL    HW122082   0.615   0.468   2.964
 7061SOL    HW222083   0.564   0.314   2.949
 7062SOL     OW22084   5.208   1.976   5.066
 7062SOL    HW122085   5.190   1.912   4.991
 7062SOL    HW222086   5.202   1.927   5.153
 7063SOL     OW22087   2.246   6.621   1.557
 7063SOL    HW122088   2.191   6.572   1.625
 7063SOL    HW222089   2.261   6.715   1.588
 7064SOL     OW22090   3.518   2.196   1.438
 7064SOL    HW122091   3.507   2.282   1.388
 7064SOL    HW222092   3.510   2.213   1.536
 7065SOL     OW22093   4.745   3.516   1.710
 7065SOL    HW122094   4.761   3.418   1.696
 7065SOL    HW222095   4.764   3.565   1.625
 7066SOL     OW22096   4.325   6.589   0.253
 7066SOL    HW122097   4.251   6.656   0.265
 7066SOL    HW222098   4.409   6.625   0.293
 7067SOL     OW22099   0.769   3.845   5.686
 7067SOL    HW122100   0.692   3.854   5.623
 7067SOL    HW222101   0.824   3.929   5.684
 7068SOL     OW22102   1.431   1.517   3.595
 7068SOL    HW122103   1.391   1.496   3.506
 7068SOL    HW222104   1.505   1.452   3.615
 7069SOL     OW22105   0.611   4.259   5.706
 7069SOL    HW122106   0.520   4.228   5.682
 7069SOL    HW222107   0.636   4.222   5.796
 7070SOL     OW22108   6.423   4.781   5.254
 7070SOL    HW122109   6.342   4.748   5.302
 7070SOL    HW222110   6.431   4.733   5.166
 7071SOL     OW22111   1.567   5.662   5.327
 7071SOL    HW122112   1.484   5.668   5.383
 7071SOL    HW222113   1.590   5.752   5.291
 7072SOL     OW22114   7.011   6.499   6.505
 7072SOL    HW122115   0.044   6.554   6.562
 7072SOL    HW222116   0.018   6.406   6.498
 7073SOL     OW22117   0.468   0.816   5.244
 7073SOL    HW122118   0.419   0.852   5.165
 7073SOL    HW222119   0.426   0.729   5.271
 7074SOL     OW22120   3.214   1.838   1.881
 7074SOL    HW122121   3.215   1.917   1.821
 7074SOL    HW222122   3.209   1.868   1.977
 7075SOL     OW22123   1.972   5.814   4.391
 7075SOL    HW122124   1.963   5.770   4.480
 7075SOL    HW222125   1.929   5.756   4.321
 7076SOL     OW22126   3.552   1.673   6.412
 7076SOL    HW122127   3.619   1.644   6.481
 7076SOL    HW222128   3.598   1.731   6.344
 7077SOL     OW22129   2.322   5.546   5.696
 7077SOL    HW122130   2.367   5.626   5.657
 7077SOL    HW222131   2.390   5.474   5.711
 7078SOL     OW22132   5.710   0.628   3.479
 7078SOL    HW122133   5.770   0.697   3.519
 7078SOL    HW222134   5.709   0.547   3.538
 7079SOL     OW22135   6.256   6.435   5.967
 7079SOL    HW122136   6.235   6.369   6.039
 7079SOL    HW222137   6.348   6.472   5.983
 7080SOL     OW22138   4.146   2.181   3.645
 7080SOL    HW122139   4.157   2.187   3.546
 7080SOL    HW222140   4.218   2.235   3.689
 7081SOL     OW22141   3.336   1.238   5.836
 7081SOL    HW122142   3.237   1.230   5.851
 7081SOL    HW222143   3.359   1.332   5.812
 7082SOL     OW22144   5.973   1.292   6.799
 7082SOL    HW122145   5.880   1.327   6.809
 7082SOL    HW222146   6.039   1.365   6.816
 7083SOL     OW22147   3.457   0.170   5.809
 7083SOL    HW122148   3.528   0.229   5.769
 7083SOL    HW222149   3.371   0.185   5.761
 7084SOL     OW22150   6.786   6.335   5.833
 7084SOL    HW122151   6.758   6.425   5.867
 7084SOL    HW222152   6.869   6.306   5.880
 7085SOL     OW22153   2.277   2.349   2.402
 7085SOL    HW122154   2.358   2.293   2.415
 7085SOL    HW222155   2.245   2.340   2.308
 7086SOL     OW22156   5.539   0.750   6.542
 7086SOL    HW122157   5.577   0.764   6.633
 7086SOL    HW222158   5.597   0.684   6.492
 7087SOL     OW22159   0.935   3.623   4.659
 7087SOL    HW122160   1.014   3.582   4.704
 7087SOL    HW222161   0.952   3.628   4.560
 7088SOL     OW22162   5.370   3.192   4.252
 7088SOL    HW122163   5.387   3.169   4.348
 7088SOL    HW222164   5.412   3.122   4.194
 7089SOL     OW22165   3.837   2.122   6.591
 7089SOL    HW122166   3.824   2.150   6.495
 7089SOL    HW222167   3.829   2.203   6.650
 7090SOL     OW22168   2.280   2.020   5.056
 7090SOL    HW122169   2.239   1.931   5.035
 7090SOL    HW222170   2.350   2.009   5.127
 7091SOL     OW22171   6.891   0.854   0.755
 7091SOL    HW122172   6.947   0.776   0.727
 7091SOL    HW222173   6.887   0.920   0.679
 7092SOL     OW22174   3.612   4.124   1.276
 7092SOL    HW122175   3.571   4.094   1.362
 7092SOL    HW222176   3.609   4.050   1.209
 7093SOL     OW22177   3.660   3.858   4.671
 7093SOL    HW122178   3.584   3.879   4.733
 7093SOL    HW222179   3.720   3.938   4.664
 7094SOL     OW22180   0.912   6.615   5.717
 7094SOL    HW122181   0.921   6.711   5.743
 7094SOL    HW222182   0.820   6.599   5.681
 7095SOL     OW22183   1.116   2.988   6.569
 7095SOL    HW122184   1.060   3.055   6.617
 7095SOL    HW222185   1.187   3.036   6.517
 7096SOL     OW22186   4.346   2.346   3.952
 7096SOL    HW122187   4.400   2.262   3.960
 7096SOL    HW222188   4.335   2.369   3.855
 7097SOL     OW22189   0.357   0.990   1.859
 7097SOL    HW122190   0.313   0.905   1.887
 7097SOL    HW222191   0.452   0.990   1.892
 7098SOL     OW22192   1.766   5.832   6.404
 7098SOL    HW122193   1.854   5.843   6.359
 7098SOL    HW222194   1.700   5.791   6.340
 7099SOL     OW22195   1.081   1.160   5.209
 7099SOL    HW122196   0.998   1.129   5.163
 7099SOL    HW222197   1.118   1.240   5.162
 7100SOL     OW22198   4.965   3.777   1.183
 7100SOL    HW122199   5.001   3.685   1.165
 7100SOL    HW222200   4.898   3.802   1.114
 7101SOL     OW22201   3.181   0.569   4.898
 7101SOL    HW122202   3.096   0.518   4.882
 7101SOL    HW222203   3.225   0.535   4.982
 7102SOL     OW22204   3.839   1.282   0.676
 7102SOL    HW122205   3.865   1.265   0.581
 7102SOL    HW222206   3.772   1.214   0.706
 7103SOL     OW22207   3.392   6.442   0.585
 7103SOL    HW122208   3.470   6.393   0.547
 7103SOL    HW222209   3.328   6.376   0.624
 7104SOL     OW22210   1.678   2.365   3.434
 7104SOL    HW122211   1.689   2.316   3.348
 7104SOL    HW222212   1.589   2.342   3.474
 7105SOL     OW22213   3.520   3.403   4.362
 7105SOL    HW122214   3.457   3.465   4.316
 7105SOL    HW222215   3.510   3.311   4.324
 7106SOL     OW22216   3.765   3.336   4.512
 7106SOL    HW122217   3.807   3.324   4.422
 7106SOL    HW222218   3.785   3.257   4.569
 7107SOL     OW22219   2.978   0.981   0.737
 7107SOL    HW122220   2.956   1.057   0.799
 7107SOL    HW222221   2.998   1.018   0.646
 7108SOL     OW22222   5.006   6.064   0.874
 7108SOL    HW122223   5.030   6.112   0.958
 7108SOL    HW222224   4.908   6.075   0.856
 7109SOL     OW22225   3.619   0.215   6.065
 7109SOL    HW122226   3.599   0.187   5.971
 7109SOL    HW222227   3.551   0.175   6.127
 7110SOL     OW22228   4.523   5.056   4.413
 7110SOL    HW122229   4.510   5.149   4.447
 7110SOL    HW222230   4.438   5.004   4.425
 7111SOL     OW22231   2.171   3.081   4.151
 7111SOL    HW122232   2.193   3.178   4.152
 7111SOL    HW222233   2.143   3.054   4.058
 7112SOL     OW22234   1.288   6.520   3.992
 7112SOL    HW122235   1.208   6.580   3.991
 7112SOL    HW222236   1.309   6.494   4.086
 7113SOL     OW22237   3.732   4.077   4.342
 7113SOL    HW122238   3.822   4.047   4.312
 7113SOL    HW222239   3.670   4.080   4.263
 7114SOL     OW22240   4.419   1.266   1.796
 7114SOL    HW122241   4.513   1.262   1.829
 7114SOL    HW222242   4.387   1.361   1.798
 7115SOL     OW22243   4.635   1.407   1.591
 7115SOL    HW122244   4.556   1.466   1.606
 7115SOL    HW222245   4.719   1.461   1.602
 7116SOL     OW22246   5.216   3.618   3.665
 7116SOL    HW122247   5.130   3.588   3.706
 7116SOL    HW222248   5.218   3.592   3.569
 7117SOL     OW22249   6.261   6.145   2.404
 7117SOL    HW122250   6.319   6.072   2.368
 7117SOL    HW222251   6.318   6.210   2.454
 7118SOL     OW22252   5.220   3.555   0.619
 7118SOL    HW122253   5.221   3.487   0.547
 7118SOL    HW222254   5.180   3.640   0.584
 7119SOL     OW22255   6.258   1.175   2.670
 7119SOL    HW122256   6.276   1.138   2.761
 7119SOL    HW222257   6.236   1.272   2.677
 7120SOL     OW22258   4.902   1.584   4.156
 7120SOL    HW122259   4.972   1.601   4.225
 7120SOL    HW222260   4.940   1.604   4.065
 7121SOL     OW22261   2.308   6.516   3.902
 7121SOL    HW122262   2.244   6.576   3.854
 7121SOL    HW222263   2.329   6.555   3.992
 7122SOL     OW22264   6.652   0.925   6.996
 7122SOL    HW122265   6.615   0.978   0.045
 7122SOL    HW222266   6.588   0.927   6.920
 7123SOL     OW22267   3.321   5.455   1.776
 7123SOL    HW122268   3.375   5.414   1.702
 7123SOL    HW222269   3.339   5.406   1.861
 7124SOL     OW22270   0.177   5.367   6.686
 7124SOL    HW122271   0.137   5.389   6.597
 7124SOL    HW222272   0.183   5.268   6.697
 7125SOL     OW22273   6.440   6.588   2.472
 7125SOL    HW122274   6.359   6.630   2.431
 7125SOL    HW222275   6.478   6.650   2.542
 7126SOL     OW22276   1.973   4.412   0.253
 7126SOL    HW122277   1.999   4.316   0.246
 7126SOL    HW222278   1.875   4.422   0.234
 7127SOL     OW22279   3.482   5.796   4.466
 7127SOL    HW122280   3.434   5.879   4.493
 7127SOL    HW222281   3.539   5.815   4.386
 7128SOL     OW22282   3.553   4.439   1.045
 7128SOL    HW122283   3.467   4.424   1.093
 7128SOL    HW222284   3.626   4.390   1.091
 7129SOL     OW22285   3.215   0.443   1.517
 7129SOL    HW122286   3.137   0.505   1.528
 7129SOL    HW222287   3.264   0.436   1.604
 7130SOL     OW22288   2.699   5.079   3.623
 7130SOL    HW122289   2.674   5.081   3.720
 7130SOL    HW222290   2.799   5.075   3.614
 7131SOL     OW22291   2.552   1.252   2.571
 7131SOL    HW122292   2.645   1.261   2.534
 7131SOL    HW222293   2.533   1.156   2.592
 7132SOL     OW22294   3.676   4.052   2.861
 7132SOL    HW122295   3.601   4.101   2.816
 7132SOL    HW222296   3.758   4.058   2.806
 7133SOL     OW22297   4.621   5.492   3.124
 7133SOL    HW122298   4.579   5.410   3.163
 7133SOL    HW222299   4.689   5.529   3.188
 7134SOL     OW22300   6.109   5.651   3.908
 7134SOL    HW122301   6.022   5.648   3.859
 7134SOL    HW222302   6.110   5.728   3.971
 7135SOL     OW22303   1.518   1.085   4.114
 7135SOL    HW122304   1.565   1.121   4.034
 7135SOL    HW222305   1.585   1.049   4.179
 7136SOL     OW22306   1.533   0.974   0.485
 7136SOL    HW122307   1.463   0.994   0.554
 7136SOL    HW222308   1.619   0.952   0.531
 7137SOL     OW22309   4.409   0.733   4.307
 7137SOL    HW122310   4.438   0.746   4.212
 7137SOL    HW222311   4.487   0.704   4.363
 7138SOL     OW22312   2.770   3.803   1.177
 7138SOL    HW122313   2.815   3.740   1.114
 7138SOL    HW222314   2.729   3.752   1.252
 7139SOL     OW22315   4.451   3.131   1.589
 7139SOL    HW122316   4.352   3.138   1.602
 7139SOL    HW222317   4.495   3.112   1.677
 7140SOL     OW22318   6.409   4.625   5.016
 7140SOL    HW122319   6.453   4.603   4.929
 7140SOL    HW222320   6.345   4.551   5.040
 7141SOL     OW22321   2.647   0.280   1.084
 7141SOL    HW122322   2.666   0.361   1.139
 7141SOL    HW222323   2.728   0.222   1.081
 7142SOL     OW22324   4.267   5.893   3.826
 7142SOL    HW122325   4.176   5.925   3.802
 7142SOL    HW222326   4.312   5.961   3.885
 7143SOL     OW22327   1.636   4.050   6.472
 7143SOL    HW122328   1.660   3.956   6.496
 7143SOL    HW222329   1.677   4.074   6.384
 7144SOL     OW22330   1.175   1.780   3.105
 7144SOL    HW122331   1.147   1.724   3.027
 7144SOL    HW222332   1.112   1.765   3.181
 7145SOL     OW22333   4.661   6.975   6.754
 7145SOL    HW122334   4.617   0.003   6.684
 7145SOL    HW222335   4.641   6.878   6.738
 7146SOL     OW22336   2.660   6.534   0.683
 7146SOL    HW122337   2.755   6.508   0.667
 7146SOL    HW222338   2.604   6.451   0.686
 7147SOL     OW22339   6.819   0.696   3.019
 7147SOL    HW122340   6.886   0.713   2.947
 7147SOL    HW222341   6.730   0.733   2.991
 7148SOL     OW22342   1.523   6.483   1.621
 7148SOL    HW122343   1.424   6.496   1.611
 7148SOL    HW222344   1.559   6.439   1.539
 7149SOL     OW22345   6.335   1.456   3.202
 7149SOL    HW122346   6.330   1.367   3.247
 7149SOL    HW222347   6.284   1.523   3.256
 7150SOL     OW22348   5.259   2.565   0.370
 7150SOL    HW122349   5.201   2.486   0.389
 7150SOL    HW222350   5.302   2.555   0.280
 7151SOL     OW22351   1.958   5.775   1.647
 7151SOL    HW122352   1.975   5.694   1.590
 7151SOL    HW222353   1.966   5.750   1.744
 7152SOL     OW22354   0.943   2.818   4.441
 7152SOL    HW122355   0.975   2.913   4.440
 7152SOL    HW222356   0.853   2.813   4.398
 7153SOL     OW22357   4.600   0.997   4.659
 7153SOL    HW122358   4.597   0.926   4.730
 7153SOL    HW222359   4.526   0.981   4.593
 7154SOL     OW22360   4.069   6.012   4.284
 7154SOL    HW122361   4.070   6.012   4.384
 7154SOL    HW222362   4.104   5.925   4.250
 7155SOL     OW22363   1.480   6.697   2.109
 7155SOL    HW122364   1.541   6.638   2.055
 7155SOL    HW222365   1.446   6.771   2.052
 7156SOL     OW22366   6.509   5.438   5.377
 7156SOL    HW122367   6.566   5.485   5.309
 7156SOL    HW222368   6.481   5.349   5.341
 7157SOL     OW22369   5.325   5.368   0.570
 7157SOL    HW122370   5.228   5.346   0.562
 7157SOL    HW222371   5.377   5.285   0.587
 7158SOL     OW22372   0.122   6.777   3.493
 7158SOL    HW122373   0.190   6.742   3.428
 7158SOL    HW222374   0.168   6.811   3.575
 7159SOL     OW22375   0.562   4.943   0.561
 7159SOL    HW122376   0.512   5.014   0.511
 7159SOL    HW222377   0.623   4.985   0.628
 7160SOL     OW22378   6.468   0.349   2.186
 7160SOL    HW122379   6.388   0.296   2.213
 7160SOL    HW222380   6.439   0.440   2.157
 7161SOL     OW22381   3.377   2.883   4.074
 7161SOL    HW122382   3.471   2.918   4.077
 7161SOL    HW222383   3.378   2.784   4.082
 7162SOL     OW22384   3.870   4.861   4.066
 7162SOL    HW122385   3.806   4.888   4.138
 7162SOL    HW222386   3.905   4.942   4.020
 7163SOL     OW22387   3.166   0.233   3.658
 7163SOL    HW122388   3.238   0.171   3.689
 7163SOL    HW222389   3.090   0.232   3.724
 7164SOL     OW22390   1.991   1.277   3.592
 7164SOL    HW122391   2.070   1.269   3.532
 7164SOL    HW222392   1.913   1.310   3.540
 7165SOL     OW22393   5.224   0.993   0.814
 7165SOL    HW122394   5.233   1.021   0.910
 7165SOL    HW222395   5.294   0.925   0.792
 7166SOL     OW22396   4.962   4.994   0.883
 7166SOL    HW122397   4.963   4.897   0.861
 7166SOL    HW222398   5.048   5.036   0.854
 7167SOL     OW22399   4.772   3.441   5.374
 7167SOL    HW122400   4.707   3.480   5.308
 7167SOL    HW222401   4.722   3.384   5.439
 7168SOL     OW22402   1.376   0.861   4.095
 7168SOL    HW122403   1.424   0.941   4.128
 7168SOL    HW222404   1.381   0.858   3.995
 7169SOL     OW22405   1.668   3.162   6.216
 7169SOL    HW122406   1.743   3.133   6.275
 7169SOL    HW222407   1.654   3.261   6.227
 7170SOL     OW22408   5.393   4.854   3.500
 7170SOL    HW122409   5.361   4.760   3.486
 7170SOL    HW222410   5.426   4.891   3.413
 7171SOL     OW22411   4.243   2.863   5.592
 7171SOL    HW122412   4.224   2.776   5.547
 7171SOL    HW222413   4.298   2.846   5.674
 7172SOL     OW22414   2.026   6.902   0.568
 7172SOL    HW122415   2.095   6.933   0.633
 7172SOL    HW222416   1.969   6.979   0.540
 7173SOL     OW22417   0.076   6.302   4.835
 7173SOL    HW122418   0.129   6.382   4.860
 7173SOL    HW222419   0.136   6.222   4.826
 7174SOL     OW22420   1.994   5.742   0.302
 7174SOL    HW122421   1.954   5.662   0.347
 7174SOL    HW222422   2.033   5.803   0.371
 7175SOL     OW22423   5.143   4.024   0.050
 7175SOL    HW122424   5.126   4.024   6.979
 7175SOL    HW222425   5.079   3.962   0.095
 7176SOL     OW22426   6.432   4.080   1.523
 7176SOL    HW122427   6.372   4.052   1.449
 7176SOL    HW222428   6.389   4.154   1.575
 7177SOL     OW22429   0.672   6.056   3.503
 7177SOL    HW122430   0.684   6.059   3.602
 7177SOL    HW222431   0.598   5.993   3.480
 7178SOL     OW22432   0.772   3.031   4.772
 7178SOL    HW122433   0.710   3.067   4.703
 7178SOL    HW222434   0.840   2.972   4.728
 7179SOL     OW22435   2.849   3.662   5.624
 7179SOL    HW122436   2.783   3.595   5.592
 7179SOL    HW222437   2.881   3.718   5.548
 7180SOL     OW22438   0.465   6.345   1.320
 7180SOL    HW122439   0.528   6.362   1.244
 7180SOL    HW222440   0.374   6.328   1.284
 7181SOL     OW22441   4.589   0.462   1.261
 7181SOL    HW122442   4.536   0.479   1.344
 7181SOL    HW222443   4.620   0.550   1.224
 7182SOL     OW22444   2.488   4.446   5.416
 7182SOL    HW122445   2.561   4.503   5.378
 7182SOL    HW222446   2.524   4.392   5.492
 7183SOL     OW22447   2.051   5.027   3.340
 7183SOL    HW122448   2.048   5.069   3.431
 7183SOL    HW222449   2.018   5.092   3.272
 7184SOL     OW22450   1.759   6.546   4.027
 7184SOL    HW122451   1.781   6.463   3.976
 7184SOL    HW222452   1.754   6.525   4.125
 7185SOL     OW22453   4.578   2.933   6.966
 7185SOL    HW122454   4.561   2.839   6.934
 7185SOL    HW222455   4.503   2.992   6.936
 7186SOL     OW22456   6.659   5.902   5.211
 7186SOL    HW122457   6.611   5.981   5.174
 7186SOL    HW222458   6.664   5.908   5.310
 7187SOL     OW22459   1.668   4.220   1.888
 7187SOL    HW122460   1.700   4.234   1.982
 7187SOL    HW222461   1.663   4.309   1.841
 7188SOL     OW22462   4.820   0.416   1.877
 7188SOL    HW122463   4.900   0.450   1.827
 7188SOL    HW222464   4.743   0.478   1.862
 7189SOL     OW22465   7.011   1.166   5.121
 7189SOL    HW122466   7.015   1.077   5.167
 7189SOL    HW222467   0.020   1.236   5.183
 7190SOL     OW22468   5.799   4.081   3.121
 7190SOL    HW122469   5.811   4.033   3.208
 7190SOL    HW222470   5.881   4.132   3.099
 7191SOL     OW22471   1.273   3.634   2.464
 7191SOL    HW122472   1.325   3.582   2.396
 7191SOL    HW222473   1.333   3.656   2.541
 7192SOL     OW22474   2.650   4.756   6.534
 7192SOL    HW122475   2.733   4.710   6.567
 7192SOL    HW222476   2.661   4.779   6.437
 7193SOL     OW22477   3.918   1.639   4.283
 7193SOL    HW122478   3.854   1.692   4.227
 7193SOL    HW222479   3.867   1.573   4.339
 7194SOL     OW22480   2.586   1.974   1.836
 7194SOL    HW122481   2.530   2.055   1.818
 7194SOL    HW222482   2.682   2.002   1.845
 7195SOL     OW22483   0.402   5.394   0.723
 7195SOL    HW122484   0.320   5.440   0.755
 7195SOL    HW222485   0.379   5.302   0.691
 7196SOL     OW22486   3.274   3.261   2.853
 7196SOL    HW122487   3.184   3.261   2.895
 7196SOL    HW222488   3.265   3.267   2.754
 7197SOL     OW22489   6.912   1.862   4.844
 7197SOL    HW122490   6.946   1.925   4.914
 7197SOL    HW222491   6.964   1.876   4.760
 7198SOL     OW22492   1.571   6.787   6.171
 7198SOL    HW122493   1.503   6.784   6.098
 7198SOL    HW222494   1.554   6.867   6.228
 7199SOL     OW22495   0.169   0.106   2.621
 7199SOL    HW122496   0.222   0.053   2.687
 7199SOL    HW222497   0.103   0.046   2.575
 7200SOL     OW22498   2.254   1.198   1.520
 7200SOL    HW122499   2.313   1.275   1.496
 7200SOL    HW222500   2.170   1.232   1.562
 7201SOL     OW22501   1.580   4.776   4.213
 7201SOL    HW122502   1.566   4.711   4.287
 7201SOL    HW222503   1.492   4.795   4.168
 7202SOL     OW22504   4.256   0.509   6.334
 7202SOL    HW122505   4.271   0.559   6.420
 7202SOL    HW222506   4.158   0.492   6.322
 7203SOL     OW22507   5.574   0.774   6.820
 7203SOL    HW122508   5.658   0.815   6.854
 7203SOL    HW222509   5.500   0.788   6.886
 7204SOL     OW22510   5.941   1.129   3.076
 7204SOL    HW122511   6.018   1.191   3.060
 7204SOL    HW222512   5.933   1.111   3.174
 7205SOL     OW22513   1.659   5.168   3.369
 7205SOL    HW122514   1.688   5.190   3.462
 7205SOL    HW222515   1.650   5.069   3.359
 7206SOL     OW22516   6.641   1.461   0.842
 7206SOL    HW122517   6.684   1.504   0.922
 7206SOL    HW222518   6.707   1.457   0.767
 7207SOL     OW22519   3.090   6.418   1.326
 7207SOL    HW122520   3.130   6.388   1.239
 7207SOL    HW222521   3.070   6.338   1.383
 7208SOL     OW22522   3.195   0.161   5.648
 7208SOL    HW122523   3.163   0.087   5.588
 7208SOL    HW222524   3.123   0.230   5.657
 7209SOL     OW22525   3.981   3.240   4.012
 7209SOL    HW122526   3.984   3.186   3.928
 7209SOL    HW222527   3.889   3.276   4.025
 7210SOL     OW22528   4.431   1.169   3.644
 7210SOL    HW122529   4.409   1.119   3.561
 7210SOL    HW222530   4.374   1.251   3.650
 7211SOL     OW22531   1.424   5.732   4.090
 7211SOL    HW122532   1.421   5.719   4.189
 7211SOL    HW222533   1.487   5.807   4.068
 7212SOL     OW22534   5.955   6.014   4.265
 7212SOL    HW122535   5.970   6.096   4.320
 7212SOL    HW222536   5.991   6.029   4.173
 7213SOL     OW22537   5.971   0.958   5.721
 7213SOL    HW122538   5.950   1.055   5.709
 7213SOL    HW222539   5.924   0.904   5.652
 7214SOL     OW22540   1.814   5.176   5.320
 7214SOL    HW122541   1.858   5.116   5.387
 7214SOL    HW222542   1.755   5.241   5.368
 7215SOL     OW22543   0.499   3.920   4.237
 7215SOL    HW122544   0.433   3.850   4.262
 7215SOL    HW222545   0.451   4.003   4.207
 7216SOL     OW22546   2.485   0.294   0.061
 7216SOL    HW122547   2.417   0.238   0.012
 7216SOL    HW222548   2.499   0.380   0.011
 7217SOL     OW22549   0.947   3.183   2.625
 7217SOL    HW122550   0.903   3.110   2.573
 7217SOL    HW222551   0.949   3.159   2.722
 7218SOL     OW22552   4.418   2.166   5.618
 7218SOL    HW122553   4.478   2.237   5.581
 7218SOL    HW222554   4.356   2.208   5.686
 7219SOL     OW22555   4.280   6.439   3.010
 7219SOL    HW122556   4.256   6.374   2.939
 7219SOL    HW222557   4.198   6.468   3.059
 7220SOL     OW22558   6.759   1.312   2.133
 7220SOL    HW122559   6.738   1.402   2.170
 7220SOL    HW222560   6.771   1.247   2.209
 7221SOL     OW22561   5.166   3.706   5.993
 7221SOL    HW122562   5.074   3.732   5.962
 7221SOL    HW222563   5.207   3.645   5.925
 7222SOL     OW22564   0.174   5.865   1.258
 7222SOL    HW122565   0.163   5.825   1.167
 7222SOL    HW222566   0.171   5.793   1.327
 7223SOL     OW22567   3.359   1.845   6.115
 7223SOL    HW122568   3.457   1.832   6.129
 7223SOL    HW222569   3.313   1.854   6.203
 7224SOL     OW22570   5.612   0.074   4.790
 7224SOL    HW122571   5.579   0.164   4.764
 7224SOL    HW222572   5.581   0.006   4.723
 7225SOL     OW22573   2.217   6.101   0.057
 7225SOL    HW122574   2.194   6.070   0.149
 7225SOL    HW222575   2.270   6.185   0.063
 7226SOL     OW22576   0.343   6.850   0.411
 7226SOL    HW122577   0.252   6.881   0.385
 7226SOL    HW222578   0.350   6.845   0.510
 7227SOL     OW22579   0.240   2.805   6.600
 7227SOL    HW122580   0.219   2.779   6.506
 7227SOL    HW222581   0.285   2.729   6.646
 7228SOL     OW22582   0.334   0.420   1.879
 7228SOL    HW122583   0.389   0.499   1.850
 7228SOL    HW222584   0.357   0.341   1.823
 7229SOL     OW22585   1.065   0.127   4.250
 7229SOL    HW122586   1.027   0.191   4.316
 7229SOL    HW222587   0.991   0.075   4.206
 7230SOL     OW22588   4.938   4.824   3.270
 7230SOL    HW122589   5.008   4.755   3.254
 7230SOL    HW222590   4.848   4.785   3.252
 7231SOL     OW22591   5.911   1.220   5.711
 7231SOL    HW122592   5.959   1.215   5.623
 7231SOL    HW222593   5.935   1.305   5.757
 7232SOL     OW22594   3.997   4.916   2.560
 7232SOL    HW122595   3.912   4.968   2.546
 7232SOL    HW222596   4.012   4.855   2.482
 7233SOL     OW22597   0.522   2.713   5.670
 7233SOL    HW122598   0.483   2.746   5.756
 7233SOL    HW222599   0.518   2.786   5.602
 7234SOL     OW22600   6.281   1.767   1.923
 7234SOL    HW122601   6.224   1.722   1.855
 7234SOL    HW222602   6.363   1.805   1.879
 7235SOL     OW22603   5.584   3.439   5.515
 7235SOL    HW122604   5.492   3.459   5.482
 7235SOL    HW222605   5.581   3.361   5.578
 7236SOL     OW22606   3.715   0.725   3.177
 7236SOL    HW122607   3.718   0.761   3.084
 7236SOL    HW222608   3.638   0.662   3.186
 7237SOL     OW22609   5.794   6.111   5.919
 7237SOL    HW122610   5.853   6.156   5.986
 7237SOL    HW222611   5.761   6.024   5.958
 7238SOL     OW22612   2.472   2.075   2.165
 7238SOL    HW122613   2.548   2.135   2.139
 7238SOL    HW222614   2.399   2.083   2.097
 7239SOL     OW22615   2.959   1.369   2.181
 7239SOL    HW122616   2.903   1.354   2.100
 7239SOL    HW222617   2.981   1.466   2.190
 7240SOL     OW22618   2.642   4.681   0.165
 7240SOL    HW122619   2.613   4.679   0.069
 7240SOL    HW222620   2.573   4.729   0.219
 7241SOL     OW22621   3.443   6.848   5.280
 7241SOL    HW122622   3.414   6.915   5.348
 7241SOL    HW222623   3.541   6.859   5.263
 7242SOL     OW22624   6.015   4.174   6.648
 7242SOL    HW122625   5.977   4.253   6.696
 7242SOL    HW222626   5.943   4.132   6.592
 7243SOL     OW22627   0.575   5.603   0.677
 7243SOL    HW122628   0.649   5.565   0.621
 7243SOL    HW222629   0.505   5.533   0.692
 7244SOL     OW22630   5.540   1.763   1.181
 7244SOL    HW122631   5.492   1.815   1.253
 7244SOL    HW222632   5.588   1.686   1.223
 7245SOL     OW22633   0.262   1.991   4.420
 7245SOL    HW122634   0.257   1.978   4.321
 7245SOL    HW222635   0.312   1.914   4.461
 7246SOL     OW22636   6.927   6.545   5.406
 7246SOL    HW122637   7.014   6.497   5.416
 7246SOL    HW222638   6.868   6.525   5.484
 7247SOL     OW22639   2.955   5.856   2.517
 7247SOL    HW122640   2.924   5.924   2.584
 7247SOL    HW222641   2.884   5.787   2.504
 7248SOL     OW22642   4.123   1.057   4.707
 7248SOL    HW122643   4.114   1.156   4.702
 7248SOL    HW222644   4.033   1.016   4.722
 7249SOL     OW22645   6.096   5.057   6.994
 7249SOL    HW122646   5.997   5.067   7.004
 7249SOL    HW222647   6.130   5.128   6.932
 7250SOL     OW22648   3.301   4.445   6.455
 7250SOL    HW122649   3.364   4.494   6.396
 7250SOL    HW222650   3.351   4.376   6.508
 7251SOL     OW22651   5.968   0.140   5.308
 7251SOL    HW122652   5.924   0.057   5.275
 7251SOL    HW222653   5.916   0.178   5.384
 7252SOL     OW22654   3.429   2.966   4.839
 7252SOL    HW122655   3.364   2.913   4.894
 7252SOL    HW222656   3.380   3.008   4.762
 7253SOL     OW22657   4.160   6.090   1.225
 7253SOL    HW122658   4.245   6.064   1.272
 7253SOL    HW222659   4.084   6.037   1.261
 7254SOL     OW22660   4.501   6.534   4.575
 7254SOL    HW122661   4.529   6.620   4.617
 7254SOL    HW222662   4.579   6.492   4.529
 7255SOL     OW22663   2.917   3.877   2.567
 7255SOL    HW122664   2.819   3.865   2.585
 7255SOL    HW222665   2.934   3.869   2.469
 7256SOL     OW22666   4.201   4.641   3.820
 7256SOL    HW122667   4.160   4.664   3.732
 7256SOL    HW222668   4.279   4.579   3.806
 7257SOL     OW22669   6.079   2.872   3.383
 7257SOL    HW122670   6.154   2.828   3.431
 7257SOL    HW222671   6.100   2.969   3.369
 7258SOL     OW22672   3.458   6.939   4.589
 7258SOL    HW122673   3.436   0.007   4.568
 7258SOL    HW222674   3.550   6.919   4.557
 7259SOL     OW22675   2.357   4.589   6.656
 7259SOL    HW122676   2.453   4.561   6.669
 7259SOL    HW222677   2.349   4.687   6.677
 7260SOL     OW22678   3.424   2.075   2.579
 7260SOL    HW122679   3.516   2.107   2.559
 7260SOL    HW222680   3.420   1.976   2.570
 7261SOL     OW22681   1.815   3.746   1.719
 7261SOL    HW122682   1.775   3.766   1.809
 7261SOL    HW222683   1.877   3.667   1.728
 7262SOL     OW22684   6.030   1.406   4.724
 7262SOL    HW122685   6.127   1.430   4.721
 7262SOL    HW222686   5.976   1.478   4.680
 7263SOL     OW22687   2.564   5.852   2.185
 7263SOL    HW122688   2.517   5.923   2.132
 7263SOL    HW222689   2.656   5.839   2.148
 7264SOL     OW22690   0.611   0.116   5.591
 7264SOL    HW122691   0.699   0.114   5.638
 7264SOL    HW222692   0.603   0.036   5.531
 7265SOL     OW22693   4.349   4.925   5.770
 7265SOL    HW122694   4.296   4.880   5.698
 7265SOL    HW222695   4.446   4.901   5.760
 7266SOL     OW22696   5.039   0.773   1.859
 7266SOL    HW122697   5.065   0.833   1.784
 7266SOL    HW222698   5.054   0.819   1.947
 7267SOL     OW22699   0.019   4.146   3.901
 7267SOL    HW122700   7.000   4.166   3.987
 7267SOL    HW222701   0.096   4.084   3.917
 7268SOL     OW22702   3.226   6.977   1.437
 7268SOL    HW122703   3.216   6.877   1.432
 7268SOL    HW222704   3.215   7.006   1.532
 7269SOL     OW22705   1.551   6.055   2.407
 7269SOL    HW122706   1.465   6.006   2.392
 7269SOL    HW222707   1.552   6.138   2.352
 7270SOL     OW22708   3.162   1.331   2.628
 7270SOL    HW122709   3.171   1.240   2.587
 7270SOL    HW222710   3.197   1.400   2.565
 7271SOL     OW22711   6.692   3.486   3.237
 7271SOL    HW122712   6.658   3.444   3.153
 7271SOL    HW222713   6.782   3.528   3.219
 7272SOL     OW22714   6.165   2.362   2.179
 7272SOL    HW122715   6.200   2.455   2.192
 7272SOL    HW222716   6.142   2.322   2.268
 7273SOL     OW22717   5.206   4.514   0.308
 7273SOL    HW122718   5.249   4.491   0.395
 7273SOL    HW222719   5.107   4.515   0.318
 7274SOL     OW22720   6.352   4.963   5.513
 7274SOL    HW122721   6.387   4.932   5.602
 7274SOL    HW222722   6.332   4.883   5.456
 7275SOL     OW22723   6.903   6.822   0.379
 7275SOL    HW122724   6.925   6.796   0.473
 7275SOL    HW222725   6.838   6.757   0.341
 7276SOL     OW22726   2.630   2.511   4.049
 7276SOL    HW122727   2.612   2.605   4.022
 7276SOL    HW222728   2.653   2.507   4.146
 7277SOL     OW22729   5.028   2.137   4.842
 7277SOL    HW122730   4.939   2.169   4.811
 7277SOL    HW222731   5.098   2.159   4.774
 7278SOL     OW22732   2.865   1.241   2.604
 7278SOL    HW122733   2.959   1.274   2.614
 7278SOL    HW222734   2.857   1.189   2.519
 7279SOL     OW22735   5.609   4.922   1.258
 7279SOL    HW122736   5.699   4.966   1.257
 7279SOL    HW222737   5.612   4.841   1.316
 7280SOL     OW22738   6.247   2.567   5.429
 7280SOL    HW122739   6.160   2.557   5.382
 7280SOL    HW222740   6.322   2.544   5.366
 7281SOL     OW22741   3.867   6.056   2.368
 7281SOL    HW122742   3.908   5.979   2.417
 7281SOL    HW222743   3.879   6.044   2.270
 7282SOL     OW22744   6.655   4.758   2.680
 7282SOL    HW122745   6.685   4.664   2.698
 7282SOL    HW222746   6.611   4.762   2.590
 7283SOL     OW22747   4.247   4.807   3.059
 7283SOL    HW122748   4.149   4.800   3.080
 7283SOL    HW222749   4.262   4.777   2.965
 7284SOL     OW22750   6.776   1.564   3.142
 7284SOL    HW122751   6.741   1.631   3.206
 7284SOL    HW222752   6.876   1.574   3.134
 7285SOL     OW22753   4.913   2.956   1.830
 7285SOL    HW122754   4.819   2.964   1.862
 7285SOL    HW222755   4.974   3.002   1.895
 7286SOL     OW22756   0.611   1.579   1.810
 7286SOL    HW122757   0.522   1.577   1.855
 7286SOL    HW222758   0.602   1.548   1.716
 7287SOL     OW22759   1.632   2.579   3.986
 7287SOL    HW122760   1.675   2.522   4.057
 7287SOL    HW222761   1.667   2.553   3.896
 7288SOL     OW22762   2.651   2.328   2.931
 7288SOL    HW122763   2.590   2.327   3.010
 7288SOL    HW222764   2.706   2.245   2.930
 7289SOL     OW22765   5.785   1.963   1.115
 7289SOL    HW122766   5.694   1.943   1.079
 7289SOL    HW222767   5.847   1.986   1.039
 7290SOL     OW22768   3.416   1.346   5.491
 7290SOL    HW122769   3.439   1.441   5.468
 7290SOL    HW222770   3.392   1.296   5.408
 7291SOL     OW22771   4.207   0.908   0.538
 7291SOL    HW122772   4.111   0.898   0.565
 7291SOL    HW222773   4.227   1.005   0.522
 7292SOL     OW22774   2.554   0.496   2.387
 7292SOL    HW122775   2.615   0.545   2.324
 7292SOL    HW222776   2.552   0.399   2.363
 7293SOL     OW22777   1.128   0.400   4.993
 7293SOL    HW122778   1.174   0.421   4.907
 7293SOL    HW222779   1.034   0.433   4.990
 7294SOL     OW22780   2.460   6.125   2.695
 7294SOL    HW122781   2.418   6.210   2.664
 7294SOL    HW222782   2.520   6.089   2.624
 7295SOL     OW22783   5.960   5.702   2.271
 7295SOL    HW122784   5.906   5.619   2.284
 7295SOL    HW222785   5.956   5.758   2.354
 7296SOL     OW22786   4.859   4.657   2.270
 7296SOL    HW122787   4.919   4.728   2.233
 7296SOL    HW222788   4.905   4.569   2.264
 7297SOL     OW22789   4.151   6.426   1.505
 7297SOL    HW122790   4.243   6.446   1.469
 7297SOL    HW222791   4.113   6.508   1.545
 7298SOL     OW22792   4.433   5.489   0.177
 7298SOL    HW122793   4.397   5.493   0.084
 7298SOL    HW222794   4.414   5.400   0.217
 7299SOL     OW22795   1.328   2.712   6.608
 7299SOL    HW122796   1.254   2.703   6.541
 7299SOL    HW222797   1.356   2.808   6.614
 7300SOL     OW22798   0.510   5.240   2.222
 7300SOL    HW122799   0.524   5.246   2.123
 7300SOL    HW222800   0.567   5.308   2.268
 7301SOL     OW22801   5.108   0.790   5.559
 7301SOL    HW122802   5.176   0.833   5.617
 7301SOL    HW222803   5.074   0.857   5.492
 7302SOL     OW22804   4.960   1.285   5.724
 7302SOL    HW122805   4.912   1.334   5.797
 7302SOL    HW222806   4.897   1.218   5.683
 7303SOL     OW22807   1.739   1.584   1.628
 7303SOL    HW122808   1.827   1.556   1.668
 7303SOL    HW222809   1.755   1.621   1.536
 7304SOL     OW22810   2.759   5.640   1.827
 7304SOL    HW122811   2.775   5.721   1.883
 7304SOL    HW222812   2.765   5.558   1.885
 7305SOL     OW22813   6.548   1.659   0.401
 7305SOL    HW122814   6.639   1.696   0.419
 7305SOL    HW222815   6.549   1.560   0.416
 7306SOL     OW22816   1.829   2.397   1.991
 7306SOL    HW122817   1.744   2.432   2.030
 7306SOL    HW222818   1.850   2.447   1.907
 7307SOL     OW22819   2.202   0.299   1.604
 7307SOL    HW122820   2.108   0.266   1.612
 7307SOL    HW222821   2.235   0.283   1.511
 7308SOL     OW22822   4.960   0.868   3.188
 7308SOL    HW122823   5.020   0.847   3.265
 7308SOL    HW222824   4.936   0.965   3.190
 7309SOL     OW22825   2.014   5.344   3.443
 7309SOL    HW122826   1.955   5.313   3.517
 7309SOL    HW222827   2.052   5.434   3.465
 7310SOL     OW22828   2.662   2.327   6.269
 7310SOL    HW122829   2.574   2.347   6.312
 7310SOL    HW222830   2.701   2.244   6.310
 7311SOL     OW22831   7.014   6.530   6.892
 7311SOL    HW122832   7.007   6.593   6.815
 7311SOL    HW222833   6.959   6.449   6.874
 7312SOL     OW22834   6.799   2.179   3.886
 7312SOL    HW122835   6.821   2.204   3.981
 7312SOL    HW222836   6.712   2.220   3.860
 7313SOL     OW22837   3.022   0.501   2.302
 7313SOL    HW122838   3.075   0.421   2.330
 7313SOL    HW222839   3.054   0.582   2.352
 7314SOL     OW22840   0.796   3.974   6.726
 7314SOL    HW122841   0.891   3.974   6.694
 7314SOL    HW222842   0.741   4.032   6.667
 7315SOL     OW22843   1.479   4.174   2.467
 7315SOL    HW122844   1.568   4.217   2.482
 7315SOL    HW222845   1.419   4.238   2.420
 7316SOL     OW22846   3.241   1.945   0.885
 7316SOL    HW122847   3.196   1.864   0.847
 7316SOL    HW222848   3.212   2.026   0.834
 7317SOL     OW22849   3.942   1.256   0.958
 7317SOL    HW122850   3.955   1.289   0.864
 7317SOL    HW222851   3.983   1.320   1.022
 7318SOL     OW22852   4.106   6.306   0.195
 7318SOL    HW122853   4.198   6.332   0.164
 7318SOL    HW222854   4.107   6.209   0.222
 7319SOL     OW22855   5.712   4.701   6.854
 7319SOL    HW122856   5.690   4.775   6.918
 7319SOL    HW222857   5.642   4.630   6.860
 7320SOL     OW22858   0.032   2.626   1.611
 7320SOL    HW122859   0.046   2.540   1.563
 7320SOL    HW222860   0.075   2.701   1.560
 7321SOL     OW22861   1.755   0.342   6.830
 7321SOL    HW122862   1.796   0.377   6.915
 7321SOL    HW222863   1.673   0.289   6.853
 7322SOL     OW22864   0.657   2.798   2.760
 7322SOL    HW122865   0.598   2.723   2.789
 7322SOL    HW222866   0.650   2.873   2.825
 7323SOL     OW22867   1.222   2.691   1.446
 7323SOL    HW122868   1.134   2.702   1.400
 7323SOL    HW222869   1.286   2.761   1.414
 7324SOL     OW22870   5.592   4.771   2.929
 7324SOL    HW122871   5.515   4.713   2.954
 7324SOL    HW222872   5.562   4.866   2.923
 7325SOL     OW22873   4.350   1.278   5.913
 7325SOL    HW122874   4.367   1.376   5.903
 7325SOL    HW222875   4.269   1.252   5.860
 7326SOL     OW22876   3.518   6.935   0.372
 7326SOL    HW122877   3.461   7.007   0.333
 7326SOL    HW222878   3.607   6.973   0.396
 7327SOL     OW22879   0.751   3.710   3.625
 7327SOL    HW122880   0.755   3.625   3.677
 7327SOL    HW222881   0.843   3.749   3.618
 7328SOL     OW22882   4.320   4.723   4.733
 7328SOL    HW122883   4.223   4.740   4.720
 7328SOL    HW222884   4.334   4.661   4.810
 7329SOL     OW22885   3.231   3.293   1.259
 7329SOL    HW122886   3.313   3.236   1.263
 7329SOL    HW222887   3.152   3.236   1.239
 7330SOL     OW22888   2.856   2.956   1.718
 7330SOL    HW122889   2.887   3.019   1.790
 7330SOL    HW222890   2.908   2.974   1.634
 7331SOL     OW22891   5.090   0.808   2.941
 7331SOL    HW122892   5.015   0.777   2.883
 7331SOL    HW222893   5.062   0.807   3.037
 7332SOL     OW22894   3.373   5.399   5.887
 7332SOL    HW122895   3.318   5.412   5.969
 7332SOL    HW222896   3.429   5.317   5.898
 7333SOL     OW22897   0.212   2.051   1.040
 7333SOL    HW122898   0.197   1.953   1.038
 7333SOL    HW222899   0.272   2.077   0.964
 7334SOL     OW22900   2.559   7.003   4.427
 7334SOL    HW122901   2.544   0.027   4.512
 7334SOL    HW222902   2.495   6.926   4.423
 7335SOL     OW22903   6.509   3.223   1.942
 7335SOL    HW122904   6.442   3.239   2.015
 7335SOL    HW222905   6.587   3.173   1.980
 7336SOL     OW22906   1.830   6.735   2.291
 7336SOL    HW122907   1.775   6.808   2.252
 7336SOL    HW222908   1.778   6.687   2.362
 7337SOL     OW22909   2.050   2.069   3.582
 7337SOL    HW122910   2.010   2.085   3.492
 7337SOL    HW222911   1.987   2.017   3.639
 7338SOL     OW22912   5.745   2.947   1.423
 7338SOL    HW122913   5.749   2.911   1.516
 7338SOL    HW222914   5.823   3.007   1.407
 7339SOL     OW22915   6.198   4.973   4.488
 7339SOL    HW122916   6.098   4.977   4.487
 7339SOL    HW222917   6.235   5.056   4.529
 7340SOL     OW22918   2.370   0.238   0.669
 7340SOL    HW122919   2.427   0.171   0.717
 7340SOL    HW222920   2.404   0.330   0.688
 7341SOL     OW22921   5.917   4.963   4.492
 7341SOL    HW122922   5.925   4.989   4.396
 7341SOL    HW222923   5.909   4.863   4.499
 7342SOL     OW22924   0.404   5.970   0.435
 7342SOL    HW122925   0.378   6.050   0.382
 7342SOL    HW222926   0.354   5.890   0.402
 7343SOL     OW22927   5.580   3.622   2.300
 7343SOL    HW122928   5.675   3.628   2.268
 7343SOL    HW222929   5.568   3.536   2.350
 7344SOL     OW22930   1.452   0.023   0.142
 7344SOL    HW122931   1.443   0.120   0.117
 7344SOL    HW222932   1.363   7.005   0.131
 7345SOL     OW22933   3.854   5.619   6.923
 7345SOL    HW122934   3.794   5.698   6.924
 7345SOL    HW222935   3.916   5.622   7.002
 7346SOL     OW22936   3.904   4.702   1.725
 7346SOL    HW122937   3.985   4.659   1.685
 7346SOL    HW222938   3.933   4.765   1.797
 7347SOL     OW22939   6.196   1.576   3.398
 7347SOL    HW122940   6.096   1.570   3.394
 7347SOL    HW222941   6.230   1.523   3.475
 7348SOL     OW22942   1.437   1.690   3.211
 7348SOL    HW122943   1.358   1.739   3.175
 7348SOL    HW222944   1.504   1.676   3.138
 7349SOL     OW22945   3.226   1.134   0.674
 7349SOL    HW122946   3.285   1.081   0.735
 7349SOL    HW222947   3.222   1.089   0.585
 7350SOL     OW22948   2.379   1.696   3.050
 7350SOL    HW122949   2.330   1.632   2.991
 7350SOL    HW222950   2.477   1.687   3.033
 7351SOL     OW22951   4.169   4.269   6.589
 7351SOL    HW122952   4.091   4.269   6.527
 7351SOL    HW222953   4.145   4.318   6.673
 7352SOL     OW22954   0.519   1.343   2.292
 7352SOL    HW122955   0.485   1.281   2.221
 7352SOL    HW222956   0.454   1.345   2.368
 7353SOL     OW22957   5.178   2.444   5.347
 7353SOL    HW122958   5.272   2.478   5.338
 7353SOL    HW222959   5.170   2.356   5.300
 7354SOL     OW22960   5.715   4.522   5.885
 7354SOL    HW122961   5.781   4.520   5.810
 7354SOL    HW222962   5.740   4.454   5.954
 7355SOL     OW22963   1.894   5.457   2.132
 7355SOL    HW122964   1.951   5.539   2.134
 7355SOL    HW222965   1.945   5.380   2.172
 7356SOL     OW22966   5.921   1.518   5.737
 7356SOL    HW122967   6.005   1.572   5.741
 7356SOL    HW222968   5.866   1.546   5.658
 7357SOL     OW22969   6.432   1.661   0.140
 7357SOL    HW122970   6.490   1.637   0.062
 7357SOL    HW222971   6.487   1.668   0.222
 7358SOL     OW22972   3.298   1.030   3.715
 7358SOL    HW122973   3.308   0.931   3.704
 7358SOL    HW222974   3.207   1.051   3.749
 7359SOL     OW22975   3.966   3.088   3.654
 7359SOL    HW122976   4.011   3.068   3.567
 7359SOL    HW222977   3.869   3.064   3.648
 7360SOL     OW22978   0.563   3.104   5.216
 7360SOL    HW122979   0.583   3.197   5.184
 7360SOL    HW222980   0.637   3.044   5.186
 7361SOL     OW22981   5.149   6.077   2.320
 7361SOL    HW122982   5.155   6.012   2.396
 7361SOL    HW222983   5.095   6.156   2.349
 7362SOL     OW22984   1.994   6.038   6.310
 7362SOL    HW122985   2.010   6.106   6.238
 7362SOL    HW222986   2.018   5.947   6.275
 7363SOL     OW22987   4.799   3.110   6.272
 7363SOL    HW122988   4.739   3.077   6.200
 7363SOL    HW222989   4.749   3.174   6.330
 7364SOL     OW22990   4.257   6.761   1.477
 7364SOL    HW122991   4.188   6.806   1.421
 7364SOL    HW222992   4.244   6.787   1.573
 7365SOL     OW22993   3.521   0.152   2.641
 7365SOL    HW122994   3.435   0.108   2.614
 7365SOL    HW222995   3.503   0.218   2.714
 7366SOL     OW22996   0.969   5.527   6.953
 7366SOL    HW122997   0.945   5.431   6.964
 7366SOL    HW222998   0.910   5.568   6.883
 7367SOL     OW22999   4.760   3.799   1.000
 7367SOL    HW123000   4.822   3.796   0.922
 7367SOL    HW223001   4.725   3.892   1.012
 7368SOL     OW23002   3.206   3.809   4.685
 7368SOL    HW123003   3.144   3.882   4.655
 7368SOL    HW223004   3.162   3.756   4.757
 7369SOL     OW23005   4.463   3.564   0.190
 7369SOL    HW123006   4.486   3.469   0.171
 7369SOL    HW223007   4.545   3.620   0.189
 7370SOL     OW23008   2.193   6.876   0.813
 7370SOL    HW123009   2.282   6.837   0.840
 7370SOL    HW223010   2.156   6.929   0.890
 7371SOL     OW23011   2.447   5.096   5.034
 7371SOL    HW123012   2.379   5.092   5.107
 7371SOL    HW223013   2.442   5.013   4.979
 7372SOL     OW23014   3.692   0.257   5.711
 7372SOL    HW123015   3.780   0.275   5.754
 7372SOL    HW223016   3.695   0.286   5.615
 7373SOL     OW23017   3.906   0.745   1.897
 7373SOL    HW123018   3.871   0.765   1.806
 7373SOL    HW223019   3.848   0.789   1.966
 7374SOL     OW23020   1.875   2.878   6.386
 7374SOL    HW123021   1.887   2.905   6.290
 7374SOL    HW223022   1.861   2.959   6.442
 7375SOL     OW23023   1.551   0.580   3.961
 7375SOL    HW123024   1.636   0.624   3.988
 7375SOL    HW223025   1.533   0.502   4.022
 7376SOL     OW23026   2.127   3.682   6.781
 7376SOL    HW123027   2.195   3.647   6.716
 7376SOL    HW223028   2.164   3.763   6.826
 7377SOL     OW23029   4.500   4.304   1.286
 7377SOL    HW123030   4.450   4.386   1.314
 7377SOL    HW223031   4.568   4.327   1.217
 7378SOL     OW23032   6.780   1.146   4.960
 7378SOL    HW123033   6.791   1.194   4.873
 7378SOL    HW223034   6.863   1.159   5.016
 7379SOL     OW23035   3.760   1.386   1.884
 7379SOL    HW123036   3.661   1.374   1.888
 7379SOL    HW223037   3.781   1.464   1.825
 7380SOL     OW23038   0.329   3.499   6.375
 7380SOL    HW123039   0.326   3.566   6.301
 7380SOL    HW223040   0.424   3.475   6.395
 7381SOL     OW23041   5.119   1.914   1.401
 7381SOL    HW123042   5.035   1.956   1.367
 7381SOL    HW223043   5.169   1.979   1.457
 7382SOL     OW23044   0.061   5.805   4.325
 7382SOL    HW123045   7.009   5.791   4.384
 7382SOL    HW223046   0.117   5.880   4.360
 7383SOL     OW23047   6.779   6.168   3.088
 7383SOL    HW123048   6.785   6.236   3.015
 7383SOL    HW223049   6.868   6.160   3.134
 7384SOL     OW23050   5.359   0.078   2.400
 7384SOL    HW123051   5.434   0.125   2.447
 7384SOL    HW223052   5.276   0.133   2.406
 7385SOL     OW23053   4.885   6.152   1.502
 7385SOL    HW123054   4.931   6.238   1.523
 7385SOL    HW223055   4.954   6.080   1.493
 7386SOL     OW23056   0.977   2.397   5.172
 7386SOL    HW123057   1.023   2.481   5.141
 7386SOL    HW223058   0.990   2.325   5.103
 7387SOL     OW23059   4.222   6.044   3.460
 7387SOL    HW123060   4.152   6.072   3.395
 7387SOL    HW223061   4.178   6.013   3.545
 7388SOL     OW23062   6.301   4.870   3.578
 7388SOL    HW123063   6.229   4.939   3.572
 7388SOL    HW223064   6.281   4.807   3.653
 7389SOL     OW23065   1.629   4.137   6.191
 7389SOL    HW123066   1.598   4.125   6.097
 7389SOL    HW223067   1.609   4.230   6.221
 7390SOL     OW23068   1.347   0.140   5.350
 7390SOL    HW123069   1.292   0.186   5.280
 7390SOL    HW223070   1.438   0.181   5.354
 7391SOL     OW23071   5.828   3.055   6.711
 7391SOL    HW123072   5.853   3.112   6.789
 7391SOL    HW223073   5.910   3.017   6.670
 7392SOL     OW23074   1.407   4.529   4.249
 7392SOL    HW123075   1.423   4.476   4.166
 7392SOL    HW223076   1.380   4.468   4.323
 7393SOL     OW23077   0.213   3.907   2.689
 7393SOL    HW123078   0.301   3.873   2.720
 7393SOL    HW223079   0.226   3.994   2.641
 7394SOL     OW23080   3.844   3.723   6.596
 7394SOL    HW123081   3.935   3.755   6.623
 7394SOL    HW223082   3.791   3.700   6.678
 7395SOL     OW23083   0.769   0.354   0.672
 7395SOL    HW123084   0.743   0.278   0.613
 7395SOL    HW223085   0.743   0.440   0.628
 7396SOL     OW23086   0.827   0.159   6.332
 7396SOL    HW123087   0.905   0.098   6.347
 7396SOL    HW223088   0.829   0.193   6.238
 7397SOL     OW23089   5.796   5.033   4.986
 7397SOL    HW123090   5.814   5.104   4.918
 7397SOL    HW223091   5.880   5.015   5.038
 7398SOL     OW23092   4.444   4.561   3.667
 7398SOL    HW123093   4.477   4.642   3.717
 7398SOL    HW223094   4.521   4.518   3.620
 7399SOL     OW23095   4.780   4.004   5.936
 7399SOL    HW123096   4.807   3.997   5.840
 7399SOL    HW223097   4.789   3.914   5.979
 7400SOL     OW23098   2.873   5.720   6.715
 7400SOL    HW123099   2.815   5.681   6.786
 7400SOL    HW223100   2.827   5.798   6.673
 7401SOL     OW23101   0.038   2.109   3.631
 7401SOL    HW123102   0.076   2.154   3.712
 7401SOL    HW223103   6.967   2.094   3.644
 7402SOL     OW23104   2.706   0.640   3.708
 7402SOL    HW123105   2.722   0.572   3.637
 7402SOL    HW223106   2.748   0.727   3.682
 7403SOL     OW23107   1.916   3.848   2.971
 7403SOL    HW123108   2.015   3.833   2.967
 7403SOL    HW223109   1.871   3.793   2.901
 7404SOL     OW23110   1.310   0.038   1.815
 7404SOL    HW123111   1.233   0.098   1.838
 7404SOL    HW223112   1.361   0.076   1.739
 7405SOL     OW23113   3.022   5.015   5.947
 7405SOL    HW123114   2.962   4.983   6.019
 7405SOL    HW223115   3.112   4.972   5.956
 7406SOL     OW23116   0.702   4.641   1.647
 7406SOL    HW123117   0.765   4.640   1.570
 7406SOL    HW223118   0.635   4.715   1.636
 7407SOL     OW23119   1.421   6.410   6.392
 7407SOL    HW123120   1.370   6.490   6.422
 7407SOL    HW223121   1.451   6.358   6.472
 7408SOL     OW23122   1.818   4.689   5.698
 7408SOL    HW123123   1.723   4.715   5.681
 7408SOL    HW223124   1.867   4.685   5.611
 7409SOL     OW23125   2.146   5.626   5.192
 7409SOL    HW123126   2.138   5.708   5.247
 7409SOL    HW223127   2.197   5.556   5.242
 7410SOL     OW23128   6.753   4.986   1.129
 7410SOL    HW123129   6.685   4.959   1.060
 7410SOL    HW223130   6.729   5.076   1.165
 7411SOL     OW23131   3.762   6.016   5.100
 7411SOL    HW123132   3.724   6.051   5.014
 7411SOL    HW223133   3.817   6.088   5.144
 7412SOL     OW23134   0.972   1.770   0.287
 7412SOL    HW123135   0.896   1.836   0.283
 7412SOL    HW223136   1.028   1.780   0.205
 7413SOL     OW23137   6.211   4.188   4.850
 7413SOL    HW123138   6.181   4.098   4.883
 7413SOL    HW223139   6.244   4.179   4.756
 7414SOL     OW23140   6.785   0.087   2.387
 7414SOL    HW123141   6.727   0.098   2.306
 7414SOL    HW223142   6.778   0.169   2.444
 7415SOL     OW23143   1.994   2.764   3.621
 7415SOL    HW123144   2.029   2.724   3.706
 7415SOL    HW223145   1.894   2.756   3.619
 7416SOL     OW23146   3.630   0.722   3.999
 7416SOL    HW123147   3.705   0.750   4.058
 7416SOL    HW223148   3.557   0.790   4.002
 7417SOL     OW23149   1.281   6.391   6.939
 7417SOL    HW123150   1.379   6.399   6.956
 7417SOL    HW223151   1.266   6.359   6.845
 7418SOL     OW23152   1.734   3.475   0.844
 7418SOL    HW123153   1.643   3.441   0.820
 7418SOL    HW223154   1.801   3.403   0.826
 7419SOL     OW23155   6.434   0.886   4.885
 7419SOL    HW123156   6.490   0.826   4.941
 7419SOL    HW223157   6.342   0.892   4.924
 7420SOL     OW23158   6.914   6.159   1.852
 7420SOL    HW123159   6.949   6.087   1.912
 7420SOL    HW223160   6.819   6.138   1.829
 7421SOL     OW23161   4.007   3.609   1.331
 7421SOL    HW123162   4.094   3.657   1.338
 7421SOL    HW223163   3.992   3.555   1.414
 7422SOL     OW23164   0.362   3.227   0.436
 7422SOL    HW123165   0.373   3.148   0.496
 7422SOL    HW223166   0.436   3.292   0.454
 7423SOL     OW23167   1.641   5.293   6.713
 7423SOL    HW123168   1.697   5.363   6.669
 7423SOL    HW223169   1.693   5.252   6.788
 7424SOL     OW23170   5.347   0.907   4.424
 7424SOL    HW123171   5.298   0.821   4.419
 7424SOL    HW223172   5.429   0.895   4.480
 7425SOL     OW23173   3.704   5.474   5.712
 7425SOL    HW123174   3.706   5.514   5.804
 7425SOL    HW223175   3.609   5.465   5.682
 7426SOL     OW23176   1.038   1.091   6.578
 7426SOL    HW123177   1.001   1.178   6.609
 7426SOL    HW223178   0.987   1.015   6.620
 7427SOL     OW23179   4.238   5.099   4.861
 7427SOL    HW123180   4.178   5.145   4.926
 7427SOL    HW223181   4.214   5.125   4.768
 7428SOL     OW23182   3.586   2.319   6.419
 7428SOL    HW123183   3.637   2.309   6.334
 7428SOL    HW223184   3.596   2.236   6.474
 7429SOL     OW23185   0.315   0.412   2.832
 7429SOL    HW123186   0.256   0.470   2.888
 7429SOL    HW223187   0.321   0.321   2.872
 7430SOL     OW23188   6.197   4.059   5.240
 7430SOL    HW123189   6.102   4.031   5.249
 7430SOL    HW223190   6.249   3.986   5.196
 7431SOL     OW23191   0.922   4.317   2.160
 7431SOL    HW123192   0.984   4.396   2.168
 7431SOL    HW223193   0.831   4.343   2.192
 7432SOL     OW23194   0.549   6.406   5.245
 7432SOL    HW123195   0.612   6.442   5.313
 7432SOL    HW223196   0.582   6.317   5.213
 7433SOL     OW23197   6.264   5.263   0.568
 7433SOL    HW123198   6.212   5.199   0.624
 7433SOL    HW223199   6.331   5.214   0.512
 7434SOL     OW23200   3.743   1.179   6.059
 7434SOL    HW123201   3.768   1.258   6.115
 7434SOL    HW223202   3.826   1.130   6.033
 7435SOL     OW23203   2.714   6.444   0.359
 7435SOL    HW123204   2.769   6.467   0.440
 7435SOL    HW223205   2.626   6.406   0.389
 7436SOL     OW23206   4.965   2.811   0.298
 7436SOL    HW123207   4.978   2.847   0.390
 7436SOL    HW223208   4.897   2.867   0.250
 7437SOL     OW23209   0.967   6.066   5.908
 7437SOL    HW123210   0.944   6.162   5.892
 7437SOL    HW223211   1.047   6.060   5.967
 7438SOL     OW23212   6.623   4.822   1.738
 7438SOL    HW123213   6.609   4.723   1.727
 7438SOL    HW223214   6.626   4.844   1.836
 7439SOL     OW23215   2.293   0.250   3.690
 7439SOL    HW123216   2.318   0.168   3.638
 7439SOL    HW223217   2.196   0.247   3.711
 7440SOL     OW23218   1.349   2.658   4.224
 7440SOL    HW123219   1.310   2.566   4.234
 7440SOL    HW223220   1.445   2.657   4.252
 7441SOL     OW23221   5.682   1.144   4.176
 7441SOL    HW123222   5.738   1.114   4.099
 7441SOL    HW223223   5.719   1.107   4.261
 7442SOL     OW23224   1.193   0.834   6.486
 7442SOL    HW123225   1.124   0.870   6.422
 7442SOL    HW223226   1.152   0.823   6.576
 7443SOL     OW23227   0.370   1.254   6.623
 7443SOL    HW123228   0.380   1.242   6.722
 7443SOL    HW223229   0.424   1.334   6.594
 7444SOL     OW23230   0.790   3.110   6.461
 7444SOL    HW123231   0.773   3.012   6.452
 7444SOL    HW223232   0.888   3.125   6.479
 7445SOL     OW23233   5.456   1.708   1.840
 7445SOL    HW123234   5.396   1.745   1.911
 7445SOL    HW223235   5.418   1.623   1.805
 7446SOL     OW23236   6.309   3.939   0.862
 7446SOL    HW123237   6.318   3.952   0.763
 7446SOL    HW223238   6.376   3.872   0.893
 7447SOL     OW23239   1.333   4.009   6.187
 7447SOL    HW123240   1.302   4.058   6.269
 7447SOL    HW223241   1.433   4.006   6.186
 7448SOL     OW23242   6.586   0.208   5.831
 7448SOL    HW123243   6.597   0.112   5.855
 7448SOL    HW223244   6.606   0.265   5.910
 7449SOL     OW23245   5.610   1.973   2.142
 7449SOL    HW123246   5.638   1.904   2.076
 7449SOL    HW223247   5.679   1.980   2.214
 7450SOL     OW23248   4.643   2.016   2.916
 7450SOL    HW123249   4.705   1.938   2.917
 7450SOL    HW223250   4.677   2.087   2.979
 7451SOL     OW23251   2.342   0.772   4.345
 7451SOL    HW123252   2.377   0.678   4.337
 7451SOL    HW223253   2.322   0.807   4.254
 7452SOL     OW23254   1.841   6.416   4.937
 7452SOL    HW123255   1.890   6.329   4.942
 7452SOL    HW223256   1.776   6.422   5.013
 7453SOL     OW23257   5.389   6.478   4.370
 7453SOL    HW123258   5.435   6.530   4.443
 7453SOL    HW223259   5.346   6.397   4.409
 7454SOL     OW23260   0.930   3.630   1.331
 7454SOL    HW123261   0.891   3.543   1.361
 7454SOL    HW223262   0.859   3.684   1.285
 7455SOL     OW23263   4.729   2.709   0.485
 7455SOL    HW123264   4.715   2.775   0.559
 7455SOL    HW223265   4.793   2.747   0.419
 7456SOL     OW23266   1.726   3.547   4.905
 7456SOL    HW123267   1.717   3.644   4.929
 7456SOL    HW223268   1.711   3.491   4.986
 7457SOL     OW23269   6.318   0.838   5.357
 7457SOL    HW123270   6.368   0.752   5.347
 7457SOL    HW223271   6.266   0.836   5.443
 7458SOL     OW23272   2.542   0.904   0.766
 7458SOL    HW123273   2.618   0.840   0.756
 7458SOL    HW223274   2.480   0.872   0.837
 7459SOL     OW23275   4.438   0.546   4.780
 7459SOL    HW123276   4.395   0.584   4.698
 7459SOL    HW223277   4.372   0.489   4.829
 7460SOL     OW23278   0.718   4.503   0.550
 7460SOL    HW123279   0.737   4.479   0.645
 7460SOL    HW223280   0.722   4.420   0.494
 7461SOL     OW23281   5.268   1.106   4.591
 7461SOL    HW123282   5.309   1.045   4.523
 7461SOL    HW223283   5.210   1.174   4.545
 7462SOL     OW23284   1.993   2.058   2.364
 7462SOL    HW123285   2.091   2.043   2.351
 7462SOL    HW223286   1.967   2.029   2.456
 7463SOL     OW23287   4.099   3.726   2.283
 7463SOL    HW123288   4.194   3.756   2.298
 7463SOL    HW223289   4.099   3.630   2.256
 7464SOL     OW23290   4.993   6.040   0.554
 7464SOL    HW123291   5.048   6.023   0.636
 7464SOL    HW223292   4.911   5.983   0.558
 7465SOL     OW23293   3.074   0.222   1.827
 7465SOL    HW123294   2.994   0.178   1.787
 7465SOL    HW223295   3.056   0.245   1.922
 7466SOL     OW23296   0.335   0.529   0.007
 7466SOL    HW123297   0.417   0.568   0.047
 7466SOL    HW223298   0.360   0.462   6.965
 7467SOL     OW23299   0.164   1.780   1.004
 7467SOL    HW123300   0.199   1.730   0.925
 7467SOL    HW223301   0.083   1.734   1.040
 7468SOL     OW23302   6.128   1.436   2.620
 7468SOL    HW123303   6.096   1.481   2.536
 7468SOL    HW223304   6.209   1.483   2.654
 7469SOL     OW23305   1.043   0.658   0.874
 7469SOL    HW123306   1.060   0.565   0.906
 7469SOL    HW223307   0.953   0.688   0.905
 7470SOL     OW23308   0.036   2.184   2.384
 7470SOL    HW123309   0.104   2.252   2.413
 7470SOL    HW223310   0.069   2.092   2.408
 7471SOL     OW23311   6.181   6.651   5.787
 7471SOL    HW123312   6.212   6.596   5.865
 7471SOL    HW223313   6.084   6.674   5.800
 7472SOL     OW23314   3.550   0.311   3.726
 7472SOL    HW123315   3.491   0.231   3.722
 7472SOL    HW223316   3.546   0.351   3.818
 7473SOL     OW23317   6.815   3.651   4.171
 7473SOL    HW123318   6.903   3.639   4.217
 7473SOL    HW223319   6.769   3.732   4.208
 7474SOL     OW23320   3.790   0.948   3.293
 7474SOL    HW123321   3.741   1.033   3.273
 7474SOL    HW223322   3.748   0.873   3.243
 7475SOL     OW23323   3.745   1.118   1.108
 7475SOL    HW123324   3.736   1.170   1.194
 7475SOL    HW223325   3.806   1.168   1.046
 7476SOL     OW23326   3.541   6.593   4.351
 7476SOL    HW123327   3.589   6.651   4.285
 7476SOL    HW223328   3.551   6.497   4.324
 7477SOL     OW23329   4.072   1.476   3.944
 7477SOL    HW123330   3.984   1.448   3.904
 7477SOL    HW223331   4.089   1.423   4.027
 7478SOL     OW23332   2.052   4.495   0.532
 7478SOL    HW123333   1.989   4.535   0.598
 7478SOL    HW223334   2.001   4.449   0.460
 7479SOL     OW23335   4.602   0.808   6.448
 7479SOL    HW123336   4.545   0.785   6.527
 7479SOL    HW223337   4.698   0.789   6.471
 7480SOL     OW23338   6.592   5.612   1.238
 7480SOL    HW123339   6.583   5.544   1.165
 7480SOL    HW223340   6.619   5.700   1.199
 7481SOL     OW23341   5.696   5.114   0.787
 7481SOL    HW123342   5.695   5.198   0.841
 7481SOL    HW223343   5.771   5.118   0.720
 7482SOL     OW23344   4.871   0.671   2.818
 7482SOL    HW123345   4.791   0.715   2.859
 7482SOL    HW223346   4.842   0.593   2.762
 7483SOL     OW23347   3.488   0.881   4.972
 7483SOL    HW123348   3.559   0.917   5.033
 7483SOL    HW223349   3.468   0.949   4.901
 7484SOL     OW23350   2.071   6.228   2.400
 7484SOL    HW123351   1.985   6.228   2.350
 7484SOL    HW223352   2.066   6.163   2.476
 7485SOL     OW23353   3.029   5.985   6.195
 7485SOL    HW123354   2.986   5.895   6.193
 7485SOL    HW223355   3.117   5.982   6.146
 7486SOL     OW23356   2.948   6.413   5.632
 7486SOL    HW123357   2.990   6.431   5.721
 7486SOL    HW223358   3.019   6.385   5.568
 7487SOL     OW23359   3.359   6.283   4.403
 7487SOL    HW123360   3.408   6.244   4.325
 7487SOL    HW223361   3.279   6.227   4.422
 7488SOL     OW23362   4.005   0.025   6.024
 7488SOL    HW123363   3.954   0.072   6.096
 7488SOL    HW223364   4.103   0.030   6.044
 7489SOL     OW23365   5.002   2.820   3.943
 7489SOL    HW123366   4.978   2.912   3.976
 7489SOL    HW223367   4.918   2.768   3.927
 7490SOL     OW23368   5.280   0.830   1.160
 7490SOL    HW123369   5.310   0.924   1.144
 7490SOL    HW223370   5.301   0.803   1.253
 7491SOL     OW23371   6.538   5.922   6.200
 7491SOL    HW123372   6.606   5.994   6.187
 7491SOL    HW223373   6.530   5.901   6.298
 7492SOL     OW23374   1.669   2.617   5.063
 7492SOL    HW123375   1.709   2.707   5.049
 7492SOL    HW223376   1.742   2.551   5.086
 7493SOL     OW23377   5.548   3.477   6.723
 7493SOL    HW123378   5.603   3.537   6.781
 7493SOL    HW223379   5.584   3.480   6.629
 7494SOL     OW23380   5.366   0.050   2.130
 7494SOL    HW123381   5.278   0.077   2.090
 7494SOL    HW223382   5.354   0.030   2.227
 7495SOL     OW23383   1.835   2.152   0.821
 7495SOL    HW123384   1.927   2.128   0.850
 7495SOL    HW223385   1.792   2.073   0.776
 7496SOL     OW23386   1.017   5.016   6.159
 7496SOL    HW123387   1.023   4.967   6.072
 7496SOL    HW223388   1.008   4.950   6.234
 7497SOL     OW23389   1.748   4.256   2.504
 7497SOL    HW123390   1.760   4.202   2.588
 7497SOL    HW223391   1.835   4.299   2.480
 7498SOL     OW23392   3.655   1.893   4.721
 7498SOL    HW123393   3.717   1.902   4.799
 7498SOL    HW223394   3.671   1.968   4.657
 7499SOL     OW23395   5.664   0.216   4.527
 7499SOL    HW123396   5.732   0.284   4.499
 7499SOL    HW223397   5.686   0.129   4.484
 7500SOL     OW23398   4.532   6.095   1.983
 7500SOL    HW123399   4.559   6.060   2.073
 7500SOL    HW223400   4.586   6.049   1.912
 7501SOL     OW23401   0.332   4.069   4.082
 7501SOL    HW123402   0.257   4.021   4.034
 7501SOL    HW223403   0.417   4.054   4.032
 7502SOL     OW23404   2.769   0.933   5.229
 7502SOL    HW123405   2.733   0.916   5.137
 7502SOL    HW223406   2.711   1.000   5.276
 7503SOL     OW23407   3.212   1.155   0.112
 7503SOL    HW123408   3.211   1.151   0.212
 7503SOL    HW223409   3.225   1.250   0.083
 7504SOL     OW23410   3.765   6.543   3.407
 7504SOL    HW123411   3.800   6.586   3.491
 7504SOL    HW223412   3.669   6.571   3.394
 7505SOL     OW23413   1.813   1.431   4.874
 7505SOL    HW123414   1.886   1.492   4.842
 7505SOL    HW223415   1.848   1.337   4.876
 7506SOL     OW23416   3.513   0.787   2.450
 7506SOL    HW123417   3.543   0.841   2.529
 7506SOL    HW223418   3.518   0.690   2.472
 7507SOL     OW23419   0.858   6.279   6.089
 7507SOL    HW123420   0.898   6.309   6.002
 7507SOL    HW223421   0.930   6.271   6.157
 7508SOL     OW23422   6.026   6.858   2.699
 7508SOL    HW123423   5.966   6.779   2.710
 7508SOL    HW223424   6.101   6.835   2.637
 7509SOL     OW23425   4.901   3.403   5.999
 7509SOL    HW123426   4.876   3.444   5.912
 7509SOL    HW223427   4.851   3.317   6.011
 7510SOL     OW23428   3.570   4.152   4.797
 7510SOL    HW123429   3.542   4.140   4.702
 7510SOL    HW223430   3.666   4.178   4.801
 7511SOL     OW23431   1.646   0.486   1.852
 7511SOL    HW123432   1.630   0.463   1.948
 7511SOL    HW223433   1.738   0.459   1.826
 7512SOL     OW23434   2.678   2.735   1.585
 7512SOL    HW123435   2.601   2.771   1.532
 7512SOL    HW223436   2.730   2.811   1.624
 7513SOL     OW23437   1.696   2.042   6.926
 7513SOL    HW123438   1.623   2.110   6.922
 7513SOL    HW223439   1.771   2.070   6.865
 7514SOL     OW23440   2.652   5.440   2.307
 7514SOL    HW123441   2.600   5.434   2.222
 7514SOL    HW223442   2.589   5.447   2.384
 7515SOL     OW23443   6.755   6.682   2.317
 7515SOL    HW123444   6.849   6.658   2.340
 7515SOL    HW223445   6.703   6.599   2.297
 7516SOL     OW23446   0.797   0.848   3.634
 7516SOL    HW123447   0.739   0.917   3.677
 7516SOL    HW223448   0.833   0.786   3.704
 7517SOL     OW23449   0.157   3.938   0.826
 7517SOL    HW123450   0.074   3.932   0.770
 7517SOL    HW223451   0.156   4.022   0.879
 7518SOL     OW23452   4.770   5.492   4.200
 7518SOL    HW123453   4.771   5.447   4.289
 7518SOL    HW223454   4.818   5.435   4.133
 7519SOL     OW23455   1.705   6.224   4.388
 7519SOL    HW123456   1.694   6.314   4.430
 7519SOL    HW223457   1.735   6.235   4.294
 7520SOL     OW23458   1.472   6.605   3.803
 7520SOL    HW123459   1.415   6.660   3.742
 7520SOL    HW223460   1.415   6.566   3.875
 7521SOL     OW23461   4.909   4.224   5.234
 7521SOL    HW123462   4.935   4.171   5.153
 7521SOL    HW223463   4.827   4.277   5.213
 7522SOL     OW23464   2.242   1.209   1.216
 7522SOL    HW123465   2.320   1.189   1.276
 7522SOL    HW223466   2.216   1.305   1.226
 7523SOL     OW23467   6.070   0.394   6.083
 7523SOL    HW123468   6.095   0.344   6.000
 7523SOL    HW223469   6.141   0.462   6.103
 7524SOL     OW23470   0.585   2.187   5.446
 7524SOL    HW123471   0.666   2.235   5.479
 7524SOL    HW223472   0.542   2.139   5.522
 7525SOL     OW23473   1.401   1.114   0.296
 7525SOL    HW123474   1.478   1.090   0.356
 7525SOL    HW223475   1.382   1.212   0.305
 7526SOL     OW23476   3.624   2.887   4.492
 7526SOL    HW123477   3.652   2.792   4.501
 7526SOL    HW223478   3.697   2.940   4.448
 7527SOL     OW23479   5.355   4.368   3.191
 7527SOL    HW123480   5.276   4.354   3.251
 7527SOL    HW223481   5.323   4.391   3.099
 7528SOL     OW23482   4.949   2.578   0.149
 7528SOL    HW123483   4.932   2.670   0.185
 7528SOL    HW223484   4.990   2.522   0.221
 7529SOL     OW23485   3.634   0.846   5.345
 7529SOL    HW123486   3.705   0.873   5.280
 7529SOL    HW223487   3.676   0.805   5.425
 7530SOL     OW23488   0.226   3.992   2.250
 7530SOL    HW123489   0.242   3.913   2.308
 7530SOL    HW223490   0.145   4.041   2.282
 7531SOL     OW23491   4.046   1.869   3.625
 7531SOL    HW123492   4.002   1.938   3.682
 7531SOL    HW223493   4.079   1.912   3.541
 7532SOL     OW23494   5.007   5.754   2.430
 7532SOL    HW123495   4.980   5.681   2.368
 7532SOL    HW223496   5.106   5.759   2.435
 7533SOL     OW23497   3.401   1.586   4.684
 7533SOL    HW123498   3.495   1.598   4.652
 7533SOL    HW223499   3.340   1.584   4.605
 7534SOL     OW23500   4.571   6.638   4.855
 7534SOL    HW123501   4.517   6.554   4.868
 7534SOL    HW223502   4.662   6.613   4.823
 7535SOL     OW23503   2.774   2.506   6.073
 7535SOL    HW123504   2.815   2.583   6.120
 7535SOL    HW223505   2.731   2.444   6.139
 7536SOL     OW23506   4.346   5.409   4.919
 7536SOL    HW123507   4.252   5.390   4.947
 7536SOL    HW223508   4.404   5.332   4.943
 7537SOL     OW23509   2.268   4.800   5.678
 7537SOL    HW123510   2.190   4.767   5.731
 7537SOL    HW223511   2.348   4.807   5.738
 7538SOL     OW23512   3.030   3.319   2.930
 7538SOL    HW123513   2.957   3.361   2.876
 7538SOL    HW223514   3.063   3.385   2.998
 7539SOL     OW23515   2.060   2.838   4.940
 7539SOL    HW123516   2.112   2.753   4.946
 7539SOL    HW223517   2.121   2.914   4.919
 7540SOL     OW23518   2.563   1.199   6.973
 7540SOL    HW123519   2.523   1.290   6.962
 7540SOL    HW223520   2.596   1.166   6.884
 7541SOL     OW23521   6.264   2.020   5.106
 7541SOL    HW123522   6.321   2.019   5.024
 7541SOL    HW223523   6.320   1.998   5.186
 7542SOL     OW23524   1.414   6.809   5.617
 7542SOL    HW123525   1.491   6.808   5.553
 7542SOL    HW223526   1.444   6.772   5.705
 7543SOL     OW23527   3.908   3.258   0.849
 7543SOL    HW123528   3.923   3.175   0.796
 7543SOL    HW223529   3.903   3.236   0.946
 7544SOL     OW23530   1.997   2.414   3.111
 7544SOL    HW123531   2.032   2.409   3.017
 7544SOL    HW223532   1.943   2.497   3.122
 7545SOL     OW23533   5.528   6.777   3.659
 7545SOL    HW123534   5.507   6.783   3.756
 7545SOL    HW223535   5.465   6.713   3.615
 7546SOL     OW23536   5.029   0.796   6.748
 7546SOL    HW123537   5.106   0.746   6.708
 7546SOL    HW223538   5.001   0.870   6.686
 7547SOL     OW23539   3.718   0.067   0.457
 7547SOL    HW123540   3.648   0.135   0.477
 7547SOL    HW223541   3.794   0.077   0.522
 7548SOL     OW23542   2.585   2.363   1.249
 7548SOL    HW123543   2.598   2.359   1.150
 7548SOL    HW223544   2.632   2.286   1.292
 7549SOL     OW23545   5.278   2.373   3.062
 7549SOL    HW123546   5.233   2.388   3.151
 7549SOL    HW223547   5.236   2.432   2.993
 7550SOL     OW23548   2.040   5.984   2.650
 7550SOL    HW123549   2.042   5.955   2.554
 7550SOL    HW223550   2.125   5.957   2.695
 7551SOL     OW23551   4.922   3.163   6.668
 7551SOL    HW123552   4.858   3.223   6.619
 7551SOL    HW223553   4.987   3.125   6.603
 7552SOL     OW23554   2.978   5.026   4.134
 7552SOL    HW123555   2.979   5.069   4.044
 7552SOL    HW223556   2.951   5.093   4.203
 7553SOL     OW23557   3.885   5.677   5.899
 7553SOL    HW123558   3.786   5.690   5.893
 7553SOL    HW223559   3.919   5.714   5.985
 7554SOL     OW23560   5.710   1.611   0.401
 7554SOL    HW123561   5.725   1.576   0.308
 7554SOL    HW223562   5.612   1.614   0.420
 7555SOL     OW23563   0.319   6.223   5.394
 7555SOL    HW123564   0.343   6.128   5.370
 7555SOL    HW223565   0.400   6.281   5.384
 7556SOL     OW23566   0.321   2.802   4.304
 7556SOL    HW123567   0.376   2.876   4.265
 7556SOL    HW223568   0.381   2.734   4.345
 7557SOL     OW23569   5.028   4.122   5.994
 7557SOL    HW123570   5.049   4.132   6.092
 7557SOL    HW223571   4.931   4.099   5.983
 7558SOL     OW23572   1.771   3.699   3.295
 7558SOL    HW123573   1.692   3.758   3.308
 7558SOL    HW223574   1.852   3.754   3.277
 7559SOL     OW23575   0.511   4.540   1.027
 7559SOL    HW123576   0.461   4.545   0.940
 7559SOL    HW223577   0.462   4.590   1.097
 7560SOL     OW23578   5.312   6.596   0.496
 7560SOL    HW123579   5.294   6.577   0.400
 7560SOL    HW223580   5.395   6.651   0.504
 7561SOL     OW23581   6.312   3.470   0.561
 7561SOL    HW123582   6.406   3.502   0.548
 7561SOL    HW223583   6.305   3.374   0.534
 7562SOL     OW23584   4.946   6.729   5.287
 7562SOL    HW123585   4.986   6.820   5.274
 7562SOL    HW223586   5.010   6.659   5.256
 7563SOL     OW23587   2.810   0.675   2.483
 7563SOL    HW123588   2.803   0.652   2.386
 7563SOL    HW223589   2.743   0.621   2.535
 7564SOL     OW23590   4.875   0.127   2.835
 7564SOL    HW123591   4.862   0.132   2.934
 7564SOL    HW223592   4.937   0.052   2.813
 7565SOL     OW23593   4.605   4.884   6.986
 7565SOL    HW123594   4.650   4.946   0.022
 7565SOL    HW223595   4.556   4.936   6.917
 7566SOL     OW23596   0.804   6.090   4.462
 7566SOL    HW123597   0.748   6.010   4.482
 7566SOL    HW223598   0.889   6.061   4.418
 7567SOL     OW23599   3.000   4.863   6.709
 7567SOL    HW123600   2.959   4.922   6.639
 7567SOL    HW223601   2.999   4.910   6.797
 7568SOL     OW23602   5.013   5.477   3.570
 7568SOL    HW123603   5.085   5.494   3.637
 7568SOL    HW223604   5.048   5.416   3.499
 7569SOL     OW23605   3.942   5.764   0.141
 7569SOL    HW123606   3.866   5.785   0.079
 7569SOL    HW223607   3.906   5.743   0.232
 7570SOL     OW23608   5.584   5.545   4.020
 7570SOL    HW123609   5.676   5.532   4.056
 7570SOL    HW223610   5.524   5.579   4.093
 7571SOL     OW23611   5.792   4.214   1.618
 7571SOL    HW123612   5.702   4.173   1.633
 7571SOL    HW223613   5.808   4.285   1.687
 7572SOL     OW23614   3.338   0.790   4.422
 7572SOL    HW123615   3.299   0.854   4.488
 7572SOL    HW223616   3.265   0.743   4.374
 7573SOL     OW23617   0.459   6.171   4.370
 7573SOL    HW123618   0.514   6.089   4.351
 7573SOL    HW223619   0.513   6.252   4.349
 7574SOL     OW23620   5.584   6.761   3.309
 7574SOL    HW123621   5.576   6.837   3.373
 7574SOL    HW223622   5.523   6.776   3.231
 7575SOL     OW23623   3.950   1.071   5.384
 7575SOL    HW123624   3.929   1.169   5.388
 7575SOL    HW223625   3.958   1.043   5.288
 7576SOL     OW23626   5.988   2.888   0.303
 7576SOL    HW123627   5.953   2.950   0.233
 7576SOL    HW223628   5.916   2.868   0.369
 7577SOL     OW23629   6.501   1.305   4.653
 7577SOL    HW123630   6.427   1.331   4.716
 7577SOL    HW223631   6.540   1.217   4.682
 7578SOL     OW23632   2.179   5.501   4.511
 7578SOL    HW123633   2.186   5.536   4.604
 7578SOL    HW223634   2.225   5.413   4.505
 7579SOL     OW23635   3.544   1.475   2.624
 7579SOL    HW123636   3.478   1.446   2.693
 7579SOL    HW223637   3.594   1.555   2.656
 7580SOL     OW23638   1.876   4.467   2.749
 7580SOL    HW123639   1.880   4.540   2.681
 7580SOL    HW223640   1.938   4.393   2.723
 7581SOL     OW23641   5.011   1.258   0.957
 7581SOL    HW123642   4.956   1.190   1.005
 7581SOL    HW223643   4.974   1.273   0.866
 7582SOL     OW23644   3.215   1.329   0.898
 7582SOL    HW123645   3.283   1.403   0.901
 7582SOL    HW223646   3.245   1.259   0.834
 7583SOL     OW23647   5.564   3.246   2.122
 7583SOL    HW123648   5.587   3.268   2.217
 7583SOL    HW223649   5.615   3.165   2.093
 7584SOL     OW23650   2.710   6.498   1.574
 7584SOL    HW123651   2.615   6.475   1.553
 7584SOL    HW223652   2.720   6.597   1.584
 7585SOL     OW23653   1.286   4.822   6.531
 7585SOL    HW123654   1.262   4.906   6.483
 7585SOL    HW223655   1.338   4.762   6.469
 7586SOL     OW23656   2.894   0.259   3.007
 7586SOL    HW123657   2.961   0.193   2.973
 7586SOL    HW223658   2.807   0.213   3.024
 7587SOL     OW23659   1.088   1.769   6.376
 7587SOL    HW123660   1.073   1.849   6.434
 7587SOL    HW223661   1.186   1.759   6.358
 7588SOL     OW23662   0.414   4.851   3.122
 7588SOL    HW123663   0.397   4.935   3.069
 7588SOL    HW223664   0.506   4.855   3.161
 7589SOL     OW23665   5.811   5.852   0.618
 7589SOL    HW123666   5.813   5.920   0.692
 7589SOL    HW223667   5.825   5.897   0.530
 7590SOL     OW23668   2.632   1.418   6.013
 7590SOL    HW123669   2.694   1.389   6.085
 7590SOL    HW223670   2.660   1.376   5.926
 7591SOL     OW23671   6.725   4.898   6.646
 7591SOL    HW123672   6.770   4.976   6.689
 7591SOL    HW223673   6.788   4.853   6.583
 7592SOL     OW23674   6.302   5.177   6.603
 7592SOL    HW123675   6.350   5.191   6.516
 7592SOL    HW223676   6.368   5.167   6.677
 7593SOL     OW23677   4.819   2.237   0.231
 7593SOL    HW123678   4.869   2.296   0.166
 7593SOL    HW223679   4.765   2.171   0.180
 7594SOL     OW23680   0.773   5.994   4.131
 7594SOL    HW123681   0.767   5.903   4.091
 7594SOL    HW223682   0.863   6.034   4.110
 7595SOL     OW23683   0.043   3.210   6.459
 7595SOL    HW123684   0.115   3.260   6.508
 7595SOL    HW223685   0.062   3.211   6.361
 7596SOL     OW23686   5.061   4.486   1.607
 7596SOL    HW123687   5.019   4.446   1.688
 7596SOL    HW223688   4.990   4.504   1.539
 7597SOL     OW23689   4.087   5.117   1.735
 7597SOL    HW123690   4.136   5.182   1.793
 7597SOL    HW223691   4.069   5.159   1.646
 7598SOL     OW23692   7.023   0.247   3.009
 7598SOL    HW123693   0.034   0.280   2.923
 7598SOL    HW223694   0.002   0.147   3.012
 7599SOL     OW23695   6.472   1.883   3.254
 7599SOL    HW123696   6.439   1.825   3.179
 7599SOL    HW223697   6.559   1.847   3.288
 7600SOL     OW23698   1.425   1.005   2.109
 7600SOL    HW123699   1.427   1.078   2.178
 7600SOL    HW223700   1.494   1.023   2.039
 7601SOL     OW23701   1.506   6.032   4.392
 7601SOL    HW123702   1.527   5.934   4.394
 7601SOL    HW223703   1.590   6.084   4.386
 7602SOL     OW23704   1.503   4.130   4.734
 7602SOL    HW123705   1.456   4.088   4.812
 7602SOL    HW223706   1.574   4.192   4.767
 7603SOL     OW23707   0.913   6.112   1.161
 7603SOL    HW123708   0.916   6.140   1.256
 7603SOL    HW223709   0.999   6.137   1.116
 7604SOL     OW23710   4.110   6.013   4.826
 7604SOL    HW123711   4.124   5.937   4.763
 7604SOL    HW223712   4.197   6.039   4.867
 7605SOL     OW23713   0.154   4.438   0.068
 7605SOL    HW123714   0.230   4.379   0.097
 7605SOL    HW223715   0.153   4.520   0.124
 7606SOL     OW23716   6.575   2.823   2.502
 7606SOL    HW123717   6.674   2.816   2.495
 7606SOL    HW223718   6.534   2.732   2.501
 7607SOL     OW23719   5.064   0.113   6.391
 7607SOL    HW123720   4.979   0.071   6.421
 7607SOL    HW223721   5.138   0.046   6.398
 7608SOL     OW23722   2.965   3.572   4.079
 7608SOL    HW123723   2.999   3.666   4.087
 7608SOL    HW223724   2.906   3.565   3.999
 7609SOL     OW23725   1.035   3.851   3.937
 7609SOL    HW123726   1.004   3.879   3.846
 7609SOL    HW223727   1.110   3.786   3.928
 7610SOL     OW23728   5.252   0.395   0.674
 7610SOL    HW123729   5.301   0.395   0.761
 7610SOL    HW223730   5.245   0.489   0.639
 7611SOL     OW23731   1.337   1.658   0.012
 7611SOL    HW123732   1.406   1.594   0.048
 7611SOL    HW223733   1.363   1.751   0.036
 7612SOL     OW23734   3.869   2.151   4.011
 7612SOL    HW123735   3.854   2.188   3.919
 7612SOL    HW223736   3.889   2.053   4.005
 7613SOL     OW23737   5.136   0.854   1.431
 7613SOL    HW123738   5.074   0.889   1.500
 7613SOL    HW223739   5.142   0.754   1.438
 7614SOL     OW23740   3.894   1.895   1.308
 7614SOL    HW123741   3.858   1.969   1.364
 7614SOL    HW223742   3.864   1.807   1.345
 7615SOL     OW23743   3.812   5.470   6.213
 7615SOL    HW123744   3.896   5.492   6.163
 7615SOL    HW223745   3.738   5.526   6.179
 7616SOL     OW23746   6.559   4.041   3.347
 7616SOL    HW123747   6.505   3.957   3.341
 7616SOL    HW223748   6.654   4.019   3.368
 7617SOL     OW23749   2.993   5.110   3.551
 7617SOL    HW123750   2.967   5.089   3.456
 7617SOL    HW223751   3.043   5.197   3.552
 7618SOL     OW23752   1.697   2.189   6.545
 7618SOL    HW123753   1.716   2.279   6.506
 7618SOL    HW223754   1.764   2.170   6.617
 7619SOL     OW23755   6.374   3.340   5.462
 7619SOL    HW123756   6.292   3.347   5.405
 7619SOL    HW223757   6.431   3.421   5.449
 7620SOL     OW23758   4.273   6.846   0.477
 7620SOL    HW123759   4.209   6.834   0.401
 7620SOL    HW223760   4.223   6.877   0.558
 7621SOL     OW23761   1.875   1.026   1.099
 7621SOL    HW123762   1.894   1.016   1.001
 7621SOL    HW223763   1.961   1.034   1.149
 7622SOL     OW23764   3.918   3.320   1.181
 7622SOL    HW123765   3.860   3.256   1.232
 7622SOL    HW223766   3.885   3.413   1.193
 7623SOL     OW23767   4.454   6.495   6.261
 7623SOL    HW123768   4.481   6.399   6.258
 7623SOL    HW223769   4.476   6.533   6.350
 7624SOL     OW23770   0.992   1.248   2.730
 7624SOL    HW123771   0.901   1.234   2.769
 7624SOL    HW223772   0.993   1.335   2.681
 7625SOL     OW23773   5.217   0.362   1.018
 7625SOL    HW123774   5.157   0.431   0.977
 7625SOL    HW223775   5.162   0.301   1.076
 7626SOL     OW23776   1.355   6.549   4.562
 7626SOL    HW123777   1.406   6.464   4.561
 7626SOL    HW223778   1.397   6.614   4.498
 7627SOL     OW23779   0.008   2.973   0.680
 7627SOL    HW123780   0.008   2.981   0.780
 7627SOL    HW223781   0.078   3.033   0.642
 7628SOL     OW23782   2.937   1.513   0.911
 7628SOL    HW123783   2.974   1.578   0.845
 7628SOL    HW223784   2.861   1.463   0.870
 7629SOL     OW23785   6.788   5.604   2.865
 7629SOL    HW123786   6.719   5.670   2.892
 7629SOL    HW223787   6.864   5.651   2.820
 7630SOL     OW23788   6.782   0.370   2.234
 7630SOL    HW123789   6.829   0.456   2.256
 7630SOL    HW223790   6.723   0.385   2.154
 7631SOL     OW23791   0.884   1.655   4.432
 7631SOL    HW123792   0.961   1.666   4.495
 7631SOL    HW223793   0.805   1.705   4.467
 7632SOL     OW23794   4.549   2.231   1.366
 7632SOL    HW123795   4.602   2.260   1.445
 7632SOL    HW223796   4.515   2.312   1.317
 7633SOL     OW23797   5.447   3.178   6.698
 7633SOL    HW123798   5.381   3.155   6.769
 7633SOL    HW223799   5.487   3.268   6.717
 7634SOL     OW23800   2.187   0.487   2.134
 7634SOL    HW123801   2.282   0.489   2.102
 7634SOL    HW223802   2.152   0.581   2.141
 7635SOL     OW23803   2.722   5.316   5.828
 7635SOL    HW123804   2.760   5.225   5.812
 7635SOL    HW223805   2.693   5.324   5.923
 7636SOL     OW23806   1.000   0.889   4.184
 7636SOL    HW123807   1.080   0.948   4.192
 7636SOL    HW223808   0.979   0.875   4.087
 7637SOL     OW23809   1.289   6.411   4.246
 7637SOL    HW123810   1.329   6.323   4.219
 7637SOL    HW223811   1.349   6.457   4.311
 7638SOL     OW23812   5.120   5.619   1.798
 7638SOL    HW123813   5.067   5.685   1.744
 7638SOL    HW223814   5.217   5.645   1.796
 7639SOL     OW23815   1.069   1.432   5.010
 7639SOL    HW123816   0.970   1.426   5.022
 7639SOL    HW223817   1.097   1.527   5.003
 7640SOL     OW23818   2.425   1.876   0.575
 7640SOL    HW123819   2.326   1.870   0.586
 7640SOL    HW223820   2.448   1.957   0.521
 7641SOL     OW23821   6.115   3.969   2.473
 7641SOL    HW123822   6.028   3.947   2.429
 7641SOL    HW223823   6.149   3.889   2.522
 7642SOL     OW23824   2.304   1.992   2.390
 7642SOL    HW123825   2.368   1.940   2.333
 7642SOL    HW223826   2.348   2.076   2.422
 7643SOL     OW23827   4.708   2.726   2.595
 7643SOL    HW123828   4.680   2.637   2.558
 7643SOL    HW223829   4.751   2.780   2.523
 7644SOL     OW23830   0.358   2.828   3.307
 7644SOL    HW123831   0.329   2.744   3.353
 7644SOL    HW223832   0.292   2.901   3.326
 7645SOL     OW23833   4.620   4.705   0.181
 7645SOL    HW123834   4.561   4.633   0.143
 7645SOL    HW223835   4.625   4.781   0.117
 7646SOL     OW23836   2.203   2.059   2.037
 7646SOL    HW123837   2.184   2.079   1.941
 7646SOL    HW223838   2.154   1.976   2.064
 7647SOL     OW23839   1.690   3.995   1.431
 7647SOL    HW123840   1.698   4.088   1.396
 7647SOL    HW223841   1.611   3.989   1.492
 7648SOL     OW23842   4.290   1.425   3.551
 7648SOL    HW123843   4.242   1.504   3.513
 7648SOL    HW223844   4.284   1.428   3.651
 7649SOL     OW23845   2.719   0.651   2.236
 7649SOL    HW123846   2.641   0.708   2.264
 7649SOL    HW223847   2.746   0.675   2.143
 7650SOL     OW23848   6.619   3.782   1.920
 7650SOL    HW123849   6.674   3.709   1.879
 7650SOL    HW223850   6.537   3.797   1.864
 7651SOL     OW23851   3.273   0.463   6.811
 7651SOL    HW123852   3.316   0.458   6.721
 7651SOL    HW223853   3.175   0.479   6.801
 7652SOL     OW23854   0.229   3.980   3.464
 7652SOL    HW123855   0.221   4.077   3.486
 7652SOL    HW223856   0.249   3.928   3.547
 7653SOL     OW23857   2.607   1.556   1.528
 7653SOL    HW123858   2.653   1.643   1.547
 7653SOL    HW223859   2.552   1.530   1.607
 7654SOL     OW23860   5.251   3.107   3.960
 7654SOL    HW123861   5.339   3.118   4.007
 7654SOL    HW223862   5.259   3.037   3.890
 7655SOL     OW23863   2.704   6.715   4.852
 7655SOL    HW123864   2.739   6.785   4.914
 7655SOL    HW223865   2.760   6.632   4.860
 7656SOL     OW23866   0.012   6.129   5.074
 7656SOL    HW123867   0.074   6.194   5.029
 7656SOL    HW223868   0.033   6.036   5.043
 7657SOL     OW23869   3.213   1.770   3.434
 7657SOL    HW123870   3.203   1.735   3.528
 7657SOL    HW223871   3.263   1.856   3.436
 7658SOL     OW23872   4.139   1.202   5.764
 7658SOL    HW123873   4.063   1.241   5.816
 7658SOL    HW223874   4.133   1.103   5.765
 7659SOL     OW23875   6.222   6.522   0.831
 7659SOL    HW123876   6.189   6.449   0.772
 7659SOL    HW223877   6.146   6.579   0.860
 7660SOL     OW23878   5.293   5.547   2.777
 7660SOL    HW123879   5.239   5.463   2.778
 7660SOL    HW223880   5.387   5.526   2.748
 7661SOL     OW23881   6.389   2.895   3.750
 7661SOL    HW123882   6.404   2.856   3.841
 7661SOL    HW223883   6.306   2.951   3.751
 7662SOL     OW23884   1.093   3.760   2.306
 7662SOL    HW123885   1.175   3.730   2.355
 7662SOL    HW223886   1.052   3.837   2.354
 7663SOL     OW23887   0.794   4.741   6.394
 7663SOL    HW123888   0.888   4.776   6.394
 7663SOL    HW223889   0.743   4.784   6.468
 7664SOL     OW23890   3.017   6.251   3.481
 7664SOL    HW123891   2.975   6.161   3.471
 7664SOL    HW223892   2.996   6.287   3.572
 7665SOL     OW23893   2.856   0.764   4.366
 7665SOL    HW123894   2.952   0.741   4.351
 7665SOL    HW223895   2.841   0.860   4.345
 7666SOL     OW23896   1.285   0.250   1.093
 7666SOL    HW123897   1.339   0.305   1.157
 7666SOL    HW223898   1.248   0.170   1.140
 7667SOL     OW23899   4.990   0.077   6.820
 7667SOL    HW123900   5.050   0.056   6.743
 7667SOL    HW223901   4.908   0.124   6.786
 7668SOL     OW23902   3.738   4.342   1.200
 7668SOL    HW123903   3.834   4.329   1.179
 7668SOL    HW223904   3.701   4.259   1.243
 7669SOL     OW23905   4.589   0.383   3.875
 7669SOL    HW123906   4.542   0.455   3.824
 7669SOL    HW223907   4.630   0.318   3.810
 7670SOL     OW23908   1.342   5.640   0.491
 7670SOL    HW123909   1.440   5.618   0.498
 7670SOL    HW223910   1.311   5.679   0.577
 7671SOL     OW23911   6.105   1.952   4.329
 7671SOL    HW123912   6.110   1.875   4.393
 7671SOL    HW223913   6.132   1.922   4.238
 7672SOL     OW23914   5.584   0.862   3.883
 7672SOL    HW123915   5.594   0.957   3.855
 7672SOL    HW223916   5.539   0.857   3.972
 7673SOL     OW23917   0.547   4.832   0.878
 7673SOL    HW123918   0.527   4.930   0.871
 7673SOL    HW223919   0.475   4.779   0.832
 7674SOL     OW23920   6.686   1.781   4.640
 7674SOL    HW123921   6.708   1.766   4.737
 7674SOL    HW223922   6.646   1.872   4.629
 7675SOL     OW23923   4.588   0.006   2.134
 7675SOL    HW123924   4.655   0.059   2.082
 7675SOL    HW223925   4.633   6.952   2.171
 7676SOL     OW23926   1.407   0.567   6.577
 7676SOL    HW123927   1.338   0.560   6.649
 7676SOL    HW223928   1.410   0.661   6.543
 7677SOL     OW23929   1.761   3.648   2.833
 7677SOL    HW123930   1.771   3.643   2.734
 7677SOL    HW223931   1.668   3.675   2.857
 7678SOL     OW23932   0.421   0.622   0.825
 7678SOL    HW123933   0.447   0.700   0.768
 7678SOL    HW223934   0.494   0.605   0.892
 7679SOL     OW23935   0.836   5.302   5.008
 7679SOL    HW123936   0.914   5.292   4.946
 7679SOL    HW223937   0.849   5.243   5.088
 7680SOL     OW23938   3.223   3.790   0.051
 7680SOL    HW123939   3.216   3.789   0.150
 7680SOL    HW223940   3.278   3.868   0.022
 7681SOL     OW23941   2.780   1.782   0.217
 7681SOL    HW123942   2.791   1.875   0.181
 7681SOL    HW223943   2.864   1.755   0.264
 7682SOL     OW23944   3.266   0.080   1.680
 7682SOL    HW123945   3.294   0.129   1.598
 7682SOL    HW223946   3.209   0.139   1.737
 7683SOL     OW23947   6.135   1.917   3.088
 7683SOL    HW123948   6.106   1.864   3.168
 7683SOL    HW223949   6.234   1.929   3.090
 7684SOL     OW23950   4.150   1.986   6.063
 7684SOL    HW123951   4.222   1.923   6.035
 7684SOL    HW223952   4.067   1.969   6.010
 7685SOL     OW23953   3.699   2.727   0.697
 7685SOL    HW123954   3.616   2.767   0.658
 7685SOL    HW223955   3.778   2.752   0.640
 7686SOL     OW23956   4.348   6.768   3.966
 7686SOL    HW123957   4.428   6.800   4.017
 7686SOL    HW223958   4.274   6.835   3.972
 7687SOL     OW23959   4.954   5.596   5.559
 7687SOL    HW123960   4.872   5.617   5.505
 7687SOL    HW223961   5.018   5.543   5.504
 7688SOL     OW23962   6.847   6.387   4.792
 7688SOL    HW123963   6.924   6.345   4.840
 7688SOL    HW223964   6.784   6.427   4.859
 7689SOL     OW23965   4.615   6.805   4.580
 7689SOL    HW123966   4.694   6.748   4.603
 7689SOL    HW223967   4.643   6.875   4.513
 7690SOL     OW23968   5.699   4.671   3.293
 7690SOL    HW123969   5.716   4.768   3.311
 7690SOL    HW223970   5.687   4.623   3.380
 7691SOL     OW23971   5.248   2.690   3.972
 7691SOL    HW123972   5.217   2.633   4.048
 7691SOL    HW223973   5.204   2.780   3.979
 7692SOL     OW23974   1.866   6.214   2.048
 7692SOL    HW123975   1.865   6.312   2.067
 7692SOL    HW223976   1.842   6.164   2.131
 7693SOL     OW23977   4.025   1.124   6.216
 7693SOL    HW123978   4.113   1.159   6.184
 7693SOL    HW223979   3.969   1.200   6.247
 7694SOL     OW23980   6.624   4.608   4.023
 7694SOL    HW123981   6.676   4.554   3.957
 7694SOL    HW223982   6.686   4.669   4.072
 7695SOL     OW23983   4.354   6.930   0.882
 7695SOL    HW123984   4.429   6.952   0.819
 7695SOL    HW223985   4.292   6.864   0.837
 7696SOL     OW23986   0.226   2.507   4.670
 7696SOL    HW123987   0.187   2.547   4.586
 7696SOL    HW223988   0.216   2.572   4.745
 7697SOL     OW23989   2.004   1.573   3.245
 7697SOL    HW123990   2.095   1.542   3.220
 7697SOL    HW223991   2.010   1.629   3.328
 7698SOL     OW23992   0.011   3.034   4.832
 7698SOL    HW123993   0.053   3.124   4.848
 7698SOL    HW223994   6.992   3.036   4.743
 7699SOL     OW23995   2.725   5.859   1.021
 7699SOL    HW123996   2.740   5.955   1.046
 7699SOL    HW223997   2.812   5.810   1.023
 7700SOL     OW23998   4.751   6.414   5.117
 7700SOL    HW123999   4.780   6.456   5.031
 7700SOL    HW224000   4.660   6.448   5.141
 7701SOL     OW24001   0.427   1.631   4.983
 7701SOL    HW124002   0.481   1.660   4.903
 7701SOL    HW224003   0.403   1.535   4.973
 7702SOL     OW24004   3.434   5.543   5.657
 7702SOL    HW124005   3.421   5.641   5.644
 7702SOL    HW224006   3.395   5.515   5.744
 7703SOL     OW24007   0.441   1.524   5.466
 7703SOL    HW124008   0.447   1.458   5.391
 7703SOL    HW224009   0.433   1.616   5.429
 7704SOL     OW24010   4.463   4.073   6.739
 7704SOL    HW124011   4.458   4.022   6.825
 7704SOL    HW224012   4.373   4.110   6.716
 7705SOL     OW24013   3.413   5.391   5.221
 7705SOL    HW124014   3.358   5.323   5.171
 7705SOL    HW224015   3.408   5.372   5.319
 7706SOL     OW24016   6.180   0.567   5.078
 7706SOL    HW124017   6.116   0.550   5.153
 7706SOL    HW224018   6.272   0.541   5.107
 7707SOL     OW24019   6.752   5.506   6.319
 7707SOL    HW124020   6.811   5.427   6.332
 7707SOL    HW224021   6.698   5.521   6.402
 7708SOL     OW24022   4.772   6.513   3.948
 7708SOL    HW124023   4.676   6.527   3.923
 7708SOL    HW224024   4.828   6.512   3.865
 7709SOL     OW24025   4.695   2.327   1.606
 7709SOL    HW124026   4.784   2.371   1.595
 7709SOL    HW224027   4.705   2.245   1.662
 7710SOL     OW24028   2.770   0.177   0.671
 7710SOL    HW124029   2.702   0.105   0.688
 7710SOL    HW224030   2.729   0.266   0.689
 7711SOL     OW24031   5.374   6.328   5.695
 7711SOL    HW124032   5.305   6.262   5.663
 7711SOL    HW224033   5.465   6.298   5.667
 7712SOL     OW24034   6.100   4.855   0.881
 7712SOL    HW124035   6.003   4.876   0.891
 7712SOL    HW224036   6.132   4.806   0.962
 7713SOL     OW24037   1.425   4.376   6.511
 7713SOL    HW124038   1.352   4.349   6.574
 7713SOL    HW224039   1.479   4.449   6.552
 7714SOL     OW24040   6.028   4.185   4.074
 7714SOL    HW124041   6.017   4.235   3.989
 7714SOL    HW224042   6.047   4.250   4.148
 7715SOL     OW24043   5.218   0.252   1.399
 7715SOL    HW124044   5.205   0.179   1.332
 7715SOL    HW224045   5.219   0.341   1.352
 7716SOL     OW24046   4.834   2.356   2.980
 7716SOL    HW124047   4.743   2.393   2.999
 7716SOL    HW224048   4.885   2.421   2.924
 7717SOL     OW24049   3.151   1.514   5.616
 7717SOL    HW124050   3.165   1.543   5.521
 7717SOL    HW224051   3.072   1.562   5.654
 7718SOL     OW24052   2.734   0.880   3.278
 7718SOL    HW124053   2.772   0.793   3.245
 7718SOL    HW224054   2.708   0.870   3.375
 7719SOL     OW24055   6.855   2.044   4.211
 7719SOL    HW124056   6.916   2.122   4.194
 7719SOL    HW224057   6.911   1.964   4.234
 7720SOL     OW24058   6.253   6.487   1.157
 7720SOL    HW124059   6.286   6.576   1.188
 7720SOL    HW224060   6.272   6.476   1.059
 7721SOL     OW24061   2.412   4.383   3.663
 7721SOL    HW124062   2.380   4.323   3.589
 7721SOL    HW224063   2.361   4.365   3.746
 7722SOL     OW24064   6.354   4.395   3.808
 7722SOL    HW124065   6.368   4.309   3.857
 7722SOL    HW224066   6.440   4.426   3.768
 7723SOL     OW24067   6.828   3.398   0.443
 7723SOL    HW124068   6.828   3.363   0.536
 7723SOL    HW224069   6.874   3.333   0.383
 7724SOL     OW24070   1.211   4.703   1.183
 7724SOL    HW124071   1.119   4.712   1.143
 7724SOL    HW224072   1.231   4.607   1.199
 7725SOL     OW24073   6.051   2.720   3.150
 7725SOL    HW124074   5.995   2.788   3.103
 7725SOL    HW224075   6.081   2.757   3.238
 7726SOL     OW24076   0.744   4.241   2.857
 7726SOL    HW124077   0.837   4.275   2.854
 7726SOL    HW224078   0.740   4.149   2.819
 7727SOL     OW24079   6.634   2.810   3.223
 7727SOL    HW124080   6.661   2.789   3.318
 7727SOL    HW224081   6.678   2.745   3.161
 7728SOL     OW24082   1.775   3.270   3.046
 7728SOL    HW124083   1.835   3.349   3.051
 7728SOL    HW224084   1.821   3.190   3.085
 7729SOL     OW24085   5.107   2.583   1.016
 7729SOL    HW124086   5.099   2.674   1.057
 7729SOL    HW224087   5.111   2.592   0.916
 7730SOL     OW24088   4.887   0.008   2.336
 7730SOL    HW124089   4.909   7.010   2.430
 7730SOL    HW224090   4.887   6.954   2.278
 7731SOL     OW24091   6.011   1.290   0.079
 7731SOL    HW124092   5.923   1.277   0.034
 7731SOL    HW224093   6.022   1.387   0.101
 7732SOL     OW24094   4.552   5.873   0.168
 7732SOL    HW124095   4.492   5.904   0.094
 7732SOL    HW224096   4.647   5.875   0.137
 7733SOL     OW24097   3.520   0.630   1.271
 7733SOL    HW124098   3.449   0.564   1.246
 7733SOL    HW224099   3.480   0.721   1.276
 7734SOL     OW24100   1.364   2.446   3.971
 7734SOL    HW124101   1.288   2.441   4.036
 7734SOL    HW224102   1.442   2.490   4.015
 7735SOL     OW24103   5.423   4.416   6.528
 7735SOL    HW124104   5.397   4.480   6.600
 7735SOL    HW224105   5.380   4.327   6.546
 7736SOL     OW24106   5.541   4.489   0.237
 7736SOL    HW124107   5.577   4.414   0.182
 7736SOL    HW224108   5.558   4.471   0.334
 7737SOL     OW24109   4.578   1.921   0.668
 7737SOL    HW124110   4.629   2.006   0.681
 7737SOL    HW224111   4.486   1.931   0.706
 7738SOL     OW24112   2.782   5.508   0.396
 7738SOL    HW124113   2.873   5.479   0.366
 7738SOL    HW224114   2.718   5.431   0.390
 7739SOL     OW24115   0.617   2.387   1.616
 7739SOL    HW124116   0.575   2.305   1.576
 7739SOL    HW224117   0.559   2.466   1.599
 7740SOL     OW24118   0.230   6.954   2.819
 7740SOL    HW124119   0.154   6.890   2.806
 7740SOL    HW224120   0.317   6.906   2.807
 7741SOL     OW24121   1.364   6.154   4.168
 7741SOL    HW124122   1.437   6.118   4.110
 7741SOL    HW224123   1.341   6.088   4.239
 7742SOL     OW24124   6.016   2.178   3.397
 7742SOL    HW124125   6.062   2.148   3.481
 7742SOL    HW224126   6.082   2.223   3.337
 7743SOL     OW24127   4.646   2.405   4.578
 7743SOL    HW124128   4.731   2.457   4.591
 7743SOL    HW224129   4.576   2.439   4.640
 7744SOL     OW24130   6.451   0.093   3.555
 7744SOL    HW124131   6.461   0.130   3.463
 7744SOL    HW224132   6.462   7.021   3.551
 7745SOL     OW24133   3.404   2.549   5.839
 7745SOL    HW124134   3.323   2.578   5.890
 7745SOL    HW224135   3.398   2.585   5.745
 7746SOL     OW24136   1.514   0.346   0.059
 7746SOL    HW124137   1.594   0.405   0.075
 7746SOL    HW224138   1.443   0.368   0.125
 7747SOL     OW24139   5.241   6.239   0.806
 7747SOL    HW124140   5.170   6.169   0.801
 7747SOL    HW224141   5.246   6.289   0.719
 7748SOL     OW24142   2.599   4.597   6.082
 7748SOL    HW124143   2.578   4.525   6.016
 7748SOL    HW224144   2.693   4.628   6.069
 7749SOL     OW24145   5.535   2.765   5.718
 7749SOL    HW124146   5.610   2.710   5.682
 7749SOL    HW224147   5.458   2.764   5.654
 7750SOL     OW24148   0.226   5.979   1.883
 7750SOL    HW124149   0.259   6.041   1.812
 7750SOL    HW224150   0.209   5.889   1.844
 7751SOL     OW24151   0.811   2.505   2.120
 7751SOL    HW124152   0.887   2.446   2.095
 7751SOL    HW224153   0.768   2.541   2.037
 7752SOL     OW24154   4.648   1.378   4.400
 7752SOL    HW124155   4.657   1.361   4.302
 7752SOL    HW224156   4.736   1.362   4.445
 7753SOL     OW24157   2.727   1.307   5.314
 7753SOL    HW124158   2.812   1.264   5.342
 7753SOL    HW224159   2.741   1.406   5.306
 7754SOL     OW24160   4.458   6.632   1.857
 7754SOL    HW124161   4.456   6.541   1.816
 7754SOL    HW224162   4.478   6.624   1.954
 7755SOL     OW24163   1.463   4.362   5.765
 7755SOL    HW124164   1.365   4.342   5.754
 7755SOL    HW224165   1.473   4.444   5.821
 7756SOL     OW24166   3.117   5.936   1.571
 7756SOL    HW124167   3.191   5.908   1.510
 7756SOL    HW224168   3.149   5.931   1.666
 7757SOL     OW24169   0.056   4.479   2.767
 7757SOL    HW124170   0.003   4.416   2.823
 7757SOL    HW224171   0.154   4.462   2.781
 7758SOL     OW24172   1.824   0.377   5.299
 7758SOL    HW124173   1.873   0.452   5.345
 7758SOL    HW224174   1.887   0.329   5.237
 7759SOL     OW24175   2.827   2.019   6.660
 7759SOL    HW124176   2.742   2.064   6.686
 7759SOL    HW224177   2.873   2.073   6.589
 7760SOL     OW24178   4.566   3.084   1.333
 7760SOL    HW124179   4.511   3.112   1.411
 7760SOL    HW224180   4.524   3.004   1.289
 7761SOL     OW24181   4.896   6.006   4.510
 7761SOL    HW124182   4.802   6.026   4.482
 7761SOL    HW224183   4.949   5.976   4.431
 7762SOL     OW24184   6.546   0.405   2.894
 7762SOL    HW124185   6.631   0.366   2.929
 7762SOL    HW224186   6.519   0.483   2.950
 7763SOL     OW24187   2.537   0.131   4.668
 7763SOL    HW124188   2.530   0.047   4.720
 7763SOL    HW224189   2.482   0.202   4.711
 7764SOL     OW24190   2.987   3.964   5.342
 7764SOL    HW124191   2.938   4.017   5.410
 7764SOL    HW224192   3.084   3.959   5.366
 7765SOL     OW24193   6.875   3.085   4.274
 7765SOL    HW124194   6.791   3.094   4.221
 7765SOL    HW224195   6.930   3.168   4.263
 7766SOL     OW24196   6.621   3.831   6.701
 7766SOL    HW124197   6.676   3.782   6.633
 7766SOL    HW224198   6.561   3.766   6.748
 7767SOL     OW24199   2.682   1.042   3.021
 7767SOL    HW124200   2.590   1.002   3.019
 7767SOL    HW224201   2.717   1.041   3.114
 7768SOL     OW24202   4.803   5.610   2.929
 7768SOL    HW124203   4.726   5.572   2.980
 7768SOL    HW224204   4.783   5.607   2.831
 7769SOL     OW24205   3.118   2.602   5.366
 7769SOL    HW124206   3.135   2.528   5.301
 7769SOL    HW224207   3.200   2.658   5.375
 7770SOL     OW24208   2.113   3.184   4.692
 7770SOL    HW124209   2.128   3.143   4.602
 7770SOL    HW224210   2.109   3.284   4.683
 7771SOL     OW24211   2.745   2.071   6.338
 7771SOL    HW124212   2.696   1.991   6.373
 7771SOL    HW224213   2.802   2.044   6.260
 7772SOL     OW24214   4.954   0.080   1.681
 7772SOL    HW124215   5.008   7.024   1.670
 7772SOL    HW224216   5.016   0.157   1.696
 7773SOL     OW24217   3.399   6.270   6.972
 7773SOL    HW124218   3.432   6.236   0.032
 7773SOL    HW224219   3.316   6.324   6.986
 7774SOL     OW24220   4.348   1.846   2.649
 7774SOL    HW124221   4.251   1.821   2.648
 7774SOL    HW224222   4.364   1.920   2.584
 7775SOL     OW24223   3.275   0.675   7.010
 7775SOL    HW124224   3.363   0.718   0.002
 7775SOL    HW224225   3.282   0.624   6.924
 7776SOL     OW24226   1.667   1.023   4.929
 7776SOL    HW124227   1.600   0.982   4.868
 7776SOL    HW224228   1.627   1.036   5.019
 7777SOL     OW24229   5.497   5.099   3.613
 7777SOL    HW124230   5.596   5.088   3.622
 7777SOL    HW224231   5.458   5.019   3.567
 7778SOL     OW24232   6.115   5.128   2.909
 7778SOL    HW124233   6.043   5.059   2.915
 7778SOL    HW224234   6.089   5.208   2.963
 7779SOL     OW24235   3.603   5.841   2.694
 7779SOL    HW124236   3.564   5.862   2.605
 7779SOL    HW224237   3.544   5.877   2.766
 7780SOL     OW24238   6.244   5.959   4.379
 7780SOL    HW124239   6.185   5.942   4.300
 7780SOL    HW224240   6.320   5.894   4.379
 7781SOL     OW24241   1.913   2.271   0.508
 7781SOL    HW124242   1.860   2.194   0.472
 7781SOL    HW224243   1.943   2.250   0.601
 7782SOL     OW24244   5.510   4.141   4.114
 7782SOL    HW124245   5.492   4.044   4.097
 7782SOL    HW224246   5.609   4.157   4.119
 7783SOL     OW24247   0.918   0.282   5.324
 7783SOL    HW124248   0.923   0.304   5.422
 7783SOL    HW224249   1.010   0.280   5.286
 7784SOL     OW24250   2.131   2.729   2.665
 7784SOL    HW124251   2.174   2.813   2.632
 7784SOL    HW224252   2.057   2.753   2.729
 7785SOL     OW24253   0.569   6.695   2.457
 7785SOL    HW124254   0.579   6.702   2.358
 7785SOL    HW224255   0.597   6.604   2.487
 7786SOL     OW24256   4.368   0.274   6.219
 7786SOL    HW124257   4.334   0.197   6.166
 7786SOL    HW224258   4.299   0.347   6.221
 7787SOL     OW24259   2.430   2.566   1.356
 7787SOL    HW124260   2.526   2.540   1.340
 7787SOL    HW224261   2.425   2.626   1.436
 7788SOL     OW24262   6.921   4.445   1.631
 7788SOL    HW124263   6.993   4.377   1.619
 7788SOL    HW224264   6.939   4.523   1.571
 7789SOL     OW24265   3.628   1.430   6.204
 7789SOL    HW124266   3.560   1.423   6.277
 7789SOL    HW224267   3.611   1.514   6.151
 7790SOL     OW24268   4.718   4.509   1.617
 7790SOL    HW124269   4.693   4.424   1.570
 7790SOL    HW224270   4.670   4.513   1.705
 7791SOL     OW24271   2.820   4.815   2.591
 7791SOL    HW124272   2.781   4.888   2.535
 7791SOL    HW224273   2.920   4.820   2.587
 7792SOL     OW24274   1.022   2.015   2.393
 7792SOL    HW124275   1.021   2.062   2.305
 7792SOL    HW224276   1.100   1.952   2.396
 7793SOL     OW24277   4.687   0.952   6.045
 7793SOL    HW124278   4.701   1.043   6.086
 7793SOL    HW224279   4.677   0.962   5.946
 7794SOL     OW24280   0.593   6.549   3.606
 7794SOL    HW124281   0.566   6.583   3.696
 7794SOL    HW224282   0.637   6.623   3.555
 7795SOL     OW24283   3.121   6.171   6.390
 7795SOL    HW124284   3.053   6.131   6.451
 7795SOL    HW224285   3.136   6.111   6.312
 7796SOL     OW24286   3.972   3.464   6.153
 7796SOL    HW124287   3.940   3.557   6.136
 7796SOL    HW224288   3.898   3.409   6.192
 7797SOL     OW24289   1.167   6.483   2.820
 7797SOL    HW124290   1.196   6.452   2.730
 7797SOL    HW224291   1.245   6.524   2.868
 7798SOL     OW24292   1.340   3.126   0.491
 7798SOL    HW124293   1.348   3.211   0.543
 7798SOL    HW224294   1.351   3.048   0.553
 7799SOL     OW24295   2.650   5.795   3.676
 7799SOL    HW124296   2.637   5.760   3.583
 7799SOL    HW224297   2.583   5.866   3.695
 7800SOL     OW24298   0.450   6.592   1.666
 7800SOL    HW124299   0.384   6.521   1.640
 7800SOL    HW224300   0.401   6.675   1.691
 7801SOL     OW24301   1.846   2.322   2.519
 7801SOL    HW124302   1.871   2.300   2.424
 7801SOL    HW224303   1.845   2.421   2.530
 7802SOL     OW24304   0.354   4.108   4.454
 7802SOL    HW124305   0.376   4.123   4.550
 7802SOL    HW224306   0.438   4.096   4.401
 7803SOL     OW24307   4.073   2.497   5.632
 7803SOL    HW124308   3.995   2.434   5.640
 7803SOL    HW224309   4.069   2.564   5.707
 7804SOL     OW24310   2.988   1.789   5.295
 7804SOL    HW124311   2.925   1.852   5.340
 7804SOL    HW224312   3.051   1.841   5.237
 7805SOL     OW24313   5.782   2.787   0.472
 7805SOL    HW124314   5.795   2.689   0.454
 7805SOL    HW224315   5.688   2.813   0.451
 7806SOL     OW24316   6.796   2.474   5.455
 7806SOL    HW124317   6.884   2.521   5.446
 7806SOL    HW224318   6.722   2.537   5.430
 7807SOL     OW24319   2.652   4.862   6.270
 7807SOL    HW124320   2.599   4.814   6.200
 7807SOL    HW224321   2.602   4.943   6.301
 7808SOL     OW24322   4.943   3.445   3.319
 7808SOL    HW124323   4.913   3.369   3.377
 7808SOL    HW224324   4.906   3.531   3.354
 7809SOL     OW24325   4.919   5.075   3.385
 7809SOL    HW124326   4.820   5.075   3.373
 7809SOL    HW224327   4.959   4.995   3.340
 7810SOL     OW24328   3.632   6.735   5.522
 7810SOL    HW124329   3.622   6.816   5.580
 7810SOL    HW224330   3.640   6.763   5.427
 7811SOL     OW24331   1.249   5.618   3.105
 7811SOL    HW124332   1.173   5.573   3.058
 7811SOL    HW224333   1.247   5.716   3.085
 7812SOL     OW24334   2.788   1.799   6.143
 7812SOL    HW124335   2.863   1.733   6.134
 7812SOL    HW224336   2.823   1.891   6.130
 7813SOL     OW24337   5.356   0.735   0.738
 7813SOL    HW124338   5.455   0.744   0.754
 7813SOL    HW224339   5.340   0.711   0.642
 7814SOL     OW24340   6.953   3.232   1.977
 7814SOL    HW124341   7.015   3.267   1.906
 7814SOL    HW224342   6.879   3.297   1.992
 7815SOL     OW24343   5.605   3.757   5.259
 7815SOL    HW124344   5.577   3.737   5.353
 7815SOL    HW224345   5.671   3.832   5.259
 7816SOL     OW24346   0.766   1.298   5.071
 7816SOL    HW124347   0.830   1.233   5.029
 7816SOL    HW224348   0.773   1.293   5.170
 7817SOL     OW24349   2.906   3.099   6.344
 7817SOL    HW124350   2.863   3.183   6.379
 7817SOL    HW224351   2.898   3.026   6.412
 7818SOL     OW24352   5.844   0.910   2.319
 7818SOL    HW124353   5.803   0.874   2.402
 7818SOL    HW224354   5.843   1.010   2.322
 7819SOL     OW24355   1.424   3.871   3.938
 7819SOL    HW124356   1.468   3.922   4.011
 7819SOL    HW224357   1.398   3.934   3.864
 7820SOL     OW24358   1.946   6.847   6.499
 7820SOL    HW124359   1.988   6.925   6.545
 7820SOL    HW224360   1.930   6.869   6.403
 7821SOL     OW24361   5.337   5.588   6.772
 7821SOL    HW124362   5.405   5.641   6.823
 7821SOL    HW224363   5.315   5.634   6.686
 7822SOL     OW24364   1.512   1.031   5.148
 7822SOL    HW124365   1.492   1.122   5.185
 7822SOL    HW224366   1.428   0.989   5.115
 7823SOL     OW24367   1.687   3.212   5.930
 7823SOL    HW124368   1.661   3.225   6.026
 7823SOL    HW224369   1.761   3.275   5.907
 7824SOL     OW24370   5.027   2.640   3.169
 7824SOL    HW124371   5.089   2.587   3.227
 7824SOL    HW224372   4.941   2.654   3.216
 7825SOL     OW24373   3.504   3.603   2.284
 7825SOL    HW124374   3.414   3.647   2.278
 7825SOL    HW224375   3.494   3.504   2.284
 7826SOL     OW24376   6.949   0.388   0.752
 7826SOL    HW124377   6.998   0.301   0.750
 7826SOL    HW224378   6.869   0.383   0.692
 7827SOL     OW24379   5.481   4.761   1.650
 7827SOL    HW124380   5.452   4.736   1.743
 7827SOL    HW224381   5.413   4.729   1.584
 7828SOL     OW24382   0.304   6.354   0.698
 7828SOL    HW124383   0.383   6.373   0.755
 7828SOL    HW224384   0.258   6.440   0.675
 7829SOL     OW24385   4.061   2.751   1.732
 7829SOL    HW124386   4.076   2.662   1.688
 7829SOL    HW224387   3.963   2.767   1.742
 7830SOL     OW24388   6.279   2.563   6.825
 7830SOL    HW124389   6.343   2.623   6.776
 7830SOL    HW224390   6.192   2.611   6.838
 7831SOL     OW24391   1.947   3.120   6.987
 7831SOL    HW124392   2.023   3.091   0.019
 7831SOL    HW224393   1.860   3.100   0.006
 7832SOL     OW24394   2.477   2.537   5.356
 7832SOL    HW124395   2.544   2.611   5.365
 7832SOL    HW224396   2.386   2.576   5.346
 7833SOL     OW24397   0.338   6.808   0.058
 7833SOL    HW124398   0.259   6.804   0.118
 7833SOL    HW224399   0.393   6.889   0.079
 7834SOL     OW24400   0.769   0.551   1.251
 7834SOL    HW124401   0.764   0.624   1.320
 7834SOL    HW224402   0.856   0.558   1.202
 7835SOL     OW24403   2.208   2.545   5.026
 7835SOL    HW124404   2.239   2.633   5.062
 7835SOL    HW224405   2.223   2.474   5.094
 7836SOL     OW24406   1.921   6.593   0.191
 7836SOL    HW124407   1.881   6.655   0.258
 7836SOL    HW224408   1.975   6.645   0.126
 7837SOL     OW24409   6.155   6.991   2.918
 7837SOL    HW124410   6.218   0.027   2.873
 7837SOL    HW224411   6.101   6.943   2.850
 7838SOL     OW24412   3.724   0.199   4.052
 7838SOL    HW124413   3.677   0.283   4.025
 7838SOL    HW224414   3.704   0.180   4.148
 7839SOL     OW24415   6.327   4.649   4.545
 7839SOL    HW124416   6.359   4.586   4.615
 7839SOL    HW224417   6.370   4.739   4.559
 7840SOL     OW24418   5.987   3.290   5.008
 7840SOL    HW124419   6.039   3.210   5.039
 7840SOL    HW224420   5.891   3.280   5.035
 7841SOL     OW24421   0.953   1.963   6.501
 7841SOL    HW124422   0.895   1.999   6.428
 7841SOL    HW224423   0.949   2.026   6.579
 7842SOL     OW24424   2.840   0.929   2.788
 7842SOL    HW124425   2.838   0.980   2.874
 7842SOL    HW224426   2.930   0.888   2.776
 7843SOL     OW24427   5.218   3.241   0.846
 7843SOL    HW124428   5.301   3.192   0.821
 7843SOL    HW224429   5.240   3.337   0.863
 7844SOL     OW24430   4.245   1.160   3.423
 7844SOL    HW124431   4.159   1.113   3.444
 7844SOL    HW224432   4.234   1.258   3.442
 7845SOL     OW24433   6.871   1.423   4.083
 7845SOL    HW124434   6.971   1.419   4.081
 7845SOL    HW224435   6.840   1.515   4.060
 7846SOL     OW24436   2.911   6.960   2.311
 7846SOL    HW124437   3.002   6.972   2.271
 7846SOL    HW224438   2.912   6.993   2.405
 7847SOL     OW24439   6.763   0.665   0.449
 7847SOL    HW124440   6.834   0.623   0.392
 7847SOL    HW224441   6.783   0.646   0.546
 7848SOL     OW24442   5.162   4.032   1.502
 7848SOL    HW124443   5.123   3.940   1.500
 7848SOL    HW224444   5.089   4.100   1.510
 7849SOL     OW24445   6.507   3.887   5.304
 7849SOL    HW124446   6.426   3.836   5.334
 7849SOL    HW224447   6.565   3.906   5.383
 7850SOL     OW24448   1.390   0.798   4.913
 7850SOL    HW124449   1.435   0.710   4.925
 7850SOL    HW224450   1.312   0.804   4.975
 7851SOL     OW24451   5.625   6.686   6.780
 7851SOL    HW124452   5.571   6.658   6.701
 7851SOL    HW224453   5.722   6.683   6.755
 7852SOL     OW24454   2.493   6.017   0.226
 7852SOL    HW124455   2.403   6.061   0.237
 7852SOL    HW224456   2.516   5.967   0.309
 7853SOL     OW24457   2.677   3.049   0.205
 7853SOL    HW124458   2.603   3.093   0.154
 7853SOL    HW224459   2.672   3.075   0.301
 7854SOL     OW24460   3.476   4.105   2.223
 7854SOL    HW124461   3.459   4.155   2.138
 7854SOL    HW224462   3.571   4.073   2.224
 7855SOL     OW24463   4.419   6.231   5.706
 7855SOL    HW124464   4.494   6.205   5.767
 7855SOL    HW224465   4.368   6.307   5.747
 7856SOL     OW24466   5.124   3.296   6.151
 7856SOL    HW124467   5.049   3.285   6.086
 7856SOL    HW224468   5.124   3.390   6.186
 7857SOL     OW24469   6.942   1.477   5.604
 7857SOL    HW124470   0.009   1.509   5.595
 7857SOL    HW224471   6.915   1.430   5.520
 7858SOL     OW24472   6.354   3.884   2.904
 7858SOL    HW124473   6.321   3.814   2.968
 7858SOL    HW224474   6.296   3.965   2.911
 7859SOL     OW24475   1.137   5.734   6.946
 7859SOL    HW124476   1.074   5.663   6.976
 7859SOL    HW224477   1.211   5.742   7.012
 7860SOL     OW24478   3.981   6.847   1.988
 7860SOL    HW124479   3.990   6.934   2.037
 7860SOL    HW224480   4.032   6.776   2.036
 7861SOL     OW24481   4.807   4.726   0.382
 7861SOL    HW124482   4.728   4.733   0.321
 7861SOL    HW224483   4.867   4.652   0.350
 7862SOL     OW24484   3.134   4.616   1.693
 7862SOL    HW124485   3.193   4.660   1.762
 7862SOL    HW224486   3.076   4.548   1.737
 7863SOL     OW24487   6.617   5.854   2.145
 7863SOL    HW124488   6.670   5.938   2.130
 7863SOL    HW224489   6.675   5.785   2.187
 7864SOL     OW24490   0.293   5.404   4.746
 7864SOL    HW124491   0.363   5.393   4.815
 7864SOL    HW224492   0.292   5.499   4.714
 7865SOL     OW24493   3.256   7.012   3.392
 7865SOL    HW124494   3.171   0.018   3.434
 7865SOL    HW224495   3.333   0.037   3.429
 7866SOL     OW24496   2.666   1.935   4.198
 7866SOL    HW124497   2.725   1.996   4.145
 7866SOL    HW224498   2.659   1.969   4.292
 7867SOL     OW24499   5.886   4.170   2.058
 7867SOL    HW124500   5.903   4.098   1.990
 7867SOL    HW224501   5.971   4.190   2.107
 7868SOL     OW24502   5.561   6.399   0.402
 7868SOL    HW124503   5.496   6.450   0.346
 7868SOL    HW224504   5.606   6.461   0.466
 7869SOL     OW24505   0.636   3.450   1.787
 7869SOL    HW124506   0.652   3.433   1.884
 7869SOL    HW224507   0.692   3.527   1.757
 7870SOL     OW24508   6.849   5.716   3.857
 7870SOL    HW124509   6.880   5.732   3.950
 7870SOL    HW224510   6.840   5.803   3.809
 7871SOL     OW24511   5.016   2.987   3.171
 7871SOL    HW124512   4.955   3.051   3.125
 7871SOL    HW224513   5.002   2.895   3.135
 7872SOL     OW24514   0.096   3.184   3.107
 7872SOL    HW124515   0.077   3.280   3.089
 7872SOL    HW224516   0.010   3.133   3.109
 7873SOL     OW24517   0.196   4.979   5.451
 7873SOL    HW124518   0.173   4.883   5.469
 7873SOL    HW224519   0.294   4.987   5.430
 7874SOL     OW24520   5.727   1.243   0.896
 7874SOL    HW124521   5.796   1.287   0.952
 7874SOL    HW224522   5.765   1.222   0.806
 7875SOL     OW24523   3.977   3.166   6.470
 7875SOL    HW124524   4.003   3.147   6.375
 7875SOL    HW224525   3.896   3.225   6.472
 7876SOL     OW24526   6.060   0.448   3.630
 7876SOL    HW124527   6.099   0.540   3.625
 7876SOL    HW224528   6.020   0.434   3.721
 7877SOL     OW24529   6.866   2.120   2.658
 7877SOL    HW124530   6.807   2.198   2.639
 7877SOL    HW224531   6.962   2.149   2.658
 7878SOL     OW24532   4.848   3.731   1.848
 7878SOL    HW124533   4.809   3.656   1.794
 7878SOL    HW224534   4.920   3.696   1.907
 7879SOL     OW24535   5.149   0.520   4.011
 7879SOL    HW124536   5.083   0.595   4.003
 7879SOL    HW224537   5.235   0.547   3.967
 7880SOL     OW24538   0.453   6.990   6.452
 7880SOL    HW124539   0.391   7.025   6.381
 7880SOL    HW224540   0.432   6.894   6.470
 7881SOL     OW24541   7.026   4.969   4.257
 7881SOL    HW124542   0.054   5.052   4.252
 7881SOL    HW224543   6.987   4.960   4.349
 7882SOL     OW24544   6.641   4.054   2.989
 7882SOL    HW124545   6.551   4.079   3.027
 7882SOL    HW224546   6.713   4.101   3.039
 7883SOL     OW24547   3.408   1.666   3.985
 7883SOL    HW124548   3.407   1.645   3.888
 7883SOL    HW224549   3.329   1.625   4.029
 7884SOL     OW24550   0.571   4.436   4.634
 7884SOL    HW124551   0.662   4.394   4.644
 7884SOL    HW224552   0.581   4.535   4.629
 7885SOL     OW24553   6.046   5.348   3.039
 7885SOL    HW124554   6.032   5.428   3.097
 7885SOL    HW224555   5.965   5.334   2.980
 7886SOL     OW24556   4.877   2.832   2.402
 7886SOL    HW124557   4.903   2.888   2.324
 7886SOL    HW224558   4.937   2.853   2.479
 7887SOL     OW24559   3.186   3.433   0.534
 7887SOL    HW124560   3.132   3.349   0.541
 7887SOL    HW224561   3.197   3.458   0.438
 7888SOL     OW24562   5.282   2.272   4.174
 7888SOL    HW124563   5.192   2.241   4.205
 7888SOL    HW224564   5.285   2.271   4.074
 7889SOL     OW24565   5.797   4.871   0.850
 7889SOL    HW124566   5.764   4.965   0.846
 7889SOL    HW224567   5.728   4.809   0.814
 7890SOL     OW24568   1.205   3.442   4.627
 7890SOL    HW124569   1.188   3.362   4.686
 7890SOL    HW224570   1.304   3.456   4.620
 7891SOL     OW24571   0.654   2.038   4.507
 7891SOL    HW124572   0.727   2.098   4.539
 7891SOL    HW224573   0.575   2.093   4.479
 7892SOL     OW24574   1.027   2.777   5.809
 7892SOL    HW124575   0.953   2.839   5.784
 7892SOL    HW224576   1.115   2.825   5.802
 7893SOL     OW24577   6.200   0.735   0.396
 7893SOL    HW124578   6.137   0.797   0.349
 7893SOL    HW224579   6.147   0.664   0.442
 7894SOL     OW24580   3.138   1.412   6.499
 7894SOL    HW124581   3.053   1.443   6.542
 7894SOL    HW224582   3.116   1.348   6.425
 7895SOL     OW24583   4.299   6.656   3.713
 7895SOL    HW124584   4.291   6.705   3.799
 7895SOL    HW224585   4.354   6.574   3.726
 7896SOL     OW24586   3.214   1.890   1.191
 7896SOL    HW124587   3.147   1.956   1.222
 7896SOL    HW224588   3.241   1.911   1.097
 7897SOL     OW24589   3.943   3.994   0.008
 7897SOL    HW124590   3.943   3.923   0.078
 7897SOL    HW224591   3.849   4.013   7.007
 7898SOL     OW24592   5.552   0.537   4.132
 7898SOL    HW124593   5.584   0.458   4.184
 7898SOL    HW224594   5.534   0.510   4.037
 7899SOL     OW24595   5.095   4.301   2.054
 7899SOL    HW124596   5.140   4.365   1.991
 7899SOL    HW224597   5.015   4.261   2.010
 7900SOL     OW24598   0.697   3.997   0.796
 7900SOL    HW124599   0.632   3.954   0.859
 7900SOL    HW224600   0.787   4.000   0.839
 7901SOL     OW24601   6.233   1.427   5.993
 7901SOL    HW124602   6.302   1.458   5.928
 7901SOL    HW224603   6.204   1.334   5.969
 7902SOL     OW24604   0.414   6.452   3.192
 7902SOL    HW124605   0.377   6.401   3.114
 7902SOL    HW224606   0.511   6.432   3.202
 7903SOL     OW24607   2.478   2.306   5.102
 7903SOL    HW124608   2.539   2.345   5.171
 7903SOL    HW224609   2.530   2.289   5.018
 7904SOL     OW24610   5.284   0.604   1.855
 7904SOL    HW124611   5.370   0.646   1.826
 7904SOL    HW224612   5.209   0.669   1.841
 7905SOL     OW24613   5.359   0.609   0.492
 7905SOL    HW124614   5.378   0.654   0.405
 7905SOL    HW224615   5.424   0.534   0.506
 7906SOL     OW24616   1.797   5.520   0.871
 7906SOL    HW124617   1.886   5.517   0.915
 7906SOL    HW224618   1.726   5.537   0.939
 7907SOL     OW24619   6.214   0.321   2.963
 7907SOL    HW124620   6.223   0.291   3.058
 7907SOL    HW224621   6.274   0.268   2.905
 7908SOL     OW24622   6.916   0.648   6.864
 7908SOL    HW124623   6.898   0.689   6.953
 7908SOL    HW224624   6.850   0.575   6.847
 7909SOL     OW24625   5.467   4.052   2.152
 7909SOL    HW124626   5.390   4.101   2.192
 7909SOL    HW224627   5.544   4.052   2.217
 7910SOL     OW24628   1.972   3.768   0.752
 7910SOL    HW124629   1.880   3.806   0.742
 7910SOL    HW224630   1.985   3.694   0.686
 7911SOL     OW24631   0.893   4.097   1.073
 7911SOL    HW124632   0.898   4.194   1.049
 7911SOL    HW224633   0.811   4.081   1.128
 7912SOL     OW24634   5.586   5.610   0.348
 7912SOL    HW124635   5.586   5.522   0.301
 7912SOL    HW224636   5.587   5.595   0.447
 7913SOL     OW24637   0.749   3.748   1.164
 7913SOL    HW124638   0.714   3.841   1.163
 7913SOL    HW224639   0.674   3.684   1.148
 7914SOL     OW24640   6.257   5.425   5.011
 7914SOL    HW124641   6.324   5.355   4.990
 7914SOL    HW224642   6.191   5.433   4.936
 7915SOL     OW24643   3.640   6.643   3.075
 7915SOL    HW124644   3.556   6.644   3.129
 7915SOL    HW224645   3.668   6.548   3.060
 7916SOL     OW24646   1.771   0.707   4.350
 7916SOL    HW124647   1.771   0.612   4.321
 7916SOL    HW224648   1.715   0.717   4.432
 7917SOL     OW24649   4.149   3.359   0.778
 7917SOL    HW124650   4.133   3.422   0.702
 7917SOL    HW224651   4.062   3.322   0.810
 7918SOL     OW24652   2.436   1.122   4.743
 7918SOL    HW124653   2.353   1.154   4.789
 7918SOL    HW224654   2.513   1.129   4.806
 7919SOL     OW24655   1.583   5.998   2.669
 7919SOL    HW124656   1.504   5.938   2.680
 7919SOL    HW224657   1.579   6.043   2.580
 7920SOL     OW24658   4.842   6.710   0.838
 7920SOL    HW124659   4.934   6.696   0.800
 7920SOL    HW224660   4.846   6.704   0.938
 7921SOL     OW24661   4.975   1.545   1.995
 7921SOL    HW124662   4.992   1.472   1.928
 7921SOL    HW224663   4.877   1.561   2.002
 7922SOL     OW24664   0.486   5.648   1.247
 7922SOL    HW124665   0.536   5.732   1.269
 7922SOL    HW224666   0.426   5.664   1.168
 7923SOL     OW24667   3.881   1.312   0.376
 7923SOL    HW124668   3.842   1.230   0.335
 7923SOL    HW224669   3.958   1.344   0.321
 7924SOL     OW24670   6.164   0.041   0.473
 7924SOL    HW124671   6.133   0.067   0.382
 7924SOL    HW224672   6.084   0.024   0.532
 7925SOL     OW24673   1.997   6.484   0.616
 7925SOL    HW124674   1.967   6.410   0.676
 7925SOL    HW224675   1.918   6.522   0.568
 7926SOL     OW24676   4.266   5.779   6.609
 7926SOL    HW124677   4.167   5.788   6.605
 7926SOL    HW224678   4.306   5.819   6.527
 7927SOL     OW24679   4.522   6.773   1.618
 7927SOL    HW124680   4.435   6.759   1.570
 7927SOL    HW224681   4.518   6.728   1.707
 7928SOL     OW24682   6.603   1.346   3.131
 7928SOL    HW124683   6.518   1.397   3.147
 7928SOL    HW224684   6.680   1.409   3.134
 7929SOL     OW24685   3.721   4.380   5.603
 7929SOL    HW124686   3.632   4.335   5.615
 7929SOL    HW224687   3.706   4.476   5.577
 7930SOL     OW24688   4.220   5.841   5.355
 7930SOL    HW124689   4.126   5.858   5.386
 7930SOL    HW224690   4.218   5.814   5.259
 7931SOL     OW24691   3.299   2.273   0.516
 7931SOL    HW124692   3.283   2.217   0.434
 7931SOL    HW224693   3.247   2.358   0.509
 7932SOL     OW24694   0.776   5.363   2.026
 7932SOL    HW124695   0.838   5.303   2.076
 7932SOL    HW224696   0.738   5.431   2.089
 7933SOL     OW24697   0.478   0.886   6.024
 7933SOL    HW124698   0.457   0.968   6.078
 7933SOL    HW224699   0.406   0.818   6.037
 7934SOL     OW24700   0.993   4.729   1.034
 7934SOL    HW124701   1.010   4.815   0.987
 7934SOL    HW224702   0.897   4.725   1.062
 7935SOL     OW24703   5.677   3.041   2.586
 7935SOL    HW124704   5.586   3.018   2.622
 7935SOL    HW224705   5.680   3.018   2.489
 7936SOL     OW24706   3.386   5.984   4.182
 7936SOL    HW124707   3.333   5.899   4.178
 7936SOL    HW224708   3.329   6.060   4.151
 7937SOL     OW24709   2.951   6.792   6.768
 7937SOL    HW124710   3.048   6.777   6.745
 7937SOL    HW224711   2.928   6.742   6.851
 7938SOL     OW24712   3.468   6.429   4.741
 7938SOL    HW124713   3.478   6.507   4.680
 7938SOL    HW224714   3.503   6.346   4.697
 7939SOL     OW24715   0.599   1.766   4.489
 7939SOL    HW124716   0.623   1.863   4.493
 7939SOL    HW224717   0.525   1.753   4.423
 7940SOL     OW24718   4.704   0.751   3.259
 7940SOL    HW124719   4.693   0.655   3.231
 7940SOL    HW224720   4.759   0.799   3.191
 7941SOL     OW24721   3.964   6.666   1.551
 7941SOL    HW124722   3.897   6.657   1.478
 7941SOL    HW224723   3.966   6.761   1.583
 7942SOL     OW24724   1.757   4.551   1.536
 7942SOL    HW124725   1.834   4.487   1.530
 7942SOL    HW224726   1.740   4.592   1.447
 7943SOL     OW24727   1.318   5.955   6.303
 7943SOL    HW124728   1.368   6.028   6.256
 7943SOL    HW224729   1.371   5.924   6.382
 7944SOL     OW24730   1.842   2.744   0.698
 7944SOL    HW124731   1.835   2.745   0.798
 7944SOL    HW224732   1.792   2.665   0.662
 7945SOL     OW24733   5.842   4.615   2.864
 7945SOL    HW124734   5.843   4.526   2.911
 7945SOL    HW224735   5.763   4.668   2.895
 7946SOL     OW24736   3.691   1.329   5.602
 7946SOL    HW124737   3.664   1.280   5.684
 7946SOL    HW224738   3.624   1.311   5.529
 7947SOL     OW24739   1.304   3.158   5.377
 7947SOL    HW124740   1.402   3.143   5.369
 7947SOL    HW224741   1.268   3.187   5.288
 7948SOL     OW24742   1.303   4.646   2.289
 7948SOL    HW124743   1.339   4.553   2.293
 7948SOL    HW224744   1.316   4.683   2.197
 7949SOL     OW24745   3.330   5.265   6.582
 7949SOL    HW124746   3.382   5.332   6.635
 7949SOL    HW224747   3.327   5.179   6.632
 7950SOL     OW24748   5.811   5.154   5.330
 7950SOL    HW124749   5.906   5.131   5.350
 7950SOL    HW224750   5.808   5.239   5.277
 7951SOL     OW24751   2.771   5.566   3.089
 7951SOL    HW124752   2.710   5.487   3.088
 7951SOL    HW224753   2.815   5.573   3.179
 7952SOL     OW24754   4.687   3.219   6.911
 7952SOL    HW124755   4.629   3.240   6.833
 7952SOL    HW224756   4.681   3.122   6.933
 7953SOL     OW24757   2.711   0.810   1.045
 7953SOL    HW124758   2.759   0.744   0.987
 7953SOL    HW224759   2.612   0.797   1.034
 7954SOL     OW24760   3.540   3.288   0.084
 7954SOL    HW124761   3.576   3.262   0.174
 7954SOL    HW224762   3.504   3.381   0.088
 7955SOL     OW24763   1.690   0.574   6.669
 7955SOL    HW124764   1.710   0.498   6.731
 7955SOL    HW224765   1.592   0.572   6.646
 7956SOL     OW24766   6.415   6.217   1.074
 7956SOL    HW124767   6.469   6.299   1.093
 7956SOL    HW224768   6.328   6.221   1.124
 7957SOL     OW24769   4.550   0.634   5.528
 7957SOL    HW124770   4.535   0.538   5.504
 7957SOL    HW224771   4.464   0.674   5.561
 7958SOL     OW24772   5.578   2.404   0.083
 7958SOL    HW124773   5.585   2.350   7.026
 7958SOL    HW224774   5.521   2.355   0.149
 7959SOL     OW24775   5.582   1.438   6.230
 7959SOL    HW124776   5.578   1.470   6.135
 7959SOL    HW224777   5.541   1.348   6.237
 7960SOL     OW24778   0.343   0.596   5.348
 7960SOL    HW124779   0.332   0.581   5.249
 7960SOL    HW224780   0.266   0.650   5.382
 7961SOL     OW24781   6.940   0.562   0.294
 7961SOL    HW124782   6.960   0.471   0.257
 7961SOL    HW224783   7.017   0.593   0.349
 7962SOL     OW24784   6.020   0.171   5.652
 7962SOL    HW124785   6.073   0.087   5.653
 7962SOL    HW224786   5.926   0.152   5.681
 7963SOL     OW24787   0.129   5.133   5.199
 7963SOL    HW124788   0.186   5.127   5.117
 7963SOL    HW224789   0.183   5.106   5.279
 7964SOL     OW24790   6.174   3.728   2.595
 7964SOL    HW124791   6.109   3.735   2.671
 7964SOL    HW224792   6.261   3.692   2.628
 7965SOL     OW24793   3.903   1.655   6.464
 7965SOL    HW124794   3.845   1.619   6.537
 7965SOL    HW224795   3.999   1.638   6.486
 7966SOL     OW24796   4.799   3.911   5.164
 7966SOL    HW124797   4.710   3.941   5.198
 7966SOL    HW224798   4.798   3.812   5.150
 7967SOL     OW24799   1.192   4.917   2.631
 7967SOL    HW124800   1.206   4.848   2.702
 7967SOL    HW224801   1.190   4.874   2.541
 7968SOL     OW24802   6.595   1.959   4.075
 7968SOL    HW124803   6.672   2.018   4.102
 7968SOL    HW224804   6.568   1.903   4.153
 7969SOL     OW24805   4.618   5.471   6.948
 7969SOL    HW124806   4.579   5.389   6.907
 7969SOL    HW224807   4.689   5.445   7.014
 7970SOL     OW24808   5.990   2.526   2.520
 7970SOL    HW124809   5.938   2.558   2.441
 7970SOL    HW224810   6.069   2.586   2.534
 7971SOL     OW24811   3.094   0.918   0.414
 7971SOL    HW124812   3.169   0.984   0.407
 7971SOL    HW224813   3.093   0.860   0.332
 7972SOL     OW24814   3.834   3.658   3.182
 7972SOL    HW124815   3.770   3.734   3.196
 7972SOL    HW224816   3.926   3.688   3.209
 7973SOL     OW24817   6.765   3.799   2.934
 7973SOL    HW124818   6.783   3.757   3.023
 7973SOL    HW224819   6.709   3.881   2.947
 7974SOL     OW24820   6.425   1.992   5.316
 7974SOL    HW124821   6.409   1.902   5.357
 7974SOL    HW224822   6.524   2.011   5.314
 7975SOL     OW24823   5.135   0.607   0.899
 7975SOL    HW124824   5.228   0.616   0.864
 7975SOL    HW224825   5.071   0.605   0.822
 7976SOL     OW24826   0.691   0.103   6.554
 7976SOL    HW124827   0.747   0.140   6.480
 7976SOL    HW224828   0.612   0.055   6.515
 7977SOL     OW24829   5.531   6.009   2.824
 7977SOL    HW124830   5.531   6.068   2.744
 7977SOL    HW224831   5.609   6.032   2.882
 7978SOL     OW24832   0.219   4.880   0.780
 7978SOL    HW124833   0.202   4.948   0.851
 7978SOL    HW224834   0.202   4.788   0.817
 7979SOL     OW24835   1.261   3.158   4.656
 7979SOL    HW124836   1.291   3.192   4.745
 7979SOL    HW224837   1.297   3.217   4.583
 7980SOL     OW24838   4.194   5.022   6.714
 7980SOL    HW124839   4.103   5.019   6.754
 7980SOL    HW224840   4.186   5.039   6.615
 7981SOL     OW24841   1.689   4.543   3.537
 7981SOL    HW124842   1.652   4.525   3.628
 7981SOL    HW224843   1.728   4.635   3.534
 7982SOL     OW24844   0.766   1.709   5.954
 7982SOL    HW124845   0.814   1.744   5.873
 7982SOL    HW224846   0.669   1.700   5.935
 7983SOL     OW24847   4.926   0.878   1.594
 7983SOL    HW124848   4.844   0.824   1.612
 7983SOL    HW224849   4.902   0.975   1.588
 7984SOL     OW24850   1.333   1.920   2.006
 7984SOL    HW124851   1.381   1.908   2.094
 7984SOL    HW224852   1.258   1.854   2.001
 7985SOL     OW24853   2.141   1.912   5.539
 7985SOL    HW124854   2.046   1.890   5.516
 7985SOL    HW224855   2.151   1.913   5.638
 7986SOL     OW24856   2.403   1.352   3.633
 7986SOL    HW124857   2.422   1.416   3.558
 7986SOL    HW224858   2.382   1.403   3.716
 7987SOL     OW24859   1.466   3.246   0.908
 7987SOL    HW124860   1.426   3.269   0.819
 7987SOL    HW224861   1.394   3.238   0.976
 7988SOL     OW24862   0.396   1.777   0.814
 7988SOL    HW124863   0.475   1.729   0.776
 7988SOL    HW224864   0.426   1.841   0.885
 7989SOL     OW24865   1.111   4.770   0.425
 7989SOL    HW124866   1.133   4.868   0.431
 7989SOL    HW224867   1.071   4.740   0.512
 7990SOL     OW24868   3.143   5.150   5.537
 7990SOL    HW124869   3.113   5.102   5.454
 7990SOL    HW224870   3.150   5.085   5.612
 7991SOL     OW24871   5.880   1.717   4.852
 7991SOL    HW124872   5.898   1.649   4.923
 7991SOL    HW224873   5.815   1.784   4.886
 7992SOL     OW24874   2.668   0.486   0.756
 7992SOL    HW124875   2.751   0.532   0.725
 7992SOL    HW224876   2.663   0.491   0.856
 7993SOL     OW24877   6.708   5.876   1.333
 7993SOL    HW124878   6.779   5.946   1.344
 7993SOL    HW224879   6.730   5.798   1.392
 7994SOL     OW24880   5.368   0.543   3.055
 7994SOL    HW124881   5.455   0.589   3.071
 7994SOL    HW224882   5.302   0.572   3.125
 7995SOL     OW24883   0.011   4.663   1.500
 7995SOL    HW124884   0.050   4.600   1.433
 7995SOL    HW224885   0.083   4.719   1.540
 7996SOL     OW24886   3.565   0.635   2.737
 7996SOL    HW124887   3.640   0.662   2.676
 7996SOL    HW224888   3.603   0.594   2.820
 7997SOL     OW24889   0.897   2.329   0.251
 7997SOL    HW124890   0.815   2.384   0.267
 7997SOL    HW224891   0.920   2.279   0.334
 7998SOL     OW24892   2.645   1.056   0.333
 7998SOL    HW124893   2.703   0.988   0.377
 7998SOL    HW224894   2.701   1.121   0.282
 7999SOL     OW24895   1.107   1.113   5.479
 7999SOL    HW124896   1.082   1.108   5.383
 7999SOL    HW224897   1.028   1.143   5.533
 8000SOL     OW24898   5.729   5.585   6.941
 8000SOL    HW124899   5.729   5.497   6.988
 8000SOL    HW224900   5.792   5.582   6.864
 8001SOL     OW24901   4.849   0.006   1.245
 8001SOL    HW124902   4.818   6.989   1.161
 8001SOL    HW224903   4.799   0.092   1.256
 8002SOL     OW24904   0.834   6.758   5.342
 8002SOL    HW124905   0.870   6.811   5.419
 8002SOL    HW224906   0.884   6.782   5.259
 8003SOL     OW24907   2.488   6.578   3.181
 8003SOL    HW124908   2.440   6.513   3.239
 8003SOL    HW224909   2.519   6.532   3.098
 8004SOL     OW24910   0.992   3.294   3.906
 8004SOL    HW124911   1.033   3.213   3.948
 8004SOL    HW224912   1.029   3.306   3.814
 8005SOL     OW24913   2.476   0.671   3.528
 8005SOL    HW124914   2.445   0.603   3.461
 8005SOL    HW224915   2.416   0.750   3.526
 8006SOL     OW24916   3.474   4.497   5.423
 8006SOL    HW124917   3.477   4.595   5.442
 8006SOL    HW224918   3.559   4.469   5.379
 8007SOL     OW24919   6.119   1.042   0.018
 8007SOL    HW124920   6.084   1.126   7.003
 8007SOL    HW224921   6.153   1.063   0.109
 8008SOL     OW24922   5.122   6.457   6.153
 8008SOL    HW124923   5.082   6.421   6.069
 8008SOL    HW224924   5.167   6.382   6.203
 8009SOL     OW24925   5.128   1.194   6.846
 8009SOL    HW124926   5.033   1.167   6.833
 8009SOL    HW224927   5.158   1.167   6.937
 8010SOL     OW24928   2.181   2.533   5.413
 8010SOL    HW124929   2.084   2.535   5.439
 8010SOL    HW224930   2.189   2.495   5.321
 8011SOL     OW24931   4.168   1.899   1.976
 8011SOL    HW124932   4.207   1.873   2.065
 8011SOL    HW224933   4.070   1.916   1.986
 8012SOL     OW24934   0.880   3.068   5.333
 8012SOL    HW124935   0.959   3.008   5.340
 8012SOL    HW224936   0.890   3.128   5.253
 8013SOL     OW24937   2.118   2.707   3.246
 8013SOL    HW124938   2.177   2.678   3.171
 8013SOL    HW224939   2.143   2.657   3.329
 8014SOL     OW24940   1.581   1.029   2.594
 8014SOL    HW124941   1.608   0.937   2.624
 8014SOL    HW224942   1.513   1.066   2.658
 8015SOL     OW24943   2.035   0.035   5.365
 8015SOL    HW124944   2.054   6.978   5.417
 8015SOL    HW224945   1.936   0.043   5.351
 8016SOL     OW24946   4.709   1.474   5.332
 8016SOL    HW124947   4.683   1.456   5.237
 8016SOL    HW224948   4.648   1.424   5.393
 8017SOL     OW24949   6.537   6.696   0.615
 8017SOL    HW124950   6.557   6.756   0.693
 8017SOL    HW224951   6.577   6.606   0.632
 8018SOL     OW24952   4.522   1.833   6.773
 8018SOL    HW124953   4.531   1.929   6.800
 8018SOL    HW224954   4.437   1.796   6.813
 8019SOL     OW24955   3.153   3.189   0.796
 8019SOL    HW124956   3.243   3.194   0.838
 8019SOL    HW224957   3.128   3.093   0.779
 8020SOL     OW24958   0.244   0.161   4.939
 8020SOL    HW124959   0.249   0.251   4.896
 8020SOL    HW224960   0.295   0.161   5.025
 8021SOL     OW24961   1.613   2.220   2.574
 8021SOL    HW124962   1.601   2.256   2.666
 8021SOL    HW224963   1.704   2.246   2.539
 8022SOL     OW24964   4.653   1.343   1.899
 8022SOL    HW124965   4.617   1.329   1.991
 8022SOL    HW224966   4.656   1.442   1.879
 8023SOL     OW24967   4.669   6.119   3.428
 8023SOL    HW124968   4.597   6.095   3.363
 8023SOL    HW224969   4.749   6.154   3.378
 8024SOL     OW24970   2.204   6.688   6.439
 8024SOL    HW124971   2.177   6.779   6.472
 8024SOL    HW224972   2.237   6.633   6.515
 8025SOL     OW24973   1.899   5.126   1.349
 8025SOL    HW124974   1.967   5.161   1.415
 8025SOL    HW224975   1.885   5.028   1.364
 8026SOL     OW24976   1.031   5.913   6.790
 8026SOL    HW124977   1.069   5.831   6.832
 8026SOL    HW224978   0.979   5.888   6.708
 8027SOL     OW24979   3.512   6.784   6.891
 8027SOL    HW124980   3.509   6.733   6.977
 8027SOL    HW224981   3.607   6.789   6.859
 8028SOL     OW24982   2.742   5.719   5.209
 8028SOL    HW124983   2.799   5.650   5.254
 8028SOL    HW224984   2.646   5.697   5.223
 8029SOL     OW24985   6.448   0.540   0.663
 8029SOL    HW124986   6.363   0.527   0.714
 8029SOL    HW224987   6.459   0.637   0.643
 8030SOL     OW24988   0.106   4.442   0.540
 8030SOL    HW124989   0.013   4.444   0.503
 8030SOL    HW224990   0.105   4.399   0.631
 8031SOL     OW24991   6.972   0.923   2.405
 8031SOL    HW124992   0.028   0.871   2.427
 8031SOL    HW224993   6.985   0.970   2.318
 8032SOL     OW24994   5.531   2.674   1.577
 8032SOL    HW124995   5.466   2.623   1.634
 8032SOL    HW224996   5.601   2.716   1.635
 8033SOL     OW24997   4.339   3.750   0.997
 8033SOL    HW124998   4.403   3.811   0.951
 8033SOL    HW224999   4.372   3.655   0.989
 8034SOL     OW25000   5.679   0.646   5.438
 8034SOL    HW125001   5.752   0.639   5.371
 8034SOL    HW225002   5.684   0.569   5.502
 8035SOL     OW25003   5.553   1.760   2.967
 8035SOL    HW125004   5.604   1.846   2.967
 8035SOL    HW225005   5.603   1.692   3.021
 8036SOL     OW25006   6.297   2.768   3.518
 8036SOL    HW125007   6.321   2.818   3.601
 8036SOL    HW225008   6.306   2.670   3.535
 8037SOL     OW25009   0.576   2.647   6.122
 8037SOL    HW125010   0.640   2.583   6.080
 8037SOL    HW225011   0.486   2.605   6.128
 8038SOL     OW25012   6.669   5.885   2.560
 8038SOL    HW125013   6.645   5.960   2.497
 8038SOL    HW225014   6.653   5.915   2.654
 8039SOL     OW25015   1.208   1.966   4.903
 8039SOL    HW125016   1.115   2.001   4.889
 8039SOL    HW225017   1.229   1.900   4.831
 8040SOL     OW25018   1.811   5.232   6.373
 8040SOL    HW125019   1.827   5.139   6.408
 8040SOL    HW225020   1.847   5.298   6.439
 8041SOL     OW25021   3.587   1.899   3.055
 8041SOL    HW125022   3.675   1.886   3.010
 8041SOL    HW225023   3.591   1.981   3.112
 8042SOL     OW25024   3.980   4.308   5.493
 8042SOL    HW125025   3.908   4.371   5.520
 8042SOL    HW225026   3.948   4.214   5.502
 8043SOL     OW25027   5.334   4.764   0.194
 8043SOL    HW125028   5.322   4.780   0.096
 8043SOL    HW225029   5.347   4.666   0.210
 8044SOL     OW25030   3.226   3.560   1.232
 8044SOL    HW125031   3.236   3.461   1.241
 8044SOL    HW225032   3.153   3.592   1.293
 8045SOL     OW25033   0.736   1.226   2.834
 8045SOL    HW125034   0.705   1.283   2.911
 8045SOL    HW225035   0.673   1.237   2.757
 8046SOL     OW25036   0.269   5.136   2.362
 8046SOL    HW125037   0.319   5.198   2.301
 8046SOL    HW225038   0.312   5.136   2.452
 8047SOL     OW25039   4.106   6.499   5.670
 8047SOL    HW125040   4.189   6.529   5.625
 8047SOL    HW225041   4.049   6.579   5.693
 8048SOL     OW25042   3.769   3.524   0.170
 8048SOL    HW125043   3.806   3.450   0.115
 8048SOL    HW225044   3.815   3.526   0.259
 8049SOL     OW25045   1.873   0.218   0.920
 8049SOL    HW125046   1.829   0.296   0.965
 8049SOL    HW225047   1.968   0.240   0.901
 8050SOL     OW25048   1.568   4.277   5.070
 8050SOL    HW125049   1.666   4.259   5.067
 8050SOL    HW225050   1.552   4.368   5.110
 8051SOL     OW25051   3.869   5.716   4.307
 8051SOL    HW125052   3.832   5.701   4.399
 8051SOL    HW225053   3.816   5.788   4.261
 8052SOL     OW25054   2.299   2.660   2.188
 8052SOL    HW125055   2.298   2.562   2.173
 8052SOL    HW225056   2.358   2.682   2.266
 8053SOL     OW25057   2.477   2.874   6.060
 8053SOL    HW125058   2.400   2.925   6.022
 8053SOL    HW225059   2.443   2.808   6.127
 8054SOL     OW25060   5.583   4.168   5.082
 8054SOL    HW125061   5.572   4.230   5.159
 8054SOL    HW225062   5.553   4.213   4.998
 8055SOL     OW25063   0.108   0.655   4.821
 8055SOL    HW125064   0.035   0.616   4.877
 8055SOL    HW225065   0.075   0.737   4.775
 8056SOL     OW25066   2.885   0.954   4.611
 8056SOL    HW125067   2.966   0.963   4.553
 8056SOL    HW225068   2.813   1.016   4.579
 8057SOL     OW25069   2.636   2.372   2.097
 8057SOL    HW125070   2.729   2.360   2.062
 8057SOL    HW225071   2.639   2.422   2.183
 8058SOL     OW25072   3.136   6.751   3.398
 8058SOL    HW125073   3.136   6.709   3.307
 8058SOL    HW225074   3.175   6.843   3.393
 8059SOL     OW25075   2.744   3.303   6.433
 8059SOL    HW125076   2.674   3.242   6.396
 8059SOL    HW225077   2.715   3.338   6.522
 8060SOL     OW25078   6.503   0.368   5.352
 8060SOL    HW125079   6.569   0.319   5.295
 8060SOL    HW225080   6.466   0.306   5.421
 8061SOL     OW25081   0.393   1.225   2.081
 8061SOL    HW125082   0.339   1.148   2.117
 8061SOL    HW225083   0.332   1.292   2.038
 8062SOL     OW25084   4.708   6.002   5.184
 8062SOL    HW125085   4.620   5.963   5.210
 8062SOL    HW225086   4.694   6.082   5.125
 8063SOL     OW25087   3.424   6.675   3.226
 8063SOL    HW125088   3.406   6.631   3.314
 8063SOL    HW225089   3.338   6.703   3.184
 8064SOL     OW25090   5.979   2.470   6.943
 8064SOL    HW125091   5.885   2.442   6.921
 8064SOL    HW225092   5.978   2.542   7.011
 8065SOL     OW25093   3.275   6.619   5.127
 8065SOL    HW125094   3.322   6.636   5.214
 8065SOL    HW225095   3.342   6.600   5.056
 8066SOL     OW25096   0.216   0.242   4.380
 8066SOL    HW125097   0.261   0.254   4.291
 8066SOL    HW225098   0.217   0.145   4.405
 8067SOL     OW25099   4.912   3.144   3.774
 8067SOL    HW125100   4.936   3.064   3.718
 8067SOL    HW225101   4.902   3.116   3.869
 8068SOL     OW25102   6.390   4.338   1.306
 8068SOL    HW125103   6.373   4.252   1.258
 8068SOL    HW225104   6.306   4.393   1.307
 8069SOL     OW25105   2.559   4.577   2.426
 8069SOL    HW125106   2.638   4.600   2.369
 8069SOL    HW225107   2.571   4.618   2.517
 8070SOL     OW25108   5.538   4.512   6.985
 8070SOL    HW125109   5.547   4.577   0.033
 8070SOL    HW225110   5.503   4.425   7.019
 8071SOL     OW25111   3.335   6.499   6.010
 8071SOL    HW125112   3.361   6.565   5.940
 8071SOL    HW225113   3.235   6.494   6.017
 8072SOL     OW25114   2.139   2.703   6.458
 8072SOL    HW125115   2.226   2.729   6.500
 8072SOL    HW225116   2.064   2.749   6.506
 8073SOL     OW25117   3.863   0.181   6.209
 8073SOL    HW125118   3.790   0.214   6.148
 8073SOL    HW225119   3.833   0.097   6.255
 8074SOL     OW25120   1.559   1.260   0.033
 8074SOL    HW125121   1.645   1.293   7.021
 8074SOL    HW225122   1.529   1.178   7.012
 8075SOL     OW25123   0.382   6.448   0.080
 8075SOL    HW125124   0.404   6.531   0.132
 8075SOL    HW225125   0.454   6.380   0.094
 8076SOL     OW25126   6.730   6.672   0.203
 8076SOL    HW125127   6.760   6.601   0.266
 8076SOL    HW225128   6.631   6.664   0.188
 8077SOL     OW25129   4.094   5.423   0.820
 8077SOL    HW125130   4.181   5.385   0.786
 8077SOL    HW225131   4.075   5.386   0.911
 8078SOL     OW25132   0.512   0.717   1.316
 8078SOL    HW125133   0.605   0.730   1.348
 8078SOL    HW225134   0.448   0.749   1.386
 8079SOL     OW25135   1.825   1.795   4.855
 8079SOL    HW125136   1.784   1.854   4.785
 8079SOL    HW225137   1.897   1.739   4.814
 8080SOL     OW25138   1.046   3.478   2.573
 8080SOL    HW125139   1.084   3.543   2.507
 8080SOL    HW225140   1.019   3.394   2.526
 8081SOL     OW25141   5.946   5.396   4.805
 8081SOL    HW125142   5.949   5.384   4.705
 8081SOL    HW225143   5.996   5.321   4.849
 8082SOL     OW25144   3.187   2.152   2.435
 8082SOL    HW125145   3.163   2.070   2.488
 8082SOL    HW225146   3.281   2.178   2.454
 8083SOL     OW25147   5.750   1.826   5.207
 8083SOL    HW125148   5.838   1.835   5.160
 8083SOL    HW225149   5.723   1.915   5.245
 8084SOL     OW25150   2.749   0.280   6.486
 8084SOL    HW125151   2.841   0.248   6.511
 8084SOL    HW225152   2.721   0.352   6.549
 8085SOL     OW25153   0.315   5.868   4.587
 8085SOL    HW125154   0.227   5.911   4.571
 8085SOL    HW225155   0.388   5.925   4.548
 8086SOL     OW25156   0.448   1.582   2.170
 8086SOL    HW125157   0.440   1.560   2.073
 8086SOL    HW225158   0.497   1.508   2.216
 8087SOL     OW25159   1.183   0.676   0.131
 8087SOL    HW125160   1.232   0.682   0.043
 8087SOL    HW225161   1.192   0.763   0.180
 8088SOL     OW25162   5.137   6.977   5.722
 8088SOL    HW125163   5.199   0.012   5.770
 8088SOL    HW225164   5.074   0.002   5.666
 8089SOL     OW25165   5.819   2.327   5.905
 8089SOL    HW125166   5.729   2.367   5.922
 8089SOL    HW225167   5.852   2.283   5.988
 8090SOL     OW25168   4.071   2.004   6.665
 8090SOL    HW125169   4.150   2.058   6.634
 8090SOL    HW225170   3.987   2.045   6.632
 8091SOL     OW25171   1.281   4.654   4.761
 8091SOL    HW125172   1.246   4.724   4.823
 8091SOL    HW225173   1.361   4.610   4.803
 8092SOL     OW25174   5.207   2.203   5.742
 8092SOL    HW125175   5.130   2.141   5.759
 8092SOL    HW225176   5.293   2.153   5.751
 8093SOL     OW25177   3.293   6.643   2.361
 8093SOL    HW125178   3.255   6.574   2.299
 8093SOL    HW225179   3.328   6.720   2.308
 8094SOL     OW25180   1.301   4.097   4.323
 8094SOL    HW125181   1.388   4.145   4.333
 8094SOL    HW225182   1.227   4.156   4.356
 8095SOL     OW25183   1.482   4.420   5.448
 8095SOL    HW125184   1.458   4.334   5.405
 8095SOL    HW225185   1.469   4.413   5.547
 8096SOL     OW25186   0.836   6.676   2.298
 8096SOL    HW125187   0.815   6.624   2.381
 8096SOL    HW225188   0.807   6.623   2.218
 8097SOL     OW25189   2.864   6.035   5.324
 8097SOL    HW125190   2.860   6.019   5.226
 8097SOL    HW225191   2.958   6.024   5.356
 8098SOL     OW25192   1.066   5.291   4.132
 8098SOL    HW125193   1.128   5.216   4.105
 8098SOL    HW225194   1.007   5.259   4.206
 8099SOL     OW25195   2.925   5.706   4.786
 8099SOL    HW125196   2.947   5.775   4.717
 8099SOL    HW225197   2.831   5.675   4.773
 8100SOL     OW25198   6.872   0.764   6.409
 8100SOL    HW125199   6.835   0.773   6.501
 8100SOL    HW225200   6.888   0.668   6.388
 8101SOL     OW25201   2.082   6.324   1.413
 8101SOL    HW125202   2.174   6.319   1.452
 8101SOL    HW225203   2.014   6.311   1.485
 8102SOL     OW25204   0.679   2.912   4.309
 8102SOL    HW125205   0.696   3.000   4.264
 8102SOL    HW225206   0.631   2.851   4.246
 8103SOL     OW25207   3.522   1.614   2.245
 8103SOL    HW125208   3.530   1.533   2.303
 8103SOL    HW225209   3.589   1.683   2.275
 8104SOL     OW25210   2.305   6.506   6.627
 8104SOL    HW125211   2.284   6.410   6.645
 8104SOL    HW225212   2.403   6.515   6.608
 8105SOL     OW25213   6.881   1.675   2.475
 8105SOL    HW125214   6.829   1.591   2.491
 8105SOL    HW225215   6.897   1.722   2.562
 8106SOL     OW25216   1.919   5.858   4.840
 8106SOL    HW125217   1.831   5.890   4.875
 8106SOL    HW225218   1.915   5.760   4.824
 8107SOL     OW25219   1.539   5.377   5.172
 8107SOL    HW125220   1.581   5.318   5.241
 8107SOL    HW225221   1.610   5.425   5.121
 8108SOL     OW25222   0.240   0.953   6.836
 8108SOL    HW125223   0.167   1.014   6.804
 8108SOL    HW225224   0.200   0.881   6.893
 8109SOL     OW25225   6.486   3.512   6.588
 8109SOL    HW125226   6.551   3.540   6.518
 8109SOL    HW225227   6.524   3.434   6.640
 8110SOL     OW25228   4.566   5.229   0.571
 8110SOL    HW125229   4.583   5.244   0.473
 8110SOL    HW225230   4.652   5.230   0.620
 8111SOL     OW25231   5.830   0.851   2.977
 8111SOL    HW125232   5.852   0.948   2.984
 8111SOL    HW225233   5.911   0.796   2.997
 8112SOL     OW25234   0.834   2.434   5.502
 8112SOL    HW125235   0.816   2.527   5.470
 8112SOL    HW225236   0.930   2.411   5.485
 8113SOL     OW25237   6.094   2.417   0.878
 8113SOL    HW125238   6.035   2.432   0.798
 8113SOL    HW225239   6.043   2.368   0.948
 8114SOL     OW25240   1.597   4.505   1.781
 8114SOL    HW125241   1.522   4.452   1.741
 8114SOL    HW225242   1.666   4.522   1.710
 8115SOL     OW25243   2.696   6.745   0.012
 8115SOL    HW125244   2.667   6.722   0.105
 8115SOL    HW225245   2.789   6.782   0.014
 8116SOL     OW25246   3.458   4.998   1.288
 8116SOL    HW125247   3.457   5.021   1.385
 8116SOL    HW225248   3.458   4.899   1.278
 8117SOL     OW25249   2.617   0.100   2.800
 8117SOL    HW125250   2.640   0.074   2.893
 8117SOL    HW225251   2.615   0.200   2.793
 8118SOL     OW25252   6.349   3.284   6.967
 8118SOL    HW125253   6.349   3.195   7.012
 8118SOL    HW225254   6.386   3.353   0.002
 8119SOL     OW25255   6.262   5.828   6.283
 8119SOL    HW125256   6.332   5.884   6.238
 8119SOL    HW225257   6.276   5.732   6.260
 8120SOL     OW25258   1.825   6.152   0.504
 8120SOL    HW125259   1.795   6.138   0.409
 8120SOL    HW225260   1.753   6.122   0.567
 8121SOL     OW25261   1.184   3.751   3.044
 8121SOL    HW125262   1.166   3.709   2.955
 8121SOL    HW225263   1.171   3.850   3.037
 8122SOL     OW25264   1.089   4.240   2.533
 8122SOL    HW125265   1.106   4.210   2.439
 8122SOL    HW225266   1.133   4.328   2.548
 8123SOL     OW25267   0.226   2.058   6.260
 8123SOL    HW125268   0.183   2.101   6.181
 8123SOL    HW225269   0.268   1.972   6.232
 8124SOL     OW25270   5.254   5.193   3.711
 8124SOL    HW125271   5.336   5.162   3.664
 8124SOL    HW225272   5.280   5.240   3.796
 8125SOL     OW25273   0.819   0.174   3.272
 8125SOL    HW125274   0.765   0.095   3.298
 8125SOL    HW225275   0.788   0.255   3.323
 8126SOL     OW25276   3.810   5.292   4.066
 8126SOL    HW125277   3.802   5.367   4.130
 8126SOL    HW225278   3.719   5.260   4.040
 8127SOL     OW25279   3.129   2.708   0.306
 8127SOL    HW125280   3.151   2.798   0.345
 8127SOL    HW225281   3.030   2.699   0.298
 8128SOL     OW25282   3.098   3.046   2.475
 8128SOL    HW125283   3.158   2.989   2.418
 8128SOL    HW225284   3.105   3.017   2.570
 8129SOL     OW25285   1.363   2.553   0.641
 8129SOL    HW125286   1.354   2.553   0.541
 8129SOL    HW225287   1.432   2.487   0.669
 8130SOL     OW25288   1.305   5.543   6.848
 8130SOL    HW125289   1.244   5.615   6.882
 8130SOL    HW225290   1.399   5.576   6.850
 8131SOL     OW25291   2.080   2.961   0.962
 8131SOL    HW125292   1.988   2.927   0.944
 8131SOL    HW225293   2.117   3.004   0.879
 8132SOL     OW25294   6.404   0.239   4.038
 8132SOL    HW125295   6.469   0.312   4.060
 8132SOL    HW225296   6.368   0.253   3.946
 8133SOL     OW25297   3.829   5.086   1.246
 8133SOL    HW125298   3.752   5.040   1.291
 8133SOL    HW225299   3.850   5.040   1.160
 8134SOL     OW25300   6.435   0.497   5.105
 8134SOL    HW125301   6.484   0.471   5.188
 8134SOL    HW225302   6.449   0.426   5.035
 8135SOL     OW25303   2.926   7.027   2.001
 8135SOL    HW125304   2.837   6.983   1.995
 8135SOL    HW225305   2.996   6.966   1.963
 8136SOL     OW25306   4.680   4.800   2.469
 8136SOL    HW125307   4.656   4.757   2.555
 8136SOL    HW225308   4.700   4.730   2.401
 8137SOL     OW25309   4.055   1.761   4.914
 8137SOL    HW125310   4.013   1.806   4.993
 8137SOL    HW225311   4.126   1.699   4.945
 8138SOL     OW25312   5.610   0.956   1.866
 8138SOL    HW125313   5.674   0.928   1.937
 8138SOL    HW225314   5.659   1.005   1.794
 8139SOL     OW25315   1.264   1.344   2.579
 8139SOL    HW125316   1.240   1.418   2.642
 8139SOL    HW225317   1.333   1.377   2.514
 8140SOL     OW25318   4.267   0.871   3.922
 8140SOL    HW125319   4.342   0.858   3.857
 8140SOL    HW225320   4.180   0.858   3.875
 8141SOL     OW25321   4.254   5.447   5.587
 8141SOL    HW125322   4.239   5.349   5.572
 8141SOL    HW225323   4.196   5.479   5.662
 8142SOL     OW25324   5.620   4.469   0.496
 8142SOL    HW125325   5.613   4.372   0.521
 8142SOL    HW225326   5.625   4.524   0.580
 8143SOL     OW25327   5.611   4.163   6.075
 8143SOL    HW125328   5.683   4.217   6.118
 8143SOL    HW225329   5.548   4.130   6.145
 8144SOL     OW25330   5.706   0.001   6.919
 8144SOL    HW125331   5.801   0.020   6.944
 8144SOL    HW225332   5.699   6.936   6.881
 8145SOL     OW25333   6.354   5.660   2.736
 8145SOL    HW125334   6.354   5.700   2.645
 8145SOL    HW225335   6.288   5.586   2.741
 8146SOL     OW25336   3.495   0.955   5.817
 8146SOL    HW125337   3.472   1.020   5.889
 8146SOL    HW225338   3.513   1.004   5.732
 8147SOL     OW25339   4.453   2.303   4.400
 8147SOL    HW125340   4.501   2.216   4.391
 8147SOL    HW225341   4.498   2.360   4.468
 8148SOL     OW25342   5.453   2.653   2.887
 8148SOL    HW125343   5.357   2.625   2.887
 8148SOL    HW225344   5.462   2.742   2.841
 8149SOL     OW25345   3.971   5.175   2.781
 8149SOL    HW125346   4.036   5.101   2.759
 8149SOL    HW225347   3.878   5.138   2.782
 8150SOL     OW25348   0.877   5.232   0.315
 8150SOL    HW125349   0.930   5.282   0.383
 8150SOL    HW225350   0.931   5.220   0.232
 8151SOL     OW25351   1.346   2.153   4.459
 8151SOL    HW125352   1.304   2.239   4.487
 8151SOL    HW225353   1.445   2.158   4.472
 8152SOL     OW25354   1.898   0.566   3.704
 8152SOL    HW125355   1.806   0.587   3.670
 8152SOL    HW225356   1.965   0.622   3.656
 8153SOL     OW25357   2.631   6.816   1.308
 8153SOL    HW125358   2.613   6.822   1.406
 8153SOL    HW225359   2.578   6.741   1.269
 8154SOL     OW25360   1.799   6.272   3.892
 8154SOL    HW125361   1.713   6.299   3.848
 8154SOL    HW225362   1.875   6.289   3.829
 8155SOL     OW25363   3.101   3.016   2.750
 8155SOL    HW125364   3.104   3.110   2.786
 8155SOL    HW225365   3.158   2.957   2.807
 8156SOL     OW25366   5.726   1.018   5.270
 8156SOL    HW125367   5.669   1.031   5.350
 8156SOL    HW225368   5.777   0.932   5.279
 8157SOL     OW25369   5.762   3.886   6.762
 8157SOL    HW125370   5.710   3.971   6.766
 8157SOL    HW225371   5.799   3.873   6.671
 8158SOL     OW25372   1.353   5.590   1.474
 8158SOL    HW125373   1.386   5.495   1.475
 8158SOL    HW225374   1.269   5.595   1.420
 8159SOL     OW25375   2.097   5.093   1.809
 8159SOL    HW125376   2.040   5.113   1.888
 8159SOL    HW225377   2.173   5.034   1.836
 8160SOL     OW25378   4.474   1.881   1.598
 8160SOL    HW125379   4.428   1.922   1.677
 8160SOL    HW225380   4.513   1.953   1.540
 8161SOL     OW25381   5.058   1.126   0.117
 8161SOL    HW125382   4.988   1.103   0.050
 8161SOL    HW225383   5.049   1.223   0.141
 8162SOL     OW25384   5.615   6.575   1.118
 8162SOL    HW125385   5.640   6.497   1.174
 8162SOL    HW225386   5.687   6.645   1.124
 8163SOL     OW25387   2.412   4.582   5.174
 8163SOL    HW125388   2.374   4.674   5.183
 8163SOL    HW225389   2.416   4.539   5.264
 8164SOL     OW25390   4.124   2.531   1.525
 8164SOL    HW125391   4.079   2.458   1.577
 8164SOL    HW225392   4.161   2.493   1.440
 8165SOL     OW25393   2.131   4.111   1.431
 8165SOL    HW125394   2.127   4.158   1.520
 8165SOL    HW225395   2.092   4.020   1.440
 8166SOL     OW25396   2.762   0.642   1.979
 8166SOL    HW125397   2.822   0.648   1.899
 8166SOL    HW225398   2.670   0.673   1.955
 8167SOL     OW25399   6.082   2.643   4.019
 8167SOL    HW125400   6.016   2.686   3.957
 8167SOL    HW225401   6.034   2.604   4.098
 8168SOL     OW25402   3.669   1.320   3.010
 8168SOL    HW125403   3.624   1.405   2.984
 8168SOL    HW225404   3.635   1.290   3.099
 8169SOL     OW25405   4.191   3.691   6.969
 8169SOL    HW125406   4.093   3.700   6.953
 8169SOL    HW225407   4.222   3.602   6.935
 8170SOL     OW25408   0.698   5.750   4.054
 8170SOL    HW125409   0.640   5.755   3.973
 8170SOL    HW225410   0.783   5.703   4.031
 8171SOL     OW25411   0.759   2.032   6.009
 8171SOL    HW125412   0.824   1.982   6.066
 8171SOL    HW225413   0.803   2.060   5.924
 8172SOL     OW25414   0.525   6.550   0.609
 8172SOL    HW125415   0.581   6.632   0.606
 8172SOL    HW225416   0.532   6.501   0.522
 8173SOL     OW25417   3.789   2.955   0.162
 8173SOL    HW125418   3.887   2.933   0.160
 8173SOL    HW225419   3.737   2.871   0.180
 8174SOL     OW25420   5.492   0.734   1.777
 8174SOL    HW125421   5.550   0.673   1.723
 8174SOL    HW225422   5.547   0.809   1.813
 8175SOL     OW25423   0.655   1.998   6.491
 8175SOL    HW125424   0.673   2.050   6.407
 8175SOL    HW225425   0.663   2.059   6.570
 8176SOL     OW25426   2.468   5.557   1.889
 8176SOL    HW125427   2.517   5.632   1.933
 8176SOL    HW225428   2.442   5.490   1.959
 8177SOL     OW25429   0.077   6.551   4.684
 8177SOL    HW125430   7.024   6.498   4.712
 8177SOL    HW225431   0.136   6.567   4.763
 8178SOL     OW25432   1.532   6.258   6.592
 8178SOL    HW125433   1.551   6.160   6.581
 8178SOL    HW225434   1.619   6.309   6.594
 8179SOL     OW25435   3.507   2.989   0.187
 8179SOL    HW125436   3.604   2.986   0.160
 8179SOL    HW225437   3.496   3.051   0.264
 8180SOL     OW25438   6.723   6.760   4.966
 8180SOL    HW125439   6.667   6.725   5.041
 8180SOL    HW225440   6.818   6.735   4.980
 8181SOL     OW25441   2.332   2.089   3.324
 8181SOL    HW125442   2.312   2.183   3.297
 8181SOL    HW225443   2.381   2.042   3.251
 8182SOL     OW25444   4.338   2.121   5.179
 8182SOL    HW125445   4.298   2.176   5.253
 8182SOL    HW225446   4.424   2.080   5.211
 8183SOL     OW25447   1.634   3.740   4.544
 8183SOL    HW125448   1.671   3.785   4.625
 8183SOL    HW225449   1.550   3.786   4.516
 8184SOL     OW25450   6.914   6.854   5.257
 8184SOL    HW125451   6.937   6.943   5.218
 8184SOL    HW225452   6.852   6.866   5.335
 8185SOL     OW25453   3.277   1.537   2.138
 8185SOL    HW125454   3.191   1.580   2.109
 8185SOL    HW225455   3.338   1.607   2.175
 8186SOL     OW25456   3.864   6.059   5.892
 8186SOL    HW125457   3.949   6.007   5.884
 8186SOL    HW225458   3.885   6.156   5.895
 8187SOL     OW25459   1.829   1.404   5.172
 8187SOL    HW125460   1.803   1.346   5.094
 8187SOL    HW225461   1.883   1.482   5.139
 8188SOL     OW25462   6.287   2.502   3.180
 8188SOL    HW125463   6.248   2.519   3.089
 8188SOL    HW225464   6.309   2.590   3.223
 8189SOL     OW25465   6.144   4.321   2.833
 8189SOL    HW125466   6.170   4.374   2.752
 8189SOL    HW225467   6.107   4.232   2.804
 8190SOL     OW25468   5.087   3.634   4.221
 8190SOL    HW125469   5.155   3.706   4.229
 8190SOL    HW225470   5.040   3.643   4.133
 8191SOL     OW25471   0.893   5.367   3.938
 8191SOL    HW125472   0.939   5.327   3.859
 8191SOL    HW225473   0.946   5.348   4.021
 8192SOL     OW25474   1.969   4.731   2.174
 8192SOL    HW125475   2.047   4.792   2.192
 8192SOL    HW225476   2.002   4.640   2.151
 8193SOL     OW25477   3.958   6.889   5.176
 8193SOL    HW125478   3.958   6.916   5.080
 8193SOL    HW225479   4.008   6.803   5.187
 8194SOL     OW25480   6.435   0.598   0.222
 8194SOL    HW125481   6.398   0.684   0.258
 8194SOL    HW225482   6.506   0.617   0.154
 8195SOL     OW25483   6.801   6.461   0.378
 8195SOL    HW125484   6.774   6.377   0.424
 8195SOL    HW225485   6.898   6.479   0.395
 8196SOL     OW25486   2.877   6.751   5.966
 8196SOL    HW125487   2.885   6.844   5.931
 8196SOL    HW225488   2.806   6.747   6.035
 8197SOL     OW25489   0.641   0.539   6.166
 8197SOL    HW125490   0.595   0.528   6.255
 8197SOL    HW225491   0.582   0.502   6.094
 8198SOL     OW25492   2.844   6.897   3.143
 8198SOL    HW125493   2.820   6.991   3.168
 8198SOL    HW225494   2.788   6.833   3.196
 8199SOL     OW25495   6.811   3.324   0.039
 8199SOL    HW125496   6.811   3.249   7.001
 8199SOL    HW225497   6.889   3.384   0.022
 8200SOL     OW25498   5.495   4.247   1.055
 8200SOL    HW125499   5.444   4.190   0.990
 8200SOL    HW225500   5.530   4.190   1.129
 8201SOL     OW25501   5.816   7.004   3.101
 8201SOL    HW125502   5.781   6.987   3.193
 8201SOL    HW225503   5.822   0.075   3.084
 8202SOL     OW25504   1.350   4.037   3.722
 8202SOL    HW125505   1.293   4.053   3.641
 8202SOL    HW225506   1.444   4.064   3.702
 8203SOL     OW25507   5.832   3.553   1.363
 8203SOL    HW125508   5.809   3.537   1.267
 8203SOL    HW225509   5.749   3.551   1.418
 8204SOL     OW25510   3.634   0.249   1.528
 8204SOL    HW125511   3.664   0.214   1.617
 8204SOL    HW225512   3.537   0.228   1.514
 8205SOL     OW25513   5.672   5.432   2.093
 8205SOL    HW125514   5.645   5.341   2.061
 8205SOL    HW225515   5.734   5.424   2.171
 8206SOL     OW25516   4.589   1.978   4.821
 8206SOL    HW125517   4.520   1.933   4.763
 8206SOL    HW225518   4.593   1.931   4.909
 8207SOL     OW25519   2.745   5.970   6.886
 8207SOL    HW125520   2.672   5.970   6.818
 8207SOL    HW225521   2.790   5.880   6.886
 8208SOL     OW25522   1.644   4.383   1.008
 8208SOL    HW125523   1.685   4.459   0.958
 8208SOL    HW225524   1.598   4.322   0.944
 8209SOL     OW25525   0.492   0.253   5.040
 8209SOL    HW125526   0.552   0.333   5.048
 8209SOL    HW225527   0.524   0.181   5.102
 8210SOL     OW25528   2.522   1.355   0.417
 8210SOL    HW125529   2.548   1.378   0.323
 8210SOL    HW225530   2.513   1.255   0.426
 8211SOL     OW25531   3.355   2.964   4.367
 8211SOL    HW125532   3.435   2.927   4.414
 8211SOL    HW225533   3.371   2.964   4.269
 8212SOL     OW25534   3.389   0.216   1.047
 8212SOL    HW125535   3.394   0.298   0.991
 8212SOL    HW225536   3.412   0.136   0.992
 8213SOL     OW25537   4.533   4.003   1.677
 8213SOL    HW125538   4.521   3.922   1.734
 8213SOL    HW225539   4.510   4.085   1.731
 8214SOL     OW25540   3.907   5.762   4.716
 8214SOL    HW125541   3.855   5.705   4.653
 8214SOL    HW225542   3.891   5.731   4.810
 8215SOL     OW25543   4.220   6.883   6.918
 8215SOL    HW125544   4.129   6.841   6.919
 8215SOL    HW225545   4.220   6.965   6.975
 8216SOL     OW25546   5.440   5.171   1.482
 8216SOL    HW125547   5.444   5.266   1.512
 8216SOL    HW225548   5.533   5.134   1.475
 8217SOL     OW25549   2.074   6.234   3.796
 8217SOL    HW125550   2.129   6.162   3.755
 8217SOL    HW225551   2.105   6.250   3.890
 8218SOL     OW25552   1.690   6.827   4.933
 8218SOL    HW125553   1.620   6.864   4.993
 8218SOL    HW225554   1.772   6.805   4.986
 8219SOL     OW25555   3.704   3.697   1.046
 8219SOL    HW125556   3.656   3.766   1.100
 8219SOL    HW225557   3.803   3.710   1.056
 8220SOL     OW25558   3.959   3.225   4.281
 8220SOL    HW125559   3.970   3.223   4.182
 8220SOL    HW225560   4.027   3.286   4.321
 8221SOL     OW25561   5.767   3.450   3.416
 8221SOL    HW125562   5.701   3.506   3.467
 8221SOL    HW225563   5.821   3.395   3.479
 8222SOL     OW25564   6.054   3.565   0.520
 8222SOL    HW125565   6.145   3.525   0.532
 8222SOL    HW225566   6.062   3.662   0.499
 8223SOL     OW25567   0.848   5.901   5.260
 8223SOL    HW125568   0.942   5.868   5.273
 8223SOL    HW225569   0.819   5.882   5.166
 8224SOL     OW25570   5.421   1.649   0.423
 8224SOL    HW125571   5.408   1.558   0.384
 8224SOL    HW225572   5.380   1.652   0.515
 8225SOL     OW25573   5.292   1.360   0.857
 8225SOL    HW125574   5.332   1.343   0.767
 8225SOL    HW225575   5.260   1.273   0.896
 8226SOL     OW25576   4.133   0.363   0.473
 8226SOL    HW125577   4.221   0.330   0.438
 8226SOL    HW225578   4.119   0.458   0.444
 8227SOL     OW25579   4.770   2.191   3.185
 8227SOL    HW125580   4.807   2.100   3.164
 8227SOL    HW225581   4.803   2.257   3.117
 8228SOL     OW25582   2.040   0.584   4.725
 8228SOL    HW125583   1.950   0.610   4.762
 8228SOL    HW225584   2.053   0.625   4.635
 8229SOL     OW25585   4.947   4.177   0.950
 8229SOL    HW125586   4.851   4.150   0.949
 8229SOL    HW225587   5.004   4.097   0.966
 8230SOL     OW25588   6.003   0.685   6.276
 8230SOL    HW125589   5.948   0.636   6.208
 8230SOL    HW225590   5.942   0.730   6.342
 8231SOL     OW25591   2.302   1.360   2.514
 8231SOL    HW125592   2.334   1.440   2.565
 8231SOL    HW225593   2.379   1.300   2.492
 8232SOL     OW25594   3.442   5.959   2.881
 8232SOL    HW125595   3.515   5.980   2.946
 8232SOL    HW225596   3.377   5.897   2.924
 8233SOL     OW25597   0.878   1.216   6.027
 8233SOL    HW125598   0.874   1.118   6.007
 8233SOL    HW225599   0.882   1.267   5.941
 8234SOL     OW25600   1.051   2.099   0.649
 8234SOL    HW125601   1.117   2.104   0.574
 8234SOL    HW225602   1.091   2.048   0.725
 8235SOL     OW25603   0.667   5.876   1.274
 8235SOL    HW125604   0.693   5.949   1.211
 8235SOL    HW225605   0.727   5.878   1.354
 8236SOL     OW25606   0.497   6.465   0.861
 8236SOL    HW125607   0.416   6.508   0.901
 8236SOL    HW225608   0.504   6.491   0.764
 8237SOL     OW25609   4.242   4.909   0.369
 8237SOL    HW125610   4.160   4.950   0.328
 8237SOL    HW225611   4.324   4.942   0.322
 8238SOL     OW25612   0.754   4.064   0.389
 8238SOL    HW125613   0.739   3.967   0.410
 8238SOL    HW225614   0.696   4.120   0.449
 8239SOL     OW25615   1.767   1.146   5.371
 8239SOL    HW125616   1.669   1.164   5.382
 8239SOL    HW225617   1.812   1.227   5.334
 8240SOL     OW25618   3.539   3.665   4.529
 8240SOL    HW125619   3.631   3.704   4.519
 8240SOL    HW225620   3.502   3.689   4.618
 8241SOL     OW25621   1.887   3.958   6.162
 8241SOL    HW125622   1.890   3.862   6.134
 8241SOL    HW225623   1.792   3.983   6.181
 8242SOL     OW25624   0.948   3.562   3.795
 8242SOL    HW125625   0.985   3.605   3.712
 8242SOL    HW225626   1.021   3.550   3.862
 8243SOL     OW25627   0.147   5.360   4.476
 8243SOL    HW125628   0.180   5.454   4.476
 8243SOL    HW225629   0.096   5.343   4.561
 8244SOL     OW25630   0.717   0.596   4.499
 8244SOL    HW125631   0.724   0.575   4.596
 8244SOL    HW225632   0.809   0.599   4.459
 8245SOL     OW25633   5.356   1.823   3.590
 8245SOL    HW125634   5.314   1.732   3.598
 8245SOL    HW225635   5.341   1.874   3.675
 8246SOL     OW25636   2.255   5.240   6.845
 8246SOL    HW125637   2.177   5.181   6.826
 8246SOL    HW225638   2.226   5.336   6.838
 8247SOL     OW25639   2.833   5.097   2.816
 8247SOL    HW125640   2.819   5.195   2.826
 8247SOL    HW225641   2.762   5.058   2.757
 8248SOL     OW25642   0.331   5.116   3.031
 8248SOL    HW125643   0.286   5.078   3.112
 8248SOL    HW225644   0.386   5.195   3.059
 8249SOL     OW25645   3.341   1.866   6.541
 8249SOL    HW125646   3.311   1.846   6.634
 8249SOL    HW225647   3.360   1.781   6.492
 8250SOL     OW25648   1.196   1.302   0.086
 8250SOL    HW125649   1.137   1.313   0.167
 8250SOL    HW225650   1.283   1.348   0.102
 8251SOL     OW25651   0.416   2.300   4.691
 8251SOL    HW125652   0.329   2.350   4.691
 8251SOL    HW225653   0.456   2.302   4.782
 8252SOL     OW25654   1.387   1.867   6.322
 8252SOL    HW125655   1.444   1.949   6.330
 8252SOL    HW225656   1.378   1.824   6.412
 8253SOL     OW25657   4.937   5.790   0.867
 8253SOL    HW125658   4.900   5.763   0.778
 8253SOL    HW225659   4.979   5.880   0.861
 8254SOL     OW25660   5.186   5.044   6.668
 8254SOL    HW125661   5.221   4.984   6.596
 8254SOL    HW225662   5.162   5.132   6.628
 8255SOL     OW25663   1.084   6.866   6.622
 8255SOL    HW125664   1.136   6.829   6.698
 8255SOL    HW225665   1.078   6.966   6.630
 8256SOL     OW25666   1.280   5.371   3.849
 8256SOL    HW125667   1.212   5.299   3.835
 8256SOL    HW225668   1.241   5.444   3.904
 8257SOL     OW25669   4.919   3.328   3.060
 8257SOL    HW125670   4.965   3.364   2.979
 8257SOL    HW225671   4.934   3.390   3.137
 8258SOL     OW25672   6.730   3.398   1.977
 8258SOL    HW125673   6.745   3.475   2.038
 8258SOL    HW225674   6.632   3.389   1.958
 8259SOL     OW25675   5.360   1.558   4.383
 8259SOL    HW125676   5.454   1.581   4.358
 8259SOL    HW225677   5.359   1.517   4.475
 8260SOL     OW25678   4.075   1.481   1.375
 8260SOL    HW125679   4.148   1.426   1.416
 8260SOL    HW225680   4.066   1.458   1.278
 8261SOL     OW25681   6.019   0.478   2.790
 8261SOL    HW125682   6.088   0.443   2.853
 8261SOL    HW225683   5.927   0.460   2.826
 8262SOL     OW25684   5.989   3.783   1.862
 8262SOL    HW125685   5.985   3.684   1.878
 8262SOL    HW225686   6.030   3.828   1.941
 8263SOL     OW25687   6.882   2.262   5.619
 8263SOL    HW125688   6.859   2.343   5.565
 8263SOL    HW225689   6.977   2.236   5.601
 8264SOL     OW25690   2.650   0.114   3.100
 8264SOL    HW125691   2.563   0.075   3.130
 8264SOL    HW225692   2.705   0.136   3.180
 8265SOL     OW25693   5.302   0.198   0.255
 8265SOL    HW125694   5.261   0.288   0.270
 8265SOL    HW225695   5.238   0.127   0.286
 8266SOL     OW25696   2.420   0.898   3.724
 8266SOL    HW125697   2.356   0.971   3.749
 8266SOL    HW225698   2.505   0.909   3.775
 8267SOL     OW25699   1.646   4.611   2.883
 8267SOL    HW125700   1.706   4.531   2.878
 8267SOL    HW225701   1.645   4.658   2.795
 8268SOL     OW25702   3.361   5.021   6.718
 8268SOL    HW125703   3.419   4.980   6.788
 8268SOL    HW225704   3.380   4.978   6.630
 8269SOL     OW25705   5.860   2.635   3.476
 8269SOL    HW125706   5.850   2.604   3.382
 8269SOL    HW225707   5.925   2.711   3.479
 8270SOL     OW25708   3.742   7.007   6.320
 8270SOL    HW125709   3.722   0.000   6.416
 8270SOL    HW225710   3.660   6.970   6.276
 8271SOL     OW25711   3.771   5.886   6.178
 8271SOL    HW125712   3.780   5.953   6.104
 8271SOL    HW225713   3.855   5.831   6.183
 8272SOL     OW25714   0.646   0.309   1.685
 8272SOL    HW125715   0.584   0.368   1.633
 8272SOL    HW225716   0.729   0.360   1.707
 8273SOL     OW25717   3.621   0.515   6.922
 8273SOL    HW125718   3.599   0.613   6.930
 8273SOL    HW225719   3.537   0.462   6.917
 8274SOL     OW25720   5.616   6.545   6.000
 8274SOL    HW125721   5.683   6.515   5.932
 8274SOL    HW225722   5.643   6.511   6.091
 8275SOL     OW25723   5.584   0.348   3.276
 8275SOL    HW125724   5.544   0.389   3.358
 8275SOL    HW225725   5.677   0.382   3.264
 8276SOL     OW25726   0.405   2.254   6.329
 8276SOL    HW125727   0.337   2.182   6.315
 8276SOL    HW225728   0.494   2.222   6.297
 8277SOL     OW25729   1.296   6.660   6.489
 8277SOL    HW125730   1.218   6.622   6.538
 8277SOL    HW225731   1.270   6.747   6.446
 8278SOL     OW25732   3.768   1.341   6.998
 8278SOL    HW125733   3.790   1.436   6.977
 8278SOL    HW225734   3.773   1.286   6.915
 8279SOL     OW25735   4.855   4.851   5.552
 8279SOL    HW125736   4.891   4.777   5.496
 8279SOL    HW225737   4.898   4.937   5.525
 8280SOL     OW25738   5.206   3.309   0.062
 8280SOL    HW125739   5.263   3.269   0.133
 8280SOL    HW225740   5.114   3.271   0.068
 8281SOL     OW25741   2.684   5.000   0.272
 8281SOL    HW125742   2.658   5.010   0.176
 8281SOL    HW225743   2.745   4.921   0.281
 8282SOL     OW25744   2.950   2.463   0.721
 8282SOL    HW125745   3.002   2.443   0.804
 8282SOL    HW225746   2.894   2.383   0.697
 8283SOL     OW25747   0.196   5.641   3.305
 8283SOL    HW125748   0.116   5.607   3.354
 8283SOL    HW225749   0.167   5.680   3.217
 8284SOL     OW25750   2.857   1.927   2.130
 8284SOL    HW125751   2.845   1.965   2.221
 8284SOL    HW225752   2.908   1.841   2.136
 8285SOL     OW25753   2.881   4.354   6.119
 8285SOL    HW125754   2.973   4.340   6.156
 8285SOL    HW225755   2.813   4.339   6.190
 8286SOL     OW25756   5.279   1.687   5.371
 8286SOL    HW125757   5.282   1.671   5.272
 8286SOL    HW225758   5.298   1.602   5.419
 8287SOL     OW25759   2.110   0.672   3.554
 8287SOL    HW125760   2.127   0.768   3.529
 8287SOL    HW225761   2.109   0.616   3.471
 8288SOL     OW25762   2.183   1.148   3.015
 8288SOL    HW125763   2.194   1.183   2.922
 8288SOL    HW225764   2.101   1.091   3.020
 8289SOL     OW25765   6.665   1.234   5.612
 8289SOL    HW125766   6.572   1.215   5.579
 8289SOL    HW225767   6.659   1.291   5.695
 8290SOL     OW25768   4.623   2.820   1.708
 8290SOL    HW125769   4.652   2.867   1.792
 8290SOL    HW225770   4.525   2.803   1.712
 8291SOL     OW25771   3.921   5.127   6.601
 8291SOL    HW125772   3.927   5.112   6.502
 8291SOL    HW225773   3.984   5.200   6.627
 8292SOL     OW25774   0.654   4.136   4.661
 8292SOL    HW125775   0.685   4.112   4.753
 8292SOL    HW225776   0.731   4.172   4.608
 8293SOL     OW25777   2.877   4.778   4.078
 8293SOL    HW125778   2.933   4.858   4.096
 8293SOL    HW225779   2.780   4.803   4.085
 8294SOL     OW25780   4.629   3.409   5.636
 8294SOL    HW125781   4.557   3.440   5.698
 8294SOL    HW225782   4.597   3.331   5.583
 8295SOL     OW25783   4.890   4.350   1.790
 8295SOL    HW125784   4.825   4.285   1.830
 8295SOL    HW225785   4.840   4.424   1.745
 8296SOL     OW25786   3.766   6.301   1.755
 8296SOL    HW125787   3.742   6.397   1.768
 8296SOL    HW225788   3.744   6.249   1.838
 8297SOL     OW25789   5.695   4.090   3.453
 8297SOL    HW125790   5.762   4.018   3.436
 8297SOL    HW225791   5.741   4.179   3.450
 8298SOL     OW25792   6.639   6.954   5.851
 8298SOL    HW125793   6.735   6.928   5.835
 8298SOL    HW225794   6.579   6.882   5.817
 8299SOL     OW25795   0.292   3.663   0.871
 8299SOL    HW125796   0.247   3.731   0.813
 8299SOL    HW225797   0.338   3.596   0.814
 8300SOL     OW25798   5.045   5.014   2.746
 8300SOL    HW125799   5.057   4.920   2.777
 8300SOL    HW225800   4.977   5.060   2.804
 8301SOL     OW25801   4.879   6.686   0.294
 8301SOL    HW125802   4.969   6.705   0.256
 8301SOL    HW225803   4.869   6.732   0.382
 8302SOL     OW25804   3.381   6.902   5.607
 8302SOL    HW125805   3.436   6.971   5.561
 8302SOL    HW225806   3.389   6.912   5.706
 8303SOL     OW25807   0.064   6.217   2.927
 8303SOL    HW125808   0.076   6.156   3.005
 8303SOL    HW225809   7.020   6.181   2.866
 8304SOL     OW25810   5.497   4.143   3.142
 8304SOL    HW125811   5.458   4.235   3.149
 8304SOL    HW225812   5.590   4.144   3.180
 8305SOL     OW25813   4.834   6.507   4.842
 8305SOL    HW125814   4.920   6.545   4.875
 8305SOL    HW225815   4.850   6.456   4.758
 8306SOL     OW25816   6.555   0.964   1.935
 8306SOL    HW125817   6.551   0.970   1.836
 8306SOL    HW225818   6.651   0.959   1.964
 8307SOL     OW25819   1.490   3.704   2.901
 8307SOL    HW125820   1.407   3.750   2.932
 8307SOL    HW225821   1.470   3.608   2.882
 8308SOL     OW25822   1.490   5.278   0.753
 8308SOL    HW125823   1.576   5.263   0.706
 8308SOL    HW225824   1.477   5.376   0.769
 8309SOL     OW25825   6.041   4.666   4.637
 8309SOL    HW125826   6.061   4.586   4.693
 8309SOL    HW225827   6.124   4.695   4.589
 8310SOL     OW25828   1.121   6.478   0.879
 8310SOL    HW125829   1.022   6.486   0.864
 8310SOL    HW225830   1.147   6.381   0.874
 8311SOL     OW25831   6.029   6.751   3.503
 8311SOL    HW125832   6.058   6.675   3.560
 8311SOL    HW225833   5.948   6.794   3.544
 8312SOL     OW25834   5.334   1.685   0.678
 8312SOL    HW125835   5.413   1.650   0.728
 8312SOL    HW225836   5.251   1.642   0.712
 8313SOL     OW25837   5.639   2.643   5.188
 8313SOL    HW125838   5.719   2.700   5.209
 8313SOL    HW225839   5.558   2.683   5.231
 8314SOL     OW25840   5.214   6.275   4.443
 8314SOL    HW125841   5.295   6.232   4.481
 8314SOL    HW225842   5.192   6.233   4.355
 8315SOL     OW25843   3.816   4.060   4.994
 8315SOL    HW125844   3.892   3.999   4.973
 8315SOL    HW225845   3.807   4.129   4.922
 8316SOL     OW25846   2.366   2.039   6.595
 8316SOL    HW125847   2.439   2.105   6.615
 8316SOL    HW225848   2.317   2.017   6.679
 8317SOL     OW25849   1.699   1.472   3.862
 8317SOL    HW125850   1.620   1.514   3.907
 8317SOL    HW225851   1.779   1.479   3.921
 8318SOL     OW25852   4.638   0.199   0.150
 8318SOL    HW125853   4.691   0.163   0.227
 8318SOL    HW225854   4.587   0.279   0.180
 8319SOL     OW25855   1.115   6.522   6.662
 8319SOL    HW125856   1.107   6.585   6.739
 8319SOL    HW225857   1.176   6.447   6.687
 8320SOL     OW25858   3.147   3.102   4.497
 8320SOL    HW125859   3.158   3.103   4.597
 8320SOL    HW225860   3.233   3.074   4.454
 8321SOL     OW25861   0.591   6.534   1.428
 8321SOL    HW125862   0.547   6.565   1.512
 8321SOL    HW225863   0.535   6.463   1.385
 8322SOL     OW25864   0.743   0.167   0.181
 8322SOL    HW125865   0.718   0.264   0.187
 8322SOL    HW225866   0.661   0.113   0.165
 8323SOL     OW25867   5.880   4.147   0.225
 8323SOL    HW125868   5.956   4.193   0.178
 8323SOL    HW225869   5.838   4.211   0.289
 8324SOL     OW25870   4.702   5.633   6.401
 8324SOL    HW125871   4.738   5.638   6.308
 8324SOL    HW225872   4.777   5.614   6.464
 8325SOL     OW25873   1.248   5.438   6.578
 8325SOL    HW125874   1.149   5.446   6.560
 8325SOL    HW225875   1.272   5.495   6.656
 8326SOL     OW25876   1.318   3.579   0.412
 8326SOL    HW125877   1.279   3.580   0.320
 8326SOL    HW225878   1.417   3.570   0.407
 8327SOL     OW25879   0.565   6.851   4.630
 8327SOL    HW125880   0.522   6.886   4.713
 8327SOL    HW225881   0.562   6.921   4.559
 8328SOL     OW25882   0.990   0.415   0.074
 8328SOL    HW125883   0.958   0.493   0.128
 8328SOL    HW225884   0.994   0.334   0.131
 8329SOL     OW25885   1.884   2.892   4.546
 8329SOL    HW125886   1.826   2.819   4.581
 8329SOL    HW225887   1.851   2.981   4.579
 8330SOL     OW25888   3.911   1.174   6.562
 8330SOL    HW125889   3.982   1.115   6.523
 8330SOL    HW225890   3.952   1.263   6.584
 8331SOL     OW25891   1.837   2.483   6.184
 8331SOL    HW125892   1.885   2.529   6.110
 8331SOL    HW225893   1.862   2.387   6.185
 8332SOL     OW25894   6.006   5.252   1.194
 8332SOL    HW125895   6.089   5.229   1.143
 8332SOL    HW225896   6.024   5.331   1.254
 8333SOL     OW25897   2.263   4.944   0.190
 8333SOL    HW125898   2.341   4.924   0.249
 8333SOL    HW225899   2.278   4.905   0.100
 8334SOL     OW25900   3.843   2.376   6.742
 8334SOL    HW125901   3.894   2.461   6.731
 8334SOL    HW225902   3.780   2.385   6.819
 8335SOL     OW25903   5.345   3.810   6.207
 8335SOL    HW125904   5.289   3.767   6.136
 8335SOL    HW225905   5.421   3.749   6.230
 8336SOL     OW25906   0.985   4.328   4.110
 8336SOL    HW125907   1.034   4.306   4.195
 8336SOL    HW225908   0.942   4.245   4.074
 8337SOL     OW25909   0.640   1.094   4.673
 8337SOL    HW125910   0.619   1.019   4.610
 8337SOL    HW225911   0.680   1.170   4.622
 8338SOL     OW25912   4.080   5.762   2.090
 8338SOL    HW125913   4.046   5.709   2.168
 8338SOL    HW225914   4.178   5.777   2.101
 8339SOL     OW25915   5.951   6.725   0.647
 8339SOL    HW125916   5.979   6.820   0.637
 8339SOL    HW225917   5.974   6.692   0.739
 8340SOL     OW25918   6.314   1.849   6.782
 8340SOL    HW125919   6.382   1.916   6.752
 8340SOL    HW225920   6.257   1.889   6.853
 8341SOL     OW25921   3.756   0.401   0.659
 8341SOL    HW125922   3.667   0.382   0.617
 8341SOL    HW225923   3.767   0.500   0.668
 8342SOL     OW25924   4.546   0.796   6.992
 8342SOL    HW125925   4.524   0.854   0.043
 8342SOL    HW225926   4.645   0.790   6.981
 8343SOL     OW25927   5.363   4.274   3.906
 8343SOL    HW125928   5.330   4.194   3.855
 8343SOL    HW225929   5.421   4.243   3.981
 8344SOL     OW25930   1.308   5.427   5.282
 8344SOL    HW125931   1.293   5.357   5.352
 8344SOL    HW225932   1.401   5.418   5.245
 8345SOL     OW25933   4.352   1.275   2.861
 8345SOL    HW125934   4.270   1.231   2.897
 8345SOL    HW225935   4.425   1.268   2.928
 8346SOL     OW25936   6.236   3.742   5.055
 8346SOL    HW125937   6.324   3.739   5.006
 8346SOL    HW225938   6.202   3.649   5.067
 8347SOL     OW25939   2.737   0.731   0.271
 8347SOL    HW125940   2.760   0.770   0.360
 8347SOL    HW225941   2.638   0.720   0.263
 8348SOL     OW25942   3.314   6.324   1.874
 8348SOL    HW125943   3.239   6.381   1.839
 8348SOL    HW225944   3.346   6.262   1.802
 8349SOL     OW25945   0.271   6.424   2.027
 8349SOL    HW125946   0.334   6.485   2.075
 8349SOL    HW225947   0.313   6.334   2.017
 8350SOL     OW25948   2.414   0.508   0.675
 8350SOL    HW125949   2.511   0.494   0.692
 8350SOL    HW225950   2.401   0.548   0.583
 8351SOL     OW25951   6.713   3.286   3.439
 8351SOL    HW125952   6.617   3.310   3.432
 8351SOL    HW225953   6.766   3.337   3.371
 8352SOL     OW25954   2.436   6.010   2.012
 8352SOL    HW125955   2.386   6.083   2.058
 8352SOL    HW225956   2.372   5.940   1.980
 8353SOL     OW25957   1.579   4.735   2.317
 8353SOL    HW125958   1.487   4.700   2.297
 8353SOL    HW225959   1.614   4.784   2.237
 8354SOL     OW25960   3.024   0.142   3.245
 8354SOL    HW125961   2.973   0.217   3.202
 8354SOL    HW225962   3.085   0.101   3.177
 8355SOL     OW25963   2.470   6.233   6.650
 8355SOL    HW125964   2.374   6.256   6.667
 8355SOL    HW225965   2.518   6.313   6.614
 8356SOL     OW25966   2.203   5.466   0.778
 8356SOL    HW125967   2.230   5.555   0.815
 8356SOL    HW225968   2.123   5.478   0.718
 8357SOL     OW25969   4.453   6.110   5.218
 8357SOL    HW125970   4.482   6.177   5.287
 8357SOL    HW225971   4.367   6.067   5.247
 8358SOL     OW25972   1.179   1.358   4.764
 8358SOL    HW125973   1.161   1.377   4.860
 8358SOL    HW225974   1.225   1.270   4.755
 8359SOL     OW25975   3.483   2.207   5.480
 8359SOL    HW125976   3.560   2.186   5.420
 8359SOL    HW225977   3.398   2.204   5.428
 8360SOL     OW25978   4.306   0.147   1.598
 8360SOL    HW125979   4.288   0.223   1.534
 8360SOL    HW225980   4.376   0.088   1.560
 8361SOL     OW25981   4.134   0.495   6.878
 8361SOL    HW125982   4.200   0.434   6.835
 8361SOL    HW225983   4.092   0.449   6.956
 8362SOL     OW25984   6.940   4.230   1.394
 8362SOL    HW125985   6.850   4.198   1.425
 8362SOL    HW225986   7.011   4.194   1.455
 8363SOL     OW25987   2.741   3.333   6.927
 8363SOL    HW125988   2.794   3.351   7.010
 8363SOL    HW225989   2.725   3.235   6.918
 8364SOL     OW25990   0.291   3.664   4.748
 8364SOL    HW125991   0.369   3.685   4.805
 8364SOL    HW225992   0.206   3.690   4.795
 8365SOL     OW25993   1.886   2.599   2.538
 8365SOL    HW125994   1.882   2.599   2.438
 8365SOL    HW225995   1.970   2.644   2.568
 8366SOL     OW25996   5.128   5.120   1.841
 8366SOL    HW125997   5.092   5.174   1.765
 8366SOL    HW225998   5.216   5.081   1.816
 8367SOL     OW25999   3.733   5.490   4.249
 8367SOL    HW126000   3.790   5.572   4.258
 8367SOL    HW226001   3.644   5.516   4.212
 8368SOL     OW26002   6.704   6.168   0.408
 8368SOL    HW126003   6.694   6.168   0.309
 8368SOL    HW226004   6.748   6.083   0.437
 8369SOL     OW26005   2.330   6.958   1.340
 8369SOL    HW126006   2.397   7.014   1.390
 8369SOL    HW226007   2.357   6.862   1.345
 8370SOL     OW26008   2.366   3.037   0.310
 8370SOL    HW126009   2.383   2.971   0.383
 8370SOL    HW226010   2.286   3.092   0.332
 8371SOL     OW26011   1.740   4.437   6.496
 8371SOL    HW126012   1.674   4.488   6.550
 8371SOL    HW226013   1.699   4.411   6.409
 8372SOL     OW26014   2.460   5.482   2.489
 8372SOL    HW126015   2.491   5.450   2.578
 8372SOL    HW226016   2.419   5.573   2.498
 8373SOL     OW26017   0.106   1.513   4.098
 8373SOL    HW126018   0.092   1.612   4.099
 8373SOL    HW226019   0.120   1.481   4.192
 8374SOL     OW26020   1.297   0.486   4.447
 8374SOL    HW126021   1.304   0.387   4.436
 8374SOL    HW226022   1.324   0.530   4.361
 8375SOL     OW26023   3.539   0.656   4.599
 8375SOL    HW126024   3.480   0.709   4.537
 8375SOL    HW226025   3.499   0.655   4.690
 8376SOL     OW26026   2.113   0.653   2.914
 8376SOL    HW126027   2.020   0.622   2.932
 8376SOL    HW226028   2.158   0.676   3.000
 8377SOL     OW26029   4.272   5.385   6.955
 8377SOL    HW126030   4.278   5.481   6.925
 8377SOL    HW226031   4.332   5.329   6.898
 8378SOL     OW26032   5.417   6.057   4.080
 8378SOL    HW126033   5.492   6.019   4.135
 8378SOL    HW226034   5.343   6.086   4.141
 8379SOL     OW26035   5.687   1.127   1.683
 8379SOL    HW126036   5.756   1.191   1.650
 8379SOL    HW226037   5.603   1.137   1.628
 8380SOL     OW26038   6.504   5.715   0.675
 8380SOL    HW126039   6.470   5.628   0.639
 8380SOL    HW226040   6.535   5.773   0.599
 8381SOL     OW26041   0.283   1.971   2.262
 8381SOL    HW126042   0.377   1.970   2.227
 8381SOL    HW226043   0.239   2.057   2.237
 8382SOL     OW26044   2.121   0.601   1.311
 8382SOL    HW126045   2.127   0.560   1.220
 8382SOL    HW226046   2.194   0.668   1.322
 8383SOL     OW26047   2.859   6.429   6.428
 8383SOL    HW126048   2.832   6.389   6.340
 8383SOL    HW226049   2.832   6.368   6.502
 8384SOL     OW26050   0.728   2.577   1.877
 8384SOL    HW126051   0.693   2.526   1.799
 8384SOL    HW226052   0.766   2.664   1.845
 8385SOL     OW26053   3.536   3.440   1.374
 8385SOL    HW126054   3.539   3.512   1.444
 8385SOL    HW226055   3.595   3.364   1.402
 8386SOL     OW26056   2.189   5.878   1.929
 8386SOL    HW126057   2.120   5.931   1.879
 8386SOL    HW226058   2.227   5.808   1.869
 8387SOL     OW26059   1.363   1.105   2.750
 8387SOL    HW126060   1.311   1.106   2.836
 8387SOL    HW226061   1.328   1.175   2.689
 8388SOL     OW26062   3.959   6.296   1.337
 8388SOL    HW126063   4.046   6.338   1.363
 8388SOL    HW226064   3.928   6.334   1.250
 8389SOL     OW26065   0.419   2.566   3.915
 8389SOL    HW126066   0.429   2.545   4.013
 8389SOL    HW226067   0.509   2.562   3.871
 8390SOL     OW26068   3.488   1.101   6.048
 8390SOL    HW126069   3.587   1.108   6.063
 8390SOL    HW226070   3.443   1.075   6.134
 8391SOL     OW26071   5.115   6.163   1.092
 8391SOL    HW126072   5.175   6.221   1.147
 8391SOL    HW226073   5.164   6.079   1.067
 8392SOL     OW26074   5.647   6.155   5.345
 8392SOL    HW126075   5.556   6.179   5.313
 8392SOL    HW226076   5.640   6.084   5.415
 8393SOL     OW26077   6.558   5.734   2.907
 8393SOL    HW126078   6.555   5.815   2.965
 8393SOL    HW226079   6.492   5.743   2.833
 8394SOL     OW26080   0.586   1.972   2.948
 8394SOL    HW126081   0.565   1.957   2.851
 8394SOL    HW226082   0.607   1.885   2.991
 8395SOL     OW26083   6.955   6.069   5.442
 8395SOL    HW126084   6.920   6.033   5.356
 8395SOL    HW226085   0.015   6.114   5.426
 8396SOL     OW26086   4.760   3.234   1.728
 8396SOL    HW126087   4.681   3.174   1.738
 8396SOL    HW226088   4.843   3.186   1.757
 8397SOL     OW26089   2.168   5.794   3.481
 8397SOL    HW126090   2.256   5.806   3.436
 8397SOL    HW226091   2.101   5.858   3.442
 8398SOL     OW26092   4.346   1.662   0.794
 8398SOL    HW126093   4.319   1.756   0.817
 8398SOL    HW226094   4.393   1.621   0.872
 8399SOL     OW26095   5.577   5.697   0.644
 8399SOL    HW126096   5.665   5.728   0.608
 8399SOL    HW226097   5.527   5.776   0.682
 8400SOL     OW26098   6.617   0.887   2.693
 8400SOL    HW126099   6.547   0.842   2.638
 8400SOL    HW226100   6.628   0.982   2.662
 8401SOL     OW26101   3.096   4.427   6.692
 8401SOL    HW126102   3.159   4.411   6.768
 8401SOL    HW226103   3.140   4.485   6.624
 8402SOL     OW26104   4.641   1.616   6.982
 8402SOL    HW126105   4.613   1.565   6.900
 8402SOL    HW226106   4.575   1.601   0.028
 8403SOL     OW26107   2.389   1.317   4.544
 8403SOL    HW126108   2.433   1.261   4.614
 8403SOL    HW226109   2.317   1.265   4.499
 8404SOL     OW26110   4.383   5.185   5.765
 8404SOL    HW126111   4.367   5.228   5.854
 8404SOL    HW226112   4.356   5.089   5.768
 8405SOL     OW26113   0.913   2.698   5.474
 8405SOL    HW126114   0.973   2.722   5.550
 8405SOL    HW226115   0.952   2.731   5.388
 8406SOL     OW26116   5.179   3.206   1.420
 8406SOL    HW126117   5.151   3.130   1.479
 8406SOL    HW226118   5.233   3.171   1.343
 8407SOL     OW26119   4.862   3.907   3.198
 8407SOL    HW126120   4.916   3.991   3.185
 8407SOL    HW226121   4.891   3.838   3.132
 8408SOL     OW26122   4.946   2.539   4.936
 8408SOL    HW126123   4.973   2.628   4.973
 8408SOL    HW226124   5.027   2.481   4.928
 8409SOL     OW26125   0.784   1.799   3.755
 8409SOL    HW126126   0.697   1.764   3.790
 8409SOL    HW226127   0.831   1.728   3.705
 8410SOL     OW26128   4.096   7.004   1.550
 8410SOL    HW126129   4.134   0.055   1.598
 8410SOL    HW226130   4.123   7.008   1.454
 8411SOL     OW26131   1.464   3.491   4.628
 8411SOL    HW126132   1.506   3.496   4.537
 8411SOL    HW226133   1.478   3.578   4.676
 8412SOL     OW26134   5.544   2.414   3.492
 8412SOL    HW126135   5.538   2.421   3.393
 8412SOL    HW226136   5.634   2.376   3.517
 8413SOL     OW26137   3.721   4.617   0.774
 8413SOL    HW126138   3.800   4.663   0.812
 8413SOL    HW226139   3.663   4.683   0.727
 8414SOL     OW26140   4.007   6.545   3.005
 8414SOL    HW126141   3.952   6.583   3.080
 8414SOL    HW226142   3.947   6.518   2.930
 8415SOL     OW26143   6.416   4.356   2.904
 8415SOL    HW126144   6.419   4.268   2.952
 8415SOL    HW226145   6.330   4.364   2.855
 8416SOL     OW26146   5.254   3.730   2.487
 8416SOL    HW126147   5.312   3.803   2.451
 8416SOL    HW226148   5.279   3.712   2.582
 8417SOL     OW26149   2.660   6.165   6.042
 8417SOL    HW126150   2.612   6.207   5.965
 8417SOL    HW226151   2.618   6.077   6.064
 8418SOL     OW26152   6.481   5.074   3.137
 8418SOL    HW126153   6.529   4.989   3.157
 8418SOL    HW226154   6.547   5.149   3.129
 8419SOL     OW26155   4.335   0.522   3.446
 8419SOL    HW126156   4.248   0.474   3.453
 8419SOL    HW226157   4.323   0.617   3.475
 8420SOL     OW26158   4.121   1.007   6.494
 8420SOL    HW126159   4.098   0.929   6.552
 8420SOL    HW226160   4.155   0.973   6.406
 8421SOL     OW26161   2.214   6.826   1.905
 8421SOL    HW126162   2.176   6.796   1.993
 8421SOL    HW226163   2.313   6.811   1.905
 8422SOL     OW26164   4.655   0.075   0.730
 8422SOL    HW126165   4.644   7.003   0.733
 8422SOL    HW226166   4.577   0.118   0.776
 8423SOL     OW26167   3.495   3.734   1.445
 8423SOL    HW126168   3.463   3.711   1.354
 8423SOL    HW226169   3.458   3.823   1.472
 8424SOL     OW26170   3.564   1.005   2.633
 8424SOL    HW126171   3.483   1.054   2.666
 8424SOL    HW226172   3.639   1.017   2.698
 8425SOL     OW26173   6.247   4.477   6.948
 8425SOL    HW126174   6.172   4.424   6.987
 8425SOL    HW226175   6.294   4.526   7.021
 8426SOL     OW26176   4.095   3.747   3.328
 8426SOL    HW126177   4.143   3.723   3.412
 8426SOL    HW226178   4.021   3.812   3.350
 8427SOL     OW26179   2.318   4.096   6.853
 8427SOL    HW126180   2.389   4.033   6.822
 8427SOL    HW226181   2.338   4.188   6.819
 8428SOL     OW26182   6.521   4.114   2.060
 8428SOL    HW126183   6.613   4.081   2.079
 8428SOL    HW226184   6.525   4.189   1.994
 8429SOL     OW26185   1.903   6.369   3.285
 8429SOL    HW126186   1.970   6.440   3.265
 8429SOL    HW226187   1.847   6.398   3.363
 8430SOL     OW26188   4.346   4.753   2.802
 8430SOL    HW126189   4.306   4.721   2.716
 8430SOL    HW226190   4.434   4.796   2.785
 8431SOL     OW26191   3.214   4.830   1.408
 8431SOL    HW126192   3.138   4.871   1.356
 8431SOL    HW226193   3.265   4.901   1.454
 8432SOL     OW26194   4.496   0.152   6.571
 8432SOL    HW126195   4.569   0.162   6.504
 8432SOL    HW226196   4.427   0.223   6.557
 8433SOL     OW26197   1.310   2.195   5.991
 8433SOL    HW126198   1.224   2.238   6.021
 8433SOL    HW226199   1.291   2.102   5.959
 8434SOL     OW26200   5.515   0.163   5.524
 8434SOL    HW126201   5.465   0.231   5.578
 8434SOL    HW226202   5.552   0.207   5.442
 8435SOL     OW26203   4.475   1.641   1.482
 8435SOL    HW126204   4.482   1.725   1.537
 8435SOL    HW226205   4.562   1.626   1.435
 8436SOL     OW26206   4.343   4.360   1.621
 8436SOL    HW126207   4.249   4.327   1.632
 8436SOL    HW226208   4.406   4.297   1.667
 8437SOL     OW26209   0.408   1.145   1.288
 8437SOL    HW126210   0.409   1.187   1.379
 8437SOL    HW226211   0.353   1.061   1.291
 8438SOL     OW26212   1.502   5.812   2.092
 8438SOL    HW126213   1.591   5.810   2.047
 8438SOL    HW226214   1.514   5.788   2.189
 8439SOL     OW26215   6.946   5.229   2.431
 8439SOL    HW126216   6.897   5.142   2.432
 8439SOL    HW226217   6.999   5.238   2.516
 8440SOL     OW26218   0.559   0.723   2.555
 8440SOL    HW126219   0.542   0.717   2.456
 8440SOL    HW226220   0.620   0.799   2.573
 8441SOL     OW26221   4.035   5.359   6.660
 8441SOL    HW126222   4.126   5.365   6.620
 8441SOL    HW226223   3.994   5.450   6.662
 8442SOL     OW26224   2.531   4.774   6.942
 8442SOL    HW126225   2.555   4.870   6.952
 8442SOL    HW226226   2.437   4.760   6.972
 8443SOL     OW26227   2.105   0.381   3.167
 8443SOL    HW126228   2.042   0.304   3.157
 8443SOL    HW226229   2.130   0.415   3.077
 8444SOL     OW26230   3.685   6.138   3.447
 8444SOL    HW126231   3.745   6.164   3.523
 8444SOL    HW226232   3.598   6.105   3.483
 8445SOL     OW26233   3.963   4.868   2.956
 8445SOL    HW126234   3.865   4.853   2.960
 8445SOL    HW226235   3.987   4.911   2.869
 8446SOL     OW26236   5.402   4.505   2.482
 8446SOL    HW126237   5.490   4.494   2.434
 8446SOL    HW226238   5.375   4.418   2.522
 8447SOL     OW26239   4.550   2.480   1.917
 8447SOL    HW126240   4.597   2.567   1.929
 8447SOL    HW226241   4.528   2.467   1.820
 8448SOL     OW26242   0.828   3.483   6.566
 8448SOL    HW126243   0.909   3.509   6.619
 8448SOL    HW226244   0.835   3.387   6.540
 8449SOL     OW26245   1.781   3.207   4.369
 8449SOL    HW126246   1.798   3.173   4.462
 8449SOL    HW226247   1.682   3.218   4.355
 8450SOL     OW26248   2.037   5.330   2.760
 8450SOL    HW126249   2.093   5.379   2.827
 8450SOL    HW226250   1.947   5.373   2.754
 8451SOL     OW26251   3.574   2.414   1.294
 8451SOL    HW126252   3.589   2.409   1.195
 8451SOL    HW226253   3.644   2.472   1.335
 8452SOL     OW26254   6.746   6.266   0.793
 8452SOL    HW126255   6.830   6.306   0.757
 8452SOL    HW226256   6.673   6.276   0.726
 8453SOL     OW26257   6.380   3.795   6.188
 8453SOL    HW126258   6.414   3.848   6.266
 8453SOL    HW226259   6.291   3.756   6.211
 8454SOL     OW26260   1.912   0.219   4.251
 8454SOL    HW126261   1.936   0.222   4.348
 8454SOL    HW226262   1.869   0.130   4.230
 8455SOL     OW26263   4.833   1.642   1.170
 8455SOL    HW126264   4.926   1.619   1.141
 8455SOL    HW226265   4.773   1.563   1.156
 8456SOL     OW26266   5.763   5.775   3.129
 8456SOL    HW126267   5.785   5.822   3.214
 8456SOL    HW226268   5.668   5.792   3.105
 8457SOL     OW26269   6.976   5.779   5.860
 8457SOL    HW126270   6.885   5.738   5.854
 8457SOL    HW226271   7.014   5.762   5.951
 8458SOL     OW26272   0.974   1.555   0.448
 8458SOL    HW126273   0.926   1.576   0.533
 8458SOL    HW226274   0.984   1.639   0.394
 8459SOL     OW26275   3.322   5.763   2.198
 8459SOL    HW126276   3.323   5.861   2.221
 8459SOL    HW226277   3.276   5.712   2.270
 8460SOL     OW26278   4.673   1.390   0.736
 8460SOL    HW126279   4.645   1.485   0.727
 8460SOL    HW226280   4.600   1.338   0.779
 8461SOL     OW26281   6.412   3.881   1.726
 8461SOL    HW126282   6.321   3.844   1.707
 8461SOL    HW226283   6.430   3.958   1.663
 8462SOL     OW26284   3.206   4.721   6.856
 8462SOL    HW126285   3.256   4.792   6.905
 8462SOL    HW226286   3.119   4.758   6.823
 8463SOL     OW26287   6.795   1.762   0.433
 8463SOL    HW126288   6.776   1.858   0.453
 8463SOL    HW226289   6.820   1.753   0.336
 8464SOL     OW26290   0.450   3.421   0.180
 8464SOL    HW126291   0.386   3.362   0.130
 8464SOL    HW226292   0.406   3.508   0.202
 8465SOL     OW26293   4.116   3.240   1.484
 8465SOL    HW126294   4.195   3.297   1.462
 8465SOL    HW226295   4.128   3.149   1.444
 8466SOL     OW26296   6.064   0.881   5.954
 8466SOL    HW126297   6.054   0.782   5.965
 8466SOL    HW226298   6.037   0.907   5.861
 8467SOL     OW26299   3.553   1.423   1.217
 8467SOL    HW126300   3.487   1.446   1.145
 8467SOL    HW226301   3.513   1.446   1.307
 8468SOL     OW26302   6.278   2.912   6.930
 8468SOL    HW126303   6.202   2.903   6.866
 8468SOL    HW226304   6.246   2.894   7.023
 8469SOL     OW26305   3.888   2.937   5.687
 8469SOL    HW126306   3.918   3.033   5.695
 8469SOL    HW226307   3.855   2.920   5.594
 8470SOL     OW26308   1.502   5.114   1.571
 8470SOL    HW126309   1.581   5.132   1.630
 8470SOL    HW226310   1.467   5.201   1.536
 8471SOL     OW26311   3.701   2.223   5.314
 8471SOL    HW126312   3.800   2.234   5.304
 8471SOL    HW226313   3.662   2.192   5.227
 8472SOL     OW26314   5.679   1.791   5.889
 8472SOL    HW126315   5.625   1.711   5.863
 8472SOL    HW226316   5.622   1.854   5.942
 8473SOL     OW26317   4.631   4.441   6.221
 8473SOL    HW126318   4.646   4.422   6.124
 8473SOL    HW226319   4.666   4.532   6.244
 8474SOL     OW26320   3.767   3.678   2.784
 8474SOL    HW126321   3.854   3.727   2.786
 8474SOL    HW226322   3.703   3.721   2.847
 8475SOL     OW26323   6.608   2.689   1.834
 8475SOL    HW126324   6.580   2.666   1.927
 8475SOL    HW226325   6.615   2.788   1.825
 8476SOL     OW26326   6.185   0.052   1.945
 8476SOL    HW126327   6.154   0.071   2.038
 8476SOL    HW226328   6.129   0.103   1.880
 8477SOL     OW26329   5.792   6.597   1.495
 8477SOL    HW126330   5.754   6.689   1.492
 8477SOL    HW226331   5.747   6.540   1.426
 8478SOL     OW26332   6.562   6.996   4.937
 8478SOL    HW126333   6.513   6.993   5.025
 8478SOL    HW226334   6.610   6.910   4.923
 8479SOL     OW26335   0.885   2.466   1.548
 8479SOL    HW126336   0.808   2.416   1.588
 8479SOL    HW226337   0.877   2.563   1.570
 8480SOL     OW26338   4.947   4.451   0.304
 8480SOL    HW126339   4.943   4.442   0.404
 8480SOL    HW226340   4.976   4.364   0.264
 8481SOL     OW26341   3.878   2.134   3.717
 8481SOL    HW126342   3.971   2.170   3.729
 8481SOL    HW226343   3.850   2.143   3.621
 8482SOL     OW26344   4.644   1.420   0.179
 8482SOL    HW126345   4.549   1.418   0.149
 8482SOL    HW226346   4.704   1.422   0.099
 8483SOL     OW26347   2.939   5.599   3.313
 8483SOL    HW126348   3.039   5.600   3.314
 8483SOL    HW226349   2.905   5.531   3.378
 8484SOL     OW26350   5.725   5.893   3.911
 8484SOL    HW126351   5.762   5.981   3.883
 8484SOL    HW226352   5.656   5.863   3.845
 8485SOL     OW26353   2.747   2.299   0.400
 8485SOL    HW126354   2.830   2.332   0.356
 8485SOL    HW226355   2.667   2.328   0.348
 8486SOL     OW26356   1.064   0.886   2.501
 8486SOL    HW126357   1.142   0.883   2.562
 8486SOL    HW226358   1.042   0.794   2.469
 8487SOL     OW26359   6.176   1.636   5.726
 8487SOL    HW126360   6.179   1.728   5.766
 8487SOL    HW226361   6.246   1.579   5.769
 8488SOL     OW26362   5.022   4.912   1.609
 8488SOL    HW126363   5.025   4.821   1.649
 8488SOL    HW226364   5.112   4.955   1.616
 8489SOL     OW26365   5.075   1.115   1.331
 8489SOL    HW126366   5.033   1.133   1.241
 8489SOL    HW226367   5.091   1.017   1.340
 8490SOL     OW26368   2.228   0.524   6.868
 8490SOL    HW126369   2.305   0.526   6.932
 8490SOL    HW226370   2.262   0.526   6.774
 8491SOL     OW26371   3.185   5.651   2.434
 8491SOL    HW126372   3.107   5.704   2.467
 8491SOL    HW226373   3.248   5.633   2.510
 8492SOL     OW26374   5.669   5.581   4.375
 8492SOL    HW126375   5.634   5.621   4.460
 8492SOL    HW226376   5.593   5.551   4.318
 8493SOL     OW26377   3.860   0.315   0.216
 8493SOL    HW126378   3.834   0.338   0.309
 8493SOL    HW226379   3.778   0.316   0.157
 8494SOL     OW26380   5.829   5.182   2.370
 8494SOL    HW126381   5.871   5.137   2.291
 8494SOL    HW226382   5.738   5.143   2.385
 8495SOL     OW26383   6.795   5.880   0.226
 8495SOL    HW126384   6.744   5.886   0.312
 8495SOL    HW226385   6.752   5.811   0.167
 8496SOL     OW26386   4.944   2.056   2.921
 8496SOL    HW126387   4.981   2.149   2.911
 8496SOL    HW226388   4.955   2.007   2.835
 8497SOL     OW26389   6.374   0.804   3.742
 8497SOL    HW126390   6.369   0.904   3.745
 8497SOL    HW226391   6.443   0.773   3.808
 8498SOL     OW26392   4.880   0.458   4.444
 8498SOL    HW126393   4.863   0.383   4.508
 8498SOL    HW226394   4.910   0.420   4.356
 8499SOL     OW26395   6.430   6.503   6.290
 8499SOL    HW126396   6.363   6.450   6.343
 8499SOL    HW226397   6.484   6.441   6.233
 8500SOL     OW26398   1.746   0.685   5.131
 8500SOL    HW126399   1.842   0.694   5.155
 8500SOL    HW226400   1.689   0.731   5.200
 8501SOL     OW26401   0.829   1.678   6.275
 8501SOL    HW126402   0.909   1.705   6.328
 8501SOL    HW226403   0.836   1.716   6.182
 8502SOL     OW26404   0.539   2.901   6.822
 8502SOL    HW126405   0.594   2.967   6.872
 8502SOL    HW226406   0.442   2.917   6.842
 8503SOL     OW26407   5.839   6.691   4.228
 8503SOL    HW126408   5.849   6.592   4.238
 8503SOL    HW226409   5.885   6.737   4.303
 8504SOL     OW26410   2.059   5.121   3.049
 8504SOL    HW126411   2.094   5.094   2.959
 8504SOL    HW226412   2.053   5.040   3.107
 8505SOL     OW26413   5.483   2.874   2.700
 8505SOL    HW126414   5.400   2.928   2.716
 8505SOL    HW226415   5.482   2.840   2.606
 8506SOL     OW26416   2.478   6.982   0.114
 8506SOL    HW126417   2.550   0.014   0.077
 8506SOL    HW226418   2.424   0.005   0.181
 8507SOL     OW26419   4.457   5.829   5.490
 8507SOL    HW126420   4.470   5.732   5.510
 8507SOL    HW226421   4.376   5.840   5.433
 8508SOL     OW26422   3.822   1.969   0.112
 8508SOL    HW126423   3.735   1.924   0.133
 8508SOL    HW226424   3.839   1.964   0.014
 8509SOL     OW26425   5.154   0.913   3.403
 8509SOL    HW126426   5.187   0.858   3.480
 8509SOL    HW226427   5.136   1.007   3.433
 8510SOL     OW26428   6.461   1.621   4.556
 8510SOL    HW126429   6.515   1.699   4.589
 8510SOL    HW226430   6.518   1.539   4.556
 8511SOL     OW26431   6.403   2.895   1.920
 8511SOL    HW126432   6.371   2.801   1.909
 8511SOL    HW226433   6.392   2.945   1.834
 8512SOL     OW26434   1.409   6.698   4.801
 8512SOL    HW126435   1.397   6.637   4.723
 8512SOL    HW226436   1.421   6.792   4.768
 8513SOL     OW26437   5.773   6.159   6.325
 8513SOL    HW126438   5.684   6.112   6.329
 8513SOL    HW226439   5.778   6.211   6.239
 8514SOL     OW26440   2.542   5.836   4.328
 8514SOL    HW126441   2.533   5.850   4.230
 8514SOL    HW226442   2.453   5.811   4.366
 8515SOL     OW26443   5.047   2.201   1.717
 8515SOL    HW126444   4.965   2.147   1.700
 8515SOL    HW226445   5.082   2.181   1.809
 8516SOL     OW26446   6.949   2.241   2.022
 8516SOL    HW126447   6.929   2.337   2.041
 8516SOL    HW226448   6.947   2.225   1.923
 8517SOL     OW26449   2.396   2.403   6.344
 8517SOL    HW126450   2.314   2.398   6.401
 8517SOL    HW226451   2.386   2.477   6.278
 8518SOL     OW26452   3.728   5.583   0.644
 8518SOL    HW126453   3.763   5.490   0.635
 8518SOL    HW226454   3.654   5.584   0.712
 8519SOL     OW26455   0.721   6.003   3.016
 8519SOL    HW126456   0.627   6.033   3.000
 8519SOL    HW226457   0.770   6.073   3.069
 8520SOL     OW26458   3.837   0.774   0.004
 8520SOL    HW126459   3.905   0.761   0.075
 8520SOL    HW226460   3.865   0.726   6.948
 8521SOL     OW26461   1.243   6.350   6.145
 8521SOL    HW126462   1.261   6.261   6.102
 8521SOL    HW226463   1.329   6.391   6.175
 8522SOL     OW26464   1.280   5.970   5.092
 8522SOL    HW126465   1.318   5.960   4.999
 8522SOL    HW226466   1.285   6.066   5.119
 8523SOL     OW26467   1.146   0.042   6.915
 8523SOL    HW126468   1.077   0.046   6.987
 8523SOL    HW226469   1.173   6.974   6.901
 8524SOL     OW26470   1.306   3.140   6.424
 8524SOL    HW126471   1.325   3.133   6.326
 8524SOL    HW226472   1.338   3.228   6.458
 8525SOL     OW26473   6.100   3.152   3.351
 8525SOL    HW126474   6.027   3.147   3.419
 8525SOL    HW226475   6.135   3.246   3.348
 8526SOL     OW26476   2.243   2.964   2.509
 8526SOL    HW126477   2.222   3.017   2.426
 8526SOL    HW226478   2.201   3.009   2.588
 8527SOL     OW26479   4.295   0.558   4.509
 8527SOL    HW126480   4.204   0.598   4.509
 8527SOL    HW226481   4.351   0.601   4.438
 8528SOL     OW26482   4.838   2.783   6.434
 8528SOL    HW126483   4.797   2.769   6.344
 8528SOL    HW226484   4.894   2.865   6.433
 8529SOL     OW26485   0.559   4.470   0.267
 8529SOL    HW126486   0.659   4.469   0.268
 8529SOL    HW226487   0.527   4.546   0.211
 8530SOL     OW26488   1.966   3.647   5.561
 8530SOL    HW126489   2.022   3.727   5.582
 8530SOL    HW226490   1.886   3.676   5.507
 8531SOL     OW26491   4.824   4.262   2.182
 8531SOL    HW126492   4.889   4.291   2.252
 8531SOL    HW226493   4.749   4.328   2.178
 8532SOL     OW26494   2.689   4.034   6.283
 8532SOL    HW126495   2.687   4.126   6.320
 8532SOL    HW226496   2.724   3.971   6.353
 8533SOL     OW26497   3.426   0.656   4.853
 8533SOL    HW126498   3.335   0.617   4.869
 8533SOL    HW226499   3.438   0.737   4.911
 8534SOL     OW26500   1.568   2.736   3.022
 8534SOL    HW126501   1.639   2.726   2.953
 8534SOL    HW226502   1.478   2.721   2.981
 8535SOL     OW26503   0.515   2.251   4.946
 8535SOL    HW126504   0.467   2.163   4.938
 8535SOL    HW226505   0.533   2.270   5.042
 8536SOL     OW26506   0.309   1.718   5.970
 8536SOL    HW126507   0.388   1.728   5.910
 8536SOL    HW226508   0.334   1.749   6.063
 8537SOL     OW26509   5.553   0.295   2.217
 8537SOL    HW126510   5.546   0.205   2.261
 8537SOL    HW226511   5.566   0.283   2.118
 8538SOL     OW26512   5.750   1.052   4.456
 8538SOL    HW126513   5.719   1.112   4.530
 8538SOL    HW226514   5.699   0.965   4.461
 8539SOL     OW26515   0.261   3.296   1.808
 8539SOL    HW126516   0.196   3.359   1.851
 8539SOL    HW226517   0.211   3.225   1.759
 8540SOL     OW26518   4.329   0.070   0.048
 8540SOL    HW126519   4.418   0.025   0.047
 8540SOL    HW226520   4.320   0.126   0.130
 8541SOL     OW26521   3.150   0.536   5.414
 8541SOL    HW126522   3.137   0.623   5.462
 8541SOL    HW226523   3.062   0.500   5.386
 8542SOL     OW26524   1.843   4.591   6.780
 8542SOL    HW126525   1.857   4.626   6.687
 8542SOL    HW226526   1.745   4.576   6.795
 8543SOL     OW26527   2.565   1.900   6.471
 8543SOL    HW126528   2.493   1.954   6.514
 8543SOL    HW226529   2.577   1.814   6.522
 8544SOL     OW26530   5.278   4.066   5.134
 8544SOL    HW126531   5.272   4.009   5.052
 8544SOL    HW226532   5.373   4.070   5.164
 8545SOL     OW26533   3.187   0.734   6.400
 8545SOL    HW126534   3.255   0.691   6.461
 8545SOL    HW226535   3.194   0.693   6.309
 8546SOL     OW26536   5.497   0.049   1.211
 8546SOL    HW126537   5.565   0.084   1.275
 8546SOL    HW226538   5.493   6.977   1.218
 8547SOL     OW26539   6.050   6.267   5.225
 8547SOL    HW126540   6.028   6.224   5.313
 8547SOL    HW226541   6.060   6.366   5.239
 8548SOL     OW26542   0.527   3.040   5.830
 8548SOL    HW126543   0.521   3.029   5.731
 8548SOL    HW226544   0.623   3.039   5.858
 8549SOL     OW26545   1.851   0.566   2.953
 8549SOL    HW126546   1.756   0.554   2.982
 8549SOL    HW226547   1.871   0.501   2.879
 8550SOL     OW26548   6.716   4.178   6.375
 8550SOL    HW126549   6.624   4.214   6.362
 8550SOL    HW226550   6.733   4.166   6.473
 8551SOL     OW26551   1.900   1.265   6.412
 8551SOL    HW126552   1.982   1.319   6.430
 8551SOL    HW226553   1.927   1.178   6.371
 8552SOL     OW26554   2.714   1.939   2.925
 8552SOL    HW126555   2.785   1.872   2.902
 8552SOL    HW226556   2.724   1.966   3.021
 8553SOL     OW26557   5.196   3.206   6.816
 8553SOL    HW126558   5.105   3.180   6.782
 8553SOL    HW226559   5.194   3.208   6.916
 8554SOL     OW26560   1.272   0.659   0.623
 8554SOL    HW126561   1.295   0.585   0.687
 8554SOL    HW226562   1.252   0.742   0.675
 8555SOL     OW26563   4.702   1.375   4.136
 8555SOL    HW126564   4.767   1.451   4.138
 8555SOL    HW226565   4.621   1.401   4.083
 8556SOL     OW26566   1.623   6.040   0.681
 8556SOL    HW126567   1.567   6.120   0.703
 8556SOL    HW226568   1.596   6.005   0.591
 8557SOL     OW26569   0.164   0.595   0.429
 8557SOL    HW126570   0.236   0.663   0.443
 8557SOL    HW226571   0.196   0.505   0.457
 8558SOL     OW26572   2.876   5.734   4.159
 8558SOL    HW126573   2.809   5.778   4.219
 8558SOL    HW226574   2.953   5.700   4.214
 8559SOL     OW26575   1.262   5.648   2.781
 8559SOL    HW126576   1.335   5.600   2.829
 8559SOL    HW226577   1.173   5.622   2.819
 8560SOL     OW26578   2.938   4.239   1.719
 8560SOL    HW126579   2.943   4.168   1.789
 8560SOL    HW226580   2.905   4.324   1.760
 8561SOL     OW26581   4.409   6.685   2.165
 8561SOL    HW126582   4.470   6.763   2.178
 8561SOL    HW226583   4.314   6.715   2.173
 8562SOL     OW26584   4.801   1.732   6.528
 8562SOL    HW126585   4.893   1.695   6.514
 8562SOL    HW226586   4.762   1.693   6.611
 8563SOL     OW26587   2.460   4.807   2.191
 8563SOL    HW126588   2.481   4.833   2.096
 8563SOL    HW226589   2.538   4.758   2.229
 8564SOL     OW26590   4.831   0.249   6.676
 8564SOL    HW126591   4.868   0.339   6.696
 8564SOL    HW226592   4.745   0.236   6.725
 8565SOL     OW26593   2.390   5.330   0.947
 8565SOL    HW126594   2.345   5.345   1.035
 8565SOL    HW226595   2.340   5.378   0.875
 8566SOL     OW26596   3.367   0.844   2.822
 8566SOL    HW126597   3.388   0.941   2.826
 8566SOL    HW226598   3.447   0.794   2.789
 8567SOL     OW26599   2.344   2.766   1.590
 8567SOL    HW126600   2.267   2.828   1.607
 8567SOL    HW226601   2.353   2.703   1.666
 8568SOL     OW26602   6.537   0.651   6.503
 8568SOL    HW126603   6.600   0.714   6.548
 8568SOL    HW226604   6.452   0.699   6.480
 8569SOL     OW26605   4.507   2.260   6.372
 8569SOL    HW126606   4.529   2.226   6.281
 8569SOL    HW226607   4.584   2.243   6.434
 8570SOL     OW26608   1.290   2.548   3.710
 8570SOL    HW126609   1.357   2.615   3.677
 8570SOL    HW226610   1.318   2.516   3.801
 8571SOL     OW26611   1.630   0.798   2.760
 8571SOL    HW126612   1.715   0.759   2.723
 8571SOL    HW226613   1.605   0.747   2.843
 8572SOL     OW26614   2.981   4.158   5.687
 8572SOL    HW126615   2.905   4.132   5.627
 8572SOL    HW226616   2.986   4.257   5.694
 8573SOL     OW26617   3.742   5.882   0.761
 8573SOL    HW126618   3.713   5.789   0.739
 8573SOL    HW226619   3.683   5.947   0.713
 8574SOL     OW26620   5.258   0.636   4.821
 8574SOL    HW126621   5.256   0.542   4.856
 8574SOL    HW226622   5.170   0.657   4.778
 8575SOL     OW26623   3.074   6.487   3.307
 8575SOL    HW126624   3.077   6.389   3.287
 8575SOL    HW226625   3.089   6.539   3.223
 8576SOL     OW26626   0.833   4.984   3.312
 8576SOL    HW126627   0.887   4.969   3.395
 8576SOL    HW226628   0.892   5.017   3.239
 8577SOL     OW26629   1.523   1.659   0.328
 8577SOL    HW126630   1.532   1.741   0.272
 8577SOL    HW226631   1.461   1.678   0.405
 8578SOL     OW26632   0.056   6.915   5.757
 8578SOL    HW126633   0.049   6.970   5.840
 8578SOL    HW226634   0.066   6.977   5.678
 8579SOL     OW26635   3.265   6.467   2.993
 8579SOL    HW126636   3.343   6.440   3.050
 8579SOL    HW226637   3.286   6.451   2.897
 8580SOL     OW26638   2.464   0.719   1.573
 8580SOL    HW126639   2.371   0.708   1.608
 8580SOL    HW226640   2.523   0.648   1.612
 8581SOL     OW26641   3.133   4.477   1.446
 8581SOL    HW126642   3.192   4.537   1.392
 8581SOL    HW226643   3.130   4.510   1.541
 8582SOL     OW26644   3.906   4.372   5.837
 8582SOL    HW126645   3.835   4.395   5.771
 8582SOL    HW226646   3.869   4.308   5.904
 8583SOL     OW26647   4.439   0.743   2.803
 8583SOL    HW126648   4.513   0.703   2.857
 8583SOL    HW226649   4.399   0.820   2.852
 8584SOL     OW26650   6.749   1.445   4.312
 8584SOL    HW126651   6.725   1.362   4.363
 8584SOL    HW226652   6.799   1.420   4.230
 8585SOL     OW26653   5.443   2.239   2.457
 8585SOL    HW126654   5.358   2.280   2.424
 8585SOL    HW226655   5.450   2.145   2.423
 8586SOL     OW26656   6.170   5.769   1.348
 8586SOL    HW126657   6.191   5.783   1.251
 8586SOL    HW226658   6.254   5.779   1.402
 8587SOL     OW26659   1.519   1.526   6.657
 8587SOL    HW126660   1.577   1.602   6.628
 8587SOL    HW226661   1.573   1.443   6.663
 8588SOL     OW26662   2.630   1.438   0.178
 8588SOL    HW126663   2.646   1.520   0.123
 8588SOL    HW226664   2.718   1.401   0.208
 8589SOL     OW26665   6.438   2.900   6.343
 8589SOL    HW126666   6.471   2.904   6.249
 8589SOL    HW226667   6.414   2.992   6.374
 8590SOL     OW26668   1.364   1.453   3.327
 8590SOL    HW126669   1.392   1.532   3.273
 8590SOL    HW226670   1.265   1.457   3.342
 8591SOL     OW26671   6.533   4.270   6.779
 8591SOL    HW126672   6.486   4.344   6.732
 8591SOL    HW226673   6.470   4.225   6.843
 8592SOL     OW26674   1.417   1.488   6.199
 8592SOL    HW126675   1.477   1.568   6.209
 8592SOL    HW226676   1.415   1.438   6.285
 8593SOL     OW26677   3.551   1.335   6.495
 8593SOL    HW126678   3.473   1.283   6.529
 8593SOL    HW226679   3.620   1.272   6.460
 8594SOL     OW26680   6.280   2.909   5.817
 8594SOL    HW126681   6.302   2.855   5.736
 8594SOL    HW226682   6.365   2.938   5.862
 8595SOL     OW26683   6.140   6.178   2.052
 8595SOL    HW126684   6.172   6.112   1.984
 8595SOL    HW226685   6.119   6.131   2.137
 8596SOL     OW26686   1.142   1.213   3.704
 8596SOL    HW126687   1.045   1.200   3.681
 8596SOL    HW226688   1.199   1.158   3.643
 8597SOL     OW26689   5.898   2.987   0.051
 8597SOL    HW126690   5.877   3.074   0.006
 8597SOL    HW226691   5.880   2.912   7.015
 8598SOL     OW26692   6.101   6.893   4.052
 8598SOL    HW126693   6.123   6.811   4.105
 8598SOL    HW226694   6.150   6.890   3.964
 8599SOL     OW26695   0.427   3.245   3.801
 8599SOL    HW126696   0.328   3.233   3.792
 8599SOL    HW226697   0.472   3.216   3.717
 8600SOL     OW26698   4.074   2.030   1.593
 8600SOL    HW126699   4.014   1.959   1.631
 8600SOL    HW226700   4.165   2.021   1.632
 8601SOL     OW26701   0.949   6.731   3.085
 8601SOL    HW126702   0.851   6.751   3.083
 8601SOL    HW226703   0.963   6.633   3.102
 8602SOL     OW26704   1.935   6.755   5.053
 8602SOL    HW126705   1.969   6.688   5.120
 8602SOL    HW226706   1.999   6.831   5.048
 8603SOL     OW26707   0.014   0.636   0.669
 8603SOL    HW126708   0.061   0.632   0.580
 8603SOL    HW226709   7.007   0.545   0.692
 8604SOL     OW26710   0.629   4.168   6.366
 8604SOL    HW126711   0.609   4.266   6.368
 8604SOL    HW226712   0.549   4.119   6.330
 8605SOL     OW26713   6.839   5.388   4.512
 8605SOL    HW126714   6.884   5.327   4.446
 8605SOL    HW226715   6.906   5.422   4.577
 8606SOL     OW26716   1.779   2.528   0.143
 8606SOL    HW126717   1.713   2.455   0.159
 8606SOL    HW226718   1.828   2.510   0.057
 8607SOL     OW26719   2.460   4.247   1.396
 8607SOL    HW126720   2.396   4.219   1.467
 8607SOL    HW226721   2.466   4.346   1.393
 8608SOL     OW26722   2.040   5.349   3.163
 8608SOL    HW126723   2.032   5.261   3.117
 8608SOL    HW226724   2.023   5.337   3.261
 8609SOL     OW26725   4.542   1.171   3.921
 8609SOL    HW126726   4.533   1.153   3.823
 8609SOL    HW226727   4.630   1.137   3.954
 8610SOL     OW26728   0.722   6.300   2.752
 8610SOL    HW126729   0.677   6.234   2.813
 8610SOL    HW226730   0.705   6.274   2.657
 8611SOL     OW26731   2.682   1.363   4.507
 8611SOL    HW126732   2.616   1.431   4.476
 8611SOL    HW226733   2.635   1.276   4.525
 8612SOL     OW26734   3.900   3.802   3.630
 8612SOL    HW126735   3.893   3.845   3.720
 8612SOL    HW226736   3.987   3.755   3.622
 8613SOL     OW26737   3.545   2.796   1.424
 8613SOL    HW126738   3.500   2.862   1.484
 8613SOL    HW226739   3.485   2.718   1.409
 8614SOL     OW26740   1.345   2.548   3.269
 8614SOL    HW126741   1.339   2.448   3.275
 8614SOL    HW226742   1.438   2.577   3.290
 8615SOL     OW26743   4.284   1.420   3.819
 8615SOL    HW126744   4.364   1.455   3.867
 8615SOL    HW226745   4.201   1.439   3.872
 8616SOL     OW26746   4.701   4.600   2.866
 8616SOL    HW126747   4.689   4.699   2.868
 8616SOL    HW226748   4.665   4.564   2.780
 8617SOL     OW26749   3.711   6.990   3.638
 8617SOL    HW126750   3.797   6.963   3.594
 8617SOL    HW226751   3.718   0.057   3.671
 8618SOL     OW26752   5.732   4.385   0.913
 8618SOL    HW126753   5.810   4.380   0.975
 8618SOL    HW226754   5.651   4.347   0.957
 8619SOL     OW26755   5.175   4.623   0.741
 8619SOL    HW126756   5.262   4.651   0.699
 8619SOL    HW226757   5.193   4.583   0.831
 8620SOL     OW26758   1.945   0.226   4.501
 8620SOL    HW126759   1.863   0.198   4.550
 8620SOL    HW226760   2.013   0.260   4.566
 8621SOL     OW26761   5.202   2.698   1.577
 8621SOL    HW126762   5.106   2.716   1.596
 8621SOL    HW226763   5.223   2.602   1.596
 8622SOL     OW26764   6.444   4.707   2.866
 8622SOL    HW126765   6.456   4.662   2.954
 8622SOL    HW226766   6.533   4.723   2.823
 8623SOL     OW26767   0.404   3.642   4.509
 8623SOL    HW126768   0.359   3.630   4.597
 8623SOL    HW226769   0.345   3.694   4.447
 8624SOL     OW26770   2.791   4.091   5.485
 8624SOL    HW126771   2.727   4.030   5.438
 8624SOL    HW226772   2.778   4.185   5.453
 8625SOL     OW26773   3.850   2.289   5.731
 8625SOL    HW126774   3.756   2.307   5.702
 8625SOL    HW226775   3.853   2.208   5.789
 8626SOL     OW26776   4.243   4.355   0.694
 8626SOL    HW126777   4.323   4.409   0.666
 8626SOL    HW226778   4.166   4.376   0.633
 8627SOL     OW26779   1.992   0.522   2.335
 8627SOL    HW126780   2.029   0.609   2.301
 8627SOL    HW226781   2.038   0.498   2.420
 8628SOL     OW26782   0.862   6.497   0.767
 8628SOL    HW126783   0.832   6.584   0.728
 8628SOL    HW226784   0.798   6.469   0.839
 8629SOL     OW26785   6.615   6.925   4.520
 8629SOL    HW126786   6.699   6.974   4.494
 8629SOL    HW226787   6.575   6.883   4.439
 8630SOL     OW26788   5.108   2.895   2.072
 8630SOL    HW126789   5.111   2.800   2.105
 8630SOL    HW226790   5.016   2.932   2.084
 8631SOL     OW26791   3.143   6.831   0.029
 8631SOL    HW126792   3.060   6.819   0.084
 8631SOL    HW226793   3.215   6.770   0.063
 8632SOL     OW26794   4.975   4.930   5.971
 8632SOL    HW126795   4.920   4.941   6.055
 8632SOL    HW226796   5.071   4.916   5.996
 8633SOL     OW26797   5.558   3.727   6.383
 8633SOL    HW126798   5.476   3.721   6.439
 8633SOL    HW226799   5.631   3.771   6.435
 8634SOL     OW26800   4.944   3.913   0.347
 8634SOL    HW126801   4.850   3.887   0.373
 8634SOL    HW226802   4.968   3.869   0.261
 8635SOL     OW26803   5.718   2.438   6.340
 8635SOL    HW126804   5.637   2.452   6.282
 8635SOL    HW226805   5.772   2.522   6.342
 8636SOL     OW26806   5.290   6.276   1.240
 8636SOL    HW126807   5.343   6.213   1.185
 8636SOL    HW226808   5.299   6.252   1.337
 8637SOL     OW26809   1.773   1.772   6.979
 8637SOL    HW126810   1.866   1.776   7.015
 8637SOL    HW226811   1.756   1.852   6.922
 8638SOL     OW26812   4.883   2.512   4.690
 8638SOL    HW126813   4.899   2.505   4.788
 8638SOL    HW226814   4.941   2.446   4.642
 8639SOL     OW26815   3.587   4.006   6.710
 8639SOL    HW126816   3.583   4.006   6.611
 8639SOL    HW226817   3.640   3.927   6.742
 8640SOL     OW26818   2.317   3.619   1.310
 8640SOL    HW126819   2.408   3.656   1.328
 8640SOL    HW226820   2.323   3.520   1.302
 8641SOL     OW26821   4.293   6.040   2.346
 8641SOL    HW126822   4.257   5.952   2.316
 8641SOL    HW226823   4.390   6.046   2.323
 8642SOL     OW26824   0.514   5.767   3.867
 8642SOL    HW126825   0.531   5.857   3.826
 8642SOL    HW226826   0.490   5.702   3.795
 8643SOL     OW26827   4.193   6.502   0.836
 8643SOL    HW126828   4.206   6.402   0.834
 8643SOL    HW226829   4.281   6.547   0.823
 8644SOL     OW26830   6.165   1.745   0.091
 8644SOL    HW126831   6.187   1.840   0.069
 8644SOL    HW226832   6.249   1.696   0.116
 8645SOL     OW26833   5.887   3.526   2.579
 8645SOL    HW126834   5.861   3.573   2.663
 8645SOL    HW226835   5.986   3.522   2.573
 8646SOL     OW26836   0.331   2.018   5.043
 8646SOL    HW126837   0.251   1.997   5.100
 8646SOL    HW226838   0.413   2.014   5.099
 8647SOL     OW26839   2.345   5.179   2.011
 8647SOL    HW126840   2.287   5.098   2.004
 8647SOL    HW226841   2.440   5.150   2.024
 8648SOL     OW26842   5.062   5.682   0.443
 8648SOL    HW126843   5.002   5.602   0.452
 8648SOL    HW226844   5.017   5.751   0.386
 8649SOL     OW26845   4.102   0.208   1.214
 8649SOL    HW126846   4.041   0.282   1.243
 8649SOL    HW226847   4.165   0.242   1.144
 8650SOL     OW26848   1.818   6.976   4.724
 8650SOL    HW126849   1.745   0.006   4.688
 8650SOL    HW226850   1.782   6.919   4.798
 8651SOL     OW26851   3.643   2.024   0.744
 8651SOL    HW126852   3.609   2.088   0.812
 8651SOL    HW226853   3.604   1.934   0.760
 8652SOL     OW26854   1.288   3.348   3.469
 8652SOL    HW126855   1.307   3.445   3.452
 8652SOL    HW226856   1.375   3.298   3.478
 8653SOL     OW26857   0.072   1.595   5.968
 8653SOL    HW126858   0.164   1.634   5.969
 8653SOL    HW226859   0.029   1.608   6.058
 8654SOL     OW26860   0.723   4.243   1.780
 8654SOL    HW126861   0.722   4.320   1.844
 8654SOL    HW226862   0.770   4.165   1.822
 8655SOL     OW26863   0.713   0.394   5.178
 8655SOL    HW126864   0.769   0.343   5.244
 8655SOL    HW226865   0.773   0.437   5.110
 8656SOL     OW26866   4.802   6.996   0.968
 8656SOL    HW126867   4.728   6.928   0.972
 8656SOL    HW226868   4.857   6.981   0.886
 8657SOL     OW26869   4.763   1.697   2.952
 8657SOL    HW126870   4.705   1.709   2.872
 8657SOL    HW226871   4.841   1.638   2.929
 8658SOL     OW26872   6.939   4.792   0.948
 8658SOL    HW126873   6.917   4.836   1.035
 8658SOL    HW226874   6.981   4.703   0.965
 8659SOL     OW26875   4.486   1.185   2.062
 8659SOL    HW126876   4.395   1.175   2.021
 8659SOL    HW226877   4.492   1.273   2.109
 8660SOL     OW26878   6.443   3.748   1.383
 8660SOL    HW126879   6.482   3.766   1.473
 8660SOL    HW226880   6.344   3.738   1.391
 8661SOL     OW26881   6.770   3.187   3.076
 8661SOL    HW126882   6.821   3.112   3.119
 8661SOL    HW226883   6.830   3.266   3.065
 8662SOL     OW26884   2.555   4.824   3.273
 8662SOL    HW126885   2.541   4.735   3.229
 8662SOL    HW226886   2.561   4.812   3.372
 8663SOL     OW26887   3.631   5.632   2.942
 8663SOL    HW126888   3.606   5.685   2.861
 8663SOL    HW226889   3.730   5.639   2.957
 8664SOL     OW26890   3.281   5.734   4.152
 8664SOL    HW126891   3.229   5.694   4.077
 8664SOL    HW226892   3.222   5.740   4.233
 8665SOL     OW26893   5.243   3.090   6.257
 8665SOL    HW126894   5.343   3.082   6.262
 8665SOL    HW226895   5.219   3.179   6.217
 8666SOL     OW26896   4.563   6.486   2.479
 8666SOL    HW126897   4.563   6.474   2.380
 8666SOL    HW226898   4.626   6.560   2.504
 8667SOL     OW26899   4.949   2.133   3.856
 8667SOL    HW126900   4.979   2.228   3.849
 8667SOL    HW226901   4.984   2.081   3.778
 8668SOL     OW26902   4.820   2.874   5.382
 8668SOL    HW126903   4.898   2.812   5.372
 8668SOL    HW226904   4.737   2.829   5.349
 8669SOL     OW26905   6.068   6.324   5.790
 8669SOL    HW126906   6.137   6.353   5.857
 8669SOL    HW226907   6.079   6.226   5.772
 8670SOL     OW26908   6.128   4.302   5.714
 8670SOL    HW126909   6.058   4.324   5.646
 8670SOL    HW226910   6.120   4.206   5.740
 8671SOL     OW26911   6.973   1.846   2.688
 8671SOL    HW126912   6.893   1.905   2.681
 8671SOL    HW226913   0.017   1.879   2.625
 8672SOL     OW26914   0.694   1.113   3.357
 8672SOL    HW126915   0.767   1.129   3.290
 8672SOL    HW226916   0.733   1.112   3.449
 8673SOL     OW26917   0.734   1.379   1.199
 8673SOL    HW126918   0.686   1.463   1.223
 8673SOL    HW226919   0.669   1.306   1.182
 8674SOL     OW26920   6.495   4.638   3.559
 8674SOL    HW126921   6.431   4.714   3.552
 8674SOL    HW226922   6.467   4.565   3.496
 8675SOL     OW26923   3.299   1.960   5.843
 8675SOL    HW126924   3.304   1.966   5.943
 8675SOL    HW226925   3.204   1.971   5.814
 8676SOL     OW26926   5.564   1.069   0.523
 8676SOL    HW126927   5.558   1.001   0.596
 8676SOL    HW226928   5.618   1.147   0.554
 8677SOL     OW26929   1.687   6.427   5.973
 8677SOL    HW126930   1.656   6.477   6.054
 8677SOL    HW226931   1.617   6.434   5.901
 8678SOL     OW26932   1.678   1.347   0.996
 8678SOL    HW126933   1.685   1.262   1.048
 8678SOL    HW226934   1.746   1.345   0.922
 8679SOL     OW26935   2.130   1.333   4.406
 8679SOL    HW126936   2.089   1.256   4.454
 8679SOL    HW226937   2.058   1.396   4.376
 8680SOL     OW26938   6.490   2.048   6.406
 8680SOL    HW126939   6.548   2.041   6.325
 8680SOL    HW226940   6.395   2.063   6.378
 8681SOL     OW26941   5.640   5.706   2.017
 8681SOL    HW126942   5.715   5.769   2.036
 8681SOL    HW226943   5.666   5.613   2.043
 8682SOL     OW26944   0.975   0.889   1.130
 8682SOL    HW126945   0.915   0.946   1.186
 8682SOL    HW226946   0.919   0.822   1.079
 8683SOL     OW26947   1.909   4.300   4.563
 8683SOL    HW126948   1.977   4.236   4.596
 8683SOL    HW226949   1.939   4.394   4.582
 8684SOL     OW26950   1.047   3.836   5.154
 8684SOL    HW126951   1.027   3.799   5.245
 8684SOL    HW226952   1.065   3.934   5.161
 8685SOL     OW26953   5.006   2.670   5.340
 8685SOL    HW126954   5.049   2.585   5.367
 8685SOL    HW226955   5.029   2.692   5.245
 8686SOL     OW26956   0.050   5.359   2.657
 8686SOL    HW126957   0.000   5.446   2.654
 8686SOL    HW226958   0.043   5.320   2.749
 8687SOL     OW26959   5.771   3.202   4.754
 8687SOL    HW126960   5.740   3.261   4.828
 8687SOL    HW226961   5.727   3.230   4.668
 8688SOL     OW26962   0.883   4.484   6.291
 8688SOL    HW126963   0.839   4.546   6.355
 8688SOL    HW226964   0.823   4.406   6.274
 8689SOL     OW26965   4.782   3.851   6.835
 8689SOL    HW126966   4.738   3.809   6.756
 8689SOL    HW226967   4.866   3.897   6.806
 8690SOL     OW26968   1.757   2.430   3.788
 8690SOL    HW126969   1.774   2.432   3.690
 8690SOL    HW226970   1.714   2.343   3.813
 8691SOL     OW26971   2.926   2.358   5.387
 8691SOL    HW126972   2.988   2.420   5.340
 8691SOL    HW226973   2.978   2.284   5.430
 8692SOL     OW26974   3.997   1.829   5.659
 8692SOL    HW126975   4.059   1.761   5.621
 8692SOL    HW226976   3.989   1.906   5.596
 8693SOL     OW26977   6.696   6.962   6.127
 8693SOL    HW126978   6.649   6.932   6.044
 8693SOL    HW226979   6.659   0.022   6.157
 8694SOL     OW26980   5.905   3.132   4.403
 8694SOL    HW126981   5.833   3.200   4.421
 8694SOL    HW226982   5.969   3.169   4.336
 8695SOL     OW26983   3.757   4.176   5.981
 8695SOL    HW126984   3.724   4.106   5.919
 8695SOL    HW226985   3.802   4.132   6.060
 8696SOL     OW26986   3.471   5.831   6.453
 8696SOL    HW126987   3.451   5.743   6.409
 8696SOL    HW226988   3.492   5.815   6.550
 8697SOL     OW26989   1.632   3.615   5.702
 8697SOL    HW126990   1.709   3.585   5.759
 8697SOL    HW226991   1.637   3.569   5.613
 8698SOL     OW26992   5.841   5.737   5.453
 8698SOL    HW126993   5.936   5.705   5.451
 8698SOL    HW226994   5.783   5.668   5.498
 8699SOL     OW26995   1.914   3.356   0.183
 8699SOL    HW126996   1.960   3.366   0.095
 8699SOL    HW226997   1.936   3.267   0.222
 8700SOL     OW26998   0.765   6.985   4.904
 8700SOL    HW126999   0.680   0.001   4.873
 8700SOL    HW227000   0.743   6.898   4.949
 8701SOL     OW27001   0.905   2.734   0.100
 8701SOL    HW127002   1.002   2.744   0.080
 8701SOL    HW227003   0.866   2.661   0.043
 8702SOL     OW27004   5.855   4.510   1.757
 8702SOL    HW127005   5.815   4.551   1.839
 8702SOL    HW227006   5.943   4.468   1.781
 8703SOL     OW27007   2.683   4.792   1.298
 8703SOL    HW127008   2.741   4.713   1.279
 8703SOL    HW227009   2.648   4.785   1.392
 8704SOL     OW27010   0.597   1.627   3.853
 8704SOL    HW127011   0.586   1.657   3.947
 8704SOL    HW227012   0.671   1.560   3.848
 8705SOL     OW27013   4.033   2.811   0.332
 8705SOL    HW127014   4.118   2.785   0.377
 8705SOL    HW227015   4.054   2.856   0.246
 8706SOL     OW27016   4.696   3.518   6.739
 8706SOL    HW127017   4.615   3.459   6.746
 8706SOL    HW227018   4.669   3.606   6.700
 8707SOL     OW27019   2.003   2.081   4.720
 8707SOL    HW127020   2.011   2.109   4.816
 8707SOL    HW227021   2.057   1.998   4.706
 8708SOL     OW27022   6.125   2.099   1.733
 8708SOL    HW127023   6.099   2.106   1.829
 8708SOL    HW227024   6.044   2.078   1.678
 8709SOL     OW27025   6.780   0.298   5.490
 8709SOL    HW127026   6.837   0.308   5.572
 8709SOL    HW227027   6.710   0.229   5.506
 8710SOL     OW27028   2.246   1.196   3.488
 8710SOL    HW127029   2.294   1.251   3.556
 8710SOL    HW227030   2.300   1.192   3.404
 8711SOL     OW27031   1.902   0.460   1.765
 8711SOL    HW127032   1.950   0.457   1.677
 8711SOL    HW227033   1.926   0.545   1.812
 8712SOL     OW27034   1.784   2.998   5.797
 8712SOL    HW127035   1.798   3.036   5.705
 8712SOL    HW227036   1.733   3.064   5.853
 8713SOL     OW27037   0.432   4.789   1.979
 8713SOL    HW127038   0.531   4.794   1.973
 8713SOL    HW227039   0.392   4.877   1.952
 8714SOL     OW27040   0.056   6.169   0.103
 8714SOL    HW127041   0.087   6.264   0.108
 8714SOL    HW227042   0.078   6.131   0.013
 8715SOL     OW27043   2.151   3.172   1.114
 8715SOL    HW127044   2.089   3.249   1.129
 8715SOL    HW227045   2.101   3.099   1.068
 8716SOL     OW27046   6.638   6.448   1.768
 8716SOL    HW127047   6.598   6.526   1.719
 8716SOL    HW227048   6.570   6.375   1.775
 8717SOL     OW27049   2.541   4.450   0.746
 8717SOL    HW127050   2.565   4.362   0.787
 8717SOL    HW227051   2.442   4.457   0.737
 8718SOL     OW27052   2.615   4.570   6.820
 8718SOL    HW127053   2.697   4.590   6.766
 8718SOL    HW227054   2.585   4.652   6.868
 8719SOL     OW27055   4.006   0.462   5.515
 8719SOL    HW127056   4.060   0.473   5.431
 8719SOL    HW227057   3.993   0.551   5.558
 8720SOL     OW27058   6.696   4.585   5.051
 8720SOL    HW127059   6.606   4.626   5.034
 8720SOL    HW227060   6.684   4.496   5.095
 8721SOL     OW27061   0.274   6.660   6.130
 8721SOL    HW127062   0.199   6.685   6.069
 8721SOL    HW227063   0.332   6.739   6.147
 8722SOL     OW27064   4.024   1.107   1.457
 8722SOL    HW127065   4.114   1.147   1.439
 8722SOL    HW227066   4.014   1.092   1.555
 8723SOL     OW27067   4.673   6.802   2.240
 8723SOL    HW127068   4.686   6.758   2.329
 8723SOL    HW227069   4.712   6.745   2.168
 8724SOL     OW27070   4.064   0.833   4.980
 8724SOL    HW127071   4.159   0.853   4.955
 8724SOL    HW227072   4.017   0.793   4.902
 8725SOL     OW27073   0.118   6.366   3.685
 8725SOL    HW127074   0.163   6.336   3.769
 8725SOL    HW227075   0.184   6.416   3.628
 8726SOL     OW27076   0.522   0.874   0.715
 8726SOL    HW127077   0.458   0.950   0.724
 8726SOL    HW227078   0.607   0.895   0.763
 8727SOL     OW27079   4.413   4.951   6.345
 8727SOL    HW127080   4.477   4.947   6.421
 8727SOL    HW227081   4.423   5.037   6.296
 8728SOL     OW27082   6.781   0.396   3.451
 8728SOL    HW127083   6.856   0.461   3.467
 8728SOL    HW227084   6.735   0.420   3.366
 8729SOL     OW27085   3.704   6.137   6.797
 8729SOL    HW127086   3.606   6.122   6.813
 8729SOL    HW227087   3.740   6.202   6.863
 8730SOL     OW27088   4.634   4.975   2.061
 8730SOL    HW127089   4.600   4.947   1.971
 8730SOL    HW227090   4.728   5.009   2.051
 8731SOL     OW27091   1.090   1.354   3.369
 8731SOL    HW127092   1.101   1.280   3.436
 8731SOL    HW227093   0.995   1.359   3.340
 8732SOL     OW27094   5.497   6.131   0.379
 8732SOL    HW127095   5.398   6.120   0.378
 8732SOL    HW227096   5.521   6.227   0.366
 8733SOL     OW27097   6.635   5.275   1.848
 8733SOL    HW127098   6.633   5.192   1.793
 8733SOL    HW227099   6.679   5.256   1.936
 8734SOL     OW27100   0.107   3.546   2.424
 8734SOL    HW127101   0.161   3.629   2.438
 8734SOL    HW227102   0.143   3.473   2.481
 8735SOL     OW27103   1.655   3.893   5.751
 8735SOL    HW127104   1.656   3.795   5.768
 8735SOL    HW227105   1.679   3.910   5.655
 8736SOL     OW27106   1.213   6.013   2.942
 8736SOL    HW127107   1.142   6.083   2.934
 8736SOL    HW227108   1.170   5.924   2.957
 8737SOL     OW27109   1.814   6.111   6.740
 8737SOL    HW127110   1.792   6.183   6.674
 8737SOL    HW227111   1.894   6.139   6.794
 8738SOL     OW27112   1.115   3.249   3.668
 8738SOL    HW127113   1.124   3.150   3.678
 8738SOL    HW227114   1.193   3.285   3.617
 8739SOL     OW27115   5.474   4.349   5.261
 8739SOL    HW127116   5.508   4.377   5.351
 8739SOL    HW227117   5.379   4.321   5.269
 8740SOL     OW27118   3.149   1.120   4.792
 8740SOL    HW127119   3.058   1.105   4.830
 8740SOL    HW227120   3.155   1.213   4.754
 8741SOL     OW27121   0.977   0.104   2.736
 8741SOL    HW127122   1.019   0.194   2.722
 8741SOL    HW227123   0.945   0.097   2.830
 8742SOL     OW27124   3.014   1.880   2.775
 8742SOL    HW127125   3.023   1.894   2.676
 8742SOL    HW227126   3.037   1.965   2.822
 8743SOL     OW27127   0.884   1.813   1.388
 8743SOL    HW127128   0.894   1.718   1.360
 8743SOL    HW227129   0.804   1.853   1.344
 8744SOL     OW27130   3.251   4.447   6.967
 8744SOL    HW127131   3.278   4.437   0.036
 8744SOL    HW227132   3.227   4.542   6.949
 8745SOL     OW27133   6.095   1.695   6.170
 8745SOL    HW127134   6.153   1.632   6.118
 8745SOL    HW227135   6.018   1.645   6.209
 8746SOL     OW27136   4.325   4.882   4.455
 8746SOL    HW127137   4.230   4.867   4.429
 8746SOL    HW227138   4.338   4.853   4.550
 8747SOL     OW27139   0.390   1.103   1.625
 8747SOL    HW127140   0.409   1.033   1.556
 8747SOL    HW227141   0.369   1.059   1.712
 8748SOL     OW27142   0.449   2.205   3.911
 8748SOL    HW127143   0.532   2.156   3.936
 8748SOL    HW227144   0.447   2.220   3.812
 8749SOL     OW27145   2.959   1.236   5.110
 8749SOL    HW127146   2.968   1.185   5.195
 8749SOL    HW227147   2.937   1.173   5.035
 8750SOL     OW27148   3.982   3.101   6.215
 8750SOL    HW127149   3.938   3.159   6.146
 8750SOL    HW227150   3.918   3.033   6.249
 8751SOL     OW27151   0.965   5.786   1.879
 8751SOL    HW127152   1.062   5.762   1.877
 8751SOL    HW227153   0.955   5.883   1.901
 8752SOL     OW27154   5.361   3.721   6.573
 8752SOL    HW127155   5.308   3.635   6.574
 8752SOL    HW227156   5.406   3.733   6.661
 8753SOL     OW27157   2.666   2.606   6.915
 8753SOL    HW127158   2.665   2.682   6.980
 8753SOL    HW227159   2.674   2.519   6.963
 8754SOL     OW27160   2.472   5.319   0.592
 8754SOL    HW127161   2.512   5.404   0.625
 8754SOL    HW227162   2.518   5.241   0.636
 8755SOL     OW27163   6.833   2.608   2.525
 8755SOL    HW127164   6.872   2.579   2.612
 8755SOL    HW227165   6.803   2.528   2.474
 8756SOL     OW27166   1.724   1.708   2.717
 8756SOL    HW127167   1.630   1.679   2.736
 8756SOL    HW227168   1.745   1.790   2.771
 8757SOL     OW27169   5.203   6.552   5.165
 8757SOL    HW127170   5.262   6.548   5.246
 8757SOL    HW227171   5.242   6.496   5.092
 8758SOL     OW27172   3.172   6.512   4.704
 8758SOL    HW127173   3.114   6.583   4.745
 8758SOL    HW227174   3.255   6.554   4.668
 8759SOL     OW27175   5.650   0.872   0.713
 8759SOL    HW127176   5.705   0.795   0.680
 8759SOL    HW227177   5.686   0.904   0.801
 8760SOL     OW27178   2.634   2.443   4.338
 8760SOL    HW127179   2.556   2.475   4.392
 8760SOL    HW227180   2.606   2.366   4.280
 8761SOL     OW27181   4.654   0.695   2.067
 8761SOL    HW127182   4.669   0.626   2.137
 8761SOL    HW227183   4.699   0.781   2.094
 8762SOL     OW27184   1.216   4.763   2.920
 8762SOL    HW127185   1.272   4.682   2.903
 8762SOL    HW227186   1.274   4.841   2.943
 8763SOL     OW27187   0.732   1.188   6.419
 8763SOL    HW127188   0.655   1.138   6.459
 8763SOL    HW227189   0.725   1.185   6.319
 8764SOL     OW27190   3.017   4.739   5.759
 8764SOL    HW127191   3.070   4.657   5.739
 8764SOL    HW227192   2.975   4.729   5.850
 8765SOL     OW27193   5.170   0.752   5.262
 8765SOL    HW127194   5.224   0.677   5.224
 8765SOL    HW227195   5.228   0.809   5.319
 8766SOL     OW27196   5.071   5.349   5.401
 8766SOL    HW127197   4.971   5.352   5.394
 8766SOL    HW227198   5.109   5.322   5.312
 8767SOL     OW27199   3.031   0.922   4.046
 8767SOL    HW127200   3.021   0.822   4.040
 8767SOL    HW227201   2.962   0.959   4.107
 8768SOL     OW27202   6.437   2.111   6.819
 8768SOL    HW127203   6.359   2.172   6.835
 8768SOL    HW227204   6.499   2.153   6.752
 8769SOL     OW27205   6.385   0.813   0.612
 8769SOL    HW127206   6.472   0.852   0.585
 8769SOL    HW227207   6.325   0.806   0.532
 8770SOL     OW27208   4.698   4.081   1.012
 8770SOL    HW127209   4.607   4.082   0.972
 8770SOL    HW227210   4.694   4.114   1.107
 8771SOL     OW27211   0.472   3.704   0.386
 8771SOL    HW127212   0.399   3.684   0.321
 8771SOL    HW227213   0.541   3.761   0.341
 8772SOL     OW27214   5.916   6.569   3.988
 8772SOL    HW127215   5.840   6.567   3.923
 8772SOL    HW227216   5.889   6.621   4.069
 8773SOL     OW27217   0.153   1.590   3.687
 8773SOL    HW127218   0.060   1.626   3.685
 8773SOL    HW227219   0.187   1.583   3.593
 8774SOL     OW27220   1.443   1.187   0.760
 8774SOL    HW127221   1.459   1.089   0.763
 8774SOL    HW227222   1.461   1.226   0.850
 8775SOL     OW27223   5.140   1.963   4.242
 8775SOL    HW127224   5.055   1.975   4.192
 8775SOL    HW227225   5.216   1.956   4.177
 8776SOL     OW27226   4.111   3.119   0.494
 8776SOL    HW127227   4.191   3.178   0.479
 8776SOL    HW227228   4.028   3.175   0.494
 8777SOL     OW27229   0.811   2.322   3.673
 8777SOL    HW127230   0.894   2.297   3.722
 8777SOL    HW227231   0.832   2.387   3.600
 8778SOL     OW27232   3.916   5.048   6.901
 8778SOL    HW127233   3.901   5.040   6.802
 8778SOL    HW227234   3.934   5.144   6.924
 8779SOL     OW27235   3.817   4.891   3.549
 8779SOL    HW127236   3.854   4.903   3.457
 8779SOL    HW227237   3.889   4.911   3.616
 8780SOL     OW27238   5.746   5.221   3.816
 8780SOL    HW127239   5.818   5.213   3.885
 8780SOL    HW227240   5.757   5.148   3.748
 8781SOL     OW27241   3.360   6.736   1.894
 8781SOL    HW127242   3.420   6.685   1.956
 8781SOL    HW227243   3.402   6.824   1.871
 8782SOL     OW27244   5.215   1.237   1.736
 8782SOL    HW127245   5.292   1.301   1.727
 8782SOL    HW227246   5.250   1.144   1.740
 8783SOL     OW27247   4.909   3.351   5.009
 8783SOL    HW127248   4.876   3.417   5.077
 8783SOL    HW227249   4.905   3.393   4.918
 8784SOL     OW27250   5.538   7.021   0.581
 8784SOL    HW127251   5.518   6.994   0.675
 8784SOL    HW227252   5.505   6.950   0.518
 8785SOL     OW27253   0.749   5.207   6.400
 8785SOL    HW127254   0.741   5.140   6.473
 8785SOL    HW227255   0.842   5.243   6.398
 8786SOL     OW27256   4.458   2.027   2.040
 8786SOL    HW127257   4.375   2.082   2.044
 8786SOL    HW227258   4.532   2.080   1.999
 8787SOL     OW27259   3.457   6.853   1.150
 8787SOL    HW127260   3.466   6.879   1.246
 8787SOL    HW227261   3.545   6.820   1.116
 8788SOL     OW27262   0.626   0.591   4.231
 8788SOL    HW127263   0.591   0.504   4.196
 8788SOL    HW227264   0.662   0.577   4.323
 8789SOL     OW27265   6.936   3.020   5.095
 8789SOL    HW127266   6.897   2.938   5.136
 8789SOL    HW227267   6.984   2.996   5.010
 8790SOL     OW27268   5.751   3.004   6.281
 8790SOL    HW127269   5.708   3.004   6.371
 8790SOL    HW227270   5.734   2.917   6.235
 8791SOL     OW27271   4.032   5.221   6.012
 8791SOL    HW127272   3.967   5.256   5.945
 8791SOL    HW227273   4.124   5.222   5.973
 8792SOL     OW27274   5.532   5.182   1.159
 8792SOL    HW127275   5.450   5.227   1.194
 8792SOL    HW227276   5.545   5.094   1.206
 8793SOL     OW27277   6.869   5.205   4.310
 8793SOL    HW127278   6.963   5.230   4.287
 8793SOL    HW227279   6.825   5.163   4.231
 8794SOL     OW27280   0.272   0.658   2.096
 8794SOL    HW127281   0.177   0.634   2.115
 8794SOL    HW227282   0.333   0.600   2.151
 8795SOL     OW27283   1.561   5.296   6.283
 8795SOL    HW127284   1.495   5.283   6.357
 8795SOL    HW227285   1.654   5.296   6.320
 8796SOL     OW27286   6.808   3.900   3.229
 8796SOL    HW127287   6.778   3.826   3.289
 8796SOL    HW227288   6.728   3.951   3.197
 8797SOL     OW27289   4.817   6.824   4.200
 8797SOL    HW127290   4.853   6.735   4.229
 8797SOL    HW227291   4.865   6.854   4.118
 8798SOL     OW27292   3.667   5.989   5.719
 8798SOL    HW127293   3.696   5.984   5.624
 8798SOL    HW227294   3.741   6.026   5.775
 8799SOL     OW27295   1.628   5.394   2.089
 8799SOL    HW127296   1.725   5.412   2.109
 8799SOL    HW227297   1.621   5.327   2.016
 8800SOL     OW27298   6.711   5.640   5.862
 8800SOL    HW127299   6.688   5.641   5.959
 8800SOL    HW227300   6.628   5.622   5.808
 8801SOL     OW27301   6.110   2.821   5.330
 8801SOL    HW127302   6.127   2.914   5.364
 8801SOL    HW227303   6.195   2.769   5.333
 8802SOL     OW27304   1.116   6.605   6.168
 8802SOL    HW127305   1.163   6.520   6.143
 8802SOL    HW227306   1.055   6.587   6.246
 8803SOL     OW27307   6.420   0.067   6.595
 8803SOL    HW127308   6.385   0.038   6.684
 8803SOL    HW227309   6.440   7.014   6.539
 8804SOL     OW27310   1.624   6.428   2.831
 8804SOL    HW127311   1.621   6.399   2.926
 8804SOL    HW227312   1.535   6.412   2.788
 8805SOL     OW27313   4.871   5.101   2.941
 8805SOL    HW127314   4.809   5.166   2.896
 8805SOL    HW227315   4.927   5.149   3.008
 8806SOL     OW27316   1.978   0.642   0.899
 8806SOL    HW127317   2.048   0.695   0.946
 8806SOL    HW227318   2.020   0.586   0.828
 8807SOL     OW27319   5.021   2.454   1.579
 8807SOL    HW127320   5.010   2.530   1.643
 8807SOL    HW227321   5.058   2.375   1.627
 8808SOL     OW27322   2.266   2.502   0.719
 8808SOL    HW127323   2.322   2.583   0.708
 8808SOL    HW227324   2.266   2.449   0.634
 8809SOL     OW27325   0.462   3.878   2.800
 8809SOL    HW127326   0.531   3.942   2.832
 8809SOL    HW227327   0.496   3.784   2.811
 8810SOL     OW27328   0.733   0.782   6.142
 8810SOL    HW127329   0.652   0.835   6.116
 8810SOL    HW227330   0.709   0.685   6.147
 8811SOL     OW27331   3.494   5.476   2.553
 8811SOL    HW127332   3.411   5.510   2.596
 8811SOL    HW227333   3.573   5.529   2.585
 8812SOL     OW27334   5.073   1.652   6.425
 8812SOL    HW127335   5.124   1.733   6.454
 8812SOL    HW227336   5.094   1.576   6.487
 8813SOL     OW27337   2.556   4.564   3.482
 8813SOL    HW127338   2.464   4.584   3.449
 8813SOL    HW227339   2.552   4.490   3.549
 8814SOL     OW27340   5.415   6.743   6.392
 8814SOL    HW127341   5.507   6.722   6.425
 8814SOL    HW227342   5.399   6.694   6.306
 8815SOL     OW27343   5.903   1.714   0.032
 8815SOL    HW127344   5.880   1.627   0.074
 8815SOL    HW227345   6.002   1.726   0.030
 8816SOL     OW27346   0.738   6.410   4.964
 8816SOL    HW127347   0.786   6.417   4.877
 8816SOL    HW227348   0.695   6.498   4.985
 8817SOL     OW27349   1.465   3.115   3.542
 8817SOL    HW127350   1.373   3.075   3.544
 8817SOL    HW227351   1.533   3.044   3.562
 8818SOL     OW27352   1.595   0.202   4.380
 8818SOL    HW127353   1.497   0.183   4.369
 8818SOL    HW227354   1.647   0.127   4.341
 8819SOL     OW27355   5.454   4.062   6.270
 8819SOL    HW127356   5.426   3.967   6.257
 8819SOL    HW227357   5.516   4.068   6.349
 8820SOL     OW27358   3.142   0.326   4.544
 8820SOL    HW127359   3.118   0.383   4.466
 8820SOL    HW227360   3.159   0.384   4.624
 8821SOL     OW27361   0.396   4.485   6.742
 8821SOL    HW127362   0.421   4.543   6.820
 8821SOL    HW227363   0.350   4.403   6.775
 8822SOL     OW27364   6.412   6.846   4.033
 8822SOL    HW127365   6.366   6.762   4.060
 8822SOL    HW227366   6.364   6.887   3.955
 8823SOL     OW27367   4.271   0.937   2.576
 8823SOL    HW127368   4.352   0.959   2.629
 8823SOL    HW227369   4.289   0.856   2.520
 8824SOL     OW27370   2.443   1.112   2.181
 8824SOL    HW127371   2.361   1.117   2.237
 8824SOL    HW227372   2.494   1.198   2.190
 8825SOL     OW27373   0.065   6.080   0.370
 8825SOL    HW127374   0.129   6.100   0.443
 8825SOL    HW227375   0.079   6.144   0.294
 8826SOL     OW27376   1.128   3.633   0.606
 8826SOL    HW127377   1.205   3.670   0.553
 8826SOL    HW227378   1.117   3.536   0.585
 8827SOL     OW27379   3.919   6.411   2.206
 8827SOL    HW127380   3.946   6.376   2.116
 8827SOL    HW227381   3.998   6.453   2.251
 8828SOL     OW27382   3.417   3.359   6.209
 8828SOL    HW127383   3.426   3.283   6.273
 8828SOL    HW227384   3.440   3.445   6.256
 8829SOL     OW27385   6.976   1.345   2.444
 8829SOL    HW127386   6.999   1.266   2.500
 8829SOL    HW227387   6.919   1.408   2.496
 8830SOL     OW27388   2.975   1.256   3.891
 8830SOL    HW127389   2.981   1.180   3.826
 8830SOL    HW227390   2.986   1.342   3.842
 8831SOL     OW27391   0.400   2.397   2.191
 8831SOL    HW127392   0.369   2.492   2.198
 8831SOL    HW227393   0.321   2.336   2.188
 8832SOL     OW27394   5.935   1.001   4.250
 8832SOL    HW127395   5.889   1.031   4.334
 8832SOL    HW227396   6.028   0.972   4.272
 8833SOL     OW27397   3.325   2.685   1.089
 8833SOL    HW127398   3.310   2.586   1.083
 8833SOL    HW227399   3.288   2.719   1.175
 8834SOL     OW27400   5.220   3.274   5.565
 8834SOL    HW127401   5.264   3.185   5.552
 8834SOL    HW227402   5.158   3.269   5.643
 8835SOL     OW27403   6.627   0.831   5.827
 8835SOL    HW127404   6.716   0.795   5.798
 8835SOL    HW227405   6.602   0.790   5.914
 8836SOL     OW27406   4.237   1.623   1.100
 8836SOL    HW127407   4.201   1.690   1.165
 8836SOL    HW227408   4.336   1.633   1.093
 8837SOL     OW27409   5.403   6.818   1.218
 8837SOL    HW127410   5.367   6.857   1.133
 8837SOL    HW227411   5.424   6.721   1.205
 8838SOL     OW27412   0.342   4.096   2.945
 8838SOL    HW127413   0.354   4.057   2.854
 8838SOL    HW227414   0.315   4.024   3.009
 8839SOL     OW27415   4.935   5.776   3.167
 8839SOL    HW127416   4.998   5.717   3.218
 8839SOL    HW227417   4.844   5.771   3.208
 8840SOL     OW27418   6.987   1.077   1.127
 8840SOL    HW127419   6.920   1.003   1.116
 8840SOL    HW227420   0.050   1.045   1.098
 8841SOL     OW27421   3.049   1.187   1.280
 8841SOL    HW127422   3.077   1.150   1.369
 8841SOL    HW227423   3.113   1.259   1.252
 8842SOL     OW27424   3.737   3.648   4.221
 8842SOL    HW127425   3.652   3.627   4.270
 8842SOL    HW227426   3.771   3.565   4.177
 8843SOL     OW27427   2.850   4.622   6.674
 8843SOL    HW127428   2.881   4.716   6.681
 8843SOL    HW227429   2.928   4.560   6.682
 8844SOL     OW27430   4.435   1.700   5.259
 8844SOL    HW127431   4.498   1.719   5.184
 8844SOL    HW227432   4.445   1.605   5.289
 8845SOL     OW27433   0.344   4.795   2.314
 8845SOL    HW127434   0.425   4.811   2.258
 8845SOL    HW227435   0.290   4.879   2.319
 8846SOL     OW27436   5.574   4.639   3.800
 8846SOL    HW127437   5.529   4.713   3.851
 8846SOL    HW227438   5.618   4.577   3.865
 8847SOL     OW27439   2.288   2.231   2.954
 8847SOL    HW127440   2.236   2.237   2.868
 8847SOL    HW227441   2.307   2.323   2.988
 8848SOL     OW27442   3.990   1.923   1.062
 8848SOL    HW127443   3.992   1.832   1.022
 8848SOL    HW227444   3.947   1.919   1.153
 8849SOL     OW27445   2.477   5.347   4.818
 8849SOL    HW127446   2.502   5.307   4.730
 8849SOL    HW227447   2.485   5.279   4.890
 8850SOL     OW27448   3.117   1.451   1.659
 8850SOL    HW127449   3.118   1.551   1.671
 8850SOL    HW227450   3.028   1.422   1.625
 8851SOL     OW27451   0.113   5.023   2.876
 8851SOL    HW127452   0.090   4.933   2.840
 8851SOL    HW227453   0.194   5.016   2.935
 8852SOL     OW27454   5.156   2.871   5.740
 8852SOL    HW127455   5.144   2.787   5.794
 8852SOL    HW227456   5.213   2.935   5.791
 8853SOL     OW27457   4.400   1.120   5.615
 8853SOL    HW127458   4.352   1.063   5.549
 8853SOL    HW227459   4.335   1.159   5.680
 8854SOL     OW27460   1.513   1.902   6.672
 8854SOL    HW127461   1.528   1.973   6.603
 8854SOL    HW227462   1.601   1.860   6.696
 8855SOL     OW27463   6.385   5.126   6.332
 8855SOL    HW127464   6.470   5.074   6.341
 8855SOL    HW227465   6.337   5.096   6.249
 8856SOL     OW27466   5.837   0.953   4.812
 8856SOL    HW127467   5.886   1.040   4.817
 8856SOL    HW227468   5.765   0.952   4.882
 8857SOL     OW27469   6.771   2.363   3.616
 8857SOL    HW127470   6.788   2.271   3.580
 8857SOL    HW227471   6.727   2.356   3.705
 8858SOL     OW27472   0.327   3.314   6.952
 8858SOL    HW127473   0.318   3.413   6.942
 8858SOL    HW227474   0.421   3.287   6.929
 8859SOL     OW27475   2.001   6.035   5.696
 8859SOL    HW127476   1.933   5.962   5.684
 8859SOL    HW227477   2.092   5.994   5.700
 8860SOL     OW27478   1.553   1.976   2.650
 8860SOL    HW127479   1.631   1.951   2.707
 8860SOL    HW227480   1.564   2.070   2.618
 8861SOL     OW27481   3.932   3.390   7.004
 8861SOL    HW127482   3.926   3.304   6.955
 8861SOL    HW227483   3.977   3.375   0.065
 8862SOL     OW27484   5.850   1.638   4.557
 8862SOL    HW127485   5.768   1.638   4.499
 8862SOL    HW227486   5.850   1.719   4.615
 8863SOL     OW27487   2.122   5.736   5.702
 8863SOL    HW127488   2.133   5.800   5.625
 8863SOL    HW227489   2.190   5.664   5.695
 8864SOL     OW27490   1.303   2.571   6.825
 8864SOL    HW127491   1.399   2.542   6.834
 8864SOL    HW227492   1.294   2.631   6.746
 8865SOL     OW27493   2.974   2.270   6.184
 8865SOL    HW127494   3.044   2.260   6.113
 8865SOL    HW227495   2.987   2.357   6.232
 8866SOL     OW27496   3.116   6.230   4.844
 8866SOL    HW127497   3.028   6.187   4.863
 8866SOL    HW227498   3.102   6.311   4.787
 8867SOL     OW27499   6.957   3.032   3.479
 8867SOL    HW127500   6.950   2.946   3.530
 8867SOL    HW227501   6.870   3.080   3.482
 8868SOL     OW27502   4.159   3.987   6.867
 8868SOL    HW127503   4.083   3.995   6.932
 8868SOL    HW227504   4.215   3.908   6.891
 8869SOL     OW27505   5.238   2.698   3.692
 8869SOL    HW127506   5.325   2.657   3.663
 8869SOL    HW227507   5.217   2.668   3.785
 8870SOL     OW27508   3.945   0.895   0.602
 8870SOL    HW127509   3.897   0.941   0.528
 8870SOL    HW227510   3.901   0.916   0.689
 8871SOL     OW27511   2.492   2.085   3.568
 8871SOL    HW127512   2.423   2.155   3.588
 8871SOL    HW227513   2.473   2.043   3.480
 8872SOL     OW27514   1.452   3.853   4.329
 8872SOL    HW127515   1.412   3.938   4.292
 8872SOL    HW227516   1.387   3.810   4.391
 8873SOL     OW27517   0.389   5.221   4.508
 8873SOL    HW127518   0.393   5.171   4.594
 8873SOL    HW227519   0.298   5.259   4.495
 8874SOL     OW27520   3.261   0.713   0.486
 8874SOL    HW127521   3.263   0.674   0.579
 8874SOL    HW227522   3.189   0.781   0.480
 8875SOL     OW27523   2.066   2.556   4.406
 8875SOL    HW127524   2.079   2.479   4.469
 8875SOL    HW227525   2.118   2.635   4.438
 8876SOL     OW27526   0.899   0.527   4.967
 8876SOL    HW127527   0.837   0.531   4.888
 8876SOL    HW227528   0.942   0.616   4.980
 8877SOL     OW27529   2.609   0.169   4.998
 8877SOL    HW127530   2.571   0.078   5.010
 8877SOL    HW227531   2.581   0.206   4.909
 8878SOL     OW27532   6.723   4.095   6.646
 8878SOL    HW127533   6.707   3.999   6.622
 8878SOL    HW227534   6.665   4.120   6.723
 8879SOL     OW27535   5.241   6.560   5.872
 8879SOL    HW127536   5.316   6.495   5.869
 8879SOL    HW227537   5.172   6.534   5.805
 8880SOL     OW27538   6.821   5.167   4.966
 8880SOL    HW127539   6.727   5.132   4.958
 8880SOL    HW227540   6.822   5.264   4.944
 8881SOL     OW27541   6.555   1.261   1.130
 8881SOL    HW127542   6.563   1.239   1.227
 8881SOL    HW227543   6.590   1.353   1.113
 8882SOL     OW27544   5.641   1.676   6.634
 8882SOL    HW127545   5.581   1.753   6.612
 8882SOL    HW227546   5.592   1.590   6.616
 8883SOL     OW27547   6.756   1.020   5.303
 8883SOL    HW127548   6.716   0.962   5.232
 8883SOL    HW227549   6.688   1.089   5.331
 8884SOL     OW27550   6.582   0.596   6.087
 8884SOL    HW127551   6.664   0.644   6.120
 8884SOL    HW227552   6.509   0.662   6.071
 8885SOL     OW27553   5.449   3.576   1.923
 8885SOL    HW127554   5.474   3.623   1.839
 8885SOL    HW227555   5.473   3.632   2.002
 8886SOL     OW27556   3.129   0.176   6.230
 8886SOL    HW127557   3.112   0.089   6.275
 8886SOL    HW227558   3.098   0.172   6.136
 8887SOL     OW27559   2.709   1.387   0.776
 8887SOL    HW127560   2.775   1.313   0.764
 8887SOL    HW227561   2.701   1.440   0.692
 8888SOL     OW27562   3.446   1.938   2.240
 8888SOL    HW127563   3.452   1.995   2.158
 8888SOL    HW227564   3.537   1.904   2.264
 8889SOL     OW27565   3.821   6.271   4.841
 8889SOL    HW127566   3.797   6.301   4.749
 8889SOL    HW227567   3.769   6.190   4.865
 8890SOL     OW27568   1.338   5.274   4.644
 8890SOL    HW127569   1.346   5.355   4.701
 8890SOL    HW227570   1.295   5.200   4.696
 8891SOL     OW27571   4.478   2.980   6.295
 8891SOL    HW127572   4.478   2.889   6.336
 8891SOL    HW227573   4.547   2.984   6.223
 8892SOL     OW27574   1.966   6.825   2.841
 8892SOL    HW127575   1.972   6.925   2.844
 8892SOL    HW227576   1.943   6.796   2.748
 8893SOL     OW27577   0.564   1.610   1.271
 8893SOL    HW127578   0.581   1.568   1.360
 8893SOL    HW227579   0.520   1.699   1.284
 8894SOL     OW27580   4.209   2.724   6.579
 8894SOL    HW127581   4.200   2.685   6.487
 8894SOL    HW227582   4.224   2.822   6.572
 8895SOL     OW27583   0.769   6.861   2.011
 8895SOL    HW127584   0.800   6.927   2.079
 8895SOL    HW227585   0.833   6.784   2.008
 8896SOL     OW27586   1.845   4.002   4.946
 8896SOL    HW127587   1.838   4.083   5.004
 8896SOL    HW227588   1.928   3.951   4.970
 8897SOL     OW27589   1.276   2.589   1.739
 8897SOL    HW127590   1.279   2.624   1.646
 8897SOL    HW227591   1.314   2.496   1.741
 8898SOL     OW27592   5.428   3.619   4.311
 8898SOL    HW127593   5.469   3.564   4.238
 8898SOL    HW227594   5.351   3.570   4.351
 8899SOL     OW27595   1.567   4.625   0.177
 8899SOL    HW127596   1.595   4.544   0.126
 8899SOL    HW227597   1.642   4.691   0.177
 8900SOL     OW27598   5.491   2.151   3.907
 8900SOL    HW127599   5.562   2.080   3.911
 8900SOL    HW227600   5.531   2.237   3.877
 8901SOL     OW27601   1.876   0.398   2.736
 8901SOL    HW127602   1.967   0.396   2.693
 8901SOL    HW227603   1.807   0.421   2.668
 8902SOL     OW27604   1.426   5.035   6.763
 8902SOL    HW127605   1.365   4.972   6.715
 8902SOL    HW227606   1.377   5.120   6.785
 8903SOL     OW27607   1.998   1.730   3.477
 8903SOL    HW127608   2.090   1.768   3.479
 8903SOL    HW227609   1.977   1.690   3.567
 8904SOL     OW27610   0.987   6.292   3.432
 8904SOL    HW127611   0.974   6.314   3.335
 8904SOL    HW227612   0.899   6.290   3.478
 8905SOL     OW27613   2.598   3.816   5.303
 8905SOL    HW127614   2.527   3.863   5.250
 8905SOL    HW227615   2.555   3.744   5.358
 8906SOL     OW27616   6.386   6.236   5.373
 8906SOL    HW127617   6.326   6.220   5.451
 8906SOL    HW227618   6.343   6.301   5.311
 8907SOL     OW27619   3.199   2.862   5.769
 8907SOL    HW127620   3.296   2.880   5.786
 8907SOL    HW227621   3.162   2.933   5.710
 8908SOL     OW27622   0.837   2.722   1.634
 8908SOL    HW127623   0.923   2.769   1.654
 8908SOL    HW227624   0.763   2.789   1.633
 8909SOL     OW27625   2.195   0.785   6.622
 8909SOL    HW127626   2.236   0.694   6.623
 8909SOL    HW227627   2.096   0.777   6.607
 8910SOL     OW27628   3.146   3.817   6.711
 8910SOL    HW127629   3.057   3.801   6.754
 8910SOL    HW227630   3.159   3.915   6.697
 8911SOL     OW27631   4.128   2.258   4.136
 8911SOL    HW127632   4.193   2.329   4.109
 8911SOL    HW227633   4.042   2.272   4.086
 8912SOL     OW27634   4.499   2.583   5.999
 8912SOL    HW127635   4.442   2.615   5.923
 8912SOL    HW227636   4.526   2.661   6.055
 8913SOL     OW27637   5.316   4.366   1.463
 8913SOL    HW127638   5.284   4.446   1.514
 8913SOL    HW227639   5.239   4.303   1.448
 8914SOL     OW27640   3.373   1.850   4.670
 8914SOL    HW127641   3.465   1.883   4.693
 8914SOL    HW227642   3.368   1.752   4.687
 8915SOL     OW27643   1.619   4.238   2.187
 8915SOL    HW127644   1.605   4.172   2.260
 8915SOL    HW227645   1.648   4.325   2.226
 8916SOL     OW27646   7.019   3.218   2.699
 8916SOL    HW127647   7.008   3.313   2.728
 8916SOL    HW227648   6.929   3.175   2.692
 8917SOL     OW27649   6.055   5.929   6.836
 8917SOL    HW127650   6.114   5.991   6.783
 8917SOL    HW227651   6.082   5.931   6.932
 8918SOL     OW27652   5.639   5.221   6.428
 8918SOL    HW127653   5.622   5.123   6.416
 8918SOL    HW227654   5.604   5.271   6.348
 8919SOL     OW27655   3.143   5.298   1.049
 8919SOL    HW127656   3.167   5.214   1.097
 8919SOL    HW227657   3.165   5.377   1.106
 8920SOL     OW27658   6.112   5.736   5.486
 8920SOL    HW127659   6.129   5.754   5.582
 8920SOL    HW227660   6.196   5.747   5.434
 8921SOL     OW27661   1.836   0.210   3.811
 8921SOL    HW127662   1.897   0.212   3.891
 8921SOL    HW227663   1.746   0.179   3.840
 8922SOL     OW27664   0.342   4.274   0.208
 8922SOL    HW127665   0.402   4.197   0.185
 8922SOL    HW227666   0.390   4.336   0.271
 8923SOL     OW27667   2.034   4.297   6.034
 8923SOL    HW127668   2.083   4.236   5.972
 8923SOL    HW227669   2.003   4.246   6.114
 8924SOL     OW27670   2.535   5.336   5.643
 8924SOL    HW127671   2.460   5.271   5.654
 8924SOL    HW227672   2.610   5.311   5.704
 8925SOL     OW27673   0.217   0.122   2.024
 8925SOL    HW127674   0.313   0.148   2.034
 8925SOL    HW227675   0.159   0.193   2.064
 8926SOL     OW27676   5.380   2.511   0.779
 8926SOL    HW127677   5.342   2.516   0.872
 8926SOL    HW227678   5.445   2.586   0.766
 8927SOL     OW27679   2.311   2.220   4.621
 8927SOL    HW127680   2.367   2.186   4.696
 8927SOL    HW227681   2.215   2.221   4.648
 8928SOL     OW27682   0.746   6.492   5.393
 8928SOL    HW127683   0.816   6.425   5.417
 8928SOL    HW227684   0.786   6.583   5.390
 8929SOL     OW27685   5.776   3.758   3.571
 8929SOL    HW127686   5.780   3.697   3.650
 8929SOL    HW227687   5.682   3.766   3.539
 8930SOL     OW27688   1.205   5.099   4.828
 8930SOL    HW127689   1.271   5.051   4.886
 8930SOL    HW227690   1.152   5.031   4.776
 8931SOL     OW27691   4.397   1.199   0.305
 8931SOL    HW127692   4.322   1.174   0.366
 8931SOL    HW227693   4.445   1.279   0.342
 8932SOL     OW27694   6.938   0.207   6.571
 8932SOL    HW127695   0.000   0.249   6.588
 8932SOL    HW227696   6.881   0.216   6.653
 8933SOL     OW27697   1.580   0.532   4.945
 8933SOL    HW127698   1.634   0.596   5.000
 8933SOL    HW227699   1.514   0.485   5.004
 8934SOL     OW27700   3.053   5.990   2.831
 8934SOL    HW127701   3.120   6.030   2.768
 8934SOL    HW227702   3.100   5.940   2.903
 8935SOL     OW27703   4.966   2.391   3.588
 8935SOL    HW127704   4.903   2.315   3.571
 8935SOL    HW227705   4.949   2.464   3.522
 8936SOL     OW27706   1.143   5.513   2.160
 8936SOL    HW127707   1.229   5.501   2.210
 8936SOL    HW227708   1.066   5.503   2.223
 8937SOL     OW27709   5.279   0.138   4.165
 8937SOL    HW127710   5.332   0.151   4.249
 8937SOL    HW227711   5.228   0.221   4.144
 8938SOL     OW27712   6.152   1.325   1.013
 8938SOL    HW127713   6.228   1.369   0.964
 8938SOL    HW227714   6.184   1.294   1.102
 8939SOL     OW27715   0.200   3.103   3.842
 8939SOL    HW127716   0.187   3.118   3.940
 8939SOL    HW227717   0.250   3.017   3.828
 8940SOL     OW27718   6.673   3.099   1.030
 8940SOL    HW127719   6.692   3.143   1.118
 8940SOL    HW227720   6.663   3.000   1.043
 8941SOL     OW27721   4.425   2.679   1.460
 8941SOL    HW127722   4.371   2.742   1.517
 8941SOL    HW227723   4.515   2.719   1.442
 8942SOL     OW27724   5.795   4.744   4.362
 8942SOL    HW127725   5.757   4.711   4.449
 8942SOL    HW227726   5.818   4.665   4.304
 8943SOL     OW27727   5.006   4.196   0.232
 8943SOL    HW127728   5.025   4.131   0.305
 8943SOL    HW227729   5.036   4.159   0.145
 8944SOL     OW27730   5.549   6.039   4.865
 8944SOL    HW127731   5.520   5.983   4.943
 8944SOL    HW227732   5.649   6.037   4.858
 8945SOL     OW27733   5.862   4.100   5.383
 8945SOL    HW127734   5.774   4.082   5.428
 8945SOL    HW227735   5.913   4.167   5.437
 8946SOL     OW27736   5.617   1.255   4.975
 8946SOL    HW127737   5.641   1.317   4.900
 8946SOL    HW227738   5.657   1.165   4.958
 8947SOL     OW27739   1.764   5.496   6.931
 8947SOL    HW127740   1.787   5.573   6.990
 8947SOL    HW227741   1.686   5.520   6.874
 8948SOL     OW27742   6.706   0.612   2.736
 8948SOL    HW127743   6.643   0.641   2.664
 8948SOL    HW227744   6.676   0.524   2.773
 8949SOL     OW27745   3.554   6.127   0.743
 8949SOL    HW127746   3.525   6.211   0.788
 8949SOL    HW227747   3.623   6.148   0.674
 8950SOL     OW27748   4.725   4.115   0.587
 8950SOL    HW127749   4.679   4.142   0.672
 8950SOL    HW227750   4.784   4.190   0.556
 8951SOL     OW27751   2.191   1.597   4.460
 8951SOL    HW127752   2.188   1.501   4.434
 8951SOL    HW227753   2.281   1.635   4.439
 8952SOL     OW27754   1.931   3.823   3.692
 8952SOL    HW127755   2.014   3.801   3.743
 8952SOL    HW227756   1.956   3.866   3.605
 8953SOL     OW27757   1.310   4.856   2.042
 8953SOL    HW127758   1.310   4.915   1.962
 8953SOL    HW227759   1.291   4.909   2.124
 8954SOL     OW27760   1.778   5.067   5.705
 8954SOL    HW127761   1.788   5.166   5.707
 8954SOL    HW227762   1.791   5.033   5.612
 8955SOL     OW27763   5.640   2.698   4.132
 8955SOL    HW127764   5.602   2.758   4.202
 8955SOL    HW227765   5.658   2.608   4.171
 8956SOL     OW27766   0.717   5.592   6.525
 8956SOL    HW127767   0.661   5.669   6.555
 8956SOL    HW227768   0.683   5.559   6.437
 8957SOL     OW27769   0.765   6.345   3.574
 8957SOL    HW127770   0.756   6.276   3.645
 8957SOL    HW227771   0.689   6.409   3.579
 8958SOL     OW27772   1.677   3.915   5.469
 8958SOL    HW127773   1.715   3.990   5.415
 8958SOL    HW227774   1.710   3.828   5.432
 8959SOL     OW27775   0.153   2.840   2.829
 8959SOL    HW127776   0.225   2.821   2.896
 8959SOL    HW227777   0.144   2.762   2.767
 8960SOL     OW27778   5.033   4.507   3.503
 8960SOL    HW127779   4.983   4.587   3.536
 8960SOL    HW227780   5.065   4.454   3.581
 8961SOL     OW27781   2.359   0.161   5.375
 8961SOL    HW127782   2.399   0.195   5.461
 8961SOL    HW227783   2.332   0.066   5.386
 8962SOL     OW27784   0.487   5.757   2.027
 8962SOL    HW127785   0.431   5.832   2.060
 8962SOL    HW227786   0.516   5.775   1.933
 8963SOL     OW27787   4.686   6.331   4.485
 8963SOL    HW127788   4.779   6.362   4.499
 8963SOL    HW227789   4.676   6.297   4.391
 8964SOL     OW27790   0.649   3.206   4.308
 8964SOL    HW127791   0.677   3.208   4.212
 8964SOL    HW227792   0.571   3.267   4.321
 8965SOL     OW27793   3.865   5.329   0.136
 8965SOL    HW127794   3.965   5.338   0.129
 8965SOL    HW227795   3.825   5.322   0.045
 8966SOL     OW27796   5.178   5.027   5.771
 8966SOL    HW127797   5.095   5.028   5.827
 8966SOL    HW227798   5.230   5.111   5.787
 8967SOL     OW27799   2.657   0.167   3.802
 8967SOL    HW127800   2.674   0.177   3.900
 8967SOL    HW227801   2.603   0.085   3.785
 8968SOL     OW27802   3.978   4.776   2.305
 8968SOL    HW127803   3.889   4.729   2.303
 8968SOL    HW227804   4.018   4.776   2.213
 8969SOL     OW27805   0.404   0.990   2.814
 8969SOL    HW127806   0.428   0.997   2.911
 8969SOL    HW227807   0.429   0.900   2.780
 8970SOL     OW27808   1.747   0.627   4.751
 8970SOL    HW127809   1.696   0.558   4.802
 8970SOL    HW227810   1.703   0.643   4.663
 8971SOL     OW27811   4.139   5.325   0.493
 8971SOL    HW127812   4.149   5.422   0.469
 8971SOL    HW227813   4.194   5.305   0.574
 8972SOL     OW27814   6.229   4.276   0.302
 8972SOL    HW127815   6.321   4.242   0.283
 8972SOL    HW227816   6.181   4.292   0.216
 8973SOL     OW27817   1.195   3.025   3.344
 8973SOL    HW127818   1.248   3.110   3.352
 8973SOL    HW227819   1.211   2.985   3.253
 8974SOL     OW27820   2.303   4.256   4.830
 8974SOL    HW127821   2.330   4.188   4.898
 8974SOL    HW227822   2.233   4.217   4.770
 8975SOL     OW27823   6.984   6.232   5.992
 8975SOL    HW127824   6.919   6.155   5.985
 8975SOL    HW227825   0.050   6.198   5.982
 8976SOL     OW27826   6.885   6.578   1.717
 8976SOL    HW127827   6.803   6.536   1.755
 8976SOL    HW227828   6.963   6.564   1.778
 8977SOL     OW27829   6.777   5.260   5.877
 8977SOL    HW127830   6.727   5.300   5.953
 8977SOL    HW227831   6.839   5.189   5.911
 8978SOL     OW27832   5.605   5.785   6.487
 8978SOL    HW127833   5.538   5.858   6.477
 8978SOL    HW227834   5.636   5.782   6.582
 8979SOL     OW27835   1.043   5.155   5.630
 8979SOL    HW127836   1.076   5.061   5.632
 8979SOL    HW227837   1.077   5.204   5.710
 8980SOL     OW27838   3.585   0.547   5.370
 8980SOL    HW127839   3.570   0.591   5.459
 8980SOL    HW227840   3.624   0.456   5.385
 8981SOL     OW27841   4.106   3.027   0.140
 8981SOL    HW127842   4.087   2.970   0.060
 8981SOL    HW227843   4.188   2.992   0.186
 8982SOL     OW27844   0.648   1.485   1.516
 8982SOL    HW127845   0.574   1.423   1.491
 8982SOL    HW227846   0.736   1.447   1.487
 8983SOL     OW27847   1.019   6.738   2.011
 8983SOL    HW127848   1.038   6.640   2.003
 8983SOL    HW227849   1.054   6.772   2.098
 8984SOL     OW27850   6.271   0.572   3.979
 8984SOL    HW127851   6.348   0.576   4.042
 8984SOL    HW227852   6.236   0.478   3.974
 8985SOL     OW27853   4.630   2.837   0.716
 8985SOL    HW127854   4.600   2.921   0.762
 8985SOL    HW227855   4.645   2.765   0.785
 8986SOL     OW27856   0.328   5.391   0.060
 8986SOL    HW127857   0.232   5.366   0.048
 8986SOL    HW227858   0.336   5.490   0.070
 8987SOL     OW27859   2.174   0.775   1.659
 8987SOL    HW127860   2.184   0.687   1.705
 8987SOL    HW227861   2.077   0.794   1.642
 8988SOL     OW27862   1.452   5.680   1.766
 8988SOL    HW127863   1.549   5.703   1.771
 8988SOL    HW227864   1.437   5.614   1.692
 8989SOL     OW27865   5.147   1.274   2.083
 8989SOL    HW127866   5.137   1.282   1.984
 8989SOL    HW227867   5.187   1.185   2.106
 8990SOL     OW27868   3.677   0.520   1.486
 8990SOL    HW127869   3.605   0.550   1.423
 8990SOL    HW227870   3.686   0.420   1.480
 8991SOL     OW27871   2.259   2.398   0.352
 8991SOL    HW127872   2.259   2.341   0.434
 8991SOL    HW227873   2.166   2.425   0.329
 8992SOL     OW27874   0.316   4.158   0.512
 8992SOL    HW127875   0.260   4.238   0.488
 8992SOL    HW227876   0.282   4.078   0.463
 8993SOL     OW27877   6.227   3.397   4.515
 8993SOL    HW127878   6.233   3.312   4.463
 8993SOL    HW227879   6.161   3.386   4.589
 8994SOL     OW27880   1.077   5.387   3.274
 8994SOL    HW127881   1.079   5.311   3.210
 8994SOL    HW227882   1.164   5.394   3.322
 8995SOL     OW27883   2.107   3.863   4.970
 8995SOL    HW127884   2.179   3.931   4.986
 8995SOL    HW227885   2.147   3.782   4.927
 8996SOL     OW27886   1.208   3.959   2.120
 8996SOL    HW127887   1.248   3.874   2.156
 8996SOL    HW227888   1.275   4.003   2.060
 8997SOL     OW27889   4.711   1.742   5.398
 8997SOL    HW127890   4.696   1.644   5.400
 8997SOL    HW227891   4.740   1.773   5.489
 8998SOL     OW27892   1.458   2.957   6.585
 8998SOL    HW127893   1.411   3.009   6.514
 8998SOL    HW227894   1.533   2.905   6.544
 8999SOL     OW27895   6.530   1.185   3.975
 8999SOL    HW127896   6.479   1.102   3.950
 8999SOL    HW227897   6.563   1.176   4.069
 9000SOL     OW27898   3.295   4.130   0.631
 9000SOL    HW127899   3.244   4.095   0.552
 9000SOL    HW227900   3.240   4.200   0.677
 9001SOL     OW27901   1.739   4.830   3.611
 9001SOL    HW127902   1.809   4.882   3.660
 9001SOL    HW227903   1.701   4.886   3.538
 9002SOL     OW27904   5.228   4.839   5.413
 9002SOL    HW127905   5.256   4.753   5.370
 9002SOL    HW227906   5.270   4.847   5.503
 9003SOL     OW27907   5.876   2.676   6.328
 9003SOL    HW127908   5.790   2.711   6.291
 9003SOL    HW227909   5.952   2.725   6.286
 9004SOL     OW27910   4.453   6.559   1.112
 9004SOL    HW127911   4.526   6.563   1.044
 9004SOL    HW227912   4.426   6.464   1.127
 9005SOL     OW27913   5.054   1.632   2.914
 9005SOL    HW127914   5.143   1.674   2.931
 9005SOL    HW227915   5.067   1.538   2.883
 9006SOL     OW27916   1.117   5.881   1.269
 9006SOL    HW127917   1.117   5.818   1.347
 9006SOL    HW227918   1.048   5.951   1.283
 9007SOL     OW27919   2.368   6.608   4.598
 9007SOL    HW127920   2.328   6.521   4.626
 9007SOL    HW227921   2.465   6.609   4.622
 9008SOL     OW27922   6.347   4.335   2.357
 9008SOL    HW127923   6.416   4.317   2.428
 9008SOL    HW227924   6.328   4.251   2.307
 9009SOL     OW27925   3.457   6.552   0.985
 9009SOL    HW127926   3.515   6.478   0.950
 9009SOL    HW227927   3.515   6.626   1.019
 9010SOL     OW27928   1.165   6.388   4.778
 9010SOL    HW127929   1.129   6.399   4.871
 9010SOL    HW227930   1.108   6.439   4.713
 9011SOL     OW27931   4.643   1.989   1.261
 9011SOL    HW127932   4.564   1.968   1.204
 9011SOL    HW227933   4.621   2.066   1.321
 9012SOL     OW27934   0.029   5.774   1.543
 9012SOL    HW127935   0.025   5.874   1.550
 9012SOL    HW227936   0.081   5.738   1.620
 9013SOL     OW27937   5.873   5.609   3.515
 9013SOL    HW127938   5.870   5.644   3.609
 9013SOL    HW227939   5.788   5.635   3.468
 9014SOL     OW27940   3.144   1.073   1.516
 9014SOL    HW127941   3.133   1.125   1.601
 9014SOL    HW227942   3.233   1.027   1.517
 9015SOL     OW27943   0.264   1.146   5.582
 9015SOL    HW127944   0.290   1.224   5.639
 9015SOL    HW227945   0.282   1.061   5.632
 9016SOL     OW27946   6.433   6.069   6.489
 9016SOL    HW127947   6.479   6.157   6.500
 9016SOL    HW227948   6.492   5.995   6.522
 9017SOL     OW27949   6.936   2.977   3.115
 9017SOL    HW127950   6.969   2.899   3.168
 9017SOL    HW227951   6.921   2.950   3.020
 9018SOL     OW27952   3.624   2.487   5.392
 9018SOL    HW127953   3.628   2.391   5.366
 9018SOL    HW227954   3.531   2.522   5.375
 9019SOL     OW27955   2.137   0.094   1.249
 9019SOL    HW127956   2.124   0.052   1.159
 9019SOL    HW227957   2.192   0.034   1.307
 9020SOL     OW27958   0.600   5.136   3.304
 9020SOL    HW127959   0.669   5.065   3.292
 9020SOL    HW227960   0.645   5.225   3.310
 9021SOL     OW27961   6.641   5.590   5.168
 9021SOL    HW127962   6.651   5.686   5.195
 9021SOL    HW227963   6.716   5.564   5.107
 9022SOL     OW27964   3.296   0.560   0.236
 9022SOL    HW127965   3.269   0.625   0.307
 9022SOL    HW227966   3.277   0.599   0.146
 9023SOL     OW27967   3.370   3.320   3.241
 9023SOL    HW127968   3.362   3.221   3.253
 9023SOL    HW227969   3.329   3.346   3.153
 9024SOL     OW27970   1.835   6.793   0.350
 9024SOL    HW127971   1.845   6.792   0.449
 9024SOL    HW227972   1.817   6.887   0.319
 9025SOL     OW27973   5.976   4.653   0.679
 9025SOL    HW127974   6.013   4.593   0.608
 9025SOL    HW227975   6.049   4.679   0.743
 9026SOL     OW27976   3.194   2.936   4.954
 9026SOL    HW127977   3.127   2.970   5.021
 9026SOL    HW227978   3.173   2.841   4.931
 9027SOL     OW27979   1.912   3.040   3.539
 9027SOL    HW127980   1.861   3.098   3.475
 9027SOL    HW227981   1.987   3.093   3.579
 9028SOL     OW27982   2.718   5.042   4.735
 9028SOL    HW127983   2.626   5.007   4.723
 9028SOL    HW227984   2.778   4.969   4.768
 9029SOL     OW27985   5.242   6.020   2.934
 9029SOL    HW127986   5.335   6.008   2.901
 9029SOL    HW227987   5.180   5.962   2.881
 9030SOL     OW27988   2.626   1.150   1.650
 9030SOL    HW127989   2.704   1.093   1.624
 9030SOL    HW227990   2.625   1.163   1.749
 9031SOL     OW27991   2.696   6.796   6.192
 9031SOL    HW127992   2.759   6.752   6.257
 9031SOL    HW227993   2.604   6.760   6.206
 9032SOL     OW27994   2.002   1.532   1.704
 9032SOL    HW127995   2.043   1.623   1.690
 9032SOL    HW227996   2.041   1.491   1.787
 9033SOL     OW27997   1.515   4.078   2.811
 9033SOL    HW127998   1.485   4.049   2.720
 9033SOL    HW227999   1.563   4.002   2.855
 9034SOL     OW28000   3.148   6.736   6.138
 9034SOL    HW128001   3.049   6.739   6.128
 9034SOL    HW228002   3.171   6.694   6.226
 9035SOL     OW28003   0.002   1.390   4.339
 9035SOL    HW128004   0.013   1.291   4.347
 9035SOL    HW228005   6.940   1.417   4.376
 9036SOL     OW28006   1.504   1.789   5.138
 9036SOL    HW128007   1.548   1.730   5.071
 9036SOL    HW228008   1.437   1.735   5.191
 9037SOL     OW28009   2.045   4.072   6.548
 9037SOL    HW128010   2.067   4.135   6.623
 9037SOL    HW228011   2.023   3.982   6.585
 9038SOL     OW28012   5.014   6.393   5.707
 9038SOL    HW128013   5.090   6.337   5.673
 9038SOL    HW228014   4.994   6.465   5.641
 9039SOL     OW28015   2.155   5.837   5.966
 9039SOL    HW128016   2.229   5.904   5.962
 9039SOL    HW228017   2.140   5.798   5.875
 9040SOL     OW28018   2.016   1.373   2.607
 9040SOL    HW128019   1.949   1.300   2.591
 9040SOL    HW228020   2.108   1.340   2.586
 9041SOL     OW28021   2.044   3.148   0.327
 9041SOL    HW128022   2.068   3.188   0.415
 9041SOL    HW228023   1.991   3.064   0.341
 9042SOL     OW28024   2.871   4.828   3.805
 9042SOL    HW128025   2.885   4.780   3.891
 9042SOL    HW228026   2.930   4.908   3.802
 9043SOL     OW28027   0.190   2.365   5.711
 9043SOL    HW128028   0.220   2.460   5.702
 9043SOL    HW228029   0.235   2.324   5.790
 9044SOL     OW28030   6.193   5.979   0.601
 9044SOL    HW128031   6.183   5.980   0.700
 9044SOL    HW228032   6.170   5.887   0.567
 9045SOL     OW28033   2.845   6.738   4.034
 9045SOL    HW128034   2.912   6.789   4.089
 9045SOL    HW228035   2.778   6.802   3.995
 9046SOL     OW28036   3.456   3.844   4.819
 9046SOL    HW128037   3.372   3.815   4.774
 9046SOL    HW228038   3.434   3.904   4.896
 9047SOL     OW28039   1.134   4.898   4.671
 9047SOL    HW128040   1.123   4.800   4.690
 9047SOL    HW228041   1.216   4.912   4.616
 9048SOL     OW28042   0.563   3.393   4.512
 9048SOL    HW128043   0.548   3.481   4.466
 9048SOL    HW228044   0.637   3.401   4.578
 9049SOL     OW28045   5.330   5.366   6.333
 9049SOL    HW128046   5.342   5.461   6.303
 9049SOL    HW228047   5.234   5.340   6.324
 9050SOL     OW28048   0.241   5.239   6.184
 9050SOL    HW128049   0.224   5.254   6.281
 9050SOL    HW228050   0.332   5.274   6.160
 9051SOL     OW28051   5.185   6.246   6.600
 9051SOL    HW128052   5.281   6.245   6.629
 9051SOL    HW228053   5.137   6.320   6.647
 9052SOL     OW28054   1.758   5.129   4.879
 9052SOL    HW128055   1.682   5.190   4.902
 9052SOL    HW228056   1.821   5.176   4.817
 9053SOL     OW28057   3.048   2.095   3.795
 9053SOL    HW128058   3.038   1.996   3.804
 9053SOL    HW228059   3.092   2.132   3.878
 9054SOL     OW28060   2.951   0.655   1.487
 9054SOL    HW128061   2.888   0.724   1.451
 9054SOL    HW228062   2.977   0.592   1.413
 9055SOL     OW28063   1.004   2.549   3.694
 9055SOL    HW128064   1.100   2.560   3.672
 9055SOL    HW228065   0.948   2.598   3.628
 9056SOL     OW28066   5.174   0.599   3.270
 9056SOL    HW128067   5.094   0.548   3.238
 9056SOL    HW228068   5.171   0.610   3.369
 9057SOL     OW28069   5.370   5.520   5.914
 9057SOL    HW128070   5.464   5.487   5.907
 9057SOL    HW228071   5.315   5.480   5.841
 9058SOL     OW28072   1.520   3.021   4.306
 9058SOL    HW128073   1.502   3.120   4.313
 9058SOL    HW228074   1.460   2.972   4.369
 9059SOL     OW28075   0.544   1.309   2.642
 9059SOL    HW128076   0.635   1.347   2.625
 9059SOL    HW228077   0.502   1.280   2.556
 9060SOL     OW28078   0.571   4.244   1.544
 9060SOL    HW128079   0.626   4.245   1.627
 9060SOL    HW228080   0.576   4.153   1.502
 9061SOL     OW28081   5.672   4.674   1.984
 9061SOL    HW128082   5.692   4.577   1.998
 9061SOL    HW228083   5.724   4.728   2.050
 9062SOL     OW28084   0.245   5.658   3.619
 9062SOL    HW128085   0.247   5.574   3.565
 9062SOL    HW228086   0.174   5.650   3.689
 9063SOL     OW28087   3.956   1.016   1.727
 9063SOL    HW128088   3.969   1.053   1.819
 9063SOL    HW228089   4.025   0.947   1.709
 9064SOL     OW28090   0.543   4.951   3.638
 9064SOL    HW128091   0.544   4.870   3.579
 9064SOL    HW228092   0.458   5.002   3.623
 9065SOL     OW28093   2.393   5.123   5.703
 9065SOL    HW128094   2.340   5.047   5.666
 9065SOL    HW228095   2.337   5.175   5.768
 9066SOL     OW28096   5.045   5.060   5.431
 9066SOL    HW128097   5.076   5.155   5.435
 9066SOL    HW228098   5.123   5.001   5.409
 9067SOL     OW28099   6.827   0.068   4.195
 9067SOL    HW128100   6.845   0.054   4.098
 9067SOL    HW228101   6.731   0.049   4.214
 9068SOL     OW28102   4.839   6.642   4.549
 9068SOL    HW128103   4.875   6.644   4.456
 9068SOL    HW228104   4.914   6.658   4.614
 9069SOL     OW28105   5.093   1.908   1.807
 9069SOL    HW128106   5.129   1.850   1.880
 9069SOL    HW228107   5.029   1.856   1.751
 9070SOL     OW28108   1.582   1.725   5.856
 9070SOL    HW128109   1.621   1.787   5.788
 9070SOL    HW228110   1.603   1.760   5.948
 9071SOL     OW28111   5.084   1.893   5.310
 9071SOL    HW128112   5.025   1.924   5.384
 9071SOL    HW228113   5.127   1.806   5.335
 9072SOL     OW28114   4.924   1.061   2.945
 9072SOL    HW128115   4.966   0.984   2.992
 9072SOL    HW228116   4.973   1.078   2.859
 9073SOL     OW28117   4.348   1.269   6.260
 9073SOL    HW128118   4.381   1.176   6.276
 9073SOL    HW228119   4.421   1.323   6.218
 9074SOL     OW28120   1.997   6.853   1.759
 9074SOL    HW128121   2.072   6.862   1.824
 9074SOL    HW228122   2.004   6.925   1.689
 9075SOL     OW28123   6.606   0.182   1.409
 9075SOL    HW128124   6.647   0.270   1.386
 9075SOL    HW228125   6.622   0.116   1.335
 9076SOL     OW28126   6.760   0.760   1.969
 9076SOL    HW128127   6.691   0.757   2.041
 9076SOL    HW228128   6.802   0.851   1.967
 9077SOL     OW28129   6.576   1.304   6.131
 9077SOL    HW128130   6.535   1.394   6.145
 9077SOL    HW228131   6.504   1.236   6.120
 9078SOL     OW28132   5.566   5.971   0.126
 9078SOL    HW128133   5.658   6.001   0.149
 9078SOL    HW228134   5.504   5.990   0.202
 9079SOL     OW28135   0.875   0.692   6.509
 9079SOL    HW128136   0.918   0.703   6.419
 9079SOL    HW228137   0.923   0.621   6.561
 9080SOL     OW28138   6.110   3.472   1.092
 9080SOL    HW128139   6.165   3.466   1.009
 9080SOL    HW228140   6.017   3.442   1.073
 9081SOL     OW28141   3.720   2.117   0.506
 9081SOL    HW128142   3.818   2.131   0.495
 9081SOL    HW228143   3.703   2.074   0.595
 9082SOL     OW28144   2.966   5.804   5.671
 9082SOL    HW128145   2.958   5.903   5.685
 9082SOL    HW228146   3.018   5.764   5.747
 9083SOL     OW28147   4.342   4.977   0.118
 9083SOL    HW128148   4.351   4.881   0.090
 9083SOL    HW228149   4.262   5.017   0.075
 9084SOL     OW28150   0.777   2.858   5.727
 9084SOL    HW128151   0.761   2.934   5.664
 9084SOL    HW228152   0.706   2.788   5.713
 9085SOL     OW28153   2.490   5.207   6.680
 9085SOL    HW128154   2.502   5.108   6.669
 9085SOL    HW228155   2.402   5.225   6.725
 9086SOL     OW28156   6.919   4.337   0.184
 9086SOL    HW128157   7.015   4.341   0.155
 9086SOL    HW228158   6.869   4.275   0.124
 9087SOL     OW28159   5.923   1.392   1.859
 9087SOL    HW128160   5.982   1.319   1.893
 9087SOL    HW228161   5.875   1.361   1.777
 9088SOL     OW28162   6.627   0.088   0.418
 9088SOL    HW128163   6.555   0.152   0.445
 9088SOL    HW228164   6.588   0.018   0.357
 9089SOL     OW28165   4.640   5.932   4.018
 9089SOL    HW128166   4.593   5.864   3.963
 9089SOL    HW228167   4.695   5.991   3.958
 9090SOL     OW28168   5.765   6.388   4.800
 9090SOL    HW128169   5.794   6.479   4.773
 9090SOL    HW228170   5.727   6.390   4.892
 9091SOL     OW28171   2.315   1.996   1.135
 9091SOL    HW128172   2.370   1.996   1.219
 9091SOL    HW228173   2.322   1.907   1.091
 9092SOL     OW28174   1.176   6.557   5.676
 9092SOL    HW128175   1.078   6.572   5.693
 9092SOL    HW228176   1.202   6.465   5.708
 9093SOL     OW28177   1.500   5.424   0.296
 9093SOL    HW128178   1.409   5.412   0.255
 9093SOL    HW228179   1.553   5.488   0.241
 9094SOL     OW28180   0.349   5.965   2.147
 9094SOL    HW128181   0.382   6.055   2.175
 9094SOL    HW228182   0.293   5.975   2.064
 9095SOL     OW28183   4.207   3.375   6.436
 9095SOL    HW128184   4.176   3.446   6.373
 9095SOL    HW228185   4.136   3.306   6.447
 9096SOL     OW28186   5.898   2.564   2.804
 9096SOL    HW128187   5.934   2.528   2.718
 9096SOL    HW228188   5.910   2.663   2.806
 9097SOL     OW28189   1.446   3.807   6.661
 9097SOL    HW128190   1.411   3.896   6.632
 9097SOL    HW228191   1.441   3.800   6.761
 9098SOL     OW28192   3.883   3.761   1.813
 9098SOL    HW128193   3.864   3.671   1.773
 9098SOL    HW228194   3.902   3.826   1.740
 9099SOL     OW28195   2.351   3.372   1.168
 9099SOL    HW128196   2.304   3.285   1.149
 9099SOL    HW228197   2.441   3.371   1.125
 9100SOL     OW28198   0.885   3.263   1.014
 9100SOL    HW128199   0.867   3.307   0.926
 9100SOL    HW228200   0.946   3.320   1.069
 9101SOL     OW28201   1.568   2.675   2.657
 9101SOL    HW128202   1.485   2.726   2.635
 9101SOL    HW228203   1.643   2.709   2.601
 9102SOL     OW28204   4.190   5.505   2.273
 9102SOL    HW128205   4.099   5.478   2.303
 9102SOL    HW228206   4.259   5.468   2.336
 9103SOL     OW28207   6.876   4.015   0.481
 9103SOL    HW128208   6.833   4.097   0.518
 9103SOL    HW228209   6.924   4.038   0.396
 9104SOL     OW28210   4.898   6.472   1.241
 9104SOL    HW128211   4.843   6.506   1.318
 9104SOL    HW228212   4.892   6.372   1.237
 9105SOL     OW28213   1.602   1.069   6.469
 9105SOL    HW128214   1.683   1.048   6.522
 9105SOL    HW228215   1.612   1.034   6.376
 9106SOL     OW28216   5.738   5.116   0.290
 9106SOL    HW128217   5.653   5.150   0.251
 9106SOL    HW228218   5.774   5.042   0.234
 9107SOL     OW28219   3.514   0.212   0.677
 9107SOL    HW128220   3.546   0.150   0.748
 9107SOL    HW228221   3.417   0.231   0.690
 9108SOL     OW28222   4.924   4.724   5.782
 9108SOL    HW128223   4.901   4.764   5.693
 9108SOL    HW228224   4.938   4.798   5.848
 9109SOL     OW28225   2.773   2.370   3.585
 9109SOL    HW128226   2.751   2.337   3.493
 9109SOL    HW228227   2.865   2.339   3.609
 9110SOL     OW28228   2.023   4.682   3.656
 9110SOL    HW128229   2.028   4.731   3.570
 9110SOL    HW228230   2.071   4.733   3.727
 9111SOL     OW28231   4.037   4.519   1.403
 9111SOL    HW128232   4.018   4.459   1.326
 9111SOL    HW228233   4.044   4.464   1.487
 9112SOL     OW28234   0.991   4.348   2.849
 9112SOL    HW128235   1.067   4.286   2.869
 9112SOL    HW228236   1.011   4.399   2.765
 9113SOL     OW28237   5.154   0.404   0.346
 9113SOL    HW128238   5.190   0.496   0.362
 9113SOL    HW228239   5.059   0.399   0.375
 9114SOL     OW28240   2.264   4.270   2.248
 9114SOL    HW128241   2.221   4.238   2.164
 9114SOL    HW228242   2.319   4.351   2.228
 9115SOL     OW28243   1.809   5.190   4.321
 9115SOL    HW128244   1.710   5.175   4.317
 9115SOL    HW228245   1.834   5.264   4.258
 9116SOL     OW28246   6.537   1.545   6.618
 9116SOL    HW128247   6.559   1.640   6.597
 9116SOL    HW228248   6.444   1.525   6.588
 9117SOL     OW28249   6.174   3.046   6.028
 9117SOL    HW128250   6.142   3.141   6.019
 9117SOL    HW228251   6.192   3.008   5.938
 9118SOL     OW28252   6.243   6.974   1.146
 9118SOL    HW128253   6.305   6.901   1.177
 9118SOL    HW228254   6.296   0.028   1.122
 9119SOL     OW28255   5.882   0.643   1.904
 9119SOL    HW128256   5.886   0.717   1.837
 9119SOL    HW228257   5.943   0.569   1.877
 9120SOL     OW28258   5.704   1.893   5.608
 9120SOL    HW128259   5.673   1.833   5.682
 9120SOL    HW228260   5.693   1.989   5.636
 9121SOL     OW28261   0.632   2.727   5.359
 9121SOL    HW128262   0.633   2.654   5.291
 9121SOL    HW228263   0.720   2.728   5.408
 9122SOL     OW28264   1.481   3.274   2.555
 9122SOL    HW128265   1.560   3.217   2.578
 9122SOL    HW228266   1.478   3.353   2.617
 9123SOL     OW28267   2.753   6.350   5.395
 9123SOL    HW128268   2.764   6.361   5.493
 9123SOL    HW228269   2.660   6.375   5.368
 9124SOL     OW28270   6.435   5.857   5.515
 9124SOL    HW128271   6.534   5.870   5.511
 9124SOL    HW228272   6.403   5.825   5.426
 9125SOL     OW28273   4.654   4.405   3.556
 9125SOL    HW128274   4.610   4.415   3.467
 9125SOL    HW228275   4.721   4.478   3.569
 9126SOL     OW28276   6.140   1.124   1.644
 9126SOL    HW128277   6.075   1.077   1.584
 9126SOL    HW228278   6.214   1.162   1.589
 9127SOL     OW28279   5.697   0.092   6.199
 9127SOL    HW128280   5.691   0.106   6.297
 9127SOL    HW228281   5.790   0.064   6.175
 9128SOL     OW28282   3.725   1.021   5.038
 9128SOL    HW128283   3.777   1.089   5.089
 9128SOL    HW228284   3.729   1.043   4.940
 9129SOL     OW28285   1.763   3.016   6.763
 9129SOL    HW128286   1.774   3.070   6.680
 9129SOL    HW228287   1.818   3.057   6.836
 9130SOL     OW28288   6.896   4.702   0.055
 9130SOL    HW128289   6.826   4.635   0.030
 9130SOL    HW228290   6.884   4.729   0.151
 9131SOL     OW28291   0.429   4.475   4.908
 9131SOL    HW128292   0.440   4.412   4.985
 9131SOL    HW228293   0.348   4.449   4.855
 9132SOL     OW28294   6.670   3.855   3.968
 9132SOL    HW128295   6.595   3.828   3.908
 9132SOL    HW228296   6.697   3.949   3.947
 9133SOL     OW28297   2.335   4.536   0.439
 9133SOL    HW128298   2.294   4.537   0.530
 9133SOL    HW228299   2.426   4.578   0.442
 9134SOL     OW28300   3.511   6.130   0.135
 9134SOL    HW128301   3.611   6.125   0.129
 9134SOL    HW228302   3.482   6.105   0.227
 9135SOL     OW28303   0.190   6.936   2.175
 9135SOL    HW128304   0.286   6.953   2.194
 9135SOL    HW228305   0.152   7.012   2.122
 9136SOL     OW28306   5.161   5.431   5.648
 9136SOL    HW128307   5.137   5.356   5.587
 9136SOL    HW228308   5.082   5.492   5.659
 9137SOL     OW28309   5.294   1.293   1.261
 9137SOL    HW128310   5.272   1.359   1.190
 9137SOL    HW228311   5.209   1.255   1.299
 9138SOL     OW28312   5.887   5.329   6.281
 9138SOL    HW128313   5.830   5.259   6.323
 9138SOL    HW228314   5.970   5.341   6.336
 9139SOL     OW28315   2.996   1.499   6.027
 9139SOL    HW128316   3.095   1.499   6.039
 9139SOL    HW228317   2.973   1.546   5.942
 9140SOL     OW28318   6.644   2.414   2.920
 9140SOL    HW128319   6.598   2.502   2.907
 9140SOL    HW228320   6.616   2.376   3.008
 9141SOL     OW28321   5.354   7.005   6.400
 9141SOL    HW128322   5.355   0.007   6.305
 9141SOL    HW228323   5.406   6.920   6.410
 9142SOL     OW28324   0.328   3.127   5.352
 9142SOL    HW128325   0.270   3.176   5.287
 9142SOL    HW228326   0.417   3.109   5.311
 9143SOL     OW28327   4.297   3.386   0.008
 9143SOL    HW128328   4.342   3.442   0.077
 9143SOL    HW228329   4.217   3.341   0.048
 9144SOL     OW28330   2.122   6.020   6.550
 9144SOL    HW128331   2.064   6.029   6.469
 9144SOL    HW228332   2.099   5.936   6.599
 9145SOL     OW28333   0.263   5.171   0.680
 9145SOL    HW128334   0.260   5.072   0.694
 9145SOL    HW228335   0.172   5.209   0.697
 9146SOL     OW28336   5.067   2.302   1.337
 9146SOL    HW128337   5.017   2.302   1.250
 9146SOL    HW228338   5.034   2.377   1.394
 9147SOL     OW28339   5.202   6.730   4.296
 9147SOL    HW128340   5.260   6.652   4.318
 9147SOL    HW228341   5.213   6.800   4.365
 9148SOL     OW28342   6.260   6.408   2.173
 9148SOL    HW128343   6.183   6.353   2.140
 9148SOL    HW228344   6.308   6.358   2.245
 9149SOL     OW28345   4.735   2.703   3.951
 9149SOL    HW128346   4.673   2.731   3.878
 9149SOL    HW228347   4.733   2.603   3.960
 9150SOL     OW28348   4.469   6.285   3.098
 9150SOL    HW128349   4.556   6.326   3.125
 9150SOL    HW228350   4.405   6.356   3.071
 9151SOL     OW28351   1.379   3.954   2.608
 9151SOL    HW128352   1.395   4.024   2.539
 9151SOL    HW228353   1.280   3.940   2.620
 9152SOL     OW28354   2.759   5.686   4.447
 9152SOL    HW128355   2.668   5.726   4.435
 9152SOL    HW228356   2.820   5.754   4.486
 9153SOL     OW28357   1.728   2.684   0.361
 9153SOL    HW128358   1.744   2.622   0.438
 9153SOL    HW228359   1.743   2.635   0.275
 9154SOL     OW28360   2.774   6.280   6.675
 9154SOL    HW128361   2.739   6.187   6.671
 9154SOL    HW228362   2.747   6.322   6.762
 9155SOL     OW28363   2.362   3.596   0.199
 9155SOL    HW128364   2.385   3.678   0.251
 9155SOL    HW228365   2.417   3.593   0.115
 9156SOL     OW28366   2.972   2.715   1.418
 9156SOL    HW128367   2.906   2.688   1.348
 9156SOL    HW228368   2.964   2.654   1.497
 9157SOL     OW28369   5.948   4.568   5.728
 9157SOL    HW128370   6.021   4.585   5.793
 9157SOL    HW228371   5.971   4.611   5.640
 9158SOL     OW28372   6.669   3.316   4.372
 9158SOL    HW128373   6.697   3.304   4.467
 9158SOL    HW228374   6.749   3.337   4.316
 9159SOL     OW28375   0.039   6.231   3.256
 9159SOL    HW128376   0.048   6.327   3.284
 9159SOL    HW228377   0.125   6.183   3.275
 9160SOL     OW28378   6.856   6.830   4.721
 9160SOL    HW128379   6.815   6.793   4.804
 9160SOL    HW228380   6.954   6.846   4.736
 9161SOL     OW28381   4.811   3.991   4.821
 9161SOL    HW128382   4.713   4.003   4.832
 9161SOL    HW228383   4.859   4.037   4.896
 9162SOL     OW28384   5.153   2.175   3.442
 9162SOL    HW128385   5.177   2.082   3.417
 9162SOL    HW228386   5.074   2.174   3.504
 9163SOL     OW28387   2.114   3.215   3.703
 9163SOL    HW128388   2.137   3.277   3.778
 9163SOL    HW228389   2.191   3.152   3.687
 9164SOL     OW28390   2.665   1.070   6.761
 9164SOL    HW128391   2.577   1.024   6.746
 9164SOL    HW228392   2.723   1.013   6.819
 9165SOL     OW28393   6.242   0.880   6.175
 9165SOL    HW128394   6.340   0.872   6.156
 9165SOL    HW228395   6.193   0.900   6.090
 9166SOL     OW28396   4.701   6.378   1.059
 9166SOL    HW128397   4.765   6.422   1.122
 9166SOL    HW228398   4.699   6.280   1.078
 9167SOL     OW28399   2.001   2.879   5.965
 9167SOL    HW128400   2.061   2.820   5.912
 9167SOL    HW228401   1.936   2.925   5.905
 9168SOL     OW28402   1.943   6.410   5.883
 9168SOL    HW128403   1.850   6.404   5.920
 9168SOL    HW228404   1.939   6.452   5.792
 9169SOL     OW28405   7.017   0.877   4.725
 9169SOL    HW128406   6.990   0.883   4.821
 9169SOL    HW228407   0.071   0.932   4.711
 9170SOL     OW28408   0.230   5.062   6.699
 9170SOL    HW128409   0.214   4.969   6.733
 9170SOL    HW228410   0.326   5.086   6.711
 9171SOL     OW28411   3.071   5.548   0.299
 9171SOL    HW128412   3.067   5.478   0.370
 9171SOL    HW228413   3.157   5.598   0.306
 9172SOL     OW28414   3.580   0.416   4.849
 9172SOL    HW128415   3.521   0.488   4.813
 9172SOL    HW228416   3.590   0.427   4.948
 9173SOL     OW28417   5.599   4.883   4.731
 9173SOL    HW128418   5.641   4.953   4.674
 9173SOL    HW228419   5.656   4.801   4.730
 9174SOL     OW28420   6.111   3.858   0.579
 9174SOL    HW128421   6.210   3.845   0.585
 9174SOL    HW228422   6.090   3.926   0.509
 9175SOL     OW28423   2.153   6.565   4.906
 9175SOL    HW128424   2.071   6.556   4.964
 9175SOL    HW228425   2.168   6.661   4.885
 9176SOL     OW28426   2.383   1.194   5.776
 9176SOL    HW128427   2.392   1.292   5.760
 9176SOL    HW228428   2.421   1.144   5.698
 9177SOL     OW28429   1.547   5.209   4.215
 9177SOL    HW128430   1.509   5.175   4.129
 9177SOL    HW228431   1.479   5.265   4.262
 9178SOL     OW28432   2.106   5.210   0.800
 9178SOL    HW128433   2.126   5.155   0.720
 9178SOL    HW228434   2.153   5.298   0.794
 9179SOL     OW28435   2.648   5.093   4.167
 9179SOL    HW128436   2.661   5.189   4.139
 9179SOL    HW228437   2.671   5.084   4.264
 9180SOL     OW28438   6.372   2.262   3.592
 9180SOL    HW128439   6.443   2.324   3.624
 9180SOL    HW228440   6.370   2.261   3.492
 9181SOL     OW28441   4.533   2.465   2.993
 9181SOL    HW128442   4.478   2.386   2.967
 9181SOL    HW228443   4.559   2.458   3.089
 9182SOL     OW28444   3.142   0.269   2.643
 9182SOL    HW128445   3.065   0.332   2.637
 9182SOL    HW228446   3.129   0.207   2.720
 9183SOL     OW28447   5.362   5.794   0.354
 9183SOL    HW128448   5.442   5.737   0.373
 9183SOL    HW228449   5.333   5.840   0.437
 9184SOL     OW28450   5.316   1.425   0.058
 9184SOL    HW128451   5.252   1.491   0.019
 9184SOL    HW228452   5.287   1.401   0.151
 9185SOL     OW28453   4.404   0.028   4.823
 9185SOL    HW128454   4.425   0.121   4.855
 9185SOL    HW228455   4.483   6.996   4.838
 9186SOL     OW28456   5.956   1.263   3.876
 9186SOL    HW128457   5.924   1.174   3.910
 9186SOL    HW228458   6.050   1.255   3.844
 9187SOL     OW28459   2.757   0.267   1.547
 9187SOL    HW128460   2.726   0.359   1.571
 9187SOL    HW228461   2.792   0.267   1.454
 9188SOL     OW28462   2.133   6.772   2.215
 9188SOL    HW128463   2.038   6.784   2.243
 9188SOL    HW228464   2.179   6.861   2.217
 9189SOL     OW28465   5.576   5.638   2.411
 9189SOL    HW128466   5.513   5.628   2.335
 9189SOL    HW228467   5.583   5.735   2.435
 9190SOL     OW28468   1.364   4.943   0.426
 9190SOL    HW128469   1.352   5.010   0.499
 9190SOL    HW228470   1.308   4.969   0.347
 9191SOL     OW28471   6.222   0.874   5.616
 9191SOL    HW128472   6.142   0.920   5.655
 9191SOL    HW228473   6.305   0.909   5.660
 9192SOL     OW28474   0.694   4.086   5.464
 9192SOL    HW128475   0.736   4.151   5.402
 9192SOL    HW228476   0.662   4.134   5.546
 9193SOL     OW28477   4.600   4.446   0.366
 9193SOL    HW128478   4.600   4.532   0.316
 9193SOL    HW228479   4.624   4.371   0.304
 9194SOL     OW28480   3.094   0.952   3.429
 9194SOL    HW128481   3.052   1.037   3.397
 9194SOL    HW228482   3.175   0.932   3.374
 9195SOL     OW28483   1.846   2.172   4.369
 9195SOL    HW128484   1.896   2.126   4.442
 9195SOL    HW228485   1.846   2.113   4.288
 9196SOL     OW28486   3.918   0.788   4.746
 9196SOL    HW128487   3.944   0.704   4.699
 9196SOL    HW228488   3.908   0.863   4.680
 9197SOL     OW28489   1.406   4.324   1.673
 9197SOL    HW128490   1.390   4.225   1.676
 9197SOL    HW228491   1.319   4.372   1.681
 9198SOL     OW28492   6.182   5.474   5.603
 9198SOL    HW128493   6.113   5.488   5.674
 9198SOL    HW228494   6.155   5.523   5.520
 9199SOL     OW28495   0.983   3.782   6.270
 9199SOL    HW128496   0.986   3.824   6.179
 9199SOL    HW228497   0.889   3.761   6.295
 9200SOL     OW28498   2.341   0.341   1.030
 9200SOL    HW128499   2.312   0.263   0.974
 9200SOL    HW228500   2.440   0.333   1.047
 9201SOL     OW28501   0.734   3.285   0.510
 9201SOL    HW128502   0.654   3.345   0.502
 9201SOL    HW228503   0.783   3.283   0.422
 9202SOL     OW28504   2.425   6.825   3.497
 9202SOL    HW128505   2.340   6.858   3.537
 9202SOL    HW228506   2.415   6.730   3.468
 9203SOL     OW28507   0.185   5.489   6.411
 9203SOL    HW128508   0.182   5.517   6.315
 9203SOL    HW228509   0.223   5.562   6.467
 9204SOL     OW28510   4.712   2.794   6.672
 9204SOL    HW128511   4.760   2.763   6.754
 9204SOL    HW228512   4.762   2.765   6.590
 9205SOL     OW28513   6.029   4.160   2.656
 9205SOL    HW128514   5.947   4.104   2.668
 9205SOL    HW228515   6.088   4.119   2.587
 9206SOL     OW28516   3.772   5.490   1.293
 9206SOL    HW128517   3.691   5.493   1.352
 9206SOL    HW228518   3.799   5.583   1.268
 9207SOL     OW28519   4.180   4.662   0.223
 9207SOL    HW128520   4.204   4.701   0.134
 9207SOL    HW228521   4.184   4.733   0.293
 9208SOL     OW28522   6.081   4.385   4.249
 9208SOL    HW128523   6.147   4.415   4.179
 9208SOL    HW228524   6.125   4.389   4.339
 9209SOL     OW28525   2.884   0.668   0.056
 9209SOL    HW128526   2.980   0.673   0.085
 9209SOL    HW228527   2.825   0.707   0.127
 9210SOL     OW28528   6.824   1.154   2.780
 9210SOL    HW128529   6.729   1.158   2.748
 9210SOL    HW228530   6.883   1.124   2.705
 9211SOL     OW28531   6.862   2.797   4.283
 9211SOL    HW128532   6.825   2.889   4.268
 9211SOL    HW228533   6.927   2.800   4.359
 9212SOL     OW28534   3.952   5.076   4.325
 9212SOL    HW128535   3.950   5.172   4.354
 9212SOL    HW228536   3.958   5.071   4.225
 9213SOL     OW28537   5.844   2.784   5.219
 9213SOL    HW128538   5.926   2.756   5.170
 9213SOL    HW228539   5.860   2.872   5.263
 9214SOL     OW28540   0.125   5.572   5.734
 9214SOL    HW128541   0.067   5.653   5.733
 9214SOL    HW228542   0.128   5.531   5.643
 9215SOL     OW28543   1.258   2.392   0.354
 9215SOL    HW128544   1.269   2.346   0.442
 9215SOL    HW228545   1.249   2.325   0.282
 9216SOL     OW28546   2.762   0.089   3.354
 9216SOL    HW128547   2.688   0.124   3.413
 9216SOL    HW228548   2.844   0.074   3.409
 9217SOL     OW28549   0.129   0.692   5.534
 9217SOL    HW128550   0.103   0.783   5.566
 9217SOL    HW228551   0.164   0.638   5.611
 9218SOL     OW28552   3.761   6.122   0.549
 9218SOL    HW128553   3.728   6.088   0.461
 9218SOL    HW228554   3.852   6.086   0.567
 9219SOL     OW28555   0.504   2.852   0.220
 9219SOL    HW128556   0.414   2.856   0.264
 9219SOL    HW228557   0.503   2.781   0.150
 9220SOL     OW28558   2.705   6.254   1.702
 9220SOL    HW128559   2.614   6.213   1.705
 9220SOL    HW228560   2.708   6.325   1.632
 9221SOL     OW28561   3.367   0.468   4.093
 9221SOL    HW128562   3.291   0.407   4.070
 9221SOL    HW228563   3.379   0.471   4.192
 9222SOL     OW28564   2.675   0.343   6.760
 9222SOL    HW128565   2.664   0.425   6.703
 9222SOL    HW228566   2.742   0.362   6.832
 9223SOL     OW28567   1.628   1.627   4.969
 9223SOL    HW128568   1.681   1.543   4.968
 9223SOL    HW228569   1.669   1.693   4.906
 9224SOL     OW28570   3.097   5.249   4.714
 9224SOL    HW128571   3.142   5.234   4.802
 9224SOL    HW228572   3.158   5.219   4.641
 9225SOL     OW28573   3.536   6.879   6.192
 9225SOL    HW128574   3.511   6.869   6.096
 9225SOL    HW228575   3.499   6.803   6.245
 9226SOL     OW28576   5.502   6.410   1.835
 9226SOL    HW128577   5.577   6.459   1.880
 9226SOL    HW228578   5.472   6.461   1.755
 9227SOL     OW28579   0.719   5.369   2.866
 9227SOL    HW128580   0.705   5.425   2.948
 9227SOL    HW228581   0.794   5.305   2.882
 9228SOL     OW28582   1.137   0.663   5.793
 9228SOL    HW128583   1.127   0.622   5.884
 9228SOL    HW228584   1.179   0.754   5.802
 9229SOL     OW28585   1.524   5.661   4.619
 9229SOL    HW128586   1.576   5.610   4.551
 9229SOL    HW228587   1.573   5.745   4.643
 9230SOL     OW28588   5.818   0.317   2.365
 9230SOL    HW128589   5.918   0.318   2.363
 9230SOL    HW228590   5.783   0.343   2.275
 9231SOL     OW28591   2.123   3.591   4.359
 9231SOL    HW128592   2.187   3.665   4.379
 9231SOL    HW228593   2.040   3.630   4.318
 9232SOL     OW28594   3.448   5.274   1.246
 9232SOL    HW128595   3.462   5.175   1.239
 9232SOL    HW228596   3.350   5.295   1.245
 9233SOL     OW28597   5.689   5.087   1.525
 9233SOL    HW128598   5.741   5.110   1.443
 9233SOL    HW228599   5.729   5.006   1.569
 9234SOL     OW28600   3.483   5.475   4.076
 9234SOL    HW128601   3.406   5.538   4.064
 9234SOL    HW228602   3.448   5.385   4.101
 9235SOL     OW28603   1.587   2.096   3.302
 9235SOL    HW128604   1.672   2.095   3.355
 9235SOL    HW228605   1.531   2.017   3.327
 9236SOL     OW28606   3.564   4.154   5.364
 9236SOL    HW128607   3.644   4.147   5.423
 9236SOL    HW228608   3.591   4.135   5.269
 9237SOL     OW28609   2.003   4.584   4.642
 9237SOL    HW128610   1.982   4.600   4.738
 9237SOL    HW228611   2.101   4.572   4.630
 9238SOL     OW28612   4.077   2.144   6.290
 9238SOL    HW128613   4.167   2.149   6.331
 9238SOL    HW228614   4.082   2.093   6.204
 9239SOL     OW28615   0.490   3.840   1.327
 9239SOL    HW128616   0.401   3.868   1.292
 9239SOL    HW228617   0.480   3.753   1.375
 9240SOL     OW28618   5.718   1.284   0.585
 9240SOL    HW128619   5.711   1.383   0.592
 9240SOL    HW228620   5.783   1.260   0.513
 9241SOL     OW28621   6.646   5.667   6.121
 9241SOL    HW128622   6.683   5.619   6.201
 9241SOL    HW228623   6.603   5.752   6.150
 9242SOL     OW28624   6.592   5.375   0.416
 9242SOL    HW128625   6.648   5.454   0.390
 9242SOL    HW228626   6.554   5.333   0.334
 9243SOL     OW28627   6.092   5.783   3.113
 9243SOL    HW128628   6.063   5.851   3.180
 9243SOL    HW228629   6.145   5.712   3.158
 9244SOL     OW28630   4.390   5.442   6.177
 9244SOL    HW128631   4.468   5.501   6.157
 9244SOL    HW228632   4.335   5.482   6.250
 9245SOL     OW28633   1.244   5.427   2.444
 9245SOL    HW128634   1.246   5.381   2.533
 9245SOL    HW228635   1.336   5.433   2.407
 9246SOL     OW28636   5.785   4.628   3.578
 9246SOL    HW128637   5.721   4.622   3.654
 9246SOL    HW228638   5.778   4.718   3.536
 9247SOL     OW28639   0.335   6.674   3.333
 9247SOL    HW128640   0.326   6.741   3.260
 9247SOL    HW228641   0.363   6.586   3.295
 9248SOL     OW28642   2.223   2.577   5.938
 9248SOL    HW128643   2.299   2.553   5.877
 9248SOL    HW228644   2.188   2.495   5.982
 9249SOL     OW28645   5.568   2.373   5.591
 9249SOL    HW128646   5.662   2.401   5.573
 9249SOL    HW228647   5.516   2.369   5.506
 9250SOL     OW28648   5.146   4.320   4.814
 9250SOL    HW128649   5.237   4.327   4.855
 9250SOL    HW228650   5.126   4.224   4.794
 9251SOL     OW28651   3.768   2.125   3.486
 9251SOL    HW128652   3.721   2.037   3.496
 9251SOL    HW228653   3.793   2.138   3.390
 9252SOL     OW28654   6.776   0.546   4.156
 9252SOL    HW128655   6.823   0.623   4.198
 9252SOL    HW228656   6.833   0.506   4.085
 9253SOL     OW28657   4.188   6.176   6.019
 9253SOL    HW128658   4.120   6.117   5.976
 9253SOL    HW228659   4.209   6.252   5.958
 9254SOL     OW28660   5.901   3.791   1.467
 9254SOL    HW128661   5.834   3.848   1.515
 9254SOL    HW228662   5.855   3.713   1.426
 9255SOL     OW28663   5.211   2.949   0.181
 9255SOL    HW128664   5.130   2.910   0.226
 9255SOL    HW228665   5.203   2.937   0.082
 9256SOL     OW28666   3.879   4.931   3.279
 9256SOL    HW128667   3.823   4.956   3.200
 9256SOL    HW228668   3.944   4.859   3.252
 9257SOL     OW28669   0.836   4.118   2.630
 9257SOL    HW128670   0.871   4.032   2.668
 9257SOL    HW228671   0.911   4.168   2.587
 9258SOL     OW28672   3.781   2.970   3.885
 9258SOL    HW128673   3.691   2.989   3.844
 9258SOL    HW228674   3.848   2.957   3.813
 9259SOL     OW28675   1.302   2.341   1.123
 9259SOL    HW128676   1.311   2.300   1.214
 9259SOL    HW228677   1.232   2.412   1.125
 9260SOL     OW28678   5.062   2.441   5.646
 9260SOL    HW128679   5.104   2.366   5.697
 9260SOL    HW228680   5.122   2.468   5.571
 9261SOL     OW28681   4.569   0.417   6.413
 9261SOL    HW128682   4.491   0.420   6.351
 9261SOL    HW228683   4.625   0.336   6.393
 9262SOL     OW28684   6.061   2.129   5.709
 9262SOL    HW128685   6.005   2.087   5.780
 9262SOL    HW228686   6.017   2.119   5.620
 9263SOL     OW28687   6.132   3.694   1.329
 9263SOL    HW128688   6.096   3.628   1.263
 9263SOL    HW228689   6.056   3.733   1.381
 9264SOL     OW28690   6.132   3.588   0.052
 9264SOL    HW128691   6.100   3.682   0.047
 9264SOL    HW228692   6.232   3.587   0.051
 9265SOL     OW28693   3.388   1.318   0.309
 9265SOL    HW128694   3.440   1.341   0.227
 9265SOL    HW228695   3.336   1.397   0.340
 9266SOL     OW28696   2.761   6.308   3.300
 9266SOL    HW128697   2.834   6.324   3.366
 9266SOL    HW228698   2.792   6.335   3.209
 9267SOL     OW28699   0.134   4.065   5.433
 9267SOL    HW128700   0.103   4.115   5.352
 9267SOL    HW228701   0.075   4.086   5.510
 9268SOL     OW28702   0.809   6.536   2.536
 9268SOL    HW128703   0.783   6.469   2.606
 9268SOL    HW228704   0.885   6.591   2.569
 9269SOL     OW28705   2.818   2.063   0.134
 9269SOL    HW128706   2.737   2.121   0.137
 9269SOL    HW228707   2.885   2.104   0.071
 9270SOL     OW28708   5.520   6.627   5.471
 9270SOL    HW128709   5.593   6.605   5.535
 9270SOL    HW228710   5.494   6.723   5.482
 9271SOL     OW28711   1.850   6.226   1.019
 9271SOL    HW128712   1.949   6.222   1.028
 9271SOL    HW228713   1.818   6.144   0.970
 9272SOL     OW28714   3.107   4.291   6.270
 9272SOL    HW128715   3.156   4.348   6.337
 9272SOL    HW228716   3.076   4.207   6.314
 9273SOL     OW28717   5.222   5.963   3.646
 9273SOL    HW128718   5.182   5.881   3.605
 9273SOL    HW228719   5.271   5.937   3.730
 9274SOL     OW28720   5.719   1.862   6.287
 9274SOL    HW128721   5.811   1.823   6.290
 9274SOL    HW228722   5.652   1.791   6.311
 9275SOL     OW28723   0.398   0.874   0.094
 9275SOL    HW128724   0.327   0.817   0.053
 9275SOL    HW228725   0.430   0.941   0.026
 9276SOL     OW28726   2.300   4.854   4.387
 9276SOL    HW128727   2.298   4.789   4.463
 9276SOL    HW228728   2.279   4.946   4.422
 9277SOL     OW28729   3.895   3.586   0.391
 9277SOL    HW128730   3.826   3.636   0.444
 9277SOL    HW228731   3.984   3.598   0.434
 9278SOL     OW28732   1.684   1.189   3.942
 9278SOL    HW128733   1.773   1.145   3.927
 9278SOL    HW228734   1.688   1.283   3.910
 9279SOL     OW28735   4.566   0.609   1.815
 9279SOL    HW128736   4.597   0.658   1.896
 9279SOL    HW228737   4.478   0.564   1.834
 9280SOL     OW28738   1.529   0.359   4.104
 9280SOL    HW128739   1.566   0.302   4.030
 9280SOL    HW228740   1.442   0.322   4.135
 9281SOL     OW28741   3.406   3.433   0.705
 9281SOL    HW128742   3.342   3.462   0.634
 9281SOL    HW228743   3.370   3.457   0.795
 9282SOL     OW28744   5.161   2.563   4.201
 9282SOL    HW128745   5.194   2.556   4.295
 9282SOL    HW228746   5.161   2.473   4.158
 9283SOL     OW28747   6.467   1.371   2.461
 9283SOL    HW128748   6.381   1.384   2.411
 9283SOL    HW228749   6.452   1.389   2.558
 9284SOL     OW28750   3.912   4.621   6.893
 9284SOL    HW128751   3.898   4.604   6.990
 9284SOL    HW228752   3.951   4.540   6.850
 9285SOL     OW28753   5.301   2.817   0.508
 9285SOL    HW128754   5.273   2.733   0.463
 9285SOL    HW228755   5.268   2.817   0.603
 9286SOL     OW28756   6.301   0.169   5.479
 9286SOL    HW128757   6.225   0.139   5.537
 9286SOL    HW228758   6.266   0.188   5.387
 9287SOL     OW28759   3.519   5.805   1.191
 9287SOL    HW128760   3.568   5.881   1.148
 9287SOL    HW228761   3.580   5.726   1.197
 9288SOL     OW28762   3.794   1.060   5.660
 9288SOL    HW128763   3.861   1.070   5.587
 9288SOL    HW228764   3.715   1.118   5.642
 9289SOL     OW28765   4.012   1.917   2.324
 9289SOL    HW128766   3.926   1.915   2.375
 9289SOL    HW228767   4.046   2.011   2.321
 9290SOL     OW28768   4.343   1.355   4.779
 9290SOL    HW128769   4.369   1.348   4.683
 9290SOL    HW228770   4.243   1.350   4.787
 9291SOL     OW28771   2.078   0.667   5.652
 9291SOL    HW128772   2.170   0.650   5.618
 9291SOL    HW228773   2.058   0.765   5.648
 9292SOL     OW28774   6.452   3.121   5.877
 9292SOL    HW128775   6.375   3.133   5.814
 9292SOL    HW228776   6.454   3.198   5.941
 9293SOL     OW28777   6.301   4.151   0.625
 9293SOL    HW128778   6.294   4.171   0.723
 9293SOL    HW228779   6.210   4.154   0.583
 9294SOL     OW28780   3.812   6.362   6.144
 9294SOL    HW128781   3.749   6.302   6.194
 9294SOL    HW228782   3.885   6.392   6.205
 9295SOL     OW28783   5.113   1.676   3.380
 9295SOL    HW128784   5.078   1.588   3.349
 9295SOL    HW228785   5.168   1.717   3.307
 9296SOL     OW28786   6.924   6.628   6.278
 9296SOL    HW128787   6.938   6.564   6.202
 9296SOL    HW228788   6.958   6.587   6.362
 9297SOL     OW28789   0.086   0.648   1.530
 9297SOL    HW128790   0.118   0.586   1.602
 9297SOL    HW228791   0.078   0.599   1.444
 9298SOL     OW28792   1.931   6.147   5.946
 9298SOL    HW128793   1.957   6.108   5.858
 9298SOL    HW228794   1.947   6.246   5.945
 9299SOL     OW28795   1.198   3.256   4.293
 9299SOL    HW128796   1.218   3.233   4.197
 9299SOL    HW228797   1.134   3.333   4.295
 9300SOL     OW28798   6.486   4.918   4.521
 9300SOL    HW128799   6.544   4.990   4.486
 9300SOL    HW228800   6.397   4.921   4.475
 9301SOL     OW28801   4.879   4.424   3.206
 9301SOL    HW128802   4.951   4.490   3.186
 9301SOL    HW228803   4.888   4.392   3.301
 9302SOL     OW28804   2.310   2.797   3.862
 9302SOL    HW128805   2.229   2.745   3.836
 9302SOL    HW228806   2.351   2.758   3.944
 9303SOL     OW28807   3.481   5.883   0.631
 9303SOL    HW128808   3.475   5.970   0.680
 9303SOL    HW228809   3.389   5.843   0.622
 9304SOL     OW28810   4.444   4.039   0.528
 9304SOL    HW128811   4.535   4.076   0.510
 9304SOL    HW228812   4.417   4.060   0.622
 9305SOL     OW28813   5.033   1.444   1.384
 9305SOL    HW128814   5.003   1.496   1.304
 9305SOL    HW228815   5.119   1.481   1.418
 9306SOL     OW28816   0.290   5.112   4.998
 9306SOL    HW128817   0.275   5.046   4.924
 9306SOL    HW228818   0.388   5.120   5.017
 9307SOL     OW28819   1.160   2.799   0.865
 9307SOL    HW128820   1.090   2.866   0.889
 9307SOL    HW228821   1.119   2.725   0.812
 9308SOL     OW28822   0.688   4.418   1.376
 9308SOL    HW128823   0.662   4.340   1.433
 9308SOL    HW228824   0.773   4.458   1.412
 9309SOL     OW28825   3.720   5.431   5.241
 9309SOL    HW128826   3.745   5.523   5.211
 9309SOL    HW228827   3.621   5.422   5.240
 9310SOL     OW28828   4.222   5.878   6.107
 9310SOL    HW128829   4.142   5.823   6.130
 9310SOL    HW228830   4.198   5.943   6.035
 9311SOL     OW28831   6.208   4.567   0.904
 9311SOL    HW128832   6.153   4.616   0.971
 9311SOL    HW228833   6.207   4.469   0.924
 9312SOL     OW28834   2.256   4.559   0.722
 9312SOL    HW128835   2.260   4.592   0.817
 9312SOL    HW228836   2.162   4.565   0.690
 9313SOL     OW28837   6.996   1.045   1.423
 9313SOL    HW128838   6.932   0.968   1.431
 9313SOL    HW228839   6.968   1.103   1.346
 9314SOL     OW28840   4.462   4.992   6.756
 9314SOL    HW128841   4.496   4.957   6.668
 9314SOL    HW228842   4.366   4.967   6.765
 9315SOL     OW28843   6.444   0.301   4.908
 9315SOL    HW128844   6.517   0.276   4.972
 9315SOL    HW228845   6.481   0.306   4.816
 9316SOL     OW28846   4.591   5.784   4.793
 9316SOL    HW128847   4.547   5.858   4.743
 9316SOL    HW228848   4.675   5.817   4.836
 9317SOL     OW28849   6.078   6.232   2.574
 9317SOL    HW128850   6.137   6.185   2.508
 9317SOL    HW228851   6.119   6.227   2.665
 9318SOL     OW28852   6.863   1.210   4.694
 9318SOL    HW128853   6.916   1.294   4.698
 9318SOL    HW228854   6.923   1.134   4.668
 9319SOL     OW28855   0.598   2.905   6.163
 9319SOL    HW128856   0.687   2.939   6.132
 9319SOL    HW228857   0.590   2.808   6.141
 9320SOL     OW28858   3.920   2.047   5.880
 9320SOL    HW128859   3.904   1.949   5.893
 9320SOL    HW228860   3.993   2.060   5.814
 9321SOL     OW28861   6.254   0.159   2.274
 9321SOL    HW128862   6.238   0.140   2.371
 9321SOL    HW228863   6.293   0.079   2.230
 9322SOL     OW28864   6.832   6.023   5.895
 9322SOL    HW128865   6.889   5.948   5.863
 9322SOL    HW228866   6.786   6.066   5.817
 9323SOL     OW28867   1.589   0.255   5.392
 9323SOL    HW128868   1.650   0.328   5.361
 9323SOL    HW228869   1.596   0.245   5.491
 9324SOL     OW28870   1.630   5.114   0.099
 9324SOL    HW128871   1.667   5.095   0.190
 9324SOL    HW228872   1.569   5.039   0.072
 9325SOL     OW28873   5.048   2.001   1.050
 9325SOL    HW128874   4.966   2.034   1.097
 9325SOL    HW228875   5.116   2.075   1.046
 9326SOL     OW28876   2.700   6.798   1.013
 9326SOL    HW128877   2.704   6.855   1.095
 9326SOL    HW228878   2.714   6.702   1.038
 9327SOL     OW28879   5.063   6.979   2.833
 9327SOL    HW128880   5.056   6.972   2.932
 9327SOL    HW228881   5.146   0.002   2.808
 9328SOL     OW28882   3.873   1.351   6.317
 9328SOL    HW128883   3.783   1.384   6.290
 9328SOL    HW228884   3.897   1.388   6.406
 9329SOL     OW28885   0.332   3.186   2.955
 9329SOL    HW128886   0.246   3.159   2.998
 9329SOL    HW228887   0.323   3.179   2.856
 9330SOL     OW28888   0.265   5.756   0.338
 9330SOL    HW128889   0.267   5.665   0.380
 9330SOL    HW228890   0.175   5.770   0.295
 9331SOL     OW28891   0.433   1.062   6.226
 9331SOL    HW128892   0.504   1.130   6.210
 9331SOL    HW228893   0.433   1.037   6.323
 9332SOL     OW28894   3.318   4.116   2.928
 9332SOL    HW128895   3.355   4.119   2.835
 9332SOL    HW228896   3.330   4.206   2.972
 9333SOL     OW28897   5.292   3.868   0.854
 9333SOL    HW128898   5.301   3.966   0.871
 9333SOL    HW228899   5.339   3.817   0.925
 9334SOL     OW28900   3.835   6.968   3.296
 9334SOL    HW128901   3.744   6.929   3.286
 9334SOL    HW228902   3.902   6.906   3.254
 9335SOL     OW28903   1.397   1.273   6.404
 9335SOL    HW128904   1.333   1.234   6.338
 9335SOL    HW228905   1.483   1.222   6.402
 9336SOL     OW28906   3.258   6.397   6.337
 9336SOL    HW128907   3.358   6.407   6.336
 9336SOL    HW228908   3.234   6.311   6.383
 9337SOL     OW28909   5.100   0.325   2.633
 9337SOL    HW128910   5.103   0.270   2.550
 9337SOL    HW228911   5.007   0.325   2.669
 9338SOL     OW28912   4.457   0.421   2.183
 9338SOL    HW128913   4.483   0.376   2.097
 9338SOL    HW228914   4.363   0.454   2.177
 9339SOL     OW28915   6.000   0.047   0.250
 9339SOL    HW128916   5.951   7.002   0.299
 9339SOL    HW228917   6.003   0.025   0.152
 9340SOL     OW28918   5.539   3.737   5.542
 9340SOL    HW128919   5.576   3.645   5.525
 9340SOL    HW228920   5.528   3.751   5.640
 9341SOL     OW28921   1.314   5.967   6.815
 9341SOL    HW128922   1.225   5.979   6.771
 9341SOL    HW228923   1.302   5.963   6.914
 9342SOL     OW28924   2.679   0.283   4.468
 9342SOL    HW128925   2.698   0.374   4.504
 9342SOL    HW228926   2.620   0.234   4.532
 9343SOL     OW28927   6.267   4.473   4.061
 9343SOL    HW128928   6.311   4.536   4.125
 9343SOL    HW228929   6.307   4.485   3.970
 9344SOL     OW28930   4.766   5.770   1.175
 9344SOL    HW128931   4.828   5.716   1.231
 9344SOL    HW228932   4.812   5.797   1.090
 9345SOL     OW28933   6.423   2.975   2.184
 9345SOL    HW128934   6.409   2.965   2.085
 9345SOL    HW228935   6.470   2.894   2.219
 9346SOL     OW28936   5.904   0.943   1.219
 9346SOL    HW128937   5.821   0.979   1.262
 9346SOL    HW228938   5.963   0.904   1.289
 9347SOL     OW28939   1.697   5.307   1.372
 9347SOL    HW128940   1.788   5.265   1.376
 9347SOL    HW228941   1.633   5.242   1.329
 9348SOL     OW28942   4.241   5.653   1.003
 9348SOL    HW128943   4.282   5.642   1.094
 9348SOL    HW228944   4.192   5.740   0.999
 9349SOL     OW28945   0.466   7.024   2.260
 9349SOL    HW128946   0.549   0.043   2.232
 9349SOL    HW228947   0.403   0.062   2.302
 9350SOL     OW28948   0.523   2.472   5.768
 9350SOL    HW128949   0.516   2.561   5.724
 9350SOL    HW228950   0.606   2.425   5.735
 9351SOL     OW28951   3.501   1.648   6.950
 9351SOL    HW128952   3.491   1.597   0.008
 9351SOL    HW228953   3.413   1.690   6.927
 9352SOL     OW28954   2.662   3.684   0.181
 9352SOL    HW128955   2.585   3.718   0.128
 9352SOL    HW228956   2.642   3.593   0.216
 9353SOL     OW28957   0.706   5.114   1.817
 9353SOL    HW128958   0.695   5.050   1.893
 9353SOL    HW228959   0.624   5.170   1.808
 9354SOL     OW28960   6.557   2.783   6.573
 9354SOL    HW128961   6.558   2.684   6.560
 9354SOL    HW228962   6.521   2.827   6.491
 9355SOL     OW28963   1.190   1.927   4.486
 9355SOL    HW128964   1.254   2.002   4.469
 9355SOL    HW228965   1.207   1.853   4.421
 9356SOL     OW28966   4.138   6.729   1.110
 9356SOL    HW128967   4.232   6.699   1.104
 9356SOL    HW228968   4.109   6.768   1.022
 9357SOL     OW28969   1.329   2.278   6.663
 9357SOL    HW128970   1.270   2.269   6.583
 9357SOL    HW228971   1.424   2.290   6.635
 9358SOL     OW28972   6.977   4.101   2.316
 9358SOL    HW128973   6.908   4.059   2.375
 9358SOL    HW228974   6.948   4.193   2.291
 9359SOL     OW28975   1.721   6.166   6.132
 9359SOL    HW128976   1.769   6.081   6.107
 9359SOL    HW228977   1.722   6.228   6.054
 9360SOL     OW28978   1.623   6.926   6.578
 9360SOL    HW128979   1.677   6.946   6.660
 9360SOL    HW228980   1.595   6.830   6.579
 9361SOL     OW28981   1.775   6.437   3.546
 9361SOL    HW128982   1.786   6.536   3.547
 9361SOL    HW228983   1.701   6.410   3.607
 9362SOL     OW28984   2.068   1.147   1.954
 9362SOL    HW128985   2.128   1.068   1.966
 9362SOL    HW228986   2.000   1.127   1.883
 9363SOL     OW28987   3.055   5.371   2.633
 9363SOL    HW128988   3.106   5.294   2.671
 9363SOL    HW228989   3.020   5.348   2.543
 9364SOL     OW28990   2.410   2.456   1.940
 9364SOL    HW128991   2.479   2.463   2.012
 9364SOL    HW228992   2.390   2.547   1.904
 9365SOL     OW28993   3.370   2.146   4.320
 9365SOL    HW128994   3.303   2.073   4.335
 9365SOL    HW228995   3.435   2.116   4.250
 9366SOL     OW28996   3.480   5.635   0.765
 9366SOL    HW128997   3.472   5.692   0.684
 9366SOL    HW228998   3.397   5.581   0.777
 9367SOL     OW28999   5.037   6.843   1.349
 9367SOL    HW129000   5.016   6.940   1.350
 9367SOL    HW229001   4.993   6.800   1.270
 9368SOL     OW29002   3.775   0.757   2.622
 9368SOL    HW129003   3.821   0.845   2.612
 9368SOL    HW229004   3.837   0.684   2.591
 9369SOL     OW29005   0.971   5.473   6.546
 9369SOL    HW129006   0.887   5.506   6.502
 9369SOL    HW229007   0.947   5.415   6.624
 9370SOL     OW29008   4.204   1.400   4.394
 9370SOL    HW129009   4.280   1.371   4.453
 9370SOL    HW229010   4.197   1.500   4.396
 9371SOL     OW29011   3.553   5.704   1.663
 9371SOL    HW129012   3.572   5.767   1.738
 9371SOL    HW229013   3.577   5.611   1.692
 9372SOL     OW29014   4.542   7.011   1.474
 9372SOL    HW129015   4.543   6.926   1.528
 9372SOL    HW229016   4.519   6.990   1.379
 9373SOL     OW29017   6.053   1.990   6.627
 9373SOL    HW129018   5.988   1.930   6.674
 9373SOL    HW229019   6.039   2.085   6.657
 9374SOL     OW29020   0.648   4.673   6.139
 9374SOL    HW129021   0.677   4.679   6.235
 9374SOL    HW229022   0.724   4.640   6.083
 9375SOL     OW29023   6.845   1.857   6.687
 9375SOL    HW129024   6.888   1.767   6.689
 9375SOL    HW229025   6.895   1.916   6.624
 9376SOL     OW29026   2.060   3.637   2.528
 9376SOL    HW129027   2.029   3.732   2.534
 9376SOL    HW229028   2.030   3.598   2.441
 9377SOL     OW29029   2.017   5.613   2.379
 9377SOL    HW129030   2.074   5.607   2.297
 9377SOL    HW229031   2.011   5.522   2.421
 9378SOL     OW29032   3.543   0.697   3.734
 9378SOL    HW129033   3.448   0.708   3.703
 9378SOL    HW229034   3.543   0.672   3.831
 9379SOL     OW29035   3.644   6.057   4.836
 9379SOL    HW129036   3.687   6.019   4.754
 9379SOL    HW229037   3.545   6.056   4.825
 9380SOL     OW29038   4.264   5.566   6.387
 9380SOL    HW129039   4.276   5.515   6.472
 9380SOL    HW229040   4.309   5.655   6.395
 9381SOL     OW29041   5.450   1.416   4.636
 9381SOL    HW129042   5.472   1.485   4.706
 9381SOL    HW229043   5.397   1.343   4.678
 9382SOL     OW29044   3.608   0.448   3.975
 9382SOL    HW129045   3.647   0.536   4.001
 9382SOL    HW229046   3.516   0.440   4.015
 9383SOL     OW29047   4.852   3.971   3.658
 9383SOL    HW129048   4.875   3.980   3.561
 9383SOL    HW229049   4.823   4.060   3.694
 9384SOL     OW29050   1.689   6.966   2.155
 9384SOL    HW129051   1.747   7.008   2.086
 9384SOL    HW229052   1.602   6.938   2.112
 9385SOL     OW29053   3.983   1.361   3.568
 9385SOL    HW129054   3.989   1.262   3.566
 9385SOL    HW229055   4.073   1.400   3.589
 9386SOL     OW29056   4.206   5.786   5.102
 9386SOL    HW129057   4.274   5.729   5.057
 9386SOL    HW229058   4.134   5.810   5.037
 9387SOL     OW29059   3.329   2.305   0.073
 9387SOL    HW129060   3.310   2.403   0.080
 9387SOL    HW229061   3.293   2.258   0.154
 9388SOL     OW29062   2.046   6.887   4.237
 9388SOL    HW129063   1.952   6.921   4.240
 9388SOL    HW229064   2.055   6.821   4.163
 9389SOL     OW29065   3.869   5.088   2.216
 9389SOL    HW129066   3.783   5.036   2.214
 9389SOL    HW229067   3.942   5.030   2.252
 9390SOL     OW29068   5.148   4.573   5.665
 9390SOL    HW129069   5.116   4.483   5.636
 9390SOL    HW229070   5.077   4.641   5.647
 9391SOL     OW29071   0.902   6.325   4.356
 9391SOL    HW129072   0.972   6.323   4.284
 9391SOL    HW229073   0.898   6.236   4.402
 9392SOL     OW29074   5.291   4.023   3.002
 9392SOL    HW129075   5.316   3.999   2.908
 9392SOL    HW229076   5.368   4.071   3.045
 9393SOL     OW29077   3.063   6.440   5.892
 9393SOL    HW129078   3.014   6.501   5.954
 9393SOL    HW229079   3.037   6.345   5.911
 9394SOL     OW29080   5.051   0.173   1.125
 9394SOL    HW129081   5.006   0.091   1.091
 9394SOL    HW229082   4.995   0.215   1.196
 9395SOL     OW29083   2.818   1.942   0.776
 9395SOL    HW129084   2.810   1.859   0.721
 9395SOL    HW229085   2.887   1.929   0.848
 9396SOL     OW29086   1.248   6.273   6.674
 9396SOL    HW129087   1.179   6.232   6.615
 9396SOL    HW229088   1.338   6.236   6.651
 9397SOL     OW29089   4.170   0.231   6.474
 9397SOL    HW129090   4.090   0.171   6.482
 9397SOL    HW229091   4.166   0.279   6.386
 9398SOL     OW29092   6.577   1.818   6.569
 9398SOL    HW129093   6.650   1.875   6.606
 9398SOL    HW229094   6.528   1.869   6.498
 9399SOL     OW29095   2.104   2.637   3.826
 9399SOL    HW129096   2.075   2.659   3.920
 9399SOL    HW229097   2.139   2.543   3.823
 9400SOL     OW29098   5.303   1.103   0.396
 9400SOL    HW129099   5.275   1.068   0.307
 9400SOL    HW229100   5.403   1.102   0.403
 9401SOL     OW29101   0.820   1.751   2.592
 9401SOL    HW129102   0.845   1.848   2.597
 9401SOL    HW229103   0.851   1.713   2.505
 9402SOL     OW29104   1.265   5.685   3.532
 9402SOL    HW129105   1.177   5.658   3.493
 9402SOL    HW229106   1.333   5.691   3.459
 9403SOL     OW29107   6.594   1.944   2.125
 9403SOL    HW129108   6.671   2.007   2.119
 9403SOL    HW229109   6.618   1.867   2.184
 9404SOL     OW29110   2.083   3.519   0.871
 9404SOL    HW129111   2.061   3.582   0.796
 9404SOL    HW229112   2.070   3.425   0.839
 9405SOL     OW29113   0.246   4.708   5.500
 9405SOL    HW129114   0.254   4.630   5.438
 9405SOL    HW229115   0.309   4.695   5.577
 9406SOL     OW29116   0.276   2.901   6.899
 9406SOL    HW129117   0.230   2.876   6.813
 9406SOL    HW229118   0.238   2.987   6.933
 9407SOL     OW29119   1.933   4.944   5.487
 9407SOL    HW129120   2.022   4.989   5.484
 9407SOL    HW229121   1.944   4.848   5.460
 9408SOL     OW29122   6.568   5.087   4.923
 9408SOL    HW129123   6.622   5.007   4.897
 9408SOL    HW229124   6.498   5.060   4.989
 9409SOL     OW29125   6.538   4.988   2.483
 9409SOL    HW129126   6.506   4.894   2.471
 9409SOL    HW229127   6.634   4.987   2.511
 9410SOL     OW29128   4.088   0.302   1.508
 9410SOL    HW129129   4.166   0.337   1.457
 9410SOL    HW229130   4.023   0.260   1.445
 9411SOL     OW29131   3.468   3.123   3.823
 9411SOL    HW129132   3.384   3.176   3.813
 9411SOL    HW229133   3.545   3.185   3.836
 9412SOL     OW29134   6.539   6.942   1.589
 9412SOL    HW129135   6.463   6.989   1.634
 9412SOL    HW229136   6.552   6.981   1.498
 9413SOL     OW29137   4.271   5.087   3.715
 9413SOL    HW129138   4.348   5.099   3.778
 9413SOL    HW229139   4.236   5.177   3.688
 9414SOL     OW29140   2.188   1.856   4.693
 9414SOL    HW129141   2.179   1.786   4.622
 9414SOL    HW229142   2.277   1.901   4.684
 9415SOL     OW29143   4.126   1.086   2.106
 9415SOL    HW129144   4.030   1.114   2.097
 9415SOL    HW229145   4.153   1.093   2.202
 9416SOL     OW29146   6.632   5.362   6.076
 9416SOL    HW129147   6.695   5.428   6.117
 9416SOL    HW229148   6.538   5.385   6.102
 9417SOL     OW29149   3.546   6.021   1.552
 9417SOL    HW129150   3.558   5.974   1.640
 9417SOL    HW229151   3.617   6.090   1.542
 9418SOL     OW29152   3.296   2.107   4.609
 9418SOL    HW129153   3.323   2.011   4.610
 9418SOL    HW229154   3.324   2.149   4.522
 9419SOL     OW29155   2.535   2.982   6.856
 9419SOL    HW129156   2.556   2.892   6.819
 9419SOL    HW229157   2.616   3.020   6.900
 9420SOL     OW29158   5.282   3.552   6.981
 9420SOL    HW129159   5.268   3.470   0.009
 9420SOL    HW229160   5.212   3.557   6.910
 9421SOL     OW29161   3.549   6.266   5.877
 9421SOL    HW129162   3.642   6.232   5.883
 9421SOL    HW229163   3.541   6.330   5.801
 9422SOL     OW29164   2.080   5.990   4.648
 9422SOL    HW129165   2.000   6.018   4.595
 9422SOL    HW229166   2.050   5.950   4.734
 9423SOL     OW29167   4.280   5.439   3.143
 9423SOL    HW129168   4.272   5.377   3.065
 9423SOL    HW229169   4.270   5.533   3.113
 9424SOL     OW29170   5.623   0.562   4.645
 9424SOL    HW129171   5.566   0.504   4.703
 9424SOL    HW229172   5.685   0.504   4.592
 9425SOL     OW29173   6.769   4.774   0.492
 9425SOL    HW129174   6.726   4.687   0.516
 9425SOL    HW229175   6.784   4.828   0.576
 9426SOL     OW29176   6.972   2.739   6.112
 9426SOL    HW129177   0.032   2.779   6.085
 9426SOL    HW229178   6.960   2.749   6.211
 9427SOL     OW29179   3.698   5.804   3.375
 9427SOL    HW129180   3.716   5.705   3.369
 9427SOL    HW229181   3.633   5.829   3.303
 9428SOL     OW29182   6.529   0.160   6.187
 9428SOL    HW129183   6.523   0.258   6.204
 9428SOL    HW229184   6.447   0.115   6.223
 9429SOL     OW29185   2.140   2.348   4.216
 9429SOL    HW129186   2.138   2.414   4.292
 9429SOL    HW229187   2.186   2.265   4.246
 9430SOL     OW29188   0.642   2.417   4.574
 9430SOL    HW129189   0.563   2.370   4.614
 9430SOL    HW229190   0.664   2.376   4.486
 9431SOL     OW29191   0.244   4.646   6.257
 9431SOL    HW129192   0.221   4.743   6.261
 9431SOL    HW229193   0.167   4.595   6.219
 9432SOL     OW29194   6.861   1.457   3.461
 9432SOL    HW129195   6.884   1.458   3.558
 9432SOL    HW229196   6.896   1.541   3.418
 9433SOL     OW29197   3.882   6.344   2.773
 9433SOL    HW129198   3.982   6.339   2.775
 9433SOL    HW229199   3.848   6.299   2.690
 9434SOL     OW29200   5.027   5.173   4.065
 9434SOL    HW129201   5.006   5.240   3.994
 9434SOL    HW229202   5.122   5.183   4.093
 9435SOL     OW29203   0.832   3.379   1.421
 9435SOL    HW129204   0.834   3.350   1.516
 9435SOL    HW229205   0.755   3.336   1.374
 9436SOL     OW29206   1.378   0.383   3.693
 9436SOL    HW129207   1.351   0.338   3.608
 9436SOL    HW229208   1.374   0.482   3.680
 9437SOL     OW29209   6.334   5.721   4.762
 9437SOL    HW129210   6.412   5.775   4.730
 9437SOL    HW229211   6.250   5.774   4.753
 9438SOL     OW29212   3.277   6.059   2.186
 9438SOL    HW129213   3.200   6.073   2.124
 9438SOL    HW229214   3.243   6.046   2.279
 9439SOL     OW29215   1.215   2.846   0.450
 9439SOL    HW129216   1.130   2.885   0.485
 9439SOL    HW229217   1.279   2.920   0.428
 9440SOL     OW29218   2.435   5.174   3.010
 9440SOL    HW129219   2.392   5.153   2.922
 9440SOL    HW229220   2.513   5.113   3.025
 9441SOL     OW29221   6.746   6.452   4.474
 9441SOL    HW129222   6.838   6.490   4.487
 9441SOL    HW229223   6.754   6.357   4.444
 9442SOL     OW29224   4.248   3.817   0.453
 9442SOL    HW129225   4.250   3.812   0.353
 9442SOL    HW229226   4.304   3.894   0.484
 9443SOL     OW29227   2.100   4.525   2.915
 9443SOL    HW129228   2.011   4.569   2.908
 9443SOL    HW229229   2.116   4.469   2.834
 9444SOL     OW29230   1.472   4.422   0.485
 9444SOL    HW129231   1.471   4.522   0.483
 9444SOL    HW229232   1.395   4.389   0.538
 9445SOL     OW29233   0.303   1.904   4.152
 9445SOL    HW129234   0.286   1.863   4.062
 9445SOL    HW229235   0.289   2.003   4.145
 9446SOL     OW29236   6.543   4.818   3.216
 9446SOL    HW129237   6.567   4.727   3.182
 9446SOL    HW229238   6.446   4.819   3.242
 9447SOL     OW29239   5.576   4.955   2.225
 9447SOL    HW129240   5.665   4.913   2.206
 9447SOL    HW229241   5.567   5.040   2.173
 9448SOL     OW29242   5.414   0.405   5.653
 9448SOL    HW129243   5.367   0.447   5.576
 9448SOL    HW229244   5.366   0.428   5.738
 9449SOL     OW29245   6.114   0.446   1.972
 9449SOL    HW129246   6.115   0.386   1.893
 9449SOL    HW229247   6.032   0.430   2.026
 9450SOL     OW29248   1.799   6.198   4.145
 9450SOL    HW129249   1.772   6.224   4.052
 9450SOL    HW229250   1.897   6.212   4.157
 9451SOL     OW29251   3.797   6.285   6.550
 9451SOL    HW129252   3.779   6.238   6.463
 9451SOL    HW229253   3.756   6.232   6.625
 9452SOL     OW29254   6.773   4.244   0.570
 9452SOL    HW129255   6.677   4.271   0.573
 9452SOL    HW229256   6.814   4.256   0.660
 9453SOL     OW29257   4.002   6.069   3.292
 9453SOL    HW129258   3.997   6.132   3.214
 9453SOL    HW229259   3.976   6.119   3.375
 9454SOL     OW29260   4.660   3.634   0.506
 9454SOL    HW129261   4.595   3.567   0.472
 9454SOL    HW229262   4.715   3.593   0.579
 9455SOL     OW29263   2.777   2.221   2.290
 9455SOL    HW129264   2.709   2.285   2.326
 9455SOL    HW229265   2.807   2.252   2.199
 9456SOL     OW29266   6.686   2.994   2.024
 9456SOL    HW129267   6.727   2.958   1.940
 9456SOL    HW229268   6.694   2.927   2.097
 9457SOL     OW29269   6.967   5.463   3.724
 9457SOL    HW129270   6.917   5.515   3.793
 9457SOL    HW229271   6.957   5.365   3.743
 9458SOL     OW29272   6.093   3.371   6.895
 9458SOL    HW129273   6.085   3.458   6.943
 9458SOL    HW229274   6.187   3.338   6.899
 9459SOL     OW29275   5.018   4.891   4.790
 9459SOL    HW129276   4.958   4.830   4.842
 9459SOL    HW229277   5.069   4.950   4.853
 9460SOL     OW29278   1.241   2.052   3.087
 9460SOL    HW129279   1.288   2.062   2.999
 9460SOL    HW229280   1.199   1.962   3.092
 9461SOL     OW29281   1.355   2.421   2.748
 9461SOL    HW129282   1.446   2.413   2.787
 9461SOL    HW229283   1.360   2.466   2.659
 9462SOL     OW29284   1.865   1.433   4.422
 9462SOL    HW129285   1.873   1.343   4.465
 9462SOL    HW229286   1.797   1.488   4.472
 9463SOL     OW29287   5.687   5.507   0.840
 9463SOL    HW129288   5.660   5.577   0.773
 9463SOL    HW229289   5.619   5.434   0.840
 9464SOL     OW29290   0.762   0.771   1.407
 9464SOL    HW129291   0.786   0.862   1.373
 9464SOL    HW229292   0.766   0.770   1.507
 9465SOL     OW29293   6.576   4.220   0.837
 9465SOL    HW129294   6.521   4.200   0.756
 9465SOL    HW229295   6.534   4.295   0.889
 9466SOL     OW29296   3.674   5.263   6.695
 9466SOL    HW129297   3.662   5.168   6.723
 9466SOL    HW229298   3.765   5.274   6.655
 9467SOL     OW29299   2.311   3.316   0.835
 9467SOL    HW129300   2.317   3.383   0.762
 9467SOL    HW229301   2.362   3.347   0.915
 9468SOL     OW29302   6.566   2.362   0.567
 9468SOL    HW129303   6.523   2.369   0.657
 9468SOL    HW229304   6.532   2.280   0.520
 9469SOL     OW29305   0.876   6.442   1.459
 9469SOL    HW129306   0.872   6.345   1.435
 9469SOL    HW229307   0.818   6.494   1.396
 9470SOL     OW29308   4.036   4.366   1.171
 9470SOL    HW129309   3.998   4.369   1.079
 9470SOL    HW229310   4.135   4.353   1.166
 9471SOL     OW29311   6.088   3.029   5.056
 9471SOL    HW129312   6.169   3.030   4.997
 9471SOL    HW229313   6.034   2.947   5.038
 9472SOL     OW29314   1.837   3.149   6.499
 9472SOL    HW129315   1.922   3.168   6.547
 9472SOL    HW229316   1.773   3.224   6.514
 9473SOL     OW29317   3.155   4.787   0.808
 9473SOL    HW129318   3.058   4.801   0.791
 9473SOL    HW229319   3.198   4.750   0.726
 9474SOL     OW29320   5.517   3.075   1.420
 9474SOL    HW129321   5.471   3.076   1.510
 9474SOL    HW229322   5.594   3.011   1.423
 9475SOL     OW29323   4.540   3.633   6.089
 9475SOL    HW129324   4.533   3.585   6.176
 9475SOL    HW229325   4.473   3.707   6.086
 9476SOL     OW29326   3.303   4.151   5.883
 9476SOL    HW129327   3.302   4.054   5.907
 9476SOL    HW229328   3.296   4.161   5.783
 9477SOL     OW29329   2.020   4.210   1.195
 9477SOL    HW129330   1.944   4.169   1.144
 9477SOL    HW229331   2.023   4.171   1.287
 9478SOL     OW29332   5.043   2.210   0.017
 9478SOL    HW129333   4.984   2.140   7.003
 9478SOL    HW229334   5.050   2.288   6.982
 9479SOL     OW29335   3.837   0.683   1.300
 9479SOL    HW129336   3.742   0.658   1.319
 9479SOL    HW229337   3.846   0.782   1.297
 9480SOL     OW29338   6.389   0.151   6.892
 9480SOL    HW129339   6.404   0.234   6.838
 9480SOL    HW229340   6.417   0.167   6.987
 9481SOL     OW29341   4.172   1.616   3.216
 9481SOL    HW129342   4.270   1.629   3.229
 9481SOL    HW229343   4.145   1.651   3.126
 9482SOL     OW29344   6.165   6.952   0.876
 9482SOL    HW129345   6.183   6.930   0.972
 9482SOL    HW229346   6.225   6.898   0.818
 9483SOL     OW29347   0.003   1.165   0.822
 9483SOL    HW129348   6.938   1.130   0.803
 9483SOL    HW229349   0.056   1.094   0.868
 9484SOL     OW29350   3.256   5.872   4.995
 9484SOL    HW129351   3.326   5.827   5.051
 9484SOL    HW229352   3.167   5.834   5.017
 9485SOL     OW29353   6.901   1.499   6.756
 9485SOL    HW129354   6.829   1.443   6.715
 9485SOL    HW229355   6.895   1.491   6.856
 9486SOL     OW29356   4.862   5.669   0.071
 9486SOL    HW129357   4.955   5.699   0.049
 9486SOL    HW229358   4.800   5.695   7.024
 9487SOL     OW29359   3.289   3.296   4.021
 9487SOL    HW129360   3.253   3.202   4.015
 9487SOL    HW229361   3.243   3.344   4.096
 9488SOL     OW29362   0.984   1.853   0.862
 9488SOL    HW129363   0.974   1.775   0.925
 9488SOL    HW229364   0.898   1.868   0.813
 9489SOL     OW29365   4.974   4.460   0.579
 9489SOL    HW129366   5.056   4.510   0.603
 9489SOL    HW229367   4.934   4.418   0.661
 9490SOL     OW29368   5.456   3.653   3.781
 9490SOL    HW129369   5.459   3.712   3.862
 9490SOL    HW229370   5.363   3.650   3.746
 9491SOL     OW29371   5.141   6.699   2.784
 9491SOL    HW129372   5.110   6.793   2.795
 9491SOL    HW229373   5.137   6.652   2.872
 9492SOL     OW29374   4.948   2.770   4.680
 9492SOL    HW129375   4.968   2.810   4.591
 9492SOL    HW229376   4.920   2.675   4.668
 9493SOL     OW29377   4.429   6.655   2.888
 9493SOL    HW129378   4.367   6.578   2.876
 9493SOL    HW229379   4.448   6.696   2.799
 9494SOL     OW29380   5.369   2.037   2.032
 9494SOL    HW129381   5.460   2.039   2.073
 9494SOL    HW229382   5.377   2.040   1.932
 9495SOL     OW29383   1.074   0.603   2.534
 9495SOL    HW129384   1.091   0.591   2.632
 9495SOL    HW229385   1.068   0.513   2.490
 9496SOL     OW29386   4.368   2.062   2.438
 9496SOL    HW129387   4.288   2.103   2.394
 9496SOL    HW229388   4.450   2.115   2.415
 9497SOL     OW29389   5.392   5.260   4.426
 9497SOL    HW129390   5.468   5.301   4.476
 9497SOL    HW229391   5.388   5.162   4.446
 9498SOL     OW29392   6.646   5.541   3.864
 9498SOL    HW129393   6.649   5.521   3.766
 9498SOL    HW229394   6.717   5.606   3.888
 9499SOL     OW29395   6.016   6.052   5.781
 9499SOL    HW129396   5.930   6.042   5.831
 9499SOL    HW229397   6.072   5.970   5.794
 9500SOL     OW29398   4.429   0.982   0.882
 9500SOL    HW129399   4.444   0.922   0.803
 9500SOL    HW229400   4.397   0.928   0.959
 9501SOL     OW29401   1.655   3.022   4.877
 9501SOL    HW129402   1.659   3.117   4.846
 9501SOL    HW229403   1.588   2.972   4.822
 9502SOL     OW29404   5.741   4.526   5.474
 9502SOL    HW129405   5.659   4.487   5.514
 9502SOL    HW229406   5.716   4.589   5.401
 9503SOL     OW29407   0.464   2.368   6.607
 9503SOL    HW129408   0.429   2.349   6.515
 9503SOL    HW229409   0.471   2.467   6.621
 9504SOL     OW29410   6.496   5.098   2.016
 9504SOL    HW129411   6.423   5.161   1.992
 9504SOL    HW229412   6.571   5.150   2.058
 9505SOL     OW29413   4.395   4.987   5.075
 9505SOL    HW129414   4.388   4.987   4.976
 9505SOL    HW229415   4.346   5.065   5.113
 9506SOL     OW29416   3.426   1.780   1.026
 9506SOL    HW129417   3.447   1.839   1.104
 9506SOL    HW229418   3.356   1.824   0.969
 9507SOL     OW29419   5.742   6.890   2.146
 9507SOL    HW129420   5.667   6.825   2.140
 9507SOL    HW229421   5.775   6.896   2.240
 9508SOL     OW29422   5.102   1.390   3.070
 9508SOL    HW129423   5.006   1.374   3.045
 9508SOL    HW229424   5.162   1.354   2.998
 9509SOL     OW29425   6.603   6.886   2.454
 9509SOL    HW129426   6.679   6.949   2.439
 9509SOL    HW229427   6.620   6.800   2.407
 9510SOL     OW29428   0.702   2.523   3.817
 9510SOL    HW129429   0.731   2.437   3.776
 9510SOL    HW229430   0.717   2.598   3.752
 9511SOL     OW29431   1.231   1.284   0.644
 9511SOL    HW129432   1.232   1.324   0.552
 9511SOL    HW229433   1.324   1.256   0.669
 9512SOL     OW29434   6.427   2.297   1.155
 9512SOL    HW129435   6.513   2.257   1.187
 9512SOL    HW229436   6.407   2.379   1.209
 9513SOL     OW29437   4.005   5.329   6.925
 9513SOL    HW129438   4.098   5.342   6.960
 9513SOL    HW229439   4.003   5.353   6.828
 9514SOL     OW29440   3.232   3.345   6.740
 9514SOL    HW129441   3.231   3.294   6.826
 9514SOL    HW229442   3.270   3.436   6.756
 9515SOL     OW29443   2.464   5.355   3.858
 9515SOL    HW129444   2.477   5.455   3.855
 9515SOL    HW229445   2.471   5.323   3.953
 9516SOL     OW29446   6.782   3.626   0.333
 9516SOL    HW129447   6.697   3.662   0.373
 9516SOL    HW229448   6.814   3.549   0.387
 9517SOL     OW29449   1.374   4.930   0.770
 9517SOL    HW129450   1.286   4.935   0.722
 9517SOL    HW229451   1.404   4.834   0.773
 9518SOL     OW29452   1.537   0.835   0.191
 9518SOL    HW129453   1.441   0.823   0.167
 9518SOL    HW229454   1.545   0.905   0.262
 9519SOL     OW29455   1.228   2.792   5.367
 9519SOL    HW129456   1.182   2.870   5.409
 9519SOL    HW229457   1.303   2.825   5.309
 9520SOL     OW29458   1.966   6.671   2.616
 9520SOL    HW129459   1.945   6.576   2.638
 9520SOL    HW229460   2.054   6.675   2.568
 9521SOL     OW29461   5.048   5.681   4.435
 9521SOL    HW129462   5.118   5.610   4.444
 9521SOL    HW229463   4.966   5.655   4.485
 9522SOL     OW29464   3.827   6.118   0.895
 9522SOL    HW129465   3.923   6.131   0.917
 9522SOL    HW229466   3.812   6.024   0.864
 9523SOL     OW29467   3.354   5.552   4.460
 9523SOL    HW129468   3.271   5.550   4.515
 9523SOL    HW229469   3.399   5.641   4.472
 9524SOL     OW29470   4.207   3.334   1.120
 9524SOL    HW129471   4.215   3.370   1.213
 9524SOL    HW229472   4.117   3.292   1.109
 9525SOL     OW29473   2.874   0.946   6.321
 9525SOL    HW129474   2.801   1.001   6.361
 9525SOL    HW229475   2.834   0.864   6.279
 9526SOL     OW29476   5.179   5.432   2.453
 9526SOL    HW129477   5.112   5.371   2.496
 9526SOL    HW229478   5.207   5.502   2.518
 9527SOL     OW29479   0.353   1.602   1.896
 9527SOL    HW129480   0.303   1.679   1.857
 9527SOL    HW229481   0.292   1.547   1.953
 9528SOL     OW29482   0.019   1.050   2.167
 9528SOL    HW129483   0.015   1.147   2.192
 9528SOL    HW229484   0.115   1.024   2.152
 9529SOL     OW29485   0.805   2.987   5.990
 9529SOL    HW129486   0.891   2.962   6.034
 9529SOL    HW229487   0.796   2.939   5.903
 9530SOL     OW29488   1.053   1.833   3.418
 9530SOL    HW129489   1.116   1.873   3.484
 9530SOL    HW229490   1.020   1.905   3.356
 9531SOL     OW29491   3.218   6.959   3.121
 9531SOL    HW129492   3.246   6.963   3.217
 9531SOL    HW229493   3.284   7.010   3.065
 9532SOL     OW29494   1.879   0.188   1.617
 9532SOL    HW129495   1.895   0.274   1.569
 9532SOL    HW229496   1.782   0.165   1.614
 9533SOL     OW29497   1.631   1.043   6.191
 9533SOL    HW129498   1.651   1.112   6.122
 9533SOL    HW229499   1.572   0.972   6.151
 9534SOL     OW29500   5.536   2.706   4.805
 9534SOL    HW129501   5.438   2.690   4.820
 9534SOL    HW229502   5.552   2.804   4.791
 9535SOL     OW29503   2.606   1.034   5.645
 9535SOL    HW129504   2.577   0.943   5.676
 9535SOL    HW229505   2.686   1.064   5.698
 9536SOL     OW29506   1.436   5.994   5.824
 9536SOL    HW129507   1.488   6.079   5.817
 9536SOL    HW229508   1.463   5.932   5.750
 9537SOL     OW29509   2.961   6.969   1.551
 9537SOL    HW129510   2.900   6.978   1.472
 9537SOL    HW229511   3.013   0.026   1.561
 9538SOL     OW29512   6.664   2.462   4.370
 9538SOL    HW129513   6.579   2.465   4.421
 9538SOL    HW229514   6.647   2.431   4.277
 9539SOL     OW29515   0.673   5.996   0.438
 9539SOL    HW129516   0.720   5.924   0.489
 9539SOL    HW229517   0.575   5.994   0.461
 9540SOL     OW29518   4.770   4.481   4.664
 9540SOL    HW129519   4.693   4.482   4.729
 9540SOL    HW229520   4.742   4.431   4.582
 9541SOL     OW29521   1.999   2.671   4.130
 9541SOL    HW129522   2.020   2.619   4.213
 9541SOL    HW229523   1.987   2.767   4.154
 9542SOL     OW29524   4.881   3.720   4.390
 9542SOL    HW129525   4.934   3.700   4.307
 9542SOL    HW229526   4.858   3.635   4.436
 9543SOL     OW29527   5.692   1.838   2.633
 9543SOL    HW129528   5.724   1.926   2.668
 9543SOL    HW229529   5.603   1.816   2.673
 9544SOL     OW29530   4.509   1.275   2.396
 9544SOL    HW129531   4.549   1.211   2.330
 9544SOL    HW229532   4.413   1.252   2.412
 9545SOL     OW29533   6.869   0.972   3.646
 9545SOL    HW129534   6.878   0.889   3.701
 9545SOL    HW229535   6.931   0.967   3.568
 9546SOL     OW29536   2.578   5.553   0.719
 9546SOL    HW129537   2.563   5.543   0.817
 9546SOL    HW229538   2.676   5.544   0.699
 9547SOL     OW29539   0.873   6.506   3.791
 9547SOL    HW129540   0.779   6.532   3.767
 9547SOL    HW229541   0.870   6.429   3.855
 9548SOL     OW29542   4.784   5.911   3.567
 9548SOL    HW129543   4.792   5.842   3.495
 9548SOL    HW229544   4.711   5.976   3.544
 9549SOL     OW29545   2.455   5.942   0.741
 9549SOL    HW129546   2.480   5.875   0.811
 9549SOL    HW229547   2.464   6.034   0.777
 9550SOL     OW29548   0.973   1.389   0.231
 9550SOL    HW129549   0.897   1.397   0.167
 9550SOL    HW229550   0.965   1.458   0.302
 9551SOL     OW29551   1.063   6.559   4.570
 9551SOL    HW129552   1.018   6.558   4.481
 9551SOL    HW229553   1.162   6.553   4.558
 9552SOL     OW29554   1.605   5.419   3.217
 9552SOL    HW129555   1.627   5.339   3.272
 9552SOL    HW229556   1.675   5.432   3.146
 9553SOL     OW29557   5.511   4.259   5.830
 9553SOL    HW129558   5.543   4.259   5.924
 9553SOL    HW229559   5.583   4.292   5.769
 9554SOL     OW29560   2.104   1.422   1.929
 9554SOL    HW129561   2.109   1.476   2.013
 9554SOL    HW229562   2.068   1.331   1.950
 9555SOL     OW29563   0.200   2.274   0.598
 9555SOL    HW129564   0.105   2.244   0.597
 9555SOL    HW229565   0.260   2.194   0.601
 9556SOL     OW29566   1.935   1.954   1.569
 9556SOL    HW129567   1.948   2.049   1.540
 9556SOL    HW229568   2.014   1.899   1.540
 9557SOL     OW29569   5.388   1.037   2.044
 9557SOL    HW129570   5.462   1.039   1.977
 9557SOL    HW229571   5.420   0.991   2.128
 9558SOL     OW29572   6.047   4.936   2.448
 9558SOL    HW129573   6.115   5.008   2.459
 9558SOL    HW229574   5.987   4.934   2.528
 9559SOL     OW29575   0.113   3.055   1.709
 9559SOL    HW129576   0.015   3.069   1.693
 9559SOL    HW229577   0.152   3.008   1.630
 9560SOL     OW29578   3.266   1.858   3.814
 9560SOL    HW129579   3.184   1.803   3.796
 9560SOL    HW229580   3.315   1.820   3.893
 9561SOL     OW29581   4.170   6.398   0.451
 9561SOL    HW129582   4.133   6.385   0.359
 9561SOL    HW229583   4.182   6.495   0.469
 9562SOL     OW29584   5.448   5.262   2.603
 9562SOL    HW129585   5.351   5.245   2.624
 9562SOL    HW229586   5.487   5.182   2.558
 9563SOL     OW29587   6.450   6.131   0.241
 9563SOL    HW129588   6.405   6.187   0.172
 9563SOL    HW229589   6.438   6.034   0.218
 9564SOL     OW29590   2.354   6.771   6.916
 9564SOL    HW129591   2.391   6.804   6.829
 9564SOL    HW229592   2.396   6.821   6.991
 9565SOL     OW29593   3.766   5.960   4.598
 9565SOL    HW129594   3.767   5.998   4.505
 9565SOL    HW229595   3.832   5.886   4.604
 9566SOL     OW29596   2.709   4.605   5.378
 9566SOL    HW129597   2.776   4.665   5.421
 9566SOL    HW229598   2.750   4.561   5.298
 9567SOL     OW29599   6.067   5.717   6.036
 9567SOL    HW129600   6.065   5.810   6.072
 9567SOL    HW229601   5.998   5.661   6.082
 9568SOL     OW29602   4.893   3.673   6.497
 9568SOL    HW129603   4.895   3.645   6.402
 9568SOL    HW229604   4.802   3.706   6.521
 9569SOL     OW29605   6.234   1.060   0.733
 9569SOL    HW129606   6.262   0.964   0.725
 9569SOL    HW229607   6.169   1.069   0.808
 9570SOL     OW29608   0.343   0.825   0.472
 9570SOL    HW129609   0.319   0.908   0.421
 9570SOL    HW229610   0.425   0.841   0.527
 9571SOL     OW29611   2.228   3.816   0.391
 9571SOL    HW129612   2.217   3.823   0.490
 9571SOL    HW229613   2.312   3.862   0.363
 9572SOL     OW29614   1.693   4.643   1.284
 9572SOL    HW129615   1.612   4.586   1.295
 9572SOL    HW229616   1.675   4.714   1.215
 9573SOL     OW29617   1.401   1.841   0.836
 9573SOL    HW129618   1.461   1.892   0.897
 9573SOL    HW229619   1.310   1.833   0.877
 9574SOL     OW29620   2.752   1.727   5.610
 9574SOL    HW129621   2.781   1.800   5.549
 9574SOL    HW229622   2.674   1.758   5.665
 9575SOL     OW29623   5.600   0.454   1.928
 9575SOL    HW129624   5.632   0.528   1.869
 9575SOL    HW229625   5.538   0.491   1.997
 9576SOL     OW29626   3.190   2.184   6.024
 9576SOL    HW129627   3.195   2.089   6.055
 9576SOL    HW229628   3.283   2.218   6.007
 9577SOL     OW29629   1.061   6.492   3.115
 9577SOL    HW129630   1.030   6.453   3.028
 9577SOL    HW229631   1.146   6.448   3.143
 9578SOL     OW29632   6.360   3.377   2.199
 9578SOL    HW129633   6.394   3.439   2.128
 9578SOL    HW229634   6.261   3.372   2.195
 9579SOL     OW29635   1.024   6.736   2.619
 9579SOL    HW129636   1.097   6.682   2.577
 9579SOL    HW229637   1.041   6.833   2.605
 9580SOL     OW29638   4.243   3.617   6.290
 9580SOL    HW129639   4.263   3.583   6.198
 9580SOL    HW229640   4.204   3.709   6.284
 9581SOL     OW29641   1.232   4.516   5.881
 9581SOL    HW129642   1.216   4.418   5.892
 9581SOL    HW229643   1.164   4.553   5.817
 9582SOL     OW29644   4.539   5.004   4.769
 9582SOL    HW129645   4.459   5.026   4.712
 9582SOL    HW229646   4.604   4.951   4.715
 9583SOL     OW29647   2.072   4.201   1.681
 9583SOL    HW129648   2.131   4.243   1.749
 9583SOL    HW229649   2.015   4.131   1.725
 9584SOL     OW29650   5.814   5.784   6.311
 9584SOL    HW129651   5.733   5.783   6.370
 9584SOL    HW229652   5.886   5.839   6.354
 9585SOL     OW29653   5.810   0.464   4.463
 9585SOL    HW129654   5.907   0.458   4.485
 9585SOL    HW229655   5.798   0.522   4.382
 9586SOL     OW29656   5.646   3.221   3.297
 9586SOL    HW129657   5.551   3.223   3.327
 9586SOL    HW229658   5.699   3.288   3.349
 9587SOL     OW29659   4.787   6.682   2.029
 9587SOL    HW129660   4.806   6.705   1.934
 9587SOL    HW229661   4.754   6.588   2.035
 9588SOL     OW29662   6.926   0.640   2.177
 9588SOL    HW129663   6.912   0.624   2.079
 9588SOL    HW229664   6.840   0.666   2.220
 9589SOL     OW29665   2.892   1.441   6.638
 9589SOL    HW129666   2.868   1.521   6.584
 9589SOL    HW229667   2.851   1.360   6.597
 9590SOL     OW29668   6.785   4.401   4.781
 9590SOL    HW129669   6.802   4.388   4.879
 9590SOL    HW229670   6.826   4.486   4.751
 9591SOL     OW29671   1.572   4.794   1.768
 9591SOL    HW129672   1.584   4.696   1.787
 9591SOL    HW229673   1.659   4.841   1.781
 9592SOL     OW29674   4.881   5.021   1.942
 9592SOL    HW129675   4.826   5.084   1.888
 9592SOL    HW229676   4.969   5.006   1.896
 9593SOL     OW29677   0.598   2.691   4.172
 9593SOL    HW129678   0.672   2.633   4.139
 9593SOL    HW229679   0.519   2.634   4.194
 9594SOL     OW29680   5.979   0.118   2.143
 9594SOL    HW129681   6.005   0.096   2.237
 9594SOL    HW229682   5.907   0.055   2.113
 9595SOL     OW29683   1.227   5.047   4.128
 9595SOL    HW129684   1.276   4.978   4.074
 9595SOL    HW229685   1.178   5.002   4.202
 9596SOL     OW29686   5.430   6.371   4.679
 9596SOL    HW129687   5.469   6.398   4.767
 9596SOL    HW229688   5.387   6.281   4.689
 9597SOL     OW29689   2.023   3.835   1.009
 9597SOL    HW129690   2.108   3.883   0.989
 9597SOL    HW229691   1.989   3.790   0.926
 9598SOL     OW29692   6.982   5.499   5.950
 9598SOL    HW129693   0.019   5.523   5.877
 9598SOL    HW229694   6.889   5.516   5.918
 9599SOL     OW29695   5.030   1.904   4.747
 9599SOL    HW129696   5.071   1.924   4.658
 9599SOL    HW229697   5.008   1.990   4.794
 9600SOL     OW29698   1.205   6.796   6.871
 9600SOL    HW129699   1.304   6.798   6.857
 9600SOL    HW229700   1.185   6.742   6.952
 9601SOL     OW29701   0.559   5.169   5.562
 9601SOL    HW129702   0.585   5.265   5.547
 9601SOL    HW229703   0.472   5.165   5.611
 9602SOL     OW29704   1.155   5.738   0.707
 9602SOL    HW129705   1.131   5.641   0.697
 9602SOL    HW229706   1.097   5.779   0.777
 9603SOL     OW29707   1.840   5.681   3.960
 9603SOL    HW129708   1.895   5.755   3.921
 9603SOL    HW229709   1.743   5.697   3.938
 9604SOL     OW29710   6.723   1.225   0.015
 9604SOL    HW129711   6.671   1.153   0.062
 9604SOL    HW229712   6.780   1.184   6.971
 9605SOL     OW29713   1.885   5.839   6.664
 9605SOL    HW129714   1.892   5.936   6.687
 9605SOL    HW229715   1.804   5.825   6.606
 9606SOL     OW29716   6.288   6.356   4.410
 9606SOL    HW129717   6.300   6.349   4.311
 9606SOL    HW229718   6.311   6.448   4.441
 9607SOL     OW29719   1.033   2.512   1.808
 9607SOL    HW129720   1.104   2.569   1.767
 9607SOL    HW229721   0.988   2.459   1.736
 9608SOL     OW29722   6.795   6.487   2.613
 9608SOL    HW129723   6.766   6.401   2.655
 9608SOL    HW229724   6.823   6.470   2.519
 9609SOL     OW29725   1.585   3.146   3.938
 9609SOL    HW129726   1.630   3.099   4.014
 9609SOL    HW229727   1.533   3.079   3.884
 9610SOL     OW29728   2.838   1.741   6.567
 9610SOL    HW129729   2.820   1.833   6.601
 9610SOL    HW229730   2.876   1.747   6.475
 9611SOL     OW29731   6.683   6.628   1.042
 9611SOL    HW129732   6.762   6.598   1.095
 9611SOL    HW229733   6.642   6.550   0.995
 9612SOL     OW29734   5.836   2.889   2.005
 9612SOL    HW129735   5.864   2.882   2.101
 9612SOL    HW229736   5.889   2.825   1.951
 9613SOL     OW29737   5.834   6.471   5.827
 9613SOL    HW129738   5.779   6.441   5.750
 9613SOL    HW229739   5.919   6.418   5.830
 9614SOL     OW29740   3.745   3.361   2.333
 9614SOL    HW129741   3.832   3.312   2.332
 9614SOL    HW229742   3.688   3.330   2.257
 9615SOL     OW29743   0.951   6.606   3.562
 9615SOL    HW129744   0.930   6.562   3.649
 9615SOL    HW229745   1.029   6.559   3.520
 9616SOL     OW29746   3.311   3.492   0.964
 9616SOL    HW129747   3.243   3.490   1.038
 9616SOL    HW229748   3.400   3.463   1.000
 9617SOL     OW29749   0.834   3.971   3.418
 9617SOL    HW129750   0.896   3.949   3.342
 9617SOL    HW229751   0.754   4.019   3.383
 9618SOL     OW29752   4.545   5.776   6.684
 9618SOL    HW129753   4.587   5.810   6.600
 9618SOL    HW229754   4.446   5.788   6.679
 9619SOL     OW29755   2.496   0.048   0.825
 9619SOL    HW129756   2.502   0.070   0.923
 9619SOL    HW229757   2.436   6.997   0.813
 9620SOL     OW29758   3.316   1.222   6.589
 9620SOL    HW129759   3.253   1.288   6.549
 9620SOL    HW229760   3.305   1.134   6.542
 9621SOL     OW29761   1.219   1.728   1.361
 9621SOL    HW129762   1.211   1.635   1.397
 9621SOL    HW229763   1.170   1.735   1.274
 9622SOL     OW29764   6.528   0.624   5.443
 9622SOL    HW129765   6.469   0.632   5.523
 9622SOL    HW229766   6.528   0.529   5.411
 9623SOL     OW29767   3.876   6.551   6.599
 9623SOL    HW129768   3.928   6.569   6.683
 9623SOL    HW229769   3.867   6.452   6.588
 9624SOL     OW29770   4.146   5.162   4.605
 9624SOL    HW129771   4.062   5.111   4.622
 9624SOL    HW229772   4.133   5.222   4.526
 9625SOL     OW29773   4.822   3.799   5.689
 9625SOL    HW129774   4.737   3.798   5.742
 9625SOL    HW229775   4.801   3.793   5.591
 9626SOL     OW29776   2.317   3.596   6.623
 9626SOL    HW129777   2.396   3.652   6.647
 9626SOL    HW229778   2.347   3.507   6.589
 9627SOL     OW29779   0.933   5.242   6.969
 9627SOL    HW129780   0.841   5.227   7.005
 9627SOL    HW229781   0.949   5.182   6.890
 9628SOL     OW29782   6.255   1.840   6.508
 9628SOL    HW129783   6.290   1.748   6.489
 9628SOL    HW229784   6.268   1.861   6.605
 9629SOL     OW29785   6.367   5.673   3.791
 9629SOL    HW129786   6.277   5.665   3.833
 9629SOL    HW229787   6.430   5.607   3.833
 9630SOL     OW29788   5.891   6.561   6.131
 9630SOL    HW129789   5.876   6.624   6.055
 9630SOL    HW229790   5.806   6.550   6.183
 9631SOL     OW29791   4.261   0.925   6.951
 9631SOL    HW129792   4.349   0.954   6.989
 9631SOL    HW229793   4.248   0.827   6.968
 9632SOL     OW29794   3.568   5.935   1.828
 9632SOL    HW129795   3.554   5.879   1.910
 9632SOL    HW229796   3.620   6.017   1.852
 9633SOL     OW29797   3.508   3.080   2.336
 9633SOL    HW129798   3.599   3.044   2.316
 9633SOL    HW229799   3.507   3.117   2.429
 9634SOL     OW29800   5.284   4.452   2.945
 9634SOL    HW129801   5.201   4.407   2.912
 9634SOL    HW229802   5.271   4.551   2.943
 9635SOL     OW29803   0.153   5.119   3.823
 9635SOL    HW129804   0.208   5.041   3.854
 9635SOL    HW229805   0.170   5.198   3.882
 9636SOL     OW29806   4.839   3.056   4.302
 9636SOL    HW129807   4.849   3.080   4.398
 9636SOL    HW229808   4.764   2.991   4.290
 9637SOL     OW29809   2.590   2.773   0.117
 9637SOL    HW129810   2.622   2.865   0.143
 9637SOL    HW229811   2.514   2.747   0.176
 9638SOL     OW29812   5.945   5.088   5.674
 9638SOL    HW129813   5.881   5.019   5.639
 9638SOL    HW229814   6.003   5.119   5.599
 9639SOL     OW29815   3.812   1.548   2.693
 9639SOL    HW129816   3.901   1.547   2.738
 9639SOL    HW229817   3.794   1.460   2.650
 9640SOL     OW29818   4.495   0.354   3.057
 9640SOL    HW129819   4.415   0.295   3.045
 9640SOL    HW229820   4.556   0.344   2.979
 9641SOL     OW29821   6.171   3.401   3.341
 9641SOL    HW129822   6.166   3.466   3.417
 9641SOL    HW229823   6.104   3.426   3.272
 9642SOL     OW29824   1.548   0.219   3.888
 9642SOL    HW129825   1.484   0.294   3.870
 9642SOL    HW229826   1.502   0.132   3.873
 9643SOL     OW29827   4.696   4.805   4.042
 9643SOL    HW129828   4.785   4.850   4.038
 9643SOL    HW229829   4.703   4.721   4.096
 9644SOL     OW29830   1.340   5.948   4.827
 9644SOL    HW129831   1.399   5.905   4.759
 9644SOL    HW229832   1.286   6.020   4.784
 9645SOL     OW29833   0.492   5.110   6.695
 9645SOL    HW129834   0.490   5.188   6.757
 9645SOL    HW229835   0.585   5.095   6.662
 9646SOL     OW29836   3.635   5.763   5.866
 9646SOL    HW129837   3.578   5.785   5.945
 9646SOL    HW229838   3.638   5.841   5.804
 9647SOL     OW29839   6.233   6.815   3.306
 9647SOL    HW129840   6.199   6.865   3.227
 9647SOL    HW229841   6.161   6.808   3.375
 9648SOL     OW29842   3.685   1.987   1.470
 9648SOL    HW129843   3.616   1.927   1.510
 9648SOL    HW229844   3.644   2.076   1.449
 9649SOL     OW29845   1.551   5.677   6.786
 9649SOL    HW129846   1.487   5.731   6.732
 9649SOL    HW229847   1.590   5.734   6.858
 9650SOL     OW29848   6.865   5.452   4.873
 9650SOL    HW129849   6.882   5.486   4.965
 9650SOL    HW229850   6.949   5.415   4.834
 9651SOL     OW29851   4.252   1.607   0.303
 9651SOL    HW129852   4.231   1.704   0.314
 9651SOL    HW229853   4.307   1.575   0.380
 9652SOL     OW29854   0.001   3.612   0.223
 9652SOL    HW129855   6.940   3.651   0.246
 9652SOL    HW229856   7.019   3.554   0.142
 9653SOL     OW29857   4.172   4.202   6.191
 9653SOL    HW129858   4.209   4.190   6.099
 9653SOL    HW229859   4.246   4.213   6.257
 9654SOL     OW29860   3.776   3.617   3.839
 9654SOL    HW129861   3.677   3.604   3.847
 9654SOL    HW229862   3.795   3.678   3.763
 9655SOL     OW29863   4.592   0.862   1.488
 9655SOL    HW129864   4.503   0.868   1.444
 9655SOL    HW229865   4.605   0.939   1.549
 9656SOL     OW29866   5.681   3.934   0.794
 9656SOL    HW129867   5.628   3.977   0.867
 9656SOL    HW229868   5.753   3.877   0.834
 9657SOL     OW29869   5.553   3.581   3.531
 9657SOL    HW129870   5.528   3.579   3.627
 9657SOL    HW229871   5.510   3.659   3.486
 9658SOL     OW29872   5.108   2.116   2.440
 9658SOL    HW129873   5.173   2.083   2.370
 9658SOL    HW229874   5.135   2.207   2.470
 9659SOL     OW29875   2.477   3.189   0.592
 9659SOL    HW129876   2.420   3.148   0.663
 9659SOL    HW229877   2.448   3.284   0.577
 9660SOL     OW29878   0.484   5.737   1.741
 9660SOL    HW129879   0.541   5.670   1.693
 9660SOL    HW229880   0.453   5.806   1.676
 9661SOL     OW29881   5.211   5.117   0.762
 9661SOL    HW129882   5.302   5.081   0.777
 9661SOL    HW229883   5.185   5.176   0.838
 9662SOL     OW29884   5.654   5.349   5.812
 9662SOL    HW129885   5.648   5.344   5.712
 9662SOL    HW229886   5.656   5.257   5.850
 9663SOL     OW29887   0.751   5.163   3.593
 9663SOL    HW129888   0.698   5.081   3.571
 9663SOL    HW229889   0.757   5.221   3.511
 9664SOL     OW29890   4.884   3.735   3.411
 9664SOL    HW129891   4.794   3.754   3.452
 9664SOL    HW229892   4.897   3.795   3.332
 9665SOL     OW29893   5.677   5.863   6.785
 9665SOL    HW129894   5.761   5.811   6.771
 9665SOL    HW229895   5.699   5.949   6.831
 9666SOL     OW29896   5.462   3.617   0.132
 9666SOL    HW129897   5.393   3.641   0.201
 9666SOL    HW229898   5.416   3.595   0.046
 9667SOL     OW29899   6.219   6.381   6.488
 9667SOL    HW129900   6.184   6.474   6.479
 9667SOL    HW229901   6.142   6.317   6.494
 9668SOL     OW29902   0.374   0.073   5.697
 9668SOL    HW129903   0.323   0.003   5.648
 9668SOL    HW229904   0.460   0.093   5.649
 9669SOL     OW29905   3.974   0.072   0.319
 9669SOL    HW129906   4.006   0.146   0.260
 9669SOL    HW229907   3.907   0.109   0.384
 9670SOL     OW29908   6.982   6.727   6.723
 9670SOL    HW129909   0.040   6.763   6.760
 9670SOL    HW229910   6.926   6.803   6.690
 9671SOL     OW29911   1.459   5.607   6.428
 9671SOL    HW129912   1.422   5.659   6.505
 9671SOL    HW229913   1.396   5.533   6.404
 9672SOL     OW29914   0.871   3.255   4.456
 9672SOL    HW129915   0.773   3.248   4.441
 9672SOL    HW229916   0.891   3.339   4.507
 9673SOL     OW29917   2.253   4.048   0.924
 9673SOL    HW129918   2.277   4.094   1.010
 9673SOL    HW229919   2.336   4.026   0.873
 9674SOL     OW29920   2.958   5.864   4.541
 9674SOL    HW129921   3.058   5.871   4.548
 9674SOL    HW229922   2.925   5.934   4.478
 9675SOL     OW29923   4.641   3.683   1.197
 9675SOL    HW129924   4.672   3.718   1.109
 9675SOL    HW229925   4.610   3.588   1.187
 9676SOL     OW29926   0.751   2.843   6.402
 9676SOL    HW129927   0.674   2.837   6.339
 9676SOL    HW229928   0.737   2.780   6.478
 9677SOL     OW29929   6.582   5.302   0.704
 9677SOL    HW129930   6.537   5.213   0.697
 9677SOL    HW229931   6.580   5.348   0.615
 9678SOL     OW29932   3.634   3.250   5.118
 9678SOL    HW129933   3.651   3.347   5.096
 9678SOL    HW229934   3.704   3.194   5.074
 9679SOL     OW29935   2.278   1.572   4.728
 9679SOL    HW129936   2.368   1.604   4.756
 9679SOL    HW229937   2.284   1.528   4.639
 9680SOL     OW29938   4.817   5.912   2.555
 9680SOL    HW129939   4.836   6.003   2.519
 9680SOL    HW229940   4.896   5.852   2.536
 9681SOL     OW29941   1.372   1.774   2.604
 9681SOL    HW129942   1.374   1.709   2.680
 9681SOL    HW229943   1.443   1.843   2.617
 9682SOL     OW29944   5.265   5.622   4.959
 9682SOL    HW129945   5.356   5.587   4.981
 9682SOL    HW229946   5.203   5.602   5.035
 9683SOL     OW29947   2.808   5.827   2.034
 9683SOL    HW129948   2.896   5.786   2.013
 9683SOL    HW229949   2.797   5.911   1.981
 9684SOL     OW29950   1.097   3.785   5.742
 9684SOL    HW129951   1.175   3.726   5.762
 9684SOL    HW229952   1.071   3.773   5.646
 9685SOL     OW29953   3.758   4.851   1.438
 9685SOL    HW129954   3.692   4.809   1.375
 9685SOL    HW229955   3.851   4.827   1.409
 9686SOL     OW29956   6.905   1.983   5.768
 9686SOL    HW129957   6.963   1.902   5.774
 9686SOL    HW229958   6.809   1.957   5.781
 9687SOL     OW29959   5.716   0.802   2.099
 9687SOL    HW129960   5.768   0.755   2.028
 9687SOL    HW229961   5.779   0.840   2.167
 9688SOL     OW29962   0.168   4.291   1.274
 9688SOL    HW129963   0.252   4.323   1.318
 9688SOL    HW229964   0.113   4.240   1.340
 9689SOL     OW29965   1.214   6.206   0.805
 9689SOL    HW129966   1.139   6.195   0.740
 9689SOL    HW229967   1.301   6.213   0.756
 9690SOL     OW29968   6.117   5.072   5.397
 9690SOL    HW129969   6.205   5.034   5.427
 9690SOL    HW229970   6.133   5.135   5.321
 9691SOL     OW29971   3.033   4.016   1.829
 9691SOL    HW129972   3.114   4.057   1.786
 9691SOL    HW229973   3.045   4.016   1.928
 9692SOL     OW29974   5.223   5.151   1.242
 9692SOL    HW129975   5.269   5.136   1.329
 9692SOL    HW229976   5.124   5.156   1.256
 9693SOL     OW29977   5.224   3.954   4.502
 9693SOL    HW129978   5.209   3.858   4.479
 9693SOL    HW229979   5.256   4.003   4.421
 9694SOL     OW29980   3.712   6.943   2.340
 9694SOL    HW129981   3.711   6.977   2.434
 9694SOL    HW229982   3.717   7.020   2.277
 9695SOL     OW29983   0.880   2.509   3.406
 9695SOL    HW129984   0.927   2.508   3.318
 9695SOL    HW229985   0.785   2.540   3.393
 9696SOL     OW29986   6.016   2.113   2.411
 9696SOL    HW129987   6.002   2.177   2.487
 9696SOL    HW229988   6.075   2.039   2.441
 9697SOL     OW29989   0.799   6.015   0.769
 9697SOL    HW129990   0.895   5.987   0.777
 9697SOL    HW229991   0.795   6.105   0.724
 9698SOL     OW29992   5.786   3.127   0.354
 9698SOL    HW129993   5.821   3.214   0.320
 9698SOL    HW229994   5.850   3.088   0.420
 9699SOL     OW29995   1.375   5.325   1.441
 9699SOL    HW129996   1.369   5.334   1.341
 9699SOL    HW229997   1.293   5.279   1.475
 9700SOL     OW29998   5.592   0.247   5.294
 9700SOL    HW129999   5.504   0.278   5.257
 9700SOL    HW230000   5.664   0.265   5.227
 9701SOL     OW30001   4.413   3.238   6.293
 9701SOL    HW130002   4.421   3.139   6.280
 9701SOL    HW230003   4.318   3.261   6.317
 9702SOL     OW30004   3.799   2.890   1.465
 9702SOL    HW130005   3.887   2.845   1.451
 9702SOL    HW230006   3.725   2.824   1.452
 9703SOL     OW30007   6.701   3.988   4.877
 9703SOL    HW130008   6.782   4.022   4.925
 9703SOL    HW230009   6.695   4.029   4.787
 9704SOL     OW30010   2.240   4.156   2.945
 9704SOL    HW130011   2.296   4.126   3.021
 9704SOL    HW230012   2.219   4.078   2.885
 9705SOL     OW30013   6.283   3.195   5.687
 9705SOL    HW130014   6.328   3.247   5.615
 9705SOL    HW230015   6.185   3.189   5.669
 9706SOL     OW30016   1.476   1.749   2.219
 9706SOL    HW130017   1.534   1.761   2.300
 9706SOL    HW230018   1.533   1.757   2.136
 9707SOL     OW30019   6.817   4.986   2.803
 9707SOL    HW130020   6.804   4.887   2.793
 9707SOL    HW230021   6.909   5.004   2.837
 9708SOL     OW30022   2.257   0.302   2.323
 9708SOL    HW130023   2.353   0.271   2.321
 9708SOL    HW230024   2.239   0.362   2.245
 9709SOL     OW30025   5.796   1.957   2.349
 9709SOL    HW130026   5.795   1.907   2.435
 9709SOL    HW230027   5.880   2.011   2.342
 9710SOL     OW30028   6.143   5.871   4.072
 9710SOL    HW130029   6.150   5.786   4.125
 9710SOL    HW230030   6.223   5.928   4.090
 9711SOL     OW30031   4.087   0.365   0.088
 9711SOL    HW130032   4.159   0.311   0.132
 9711SOL    HW230033   4.002   0.357   0.141
 9712SOL     OW30034   5.551   1.978   6.918
 9712SOL    HW130035   5.625   2.021   6.969
 9712SOL    HW230036   5.522   1.894   6.965
 9713SOL     OW30037   1.177   6.745   3.400
 9713SOL    HW130038   1.168   6.739   3.300
 9713SOL    HW230039   1.165   6.655   3.440
 9714SOL     OW30040   2.591   4.662   4.553
 9714SOL    HW130041   2.543   4.742   4.588
 9714SOL    HW230042   2.573   4.583   4.611
 9715SOL     OW30043   6.398   3.611   0.044
 9715SOL    HW130044   6.459   3.546   0.088
 9715SOL    HW230045   6.422   3.619   6.974
 9716SOL     OW30046   3.041   5.039   0.165
 9716SOL    HW130047   3.015   5.134   0.179
 9716SOL    HW230048   2.962   4.980   0.178
 9717SOL     OW30049   4.436   0.884   5.353
 9717SOL    HW130050   4.342   0.890   5.385
 9717SOL    HW230051   4.438   0.887   5.253
 9718SOL     OW30052   3.380   2.573   0.214
 9718SOL    HW130053   3.307   2.638   0.235
 9718SOL    HW230054   3.427   2.547   0.298
 9719SOL     OW30055   4.657   6.144   4.944
 9719SOL    HW130056   4.635   6.162   4.848
 9719SOL    HW230057   4.599   6.199   5.003
 9720SOL     OW30058   2.175   3.796   2.935
 9720SOL    HW130059   2.174   3.697   2.917
 9720SOL    HW230060   2.229   3.842   2.864
 9721SOL     OW30061   0.624   1.355   0.717
 9721SOL    HW130062   0.723   1.368   0.711
 9721SOL    HW230063   0.589   1.327   0.627
 9722SOL     OW30064   3.828   3.092   4.973
 9722SOL    HW130065   3.797   3.059   4.884
 9722SOL    HW230066   3.873   3.018   5.023
 9723SOL     OW30067   6.463   5.771   4.267
 9723SOL    HW130068   6.447   5.682   4.311
 9723SOL    HW230069   6.480   5.757   4.169
 9724SOL     OW30070   1.141   5.417   0.150
 9724SOL    HW130071   1.199   5.378   0.078
 9724SOL    HW230072   1.072   5.475   0.109
 9725SOL     OW30073   3.353   5.342   5.490
 9725SOL    HW130074   3.285   5.275   5.517
 9725SOL    HW230075   3.369   5.406   5.565
 9726SOL     OW30076   6.165   1.185   4.162
 9726SOL    HW130077   6.077   1.140   4.146
 9726SOL    HW230078   6.179   1.196   4.260
 9727SOL     OW30079   0.865   1.140   6.975
 9727SOL    HW130080   0.922   1.222   6.974
 9727SOL    HW230081   0.849   1.112   0.042
 9728SOL     OW30082   4.882   0.690   5.664
 9728SOL    HW130083   4.849   0.600   5.635
 9728SOL    HW230084   4.964   0.715   5.612
 9729SOL     OW30085   0.436   5.519   3.346
 9729SOL    HW130086   0.343   5.556   3.341
 9729SOL    HW230087   0.444   5.461   3.427
 9730SOL     OW30088   0.113   4.442   3.559
 9730SOL    HW130089   0.208   4.440   3.528
 9730SOL    HW230090   0.109   4.425   3.657
 9731SOL     OW30091   4.982   3.714   2.483
 9731SOL    HW130092   5.077   3.729   2.455
 9731SOL    HW230093   4.924   3.707   2.402
 9732SOL     OW30094   1.100   2.849   2.209
 9732SOL    HW130095   1.049   2.821   2.128
 9732SOL    HW230096   1.130   2.768   2.259
 9733SOL     OW30097   6.579   5.137   2.830
 9733SOL    HW130098   6.525   5.063   2.871
 9733SOL    HW230099   6.676   5.116   2.841
 9734SOL     OW30100   6.180   6.500   5.543
 9734SOL    HW130101   6.172   6.411   5.587
 9734SOL    HW230102   6.142   6.570   5.603
 9735SOL     OW30103   1.565   2.560   2.207
 9735SOL    HW130104   1.528   2.467   2.210
 9735SOL    HW230105   1.562   2.594   2.113
 9736SOL     OW30106   4.712   2.378   5.041
 9736SOL    HW130107   4.730   2.340   5.132
 9736SOL    HW230108   4.798   2.407   5.000
 9737SOL     OW30109   5.920   2.234   2.635
 9737SOL    HW130110   5.857   2.188   2.699
 9737SOL    HW230111   5.871   2.308   2.588
 9738SOL     OW30112   1.489   5.717   2.349
 9738SOL    HW130113   1.461   5.794   2.407
 9738SOL    HW230114   1.577   5.682   2.380
 9739SOL     OW30115   5.995   6.947   6.970
 9739SOL    HW130116   6.079   6.894   6.980
 9739SOL    HW230117   6.017   0.013   6.943
 9740SOL     OW30118   0.113   1.137   1.912
 9740SOL    HW130119   0.039   1.145   1.845
 9740SOL    HW230120   0.200   1.123   1.864
 9741SOL     OW30121   2.690   1.411   4.776
 9741SOL    HW130122   2.681   1.317   4.807
 9741SOL    HW230123   2.713   1.413   4.679
 9742SOL     OW30124   3.899   2.479   5.933
 9742SOL    HW130125   3.811   2.484   5.981
 9742SOL    HW230126   3.895   2.407   5.865
 9743SOL     OW30127   6.129   3.405   4.032
 9743SOL    HW130128   6.164   3.314   4.009
 9743SOL    HW230129   6.198   3.454   4.085
 9744SOL     OW30130   2.069   0.475   3.902
 9744SOL    HW130131   1.995   0.482   3.835
 9744SOL    HW230132   2.059   0.389   3.953
 9745SOL     OW30133   6.736   0.749   5.244
 9745SOL    HW130134   6.818   0.713   5.288
 9745SOL    HW230135   6.676   0.789   5.313
 9746SOL     OW30136   4.212   5.111   6.434
 9746SOL    HW130137   4.117   5.115   6.402
 9746SOL    HW230138   4.266   5.056   6.370
 9747SOL     OW30139   2.326   2.676   3.053
 9747SOL    HW130140   2.366   2.660   2.963
 9747SOL    HW230141   2.384   2.635   3.124
 9748SOL     OW30142   1.035   0.533   3.251
 9748SOL    HW130143   1.008   0.554   3.157
 9748SOL    HW230144   0.980   0.586   3.315
 9749SOL     OW30145   6.693   1.573   2.040
 9749SOL    HW130146   6.696   1.497   1.975
 9749SOL    HW230147   6.781   1.622   2.038
 9750SOL     OW30148   6.819   4.442   3.917
 9750SOL    HW130149   6.787   4.402   3.831
 9750SOL    HW230150   6.843   4.368   3.981
 9751SOL     OW30151   2.597   1.208   1.921
 9751SOL    HW130152   2.624   1.123   1.966
 9751SOL    HW230153   2.529   1.255   1.977
 9752SOL     OW30154   3.665   3.152   6.870
 9752SOL    HW130155   3.645   3.057   6.893
 9752SOL    HW230156   3.614   3.213   6.931
 9753SOL     OW30157   6.442   6.061   4.891
 9753SOL    HW130158   6.487   6.074   4.980
 9753SOL    HW230159   6.356   6.012   4.904
 9754SOL     OW30160   3.786   1.248   1.334
 9754SOL    HW130161   3.744   1.334   1.364
 9754SOL    HW230162   3.856   1.220   1.399
 9755SOL     OW30163   3.441   4.654   6.684
 9755SOL    HW130164   3.415   4.566   6.645
 9755SOL    HW230165   3.367   4.687   6.743
 9756SOL     OW30166   6.238   0.579   6.112
 9756SOL    HW130167   6.190   0.646   6.168
 9756SOL    HW230168   6.288   0.625   6.039
 9757SOL     OW30169   4.908   3.733   3.813
 9757SOL    HW130170   4.931   3.650   3.762
 9757SOL    HW230171   4.869   3.801   3.751
 9758SOL     OW30172   1.774   0.455   1.019
 9758SOL    HW130173   1.694   0.511   0.995
 9758SOL    HW230174   1.856   0.512   1.018
 9759SOL     OW30175   0.782   0.998   0.497
 9759SOL    HW130176   0.751   0.906   0.472
 9759SOL    HW230177   0.754   1.063   0.427
 9760SOL     OW30178   4.475   2.220   0.278
 9760SOL    HW130179   4.402   2.153   0.269
 9760SOL    HW230180   4.525   2.227   0.191
 9761SOL     OW30181   1.373   2.337   1.969
 9761SOL    HW130182   1.385   2.337   1.870
 9761SOL    HW230183   1.450   2.290   2.013
 9762SOL     OW30184   2.425   1.368   5.566
 9762SOL    HW130185   2.448   1.459   5.529
 9762SOL    HW230186   2.327   1.353   5.559
 9763SOL     OW30187   6.164   1.610   0.796
 9763SOL    HW130188   6.194   1.703   0.816
 9763SOL    HW230189   6.244   1.550   0.794
 9764SOL     OW30190   5.432   1.997   2.341
 9764SOL    HW130191   5.339   1.965   2.322
 9764SOL    HW230192   5.493   1.965   2.268
 9765SOL     OW30193   6.631   1.250   1.405
 9765SOL    HW130194   6.610   1.347   1.413
 9765SOL    HW230195   6.726   1.239   1.374
 9766SOL     OW30196   2.128   1.064   4.770
 9766SOL    HW130197   2.043   1.109   4.797
 9766SOL    HW230198   2.131   0.972   4.810
 9767SOL     OW30199   2.163   3.320   5.808
 9767SOL    HW130200   2.200   3.265   5.883
 9767SOL    HW230201   2.192   3.281   5.721
 9768SOL     OW30202   6.367   2.401   0.898
 9768SOL    HW130203   6.408   2.403   0.989
 9768SOL    HW230204   6.271   2.372   0.906
 9769SOL     OW30205   2.866   1.843   4.767
 9769SOL    HW130206   2.941   1.804   4.713
 9769SOL    HW230207   2.903   1.911   4.831
 9770SOL     OW30208   2.987   2.211   6.509
 9770SOL    HW130209   3.073   2.243   6.468
 9770SOL    HW230210   2.916   2.207   6.438
 9771SOL     OW30211   3.069   6.306   3.074
 9771SOL    HW130212   3.136   6.362   3.025
 9771SOL    HW230213   3.111   6.220   3.101
 9772SOL     OW30214   1.306   6.461   1.408
 9772SOL    HW130215   1.248   6.480   1.329
 9772SOL    HW230216   1.268   6.506   1.489
 9773SOL     OW30217   4.721   5.513   1.818
 9773SOL    HW130218   4.787   5.479   1.885
 9773SOL    HW230219   4.642   5.452   1.817
 9774SOL     OW30220   0.898   5.705   4.307
 9774SOL    HW130221   0.862   5.740   4.220
 9774SOL    HW230222   0.856   5.616   4.326
 9775SOL     OW30223   1.917   1.000   3.987
 9775SOL    HW130224   1.829   0.953   3.997
 9775SOL    HW230225   1.960   1.008   4.077
 9776SOL     OW30226   1.574   6.007   6.535
 9776SOL    HW130227   1.641   5.945   6.494
 9776SOL    HW230228   1.515   5.956   6.598
 9777SOL     OW30229   4.909   0.272   6.017
 9777SOL    HW130230   4.966   0.353   6.003
 9777SOL    HW230231   4.829   0.297   6.073
 9778SOL     OW30232   0.101   2.762   4.115
 9778SOL    HW130233   0.015   2.776   4.164
 9778SOL    HW230234   0.177   2.757   4.180
 9779SOL     OW30235   1.416   1.110   3.676
 9779SOL    HW130236   1.427   1.075   3.582
 9779SOL    HW230237   1.496   1.165   3.700
 9780SOL     OW30238   1.994   2.163   1.346
 9780SOL    HW130239   1.942   2.189   1.265
 9780SOL    HW230240   2.090   2.186   1.333
 9781SOL     OW30241   1.681   2.907   3.637
 9781SOL    HW130242   1.760   2.967   3.621
 9781SOL    HW230243   1.660   2.904   3.734
 9782SOL     OW30244   0.129   2.411   1.462
 9782SOL    HW130245   0.163   2.321   1.491
 9782SOL    HW230246   0.195   2.452   1.398
 9783SOL     OW30247   3.567   1.573   3.059
 9783SOL    HW130248   3.468   1.589   3.062
 9783SOL    HW230249   3.604   1.575   3.152
 9784SOL     OW30250   1.730   1.366   0.374
 9784SOL    HW130251   1.824   1.359   0.405
 9784SOL    HW230252   1.670   1.382   0.453
 9785SOL     OW30253   6.886   2.495   4.537
 9785SOL    HW130254   6.831   2.547   4.602
 9785SOL    HW230255   6.828   2.460   4.464
 9786SOL     OW30256   2.357   4.909   1.309
 9786SOL    HW130257   2.274   4.867   1.272
 9786SOL    HW230258   2.423   4.838   1.333
 9787SOL     OW30259   3.729   3.257   2.713
 9787SOL    HW130260   3.635   3.237   2.688
 9787SOL    HW230261   3.786   3.259   2.630
 9788SOL     OW30262   6.710   6.300   1.430
 9788SOL    HW130263   6.740   6.395   1.433
 9788SOL    HW230264   6.645   6.283   1.504
 9789SOL     OW30265   3.719   0.376   6.577
 9789SOL    HW130266   3.687   0.293   6.530
 9789SOL    HW230267   3.745   0.353   6.670
 9790SOL     OW30268   0.050   4.731   4.424
 9790SOL    HW130269   0.115   4.730   4.349
 9790SOL    HW230270   0.033   4.826   4.452
 9791SOL     OW30271   1.150   6.534   1.199
 9791SOL    HW130272   1.195   6.563   1.115
 9791SOL    HW230273   1.053   6.560   1.196
 9792SOL     OW30274   3.807   5.741   1.215
 9792SOL    HW130275   3.873   5.798   1.165
 9792SOL    HW230276   3.791   5.781   1.305
 9793SOL     OW30277   4.729   1.705   2.530
 9793SOL    HW130278   4.729   1.777   2.462
 9793SOL    HW230279   4.821   1.666   2.538
 9794SOL     OW30280   4.945   4.598   5.453
 9794SOL    HW130281   4.962   4.573   5.358
 9794SOL    HW230282   4.903   4.520   5.500
 9795SOL     OW30283   1.275   3.758   3.669
 9795SOL    HW130284   1.339   3.791   3.738
 9795SOL    HW230285   1.316   3.768   3.578
 9796SOL     OW30286   3.098   3.485   3.146
 9796SOL    HW130287   3.089   3.498   3.245
 9796SOL    HW230288   3.135   3.569   3.105
 9797SOL     OW30289   3.089   6.944   6.326
 9797SOL    HW130290   3.034   6.867   6.293
 9797SOL    HW230291   3.184   6.916   6.333
 9798SOL     OW30292   1.454   3.119   0.243
 9798SOL    HW130293   1.408   3.075   0.165
 9798SOL    HW230294   1.386   3.139   0.314
 9799SOL     OW30295   2.690   0.005   6.090
 9799SOL    HW130296   2.776   0.007   6.040
 9799SOL    HW230297   2.680   6.944   6.136
 9800SOL     OW30298   6.383   3.523   4.795
 9800SOL    HW130299   6.285   3.536   4.805
 9800SOL    HW230300   6.424   3.608   4.762
 9801SOL     OW30301   6.455   5.793   6.861
 9801SOL    HW130302   6.416   5.745   6.939
 9801SOL    HW230303   6.432   5.890   6.867
 9802SOL     OW30304   4.644   4.924   1.002
 9802SOL    HW130305   4.677   5.011   0.964
 9802SOL    HW230306   4.719   4.859   1.005
 9803SOL     OW30307   0.666   3.826   6.471
 9803SOL    HW130308   0.575   3.858   6.496
 9803SOL    HW230309   0.733   3.861   6.536
 9804SOL     OW30310   6.658   5.471   2.256
 9804SOL    HW130311   6.702   5.529   2.325
 9804SOL    HW230312   6.663   5.517   2.167
 9805SOL     OW30313   0.644   6.610   4.137
 9805SOL    HW130314   0.705   6.530   4.133
 9805SOL    HW230315   0.558   6.584   4.181
 9806SOL     OW30316   2.906   2.492   5.842
 9806SOL    HW130317   2.839   2.487   5.916
 9806SOL    HW230318   2.907   2.585   5.804
 9807SOL     OW30319   2.931   3.764   1.798
 9807SOL    HW130320   2.834   3.776   1.777
 9807SOL    HW230321   2.977   3.853   1.793
 9808SOL     OW30322   4.697   6.777   3.595
 9808SOL    HW130323   4.663   6.843   3.528
 9808SOL    HW230324   4.671   6.807   3.687
 9809SOL     OW30325   0.195   2.733   0.514
 9809SOL    HW130326   0.120   2.784   0.558
 9809SOL    HW230327   0.230   2.665   0.578
 9810SOL     OW30328   1.732   1.727   6.591
 9810SOL    HW130329   1.738   1.665   6.513
 9810SOL    HW230330   1.821   1.732   6.636
 9811SOL     OW30331   6.269   4.141   3.978
 9811SOL    HW130332   6.329   4.131   4.058
 9811SOL    HW230333   6.175   4.154   4.010
 9812SOL     OW30334   2.547   6.210   4.877
 9812SOL    HW130335   2.568   6.188   4.972
 9812SOL    HW230336   2.558   6.129   4.820
 9813SOL     OW30337   4.819   2.113   1.112
 9813SOL    HW130338   4.784   2.192   1.061
 9813SOL    HW230339   4.745   2.072   1.165
 9814SOL     OW30340   5.857   1.308   0.330
 9814SOL    HW130341   5.947   1.336   0.297
 9814SOL    HW230342   5.798   1.287   0.253
 9815SOL     OW30343   4.141   2.296   4.729
 9815SOL    HW130344   4.174   2.387   4.705
 9815SOL    HW230345   4.192   2.227   4.676
 9816SOL     OW30346   1.338   0.473   0.814
 9816SOL    HW130347   1.416   0.413   0.795
 9816SOL    HW230348   1.253   0.422   0.800
 9817SOL     OW30349   0.311   6.846   3.673
 9817SOL    HW130350   0.359   6.766   3.709
 9817SOL    HW230351   0.302   6.915   3.745
 9818SOL     OW30352   6.169   2.484   4.732
 9818SOL    HW130353   6.185   2.580   4.753
 9818SOL    HW230354   6.256   2.438   4.716
 9819SOL     OW30355   3.593   1.724   3.618
 9819SOL    HW130356   3.582   1.816   3.655
 9819SOL    HW230357   3.688   1.694   3.630
 9820SOL     OW30358   3.932   4.096   6.198
 9820SOL    HW130359   3.883   4.098   6.285
 9820SOL    HW230360   4.020   4.142   6.208
 9821SOL     OW30361   5.260   5.708   6.540
 9821SOL    HW130362   5.221   5.664   6.459
 9821SOL    HW230363   5.301   5.795   6.514
 9822SOL     OW30364   0.498   6.906   2.809
 9822SOL    HW130365   0.521   6.997   2.775
 9822SOL    HW230366   0.549   6.837   2.757
 9823SOL     OW30367   3.640   0.973   1.978
 9823SOL    HW130368   3.559   1.007   1.932
 9823SOL    HW230369   3.633   0.873   1.988
 9824SOL     OW30370   1.261   4.331   5.103
 9824SOL    HW130371   1.355   4.357   5.082
 9824SOL    HW230372   1.201   4.409   5.087
 9825SOL     OW30373   3.724   4.973   5.459
 9825SOL    HW130374   3.640   4.919   5.460
 9825SOL    HW230375   3.783   4.940   5.386
 9826SOL     OW30376   4.535   6.658   6.020
 9826SOL    HW130377   4.483   6.697   5.944
 9826SOL    HW230378   4.472   6.627   6.091
 9827SOL     OW30379   1.853   4.252   5.024
 9827SOL    HW130380   1.825   4.307   4.945
 9827SOL    HW230381   1.928   4.299   5.071
 9828SOL     OW30382   4.030   2.297   0.187
 9828SOL    HW130383   4.123   2.316   0.219
 9828SOL    HW230384   4.035   2.239   0.105
 9829SOL     OW30385   3.112   6.375   0.297
 9829SOL    HW130386   3.109   6.453   0.360
 9829SOL    HW230387   3.022   6.362   0.256
 9830SOL     OW30388   5.538   1.412   0.971
 9830SOL    HW130389   5.456   1.401   0.916
 9830SOL    HW230390   5.608   1.347   0.941
 9831SOL     OW30391   1.268   6.175   1.429
 9831SOL    HW130392   1.266   6.275   1.428
 9831SOL    HW230393   1.278   6.142   1.335
 9832SOL     OW30394   4.515   5.342   1.868
 9832SOL    HW130395   4.533   5.357   1.965
 9832SOL    HW230396   4.425   5.300   1.857
 9833SOL     OW30397   3.708   3.778   5.083
 9833SOL    HW130398   3.718   3.821   5.172
 9833SOL    HW230399   3.671   3.845   5.018
 9834SOL     OW30400   2.053   4.213   5.451
 9834SOL    HW130401   2.045   4.285   5.383
 9834SOL    HW230402   2.124   4.148   5.423
 9835SOL     OW30403   5.146   1.954   4.523
 9835SOL    HW130404   5.243   1.960   4.547
 9835SOL    HW230405   5.135   1.977   4.426
 9836SOL     OW30406   5.518   3.528   3.166
 9836SOL    HW130407   5.607   3.494   3.197
 9836SOL    HW230408   5.467   3.563   3.245
 9837SOL     OW30409   2.407   0.210   4.048
 9837SOL    HW130410   2.422   0.257   4.134
 9837SOL    HW230411   2.424   0.273   3.972
 9838SOL     OW30412   0.943   6.350   5.846
 9838SOL    HW130413   0.956   6.448   5.836
 9838SOL    HW230414   0.896   6.314   5.765
 9839SOL     OW30415   6.679   1.691   1.784
 9839SOL    HW130416   6.603   1.755   1.796
 9839SOL    HW230417   6.707   1.654   1.872
 9840SOL     OW30418   6.962   0.720   1.149
 9840SOL    HW130419   0.021   0.769   1.138
 9840SOL    HW230420   6.891   0.763   1.093
 9841SOL     OW30421   1.432   3.990   4.955
 9841SOL    HW130422   1.499   3.916   4.949
 9841SOL    HW230423   1.443   4.037   5.043
 9842SOL     OW30424   3.587   3.154   3.027
 9842SOL    HW130425   3.541   3.239   3.005
 9842SOL    HW230426   3.622   3.158   3.121
 9843SOL     OW30427   6.392   1.709   1.053
 9843SOL    HW130428   6.428   1.740   0.966
 9843SOL    HW230429   6.339   1.782   1.096
 9844SOL     OW30430   4.395   6.725   2.620
 9844SOL    HW130431   4.314   6.781   2.637
 9844SOL    HW230432   4.367   6.638   2.580
 9845SOL     OW30433   2.689   1.769   4.612
 9845SOL    HW130434   2.757   1.791   4.682
 9845SOL    HW230435   2.736   1.746   4.527
 9846SOL     OW30436   2.991   3.800   3.098
 9846SOL    HW130437   2.918   3.782   3.032
 9846SOL    HW230438   2.968   3.758   3.186
 9847SOL     OW30439   2.624   2.859   6.414
 9847SOL    HW130440   2.584   2.772   6.445
 9847SOL    HW230441   2.692   2.890   6.480
 9848SOL     OW30442   4.440   2.675   6.372
 9848SOL    HW130443   4.374   2.612   6.332
 9848SOL    HW230444   4.465   2.642   6.464
 9849SOL     OW30445   6.261   0.551   6.924
 9849SOL    HW130446   6.275   0.639   6.969
 9849SOL    HW230447   6.214   0.565   6.836
 9850SOL     OW30448   4.236   6.268   2.813
 9850SOL    HW130449   4.256   6.199   2.743
 9850SOL    HW230450   4.177   6.229   2.883
 9851SOL     OW30451   4.555   2.017   5.273
 9851SOL    HW130452   4.585   1.922   5.269
 9851SOL    HW230453   4.634   2.077   5.277
 9852SOL     OW30454   4.637   1.978   3.798
 9852SOL    HW130455   4.602   1.924   3.721
 9852SOL    HW230456   4.676   2.063   3.764
 9853SOL     OW30457   5.213   4.156   2.251
 9853SOL    HW130458   5.171   4.227   2.194
 9853SOL    HW230459   5.155   4.074   2.250
 9854SOL     OW30460   5.740   5.560   4.793
 9854SOL    HW130461   5.738   5.611   4.879
 9854SOL    HW230462   5.811   5.489   4.798
 9855SOL     OW30463   0.893   4.593   1.436
 9855SOL    HW130464   0.936   4.528   1.373
 9855SOL    HW230465   0.956   4.668   1.455
 9856SOL     OW30466   3.979   4.264   0.930
 9856SOL    HW130467   3.908   4.300   0.869
 9856SOL    HW230468   4.004   4.172   0.901
 9857SOL     OW30469   5.429   1.848   2.750
 9857SOL    HW130470   5.442   1.814   2.844
 9857SOL    HW230471   5.393   1.941   2.754
 9858SOL     OW30472   4.976   0.593   1.665
 9858SOL    HW130473   4.889   0.614   1.620
 9858SOL    HW230474   4.986   0.648   1.748
 9859SOL     OW30475   5.915   0.373   1.383
 9859SOL    HW130476   5.902   0.274   1.381
 9859SOL    HW230477   5.856   0.416   1.316
 9860SOL     OW30478   0.195   0.897   1.387
 9860SOL    HW130479   0.168   0.843   1.466
 9860SOL    HW230480   0.132   0.974   1.376
 9861SOL     OW30481   3.361   6.069   4.816
 9861SOL    HW130482   3.309   6.154   4.817
 9861SOL    HW230483   3.328   6.009   4.889
 9862SOL     OW30484   2.592   3.589   0.888
 9862SOL    HW130485   2.619   3.603   0.793
 9862SOL    HW230486   2.509   3.642   0.907
 9863SOL     OW30487   3.105   0.095   2.861
 9863SOL    HW130488   3.201   0.097   2.892
 9863SOL    HW230489   3.069   0.003   2.873
 9864SOL     OW30490   4.500   5.732   3.885
 9864SOL    HW130491   4.431   5.778   3.829
 9864SOL    HW230492   4.575   5.701   3.826
 9865SOL     OW30493   0.536   0.403   3.576
 9865SOL    HW130494   0.550   0.350   3.492
 9865SOL    HW230495   0.477   0.482   3.556
 9866SOL     OW30496   4.792   4.111   4.550
 9866SOL    HW130497   4.816   4.060   4.633
 9866SOL    HW230498   4.782   4.047   4.474
 9867SOL     OW30499   4.113   1.074   0.247
 9867SOL    HW130500   4.104   1.110   0.154
 9867SOL    HW230501   4.031   1.020   0.270
 9868SOL     OW30502   0.892   4.488   7.016
 9868SOL    HW130503   0.856   4.427   6.945
 9868SOL    HW230504   0.846   4.576   7.010
 9869SOL     OW30505   1.685   3.932   3.767
 9869SOL    HW130506   1.785   3.923   3.760
 9869SOL    HW230507   1.642   3.872   3.701
 9870SOL     OW30508   4.860   6.208   2.473
 9870SOL    HW130509   4.909   6.269   2.535
 9870SOL    HW230510   4.862   6.247   2.380
 9871SOL     OW30511   1.651   0.272   6.015
 9871SOL    HW130512   1.679   0.177   6.005
 9871SOL    HW230513   1.731   0.331   6.011
 9872SOL     OW30514   2.638   4.987   3.065
 9872SOL    HW130515   2.686   4.941   2.991
 9872SOL    HW230516   2.638   4.929   3.146
 9873SOL     OW30517   2.194   3.081   0.730
 9873SOL    HW130518   2.220   3.157   0.789
 9873SOL    HW230519   2.150   3.115   0.647
 9874SOL     OW30520   0.765   2.134   3.998
 9874SOL    HW130521   0.823   2.098   3.925
 9874SOL    HW230522   0.690   2.071   4.015
 9875SOL     OW30523   0.621   0.756   1.899
 9875SOL    HW130524   0.680   0.692   1.948
 9875SOL    HW230525   0.598   0.833   1.958
 9876SOL     OW30526   6.717   1.129   2.325
 9876SOL    HW130527   6.787   1.073   2.370
 9876SOL    HW230528   6.644   1.070   2.291
 9877SOL     OW30529   2.517   6.456   2.927
 9877SOL    HW130530   2.463   6.509   2.861
 9877SOL    HW230531   2.615   6.473   2.911
 9878SOL     OW30532   2.007   5.796   6.189
 9878SOL    HW130533   1.985   5.699   6.198
 9878SOL    HW230534   2.043   5.814   6.098
 9879SOL     OW30535   5.242   5.484   4.472
 9879SOL    HW130536   5.285   5.401   4.437
 9879SOL    HW230537   5.300   5.526   4.541
 9880SOL     OW30538   1.630   3.071   5.219
 9880SOL    HW130539   1.706   3.081   5.155
 9880SOL    HW230540   1.626   3.151   5.279
 9881SOL     OW30541   1.463   2.549   4.896
 9881SOL    HW130542   1.436   2.608   4.821
 9881SOL    HW230543   1.546   2.586   4.939
 9882SOL     OW30544   0.963   2.003   3.835
 9882SOL    HW130545   1.026   1.993   3.758
 9882SOL    HW230546   0.919   1.915   3.853
 9883SOL     OW30547   0.848   6.575   1.147
 9883SOL    HW130548   0.807   6.490   1.113
 9883SOL    HW230549   0.776   6.639   1.174
 9884SOL     OW30550   4.170   1.661   3.491
 9884SOL    HW130551   4.122   1.738   3.533
 9884SOL    HW230552   4.148   1.656   3.394
 9885SOL     OW30553   6.790   4.231   5.391
 9885SOL    HW130554   6.811   4.301   5.459
 9885SOL    HW230555   6.696   4.199   5.405
 9886SOL     OW30556   0.713   4.983   2.699
 9886SOL    HW130557   0.673   4.892   2.697
 9886SOL    HW230558   0.644   5.049   2.729
 9887SOL     OW30559   3.958   1.431   6.683
 9887SOL    HW130560   3.994   1.484   6.759
 9887SOL    HW230561   3.863   1.457   6.666
 9888SOL     OW30562   0.095   4.141   0.997
 9888SOL    HW130563   0.001   4.166   1.023
 9888SOL    HW230564   0.159   4.175   1.066
 9889SOL     OW30565   6.630   5.011   0.756
 9889SOL    HW130566   6.567   4.980   0.684
 9889SOL    HW230567   6.724   4.989   0.729
 9890SOL     OW30568   1.779   2.055   0.413
 9890SOL    HW130569   1.853   2.015   0.359
 9890SOL    HW230570   1.707   2.088   0.351
 9891SOL     OW30571   6.145   2.612   0.415
 9891SOL    HW130572   6.046   2.609   0.401
 9891SOL    HW230573   6.176   2.524   0.450
 9892SOL     OW30574   6.611   5.697   0.093
 9892SOL    HW130575   6.661   5.616   0.123
 9892SOL    HW230576   6.524   5.670   0.052
 9893SOL     OW30577   1.530   0.293   0.777
 9893SOL    HW130578   1.541   0.272   0.874
 9893SOL    HW230579   1.605   0.251   0.725
 9894SOL     OW30580   2.325   2.329   1.611
 9894SOL    HW130581   2.315   2.307   1.514
 9894SOL    HW230582   2.406   2.385   1.625
 9895SOL     OW30583   5.715   3.514   5.146
 9895SOL    HW130584   5.688   3.599   5.191
 9895SOL    HW230585   5.814   3.501   5.155
 9896SOL     OW30586   6.280   6.805   6.733
 9896SOL    HW130587   6.336   6.770   6.657
 9896SOL    HW230588   6.223   6.731   6.768
 9897SOL     OW30589   5.523   5.572   3.112
 9897SOL    HW130590   5.573   5.577   3.198
 9897SOL    HW230591   5.579   5.611   3.039
 9898SOL     OW30592   2.405   6.067   6.355
 9898SOL    HW130593   2.355   6.144   6.316
 9898SOL    HW230594   2.361   6.036   6.439
 9899SOL     OW30595   6.904   5.638   0.594
 9899SOL    HW130596   6.932   5.724   0.551
 9899SOL    HW230597   6.865   5.657   0.685
 9900SOL     OW30598   1.450   3.710   3.437
 9900SOL    HW130599   1.481   3.777   3.369
 9900SOL    HW230600   1.516   3.704   3.512
 9901SOL     OW30601   2.764   2.029   5.883
 9901SOL    HW130602   2.755   1.938   5.843
 9901SOL    HW230603   2.707   2.093   5.832
 9902SOL     OW30604   2.661   5.039   6.986
 9902SOL    HW130605   2.601   5.118   6.995
 9902SOL    HW230606   2.681   5.023   6.889
 9903SOL     OW30607   4.987   1.184   2.369
 9903SOL    HW130608   4.951   1.253   2.306
 9903SOL    HW230609   5.086   1.193   2.377
 9904SOL     OW30610   1.381   3.106   6.818
 9904SOL    HW130611   1.453   3.137   6.881
 9904SOL    HW230612   1.424   3.067   6.736
 9905SOL     OW30613   3.573   0.810   6.937
 9905SOL    HW130614   3.594   0.850   6.848
 9905SOL    HW230615   3.658   0.793   6.986
 9906SOL     OW30616   3.597   2.810   2.060
 9906SOL    HW130617   3.529   2.740   2.081
 9906SOL    HW230618   3.554   2.882   2.005
 9907SOL     OW30619   6.693   1.142   0.826
 9907SOL    HW130620   6.608   1.187   0.798
 9907SOL    HW230621   6.671   1.055   0.870
 9908SOL     OW30622   5.562   1.832   3.424
 9908SOL    HW130623   5.535   1.796   3.334
 9908SOL    HW230624   5.482   1.834   3.484
 9909SOL     OW30625   3.959   0.259   3.947
 9909SOL    HW130626   4.028   0.202   3.991
 9909SOL    HW230627   3.870   0.243   3.989
 9910SOL     OW30628   0.784   3.631   2.181
 9910SOL    HW130629   0.726   3.557   2.147
 9910SOL    HW230630   0.727   3.704   2.217
 9911SOL     OW30631   3.455   6.848   2.242
 9911SOL    HW130632   3.507   6.882   2.320
 9911SOL    HW230633   3.519   6.817   2.171
 9912SOL     OW30634   3.830   1.593   1.346
 9912SOL    HW130635   3.759   1.558   1.406
 9912SOL    HW230636   3.916   1.545   1.364
 9913SOL     OW30637   6.059   4.116   0.472
 9913SOL    HW130638   5.988   4.151   0.534
 9913SOL    HW230639   6.084   4.187   0.406
 9914SOL     OW30640   6.623   3.361   4.676
 9914SOL    HW130641   6.704   3.403   4.715
 9914SOL    HW230642   6.541   3.402   4.716
 9915SOL     OW30643   4.358   0.538   3.174
 9915SOL    HW130644   4.375   0.523   3.271
 9915SOL    HW230645   4.395   0.462   3.121
 9916SOL     OW30646   2.203   2.973   3.513
 9916SOL    HW130647   2.123   2.916   3.532
 9916SOL    HW230648   2.286   2.919   3.525
 9917SOL     OW30649   5.867   3.210   6.918
 9917SOL    HW130650   5.793   3.274   6.938
 9917SOL    HW230651   5.955   3.255   6.930
 9918SOL     OW30652   3.342   1.400   2.824
 9918SOL    HW130653   3.261   1.374   2.771
 9918SOL    HW230654   3.313   1.446   2.908
 9919SOL     OW30655   5.430   5.462   1.455
 9919SOL    HW130656   5.514   5.493   1.499
 9919SOL    HW230657   5.399   5.531   1.390
 9920SOL     OW30658   4.654   1.627   1.820
 9920SOL    HW130659   4.725   1.669   1.764
 9920SOL    HW230660   4.578   1.691   1.832
 9921SOL     OW30661   4.364   5.737   5.901
 9921SOL    HW130662   4.317   5.766   5.984
 9921SOL    HW230663   4.368   5.813   5.836
 9922SOL     OW30664   1.488   4.689   0.458
 9922SOL    HW130665   1.529   4.666   0.370
 9922SOL    HW230666   1.445   4.779   0.452
 9923SOL     OW30667   5.080   4.692   6.515
 9923SOL    HW130668   5.119   4.738   6.436
 9923SOL    HW230669   5.065   4.595   6.494
 9924SOL     OW30670   0.016   2.190   4.772
 9924SOL    HW130671   0.034   2.193   4.673
 9924SOL    HW230672   0.035   2.280   4.812
 9925SOL     OW30673   6.660   4.180   4.430
 9925SOL    HW130674   6.755   4.211   4.423
 9925SOL    HW230675   6.601   4.241   4.376
 9926SOL     OW30676   2.549   3.447   0.513
 9926SOL    HW130677   2.562   3.436   0.414
 9926SOL    HW230678   2.626   3.499   0.551
 9927SOL     OW30679   6.380   0.057   1.750
 9927SOL    HW130680   6.307   0.044   1.817
 9927SOL    HW230681   6.436   0.136   1.777
 9928SOL     OW30682   4.759   5.757   1.659
 9928SOL    HW130683   4.671   5.774   1.615
 9928SOL    HW230684   4.763   5.662   1.691
 9929SOL     OW30685   1.817   5.342   5.807
 9929SOL    HW130686   1.911   5.373   5.792
 9929SOL    HW230687   1.791   5.360   5.902
 9930SOL     OW30688   6.199   0.454   4.839
 9930SOL    HW130689   6.184   0.499   4.927
 9930SOL    HW230690   6.271   0.386   4.848
 9931SOL     OW30691   0.892   4.391   4.935
 9931SOL    HW130692   0.903   4.412   4.838
 9931SOL    HW230693   0.968   4.431   4.987
 9932SOL     OW30694   2.039   5.476   0.024
 9932SOL    HW130695   1.997   5.386   0.021
 9932SOL    HW230696   2.013   5.522   0.109
 9933SOL     OW30697   1.412   4.919   3.017
 9933SOL    HW130698   1.488   4.861   3.045
 9933SOL    HW230699   1.375   4.965   3.098
 9934SOL     OW30700   6.151   1.553   5.478
 9934SOL    HW130701   6.064   1.579   5.436
 9934SOL    HW230702   6.156   1.591   5.571
 9935SOL     OW30703   3.193   0.325   0.436
 9935SOL    HW130704   3.099   0.309   0.405
 9935SOL    HW230705   3.218   0.420   0.416
 9936SOL     OW30706   6.574   5.024   5.243
 9936SOL    HW130707   6.645   5.059   5.304
 9936SOL    HW230708   6.549   4.931   5.270
 9937SOL     OW30709   6.706   2.436   5.815
 9937SOL    HW130710   6.720   2.438   5.914
 9937SOL    HW230711   6.760   2.362   5.776
 9938SOL     OW30712   6.527   5.647   3.402
 9938SOL    HW130713   6.554   5.637   3.307
 9938SOL    HW230714   6.465   5.573   3.428
 9939SOL     OW30715   3.366   2.368   0.786
 9939SOL    HW130716   3.369   2.341   0.690
 9939SOL    HW230717   3.419   2.302   0.840
 9940SOL     OW30718   0.572   0.553   1.040
 9940SOL    HW130719   0.607   0.573   1.132
 9940SOL    HW230720   0.597   0.459   1.015
 9941SOL     OW30721   3.221   3.796   5.163
 9941SOL    HW130722   3.128   3.825   5.141
 9941SOL    HW230723   3.286   3.837   5.099
 9942SOL     OW30724   2.029   5.364   2.494
 9942SOL    HW130725   2.051   5.336   2.588
 9942SOL    HW230726   1.930   5.360   2.480
 9943SOL     OW30727   0.125   5.764   5.280
 9943SOL    HW130728   0.111   5.741   5.377
 9943SOL    HW230729   0.104   5.685   5.224
 9944SOL     OW30730   2.191   4.364   6.587
 9944SOL    HW130731   2.232   4.442   6.634
 9944SOL    HW230732   2.259   4.320   6.529
 9945SOL     OW30733   6.400   5.372   7.013
 9945SOL    HW130734   6.346   5.332   0.060
 9945SOL    HW230735   6.464   5.303   6.979
 9946SOL     OW30736   5.101   1.293   4.532
 9946SOL    HW130737   5.064   1.384   4.515
 9946SOL    HW230738   5.118   1.281   4.630
 9947SOL     OW30739   0.813   3.672   6.049
 9947SOL    HW130740   0.784   3.634   5.961
 9947SOL    HW230741   0.880   3.744   6.034
 9948SOL     OW30742   4.823   4.552   3.828
 9948SOL    HW130743   4.733   4.515   3.853
 9948SOL    HW230744   4.891   4.520   3.893
 9949SOL     OW30745   5.047   5.237   3.086
 9949SOL    HW130746   5.138   5.280   3.087
 9949SOL    HW230747   4.985   5.290   3.144
 9950SOL     OW30748   5.951   6.122   5.435
 9950SOL    HW130749   5.853   6.130   5.415
 9950SOL    HW230750   5.963   6.099   5.532
 9951SOL     OW30751   6.405   1.827   3.843
 9951SOL    HW130752   6.479   1.887   3.874
 9951SOL    HW230753   6.393   1.752   3.909
 9952SOL     OW30754   6.593   3.905   0.431
 9952SOL    HW130755   6.565   3.999   0.448
 9952SOL    HW230756   6.693   3.899   0.437
 9953SOL     OW30757   6.340   2.710   4.077
 9953SOL    HW130758   6.249   2.677   4.050
 9953SOL    HW230759   6.409   2.670   4.016
 9954SOL     OW30760   5.897   6.721   5.857
 9954SOL    HW130761   5.852   6.633   5.848
 9954SOL    HW230762   5.856   6.772   5.932
 9955SOL     OW30763   6.600   3.931   4.530
 9955SOL    HW130764   6.567   3.862   4.466
 9955SOL    HW230765   6.626   4.014   4.480
 9956SOL     OW30766   2.307   6.884   1.637
 9956SOL    HW130767   2.237   6.935   1.588
 9956SOL    HW230768   2.277   6.870   1.732
 9957SOL     OW30769   5.550   5.510   2.666
 9957SOL    HW130770   5.558   5.558   2.578
 9957SOL    HW230771   5.511   5.419   2.651
 9958SOL     OW30772   2.946   5.265   0.306
 9958SOL    HW130773   2.987   5.281   0.396
 9958SOL    HW230774   2.846   5.262   0.316
 9959SOL     OW30775   4.187   3.874   5.887
 9959SOL    HW130776   4.206   3.956   5.833
 9959SOL    HW230777   4.257   3.863   5.958
 9960SOL     OW30778   7.026   0.320   2.101
 9960SOL    HW130779   6.939   0.297   2.145
 9960SOL    HW230780   7.008   0.375   2.019
 9961SOL     OW30781   1.880   6.440   4.580
 9961SOL    HW130782   1.857   6.354   4.626
 9961SOL    HW230783   1.850   6.517   4.636
 9962SOL     OW30784   6.491   6.747   3.354
 9962SOL    HW130785   6.399   6.758   3.317
 9962SOL    HW230786   6.488   6.756   3.454
 9963SOL     OW30787   3.072   2.979   6.931
 9963SOL    HW130788   3.150   2.940   6.978
 9963SOL    HW230789   3.103   3.026   6.848
 9964SOL     OW30790   4.476   5.450   4.416
 9964SOL    HW130791   4.449   5.533   4.465
 9964SOL    HW230792   4.406   5.427   4.348
 9965SOL     OW30793   4.204   6.502   6.506
 9965SOL    HW130794   4.286   6.444   6.512
 9965SOL    HW230795   4.165   6.513   6.597
 9966SOL     OW30796   1.347   5.024   1.842
 9966SOL    HW130797   1.411   4.961   1.796
 9966SOL    HW230798   1.290   5.069   1.773
 9967SOL     OW30799   0.288   5.499   2.355
 9967SOL    HW130800   0.370   5.546   2.388
 9967SOL    HW230801   0.286   5.406   2.391
 9968SOL     OW30802   3.588   3.948   1.838
 9968SOL    HW130803   3.599   4.046   1.857
 9968SOL    HW230804   3.614   3.895   1.918
 9969SOL     OW30805   1.800   4.127   2.731
 9969SOL    HW130806   1.864   4.138   2.807
 9969SOL    HW230807   1.707   4.146   2.763
 9970SOL     OW30808   5.389   4.057   1.673
 9970SOL    HW130809   5.451   4.124   1.633
 9970SOL    HW230810   5.299   4.065   1.629
 9971SOL     OW30811   1.700   4.917   1.118
 9971SOL    HW130812   1.643   4.959   1.188
 9971SOL    HW230813   1.664   4.940   1.027
 9972SOL     OW30814   6.318   4.216   1.760
 9972SOL    HW130815   6.327   4.212   1.859
 9972SOL    HW230816   6.343   4.308   1.728
 9973SOL     OW30817   5.708   2.017   3.591
 9973SOL    HW130818   5.725   2.003   3.688
 9973SOL    HW230819   5.614   1.989   3.569
 9974SOL     OW30820   1.061   2.025   2.770
 9974SOL    HW130821   1.152   1.986   2.788
 9974SOL    HW230822   1.040   2.095   2.838
 9975SOL     OW30823   6.390   3.199   0.617
 9975SOL    HW130824   6.456   3.228   0.686
 9975SOL    HW230825   6.308   3.163   0.661
 9976SOL     OW30826   1.547   5.926   5.268
 9976SOL    HW130827   1.455   5.906   5.299
 9976SOL    HW230828   1.544   5.988   5.190
 9977SOL     OW30829   5.592   5.214   5.557
 9977SOL    HW130830   5.576   5.142   5.624
 9977SOL    HW230831   5.591   5.174   5.465
 9978SOL     OW30832   0.928   2.762   5.200
 9978SOL    HW130833   0.855   2.823   5.171
 9978SOL    HW230834   0.975   2.724   5.120
 9979SOL     OW30835   5.948   4.714   5.364
 9979SOL    HW130836   5.889   4.707   5.283
 9979SOL    HW230837   5.893   4.706   5.446
 9980SOL     OW30838   2.722   0.046   6.729
 9980SOL    HW130839   2.818   0.039   6.702
 9980SOL    HW230840   2.716   0.074   6.825
 9981SOL     OW30841   2.648   1.649   3.017
 9981SOL    HW130842   2.685   1.628   2.926
 9981SOL    HW230843   2.721   1.645   3.085
 9982SOL     OW30844   6.626   5.620   3.159
 9982SOL    HW130845   6.701   5.555   3.145
 9982SOL    HW230846   6.577   5.632   3.073
 9983SOL     OW30847   7.017   1.586   2.823
 9983SOL    HW130848   0.025   1.664   2.772
 9983SOL    HW230849   6.923   1.567   2.794
 9984SOL     OW30850   2.434   2.207   6.869
 9984SOL    HW130851   2.423   2.306   6.881
 9984SOL    HW230852   2.345   2.165   6.850
 9985SOL     OW30853   2.195   0.529   1.773
 9985SOL    HW130854   2.233   0.523   1.865
 9985SOL    HW230855   2.229   0.452   1.718
 9986SOL     OW30856   5.785   4.276   5.673
 9986SOL    HW130857   5.795   4.187   5.718
 9986SOL    HW230858   5.853   4.285   5.601
 9987SOL     OW30859   5.831   3.247   6.167
 9987SOL    HW130860   5.831   3.327   6.227
 9987SOL    HW230861   5.826   3.164   6.223
 9988SOL     OW30862   6.754   0.073   4.735
 9988SOL    HW130863   6.674   0.032   4.779
 9988SOL    HW230864   6.802   0.004   4.682
 9989SOL     OW30865   6.873   3.385   4.202
 9989SOL    HW130866   6.794   3.436   4.167
 9989SOL    HW230867   6.937   3.367   4.127
 9990SOL     OW30868   1.806   5.223   3.630
 9990SOL    HW130869   1.777   5.297   3.691
 9990SOL    HW230870   1.844   5.148   3.685
 9991SOL     OW30871   3.083   2.195   4.764
 9991SOL    HW130872   3.120   2.234   4.848
 9991SOL    HW230873   3.159   2.165   4.705
 9992SOL     OW30874   5.993   4.894   6.473
 9992SOL    HW130875   5.943   4.845   6.402
 9992SOL    HW230876   5.929   4.949   6.526
 9993SOL     OW30877   2.437   1.384   1.399
 9993SOL    HW130878   2.403   1.476   1.382
 9993SOL    HW230879   2.532   1.388   1.430
 9994SOL     OW30880   6.120   4.690   3.141
 9994SOL    HW130881   6.190   4.753   3.175
 9994SOL    HW230882   6.131   4.679   3.042
 9995SOL     OW30883   4.930   1.574   3.877
 9995SOL    HW130884   4.918   1.620   3.789
 9995SOL    HW230885   4.926   1.475   3.863
 9996SOL     OW30886   2.584   4.173   0.145
 9996SOL    HW130887   2.587   4.222   0.232
 9996SOL    HW230888   2.638   4.223   0.077
 9997SOL     OW30889   3.008   1.669   5.784
 9997SOL    HW130890   2.925   1.686   5.730
 9997SOL    HW230891   3.056   1.755   5.800
 9998SOL     OW30892   6.218   5.508   5.319
 9998SOL    HW130893   6.302   5.560   5.307
 9998SOL    HW230894   6.238   5.410   5.316
 9999SOL     OW30895   6.069   2.434   5.780
 9999SOL    HW130896   5.991   2.407   5.837
 9999SOL    HW230897   6.061   2.531   5.757
10000SOL     OW30898   0.057   2.600   0.105
10000SOL    HW130899   0.007   2.685   0.123
10000SOL    HW230900   0.144   2.601   0.156
10001SOL     OW30901   4.753   1.110   1.886
10001SOL    HW130902   4.702   1.194   1.903
10001SOL    HW230903   4.743   1.084   1.790
10002SOL     OW30904   1.402   6.083   2.099
10002SOL    HW130905   1.468   6.149   2.136
10002SOL    HW230906   1.443   5.992   2.099
10003SOL     OW30907   3.346   2.009   3.491
10003SOL    HW130908   3.369   2.061   3.574
10003SOL    HW230909   3.428   1.963   3.457
10004SOL     OW30910   6.933   2.202   3.281
10004SOL    HW130911   7.027   2.205   3.315
10004SOL    HW230912   6.870   2.201   3.359
10005SOL     OW30913   5.323   0.486   2.767
10005SOL    HW130914   5.327   0.532   2.855
10005SOL    HW230915   5.228   0.464   2.745
10006SOL     OW30916   3.775   0.094   4.310
10006SOL    HW130917   3.721   0.046   4.378
10006SOL    HW230918   3.872   0.086   4.331
10007SOL     OW30919   0.758   3.649   5.354
10007SOL    HW130920   0.699   3.571   5.372
10007SOL    HW230921   0.702   3.731   5.336
10008SOL     OW30922   3.808   0.370   4.397
10008SOL    HW130923   3.849   0.410   4.315
10008SOL    HW230924   3.827   0.272   4.400
10009SOL     OW30925   2.068   4.101   2.035
10009SOL    HW130926   1.988   4.043   2.021
10009SOL    HW230927   2.149   4.054   2.002
10010SOL     OW30928   2.030   0.914   0.265
10010SOL    HW130929   1.970   0.901   0.186
10010SOL    HW230930   1.985   0.973   0.332
10011SOL     OW30931   6.891   0.241   4.903
10011SOL    HW130932   6.950   0.191   4.966
10011SOL    HW230933   6.827   0.178   4.859
10012SOL     OW30934   6.007   1.044   3.356
10012SOL    HW130935   5.959   1.018   3.439
10012SOL    HW230936   6.019   1.144   3.355
10013SOL     OW30937   6.990   0.696   2.770
10013SOL    HW130938   0.028   0.625   2.745
10013SOL    HW230939   6.897   0.661   2.758
10014SOL     OW30940   1.214   4.144   6.414
10014SOL    HW130941   1.165   4.231   6.414
10014SOL    HW230942   1.282   4.144   6.488
10015SOL     OW30943   1.877   5.292   0.276
10015SOL    HW130944   1.938   5.223   0.235
10015SOL    HW230945   1.847   5.260   0.365
10016SOL     OW30946   1.797   1.309   6.882
10016SOL    HW130947   1.885   1.311   6.833
10016SOL    HW230948   1.726   1.276   6.820
10017SOL     OW30949   2.688   2.109   4.413
10017SOL    HW130950   2.608   2.145   4.461
10017SOL    HW230951   2.770   2.157   4.443
10018SOL     OW30952   5.608   0.510   6.160
10018SOL    HW130953   5.539   0.446   6.126
10018SOL    HW230954   5.564   0.577   6.220
10019SOL     OW30955   1.099   0.829   2.941
10019SOL    HW130956   1.098   0.737   2.902
10019SOL    HW230957   1.064   0.894   2.874
10020SOL     OW30958   1.607   2.862   1.250
10020SOL    HW130959   1.638   2.953   1.278
10020SOL    HW230960   1.584   2.864   1.152
10021SOL     OW30961   0.083   3.581   0.679
10021SOL    HW130962   0.109   3.543   0.768
10021SOL    HW230963   0.018   3.656   0.693
10022SOL     OW30964   1.544   1.232   6.704
10022SOL    HW130965   1.547   1.170   6.625
10022SOL    HW230966   1.456   1.279   6.706
10023SOL     OW30967   6.382   3.814   0.593
10023SOL    HW130968   6.412   3.748   0.661
10023SOL    HW230969   6.458   3.836   0.532
10024SOL     OW30970   1.564   4.919   3.850
10024SOL    HW130971   1.637   4.915   3.918
10024SOL    HW230972   1.602   4.903   3.759
10025SOL     OW30973   1.714   0.893   1.269
10025SOL    HW130974   1.735   0.918   1.174
10025SOL    HW230975   1.797   0.859   1.314
10026SOL     OW30976   5.795   0.557   3.226
10026SOL    HW130977   5.760   0.584   3.316
10026SOL    HW230978   5.895   0.565   3.225
10027SOL     OW30979   6.090   3.383   4.749
10027SOL    HW130980   6.050   3.343   4.832
10027SOL    HW230981   6.030   3.456   4.715
10028SOL     OW30982   1.961   1.036   0.835
10028SOL    HW130983   1.929   1.122   0.794
10028SOL    HW230984   1.904   0.961   0.802
10029SOL     OW30985   5.814   2.275   3.561
10029SOL    HW130986   5.764   2.189   3.565
10029SOL    HW230987   5.877   2.273   3.484
10030SOL     OW30988   1.782   0.459   4.239
10030SOL    HW130989   1.829   0.371   4.236
10030SOL    HW230990   1.684   0.444   4.224
10031SOL     OW30991   5.881   4.814   3.129
10031SOL    HW130992   5.795   4.768   3.104
10031SOL    HW230993   5.952   4.745   3.142
10032SOL     OW30994   2.564   1.604   5.406
10032SOL    HW130995   2.636   1.622   5.338
10032SOL    HW230996   2.599   1.623   5.497
10033SOL     OW30997   5.864   2.852   4.358
10033SOL    HW130998   5.849   2.951   4.359
10033SOL    HW230999   5.777   2.805   4.376
10034SOL     OW31000   4.335   0.106   5.527
10034SOL    HW131001   4.404   0.084   5.595
10034SOL    HW231002   4.329   0.205   5.517
10035SOL     OW31003   6.905   4.893   1.357
10035SOL    HW131004   6.839   4.828   1.395
10035SOL    HW231005   6.869   4.930   1.270
10036SOL     OW31006   6.836   1.772   0.166
10036SOL    HW131007   6.918   1.723   0.134
10036SOL    HW231008   6.794   1.821   0.090
10037SOL     OW31009   0.114   0.388   6.541
10037SOL    HW131010   0.193   0.330   6.518
10037SOL    HW231011   0.142   0.454   6.611
10038SOL     OW31012   6.429   6.724   1.116
10038SOL    HW131013   6.397   6.760   1.028
10038SOL    HW231014   6.525   6.699   1.109
10039SOL     OW31015   3.194   0.668   4.024
10039SOL    HW131016   3.150   0.661   3.934
10039SOL    HW231017   3.266   0.598   4.031
10040SOL     OW31018   6.859   3.311   0.709
10040SOL    HW131019   6.878   3.371   0.787
10040SOL    HW231020   6.946   3.282   0.668
10041SOL     OW31021   2.952   6.821   0.235
10041SOL    HW131022   2.870   6.771   0.262
10041SOL    HW231023   2.978   6.884   0.308
10042SOL     OW31024   0.025   1.930   2.945
10042SOL    HW131025   0.001   1.886   2.858
10042SOL    HW231026   0.107   1.887   2.983
10043SOL     OW31027   0.045   1.738   5.738
10043SOL    HW131028   0.028   1.703   5.830
10043SOL    HW231029   0.099   1.672   5.687
10044SOL     OW31030   3.066   2.109   5.514
10044SOL    HW131031   3.068   2.173   5.591
10044SOL    HW231032   3.139   2.135   5.449
10045SOL     OW31033   4.003   1.019   6.966
10045SOL    HW131034   3.936   0.966   7.017
10045SOL    HW231035   4.088   0.967   6.958
10046SOL     OW31036   1.708   5.432   1.607
10046SOL    HW131037   1.695   5.531   1.607
10046SOL    HW231038   1.691   5.395   1.516
10047SOL     OW31039   0.463   3.097   0.136
10047SOL    HW131040   0.372   3.112   0.174
10047SOL    HW231041   0.493   3.003   0.155
10048SOL     OW31042   5.961   6.593   2.370
10048SOL    HW131043   5.872   6.630   2.395
10048SOL    HW231044   5.953   6.539   2.286
10049SOL     OW31045   0.106   1.332   5.317
10049SOL    HW131046   0.206   1.337   5.316
10049SOL    HW231047   0.068   1.423   5.333
10050SOL     OW31048   6.022   3.170   5.630
10050SOL    HW131049   6.012   3.139   5.536
10050SOL    HW231050   5.981   3.103   5.692
10051SOL     OW31051   0.736   4.343   4.283
10051SOL    HW131052   0.817   4.362   4.228
10051SOL    HW231053   0.751   4.259   4.337
10052SOL     OW31054   1.458   0.078   3.107
10052SOL    HW131055   1.417   0.037   3.188
10052SOL    HW231056   1.390   0.134   3.060
10053SOL     OW31057   4.849   5.601   4.613
10053SOL    HW131058   4.765   5.594   4.666
10053SOL    HW231059   4.904   5.519   4.626
10054SOL     OW31060   6.186   4.359   4.544
10054SOL    HW131061   6.127   4.282   4.519
10054SOL    HW231062   6.133   4.424   4.598
10055SOL     OW31063   0.290   1.390   6.215
10055SOL    HW131064   0.341   1.348   6.141
10055SOL    HW231065   0.192   1.373   6.202
10056SOL     OW31066   5.915   3.017   3.635
10056SOL    HW131067   5.869   2.951   3.695
10056SOL    HW231068   5.863   3.027   3.550
10057SOL     OW31069   5.596   4.694   6.238
10057SOL    HW131070   5.590   4.608   6.290
10057SOL    HW231071   5.552   4.682   6.149
10058SOL     OW31072   6.646   3.936   5.525
10058SOL    HW131073   6.607   3.964   5.613
10058SOL    HW231074   6.745   3.923   5.535
10059SOL     OW31075   0.406   0.535   6.607
10059SOL    HW131076   0.473   0.604   6.579
10059SOL    HW231077   0.317   0.577   6.621
10060SOL     OW31078   2.479   2.174   2.554
10060SOL    HW131079   2.561   2.230   2.562
10060SOL    HW231080   2.500   2.080   2.582
10061SOL     OW31081   3.827   0.216   3.075
10061SOL    HW131082   3.854   0.289   3.011
10061SOL    HW231083   3.902   0.198   3.138
10062SOL     OW31084   6.155   0.451   4.324
10062SOL    HW131085   6.086   0.384   4.295
10062SOL    HW231086   6.110   0.539   4.341
10063SOL     OW31087   1.603   3.280   4.788
10063SOL    HW131088   1.574   3.359   4.734
10063SOL    HW231089   1.594   3.301   4.885
10064SOL     OW31090   2.895   6.461   0.565
10064SOL    HW131091   2.920   6.365   0.580
10064SOL    HW231092   2.977   6.517   0.557
10065SOL     OW31093   1.026   1.486   2.115
10065SOL    HW131094   0.976   1.504   2.030
10065SOL    HW231095   1.049   1.389   2.120
10066SOL     OW31096   6.168   3.593   3.587
10066SOL    HW131097   6.097   3.543   3.635
10066SOL    HW231098   6.146   3.690   3.585
10067SOL     OW31099   6.460   2.287   4.653
10067SOL    HW131100   6.397   2.218   4.618
10067SOL    HW231101   6.548   2.245   4.673
10068SOL     OW31102   1.757   2.885   2.575
10068SOL    HW131103   1.715   2.974   2.591
10068SOL    HW231104   1.797   2.851   2.660
10069SOL     OW31105   2.464   5.340   1.362
10069SOL    HW131106   2.380   5.288   1.345
10069SOL    HW231107   2.516   5.348   1.277
10070SOL     OW31108   3.930   5.791   5.333
10070SOL    HW131109   3.953   5.702   5.293
10070SOL    HW231110   3.838   5.787   5.371
10071SOL     OW31111   5.857   0.354   3.458
10071SOL    HW131112   5.936   0.361   3.520
10071SOL    HW231113   5.856   0.433   3.396
10072SOL     OW31114   6.524   1.900   1.864
10072SOL    HW131115   6.565   1.932   1.949
10072SOL    HW231116   6.482   1.977   1.816
10073SOL     OW31117   6.667   4.825   4.848
10073SOL    HW131118   6.587   4.770   4.822
10073SOL    HW231119   6.750   4.782   4.812
10074SOL     OW31120   1.235   4.605   0.241
10074SOL    HW131121   1.325   4.632   0.206
10074SOL    HW231122   1.188   4.686   0.275
10075SOL     OW31123   1.566   3.496   1.699
10075SOL    HW131124   1.473   3.495   1.736
10075SOL    HW231125   1.629   3.460   1.768
10076SOL     OW31126   4.979   5.627   3.886
10076SOL    HW131127   4.988   5.529   3.866
10076SOL    HW231128   4.945   5.640   3.979
10077SOL     OW31129   5.843   3.527   6.270
10077SOL    HW131130   5.845   3.598   6.199
10077SOL    HW231131   5.870   3.567   6.358
10078SOL     OW31132   6.557   6.420   4.858
10078SOL    HW131133   6.478   6.365   4.828
10078SOL    HW231134   6.570   6.497   4.795
10079SOL     OW31135   4.865   2.139   3.503
10079SOL    HW131136   4.777   2.174   3.535
10079SOL    HW231137   4.857   2.113   3.406
10080SOL     OW31138   5.233   0.715   6.036
10080SOL    HW131139   5.141   0.754   6.024
10080SOL    HW231140   5.301   0.789   6.035
10081SOL     OW31141   1.869   3.131   1.176
10081SOL    HW131142   1.891   3.227   1.162
10081SOL    HW231143   1.811   3.098   1.102
10082SOL     OW31144   0.972   4.348   1.249
10082SOL    HW131145   1.020   4.372   1.165
10082SOL    HW231146   0.975   4.248   1.262
10083SOL     OW31147   3.258   4.993   3.711
10083SOL    HW131148   3.210   5.011   3.626
10083SOL    HW231149   3.343   4.943   3.692
10084SOL     OW31150   1.037   0.650   4.350
10084SOL    HW131151   1.136   0.644   4.354
10084SOL    HW231152   1.010   0.722   4.286
10085SOL     OW31153   5.164   6.829   0.172
10085SOL    HW131154   5.139   6.920   0.204
10085SOL    HW231155   5.221   6.836   0.090
10086SOL     OW31156   0.008   6.490   3.039
10086SOL    HW131157   0.016   6.393   3.065
10086SOL    HW231158   6.971   6.535   3.101
10087SOL     OW31159   1.777   6.563   5.426
10087SOL    HW131160   1.817   6.546   5.336
10087SOL    HW231161   1.701   6.628   5.417
10088SOL     OW31162   0.576   2.452   7.013
10088SOL    HW131163   0.496   2.508   0.005
10088SOL    HW231164   0.652   2.510   6.984
10089SOL     OW31165   3.614   1.809   1.828
10089SOL    HW131166   3.588   1.884   1.889
10089SOL    HW231167   3.562   1.727   1.853
10090SOL     OW31168   2.417   5.973   3.044
10090SOL    HW131169   2.329   5.979   2.997
10090SOL    HW231170   2.430   5.881   3.080
10091SOL     OW31171   6.946   3.823   5.210
10091SOL    HW131172   7.026   3.766   5.229
10091SOL    HW231173   6.909   3.858   5.296
10092SOL     OW31174   0.563   1.950   4.048
10092SOL    HW131175   0.592   1.856   4.065
10092SOL    HW231176   0.470   1.963   4.084
10093SOL     OW31177   5.315   4.819   5.678
10093SOL    HW131178   5.264   4.733   5.683
10093SOL    HW231179   5.255   4.895   5.702
10094SOL     OW31180   3.437   1.572   0.569
10094SOL    HW131181   3.405   1.487   0.609
10094SOL    HW231182   3.360   1.622   0.530
10095SOL     OW31183   4.922   3.124   5.449
10095SOL    HW131184   5.000   3.166   5.403
10095SOL    HW231185   4.914   3.028   5.420
10096SOL     OW31186   5.563   2.269   2.693
10096SOL    HW131187   5.570   2.365   2.723
10096SOL    HW231188   5.511   2.264   2.608
10097SOL     OW31189   0.929   1.776   6.685
10097SOL    HW131190   0.950   1.838   6.609
10097SOL    HW231191   1.014   1.746   6.728
10098SOL     OW31192   3.110   5.512   3.980
10098SOL    HW131193   3.111   5.424   4.028
10098SOL    HW231194   3.016   5.535   3.956
10099SOL     OW31195   0.123   4.568   1.252
10099SOL    HW131196   0.149   4.472   1.255
10099SOL    HW231197   0.055   4.582   1.180
10100SOL     OW31198   4.484   4.972   4.096
10100SOL    HW131199   4.483   5.005   4.191
10100SOL    HW231200   4.561   4.909   4.084
10101SOL     OW31201   0.785   2.165   1.697
10101SOL    HW131202   0.706   2.215   1.662
10101SOL    HW231203   0.841   2.134   1.620
10102SOL     OW31204   6.213   5.904   2.850
10102SOL    HW131205   6.208   5.886   2.948
10102SOL    HW231206   6.267   5.834   2.805
10103SOL     OW31207   6.559   6.336   6.095
10103SOL    HW131208   6.499   6.276   6.042
10103SOL    HW231209   6.584   6.416   6.040
10104SOL     OW31210   2.521   7.008   4.147
10104SOL    HW131211   2.471   0.059   4.110
10104SOL    HW231212   2.536   7.022   4.245
10105SOL     OW31213   3.097   0.970   6.163
10105SOL    HW131214   3.037   0.969   6.242
10105SOL    HW231215   3.167   0.899   6.174
10106SOL     OW31216   5.119   5.633   1.143
10106SOL    HW131217   5.036   5.613   1.195
10106SOL    HW231218   5.106   5.607   1.047
10107SOL     OW31219   5.117   4.436   6.396
10107SOL    HW131220   5.199   4.401   6.351
10107SOL    HW231221   5.073   4.361   6.446
10108SOL     OW31222   1.995   2.458   0.325
10108SOL    HW131223   1.918   2.483   0.266
10108SOL    HW231224   1.964   2.391   0.392
10109SOL     OW31225   1.477   2.609   1.229
10109SOL    HW131226   1.384   2.623   1.196
10109SOL    HW231227   1.506   2.688   1.283
10110SOL     OW31228   4.960   6.570   2.639
10110SOL    HW131229   4.988   6.479   2.610
10110SOL    HW231230   5.023   6.603   2.710
10111SOL     OW31231   1.519   2.604   1.942
10111SOL    HW131232   1.557   2.575   1.854
10111SOL    HW231233   1.425   2.637   1.928
10112SOL     OW31234   0.298   2.031   3.254
10112SOL    HW131235   0.267   2.055   3.346
10112SOL    HW231236   0.365   2.099   3.223
10113SOL     OW31237   6.888   0.725   5.764
10113SOL    HW131238   6.961   0.793   5.761
10113SOL    HW231239   6.859   0.703   5.671
10114SOL     OW31240   4.915   1.538   1.615
10114SOL    HW131241   4.922   1.463   1.681
10114SOL    HW231242   4.962   1.512   1.531
10115SOL     OW31243   3.607   2.876   6.413
10115SOL    HW131244   3.521   2.827   6.430
10115SOL    HW231245   3.649   2.900   6.501
10116SOL     OW31246   6.548   0.919   4.634
10116SOL    HW131247   6.549   0.837   4.576
10116SOL    HW231248   6.487   0.903   4.712
10117SOL     OW31249   6.039   4.353   3.853
10117SOL    HW131250   6.073   4.426   3.794
10117SOL    HW231251   6.006   4.277   3.797
10118SOL     OW31252   4.763   6.168   3.896
10118SOL    HW131253   4.723   6.236   3.834
10118SOL    HW231254   4.862   6.167   3.885
10119SOL     OW31255   0.067   5.180   5.612
10119SOL    HW131256   0.092   5.114   5.541
10119SOL    HW231257   0.009   5.252   5.572
10120SOL     OW31258   2.116   3.406   2.711
10120SOL    HW131259   2.080   3.478   2.652
10120SOL    HW231260   2.203   3.374   2.675
10121SOL     OW31261   5.923   4.381   1.105
10121SOL    HW131262   5.911   4.315   1.179
10121SOL    HW231263   5.917   4.473   1.141
10122SOL     OW31264   1.240   0.273   4.119
10122SOL    HW131265   1.205   0.365   4.103
10122SOL    HW231266   1.167   0.214   4.154
10123SOL     OW31267   6.166   5.275   6.844
10123SOL    HW131268   6.177   5.228   6.757
10123SOL    HW231269   6.255   5.306   6.877
10124SOL     OW31270   1.428   5.386   2.917
10124SOL    HW131271   1.425   5.389   3.017
10124SOL    HW231272   1.521   5.368   2.886
10125SOL     OW31273   2.224   1.219   4.995
10125SOL    HW131274   2.128   1.207   4.968
10125SOL    HW231275   2.230   1.292   5.063
10126SOL     OW31276   6.600   6.294   6.449
10126SOL    HW131277   6.642   6.374   6.492
10126SOL    HW231278   6.652   6.269   6.367
10127SOL     OW31279   2.421   6.735   6.231
10127SOL    HW131280   2.362   6.807   6.193
10127SOL    HW231281   2.375   6.693   6.309
10128SOL     OW31282   2.770   1.870   6.934
10128SOL    HW131283   2.818   1.931   6.996
10128SOL    HW231284   2.729   1.923   6.860
10129SOL     OW31285   6.142   1.745   4.788
10129SOL    HW131286   6.044   1.756   4.805
10129SOL    HW231287   6.155   1.697   4.701
10130SOL     OW31288   1.005   0.990   2.748
10130SOL    HW131289   1.014   0.968   2.651
10130SOL    HW231290   0.999   1.089   2.758
10131SOL     OW31291   1.594   6.386   3.754
10131SOL    HW131292   1.535   6.317   3.714
10131SOL    HW231293   1.541   6.468   3.776
10132SOL     OW31294   6.630   0.715   1.543
10132SOL    HW131295   6.565   0.694   1.470
10132SOL    HW231296   6.714   0.751   1.502
10133SOL     OW31297   5.891   6.397   6.984
10133SOL    HW131298   5.981   6.361   7.008
10133SOL    HW231299   5.829   6.388   0.034
10134SOL     OW31300   6.532   6.745   2.123
10134SOL    HW131301   6.611   6.800   2.096
10134SOL    HW231302   6.563   6.668   2.178
10135SOL     OW31303   6.447   0.122   2.551
10135SOL    HW131304   6.481   0.207   2.512
10135SOL    HW231305   6.510   0.048   2.529
10136SOL     OW31306   5.072   1.953   2.676
10136SOL    HW131307   5.091   1.856   2.665
10136SOL    HW231308   5.058   1.995   2.586
10137SOL     OW31309   6.169   5.816   5.800
10137SOL    HW131310   6.118   5.773   5.874
10137SOL    HW231311   6.266   5.796   5.810
10138SOL     OW31312   0.840   2.180   0.496
10138SOL    HW131313   0.908   2.148   0.562
10138SOL    HW231314   0.764   2.115   0.492
10139SOL     OW31315   3.348   2.833   6.699
10139SOL    HW131316   3.305   2.775   6.768
10139SOL    HW231317   3.440   2.858   6.730
10140SOL     OW31318   0.858   6.258   5.606
10140SOL    HW131319   0.928   6.222   5.545
10140SOL    HW231320   0.768   6.224   5.578
10141SOL     OW31321   2.181   3.105   4.410
10141SOL    HW131322   2.250   3.052   4.458
10141SOL    HW231323   2.194   3.096   4.311
10142SOL     OW31324   3.881   6.274   3.998
10142SOL    HW131325   3.933   6.318   3.925
10142SOL    HW231326   3.900   6.176   3.999
10143SOL     OW31327   4.905   3.003   6.880
10143SOL    HW131328   4.904   3.075   6.811
10143SOL    HW231329   4.896   2.914   6.835
10144SOL     OW31330   3.965   0.033   6.509
10144SOL    HW131331   3.963   6.967   6.475
10144SOL    HW231332   3.881   0.053   6.558
10145SOL     OW31333   5.657   6.503   6.256
10145SOL    HW131334   5.569   6.551   6.253
10145SOL    HW231335   5.668   6.458   6.345
10146SOL     OW31336   0.233   2.992   4.541
10146SOL    HW131337   0.318   3.007   4.491
10146SOL    HW231338   0.254   2.964   4.635
10147SOL     OW31339   4.819   5.247   5.689
10147SOL    HW131340   4.743   5.309   5.704
10147SOL    HW231341   4.806   5.199   5.602
10148SOL     OW31342   0.872   4.337   0.955
10148SOL    HW131343   0.865   4.380   1.045
10148SOL    HW231344   0.785   4.348   0.906
10149SOL     OW31345   3.742   4.457   0.428
10149SOL    HW131346   3.808   4.385   0.449
10149SOL    HW231347   3.694   4.434   0.343
10150SOL     OW31348   4.262   4.306   0.969
10150SOL    HW131349   4.354   4.316   0.931
10150SOL    HW231350   4.196   4.309   0.894
10151SOL     OW31351   6.172   0.260   5.854
10151SOL    HW131352   6.250   0.198   5.860
10151SOL    HW231353   6.120   0.241   5.770
10152SOL     OW31354   4.130   6.744   2.202
10152SOL    HW131355   4.131   6.651   2.239
10152SOL    HW231356   4.093   6.807   2.271
10153SOL     OW31357   4.650   4.367   2.474
10153SOL    HW131358   4.748   4.352   2.460
10153SOL    HW231359   4.604   4.376   2.385
10154SOL     OW31360   4.747   5.822   5.458
10154SOL    HW131361   4.763   5.822   5.359
10154SOL    HW231362   4.651   5.841   5.476
10155SOL     OW31363   4.428   1.612   4.745
10155SOL    HW131364   4.519   1.610   4.788
10155SOL    HW231365   4.371   1.541   4.786
10156SOL     OW31366   5.062   1.991   0.389
10156SOL    HW131367   4.992   2.028   0.328
10156SOL    HW231368   5.059   2.038   0.477
10157SOL     OW31369   0.531   3.392   1.384
10157SOL    HW131370   0.482   3.353   1.306
10157SOL    HW231371   0.508   3.340   1.467
10158SOL     OW31372   6.127   4.696   0.169
10158SOL    HW131373   6.050   4.713   0.108
10158SOL    HW231374   6.213   4.704   0.119
10159SOL     OW31375   3.270   2.933   2.269
10159SOL    HW131376   3.282   2.861   2.200
10159SOL    HW231377   3.356   2.945   2.319
10160SOL     OW31378   1.047   5.150   2.641
10160SOL    HW131379   0.961   5.167   2.594
10160SOL    HW231380   1.086   5.063   2.609
10161SOL     OW31381   5.460   3.368   5.118
10161SOL    HW131382   5.557   3.353   5.141
10161SOL    HW231383   5.410   3.392   5.201
10162SOL     OW31384   1.347   3.155   2.353
10162SOL    HW131385   1.362   3.057   2.361
10162SOL    HW231386   1.411   3.205   2.411
10163SOL     OW31387   2.114   6.274   5.247
10163SOL    HW131388   2.193   6.283   5.187
10163SOL    HW231389   2.143   6.282   5.342
10164SOL     OW31390   1.434   1.892   3.399
10164SOL    HW131391   1.435   1.835   3.317
10164SOL    HW231392   1.362   1.860   3.461
10165SOL     OW31393   0.150   3.950   4.380
10165SOL    HW131394   0.084   3.978   4.449
10165SOL    HW231395   0.226   4.015   4.378
10166SOL     OW31396   2.521   0.961   1.476
10166SOL    HW131397   2.513   1.029   1.549
10166SOL    HW231398   2.493   0.872   1.512
10167SOL     OW31399   2.256   1.158   6.816
10167SOL    HW131400   2.156   1.148   6.814
10167SOL    HW231401   2.285   1.179   6.909
10168SOL     OW31402   6.653   0.422   6.396
10168SOL    HW131403   6.609   0.502   6.438
10168SOL    HW231404   6.750   0.421   6.421
10169SOL     OW31405   5.170   3.350   3.856
10169SOL    HW131406   5.249   3.411   3.846
10169SOL    HW231407   5.201   3.259   3.882
10170SOL     OW31408   6.005   5.565   0.256
10170SOL    HW131409   5.966   5.478   0.288
10170SOL    HW231410   5.936   5.617   0.206
10171SOL     OW31411   2.482   3.656   6.201
10171SOL    HW131412   2.537   3.719   6.146
10171SOL    HW231413   2.408   3.707   6.246
10172SOL     OW31414   6.056   0.725   3.021
10172SOL    HW131415   6.129   0.752   2.958
10172SOL    HW231416   6.082   0.640   3.067
10173SOL     OW31417   3.440   4.037   5.004
10173SOL    HW131418   3.382   4.102   5.054
10173SOL    HW231419   3.506   4.087   4.949
10174SOL     OW31420   4.432   5.482   2.815
10174SOL    HW131421   4.395   5.556   2.870
10174SOL    HW231422   4.393   5.395   2.845
10175SOL     OW31423   0.230   0.893   3.517
10175SOL    HW131424   0.167   0.825   3.554
10175SOL    HW231425   0.299   0.848   3.461
10176SOL     OW31426   6.838   1.328   5.345
10176SOL    HW131427   6.855   1.257   5.413
10176SOL    HW231428   6.913   1.328   5.278
10177SOL     OW31429   2.652   0.879   3.538
10177SOL    HW131430   2.594   0.798   3.538
10177SOL    HW231431   2.602   0.956   3.579
10178SOL     OW31432   0.715   1.871   0.828
10178SOL    HW131433   0.675   1.782   0.806
10178SOL    HW231434   0.712   1.886   0.927
10179SOL     OW31435   0.222   4.305   0.758
10179SOL    HW131436   0.175   4.277   0.842
10179SOL    HW231437   0.245   4.224   0.704
10180SOL     OW31438   4.333   6.608   5.575
10180SOL    HW131439   4.320   6.641   5.482
10180SOL    HW231440   4.419   6.558   5.582
10181SOL     OW31441   6.195   3.359   2.699
10181SOL    HW131442   6.275   3.414   2.723
10181SOL    HW231443   6.204   3.325   2.605
10182SOL     OW31444   4.815   1.846   0.865
10182SOL    HW131445   4.863   1.760   0.847
10182SOL    HW231446   4.813   1.863   0.963
10183SOL     OW31447   6.365   1.265   6.670
10183SOL    HW131448   6.380   1.187   6.609
10183SOL    HW231449   6.395   1.242   6.762
10184SOL     OW31450   5.900   2.034   5.496
10184SOL    HW131451   5.871   1.944   5.529
10184SOL    HW231452   5.832   2.070   5.433
10185SOL     OW31453   4.030   5.630   2.591
10185SOL    HW131454   4.074   5.679   2.667
10185SOL    HW231455   4.068   5.538   2.585
10186SOL     OW31456   3.616   3.572   5.844
10186SOL    HW131457   3.613   3.476   5.871
10186SOL    HW231458   3.524   3.612   5.853
10187SOL     OW31459   1.989   4.533   6.492
10187SOL    HW131460   1.904   4.481   6.481
10187SOL    HW231461   2.054   4.479   6.545
10188SOL     OW31462   3.540   0.640   6.404
10188SOL    HW131463   3.510   0.684   6.489
10188SOL    HW231464   3.491   0.553   6.393
10189SOL     OW31465   1.252   1.949   6.112
10189SOL    HW131466   1.257   1.892   6.030
10189SOL    HW231467   1.318   1.916   6.180
10190SOL     OW31468   4.360   5.519   1.514
10190SOL    HW131469   4.407   5.433   1.496
10190SOL    HW231470   4.270   5.500   1.553
10191SOL     OW31471   5.672   6.765   6.472
10191SOL    HW131472   5.750   6.777   6.411
10191SOL    HW231473   5.703   6.774   6.567
10192SOL     OW31474   1.911   1.748   4.140
10192SOL    HW131475   1.992   1.777   4.090
10192SOL    HW231476   1.894   1.651   4.123
10193SOL     OW31477   3.452   3.488   3.551
10193SOL    HW131478   3.458   3.389   3.540
10193SOL    HW231479   3.534   3.531   3.513
10194SOL     OW31480   2.609   0.203   3.543
10194SOL    HW131481   2.513   0.179   3.534
10194SOL    HW231482   2.639   0.186   3.637
10195SOL     OW31483   3.877   6.323   2.458
10195SOL    HW131484   3.885   6.224   2.463
10195SOL    HW231485   3.852   6.350   2.364
10196SOL     OW31486   5.938   2.125   4.024
10196SOL    HW131487   6.014   2.060   4.016
10196SOL    HW231488   5.972   2.218   4.007
10197SOL     OW31489   5.662   0.002   1.621
10197SOL    HW131490   5.632   6.960   1.686
10197SOL    HW231491   5.669   0.090   1.667
10198SOL     OW31492   2.291   6.757   0.606
10198SOL    HW131493   2.217   6.742   0.541
10198SOL    HW231494   2.256   6.807   0.685
10199SOL     OW31495   1.104   0.955   0.523
10199SOL    HW131496   1.020   0.983   0.477
10199SOL    HW231497   1.103   0.988   0.618
10200SOL     OW31498   5.409   4.019   4.721
10200SOL    HW131499   5.339   3.995   4.654
10200SOL    HW231500   5.404   4.117   4.741
10201SOL     OW31501   1.537   5.246   2.634
10201SOL    HW131502   1.589   5.313   2.687
10201SOL    HW231503   1.440   5.265   2.643
10202SOL     OW31504   0.822   3.277   2.246
10202SOL    HW131505   0.893   3.301   2.312
10202SOL    HW231506   0.808   3.178   2.247
10203SOL     OW31507   1.640   3.532   2.420
10203SOL    HW131508   1.573   3.476   2.372
10203SOL    HW231509   1.724   3.478   2.434
10204SOL     OW31510   2.848   4.902   5.071
10204SOL    HW131511   2.842   4.804   5.085
10204SOL    HW231512   2.786   4.949   5.135
10205SOL     OW31513   4.527   1.275   3.058
10205SOL    HW131514   4.518   1.243   3.152
10205SOL    HW231515   4.567   1.366   3.057
10206SOL     OW31516   5.201   0.007   6.670
10206SOL    HW131517   5.251   0.078   6.719
10206SOL    HW231518   5.242   7.022   6.579
10207SOL     OW31519   4.567   0.971   2.587
10207SOL    HW131520   4.624   0.985   2.506
10207SOL    HW231521   4.599   0.891   2.637
10208SOL     OW31522   6.154   4.376   5.309
10208SOL    HW131523   6.192   4.284   5.311
10208SOL    HW231524   6.158   4.413   5.216
10209SOL     OW31525   6.107   0.258   6.320
10209SOL    HW131526   6.043   0.276   6.395
10209SOL    HW231527   6.080   0.311   6.240
10210SOL     OW31528   5.020   5.783   1.635
10210SOL    HW131529   5.054   5.849   1.568
10210SOL    HW231530   4.921   5.773   1.623
10211SOL     OW31531   4.073   5.510   5.324
10211SOL    HW131532   4.026   5.441   5.378
10211SOL    HW231533   4.121   5.574   5.384
10212SOL     OW31534   6.904   0.507   4.991
10212SOL    HW131535   6.834   0.514   5.063
10212SOL    HW231536   6.898   0.417   4.948
10213SOL     OW31537   6.309   1.113   2.936
10213SOL    HW131538   6.291   1.015   2.924
10213SOL    HW231539   6.391   1.125   2.992
10214SOL     OW31540   6.730   0.481   1.953
10214SOL    HW131541   6.800   0.454   1.887
10214SOL    HW231542   6.730   0.581   1.963
10215SOL     OW31543   3.936   3.647   6.955
10215SOL    HW131544   3.843   3.683   6.964
10215SOL    HW231545   3.936   3.549   6.978
10216SOL     OW31546   5.267   6.950   1.481
10216SOL    HW131547   5.217   6.887   1.422
10216SOL    HW231548   5.336   6.999   1.428
10217SOL     OW31549   2.532   1.909   5.226
10217SOL    HW131550   2.553   1.832   5.166
10217SOL    HW231551   2.609   1.925   5.287
10218SOL     OW31552   2.120   1.932   0.631
10218SOL    HW131553   2.097   1.953   0.726
10218SOL    HW231554   2.084   1.841   0.607
10219SOL     OW31555   0.883   3.702   0.244
10219SOL    HW131556   0.933   3.659   0.320
10219SOL    HW231557   0.835   3.632   0.192
10220SOL     OW31558   4.320   1.979   1.265
10220SOL    HW131559   4.274   1.906   1.316
10220SOL    HW231560   4.345   2.053   1.328
10221SOL     OW31561   2.510   0.662   5.081
10221SOL    HW131562   2.449   0.634   5.156
10221SOL    HW231563   2.461   0.656   4.994
10222SOL     OW31564   1.323   5.202   6.114
10222SOL    HW131565   1.422   5.207   6.128
10222SOL    HW231566   1.277   5.257   6.183
10223SOL     OW31567   0.357   4.553   0.788
10223SOL    HW131568   0.402   4.587   0.705
10223SOL    HW231569   0.283   4.491   0.763
10224SOL     OW31570   1.776   6.968   4.212
10224SOL    HW131571   1.732   6.936   4.128
10224SOL    HW231572   1.776   6.894   4.280
10225SOL     OW31573   6.348   6.057   4.084
10225SOL    HW131574   6.310   6.108   4.007
10225SOL    HW231575   6.361   6.118   4.162
10226SOL     OW31576   1.240   1.448   0.434
10226SOL    HW131577   1.285   1.445   0.344
10226SOL    HW231578   1.152   1.496   0.425
10227SOL     OW31579   5.511   4.934   6.436
10227SOL    HW131580   5.454   4.895   6.508
10227SOL    HW231581   5.558   4.861   6.387
10228SOL     OW31582   1.023   5.587   3.453
10228SOL    HW131583   0.962   5.661   3.426
10228SOL    HW231584   1.029   5.520   3.379
10229SOL     OW31585   1.353   7.023   2.487
10229SOL    HW131586   1.435   6.966   2.479
10229SOL    HW231587   1.336   0.017   2.583
10230SOL     OW31588   6.600   0.714   3.313
10230SOL    HW131589   6.583   0.674   3.223
10230SOL    HW231590   6.564   0.653   3.384
10231SOL     OW31591   4.766   0.285   4.644
10231SOL    HW131592   4.822   0.330   4.713
10231SOL    HW231593   4.670   0.302   4.662
10232SOL     OW31594   3.336   2.075   4.975
10232SOL    HW131595   3.351   2.089   4.877
10232SOL    HW231596   3.257   2.128   5.004
10233SOL     OW31597   4.342   1.557   5.837
10233SOL    HW131598   4.257   1.601   5.866
10233SOL    HW231599   4.378   1.603   5.756
10234SOL     OW31600   5.010   6.358   1.613
10234SOL    HW131601   5.018   6.384   1.709
10234SOL    HW231602   5.002   6.441   1.557
10235SOL     OW31603   6.026   1.067   6.589
10235SOL    HW131604   6.085   1.067   6.508
10235SOL    HW231605   6.002   1.161   6.614
10236SOL     OW31606   2.191   5.401   1.897
10236SOL    HW131607   2.099   5.398   1.858
10236SOL    HW231608   2.248   5.330   1.855
10237SOL     OW31609   6.741   3.124   2.720
10237SOL    HW131610   6.680   3.074   2.781
10237SOL    HW231611   6.686   3.183   2.659
10238SOL     OW31612   4.993   4.626   4.608
10238SOL    HW131613   4.928   4.553   4.631
10238SOL    HW231614   4.943   4.704   4.571
10239SOL     OW31615   0.309   4.361   4.147
10239SOL    HW131616   0.336   4.281   4.094
10239SOL    HW231617   0.370   4.372   4.225
10240SOL     OW31618   0.149   4.370   3.819
10240SOL    HW131619   0.132   4.435   3.894
10240SOL    HW231620   0.101   4.284   3.838
10241SOL     OW31621   2.270   0.944   1.991
10241SOL    HW131622   2.332   1.002   2.044
10241SOL    HW231623   2.288   0.956   1.893
10242SOL     OW31624   6.952   0.044   5.964
10242SOL    HW131625   6.970   6.995   6.025
10242SOL    HW231626   6.893   0.111   6.010
10243SOL     OW31627   1.404   5.434   1.889
10243SOL    HW131628   1.395   5.530   1.862
10243SOL    HW231629   1.440   5.429   1.982
10244SOL     OW31630   2.293   6.376   0.131
10244SOL    HW131631   2.200   6.401   0.106
10244SOL    HW231632   2.356   6.448   0.103
10245SOL     OW31633   2.559   2.146   0.088
10245SOL    HW131634   2.525   2.161   7.022
10245SOL    HW231635   2.491   2.177   0.154
10246SOL     OW31636   3.507   4.141   4.506
10246SOL    HW131637   3.438   4.069   4.502
10246SOL    HW231638   3.596   4.103   4.481
10247SOL     OW31639   1.122   4.710   5.383
10247SOL    HW131640   1.101   4.714   5.285
10247SOL    HW231641   1.094   4.621   5.420
10248SOL     OW31642   4.170   0.161   1.857
10248SOL    HW131643   4.238   0.140   1.788
10248SOL    HW231644   4.118   0.242   1.829
10249SOL     OW31645   4.767   1.105   6.429
10249SOL    HW131646   4.733   1.012   6.415
10249SOL    HW231647   4.784   1.148   6.340
10250SOL     OW31648   6.261   0.380   0.290
10250SOL    HW131649   6.216   0.404   0.376
10250SOL    HW231650   6.321   0.455   0.261
10251SOL     OW31651   2.765   3.942   0.129
10251SOL    HW131652   2.693   4.012   0.121
10251SOL    HW231653   2.728   3.862   0.177
10252SOL     OW31654   6.746   4.771   2.052
10252SOL    HW131655   6.838   4.732   2.045
10252SOL    HW231656   6.745   4.842   2.122
10253SOL     OW31657   3.651   5.427   6.924
10253SOL    HW131658   3.626   5.386   6.837
10253SOL    HW231659   3.731   5.486   6.911
10254SOL     OW31660   2.237   2.327   5.222
10254SOL    HW131661   2.228   2.287   5.313
10254SOL    HW231662   2.328   2.306   5.186
10255SOL     OW31663   3.180   6.025   2.418
10255SOL    HW131664   3.184   6.091   2.493
10255SOL    HW231665   3.105   5.961   2.434
10256SOL     OW31666   6.091   6.899   6.424
10256SOL    HW131667   6.169   6.953   6.393
10256SOL    HW231668   6.058   6.935   6.511
10257SOL     OW31669   1.234   6.096   5.991
10257SOL    HW131670   1.295   6.070   5.916
10257SOL    HW231671   1.272   6.064   6.077
10258SOL     OW31672   3.961   0.585   3.177
10258SOL    HW131673   3.884   0.649   3.176
10258SOL    HW231674   3.948   0.519   3.251
10259SOL     OW31675   6.792   4.224   3.160
10259SOL    HW131676   6.761   4.289   3.228
10259SOL    HW231677   6.870   4.172   3.196
10260SOL     OW31678   1.254   6.588   1.656
10260SOL    HW131679   1.289   6.659   1.718
10260SOL    HW231680   1.155   6.581   1.667
10261SOL     OW31681   1.256   5.912   2.431
10261SOL    HW131682   1.276   5.896   2.528
10261SOL    HW231683   1.179   5.975   2.424
10262SOL     OW31684   1.252   4.815   4.979
10262SOL    HW131685   1.197   4.880   5.030
10262SOL    HW231686   1.346   4.817   5.012
10263SOL     OW31687   6.600   2.320   6.097
10263SOL    HW131688   6.553   2.402   6.064
10263SOL    HW231689   6.639   2.338   6.187
10264SOL     OW31690   0.215   0.464   5.687
10264SOL    HW131691   0.175   0.435   5.774
10264SOL    HW231692   0.314   0.461   5.692
10265SOL     OW31693   4.202   1.714   2.252
10265SOL    HW131694   4.179   1.621   2.282
10265SOL    HW231695   4.124   1.774   2.267
10266SOL     OW31696   2.917   4.266   6.561
10266SOL    HW131697   2.983   4.205   6.516
10266SOL    HW231698   2.966   4.328   6.622
10267SOL     OW31699   6.980   2.189   6.181
10267SOL    HW131700   6.912   2.241   6.233
10267SOL    HW231701   6.962   2.202   6.083
10268SOL     OW31702   5.716   5.558   1.655
10268SOL    HW131703   5.725   5.658   1.664
10268SOL    HW231704   5.735   5.532   1.560
10269SOL     OW31705   2.768   2.956   6.099
10269SOL    HW131706   2.769   3.020   6.176
10269SOL    HW231707   2.676   2.918   6.089
10270SOL     OW31708   1.967   5.792   0.739
10270SOL    HW131709   1.947   5.703   0.699
10270SOL    HW231710   2.047   5.785   0.799
10271SOL     OW31711   4.675   4.684   1.303
10271SOL    HW131712   4.661   4.698   1.205
10271SOL    HW231713   4.602   4.625   1.338
10272SOL     OW31714   0.645   1.020   5.856
10272SOL    HW131715   0.617   1.112   5.828
10272SOL    HW231716   0.566   0.969   5.889
10273SOL     OW31717   4.158   5.805   4.644
10273SOL    HW131718   4.077   5.753   4.670
10273SOL    HW231719   4.213   5.751   4.580
10274SOL     OW31720   1.288   5.567   5.939
10274SOL    HW131721   1.301   5.468   5.940
10274SOL    HW231722   1.251   5.597   6.027
10275SOL     OW31723   1.053   6.374   2.286
10275SOL    HW131724   1.097   6.405   2.371
10275SOL    HW231725   0.954   6.368   2.300
10276SOL     OW31726   6.302   5.560   6.317
10276SOL    HW131727   6.333   5.594   6.405
10276SOL    HW231728   6.237   5.486   6.331
10277SOL     OW31729   2.336   6.087   4.662
10277SOL    HW131730   2.319   6.146   4.741
10277SOL    HW231731   2.250   6.044   4.634
10278SOL     OW31732   6.006   0.498   5.297
10278SOL    HW131733   6.017   0.441   5.378
10278SOL    HW231734   5.925   0.467   5.246
10279SOL     OW31735   3.341   6.818   4.081
10279SOL    HW131736   3.369   6.762   4.004
10279SOL    HW231737   3.421   6.840   4.137
10280SOL     OW31738   1.926   3.828   6.622
10280SOL    HW131739   1.982   3.758   6.668
10280SOL    HW231740   1.868   3.873   6.690
10281SOL     OW31741   4.486   0.572   3.724
10281SOL    HW131742   4.401   0.619   3.701
10281SOL    HW231743   4.513   0.511   3.649
10282SOL     OW31744   0.923   1.834   4.182
10282SOL    HW131745   0.931   1.776   4.263
10282SOL    HW231746   0.912   1.929   4.210
10283SOL     OW31747   1.079   3.942   6.671
10283SOL    HW131748   1.064   4.040   6.669
10283SOL    HW231749   1.130   3.914   6.589
10284SOL     OW31750   5.660   2.964   5.480
10284SOL    HW131751   5.738   2.903   5.466
10284SOL    HW231752   5.584   2.937   5.421
10285SOL     OW31753   5.817   7.004   0.919
10285SOL    HW131754   5.779   0.065   0.944
10285SOL    HW231755   5.863   7.012   0.830
10286SOL     OW31756   3.992   0.699   3.497
10286SOL    HW131757   4.077   0.707   3.445
10286SOL    HW231758   3.934   0.630   3.455
10287SOL     OW31759   2.493   6.100   1.758
10287SOL    HW131760   2.499   6.012   1.710
10287SOL    HW231761   2.517   6.087   1.854
10288SOL     OW31762   6.005   6.314   4.066
10288SOL    HW131763   6.033   6.296   4.160
10288SOL    HW231764   5.990   6.413   4.054
10289SOL     OW31765   3.411   0.917   1.607
10289SOL    HW131766   3.505   0.948   1.619
10289SOL    HW231767   3.366   0.909   1.696
10290SOL     OW31768   3.957   3.980   2.354
10290SOL    HW131769   4.010   3.990   2.439
10290SOL    HW231770   4.002   3.915   2.294
10291SOL     OW31771   3.329   0.386   5.540
10291SOL    HW131772   3.272   0.458   5.501
10291SOL    HW231773   3.271   0.310   5.568
10292SOL     OW31774   0.801   1.316   4.545
10292SOL    HW131775   0.761   1.406   4.564
10292SOL    HW231776   0.900   1.325   4.535
10293SOL     OW31777   1.902   6.092   3.321
10293SOL    HW131778   1.896   6.188   3.292
10293SOL    HW231779   1.988   6.077   3.370
10294SOL     OW31780   5.761   1.542   3.121
10294SOL    HW131781   5.803   1.623   3.079
10294SOL    HW231782   5.747   1.471   3.052
10295SOL     OW31783   0.566   5.551   6.303
10295SOL    HW131784   0.508   5.603   6.240
10295SOL    HW231785   0.589   5.463   6.262
10296SOL     OW31786   6.711   2.610   0.580
10296SOL    HW131787   6.655   2.688   0.552
10296SOL    HW231788   6.675   2.526   0.538
10297SOL     OW31789   1.785   5.476   5.086
10297SOL    HW131790   1.792   5.500   5.183
10297SOL    HW231791   1.872   5.494   5.041
10298SOL     OW31792   5.183   3.405   4.339
10298SOL    HW131793   5.187   3.322   4.284
10298SOL    HW231794   5.140   3.478   4.286
10299SOL     OW31795   5.149   4.322   3.346
10299SOL    HW131796   5.154   4.236   3.397
10299SOL    HW231797   5.079   4.381   3.386
10300SOL     OW31798   0.993   4.701   2.603
10300SOL    HW131799   0.913   4.646   2.581
10300SOL    HW231800   1.018   4.757   2.524
10301SOL     OW31801   5.301   1.541   1.420
10301SOL    HW131802   5.307   1.442   1.425
10301SOL    HW231803   5.309   1.570   1.325
10302SOL     OW31804   1.712   5.573   3.448
10302SOL    HW131805   1.707   5.515   3.367
10302SOL    HW231806   1.779   5.535   3.512
10303SOL     OW31807   3.280   3.048   1.476
10303SOL    HW131808   3.333   3.086   1.553
10303SOL    HW231809   3.334   3.054   1.392
10304SOL     OW31810   6.854   6.765   2.664
10304SOL    HW131811   6.846   6.666   2.650
10304SOL    HW231812   6.809   6.789   2.750
10305SOL     OW31813   1.660   5.752   1.206
10305SOL    HW131814   1.576   5.775   1.255
10305SOL    HW231815   1.721   5.832   1.205
10306SOL     OW31816   4.363   6.020   6.926
10306SOL    HW131817   4.297   5.966   6.978
10306SOL    HW231818   4.338   6.019   6.829
10307SOL     OW31819   2.164   1.514   6.036
10307SOL    HW131820   2.260   1.522   6.062
10307SOL    HW231821   2.141   1.417   6.023
10308SOL     OW31822   3.268   5.854   3.474
10308SOL    HW131823   3.202   5.791   3.515
10308SOL    HW231824   3.281   5.832   3.378
10309SOL     OW31825   0.057   6.486   3.343
10309SOL    HW131826   0.087   6.546   3.417
10309SOL    HW231827   7.001   6.523   3.302
10310SOL     OW31828   3.663   4.078   3.369
10310SOL    HW131829   3.580   4.120   3.334
10310SOL    HW231830   3.665   4.086   3.469
10311SOL     OW31831   6.874   5.288   0.342
10311SOL    HW131832   6.799   5.329   0.393
10311SOL    HW231833   6.959   5.337   0.363
10312SOL     OW31834   2.276   4.618   0.985
10312SOL    HW131835   2.212   4.545   1.008
10312SOL    HW231836   2.365   4.598   1.026
10313SOL     OW31837   5.427   6.801   3.100
10313SOL    HW131838   5.331   6.827   3.107
10313SOL    HW231839   5.471   6.857   3.029
10314SOL     OW31840   6.782   6.042   0.937
10314SOL    HW131841   6.723   5.966   0.909
10314SOL    HW231842   6.758   6.124   0.885
10315SOL     OW31843   6.073   5.174   4.874
10315SOL    HW131844   6.040   5.082   4.854
10315SOL    HW231845   6.172   5.178   4.860
10316SOL     OW31846   0.087   4.683   3.395
10316SOL    HW131847   0.087   4.599   3.449
10316SOL    HW231848   0.097   4.762   3.455
10317SOL     OW31849   3.942   4.687   0.407
10317SOL    HW131850   3.855   4.637   0.406
10317SOL    HW231851   3.965   4.715   0.313
10318SOL     OW31852   6.239   5.337   2.307
10318SOL    HW131853   6.160   5.335   2.368
10318SOL    HW231854   6.282   5.427   2.310
10319SOL     OW31855   5.864   6.451   3.101
10319SOL    HW131856   5.959   6.476   3.082
10319SOL    HW231857   5.823   6.519   3.163
10320SOL     OW31858   6.018   6.664   1.300
10320SOL    HW131859   5.975   6.622   1.380
10320SOL    HW231860   6.054   6.592   1.241
10321SOL     OW31861   4.505   5.526   4.082
10321SOL    HW131862   4.573   5.526   4.155
10321SOL    HW231863   4.517   5.607   4.025
10322SOL     OW31864   6.217   2.872   0.164
10322SOL    HW131865   6.135   2.889   0.218
10322SOL    HW231866   6.262   2.788   0.196
10323SOL     OW31867   5.213   2.950   5.122
10323SOL    HW131868   5.275   2.990   5.055
10323SOL    HW231869   5.136   3.012   5.139
10324SOL     OW31870   3.146   3.078   3.727
10324SOL    HW131871   3.161   3.070   3.826
10324SOL    HW231872   3.049   3.091   3.709
10325SOL     OW31873   6.947   3.600   3.475
10325SOL    HW131874   6.965   3.506   3.502
10325SOL    HW231875   6.974   3.662   3.550
10326SOL     OW31876   5.719   1.973   0.576
10326SOL    HW131877   5.620   1.964   0.567
10326SOL    HW231878   5.754   2.030   0.501
10327SOL     OW31879   6.888   0.956   3.368
10327SOL    HW131880   6.918   0.865   3.338
10327SOL    HW231881   6.788   0.959   3.369
10328SOL     OW31882   6.332   2.630   1.797
10328SOL    HW131883   6.299   2.538   1.815
10328SOL    HW231884   6.432   2.628   1.785
10329SOL     OW31885   3.454   6.613   2.602
10329SOL    HW131886   3.412   6.647   2.518
10329SOL    HW231887   3.547   6.581   2.583
10330SOL     OW31888   4.036   5.310   1.355
10330SOL    HW131889   4.048   5.221   1.399
10330SOL    HW231890   3.984   5.371   1.415
10331SOL     OW31891   6.075   0.525   3.247
10331SOL    HW131892   6.106   0.431   3.257
10331SOL    HW231893   6.144   0.587   3.285
10332SOL     OW31894   0.141   2.742   6.362
10332SOL    HW131895   0.215   2.790   6.314
10332SOL    HW231896   0.135   2.648   6.327
10333SOL     OW31897   4.569   4.409   4.843
10333SOL    HW131898   4.504   4.483   4.860
10333SOL    HW231899   4.519   4.324   4.829
10334SOL     OW31900   1.484   4.500   4.855
10334SOL    HW131901   1.548   4.574   4.836
10334SOL    HW231902   1.521   4.441   4.928
10335SOL     OW31903   2.081   5.284   1.611
10335SOL    HW131904   2.055   5.234   1.694
10335SOL    HW231905   2.178   5.271   1.592
10336SOL     OW31906   3.899   6.748   2.629
10336SOL    HW131907   3.824   6.691   2.593
10336SOL    HW231908   3.954   6.782   2.553
10337SOL     OW31909   0.868   5.098   5.179
10337SOL    HW131910   0.828   5.009   5.158
10337SOL    HW231911   0.848   5.122   5.274
10338SOL     OW31912   3.071   5.956   3.199
10338SOL    HW131913   2.981   5.998   3.191
10338SOL    HW231914   3.137   6.022   3.235
10339SOL     OW31915   2.988   5.774   1.085
10339SOL    HW131916   2.997   5.745   1.180
10339SOL    HW231917   3.013   5.698   1.024
10340SOL     OW31918   2.244   0.413   0.218
10340SOL    HW131919   2.283   0.420   0.126
10340SOL    HW231920   2.155   0.368   0.213
10341SOL     OW31921   1.909   1.075   2.411
10341SOL    HW131922   1.870   1.099   2.500
10341SOL    HW231923   1.890   1.149   2.346
10342SOL     OW31924   2.441   6.563   4.948
10342SOL    HW131925   2.504   6.627   4.903
10342SOL    HW231926   2.354   6.609   4.964
10343SOL     OW31927   2.174   3.311   5.170
10343SOL    HW131928   2.171   3.410   5.157
10343SOL    HW231929   2.176   3.266   5.081
10344SOL     OW31930   3.960   4.944   5.159
10344SOL    HW131931   3.942   4.919   5.064
10344SOL    HW231932   3.913   5.030   5.181
10345SOL     OW31933   1.989   1.228   6.709
10345SOL    HW131934   2.044   1.279   6.642
10345SOL    HW231935   1.945   1.151   6.663
10346SOL     OW31936   5.253   5.895   6.813
10346SOL    HW131937   5.263   5.876   6.715
10346SOL    HW231938   5.335   5.942   6.847
10347SOL     OW31939   5.668   1.792   1.972
10347SOL    HW131940   5.741   1.775   1.905
10347SOL    HW231941   5.579   1.773   1.931
10348SOL     OW31942   0.448   5.769   5.510
10348SOL    HW131943   0.460   5.718   5.596
10348SOL    HW231944   0.408   5.709   5.441
10349SOL     OW31945   0.177   1.943   0.491
10349SOL    HW131946   0.118   1.931   0.571
10349SOL    HW231947   0.120   1.956   0.410
10350SOL     OW31948   2.024   4.615   4.909
10350SOL    HW131949   2.025   4.689   4.976
10350SOL    HW231950   2.069   4.535   4.948
10351SOL     OW31951   4.780   4.388   5.044
10351SOL    HW131952   4.702   4.400   4.983
10351SOL    HW231953   4.862   4.425   5.000
10352SOL     OW31954   5.422   1.941   0.603
10352SOL    HW131955   5.369   2.026   0.607
10352SOL    HW231956   5.367   1.866   0.641
10353SOL     OW31957   6.709   2.735   3.474
10353SOL    HW131958   6.680   2.784   3.556
10353SOL    HW231959   6.799   2.693   3.490
10354SOL     OW31960   0.449   3.446   0.785
10354SOL    HW131961   0.454   3.347   0.794
10354SOL    HW231962   0.535   3.487   0.818
10355SOL     OW31963   0.988   1.289   1.032
10355SOL    HW131964   0.916   1.329   1.089
10355SOL    HW231965   1.077   1.322   1.062
10356SOL     OW31966   6.451   3.539   6.188
10356SOL    HW131967   6.466   3.636   6.167
10356SOL    HW231968   6.539   3.493   6.197
10357SOL     OW31969   1.317   2.865   5.918
10357SOL    HW131970   1.370   2.870   6.003
10357SOL    HW231971   1.365   2.807   5.853
10358SOL     OW31972   0.655   2.265   2.709
10358SOL    HW131973   0.713   2.309   2.778
10358SOL    HW231974   0.711   2.204   2.652
10359SOL     OW31975   6.386   1.700   2.475
10359SOL    HW131976   6.475   1.714   2.431
10359SOL    HW231977   6.334   1.630   2.425
10360SOL     OW31978   6.037   4.082   1.824
10360SOL    HW131979   6.133   4.103   1.809
10360SOL    HW231980   5.982   4.122   1.750
10361SOL     OW31981   0.865   1.610   1.923
10361SOL    HW131982   0.942   1.636   1.864
10361SOL    HW231983   0.781   1.611   1.870
10362SOL     OW31984   0.997   5.067   1.958
10362SOL    HW131985   0.920   5.091   1.899
10362SOL    HW231986   1.072   5.131   1.943
10363SOL     OW31987   5.142   4.411   6.739
10363SOL    HW131988   5.117   4.362   6.656
10363SOL    HW231989   5.062   4.422   6.798
10364SOL     OW31990   5.872   4.708   2.393
10364SOL    HW131991   5.968   4.737   2.395
10364SOL    HW231992   5.831   4.723   2.483
10365SOL     OW31993   5.752   5.714   0.153
10365SOL    HW131994   5.682   5.683   0.217
10365SOL    HW231995   5.729   5.681   0.061
10366SOL     OW31996   2.492   6.025   3.645
10366SOL    HW131997   2.463   6.097   3.709
10366SOL    HW231998   2.529   6.067   3.562
10367SOL     OW31999   5.796   1.359   1.610
10367SOL    HW132000   5.847   1.321   1.533
10367SOL    HW232001   5.735   1.432   1.577
10368SOL     OW32002   2.388   6.044   2.334
10368SOL    HW132003   2.335   5.971   2.379
10368SOL    HW232004   2.325   6.106   2.287
10369SOL     OW32005   3.061   0.405   6.376
10369SOL    HW132006   3.020   0.386   6.465
10369SOL    HW232007   3.086   0.319   6.332
10370SOL     OW32008   1.011   0.780   5.574
10370SOL    HW132009   1.042   0.734   5.657
10370SOL    HW232010   0.943   0.849   5.597
10371SOL     OW32011   3.975   5.705   2.950
10371SOL    HW132012   4.046   5.749   2.896
10371SOL    HW232013   3.986   5.605   2.945
10372SOL     OW32014   2.926   6.747   1.695
10372SOL    HW132015   2.930   6.671   1.630
10372SOL    HW232016   2.938   6.833   1.646
10373SOL     OW32017   0.965   1.500   5.557
10373SOL    HW132018   1.002   1.510   5.465
10373SOL    HW232019   1.038   1.507   5.624
10374SOL     OW32020   3.950   5.567   4.034
10374SOL    HW132021   3.990   5.590   3.945
10374SOL    HW232022   4.016   5.514   4.088
10375SOL     OW32023   2.450   3.793   0.053
10375SOL    HW132024   2.419   3.887   0.070
10375SOL    HW232025   2.468   3.782   6.982
10376SOL     OW32026   1.616   4.775   3.120
10376SOL    HW132027   1.597   4.703   3.052
10376SOL    HW232028   1.714   4.794   3.122
10377SOL     OW32029   1.600   0.458   2.659
10377SOL    HW132030   1.627   0.536   2.602
10377SOL    HW232031   1.500   0.452   2.660
10378SOL     OW32032   0.253   4.768   3.788
10378SOL    HW132033   0.298   4.687   3.824
10378SOL    HW232034   0.168   4.784   3.838
10379SOL     OW32035   1.877   6.216   4.725
10379SOL    HW132036   1.932   6.199   4.807
10379SOL    HW232037   1.892   6.143   4.659
10380SOL     OW32038   2.311   2.866   4.793
10380SOL    HW132039   2.335   2.769   4.781
10380SOL    HW232040   2.358   2.901   4.874
10381SOL     OW32041   4.642   4.705   2.125
10381SOL    HW132042   4.635   4.799   2.092
10381SOL    HW232043   4.726   4.694   2.177
10382SOL     OW32044   3.962   5.349   2.390
10382SOL    HW132045   3.939   5.253   2.375
10382SOL    HW232046   4.005   5.359   2.480
10383SOL     OW32047   2.172   4.242   0.526
10383SOL    HW132048   2.158   4.339   0.545
10383SOL    HW232049   2.165   4.225   0.428
10384SOL     OW32050   6.298   6.471   1.646
10384SOL    HW132051   6.309   6.401   1.717
10384SOL    HW232052   6.201   6.481   1.625
10385SOL     OW32053   4.643   4.618   6.869
10385SOL    HW132054   4.653   4.714   6.896
10385SOL    HW232055   4.637   4.561   6.950
10386SOL     OW32056   0.109   1.433   0.336
10386SOL    HW132057   0.114   1.437   0.435
10386SOL    HW232058   0.197   1.459   0.297
10387SOL     OW32059   4.876   3.018   2.206
10387SOL    HW132060   4.787   3.000   2.164
10387SOL    HW232061   4.905   3.112   2.184
10388SOL     OW32062   2.969   0.881   5.933
10388SOL    HW132063   2.910   0.804   5.956
10388SOL    HW232064   3.018   0.911   6.015
10389SOL     OW32065   1.079   3.367   0.628
10389SOL    HW132066   1.002   3.405   0.678
10389SOL    HW232067   1.045   3.304   0.558
10390SOL     OW32068   2.669   2.182   1.563
10390SOL    HW132069   2.743   2.217   1.621
10390SOL    HW232070   2.593   2.247   1.564
10391SOL     OW32071   5.609   6.812   4.686
10391SOL    HW132072   5.699   6.813   4.643
10391SOL    HW232073   5.541   6.851   4.624
10392SOL     OW32074   6.719   5.083   4.059
10392SOL    HW132075   6.799   5.055   4.007
10392SOL    HW232076   6.643   5.022   4.038
10393SOL     OW32077   1.922   4.350   3.823
10393SOL    HW132078   1.871   4.436   3.815
10393SOL    HW232079   1.948   4.317   3.732
10394SOL     OW32080   2.691   5.407   4.426
10394SOL    HW132081   2.716   5.387   4.521
10394SOL    HW232082   2.746   5.483   4.392
10395SOL     OW32083   0.388   0.107   0.415
10395SOL    HW132084   0.409   0.065   0.503
10395SOL    HW232085   0.469   0.107   0.357
10396SOL     OW32086   2.856   1.600   4.966
10396SOL    HW132087   2.819   1.690   4.944
10396SOL    HW232088   2.815   1.531   4.907
10397SOL     OW32089   3.063   2.133   2.174
10397SOL    HW132090   3.099   2.135   2.267
10397SOL    HW232091   3.009   2.215   2.157
10398SOL     OW32092   0.053   2.642   1.905
10398SOL    HW132093   0.098   2.728   1.930
10398SOL    HW232094   0.048   2.635   1.806
10399SOL     OW32095   6.712   2.905   1.683
10399SOL    HW132096   6.762   2.991   1.687
10399SOL    HW232097   6.655   2.903   1.601
10400SOL     OW32098   3.746   6.531   0.624
10400SOL    HW132099   3.721   6.441   0.589
10400SOL    HW232100   3.721   6.602   0.557
10401SOL     OW32101   6.367   0.732   4.351
10401SOL    HW132102   6.462   0.736   4.382
10401SOL    HW232103   6.311   0.687   4.420
10402SOL     OW32104   6.485   2.740   4.550
10402SOL    HW132105   6.472   2.687   4.467
10402SOL    HW232106   6.510   2.834   4.527
10403SOL     OW32107   2.771   0.471   3.515
10403SOL    HW132108   2.870   0.456   3.515
10403SOL    HW232109   2.724   0.384   3.524
10404SOL     OW32110   0.083   6.642   5.857
10404SOL    HW132111   0.152   6.594   5.803
10404SOL    HW232112   0.074   6.736   5.825
10405SOL     OW32113   0.196   1.521   5.588
10405SOL    HW132114   0.228   1.478   5.672
10405SOL    HW232115   0.267   1.516   5.517
10406SOL     OW32116   3.363   4.999   1.583
10406SOL    HW132117   3.395   4.914   1.626
10406SOL    HW232118   3.368   5.073   1.650
10407SOL     OW32119   3.526   6.448   6.436
10407SOL    HW132120   3.625   6.450   6.448
10407SOL    HW232121   3.482   6.442   6.526
10408SOL     OW32122   4.858   1.077   6.954
10408SOL    HW132123   4.761   1.100   6.956
10408SOL    HW232124   4.869   0.980   6.930
10409SOL     OW32125   6.252   4.499   0.473
10409SOL    HW132126   6.273   4.425   0.410
10409SOL    HW232127   6.164   4.540   0.449
10410SOL     OW32128   5.695   1.506   0.149
10410SOL    HW132129   5.632   1.558   0.090
10410SOL    HW232130   5.698   1.411   0.119
10411SOL     OW32131   2.628   5.336   3.124
10411SOL    HW132132   2.548   5.304   3.074
10411SOL    HW232133   2.652   5.269   3.194
10412SOL     OW32134   6.028   1.067   0.928
10412SOL    HW132135   6.025   1.017   1.014
10412SOL    HW232136   6.058   1.161   0.944
10413SOL     OW32137   0.164   1.815   1.331
10413SOL    HW132138   0.103   1.883   1.372
10413SOL    HW232139   0.241   1.799   1.393
10414SOL     OW32140   5.044   3.420   5.378
10414SOL    HW132141   5.073   3.334   5.420
10414SOL    HW232142   4.948   3.412   5.349
10415SOL     OW32143   0.726   5.913   6.380
10415SOL    HW132144   0.811   5.904   6.327
10415SOL    HW232145   0.670   5.986   6.342
10416SOL     OW32146   6.011   2.644   4.299
10416SOL    HW132147   6.104   2.680   4.296
10416SOL    HW232148   5.948   2.715   4.331
10417SOL     OW32149   3.243   5.170   4.500
10417SOL    HW132150   3.206   5.098   4.442
10417SOL    HW232151   3.306   5.130   4.567
10418SOL     OW32152   0.331   4.216   5.686
10418SOL    HW132153   0.301   4.138   5.741
10418SOL    HW232154   0.275   4.296   5.709
10419SOL     OW32155   0.617   0.626   6.979
10419SOL    HW132156   0.632   0.566   6.900
10419SOL    HW232157   0.603   0.720   6.948
10420SOL     OW32158   0.241   3.381   2.573
10420SOL    HW132159   0.316   3.406   2.633
10420SOL    HW232160   0.252   3.285   2.544
10421SOL     OW32161   1.471   1.208   3.224
10421SOL    HW132162   1.457   1.176   3.130
10421SOL    HW232163   1.406   1.281   3.244
10422SOL     OW32164   6.441   2.518   5.785
10422SOL    HW132165   6.529   2.474   5.770
10422SOL    HW232166   6.449   2.583   5.861
10423SOL     OW32167   4.681   4.589   4.223
10423SOL    HW132168   4.780   4.573   4.227
10423SOL    HW232169   4.645   4.596   4.316
10424SOL     OW32170   5.226   1.857   6.506
10424SOL    HW132171   5.164   1.933   6.528
10424SOL    HW232172   5.291   1.845   6.581
10425SOL     OW32173   1.580   6.861   2.490
10425SOL    HW132174   1.583   6.806   2.574
10425SOL    HW232175   1.659   6.922   2.486
10426SOL     OW32176   6.499   4.108   0.247
10426SOL    HW132177   6.458   4.027   0.205
10426SOL    HW232178   6.586   4.129   0.202
10427SOL     OW32179   4.304   1.953   0.773
10427SOL    HW132180   4.291   1.991   0.864
10427SOL    HW232181   4.253   2.008   0.706
10428SOL     OW32182   3.571   0.321   4.525
10428SOL    HW132183   3.640   0.373   4.475
10428SOL    HW232184   3.599   0.314   4.621
10429SOL     OW32185   6.788   5.700   1.586
10429SOL    HW132186   6.886   5.708   1.570
10429SOL    HW232187   6.764   5.604   1.602
10430SOL     OW32188   4.220   6.824   2.998
10430SOL    HW132189   4.296   6.759   2.993
10430SOL    HW232190   4.191   6.848   2.905
10431SOL     OW32191   2.915   0.450   5.376
10431SOL    HW132192   2.861   0.530   5.348
10431SOL    HW232193   2.870   0.367   5.342
10432SOL     OW32194   6.425   0.914   4.093
10432SOL    HW132195   6.525   0.914   4.097
10432SOL    HW232196   6.390   0.824   4.117
10433SOL     OW32197   2.043   6.572   2.013
10433SOL    HW132198   1.963   6.523   2.048
10433SOL    HW232199   2.123   6.550   2.070
10434SOL     OW32200   3.515   0.114   3.410
10434SOL    HW132201   3.607   0.118   3.449
10434SOL    HW232202   3.518   0.063   3.324
10435SOL     OW32203   6.459   6.609   5.006
10435SOL    HW132204   6.512   6.534   4.967
10435SOL    HW232205   6.365   6.605   4.971
10436SOL     OW32206   0.574   5.147   4.337
10436SOL    HW132207   0.666   5.162   4.374
10436SOL    HW232208   0.506   5.169   4.406
10437SOL     OW32209   5.980   5.228   5.896
10437SOL    HW132210   5.945   5.320   5.879
10437SOL    HW232211   5.970   5.173   5.813
10438SOL     OW32212   5.410   6.639   6.999
10438SOL    HW132213   5.483   6.640   6.930
10438SOL    HW232214   5.371   6.730   7.008
10439SOL     OW32215   3.756   0.340   5.460
10439SOL    HW132216   3.851   0.343   5.491
10439SOL    HW232217   3.753   0.310   5.364
10440SOL     OW32218   0.779   7.004   1.094
10440SOL    HW132219   0.680   7.008   1.090
10440SOL    HW232220   0.807   6.946   1.171
10441SOL     OW32221   5.339   1.482   6.539
10441SOL    HW132222   5.339   1.573   6.497
10441SOL    HW232223   5.268   1.477   6.609
10442SOL     OW32224   3.662   5.198   5.594
10442SOL    HW132225   3.712   5.129   5.542
10442SOL    HW232226   3.586   5.233   5.538
10443SOL     OW32227   6.134   3.927   4.875
10443SOL    HW132228   6.152   3.863   4.949
10443SOL    HW232229   6.124   3.877   4.789
10444SOL     OW32230   3.720   5.515   4.779
10444SOL    HW132231   3.650   5.463   4.730
10444SOL    HW232232   3.688   5.534   4.872
10445SOL     OW32233   6.630   5.423   4.683
10445SOL    HW132234   6.702   5.436   4.751
10445SOL    HW232235   6.671   5.403   4.594
10446SOL     OW32236   0.618   4.193   6.642
10446SOL    HW132237   0.631   4.202   6.544
10446SOL    HW232238   0.525   4.220   6.666
10447SOL     OW32239   6.715   2.119   1.037
10447SOL    HW132240   6.786   2.158   0.978
10447SOL    HW232241   6.732   2.146   1.132
10448SOL     OW32242   3.963   3.764   1.094
10448SOL    HW132243   3.991   3.695   1.161
10448SOL    HW232244   3.993   3.854   1.125
10449SOL     OW32245   2.505   5.250   4.561
10449SOL    HW132246   2.569   5.273   4.487
10449SOL    HW232247   2.420   5.216   4.521
10450SOL     OW32248   0.140   2.556   6.875
10450SOL    HW132249   0.117   2.576   6.970
10450SOL    HW232250   0.087   2.615   6.815
10451SOL     OW32251   2.544   4.584   2.917
10451SOL    HW132252   2.520   4.599   3.012
10451SOL    HW232253   2.495   4.505   2.882
10452SOL     OW32254   0.851   3.659   4.043
10452SOL    HW132255   0.803   3.605   3.974
10452SOL    HW232256   0.912   3.724   3.999
10453SOL     OW32257   5.699   5.808   1.752
10453SOL    HW132258   5.765   5.884   1.747
10453SOL    HW232259   5.679   5.788   1.848
10454SOL     OW32260   5.363   2.766   2.047
10454SOL    HW132261   5.376   2.801   1.954
10454SOL    HW232262   5.265   2.751   2.063
10455SOL     OW32263   0.441   5.261   3.917
10455SOL    HW132264   0.527   5.286   3.873
10455SOL    HW232265   0.423   5.164   3.903
10456SOL     OW32266   3.344   5.862   1.442
10456SOL    HW132267   3.417   5.919   1.478
10456SOL    HW232268   3.370   5.828   1.351
10457SOL     OW32269   3.656   4.082   3.626
10457SOL    HW132270   3.599   4.000   3.623
10457SOL    HW232271   3.737   4.064   3.681
10458SOL     OW32272   0.896   0.103   0.893
10458SOL    HW132273   0.859   0.059   0.975
10458SOL    HW232274   0.996   0.097   0.895
10459SOL     OW32275   5.486   5.208   2.098
10459SOL    HW132276   5.442   5.218   2.008
10459SOL    HW232277   5.416   5.209   2.169
10460SOL     OW32278   2.675   5.297   1.877
10460SOL    HW132279   2.709   5.330   1.789
10460SOL    HW232280   2.718   5.349   1.951
10461SOL     OW32281   2.505   6.898   6.718
10461SOL    HW132282   2.443   6.905   6.640
10461SOL    HW232283   2.565   6.978   6.719
10462SOL     OW32284   5.843   0.620   0.846
10462SOL    HW132285   5.831   0.532   0.892
10462SOL    HW232286   5.829   0.694   0.912
10463SOL     OW32287   3.063   4.497   0.174
10463SOL    HW132288   3.111   4.582   0.194
10463SOL    HW232289   2.994   4.513   0.104
10464SOL     OW32290   4.961   6.991   0.709
10464SOL    HW132291   5.053   6.952   0.719
10464SOL    HW232292   4.969   0.063   0.695
10465SOL     OW32293   0.397   5.587   5.775
10465SOL    HW132294   0.297   5.577   5.771
10465SOL    HW232295   0.434   5.515   5.834
10466SOL     OW32296   5.002   5.448   5.059
10466SOL    HW132297   4.957   5.444   4.969
10466SOL    HW232298   4.974   5.532   5.106
10467SOL     OW32299   2.264   1.667   5.366
10467SOL    HW132300   2.357   1.666   5.328
10467SOL    HW232301   2.252   1.749   5.422
10468SOL     OW32302   3.218   6.532   4.278
10468SOL    HW132303   3.302   6.580   4.253
10468SOL    HW232304   3.238   6.463   4.347
10469SOL     OW32305   1.786   4.120   0.829
10469SOL    HW132306   1.883   4.142   0.820
10469SOL    HW232307   1.731   4.193   0.787
10470SOL     OW32308   2.407   1.691   3.619
10470SOL    HW132309   2.335   1.751   3.585
10470SOL    HW232310   2.367   1.620   3.676
10471SOL     OW32311   2.838   3.765   1.499
10471SOL    HW132312   2.804   3.732   1.586
10471SOL    HW232313   2.836   3.865   1.497
10472SOL     OW32314   3.922   0.114   2.015
10472SOL    HW132315   3.997   0.124   1.949
10472SOL    HW232316   3.959   0.126   2.108
10473SOL     OW32317   5.817   6.099   6.875
10473SOL    HW132318   5.915   6.079   6.866
10473SOL    HW232319   5.805   6.196   6.898
10474SOL     OW32320   4.029   0.999   4.280
10474SOL    HW132321   4.070   1.081   4.239
10474SOL    HW232322   4.069   0.918   4.237
10475SOL     OW32323   4.128   6.985   1.284
10475SOL    HW132324   4.140   0.056   1.273
10475SOL    HW232325   4.173   6.937   1.209
10476SOL     OW32326   6.159   5.332   6.331
10476SOL    HW132327   6.167   5.296   6.238
10476SOL    HW232328   6.189   5.262   6.396
10477SOL     OW32329   5.897   4.159   4.974
10477SOL    HW132330   5.872   4.110   5.057
10477SOL    HW232331   5.960   4.104   4.920
10478SOL     OW32332   0.099   6.194   0.797
10478SOL    HW132333   0.086   6.212   0.894
10478SOL    HW232334   0.187   6.231   0.767
10479SOL     OW32335   1.921   3.864   2.481
10479SOL    HW132336   1.824   3.847   2.464
10479SOL    HW232337   1.967   3.888   2.395
10480SOL     OW32338   5.474   6.816   2.388
10480SOL    HW132339   5.451   6.913   2.380
10480SOL    HW232340   5.500   6.796   2.483
10481SOL     OW32341   1.940   0.717   5.377
10481SOL    HW132342   2.013   0.771   5.418
10481SOL    HW232343   1.862   0.714   5.439
10482SOL     OW32344   0.863   6.191   4.702
10482SOL    HW132345   0.818   6.280   4.706
10482SOL    HW232346   0.842   6.147   4.615
10483SOL     OW32347   6.714   5.821   6.419
10483SOL    HW132348   6.682   5.733   6.456
10483SOL    HW232349   6.745   5.879   6.495
10484SOL     OW32350   0.710   1.270   1.862
10484SOL    HW132351   0.670   1.361   1.853
10484SOL    HW232352   0.716   1.245   1.959
10485SOL     OW32353   3.407   3.684   3.202
10485SOL    HW132354   3.476   3.753   3.182
10485SOL    HW232355   3.451   3.601   3.236
10486SOL     OW32356   6.551   6.149   5.148
10486SOL    HW132357   6.491   6.200   5.209
10486SOL    HW232358   6.635   6.202   5.131
10487SOL     OW32359   4.666   2.231   1.973
10487SOL    HW132360   4.749   2.252   2.025
10487SOL    HW232361   4.621   2.317   1.948
10488SOL     OW32362   0.109   2.182   5.528
10488SOL    HW132363   0.126   2.090   5.562
10488SOL    HW232364   0.168   2.247   5.575
10489SOL     OW32365   5.703   4.262   3.847
10489SOL    HW132366   5.616   4.302   3.818
10489SOL    HW232367   5.749   4.223   3.767
10490SOL     OW32368   6.077   6.602   6.370
10490SOL    HW132369   6.072   6.589   6.271
10490SOL    HW232370   6.081   6.699   6.391
10491SOL     OW32371   1.011   2.865   6.345
10491SOL    HW132372   0.921   2.834   6.376
10491SOL    HW232373   1.050   2.928   6.412
10492SOL     OW32374   4.062   0.664   0.446
10492SOL    HW132375   4.028   0.634   0.535
10492SOL    HW232376   4.128   0.738   0.458
10493SOL     OW32377   3.981   5.687   0.742
10493SOL    HW132378   4.029   5.605   0.772
10493SOL    HW232379   3.895   5.661   0.698
10494SOL     OW32380   0.767   4.442   5.911
10494SOL    HW132381   0.829   4.499   5.964
10494SOL    HW232382   0.688   4.496   5.882
10495SOL     OW32383   0.864   6.502   6.378
10495SOL    HW132384   0.805   6.568   6.334
10495SOL    HW232385   0.845   6.500   6.476
10496SOL     OW32386   7.005   3.548   5.470
10496SOL    HW132387   6.933   3.498   5.421
10496SOL    HW232388   0.012   3.622   5.412
10497SOL     OW32389   2.421   6.626   1.330
10497SOL    HW132390   2.451   6.536   1.300
10497SOL    HW232391   2.370   6.618   1.415
10498SOL     OW32392   4.155   5.606   0.493
10498SOL    HW132393   4.225   5.578   0.559
10498SOL    HW232394   4.192   5.679   0.435
10499SOL     OW32395   5.963   5.068   2.091
10499SOL    HW132396   5.943   5.076   1.993
10499SOL    HW232397   6.042   5.008   2.104
10500SOL     OW32398   6.254   4.294   6.000
10500SOL    HW132399   6.322   4.367   6.004
10500SOL    HW232400   6.215   4.289   5.907
10501SOL     OW32401   2.585   5.388   2.720
10501SOL    HW132402   2.560   5.300   2.760
10501SOL    HW232403   2.682   5.405   2.737
10502SOL     OW32404   2.988   3.842   2.255
10502SOL    HW132405   2.905   3.789   2.236
10502SOL    HW232406   3.050   3.836   2.177
10503SOL     OW32407   6.113   2.742   6.631
10503SOL    HW132408   6.023   2.708   6.605
10503SOL    HW232409   6.174   2.737   6.552
10504SOL     OW32410   1.606   2.818   6.365
10504SOL    HW132411   1.704   2.831   6.380
10504SOL    HW232412   1.590   2.725   6.332
10505SOL     OW32413   6.169   6.243   1.222
10505SOL    HW132414   6.179   6.339   1.195
10505SOL    HW232415   6.137   6.238   1.316
10506SOL     OW32416   1.098   2.511   0.671
10506SOL    HW132417   1.060   2.505   0.579
10506SOL    HW232418   1.197   2.522   0.665
10507SOL     OW32419   1.642   4.765   6.451
10507SOL    HW132420   1.638   4.850   6.398
10507SOL    HW232421   1.563   4.708   6.429
10508SOL     OW32422   1.241   5.715   4.958
10508SOL    HW132423   1.148   5.735   4.990
10508SOL    HW232424   1.260   5.768   4.875
10509SOL     OW32425   5.169   2.893   3.356
10509SOL    HW132426   5.266   2.907   3.336
10509SOL    HW232427   5.114   2.954   3.299
10510SOL     OW32428   5.024   5.894   4.259
10510SOL    HW132429   5.041   5.827   4.331
10510SOL    HW232430   4.947   5.864   4.202
10511SOL     OW32431   3.768   2.139   2.260
10511SOL    HW132432   3.734   2.045   2.256
10511SOL    HW232433   3.756   2.183   2.171
10512SOL     OW32434   4.332   0.912   4.574
10512SOL    HW132435   4.275   0.846   4.526
10512SOL    HW232436   4.274   0.974   4.627
10513SOL     OW32437   5.435   3.110   1.690
10513SOL    HW132438   5.526   3.105   1.732
10513SOL    HW232439   5.377   3.169   1.746
10514SOL     OW32440   1.070   3.035   1.389
10514SOL    HW132441   1.158   3.003   1.354
10514SOL    HW232442   1.004   3.038   1.315
10515SOL     OW32443   1.801   2.853   5.051
10515SOL    HW132444   1.762   2.921   4.989
10515SOL    HW232445   1.896   2.835   5.025
10516SOL     OW32446   3.050   2.087   1.289
10516SOL    HW132447   2.967   2.095   1.234
10516SOL    HW232448   3.075   2.177   1.324
10517SOL     OW32449   0.819   3.287   3.463
10517SOL    HW132450   0.839   3.189   3.459
10517SOL    HW232451   0.900   3.335   3.497
10518SOL     OW32452   0.726   5.470   2.603
10518SOL    HW132453   0.771   5.559   2.602
10518SOL    HW232454   0.724   5.435   2.697
10519SOL     OW32455   2.747   6.187   1.182
10519SOL    HW132456   2.788   6.115   1.237
10519SOL    HW232457   2.815   6.257   1.163
10520SOL     OW32458   0.398   1.762   5.348
10520SOL    HW132459   0.411   1.860   5.331
10520SOL    HW232460   0.339   1.724   5.276
10521SOL     OW32461   6.438   3.241   1.029
10521SOL    HW132462   6.514   3.182   1.005
10521SOL    HW232463   6.463   3.337   1.014
10522SOL     OW32464   4.971   2.394   3.848
10522SOL    HW132465   5.061   2.411   3.889
10522SOL    HW232466   4.969   2.434   3.756
10523SOL     OW32467   6.920   4.814   3.593
10523SOL    HW132468   6.869   4.891   3.629
10523SOL    HW232469   7.016   4.823   3.618
10524SOL     OW32470   6.350   6.612   4.540
10524SOL    HW132471   6.320   6.700   4.502
10524SOL    HW232472   6.430   6.626   4.598
10525SOL     OW32473   4.600   1.435   5.080
10525SOL    HW132474   4.653   1.455   4.998
10525SOL    HW232475   4.518   1.384   5.056
10526SOL     OW32476   1.303   5.193   0.565
10526SOL    HW132477   1.369   5.220   0.635
10526SOL    HW232478   1.259   5.274   0.526
10527SOL     OW32479   0.692   0.481   4.772
10527SOL    HW132480   0.695   0.387   4.739
10527SOL    HW232481   0.598   0.515   4.769
10528SOL     OW32482   1.118   4.137   6.091
10528SOL    HW132483   1.031   4.146   6.141
10528SOL    HW232484   1.181   4.081   6.144
10529SOL     OW32485   0.796   6.180   6.845
10529SOL    HW132486   0.800   6.083   6.821
10529SOL    HW232487   0.818   6.191   6.942
10530SOL     OW32488   0.200   6.615   0.635
10530SOL    HW132489   0.118   6.671   0.618
10530SOL    HW232490   0.281   6.673   0.635
10531SOL     OW32491   2.613   2.773   5.353
10531SOL    HW132492   2.712   2.782   5.359
10531SOL    HW232493   2.576   2.844   5.292
10532SOL     OW32494   5.461   6.184   6.665
10532SOL    HW132495   5.456   6.148   6.759
10532SOL    HW232496   5.556   6.187   6.635
10533SOL     OW32497   2.862   5.465   3.536
10533SOL    HW132498   2.772   5.459   3.579
10533SOL    HW232499   2.928   5.412   3.590
10534SOL     OW32500   1.075   6.122   2.432
10534SOL    HW132501   1.068   6.167   2.343
10534SOL    HW232502   0.987   6.124   2.478
10535SOL     OW32503   3.052   2.197   2.862
10535SOL    HW132504   3.009   2.223   2.775
10535SOL    HW232505   3.134   2.142   2.843
10536SOL     OW32506   5.417   2.020   4.219
10536SOL    HW132507   5.359   2.101   4.204
10536SOL    HW232508   5.511   2.042   4.194
10537SOL     OW32509   4.338   6.999   3.193
10537SOL    HW132510   4.313   6.938   3.118
10537SOL    HW232511   4.261   0.033   3.212
10538SOL     OW32512   6.570   2.919   2.854
10538SOL    HW132513   6.505   2.959   2.790
10538SOL    HW232514   6.551   2.952   2.947
10539SOL     OW32515   6.764   0.263   2.976
10539SOL    HW132516   6.741   0.179   2.926
10539SOL    HW232517   6.863   0.267   2.990
10540SOL     OW32518   2.680   3.703   5.972
10540SOL    HW132519   2.634   3.616   5.956
10540SOL    HW232520   2.764   3.707   5.918
10541SOL     OW32521   2.903   3.278   4.914
10541SOL    HW132522   2.929   3.248   5.006
10541SOL    HW232523   2.807   3.254   4.898
10542SOL     OW32524   5.181   6.925   4.092
10542SOL    HW132525   5.223   7.007   4.130
10542SOL    HW232526   5.195   6.848   4.155
10543SOL     OW32527   0.369   3.314   5.057
10543SOL    HW132528   0.396   3.223   5.026
10543SOL    HW232529   0.440   3.380   5.033
10544SOL     OW32530   1.666   0.685   3.565
10544SOL    HW132531   1.704   0.768   3.525
10544SOL    HW232532   1.695   0.605   3.512
10545SOL     OW32533   2.037   2.001   2.662
10545SOL    HW132534   2.105   2.074   2.674
10545SOL    HW232535   2.053   1.930   2.730
10546SOL     OW32536   3.176   6.882   0.561
10546SOL    HW132537   3.158   6.884   0.660
10546SOL    HW232538   3.240   6.809   0.541
10547SOL     OW32539   4.175   0.116   4.964
10547SOL    HW132540   4.262   0.079   4.931
10547SOL    HW232541   4.120   0.146   4.886
10548SOL     OW32542   0.813   4.931   4.277
10548SOL    HW132543   0.905   4.906   4.308
10548SOL    HW232544   0.749   4.858   4.299
10549SOL     OW32545   0.243   1.351   1.166
10549SOL    HW132546   0.237   1.330   1.069
10549SOL    HW232547   0.301   1.283   1.211
10550SOL     OW32548   3.959   6.162   3.586
10550SOL    HW132549   4.006   6.239   3.630
10550SOL    HW232550   3.986   6.077   3.631
10551SOL     OW32551   2.878   2.037   6.108
10551SOL    HW132552   2.931   2.119   6.131
10551SOL    HW232553   2.843   2.045   6.015
10552SOL     OW32554   3.419   0.499   4.357
10552SOL    HW132555   3.468   0.445   4.425
10552SOL    HW232556   3.385   0.583   4.398
10553SOL     OW32557   0.039   5.089   0.374
10553SOL    HW132558   0.077   5.054   0.460
10553SOL    HW232559   6.974   5.122   0.388
10554SOL     OW32560   5.908   4.898   2.693
10554SOL    HW132561   5.979   4.850   2.744
10554SOL    HW232562   5.820   4.853   2.709
10555SOL     OW32563   3.627   2.508   0.816
10555SOL    HW132564   3.529   2.497   0.799
10555SOL    HW232565   3.660   2.589   0.767
10556SOL     OW32566   2.105   1.829   3.062
10556SOL    HW132567   2.109   1.808   2.964
10556SOL    HW232568   2.198   1.832   3.098
10557SOL     OW32569   2.199   3.979   3.880
10557SOL    HW132570   2.199   4.048   3.953
10557SOL    HW232571   2.148   3.899   3.910
10558SOL     OW32572   2.617   5.582   5.812
10558SOL    HW132573   2.604   5.595   5.910
10558SOL    HW232574   2.631   5.484   5.793
10559SOL     OW32575   4.224   6.804   6.060
10559SOL    HW132576   4.219   6.707   6.084
10559SOL    HW232577   4.187   6.817   5.969
10560SOL     OW32578   5.089   6.398   1.897
10560SOL    HW132579   5.164   6.348   1.940
10560SOL    HW232580   5.103   6.496   1.909
10561SOL     OW32581   6.005   4.590   0.409
10561SOL    HW132582   5.924   4.650   0.412
10561SOL    HW232583   6.061   4.616   0.330
10562SOL     OW32584   3.526   6.153   2.158
10562SOL    HW132585   3.567   6.171   2.248
10562SOL    HW232586   3.430   6.131   2.170
10563SOL     OW32587   0.188   0.506   0.929
10563SOL    HW132588   0.267   0.553   0.890
10563SOL    HW232589   0.104   0.546   0.893
10564SOL     OW32590   5.839   5.508   4.136
10564SOL    HW132591   5.914   5.453   4.098
10564SOL    HW232592   5.848   5.511   4.235
10565SOL     OW32593   0.285   6.950   5.503
10565SOL    HW132594   0.316   7.018   5.437
10565SOL    HW232595   0.199   6.910   5.471
10566SOL     OW32596   2.792   3.065   6.949
10566SOL    HW132597   2.777   3.082   0.019
10566SOL    HW232598   2.888   3.039   6.934
10567SOL     OW32599   1.027   2.249   6.058
10567SOL    HW132600   0.996   2.328   6.110
10567SOL    HW232601   0.966   2.171   6.076
10568SOL     OW32602   5.368   2.465   5.760
10568SOL    HW132603   5.319   2.378   5.758
10568SOL    HW232604   5.444   2.463   5.695
10569SOL     OW32605   5.543   6.422   0.899
10569SOL    HW132606   5.532   6.331   0.939
10569SOL    HW232607   5.579   6.485   0.968
10570SOL     OW32608   0.921   4.978   3.833
10570SOL    HW132609   0.953   4.889   3.866
10570SOL    HW232610   0.821   4.982   3.841
10571SOL     OW32611   0.198   4.176   6.309
10571SOL    HW132612   0.277   4.117   6.295
10571SOL    HW232613   0.203   4.220   6.399
10572SOL     OW32614   6.071   4.242   0.884
10572SOL    HW132615   6.049   4.269   0.790
10572SOL    HW232616   5.991   4.255   0.942
10573SOL     OW32617   5.495   1.556   3.509
10573SOL    HW132618   5.592   1.579   3.516
10573SOL    HW232619   5.469   1.551   3.412
10574SOL     OW32620   0.344   1.914   3.549
10574SOL    HW132621   0.303   1.826   3.526
10574SOL    HW232622   0.304   1.949   3.633
10575SOL     OW32623   6.057   0.790   1.484
10575SOL    HW132624   6.157   0.794   1.482
10575SOL    HW232625   6.025   0.722   1.418
10576SOL     OW32626   2.442   4.570   4.008
10576SOL    HW132627   2.498   4.543   4.086
10576SOL    HW232628   2.500   4.609   3.937
10577SOL     OW32629   4.004   5.978   0.609
10577SOL    HW132630   4.087   5.942   0.567
10577SOL    HW232631   3.953   5.904   0.652
10578SOL     OW32632   6.643   3.077   4.077
10578SOL    HW132633   6.561   3.129   4.098
10578SOL    HW232634   6.642   3.049   3.981
10579SOL     OW32635   1.772   3.751   0.439
10579SOL    HW132636   1.794   3.822   0.372
10579SOL    HW232637   1.757   3.792   0.528
10580SOL     OW32638   6.685   6.807   6.354
10580SOL    HW132639   6.744   6.727   6.346
10580SOL    HW232640   6.683   6.856   6.267
10581SOL     OW32641   5.639   0.154   2.783
10581SOL    HW132642   5.609   0.220   2.851
10581SOL    HW232643   5.601   0.064   2.805
10582SOL     OW32644   5.606   4.203   6.776
10582SOL    HW132645   5.525   4.148   6.797
10582SOL    HW232646   5.643   4.240   6.861
10583SOL     OW32647   2.944   1.156   5.384
10583SOL    HW132648   2.887   1.074   5.382
10583SOL    HW232649   3.004   1.153   5.465
10584SOL     OW32650   0.081   0.137   5.609
10584SOL    HW132651   0.007   0.186   5.655
10584SOL    HW232652   0.168   0.180   5.631
10585SOL     OW32653   0.621   0.539   5.389
10585SOL    HW132654   0.656   0.485   5.313
10585SOL    HW232655   0.522   0.532   5.393
10586SOL     OW32656   4.305   4.746   5.346
10586SOL    HW132657   4.267   4.812   5.410
10586SOL    HW232658   4.234   4.682   5.318
10587SOL     OW32659   1.514   5.867   5.599
10587SOL    HW132660   1.452   5.804   5.553
10587SOL    HW232661   1.581   5.814   5.652
10588SOL     OW32662   1.100   4.923   4.341
10588SOL    HW132663   1.165   4.850   4.361
10588SOL    HW232664   1.065   4.961   4.426
10589SOL     OW32665   5.573   5.797   3.701
10589SOL    HW132666   5.528   5.716   3.663
10589SOL    HW232667   5.593   5.862   3.628
10590SOL     OW32668   0.700   5.564   3.042
10590SOL    HW132669   0.770   5.587   3.110
10590SOL    HW232670   0.707   5.627   2.965
10591SOL     OW32671   1.315   2.003   1.738
10591SOL    HW132672   1.309   1.940   1.815
10591SOL    HW232673   1.286   2.094   1.767
10592SOL     OW32674   6.118   2.158   5.288
10592SOL    HW132675   6.045   2.091   5.273
10592SOL    HW232676   6.200   2.129   5.239
10593SOL     OW32677   3.107   6.180   1.976
10593SOL    HW132678   3.060   6.205   1.892
10593SOL    HW232679   3.201   6.216   1.974
10594SOL     OW32680   2.940   0.197   3.815
10594SOL    HW132681   2.843   0.223   3.810
10594SOL    HW232682   2.948   0.108   3.858
10595SOL     OW32683   6.315   6.753   0.801
10595SOL    HW132684   6.276   6.662   0.809
10595SOL    HW232685   6.399   6.749   0.745
10596SOL     OW32686   5.160   2.296   6.771
10596SOL    HW132687   5.086   2.231   6.791
10596SOL    HW232688   5.243   2.267   6.818
10597SOL     OW32689   2.520   0.832   6.096
10597SOL    HW132690   2.536   0.735   6.077
10597SOL    HW232691   2.431   0.859   6.058
10598SOL     OW32692   2.526   1.806   6.196
10598SOL    HW132693   2.619   1.805   6.159
10598SOL    HW232694   2.530   1.825   6.294
10599SOL     OW32695   6.706   3.292   6.140
10599SOL    HW132696   6.761   3.369   6.108
10599SOL    HW232697   6.758   3.207   6.130
10600SOL     OW32698   2.956   1.675   1.405
10600SOL    HW132699   2.865   1.714   1.386
10600SOL    HW232700   2.946   1.577   1.426
10601SOL     OW32701   0.423   6.217   5.733
10601SOL    HW132702   0.511   6.227   5.780
10601SOL    HW232703   0.349   6.236   5.796
10602SOL     OW32704   0.258   0.331   1.144
10602SOL    HW132705   0.348   0.291   1.163
10602SOL    HW232706   0.262   0.381   1.057
10603SOL     OW32707   4.772   0.144   1.968
10603SOL    HW132708   4.852   0.085   1.964
10603SOL    HW232709   4.778   0.213   1.896
10604SOL     OW32710   5.855   6.844   4.564
10604SOL    HW132711   5.849   6.758   4.615
10604SOL    HW232712   5.927   6.837   4.495
10605SOL     OW32713   2.474   1.895   1.374
10605SOL    HW132714   2.542   1.853   1.315
10605SOL    HW232715   2.518   1.930   1.457
10606SOL     OW32716   6.356   0.809   0.878
10606SOL    HW132717   6.379   0.819   0.781
10606SOL    HW232718   6.354   0.712   0.902
10607SOL     OW32719   3.816   4.077   6.448
10607SOL    HW132720   3.853   4.080   6.541
10607SOL    HW232721   3.718   4.056   6.452
10608SOL     OW32722   5.949   3.446   3.188
10608SOL    HW132723   5.893   3.444   3.271
10608SOL    HW232724   5.896   3.412   3.110
10609SOL     OW32725   4.282   1.519   6.820
10609SOL    HW132726   4.344   1.455   6.775
10609SOL    HW232727   4.270   1.600   6.763
10610SOL     OW32728   1.158   1.124   4.172
10610SOL    HW132729   1.223   1.155   4.103
10610SOL    HW232730   1.068   1.161   4.153
10611SOL     OW32731   3.326   5.649   5.134
10611SOL    HW132732   3.227   5.660   5.139
10611SOL    HW232733   3.351   5.555   5.156
10612SOL     OW32734   5.923   1.577   3.363
10612SOL    HW132735   5.862   1.595   3.440
10612SOL    HW232736   5.868   1.547   3.284
10613SOL     OW32737   5.696   0.308   4.183
10613SOL    HW132738   5.742   0.301   4.095
10613SOL    HW232739   5.672   0.216   4.215
10614SOL     OW32740   4.611   0.732   6.192
10614SOL    HW132741   4.602   0.741   6.292
10614SOL    HW232742   4.641   0.819   6.154
10615SOL     OW32743   1.663   1.889   6.106
10615SOL    HW132744   1.624   1.971   6.064
10615SOL    HW232745   1.706   1.913   6.193
10616SOL     OW32746   2.560   6.527   6.606
10616SOL    HW132747   2.615   6.562   6.530
10616SOL    HW232748   2.600   6.556   6.693
10617SOL     OW32749   2.951   3.295   1.190
10617SOL    HW132750   2.931   3.391   1.207
10617SOL    HW232751   2.943   3.276   1.092
10618SOL     OW32752   0.398   5.517   5.364
10618SOL    HW132753   0.462   5.499   5.439
10618SOL    HW232754   0.438   5.484   5.278
10619SOL     OW32755   1.402   2.376   3.539
10619SOL    HW132756   1.347   2.446   3.586
10619SOL    HW232757   1.354   2.348   3.456
10620SOL     OW32758   2.509   0.539   6.995
10620SOL    HW132759   2.525   0.587   0.054
10620SOL    HW232760   2.559   0.585   6.922
10621SOL     OW32761   0.795   3.718   3.275
10621SOL    HW132762   0.779   3.741   3.371
10621SOL    HW232763   0.858   3.641   3.269
10622SOL     OW32764   4.568   3.111   0.377
10622SOL    HW132765   4.523   3.169   0.310
10622SOL    HW232766   4.513   3.105   0.460
10623SOL     OW32767   5.669   6.389   6.511
10623SOL    HW132768   5.590   6.442   6.540
10623SOL    HW232769   5.749   6.417   6.563
10624SOL     OW32770   0.311   2.453   5.238
10624SOL    HW132771   0.368   2.494   5.310
10624SOL    HW232772   0.366   2.387   5.186
10625SOL     OW32773   6.532   4.751   6.530
10625SOL    HW132774   6.443   4.771   6.570
10625SOL    HW232775   6.604   4.794   6.584
10626SOL     OW32776   5.254   3.360   1.147
10626SOL    HW132777   5.252   3.362   1.047
10626SOL    HW232778   5.273   3.267   1.178
10627SOL     OW32779   5.266   6.205   5.937
10627SOL    HW132780   5.294   6.264   5.862
10627SOL    HW232781   5.343   6.149   5.966
10628SOL     OW32782   4.582   0.232   1.137
10628SOL    HW132783   4.641   0.242   1.057
10628SOL    HW232784   4.583   0.317   1.190
10629SOL     OW32785   2.899   5.253   4.349
10629SOL    HW132786   2.816   5.303   4.374
10629SOL    HW232787   2.914   5.179   4.413
10630SOL     OW32788   4.200   0.171   2.739
10630SOL    HW132789   4.104   0.152   2.756
10630SOL    HW232790   4.213   0.270   2.731
10631SOL     OW32791   4.300   6.065   6.672
10631SOL    HW132792   4.349   6.138   6.623
10631SOL    HW232793   4.210   6.051   6.631
10632SOL     OW32794   4.701   5.687   3.346
10632SOL    HW132795   4.676   5.606   3.400
10632SOL    HW232796   4.617   5.734   3.318
10633SOL     OW32797   1.807   2.799   1.690
10633SOL    HW132798   1.871   2.814   1.615
10633SOL    HW232799   1.793   2.885   1.740
10634SOL     OW32800   6.994   4.293   6.921
10634SOL    HW132801   0.006   4.381   6.950
10634SOL    HW232802   6.906   4.309   6.879
10635SOL     OW32803   2.697   3.668   6.898
10635SOL    HW132804   2.670   3.594   6.960
10635SOL    HW232805   2.675   3.643   6.804
10636SOL     OW32806   6.789   2.367   6.303
10636SOL    HW132807   6.720   2.388   6.373
10636SOL    HW232808   6.876   2.346   6.347
10637SOL     OW32809   2.949   0.195   0.148
10637SOL    HW132810   3.036   0.158   0.118
10637SOL    HW232811   2.955   0.223   0.244
10638SOL     OW32812   0.099   5.030   1.870
10638SOL    HW132813   0.060   5.032   1.962
10638SOL    HW232814   0.044   4.971   1.811
10639SOL     OW32815   2.095   4.422   1.039
10639SOL    HW132816   2.036   4.365   1.096
10639SOL    HW232817   2.139   4.366   0.969
10640SOL     OW32818   4.021   6.777   3.191
10640SOL    HW132819   4.051   6.711   3.259
10640SOL    HW232820   4.100   6.808   3.137
10641SOL     OW32821   0.970   0.098   3.610
10641SOL    HW132822   0.999   0.162   3.539
10641SOL    HW232823   0.961   0.146   3.697
10642SOL     OW32824   5.288   2.287   6.511
10642SOL    HW132825   5.285   2.385   6.493
10642SOL    HW232826   5.289   2.271   6.610
10643SOL     OW32827   1.613   4.937   5.879
10643SOL    HW132828   1.674   4.987   5.817
10643SOL    HW232829   1.656   4.930   5.969
10644SOL     OW32830   0.790   2.386   2.900
10644SOL    HW132831   0.878   2.360   2.861
10644SOL    HW232832   0.795   2.479   2.937
10645SOL     OW32833   2.376   2.776   3.605
10645SOL    HW132834   2.453   2.715   3.589
10645SOL    HW232835   2.356   2.780   3.703
10646SOL     OW32836   5.204   1.344   4.001
10646SOL    HW132837   5.294   1.302   3.993
10646SOL    HW232838   5.205   1.413   4.073
10647SOL     OW32839   3.883   5.291   4.749
10647SOL    HW132840   3.874   5.225   4.675
10647SOL    HW232841   3.817   5.365   4.736
10648SOL     OW32842   5.744   5.661   5.050
10648SOL    HW132843   5.718   5.721   5.126
10648SOL    HW232844   5.831   5.616   5.072
10649SOL     OW32845   6.949   3.617   3.191
10649SOL    HW132846   6.961   3.711   3.159
10649SOL    HW232847   6.972   3.611   3.288
10650SOL     OW32848   0.049   0.615   4.272
10650SOL    HW132849   0.065   0.644   4.178
10650SOL    HW232850   6.990   0.654   4.305
10651SOL     OW32851   4.115   5.950   5.851
10651SOL    HW132852   4.091   5.890   5.775
10651SOL    HW232853   4.213   5.970   5.848
10652SOL     OW32854   1.858   6.731   6.887
10652SOL    HW132855   1.812   6.819   6.874
10652SOL    HW232856   1.947   6.746   6.929
10653SOL     OW32857   3.722   6.151   4.318
10653SOL    HW132858   3.700   6.232   4.264
10653SOL    HW232859   3.820   6.147   4.333
10654SOL     OW32860   5.582   1.559   4.826
10654SOL    HW132861   5.607   1.568   4.923
10654SOL    HW232862   5.601   1.645   4.779
10655SOL     OW32863   1.178   4.815   1.439
10655SOL    HW132864   1.260   4.832   1.495
10655SOL    HW232865   1.203   4.756   1.361
10656SOL     OW32866   6.720   1.533   1.572
10656SOL    HW132867   6.719   1.601   1.646
10656SOL    HW232868   6.781   1.457   1.598
10657SOL     OW32869   5.800   0.692   3.865
10657SOL    HW132870   5.858   0.710   3.786
10657SOL    HW232871   5.730   0.763   3.871
10658SOL     OW32872   6.519   3.824   5.009
10658SOL    HW132873   6.579   3.889   4.961
10658SOL    HW232874   6.507   3.855   5.104
10659SOL     OW32875   1.116   5.200   1.529
10659SOL    HW132876   1.081   5.113   1.495
10659SOL    HW232877   1.040   5.254   1.566
10660SOL     OW32878   6.759   3.435   5.329
10660SOL    HW132879   6.737   3.338   5.338
10660SOL    HW232880   6.699   3.477   5.262
10661SOL     OW32881   1.770   3.971   6.819
10661SOL    HW132882   1.783   4.064   6.785
10661SOL    HW232883   1.729   3.975   6.911
10662SOL     OW32884   2.564   1.369   3.128
10662SOL    HW132885   2.618   1.343   3.207
10662SOL    HW232886   2.599   1.455   3.090
10663SOL     OW32887   1.883   1.486   4.134
10663SOL    HW132888   1.845   1.483   4.227
10663SOL    HW232889   1.962   1.424   4.129
10664SOL     OW32890   1.369   5.368   4.361
10664SOL    HW132891   1.365   5.337   4.456
10664SOL    HW232892   1.287   5.421   4.339
10665SOL     OW32893   2.191   2.828   6.193
10665SOL    HW132894   2.147   2.794   6.276
10665SOL    HW232895   2.130   2.814   6.115
10666SOL     OW32896   3.806   3.662   2.136
10666SOL    HW132897   3.753   3.621   2.062
10666SOL    HW232898   3.900   3.626   2.134
10667SOL     OW32899   5.739   2.089   2.767
10667SOL    HW132900   5.738   2.064   2.864
10667SOL    HW232901   5.661   2.149   2.748
10668SOL     OW32902   3.261   2.190   5.346
10668SOL    HW132903   3.236   2.120   5.280
10668SOL    HW232904   3.244   2.281   5.306
10669SOL     OW32905   5.322   1.107   1.072
10669SOL    HW132906   5.417   1.080   1.060
10669SOL    HW232907   5.317   1.186   1.134
10670SOL     OW32908   5.221   3.871   4.137
10670SOL    HW132909   5.241   3.951   4.195
10670SOL    HW232910   5.139   3.889   4.083
10671SOL     OW32911   1.205   1.891   4.065
10671SOL    HW132912   1.107   1.905   4.079
10671SOL    HW232913   1.219   1.821   3.994
10672SOL     OW32914   5.922   3.517   1.929
10672SOL    HW132915   5.847   3.466   1.886
10672SOL    HW232916   5.983   3.453   1.976
10673SOL     OW32917   1.705   1.173   1.403
10673SOL    HW132918   1.728   1.091   1.351
10673SOL    HW232919   1.782   1.197   1.463
10674SOL     OW32920   3.982   3.172   4.652
10674SOL    HW132921   4.027   3.237   4.590
10674SOL    HW232922   4.034   3.086   4.653
10675SOL     OW32923   3.912   6.972   5.791
10675SOL    HW132924   3.931   7.001   5.885
10675SOL    HW232925   3.960   0.004   5.727
10676SOL     OW32926   1.369   6.093   5.428
10676SOL    HW132927   1.422   6.037   5.492
10676SOL    HW232928   1.430   6.158   5.382
10677SOL     OW32929   0.668   1.972   0.580
10677SOL    HW132930   0.574   2.005   0.572
10677SOL    HW232931   0.679   1.926   0.668
10678SOL     OW32932   4.191   5.342   3.664
10678SOL    HW132933   4.190   5.371   3.568
10678SOL    HW232934   4.108   5.374   3.709
10679SOL     OW32935   4.645   4.233   0.190
10679SOL    HW132936   4.743   4.255   0.193
10679SOL    HW232937   4.633   4.140   0.156
10680SOL     OW32938   3.850   1.843   3.927
10680SOL    HW132939   3.785   1.882   3.863
10680SOL    HW232940   3.800   1.793   3.998
10681SOL     OW32941   6.633   3.304   6.400
10681SOL    HW132942   6.661   3.307   6.304
10681SOL    HW232943   6.555   3.242   6.409
10682SOL     OW32944   6.254   3.040   5.452
10682SOL    HW132945   6.332   3.066   5.395
10682SOL    HW232946   6.284   3.033   5.547
10683SOL     OW32947   3.877   0.463   3.400
10683SOL    HW132948   3.907   0.368   3.396
10683SOL    HW232949   3.788   0.468   3.445
10684SOL     OW32950   5.178   4.479   0.994
10684SOL    HW132951   5.205   4.392   1.036
10684SOL    HW232952   5.088   4.506   1.030
10685SOL     OW32953   0.388   5.060   1.904
10685SOL    HW132954   0.288   5.056   1.904
10685SOL    HW232955   0.417   5.155   1.894
10686SOL     OW32956   2.117   4.177   0.247
10686SOL    HW132957   2.081   4.085   0.259
10686SOL    HW232958   2.210   4.172   0.210
10687SOL     OW32959   6.534   4.553   3.085
10687SOL    HW132960   6.634   4.555   3.084
10687SOL    HW232961   6.501   4.479   3.026
10688SOL     OW32962   5.747   1.287   2.276
10688SOL    HW132963   5.668   1.340   2.244
10688SOL    HW232964   5.785   1.236   2.198
10689SOL     OW32965   0.160   6.984   1.800
10689SOL    HW132966   0.106   6.921   1.855
10689SOL    HW232967   0.199   0.028   1.859
10690SOL     OW32968   6.438   6.114   3.432
10690SOL    HW132969   6.409   6.034   3.378
10690SOL    HW232970   6.443   6.089   3.528
10691SOL     OW32971   3.183   1.881   2.148
10691SOL    HW132972   3.119   1.956   2.163
10691SOL    HW232973   3.268   1.899   2.199
10692SOL     OW32974   2.639   0.878   4.983
10692SOL    HW132975   2.591   0.804   5.031
10692SOL    HW232976   2.667   0.846   4.893
10693SOL     OW32977   0.795   5.854   1.515
10693SOL    HW132978   0.790   5.952   1.535
10693SOL    HW232979   0.889   5.822   1.524
10694SOL     OW32980   4.709   5.916   6.084
10694SOL    HW132981   4.710   5.919   5.984
10694SOL    HW232982   4.694   5.822   6.114
10695SOL     OW32983   1.073   3.420   1.150
10695SOL    HW132984   1.070   3.519   1.140
10695SOL    HW232985   1.087   3.397   1.247
10696SOL     OW32986   6.671   4.345   5.137
10696SOL    HW132987   6.591   4.292   5.108
10696SOL    HW232988   6.713   4.302   5.216
10697SOL     OW32989   0.810   6.004   4.949
10697SOL    HW132990   0.756   5.938   4.897
10697SOL    HW232991   0.874   6.051   4.887
10698SOL     OW32992   4.888   4.396   6.828
10698SOL    HW132993   4.873   4.440   6.916
10698SOL    HW232994   4.847   4.452   6.755
10699SOL     OW32995   3.741   4.360   0.846
10699SOL    HW132996   3.756   4.453   0.812
10699SOL    HW232997   3.659   4.358   0.903
10700SOL     OW32998   5.857   6.811   0.339
10700SOL    HW132999   5.784   6.784   0.401
10700SOL    HW233000   5.852   6.756   0.255
10701SOL     OW33001   2.558   0.125   6.356
10701SOL    HW133002   2.626   0.081   6.297
10701SOL    HW233003   2.602   0.194   6.412
10702SOL     OW33004   4.982   3.146   2.721
10702SOL    HW133005   4.961   3.185   2.632
10702SOL    HW233006   5.014   3.218   2.782
10703SOL     OW33007   2.247   2.282   5.691
10703SOL    HW133008   2.263   2.380   5.683
10703SOL    HW233009   2.306   2.245   5.763
10704SOL     OW33010   6.949   5.478   2.329
10704SOL    HW133011   6.894   5.532   2.393
10704SOL    HW233012   6.949   5.382   2.358
10705SOL     OW33013   5.779   4.619   1.179
10705SOL    HW133014   5.730   4.623   1.266
10705SOL    HW233015   5.716   4.639   1.104
10706SOL     OW33016   4.318   0.059   2.088
10706SOL    HW133017   4.282   0.092   2.001
10706SOL    HW233018   4.418   0.062   2.086
10707SOL     OW33019   6.386   6.854   4.345
10707SOL    HW133020   6.342   6.916   4.410
10707SOL    HW233021   6.400   6.902   4.258
10708SOL     OW33022   4.971   1.542   2.499
10708SOL    HW133023   5.022   1.457   2.516
10708SOL    HW233024   5.013   1.617   2.549
10709SOL     OW33025   5.580   5.464   3.760
10709SOL    HW133026   5.569   5.490   3.857
10709SOL    HW233027   5.631   5.378   3.754
10710SOL     OW33028   5.592   0.730   3.109
10710SOL    HW133029   5.615   0.808   3.050
10710SOL    HW233030   5.669   0.711   3.171
10711SOL     OW33031   2.525   6.606   3.751
10711SOL    HW133032   2.472   6.552   3.816
10711SOL    HW233033   2.472   6.622   3.668
10712SOL     OW33034   4.196   0.461   2.724
10712SOL    HW133035   4.192   0.555   2.758
10712SOL    HW233036   4.260   0.456   2.648
10713SOL     OW33037   1.459   2.798   0.310
10713SOL    HW133038   1.383   2.799   0.375
10713SOL    HW233039   1.541   2.765   0.357
10714SOL     OW33040   4.227   3.019   5.353
10714SOL    HW133041   4.200   2.939   5.405
10714SOL    HW233042   4.147   3.078   5.338
10715SOL     OW33043   4.952   0.354   2.135
10715SOL    HW133044   4.884   0.288   2.166
10715SOL    HW233045   4.922   0.395   2.048
10716SOL     OW33046   6.849   2.712   3.028
10716SOL    HW133047   6.856   2.794   2.971
10716SOL    HW233048   6.835   2.632   2.970
10717SOL     OW33049   1.779   3.019   0.732
10717SOL    HW133050   1.815   2.926   0.730
10717SOL    HW233051   1.727   3.037   0.649
10718SOL     OW33052   1.406   4.648   6.361
10718SOL    HW133053   1.394   4.659   6.263
10718SOL    HW233054   1.359   4.566   6.392
10719SOL     OW33055   5.918   5.922   3.541
10719SOL    HW133056   5.927   5.843   3.602
10719SOL    HW233057   5.824   5.954   3.541
10720SOL     OW33058   5.748   5.291   4.373
10720SOL    HW133059   5.727   5.388   4.385
10720SOL    HW233060   5.718   5.261   4.283
10721SOL     OW33061   5.041   3.906   5.408
10721SOL    HW133062   5.005   3.975   5.471
10721SOL    HW233063   5.044   3.942   5.315
10722SOL     OW33064   6.108   4.073   6.886
10722SOL    HW133065   6.066   4.095   6.798
10722SOL    HW233066   6.107   3.974   6.900
10723SOL     OW33067   6.956   1.950   6.303
10723SOL    HW133068   6.991   1.964   6.396
10723SOL    HW233069   6.978   2.029   6.247
10724SOL     OW33070   0.224   6.775   6.453
10724SOL    HW133071   0.190   6.737   6.366
10724SOL    HW233072   0.214   6.706   6.525
10725SOL     OW33073   2.134   5.893   5.491
10725SOL    HW133074   2.221   5.943   5.494
10725SOL    HW233075   2.078   5.929   5.416
10726SOL     OW33076   4.174   0.404   4.213
10726SOL    HW133077   4.195   0.354   4.297
10726SOL    HW233078   4.247   0.390   4.146
10727SOL     OW33079   0.749   5.061   6.645
10727SOL    HW133080   0.745   4.962   6.634
10727SOL    HW233081   0.843   5.088   6.666
10728SOL     OW33082   0.998   4.896   7.011
10728SOL    HW133083   0.981   4.959   6.935
10728SOL    HW233084   0.914   4.847   0.006
10729SOL     OW33085   6.359   1.578   2.073
10729SOL    HW133086   6.458   1.564   2.077
10729SOL    HW233087   6.339   1.659   2.018
10730SOL     OW33088   3.523   6.903   0.687
10730SOL    HW133089   3.497   6.952   0.605
10730SOL    HW233090   3.502   6.805   0.677
10731SOL     OW33091   3.631   0.848   1.058
10731SOL    HW133092   3.642   0.934   1.108
10731SOL    HW233093   3.628   0.772   1.122
10732SOL     OW33094   0.695   4.496   5.566
10732SOL    HW133095   0.682   4.409   5.614
10732SOL    HW233096   0.614   4.553   5.580
10733SOL     OW33097   6.420   1.218   6.930
10733SOL    HW133098   6.414   1.281   7.007
10733SOL    HW233099   6.405   1.125   6.962
10734SOL     OW33100   1.456   1.617   0.621
10734SOL    HW133101   1.459   1.690   0.689
10734SOL    HW233102   1.361   1.597   0.597
10735SOL     OW33103   0.100   2.953   2.443
10735SOL    HW133104   0.180   2.897   2.467
10735SOL    HW233105   0.017   2.905   2.469
10736SOL     OW33106   2.105   0.090   3.396
10736SOL    HW133107   2.067   0.161   3.455
10736SOL    HW233108   2.043   0.073   3.320
10737SOL     OW33109   0.815   1.657   1.078
10737SOL    HW133110   0.840   1.630   1.171
10737SOL    HW233111   0.839   1.583   1.014
10738SOL     OW33112   3.275   6.114   2.691
10738SOL    HW133113   3.339   6.058   2.745
10738SOL    HW233114   3.298   6.210   2.701
10739SOL     OW33115   1.762   1.984   1.189
10739SOL    HW133116   1.759   2.084   1.182
10739SOL    HW233117   1.734   1.955   1.280
10740SOL     OW33118   6.730   4.901   5.800
10740SOL    HW133119   6.810   4.941   5.753
10740SOL    HW233120   6.760   4.824   5.856
10741SOL     OW33121   4.120   0.666   1.503
10741SOL    HW133122   4.161   0.581   1.468
10741SOL    HW233123   4.136   0.740   1.438
10742SOL     OW33124   6.626   6.848   0.824
10742SOL    HW133125   6.584   6.923   0.875
10742SOL    HW233126   6.663   6.781   0.888
10743SOL     OW33127   1.776   1.604   5.414
10743SOL    HW133128   1.678   1.585   5.418
10743SOL    HW233129   1.814   1.564   5.330
10744SOL     OW33130   3.682   1.674   0.551
10744SOL    HW133131   3.589   1.637   0.543
10744SOL    HW233132   3.685   1.740   0.626
10745SOL     OW33133   0.006   5.241   6.066
10745SOL    HW133134   0.101   5.233   6.098
10745SOL    HW233135   7.020   5.329   6.021
10746SOL     OW33136   1.056   3.991   0.148
10746SOL    HW133137   1.001   3.959   0.226
10746SOL    HW233138   1.059   3.919   0.079
10747SOL     OW33139   3.302   0.560   5.188
10747SOL    HW133140   3.232   0.541   5.257
10747SOL    HW233141   3.392   0.538   5.225
10748SOL     OW33142   5.400   0.461   1.530
10748SOL    HW133143   5.368   0.388   1.590
10748SOL    HW233144   5.328   0.530   1.519
10749SOL     OW33145   0.558   6.187   4.678
10749SOL    HW133146   0.642   6.150   4.716
10749SOL    HW233147   0.563   6.187   4.578
10750SOL     OW33148   3.712   6.719   5.004
10750SOL    HW133149   3.730   6.621   5.007
10750SOL    HW233150   3.776   6.763   4.942
10751SOL     OW33151   2.035   4.384   4.080
10751SOL    HW133152   2.104   4.448   4.046
10751SOL    HW233153   1.970   4.363   4.007
10752SOL     OW33154   6.202   4.728   5.437
10752SOL    HW133155   6.106   4.735   5.409
10752SOL    HW233156   6.216   4.642   5.486
10753SOL     OW33157   6.894   4.310   4.376
10753SOL    HW133158   6.988   4.280   4.390
10753SOL    HW233159   6.888   4.409   4.388
10754SOL     OW33160   1.051   6.938   3.247
10754SOL    HW133161   0.967   6.896   3.212
10754SOL    HW233162   1.063   6.913   3.343
10755SOL     OW33163   6.698   0.528   1.121
10755SOL    HW133164   6.779   0.582   1.100
10755SOL    HW233165   6.721   0.458   1.189
10756SOL     OW33166   6.453   5.383   5.819
10756SOL    HW133167   6.541   5.337   5.831
10756SOL    HW233168   6.407   5.390   5.907
10757SOL     OW33169   2.505   2.357   0.271
10757SOL    HW133170   2.537   2.413   0.195
10757SOL    HW233171   2.405   2.367   0.280
10758SOL     OW33172   0.605   6.216   4.022
10758SOL    HW133173   0.532   6.186   4.082
10758SOL    HW233174   0.682   6.152   4.029
10759SOL     OW33175   1.628   3.420   0.564
10759SOL    HW133176   1.725   3.395   0.557
10759SOL    HW233177   1.604   3.483   0.490
10760SOL     OW33178   5.536   1.029   3.441
10760SOL    HW133179   5.495   0.961   3.380
10760SOL    HW233180   5.630   1.002   3.463
10761SOL     OW33181   0.774   5.738   5.613
10761SOL    HW133182   0.852   5.796   5.587
10761SOL    HW233183   0.717   5.788   5.679
10762SOL     OW33184   2.905   1.069   4.919
10762SOL    HW133185   2.936   0.977   4.897
10762SOL    HW233186   2.807   1.077   4.900
10763SOL     OW33187   4.161   6.850   2.717
10763SOL    HW133188   4.070   6.812   2.701
10763SOL    HW233189   4.176   6.929   2.657
10764SOL     OW33190   5.283   2.223   5.178
10764SOL    HW133191   5.265   2.129   5.150
10764SOL    HW233192   5.292   2.281   5.096
10765SOL     OW33193   4.920   2.776   0.986
10765SOL    HW133194   4.847   2.717   0.953
10765SOL    HW233195   4.883   2.844   1.049
10766SOL     OW33196   3.977   4.740   0.818
10766SOL    HW133197   3.981   4.824   0.764
10766SOL    HW233198   3.979   4.661   0.756
10767SOL     OW33199   2.410   0.548   1.239
10767SOL    HW133200   2.371   0.622   1.294
10767SOL    HW233201   2.338   0.480   1.221
10768SOL     OW33202   5.665   5.259   1.740
10768SOL    HW133203   5.680   5.208   1.656
10768SOL    HW233204   5.648   5.355   1.718
10769SOL     OW33205   1.941   3.657   5.827
10769SOL    HW133206   1.952   3.661   5.727
10769SOL    HW233207   1.956   3.747   5.866
10770SOL     OW33208   5.080   6.552   3.751
10770SOL    HW133209   5.122   6.487   3.688
10770SOL    HW233210   4.981   6.553   3.736
10771SOL     OW33211   3.837   0.218   3.708
10771SOL    HW133212   3.888   0.230   3.792
10771SOL    HW233213   3.766   0.289   3.701
10772SOL     OW33214   5.953   6.197   4.742
10772SOL    HW133215   5.881   6.130   4.756
10772SOL    HW233216   5.912   6.288   4.731
10773SOL     OW33217   5.859   4.846   6.240
10773SOL    HW133218   5.832   4.915   6.172
10773SOL    HW233219   5.784   4.783   6.256
10774SOL     OW33220   1.924   1.167   4.931
10774SOL    HW133221   1.951   1.146   5.025
10774SOL    HW233222   1.836   1.124   4.911
10775SOL     OW33223   0.394   4.383   2.531
10775SOL    HW133224   0.485   4.415   2.556
10775SOL    HW233225   0.340   4.460   2.496
10776SOL     OW33226   0.649   0.820   6.765
10776SOL    HW133227   0.732   0.871   6.744
10776SOL    HW233228   0.617   0.773   6.683
10777SOL     OW33229   3.682   5.353   1.049
10777SOL    HW133230   3.697   5.450   1.027
10777SOL    HW233231   3.600   5.344   1.105
10778SOL     OW33232   4.997   0.298   4.154
10778SOL    HW133233   4.898   0.305   4.138
10778SOL    HW233234   5.044   0.369   4.102
10779SOL     OW33235   6.054   3.128   3.056
10779SOL    HW133236   6.039   3.170   3.145
10779SOL    HW233237   6.152   3.131   3.033
10780SOL     OW33238   1.289   0.610   4.196
10780SOL    HW133239   1.333   0.674   4.132
10780SOL    HW233240   1.211   0.567   4.151
10781SOL     OW33241   3.632   1.206   3.249
10781SOL    HW133242   3.662   1.182   3.341
10781SOL    HW233243   3.533   1.221   3.249
10782SOL     OW33244   0.062   0.729   3.717
10782SOL    HW133245   0.002   0.650   3.719
10782SOL    HW233246   0.019   0.805   3.767
10783SOL     OW33247   0.351   2.846   3.031
10783SOL    HW133248   0.359   2.827   3.128
10783SOL    HW233249   0.400   2.931   3.010
10784SOL     OW33250   3.287   0.990   4.127
10784SOL    HW133251   3.205   0.959   4.079
10784SOL    HW233252   3.333   0.911   4.168
10785SOL     OW33253   0.945   3.753   0.783
10785SOL    HW133254   0.993   3.836   0.810
10785SOL    HW233255   1.003   3.698   0.723
10786SOL     OW33256   6.019   5.327   2.457
10786SOL    HW133257   5.970   5.409   2.488
10786SOL    HW233258   5.953   5.260   2.423
10787SOL     OW33259   0.484   0.433   5.665
10787SOL    HW133260   0.539   0.356   5.632
10787SOL    HW233261   0.519   0.518   5.625
10788SOL     OW33262   0.992   3.700   1.041
10788SOL    HW133263   0.906   3.724   1.087
10788SOL    HW233264   0.981   3.710   0.942
10789SOL     OW33265   6.405   3.013   6.661
10789SOL    HW133266   6.429   2.917   6.649
10789SOL    HW233267   6.427   3.042   6.754
10790SOL     OW33268   0.981   6.575   1.679
10790SOL    HW133269   0.943   6.667   1.667
10790SOL    HW233270   0.952   6.517   1.602
10791SOL     OW33271   6.891   5.897   2.383
10791SOL    HW133272   6.894   5.827   2.312
10791SOL    HW233273   6.825   5.870   2.453
10792SOL     OW33274   3.097   3.050   5.188
10792SOL    HW133275   3.128   3.140   5.158
10792SOL    HW233276   3.127   3.034   5.282
10793SOL     OW33277   5.927   3.810   5.821
10793SOL    HW133278   5.971   3.852   5.742
10793SOL    HW233279   5.935   3.711   5.815
10794SOL     OW33280   4.109   3.716   4.113
10794SOL    HW133281   4.192   3.759   4.077
10794SOL    HW233282   4.061   3.669   4.039
10795SOL     OW33283   0.432   5.366   3.110
10795SOL    HW133284   0.401   5.390   3.202
10795SOL    HW233285   0.510   5.423   3.085
10796SOL     OW33286   6.717   6.908   5.458
10796SOL    HW133287   6.656   6.975   5.500
10796SOL    HW233288   6.668   6.822   5.443
10797SOL     OW33289   3.726   3.110   1.303
10797SOL    HW133290   3.749   3.064   1.217
10797SOL    HW233291   3.753   3.054   1.380
10798SOL     OW33292   2.326   1.577   0.629
10798SOL    HW133293   2.355   1.486   0.600
10798SOL    HW233294   2.383   1.608   0.704
10799SOL     OW33295   4.299   0.742   2.382
10799SOL    HW133296   4.363   0.793   2.325
10799SOL    HW233297   4.210   0.736   2.336
10800SOL     OW33298   0.650   6.634   6.268
10800SOL    HW133299   0.618   6.539   6.263
10800SOL    HW233300   0.652   6.674   6.176
10801SOL     OW33301   0.767   6.772   0.702
10801SOL    HW133302   0.794   6.798   0.609
10801SOL    HW233303   0.694   6.832   0.734
10802SOL     OW33304   0.223   6.625   2.901
10802SOL    HW133305   0.188   6.576   2.981
10802SOL    HW233306   0.285   6.566   2.850
10803SOL     OW33307   1.619   5.667   6.213
10803SOL    HW133308   1.547   5.643   6.279
10803SOL    HW233309   1.578   5.682   6.123
10804SOL     OW33310   0.022   2.710   3.210
10804SOL    HW133311   0.108   2.712   3.159
10804SOL    HW233312   6.974   2.686   3.149
10805SOL     OW33313   5.786   0.863   5.556
10805SOL    HW133314   5.720   0.938   5.555
10805SOL    HW233315   5.746   0.783   5.511
10806SOL     OW33316   3.644   4.986   6.787
10806SOL    HW133317   3.621   4.958   6.880
10806SOL    HW233318   3.703   4.917   6.745
10807SOL     OW33319   1.193   5.615   3.942
10807SOL    HW133320   1.286   5.637   3.972
10807SOL    HW233321   1.162   5.685   3.878
10808SOL     OW33322   0.351   2.910   6.274
10808SOL    HW133323   0.444   2.917   6.238
10808SOL    HW233324   0.340   2.972   6.351
10809SOL     OW33325   1.557   4.249   4.279
10809SOL    HW133326   1.542   4.328   4.338
10809SOL    HW233327   1.649   4.213   4.294
10810SOL     OW33328   6.753   0.093   3.405
10810SOL    HW133329   6.670   0.089   3.350
10810SOL    HW233330   6.764   0.185   3.443
10811SOL     OW33331   4.693   4.819   4.628
10811SOL    HW133332   4.703   4.881   4.550
10811SOL    HW233333   4.661   4.730   4.595
10812SOL     OW33334   6.850   3.491   6.346
10812SOL    HW133335   6.871   3.506   6.250
10812SOL    HW233336   6.787   3.414   6.355
10813SOL     OW33337   0.505   3.345   6.043
10813SOL    HW133338   0.435   3.278   6.017
10813SOL    HW233339   0.577   3.300   6.096
10814SOL     OW33340   2.429   0.070   0.454
10814SOL    HW133341   2.524   0.052   0.432
10814SOL    HW233342   2.423   0.149   0.514
10815SOL     OW33343   5.302   1.735   3.187
10815SOL    HW133344   5.271   1.773   3.100
10815SOL    HW233345   5.368   1.662   3.169
10816SOL     OW33346   3.450   2.953   2.641
10816SOL    HW133347   3.358   2.959   2.679
10816SOL    HW233348   3.516   2.949   2.715
10817SOL     OW33349   3.074   0.472   3.528
10817SOL    HW133350   3.115   0.401   3.586
10817SOL    HW233351   3.136   0.549   3.521
10818SOL     OW33352   4.620   4.956   5.650
10818SOL    HW133353   4.690   4.903   5.602
10818SOL    HW233354   4.613   5.047   5.608
10819SOL     OW33355   5.830   5.567   6.152
10819SOL    HW133356   5.843   5.488   6.213
10819SOL    HW233357   5.840   5.651   6.205
10820SOL     OW33358   0.204   5.608   5.023
10820SOL    HW133359   0.280   5.550   5.050
10820SOL    HW233360   0.211   5.628   4.925
10821SOL     OW33361   4.394   5.973   2.924
10821SOL    HW133362   4.479   5.938   2.963
10821SOL    HW233363   4.414   6.025   2.841
10822SOL     OW33364   5.477   1.873   0.945
10822SOL    HW133365   5.471   1.806   0.871
10822SOL    HW233366   5.509   1.828   1.028
10823SOL     OW33367   0.406   0.397   3.808
10823SOL    HW133368   0.370   0.489   3.823
10823SOL    HW233369   0.475   0.399   3.736
10824SOL     OW33370   0.822   1.611   2.834
10824SOL    HW133371   0.735   1.606   2.882
10824SOL    HW233372   0.807   1.644   2.740
10825SOL     OW33373   1.283   2.272   0.605
10825SOL    HW133374   1.329   2.190   0.641
10825SOL    HW233375   1.240   2.322   0.681
10826SOL     OW33376   1.033   2.297   2.807
10826SOL    HW133377   1.060   2.297   2.710
10826SOL    HW233378   1.104   2.342   2.861
10827SOL     OW33379   6.611   2.913   4.869
10827SOL    HW133380   6.620   3.002   4.914
10827SOL    HW233381   6.659   2.844   4.922
10828SOL     OW33382   6.709   3.689   0.047
10828SOL    HW133383   6.719   3.686   0.147
10828SOL    HW233384   6.735   3.601   0.008
10829SOL     OW33385   4.298   3.784   0.197
10829SOL    HW133386   4.360   3.706   0.198
10829SOL    HW233387   4.255   3.792   0.108
10830SOL     OW33388   4.767   1.277   3.665
10830SOL    HW133389   4.710   1.344   3.713
10830SOL    HW233390   4.859   1.277   3.704
10831SOL     OW33391   3.859   0.401   1.985
10831SOL    HW133392   3.922   0.390   1.909
10831SOL    HW233393   3.907   0.383   2.071
10832SOL     OW33394   6.863   3.251   6.607
10832SOL    HW133395   6.778   3.268   6.558
10832SOL    HW233396   6.936   3.228   6.543
10833SOL     OW33397   0.239   2.691   0.901
10833SOL    HW133398   0.166   2.640   0.947
10833SOL    HW233399   0.274   2.637   0.825
10834SOL     OW33400   6.203   0.794   1.122
10834SOL    HW133401   6.223   0.841   1.208
10834SOL    HW233402   6.275   0.816   1.055
10835SOL     OW33403   5.020   3.382   0.433
10835SOL    HW133404   5.001   3.369   0.530
10835SOL    HW233405   5.111   3.345   0.412
10836SOL     OW33406   1.180   0.626   2.803
10836SOL    HW133407   1.210   0.537   2.768
10836SOL    HW233408   1.253   0.693   2.791
10837SOL     OW33409   6.057   4.540   2.127
10837SOL    HW133410   6.137   4.599   2.120
10837SOL    HW233411   6.054   4.478   2.048
10838SOL     OW33412   5.705   6.397   3.666
10838SOL    HW133413   5.715   6.495   3.683
10838SOL    HW233414   5.609   6.374   3.650
10839SOL     OW33415   4.818   3.522   0.692
10839SOL    HW133416   4.733   3.479   0.723
10839SOL    HW233417   4.896   3.468   0.723
10840SOL     OW33418   3.601   0.712   1.974
10840SOL    HW133419   3.608   0.644   1.902
10840SOL    HW233420   3.632   0.673   2.061
10841SOL     OW33421   6.346   5.216   4.832
10841SOL    HW133422   6.355   5.265   4.745
10841SOL    HW233423   6.434   5.175   4.856
10842SOL     OW33424   4.317   2.864   1.668
10842SOL    HW133425   4.233   2.827   1.708
10842SOL    HW233426   4.340   2.950   1.714
10843SOL     OW33427   2.044   1.640   0.850
10843SOL    HW133428   1.957   1.619   0.806
10843SOL    HW233429   2.028   1.700   0.929
10844SOL     OW33430   0.251   5.610   4.449
10844SOL    HW133431   0.174   5.667   4.418
10844SOL    HW233432   0.313   5.665   4.504
10845SOL     OW33433   4.460   5.985   4.662
10845SOL    HW133434   4.479   6.083   4.657
10845SOL    HW233435   4.365   5.969   4.635
10846SOL     OW33436   6.032   6.547   6.810
10846SOL    HW133437   5.977   6.491   6.872
10846SOL    HW233438   6.102   6.491   6.766
10847SOL     OW33439   2.334   1.771   0.209
10847SOL    HW133440   2.294   1.718   0.284
10847SOL    HW233441   2.433   1.754   0.206
10848SOL     OW33442   0.663   3.992   1.478
10848SOL    HW133443   0.680   3.972   1.575
10848SOL    HW233444   0.585   3.940   1.446
10849SOL     OW33445   3.025   4.884   4.564
10849SOL    HW133446   2.962   4.827   4.511
10849SOL    HW233447   2.987   4.900   4.655
10850SOL     OW33448   3.980   6.043   6.964
10850SOL    HW133449   4.069   5.998   6.971
10850SOL    HW233450   3.982   6.109   6.890
10851SOL     OW33451   2.819   4.054   1.532
10851SOL    HW133452   2.879   4.114   1.584
10851SOL    HW233453   2.724   4.071   1.557
10852SOL     OW33454   2.190   1.633   0.389
10852SOL    HW133455   2.192   1.534   0.376
10852SOL    HW233456   2.223   1.656   0.480
10853SOL     OW33457   2.455   3.215   6.122
10853SOL    HW133458   2.432   3.148   6.052
10853SOL    HW233459   2.514   3.173   6.191
10854SOL     OW33460   4.536   5.209   5.282
10854SOL    HW133461   4.525   5.305   5.257
10854SOL    HW233462   4.489   5.151   5.215
10855SOL     OW33463   3.764   0.665   0.607
10855SOL    HW133464   3.860   0.685   0.621
10855SOL    HW233465   3.742   0.675   0.510
10856SOL     OW33466   6.933   0.462   6.368
10856SOL    HW133467   6.991   0.411   6.431
10856SOL    HW233468   6.907   0.404   6.291
10857SOL     OW33469   0.194   1.624   2.576
10857SOL    HW133470   0.212   1.711   2.623
10857SOL    HW233471   0.141   1.641   2.493
10858SOL     OW33472   2.063   6.584   1.291
10858SOL    HW133473   2.056   6.485   1.307
10858SOL    HW233474   2.145   6.619   1.337
10859SOL     OW33475   6.757   4.845   4.513
10859SOL    HW133476   6.658   4.848   4.500
10859SOL    HW233477   6.795   4.936   4.501
10860SOL     OW33478   0.023   3.800   3.635
10860SOL    HW133479   7.013   3.892   3.621
10860SOL    HW233480   0.123   3.804   3.628
10861SOL     OW33481   2.996   3.459   3.451
10861SOL    HW133482   3.057   3.490   3.524
10861SOL    HW233483   3.006   3.360   3.439
10862SOL     OW33484   2.285   0.855   5.897
10862SOL    HW133485   2.216   0.926   5.915
10862SOL    HW233486   2.240   0.766   5.894
10863SOL     OW33487   2.256   0.099   4.316
10863SOL    HW133488   2.266   0.003   4.341
10863SOL    HW233489   2.167   0.132   4.346
10864SOL     OW33490   2.965   6.324   1.708
10864SOL    HW133491   3.002   6.414   1.731
10864SOL    HW233492   2.865   6.326   1.715
10865SOL     OW33493   6.342   1.405   0.130
10865SOL    HW133494   6.374   1.500   0.126
10865SOL    HW233495   6.242   1.403   0.129
10866SOL     OW33496   5.206   4.792   6.895
10866SOL    HW133497   5.238   4.758   6.806
10866SOL    HW233498   5.167   4.717   6.948
10867SOL     OW33499   2.914   4.295   0.602
10867SOL    HW133500   2.989   4.287   0.667
10867SOL    HW233501   2.925   4.379   0.548
10868SOL     OW33502   5.053   1.711   3.639
10868SOL    HW133503   5.096   1.698   3.550
10868SOL    HW233504   5.115   1.683   3.711
10869NA      NA33505   6.238   2.308   5.713
10870NA      NA33506   4.449   4.760   5.152
10871NA      NA33507   1.585   3.492   1.438
10872NA      NA33508   5.012   3.675   5.425
10873NA      NA33509   4.219   2.222   4.975
10874NA      NA33510   3.682   4.720   1.625
10875NA      NA33511   6.425   5.392   5.594
10876NA      NA33512   3.557   3.395   4.601
10877NA      NA33513   4.870   6.528   6.750
10878NA      NA33514   3.432   6.661   5.618
10879NA      NA33515   6.423   5.142   2.617
10880NA      NA33516   2.485   0.662   3.809
10881NA      NA33517   3.910   5.319   1.154
10882NA      NA33518   3.709   3.666   2.390
   7.02738   7.02738   7.02738
