Generated by trjconv : CNT in water t=  35.00000
33518
    1C        C    1   2.844   2.768   4.746
    1C        C    2   2.902   2.718   4.865
    1C        C    3   2.839   2.769   4.979
    1C        C    4   2.851   2.772   4.258
    1C        C    5   2.904   2.728   4.381
    1C        C    6   2.849   2.773   4.503
    1C        C    7   3.009   2.637   4.623
    1C        C    8   2.892   2.716   4.625
    1C        C    9   3.075   2.598   4.742
    1C        C   10   3.012   2.630   4.864
    1C        C   11   3.177   2.488   4.971
    1C        C   12   3.055   2.556   4.975
    1C        C   13   2.846   2.763   3.767
    1C        C   14   2.894   2.715   3.891
    1C        C   15   2.847   2.768   4.014
    1C        C   16   3.014   2.640   4.136
    1C        C   17   2.897   2.719   4.136
    1C        C   18   3.075   2.605   4.259
    1C        C   19   3.017   2.642   4.382
    1C        C   20   3.208   2.553   4.502
    1C        C   21   3.076   2.603   4.504
    1C        C   22   3.277   2.529   4.623
    1C        C   23   3.205   2.540   4.744
    1C        C   24   3.412   2.472   4.864
    1C        C   25   3.270   2.494   4.862
    1C        C   26   3.487   2.475   4.983
    1C        C   27   2.852   2.767   3.279
    1C        C   28   2.907   2.724   3.402
    1C        C   29   2.852   2.770   3.524
    1C        C   30   3.017   2.635   3.645
    1C        C   31   2.904   2.720   3.646
    1C        C   32   3.075   2.602   3.770
    1C        C   33   3.012   2.636   3.891
    1C        C   34   3.203   2.546   4.013
    1C        C   35   3.074   2.603   4.014
    1C        C   36   3.271   2.525   4.135
    1C        C   37   3.207   2.553   4.257
    1C        C   38   3.413   2.502   4.380
    1C        C   39   3.276   2.535   4.379
    1C        C   40   3.485   2.499   4.501
    1C        C   41   3.415   2.500   4.624
    1C        C   42   3.628   2.482   4.745
    1C        C   43   3.486   2.473   4.743
    1C        C   44   3.703   2.486   4.864
    1C        C   45   3.626   2.478   4.981
    1C        C   46   2.837   2.745   2.790
    1C        C   47   2.893   2.705   2.914
    1C        C   48   2.841   2.756   3.035
    1C        C   49   3.015   2.633   3.158
    1C        C   50   2.901   2.716   3.157
    1C        C   51   3.079   2.597   3.279
    1C        C   52   3.018   2.636   3.400
    1C        C   53   3.206   2.542   3.527
    1C        C   54   3.075   2.597   3.523
    1C        C   55   3.277   2.528   3.648
    1C        C   56   3.206   2.548   3.769
    1C        C   57   3.411   2.498   3.893
    1C        C   58   3.273   2.526   3.891
    1C        C   59   3.482   2.489   4.015
    1C        C   60   3.410   2.497   4.136
    1C        C   61   3.623   2.502   4.257
    1C        C   62   3.483   2.490   4.257
    1C        C   63   3.696   2.508   4.378
    1C        C   64   3.626   2.494   4.500
    1C        C   65   3.831   2.537   4.620
    1C        C   66   3.696   2.494   4.622
    1C        C   67   3.901   2.557   4.741
    1C        C   68   3.838   2.526   4.864
    1C        C   69   4.050   2.582   4.978
    1C        C   70   3.918   2.534   4.979
    1C        C   71   2.816   2.728   2.304
    1C        C   72   2.885   2.693   2.422
    1C        C   73   2.834   2.742   2.544
    1C        C   74   3.003   2.617   2.667
    1C        C   75   2.885   2.696   2.667
    1C        C   76   3.066   2.587   2.789
    1C        C   77   3.007   2.622   2.913
    1C        C   78   3.204   2.540   3.035
    1C        C   79   3.073   2.594   3.035
    1C        C   80   3.274   2.523   3.156
    1C        C   81   3.207   2.538   3.280
    1C        C   82   3.410   2.494   3.402
    1C        C   83   3.271   2.516   3.405
    1C        C   84   3.483   2.492   3.523
    1C        C   85   3.417   2.505   3.647
    1C        C   86   3.623   2.495   3.766
    1C        C   87   3.482   2.491   3.771
    1C        C   88   3.692   2.510   3.889
    1C        C   89   3.623   2.499   4.012
    1C        C   90   3.830   2.540   4.133
    1C        C   91   3.692   2.512   4.134
    1C        C   92   3.900   2.564   4.254
    1C        C   93   3.834   2.539   4.377
    1C        C   94   4.024   2.631   4.497
    1C        C   95   3.899   2.564   4.499
    1C        C   96   4.085   2.668   4.619
    1C        C   97   4.026   2.624   4.739
    1C        C   98   4.186   2.761   4.860
    1C        C   99   4.095   2.650   4.861
    1C        C  100   4.216   2.840   4.972
    1C        C  101   2.821   2.724   2.066
    1C        C  102   2.986   2.586   2.187
    1C        C  103   2.872   2.672   2.186
    1C        C  104   3.058   2.561   2.307
    1C        C  105   2.999   2.610   2.426
    1C        C  106   3.198   2.531   2.548
    1C        C  107   3.064   2.576   2.546
    1C        C  108   3.268   2.514   2.670
    1C        C  109   3.194   2.529   2.790
    1C        C  110   3.405   2.492   2.911
    1C        C  111   3.265   2.511   2.911
    1C        C  112   3.480   2.486   3.031
    1C        C  113   3.413   2.499   3.155
    1C        C  114   3.621   2.496   3.278
    1C        C  115   3.480   2.492   3.279
    1C        C  116   3.693   2.509   3.399
    1C        C  117   3.624   2.491   3.521
    1C        C  118   3.830   2.536   3.643
    1C        C  119   3.694   2.495   3.644
    1C        C  120   3.896   2.563   3.764
    1C        C  121   3.828   2.546   3.887
    1C        C  122   4.020   2.633   4.010
    1C        C  123   3.894   2.569   4.010
    1C        C  124   4.078   2.673   4.132
    1C        C  125   4.023   2.632   4.255
    1C        C  126   4.191   2.763   4.374
    1C        C  127   4.086   2.669   4.376
    1C        C  128   4.236   2.817   4.497
    1C        C  129   4.189   2.765   4.620
    1C        C  130   4.319   2.935   4.738
    1C        C  131   4.237   2.820   4.741
    1C        C  132   4.356   3.000   4.859
    1C        C  133   4.288   2.958   4.974
    1C        C  134   3.170   2.468   2.073
    1C        C  135   3.036   2.506   2.079
    1C        C  136   3.255   2.473   2.185
    1C        C  137   3.191   2.510   2.305
    1C        C  138   3.401   2.473   2.427
    1C        C  139   3.263   2.501   2.426
    1C        C  140   3.476   2.475   2.546
    1C        C  141   3.406   2.484   2.669
    1C        C  142   3.619   2.491   2.787
    1C        C  143   3.478   2.486   2.790
    1C        C  144   3.690   2.503   2.909
    1C        C  145   3.621   2.493   3.032
    1C        C  146   3.827   2.538   3.152
    1C        C  147   3.690   2.501   3.155
    1C        C  148   3.897   2.564   3.272
    1C        C  149   3.830   2.540   3.395
    1C        C  150   4.022   2.622   3.519
    1C        C  151   3.893   2.563   3.519
    1C        C  152   4.080   2.666   3.640
    1C        C  153   4.020   2.631   3.763
    1C        C  154   4.186   2.760   3.886
    1C        C  155   4.078   2.669   3.886
    1C        C  156   4.239   2.807   4.008
    1C        C  157   4.191   2.758   4.132
    1C        C  158   4.334   2.920   4.250
    1C        C  159   4.243   2.812   4.252
    1C        C  160   4.372   2.982   4.371
    1C        C  161   4.325   2.926   4.492
    1C        C  162   4.432   3.110   4.611
    1C        C  163   4.363   2.986   4.614
    1C        C  164   4.458   3.182   4.730
    1C        C  165   4.424   3.123   4.854
    1C        C  166   4.513   3.320   4.966
    1C        C  167   4.474   3.186   4.969
    1C        C  168   3.474   2.429   2.074
    1C        C  169   3.393   2.447   2.187
    1C        C  170   3.613   2.466   2.304
    1C        C  171   3.471   2.457   2.305
    1C        C  172   3.688   2.484   2.423
    1C        C  173   3.617   2.484   2.545
    1C        C  174   3.826   2.534   2.662
    1C        C  175   3.690   2.494   2.665
    1C        C  176   3.890   2.562   2.785
    1C        C  177   3.826   2.541   2.909
    1C        C  178   4.023   2.623   3.028
    1C        C  179   3.894   2.566   3.031
    1C        C  180   4.084   2.661   3.150
    1C        C  181   4.025   2.622   3.273
    1C        C  182   4.193   2.745   3.395
    1C        C  183   4.085   2.654   3.397
    1C        C  184   4.242   2.800   3.516
    1C        C  185   4.191   2.753   3.639
    1C        C  186   4.332   2.910   3.760
    1C        C  187   4.240   2.802   3.762
    1C        C  188   4.370   2.972   3.881
    1C        C  189   4.326   2.917   4.004
    1C        C  190   4.434   3.102   4.123
    1C        C  191   4.368   2.977   4.125
    1C        C  192   4.463   3.171   4.243
    1C        C  193   4.437   3.108   4.366
    1C        C  194   4.505   3.308   4.485
    1C        C  195   4.460   3.174   4.489
    1C        C  196   4.521   3.382   4.605
    1C        C  197   4.504   3.316   4.728
    1C        C  198   4.555   3.532   4.844
    1C        C  199   4.528   3.392   4.846
    1C        C  200   4.581   3.617   4.956
    1C        C  201   3.613   2.415   2.070
    1C        C  202   3.823   2.506   2.180
    1C        C  203   3.686   2.463   2.183
    1C        C  204   3.897   2.532   2.298
    1C        C  205   3.826   2.515   2.419
    1C        C  206   4.019   2.613   2.538
    1C        C  207   3.893   2.548   2.539
    1C        C  208   4.080   2.651   2.659
    1C        C  209   4.018   2.622   2.782
    1C        C  210   4.194   2.742   2.902
    1C        C  211   4.080   2.659   2.904
    1C        C  212   4.249   2.790   3.023
    1C        C  213   4.193   2.751   3.146
    1C        C  214   4.328   2.906   3.268
    1C        C  215   4.237   2.798   3.272
    1C        C  216   4.365   2.966   3.390
    1C        C  217   4.326   2.913   3.515
    1C        C  218   4.434   3.095   3.634
    1C        C  219   4.369   2.969   3.637
    1C        C  220   4.457   3.162   3.756
    1C        C  221   4.435   3.098   3.880
    1C        C  222   4.499   3.302   3.999
    1C        C  223   4.462   3.166   4.001
    1C        C  224   4.510   3.376   4.119
    1C        C  225   4.498   3.308   4.242
    1C        C  226   4.510   3.520   4.362
    1C        C  227   4.517   3.378   4.363
    1C        C  228   4.513   3.593   4.482
    1C        C  229   4.531   3.523   4.604
    1C        C  230   4.505   3.740   4.722
    1C        C  231   4.535   3.601   4.721
    1C        C  232   4.496   3.818   4.839
    1C        C  233   4.538   3.751   4.955
    1C        C  234   4.014   2.609   2.058
    1C        C  235   3.891   2.544   2.064
    1C        C  236   4.084   2.645   2.173
    1C        C  237   4.021   2.602   2.292
    1C        C  238   4.192   2.731   2.417
    1C        C  239   4.077   2.647   2.414
    1C        C  240   4.246   2.781   2.537
    1C        C  241   4.191   2.738   2.660
    1C        C  242   4.332   2.902   2.779
    1C        C  243   4.248   2.788   2.780
    1C        C  244   4.373   2.959   2.901
    1C        C  245   4.335   2.902   3.025
    1C        C  246   4.434   3.091   3.145
    1C        C  247   4.372   2.964   3.147
    1C        C  248   4.454   3.156   3.268
    1C        C  249   4.428   3.093   3.392
    1C        C  250   4.492   3.298   3.512
    1C        C  251   4.460   3.160   3.512
    1C        C  252   4.506   3.370   3.633
    1C        C  253   4.494   3.299   3.755
    1C        C  254   4.519   3.510   3.870
    1C        C  255   4.511   3.369   3.876
    1C        C  256   4.519   3.583   3.992
    1C        C  257   4.521   3.517   4.117
    1C        C  258   4.485   3.727   4.234
    1C        C  259   4.509   3.588   4.238
    1C        C  260   4.474   3.800   4.355
    1C        C  261   4.490   3.732   4.478
    1C        C  262   4.424   3.934   4.598
    1C        C  263   4.477   3.803   4.599
    1C        C  264   4.397   4.005   4.717
    1C        C  265   4.433   3.944   4.839
    1C        C  266   4.314   4.127   4.954
    1C        C  267   4.399   4.017   4.954
    1C        C  268   4.267   2.770   2.061
    1C        C  269   4.198   2.728   2.176
    1C        C  270   4.342   2.887   2.295
    1C        C  271   4.248   2.780   2.297
    1C        C  272   4.381   2.946   2.418
    1C        C  273   4.339   2.887   2.539
    1C        C  274   4.445   3.080   2.656
    1C        C  275   4.375   2.957   2.656
    1C        C  276   4.470   3.148   2.777
    1C        C  277   4.443   3.082   2.899
    1C        C  278   4.499   3.288   3.021
    1C        C  279   4.467   3.150   3.021
    1C        C  280   4.502   3.361   3.142
    1C        C  281   4.486   3.294   3.265
    1C        C  282   4.514   3.504   3.385
    1C        C  283   4.502   3.363   3.387
    1C        C  284   4.511   3.577   3.506
    1C        C  285   4.511   3.511   3.630
    1C        C  286   4.489   3.724   3.747
    1C        C  287   4.512   3.585   3.751
    1C        C  288   4.472   3.790   3.870
    1C        C  289   4.491   3.722   3.992
    1C        C  290   4.425   3.930   4.112
    1C        C  291   4.466   3.794   4.111
    1C        C  292   4.396   3.996   4.233
    1C        C  293   4.427   3.933   4.355
    1C        C  294   4.322   4.120   4.477
    1C        C  295   4.391   3.997   4.476
    1C        C  296   4.284   4.188   4.595
    1C        C  297   4.326   4.129   4.717
    1C        C  298   4.195   4.308   4.836
    1C        C  299   4.278   4.192   4.835
    1C        C  300   4.163   4.399   4.942
    1C        C  301   4.352   2.879   2.056
    1C        C  302   4.468   3.064   2.173
    1C        C  303   4.390   2.944   2.174
    1C        C  304   4.482   3.138   2.293
    1C        C  305   4.445   3.072   2.413
    1C        C  306   4.502   3.279   2.529
    1C        C  307   4.475   3.141   2.532
    1C        C  308   4.511   3.350   2.651
    1C        C  309   4.504   3.286   2.777
    1C        C  310   4.520   3.497   2.896
    1C        C  311   4.520   3.355   2.898
    1C        C  312   4.512   3.570   3.016
    1C        C  313   4.511   3.502   3.140
    1C        C  314   4.485   3.712   3.261
    1C        C  315   4.510   3.573   3.262
    1C        C  316   4.464   3.783   3.381
    1C        C  317   4.488   3.717   3.503
    1C        C  318   4.422   3.922   3.625
    1C        C  319   4.472   3.790   3.623
    1C        C  320   4.390   3.986   3.747
    1C        C  321   4.417   3.920   3.869
    1C        C  322   4.312   4.107   3.990
    1C        C  323   4.391   3.990   3.989
    1C        C  324   4.273   4.166   4.112
    1C        C  325   4.322   4.117   4.235
    1C        C  326   4.180   4.278   4.353
    1C        C  327   4.278   4.176   4.355
    1C        C  328   4.134   4.338   4.472
    1C        C  329   4.188   4.291   4.594
    1C        C  330   4.017   4.426   4.711
    1C        C  331   4.134   4.346   4.713
    1C        C  332   3.964   4.486   4.827
    1C        C  333   4.043   4.471   4.942
    1C        C  334   4.547   3.264   2.054
    1C        C  335   4.533   3.125   2.061
    1C        C  336   4.530   3.345   2.167
    1C        C  337   4.511   3.277   2.289
    1C        C  338   4.516   3.493   2.406
    1C        C  339   4.517   3.352   2.409
    1C        C  340   4.517   3.562   2.529
    1C        C  341   4.515   3.492   2.652
    1C        C  342   4.487   3.704   2.770
    1C        C  343   4.516   3.565   2.772
    1C        C  344   4.475   3.778   2.890
    1C        C  345   4.490   3.710   3.012
    1C        C  346   4.425   3.909   3.132
    1C        C  347   4.471   3.776   3.136
    1C        C  348   4.386   3.972   3.253
    1C        C  349   4.416   3.916   3.379
    1C        C  350   4.316   4.102   3.497
    1C        C  351   4.395   3.985   3.501
    1C        C  352   4.276   4.162   3.619
    1C        C  353   4.319   4.108   3.743
    1C        C  354   4.177   4.264   3.865
    1C        C  355   4.274   4.162   3.865
    1C        C  356   4.121   4.313   3.985
    1C        C  357   4.174   4.267   4.108
    1C        C  358   4.008   4.400   4.228
    1C        C  359   4.124   4.319   4.230
    1C        C  360   3.950   4.445   4.349
    1C        C  361   4.017   4.416   4.470
    1C        C  362   3.822   4.511   4.590
    1C        C  363   3.953   4.458   4.589
    1C        C  364   3.758   4.546   4.711
    1C        C  365   3.833   4.539   4.831
    1C        C  366   3.623   4.583   4.947
    1C        C  367   3.761   4.560   4.949
    1C        C  368   4.506   3.559   2.046
    1C        C  369   4.513   3.485   2.165
    1C        C  370   4.500   3.703   2.284
    1C        C  371   4.508   3.562   2.283
    1C        C  372   4.483   3.773   2.406
    1C        C  373   4.504   3.702   2.526
    1C        C  374   4.430   3.904   2.642
    1C        C  375   4.478   3.772   2.647
    1C        C  376   4.396   3.969   2.763
    1C        C  377   4.428   3.911   2.888
    1C        C  378   4.319   4.093   3.008
    1C        C  379   4.394   3.974   3.010
    1C        C  380   4.273   4.149   3.129
    1C        C  381   4.311   4.092   3.253
    1C        C  382   4.171   4.253   3.374
    1C        C  383   4.270   4.152   3.374
    1C        C  384   4.123   4.305   3.496
    1C        C  385   4.176   4.261   3.620
    1C        C  386   4.006   4.388   3.738
    1C        C  387   4.122   4.307   3.742
    1C        C  388   3.946   4.427   3.860
    1C        C  389   4.008   4.398   3.983
    1C        C  390   3.815   4.483   4.105
    1C        C  391   3.947   4.434   4.106
    1C        C  392   3.747   4.506   4.227
    1C        C  393   3.818   4.494   4.348
    1C        C  394   3.613   4.553   4.471
    1C        C  395   3.751   4.523   4.469
    1C        C  396   3.542   4.568   4.592
    1C        C  397   3.617   4.560   4.712
    1C        C  398   3.406   4.536   4.834
    1C        C  399   3.544   4.567   4.832
    1C        C  400   3.338   4.499   4.950
    1C        C  401   4.502   3.698   2.047
    1C        C  402   4.446   3.911   2.162
    1C        C  403   4.486   3.776   2.163
    1C        C  404   4.413   3.976   2.283
    1C        C  405   4.436   3.906   2.403
    1C        C  406   4.319   4.088   2.521
    1C        C  407   4.401   3.973   2.522
    1C        C  408   4.272   4.144   2.642
    1C        C  409   4.314   4.084   2.763
    1C        C  410   4.175   4.245   2.883
    1C        C  411   4.274   4.145   2.884
    1C        C  412   4.121   4.293   3.005
    1C        C  413   4.174   4.250   3.129
    1C        C  414   3.999   4.372   3.249
    1C        C  415   4.118   4.295   3.250
    1C        C  416   3.937   4.404   3.372
    1C        C  417   4.002   4.377   3.495
    1C        C  418   3.809   4.465   3.613
    1C        C  419   3.941   4.415   3.616
    1C        C  420   3.744   4.493   3.736
    1C        C  421   3.813   4.475   3.857
    1C        C  422   3.610   4.526   3.981
    1C        C  423   3.748   4.494   3.981
    1C        C  424   3.539   4.530   4.103
    1C        C  425   3.607   4.530   4.226
    1C        C  426   3.399   4.545   4.352
    1C        C  427   3.541   4.548   4.349
    1C        C  428   3.329   4.540   4.474
    1C        C  429   3.402   4.550   4.594
    1C        C  430   3.191   4.509   4.721
    1C        C  431   3.330   4.534   4.715
    1C        C  432   3.119   4.490   4.842
    1C        C  433   3.200   4.485   4.956
    1C        C  434   4.374   4.118   2.045
    1C        C  435   4.430   3.990   2.047
    1C        C  436   4.298   4.158   2.159
    1C        C  437   4.334   4.094   2.281
    1C        C  438   4.173   4.241   2.395
    1C        C  439   4.276   4.145   2.399
    1C        C  440   4.117   4.285   2.517
    1C        C  441   4.172   4.243   2.640
    1C        C  442   4.003   4.373   2.763
    1C        C  443   4.119   4.292   2.762
    1C        C  444   3.944   4.414   2.884
    1C        C  445   4.002   4.368   3.005
    1C        C  446   3.807   4.457   3.126
    1C        C  447   3.936   4.401   3.126
    1C        C  448   3.743   4.487   3.248
    1C        C  449   3.810   4.466   3.370
    1C        C  450   3.605   4.524   3.491
    1C        C  451   3.742   4.491   3.491
    1C        C  452   3.536   4.531   3.614
    1C        C  453   3.607   4.527   3.737
    1C        C  454   3.398   4.530   3.861
    1C        C  455   3.539   4.541   3.860
    1C        C  456   3.328   4.523   3.983
    1C        C  457   3.398   4.529   4.106
    1C        C  458   3.190   4.508   4.230
    1C        C  459   3.330   4.530   4.230
    1C        C  460   3.124   4.486   4.353
    1C        C  461   3.190   4.512   4.475
    1C        C  462   2.994   4.433   4.598
    1C        C  463   3.125   4.487   4.598
    1C        C  464   2.926   4.401   4.717
    1C        C  465   2.985   4.440   4.840
    1C        C  466   2.800   4.331   4.956
    1C        C  467   2.906   4.423   4.958
    1C        C  468   4.119   4.278   2.035
    1C        C  469   4.187   4.249   2.154
    1C        C  470   4.004   4.369   2.277
    1C        C  471   4.124   4.294   2.274
    1C        C  472   3.936   4.400   2.398
    1C        C  473   4.003   4.368   2.518
    1C        C  474   3.809   4.455   2.640
    1C        C  475   3.940   4.402   2.640
    1C        C  476   3.743   4.483   2.762
    1C        C  477   3.812   4.465   2.884
    1C        C  478   3.603   4.515   3.004
    1C        C  479   3.740   4.484   3.004
    1C        C  480   3.532   4.527   3.126
    1C        C  481   3.604   4.515   3.247
    1C        C  482   3.393   4.526   3.373
    1C        C  483   3.534   4.531   3.369
    1C        C  484   3.323   4.520   3.495
    1C        C  485   3.395   4.527   3.617
    1C        C  486   3.188   4.490   3.741
    1C        C  487   3.326   4.521   3.740
    1C        C  488   3.124   4.470   3.866
    1C        C  489   3.189   4.498   3.988
    1C        C  490   2.998   4.412   4.112
    1C        C  491   3.118   4.487   4.110
    1C        C  492   2.936   4.382   4.236
    1C        C  493   2.998   4.422   4.356
    1C        C  494   2.829   4.297   4.481
    1C        C  495   2.932   4.394   4.477
    1C        C  496   2.771   4.251   4.601
    1C        C  497   2.815   4.312   4.720
    1C        C  498   2.661   4.162   4.843
    1C        C  499   2.752   4.270   4.839
    1C        C  500   2.595   4.115   4.957
    1C        C  501   4.007   4.359   2.041
    1C        C  502   3.811   4.460   2.153
    1C        C  503   3.938   4.399   2.156
    1C        C  504   3.740   4.477   2.273
    1C        C  505   3.806   4.455   2.396
    1C        C  506   3.602   4.505   2.517
    1C        C  507   3.741   4.480   2.519
    1C        C  508   3.531   4.512   2.638
    1C        C  509   3.605   4.511   2.759
    1C        C  510   3.394   4.522   2.883
    1C        C  511   3.535   4.524   2.881
    1C        C  512   3.322   4.516   3.005
    1C        C  513   3.391   4.528   3.127
    1C        C  514   3.184   4.494   3.250
    1C        C  515   3.322   4.521   3.251
    1C        C  516   3.117   4.471   3.373
    1C        C  517   3.184   4.494   3.494
    1C        C  518   2.992   4.412   3.623
    1C        C  519   3.120   4.472   3.618
    1C        C  520   2.935   4.370   3.745
    1C        C  521   2.998   4.408   3.866
    1C        C  522   2.839   4.272   3.992
    1C        C  523   2.941   4.370   3.990
    1C        C  524   2.788   4.228   4.116
    1C        C  525   2.831   4.288   4.237
    1C        C  526   2.698   4.126   4.359
    1C        C  527   2.785   4.238   4.361
    1C        C  528   2.656   4.072   4.483
    1C        C  529   2.686   4.138   4.604
    1C        C  530   2.576   3.959   4.731
    1C        C  531   2.633   4.090   4.726
    1C        C  532   2.537   3.894   4.851
    1C        C  533   2.530   3.991   4.956
    1C        C  534   3.618   4.557   2.038
    1C        C  535   3.748   4.504   2.035
    1C        C  536   3.534   4.527   2.150
    1C        C  537   3.600   4.505   2.274
    1C        C  538   3.389   4.514   2.398
    1C        C  539   3.530   4.515   2.396
    1C        C  540   3.317   4.504   2.520
    1C        C  541   3.389   4.506   2.641
    1C        C  542   3.181   4.482   2.762
    1C        C  543   3.320   4.508   2.764
    1C        C  544   3.114   4.464   2.885
    1C        C  545   3.184   4.484   3.006
    1C        C  546   2.993   4.399   3.133
    1C        C  547   3.117   4.466   3.129
    1C        C  548   2.937   4.359   3.257
    1C        C  549   2.993   4.402   3.379
    1C        C  550   2.826   4.278   3.501
    1C        C  551   2.932   4.371   3.502
    1C        C  552   2.779   4.224   3.624
    1C        C  553   2.830   4.276   3.745
    1C        C  554   2.700   4.114   3.871
    1C        C  555   2.789   4.224   3.869
    1C        C  556   2.656   4.060   3.994
    1C        C  557   2.700   4.118   4.115
    1C        C  558   2.591   3.940   4.243
    1C        C  559   2.655   4.066   4.239
    1C        C  560   2.565   3.877   4.366
    1C        C  561   2.587   3.948   4.486
    1C        C  562   2.520   3.753   4.610
    1C        C  563   2.553   3.890   4.610
    1C        C  564   2.506   3.679   4.730
    1C        C  565   2.515   3.753   4.851
    1C        C  566   2.524   3.544   4.974
    1C        C  567   2.514   3.683   4.973
    1C        C  568   3.325   4.468   2.039
    1C        C  569   3.393   4.510   2.155
    1C        C  570   3.182   4.474   2.277
    1C        C  571   3.319   4.513   2.276
    1C        C  572   3.112   4.453   2.398
    1C        C  573   3.178   4.479   2.520
    1C        C  574   2.983   4.399   2.644
    1C        C  575   3.108   4.464   2.642
    1C        C  576   2.926   4.359   2.767
    1C        C  577   2.992   4.393   2.887
    1C        C  578   2.826   4.267   3.012
    1C        C  579   2.938   4.354   3.011
    1C        C  580   2.778   4.217   3.135
    1C        C  581   2.829   4.269   3.256
    1C        C  582   2.691   4.112   3.380
    1C        C  583   2.777   4.224   3.380
    1C        C  584   2.654   4.052   3.503
    1C        C  585   2.694   4.112   3.625
    1C        C  586   2.600   3.926   3.752
    1C        C  587   2.661   4.054   3.749
    1C        C  588   2.572   3.864   3.876
    1C        C  589   2.597   3.931   3.997
    1C        C  590   2.534   3.734   4.123
    1C        C  591   2.569   3.871   4.122
    1C        C  592   2.518   3.667   4.247
    1C        C  593   2.529   3.740   4.368
    1C        C  594   2.508   3.534   4.493
    1C        C  595   2.513   3.675   4.492
    1C        C  596   2.517   3.461   4.615
    1C        C  597   2.509   3.537   4.734
    1C        C  598   2.530   3.327   4.858
    1C        C  599   2.519   3.468   4.857
    1C        C  600   2.533   3.249   4.974
    1C        C  601   3.193   4.430   2.041
    1C        C  602   2.979   4.393   2.156
    1C        C  603   3.115   4.438   2.157
    1C        C  604   2.917   4.363   2.280
    1C        C  605   2.983   4.394   2.401
    1C        C  606   2.811   4.271   2.523
    1C        C  607   2.920   4.360   2.523
    1C        C  608   2.764   4.219   2.646
    1C        C  609   2.820   4.266   2.767
    1C        C  610   2.686   4.106   2.892
    1C        C  611   2.771   4.218   2.891
    1C        C  612   2.651   4.048   3.015
    1C        C  613   2.691   4.106   3.138
    1C        C  614   2.592   3.920   3.262
    1C        C  615   2.651   4.048   3.261
    1C        C  616   2.571   3.856   3.386
    1C        C  617   2.595   3.924   3.507
    1C        C  618   2.533   3.723   3.633
    1C        C  619   2.568   3.860   3.631
    1C        C  620   2.517   3.657   3.757
    1C        C  621   2.529   3.729   3.878
    1C        C  622   2.510   3.522   4.006
    1C        C  623   2.520   3.662   4.002
    1C        C  624   2.512   3.452   4.129
    1C        C  625   2.508   3.527   4.249
    1C        C  626   2.535   3.320   4.374
    1C        C  627   2.510   3.459   4.373
    1C        C  628   2.553   3.252   4.496
    1C        C  629   2.537   3.322   4.618
    1C        C  630   2.594   3.117   4.738
    1C        C  631   2.553   3.253   4.740
    1C        C  632   2.618   3.050   4.862
    1C        C  633   2.555   3.110   4.976
    1C        C  634   2.784   4.296   2.046
    1C        C  635   2.894   4.383   2.041
    1C        C  636   2.748   4.225   2.161
    1C        C  637   2.809   4.271   2.280
    1C        C  638   2.671   4.110   2.405
    1C        C  639   2.757   4.222   2.402
    1C        C  640   2.640   4.047   2.527
    1C        C  641   2.676   4.108   2.649
    1C        C  642   2.586   3.917   2.771
    1C        C  643   2.642   4.046   2.771
    1C        C  644   2.560   3.854   2.895
    1C        C  645   2.584   3.923   3.016
    1C        C  646   2.528   3.720   3.144
    1C        C  647   2.562   3.857   3.139
    1C        C  648   2.511   3.650   3.265
    1C        C  649   2.530   3.721   3.386
    1C        C  650   2.508   3.514   3.514
    1C        C  651   2.521   3.655   3.511
    1C        C  652   2.509   3.445   3.638
    1C        C  653   2.509   3.516   3.760
    1C        C  654   2.532   3.310   3.884
    1C        C  655   2.512   3.450   3.884
    1C        C  656   2.544   3.243   4.008
    1C        C  657   2.531   3.312   4.131
    1C        C  658   2.600   3.114   4.258
    1C        C  659   2.549   3.246   4.254
    1C        C  660   2.633   3.051   4.379
    1C        C  661   2.600   3.118   4.499
    1C        C  662   2.711   2.935   4.622
    1C        C  663   2.631   3.051   4.619
    1C        C  664   2.751   2.876   4.745
    1C        C  665   2.695   2.929   4.864
    1C        C  666   2.743   2.870   4.981
    1C        C  667   2.673   4.019   2.050
    1C        C  668   2.678   4.102   2.163
    1C        C  669   2.591   3.908   2.288
    1C        C  670   2.641   4.041   2.285
    1C        C  671   2.563   3.843   2.410
    1C        C  672   2.584   3.918   2.528
    1C        C  673   2.517   3.715   2.655
    1C        C  674   2.557   3.850   2.649
    1C        C  675   2.507   3.644   2.776
    1C        C  676   2.525   3.717   2.896
    1C        C  677   2.509   3.510   3.026
    1C        C  678   2.514   3.651   3.021
    1C        C  679   2.501   3.439   3.148
    1C        C  680   2.498   3.509   3.270
    1C        C  681   2.530   3.302   3.396
    1C        C  682   2.504   3.441   3.394
    1C        C  683   2.554   3.236   3.519
    1C        C  684   2.531   3.305   3.641
    1C        C  685   2.602   3.107   3.770
    1C        C  686   2.548   3.238   3.764
    1C        C  687   2.636   3.049   3.894
    1C        C  688   2.598   3.113   4.014
    1C        C  689   2.707   2.930   4.134
    1C        C  690   2.628   3.048   4.136
    1C        C  691   2.755   2.877   4.255
    1C        C  692   2.713   2.934   4.377
    1C        C  693   2.755   2.878   4.500
    1C        C  694   2.615   3.892   2.049
    1C        C  695   2.523   3.702   2.174
    1C        C  696   2.574   3.833   2.170
    1C        C  697   2.499   3.635   2.296
    1C        C  698   2.518   3.709   2.415
    1C        C  699   2.485   3.499   2.540
    1C        C  700   2.498   3.640   2.537
    1C        C  701   2.494   3.430   2.663
    1C        C  702   2.496   3.503   2.784
    1C        C  703   2.532   3.296   2.908
    1C        C  704   2.507   3.435   2.907
    1C        C  705   2.544   3.227   3.030
    1C        C  706   2.528   3.300   3.150
    1C        C  707   2.597   3.102   3.277
    1C        C  708   2.550   3.235   3.274
    1C        C  709   2.630   3.039   3.399
    1C        C  710   2.605   3.105   3.522
    1C        C  711   2.713   2.928   3.647
    1C        C  712   2.634   3.046   3.647
    1C        C  713   2.754   2.870   3.769
    1C        C  714   2.713   2.930   3.890
    1C        C  715   2.754   2.874   4.013
    1C        C  716   2.446   3.496   2.059
    1C        C  717   2.487   3.630   2.059
    1C        C  718   2.460   3.419   2.178
    1C        C  719   2.476   3.494   2.298
    1C        C  720   2.512   3.287   2.420
    1C        C  721   2.482   3.424   2.420
    1C        C  722   2.534   3.219   2.542
    1C        C  723   2.520   3.291   2.663
    1C        C  724   2.594   3.093   2.786
    1C        C  725   2.545   3.226   2.785
    1C        C  726   2.631   3.035   2.910
    1C        C  727   2.598   3.096   3.033
    1C        C  728   2.706   2.917   3.154
    1C        C  729   2.631   3.036   3.156
    1C        C  730   2.750   2.865   3.278
    1C        C  731   2.706   2.920   3.400
    1C        C  732   2.754   2.871   3.524
    1C        C  733   2.484   3.193   2.069
    1C        C  734   2.487   3.278   2.180
    1C        C  735   2.587   3.085   2.301
    1C        C  736   2.527   3.214   2.300
    1C        C  737   2.620   3.022   2.423
    1C        C  738   2.588   3.088   2.543
    1C        C  739   2.693   2.904   2.668
    1C        C  740   2.618   3.024   2.666
    1C        C  741   2.742   2.850   2.788
    1C        C  742   2.700   2.912   2.908
    1C        C  743   2.748   2.862   3.031
    1C        C  744   2.541   3.066   2.072
    1C        C  745   2.683   2.892   2.183
    1C        C  746   2.603   3.009   2.183
    1C        C  747   2.720   2.833   2.305
    1C        C  748   2.687   2.897   2.426
    1C        C  749   2.742   2.849   2.547
    1C        C  750   2.737   2.835   2.067
    1C        C  751   3.661   2.322   1.964
    1C        O  752   3.723   2.214   1.984
    1C        O  753   3.657   2.360   1.830
    1C        C  754   4.643   3.058   1.988
    1C        O  755   4.619   2.981   1.891
    1C        O  756   4.756   3.011   2.057
    1C        C  757   4.464   4.212   1.974
    1C        O  758   4.566   4.262   2.030
    1C        O  759   4.433   4.264   1.848
    1C        C  760   3.607   4.687   1.969
    1C        O  761   3.553   4.793   2.012
    1C        O  762   3.609   4.706   1.830
    1C        C  763   2.888   4.488   1.936
    1C        O  764   2.915   4.470   1.815
    1C        O  765   2.819   4.608   1.957
    1C        C  766   2.357   3.460   1.947
    1C        O  767   2.389   3.445   1.826
    1C        O  768   2.219   3.446   1.966
    1C        C  769   4.696   3.589   5.046
    1C        O  770   4.669   3.555   5.164
    1C        O  771   4.814   3.664   5.036
    1C        C  772   4.280   4.472   4.994
    1C        O  773   4.328   4.456   5.110
    1C        O  774   4.332   4.586   4.932
    1C        C  775   4.144   2.483   5.036
    1C        O  776   4.193   2.387   4.970
    1C        O  777   4.216   2.524   5.149
    1C        C  778   2.895   4.545   5.042
    1C        O  779   2.860   4.658   4.998
    1C        O  780   2.914   4.536   5.181
    1C        C  781   2.457   3.042   5.063
    1C        O  782   2.337   3.037   5.024
    1C        O  783   2.475   3.026   5.200
    1C        C  784   2.421   3.989   5.057
    1C        O  785   2.305   4.029   5.031
    1C        O  786   2.449   3.958   5.191
    1C        C  787   2.945   2.425   1.995
    1C        O  788   2.903   2.467   1.884
    1C        O  789   2.858   2.331   2.050
    1C        C  790   3.177   2.362   5.048
    1C        O  791   3.195   2.247   4.999
    1C        O  792   3.132   2.356   5.181
    1C        H  793   4.264   3.031   5.049
    1C        H  794   4.148   2.831   5.054
    1C        H  795   4.529   3.120   5.032
    1C        H  796   4.564   3.352   5.054
    1C        H  797   4.562   3.818   5.035
    1C        H  798   4.446   3.998   5.048
    1C        H  799   4.336   4.197   5.032
    1C        H  800   4.002   4.477   5.040
    1C        H  801   3.806   4.564   5.046
    1C        H  802   3.584   4.648   5.021
    1C        H  803   3.396   4.447   5.024
    1C        H  804   3.158   4.544   5.035
    1C        H  805   3.876   2.518   5.076
    1C        H  806   3.674   2.448   5.072
    1C        H  807   2.981   2.513   5.040
    1C        H  808   3.446   2.446   5.077
    1C        H  809   2.891   2.760   5.072
    1C        H  810   2.664   2.857   5.052
    1C        H  811   2.478   3.296   5.052
    1C        H  812   2.508   3.495   5.068
    1C        H  813   2.487   3.730   5.064
    1C        H  814   2.638   4.138   5.053
    1C        H  815   2.761   4.304   5.051
    1C        H  816   2.677   2.836   1.978
    1C        H  817   2.894   2.720   1.988
    1C        H  818   3.222   2.468   1.979
    1C        H  819   3.419   2.406   1.984
    1C        H  820   3.844   2.507   1.975
    1C        H  821   4.034   2.656   1.964
    1C        H  822   4.227   2.742   1.965
    1C        H  823   4.420   2.885   1.973
    1C        H  824   4.532   3.308   1.957
    1C        H  825   4.532   3.516   1.952
    1C        H  826   4.502   3.746   1.951
    1C        H  827   3.801   4.502   1.942
    1C        H  828   3.982   4.401   1.945
    1C        H  829   4.179   4.287   1.946
    1C        H  830   4.482   3.962   1.958
    1C        H  831   2.659   3.832   1.972
    1C        H  832   2.700   4.059   1.954
    1C        H  833   2.736   4.272   1.954
    1C        H  834   3.371   4.475   1.943
    1C        H  835   3.166   4.352   1.973
    1C        H  836   2.518   3.003   1.989
    1C        H  837   2.404   3.209   1.998
    1C        H  838   2.522   3.669   1.966
    2V3OU   H29  839   2.806   3.546   0.953
    2V3OU   C27  840   2.782   3.500   1.052
    2V3OU   H27  841   2.721   3.566   1.118
    2V3OU   H28  842   2.726   3.404   1.042
    2V3OU   O11  843   2.906   3.468   1.117
    2V3OU   C15  844   2.914   3.391   1.232
    2V3OU   C13  845   3.047   3.371   1.274
    2V3OU   C14  846   3.071   3.264   1.360
    2V3OU   C16  847   2.965   3.186   1.404
    2V3OU    H6  848   2.987   3.091   1.455
    2V3OU   C12  849   3.209   3.225   1.398
    2V3OU    O2  850   3.226   3.122   1.466
    2V3OU   C10  851   3.322   3.305   1.347
    2V3OU    C8  852   3.455   3.268   1.367
    2V3OU   O10  853   3.483   3.145   1.418
    2V3OU   H26  854   3.395   3.112   1.440
    2V3OU    C6  855   3.563   3.346   1.314
    2V3OU    C5  856   3.532   3.458   1.238
    2V3OU    C4  857   3.701   3.290   1.307
    2V3OU    H4  858   3.720   3.218   1.392
    2V3OU    H5  859   3.703   3.230   1.211
    2V3OU    C2  860   3.814   3.392   1.303
    2V3OU    O6  861   3.804   3.472   1.421
    2V3OU   H21  862   3.757   3.553   1.394
    2V3OU    C3  863   3.777   3.490   1.191
    2V3OU    H2  864   3.859   3.566   1.179
    2V3OU    H3  865   3.777   3.425   1.100
    2V3OU   C25  866   3.950   3.324   1.283
    2V3OU    O7  867   3.993   3.291   1.173
    2V3OU   C26  868   4.026   3.286   1.409
    2V3OU   H22  869   4.063   3.378   1.461
    2V3OU   H23  870   4.118   3.228   1.382
    2V3OU    O8  871   3.951   3.205   1.497
    2V3OU   H24  872   3.924   3.265   1.568
    2V3OU    C1  873   3.640   3.555   1.202
    2V3OU    H1  874   3.617   3.611   1.107
    2V3OU    O3  875   3.659   3.650   1.308
    2V3OU   C19  876   3.613   3.784   1.291
    2V3OU    H9  877   3.514   3.788   1.237
    2V3OU    O4  878   3.708   3.842   1.205
    2V3OU   C20  879   3.841   3.873   1.250
    2V3OU   H10  880   3.895   3.776   1.267
    2V3OU   C24  881   3.603   3.850   1.429
    2V3OU   H16  882   3.541   3.788   1.498
    2V3OU   H17  883   3.558   3.952   1.417
    2V3OU   C23  884   3.745   3.872   1.482
    2V3OU   H15  885   3.789   3.769   1.505
    2V3OU    N1  886   3.732   3.947   1.605
    2V3OU   H19  887   3.805   3.920   1.669
    2V3OU   H20  888   3.646   3.926   1.651
    2V3OU   C21  889   3.844   3.944   1.385
    2V3OU   H11  890   3.949   3.921   1.422
    2V3OU    O5  891   3.830   4.085   1.384
    2V3OU   H18  892   3.782   4.101   1.467
    2V3OU   C22  893   3.912   3.948   1.138
    2V3OU   H12  894   3.861   4.047   1.128
    2V3OU   H13  895   3.898   3.892   1.042
    2V3OU   H14  896   4.020   3.960   1.164
    2V3OU   C11  897   3.155   3.463   1.236
    2V3OU    O1  898   3.129   3.581   1.205
    2V3OU    C9  899   3.293   3.424   1.275
    2V3OU    C7  900   3.396   3.496   1.217
    2V3OU    O9  901   3.381   3.611   1.141
    2V3OU   H25  902   3.288   3.635   1.145
    2V3OU   C17  903   2.808   3.308   1.274
    2V3OU    H7  904   2.709   3.339   1.239
    2V3OU   C18  905   2.833   3.204   1.362
    2V3OU    H8  906   2.753   3.147   1.412
    3SOL     OW  907   0.684   4.135   0.693
    3SOL    HW1  908   0.709   4.099   0.783
    3SOL    HW2  909   0.644   4.226   0.704
    4SOL     OW  910   5.417   1.388   2.360
    4SOL    HW1  911   5.479   1.464   2.379
    4SOL    HW2  912   5.374   1.357   2.445
    5SOL     OW  913   3.641   2.883   1.445
    5SOL    HW1  914   3.601   2.960   1.494
    5SOL    HW2  915   3.739   2.896   1.435
    6SOL     OW  916   2.664   2.293   0.309
    6SOL    HW1  917   2.718   2.217   0.272
    6SOL    HW2  918   2.573   2.291   0.268
    7SOL     OW  919   5.969   1.095   1.713
    7SOL    HW1  920   5.900   1.162   1.686
    7SOL    HW2  921   6.042   1.094   1.645
    8SOL     OW  922   3.143   1.737   3.507
    8SOL    HW1  923   3.114   1.658   3.453
    8SOL    HW2  924   3.071   1.759   3.573
    9SOL     OW  925   0.020   4.019   5.654
    9SOL    HW1  926   0.026   4.049   5.750
    9SOL    HW2  927   0.084   4.072   5.599
   10SOL     OW  928   0.563   4.394   0.746
   10SOL    HW1  929   0.516   4.433   0.826
   10SOL    HW2  930   0.497   4.343   0.691
   11SOL     OW  931   4.299   6.611   6.693
   11SOL    HW1  932   4.268   6.570   6.779
   11SOL    HW2  933   4.390   6.650   6.705
   12SOL     OW  934   5.518   6.528   2.186
   12SOL    HW1  935   5.446   6.598   2.184
   12SOL    HW2  936   5.518   6.481   2.274
   13SOL     OW  937   1.367   0.389   3.054
   13SOL    HW1  938   1.388   0.486   3.063
   13SOL    HW2  939   1.390   0.342   3.139
   14SOL     OW  940   3.035   0.028   2.934
   14SOL    HW1  941   3.111   0.064   2.880
   14SOL    HW2  942   2.960   0.002   2.873
   15SOL     OW  943   2.654   6.593   6.535
   15SOL    HW1  944   2.658   6.644   6.449
   15SOL    HW2  945   2.656   6.495   6.514
   16SOL     OW  946   6.406   1.948   6.880
   16SOL    HW1  947   6.372   1.956   6.786
   16SOL    HW2  948   6.330   1.962   6.944
   17SOL     OW  949   4.487   6.065   3.191
   17SOL    HW1  950   4.479   6.057   3.290
   17SOL    HW2  951   4.400   6.039   3.148
   18SOL     OW  952   1.653   1.351   0.306
   18SOL    HW1  953   1.659   1.310   0.215
   18SOL    HW2  954   1.738   1.335   0.356
   19SOL     OW  955   0.963   6.870   1.256
   19SOL    HW1  956   0.968   6.791   1.196
   19SOL    HW2  957   1.052   6.915   1.259
   20SOL     OW  958   3.511   0.932   3.940
   20SOL    HW1  959   3.511   0.887   4.030
   20SOL    HW2  960   3.587   0.997   3.935
   21SOL     OW  961   3.071   2.894   1.697
   21SOL    HW1  962   3.051   2.798   1.716
   21SOL    HW2  963   3.004   2.951   1.745
   22SOL     OW  964   0.923   1.028   5.509
   22SOL    HW1  965   0.932   1.016   5.410
   22SOL    HW2  966   0.915   0.939   5.553
   23SOL     OW  967   2.804   5.793   4.888
   23SOL    HW1  968   2.828   5.751   4.801
   23SOL    HW2  969   2.884   5.838   4.928
   24SOL     OW  970   4.021   1.334   4.890
   24SOL    HW1  971   4.045   1.239   4.906
   24SOL    HW2  972   3.926   1.350   4.917
   25SOL     OW  973   2.212   5.301   1.235
   25SOL    HW1  974   2.145   5.235   1.270
   25SOL    HW2  975   2.303   5.261   1.239
   26SOL     OW  976   5.816   1.061   3.014
   26SOL    HW1  977   5.852   1.042   2.923
   26SOL    HW2  978   5.722   1.028   3.021
   27SOL     OW  979   6.217   0.052   2.230
   27SOL    HW1  980   6.292   7.001   2.229
   27SOL    HW2  981   6.247   0.137   2.187
   28SOL     OW  982   2.940   0.189   0.623
   28SOL    HW1  983   3.014   0.216   0.685
   28SOL    HW2  984   2.978   0.139   0.546
   29SOL     OW  985   4.443   3.084   1.709
   29SOL    HW1  986   4.494   3.043   1.785
   29SOL    HW2  987   4.435   3.017   1.635
   30SOL     OW  988   4.237   1.398   5.079
   30SOL    HW1  989   4.227   1.496   5.093
   30SOL    HW2  990   4.168   1.367   5.013
   31SOL     OW  991   0.686   1.209   5.069
   31SOL    HW1  992   0.592   1.218   5.037
   31SOL    HW2  993   0.687   1.179   5.164
   32SOL     OW  994   6.820   2.042   2.071
   32SOL    HW1  995   6.818   2.115   2.139
   32SOL    HW2  996   6.914   2.029   2.039
   33SOL     OW  997   1.455   2.044   5.849
   33SOL    HW1  998   1.501   2.082   5.769
   33SOL    HW2  999   1.517   2.045   5.927
   34SOL     OW 1000   0.707   0.356   4.923
   34SOL    HW1 1001   0.613   0.340   4.953
   34SOL    HW2 1002   0.706   0.404   4.835
   35SOL     OW 1003   4.009   2.231   6.139
   35SOL    HW1 1004   4.039   2.325   6.128
   35SOL    HW2 1005   3.993   2.211   6.236
   36SOL     OW 1006   1.467   1.769   5.793
   36SOL    HW1 1007   1.368   1.764   5.801
   36SOL    HW2 1008   1.494   1.861   5.764
   37SOL     OW 1009   2.222   6.569   0.888
   37SOL    HW1 1010   2.142   6.546   0.833
   37SOL    HW2 1011   2.284   6.491   0.891
   38SOL     OW 1012   0.068   6.252   1.775
   38SOL    HW1 1013   6.996   6.240   1.728
   38SOL    HW2 1014   0.100   6.346   1.764
   39SOL     OW 1015   6.829   2.655   6.099
   39SOL    HW1 1016   6.837   2.701   6.188
   39SOL    HW2 1017   6.735   2.621   6.088
   40SOL     OW 1018   6.983   1.060   1.068
   40SOL    HW1 1019   0.053   1.043   1.116
   40SOL    HW2 1020   6.917   1.101   1.130
   41SOL     OW 1021   1.141   1.174   6.062
   41SOL    HW1 1022   1.116   1.250   6.002
   41SOL    HW2 1023   1.184   1.102   6.007
   42SOL     OW 1024   4.026   0.194   1.100
   42SOL    HW1 1025   4.104   0.257   1.104
   42SOL    HW2 1026   4.059   0.102   1.080
   43SOL     OW 1027   4.666   5.826   5.185
   43SOL    HW1 1028   4.653   5.871   5.273
   43SOL    HW2 1029   4.708   5.737   5.198
   44SOL     OW 1030   0.591   3.271   6.906
   44SOL    HW1 1031   0.531   3.229   6.838
   44SOL    HW2 1032   0.539   3.336   6.961
   45SOL     OW 1033   2.843   0.402   1.227
   45SOL    HW1 1034   2.863   0.473   1.295
   45SOL    HW2 1035   2.762   0.351   1.256
   46SOL     OW 1036   1.247   4.993   4.268
   46SOL    HW1 1037   1.192   5.055   4.324
   46SOL    HW2 1038   1.276   4.916   4.324
   47SOL     OW 1039   5.525   4.581   2.643
   47SOL    HW1 1040   5.541   4.644   2.566
   47SOL    HW2 1041   5.456   4.514   2.617
   48SOL     OW 1042   0.636   0.891   5.403
   48SOL    HW1 1043   0.690   0.861   5.481
   48SOL    HW2 1044   0.545   0.919   5.434
   49SOL     OW 1045   5.690   3.392   0.212
   49SOL    HW1 1046   5.737   3.340   0.141
   49SOL    HW2 1047   5.757   3.437   0.270
   50SOL     OW 1048   0.115   3.594   4.923
   50SOL    HW1 1049   0.153   3.668   4.867
   50SOL    HW2 1050   0.189   3.547   4.971
   51SOL     OW 1051   2.962   5.652   2.356
   51SOL    HW1 1052   2.941   5.576   2.294
   51SOL    HW2 1053   2.877   5.696   2.384
   52SOL     OW 1054   0.934   2.013   1.727
   52SOL    HW1 1055   0.953   1.946   1.798
   52SOL    HW2 1056   0.855   1.985   1.673
   53SOL     OW 1057   5.044   6.195   4.140
   53SOL    HW1 1058   5.110   6.120   4.138
   53SOL    HW2 1059   5.016   6.218   4.046
   54SOL     OW 1060   4.845   5.043   5.873
   54SOL    HW1 1061   4.789   5.095   5.938
   54SOL    HW2 1062   4.940   5.045   5.903
   55SOL     OW 1063   3.697   1.698   0.987
   55SOL    HW1 1064   3.744   1.636   1.050
   55SOL    HW2 1065   3.716   1.792   1.013
   56SOL     OW 1066   0.367   6.809   1.612
   56SOL    HW1 1067   0.379   6.745   1.536
   56SOL    HW2 1068   0.433   6.787   1.684
   57SOL     OW 1069   5.535   1.142   1.184
   57SOL    HW1 1070   5.582   1.096   1.109
   57SOL    HW2 1071   5.437   1.124   1.178
   58SOL     OW 1072   6.855   0.304   6.794
   58SOL    HW1 1073   6.881   0.213   6.827
   58SOL    HW2 1074   6.763   0.300   6.754
   59SOL     OW 1075   1.043   0.047   4.899
   59SOL    HW1 1076   1.041   7.004   4.980
   59SOL    HW2 1077   1.084   7.012   4.823
   60SOL     OW 1078   5.078   0.109   5.060
   60SOL    HW1 1079   5.020   0.080   4.983
   60SOL    HW2 1080   5.070   0.044   5.135
   61SOL     OW 1081   4.204   0.140   5.080
   61SOL    HW1 1082   4.259   0.162   5.000
   61SOL    HW2 1083   4.201   0.219   5.141
   62SOL     OW 1084   3.128   0.936   4.957
   62SOL    HW1 1085   3.227   0.929   4.971
   62SOL    HW2 1086   3.109   0.945   4.859
   63SOL     OW 1087   0.002   3.311   3.420
   63SOL    HW1 1088   6.926   3.273   3.405
   63SOL    HW2 1089   0.065   3.237   3.444
   64SOL     OW 1090   0.184   2.238   5.464
   64SOL    HW1 1091   0.101   2.255   5.519
   64SOL    HW2 1092   0.187   2.142   5.438
   65SOL     OW 1093   0.838   3.422   5.575
   65SOL    HW1 1094   0.935   3.415   5.596
   65SOL    HW2 1095   0.824   3.489   5.502
   66SOL     OW 1096   2.657   0.594   1.013
   66SOL    HW1 1097   2.582   0.630   0.957
   66SOL    HW2 1098   2.681   0.661   1.083
   67SOL     OW 1099   4.713   5.735   4.075
   67SOL    HW1 1100   4.744   5.829   4.086
   67SOL    HW2 1101   4.766   5.690   4.003
   68SOL     OW 1102   5.407   2.603   6.718
   68SOL    HW1 1103   5.434   2.657   6.798
   68SOL    HW2 1104   5.394   2.508   6.746
   69SOL     OW 1105   2.344   2.923   5.766
   69SOL    HW1 1106   2.256   2.916   5.720
   69SOL    HW2 1107   2.377   2.831   5.788
   70SOL     OW 1108   6.253   6.264   2.264
   70SOL    HW1 1109   6.274   6.189   2.327
   70SOL    HW2 1110   6.320   6.264   2.190
   71SOL     OW 1111   2.114   3.511   2.575
   71SOL    HW1 1112   2.097   3.606   2.548
   71SOL    HW2 1113   2.075   3.494   2.665
   72SOL     OW 1114   3.425   5.614   3.693
   72SOL    HW1 1115   3.392   5.603   3.787
   72SOL    HW2 1116   3.456   5.525   3.658
   73SOL     OW 1117   3.678   2.322   6.523
   73SOL    HW1 1118   3.720   2.403   6.481
   73SOL    HW2 1119   3.610   2.352   6.590
   74SOL     OW 1120   5.143   6.600   6.486
   74SOL    HW1 1121   5.061   6.558   6.445
   74SOL    HW2 1122   5.156   6.564   6.578
   75SOL     OW 1123   3.174   4.811   5.490
   75SOL    HW1 1124   3.175   4.779   5.396
   75SOL    HW2 1125   3.144   4.907   5.492
   76SOL     OW 1126   2.589   2.997   1.238
   76SOL    HW1 1127   2.671   2.943   1.252
   76SOL    HW2 1128   2.587   3.031   1.144
   77SOL     OW 1129   5.493   4.626   6.499
   77SOL    HW1 1130   5.536   4.629   6.589
   77SOL    HW2 1131   5.447   4.538   6.486
   78SOL     OW 1132   6.469   6.349   6.266
   78SOL    HW1 1133   6.562   6.332   6.296
   78SOL    HW2 1134   6.441   6.441   6.295
   79SOL     OW 1135   3.423   6.502   0.192
   79SOL    HW1 1136   3.415   6.463   0.101
   79SOL    HW2 1137   3.429   6.429   0.260
   80SOL     OW 1138   0.061   0.932   4.300
   80SOL    HW1 1139   0.047   0.833   4.296
   80SOL    HW2 1140   0.124   0.953   4.375
   81SOL     OW 1141   1.728   0.125   3.914
   81SOL    HW1 1142   1.713   0.040   3.863
   81SOL    HW2 1143   1.787   0.186   3.861
   82SOL     OW 1144   6.813   4.337   5.834
   82SOL    HW1 1145   6.893   4.378   5.790
   82SOL    HW2 1146   6.732   4.394   5.816
   83SOL     OW 1147   6.589   6.956   6.309
   83SOL    HW1 1148   6.672   6.900   6.309
   83SOL    HW2 1149   6.554   6.963   6.403
   84SOL     OW 1150   6.220   3.641   1.407
   84SOL    HW1 1151   6.161   3.720   1.400
   84SOL    HW2 1152   6.284   3.653   1.484
   85SOL     OW 1153   0.989   1.294   5.477
   85SOL    HW1 1154   0.963   1.198   5.490
   85SOL    HW2 1155   0.996   1.314   5.379
   86SOL     OW 1156   2.287   1.045   4.686
   86SOL    HW1 1157   2.199   1.065   4.643
   86SOL    HW2 1158   2.271   0.993   4.770
   87SOL     OW 1159   4.781   6.987   1.794
   87SOL    HW1 1160   4.724   0.038   1.745
   87SOL    HW2 1161   4.843   0.021   1.855
   88SOL     OW 1162   6.064   0.583   0.747
   88SOL    HW1 1163   6.050   0.554   0.841
   88SOL    HW2 1164   6.057   0.504   0.686
   89SOL     OW 1165   2.474   1.689   5.453
   89SOL    HW1 1166   2.534   1.727   5.523
   89SOL    HW2 1167   2.399   1.639   5.498
   90SOL     OW 1168   6.755   5.825   3.611
   90SOL    HW1 1169   6.686   5.769   3.564
   90SOL    HW2 1170   6.759   5.915   3.569
   91SOL     OW 1171   4.209   4.933   4.678
   91SOL    HW1 1172   4.242   4.841   4.699
   91SOL    HW2 1173   4.258   4.969   4.599
   92SOL     OW 1174   3.310   6.086   1.365
   92SOL    HW1 1175   3.249   6.160   1.337
   92SOL    HW2 1176   3.260   6.022   1.424
   93SOL     OW 1177   3.555   4.634   6.015
   93SOL    HW1 1178   3.491   4.573   5.968
   93SOL    HW2 1179   3.606   4.688   5.947
   94SOL     OW 1180   2.441   6.704   1.962
   94SOL    HW1 1181   2.412   6.727   2.055
   94SOL    HW2 1182   2.499   6.623   1.964
   95SOL     OW 1183   6.646   0.240   5.040
   95SOL    HW1 1184   6.717   0.243   5.110
   95SOL    HW2 1185   6.577   0.310   5.059
   96SOL     OW 1186   1.782   6.868   5.001
   96SOL    HW1 1187   1.745   6.857   4.909
   96SOL    HW2 1188   1.863   6.811   5.012
   97SOL     OW 1189   5.795   2.932   4.809
   97SOL    HW1 1190   5.809   2.842   4.767
   97SOL    HW2 1191   5.881   2.983   4.809
   98SOL     OW 1192   5.808   1.948   6.121
   98SOL    HW1 1193   5.799   1.849   6.106
   98SOL    HW2 1194   5.757   1.974   6.203
   99SOL     OW 1195   4.525   1.893   0.941
   99SOL    HW1 1196   4.510   1.878   0.843
   99SOL    HW2 1197   4.530   1.992   0.958
  100SOL     OW 1198   6.383   5.099   6.690
  100SOL    HW1 1199   6.465   5.148   6.662
  100SOL    HW2 1200   6.359   5.125   6.784
  101SOL     OW 1201   0.855   6.488   4.268
  101SOL    HW1 1202   0.809   6.539   4.195
  101SOL    HW2 1203   0.824   6.521   4.357
  102SOL     OW 1204   4.321   0.420   2.948
  102SOL    HW1 1205   4.393   0.357   2.976
  102SOL    HW2 1206   4.317   0.497   3.011
  103SOL     OW 1207   3.520   2.056   1.573
  103SOL    HW1 1208   3.447   2.040   1.506
  103SOL    HW2 1209   3.497   2.009   1.658
  104SOL     OW 1210   0.005   5.947   2.177
  104SOL    HW1 1211   0.057   5.971   2.095
  104SOL    HW2 1212   0.045   5.865   2.219
  105SOL     OW 1213   5.361   1.332   5.747
  105SOL    HW1 1214   5.331   1.427   5.738
  105SOL    HW2 1215   5.310   1.274   5.683
  106SOL     OW 1216   3.291   6.400   1.102
  106SOL    HW1 1217   3.208   6.433   1.146
  106SOL    HW2 1218   3.268   6.354   1.016
  107SOL     OW 1219   2.385   3.167   0.894
  107SOL    HW1 1220   2.392   3.222   0.977
  107SOL    HW2 1221   2.394   3.070   0.917
  108SOL     OW 1222   4.713   4.259   5.015
  108SOL    HW1 1223   4.719   4.160   5.029
  108SOL    HW2 1224   4.636   4.295   5.067
  109SOL     OW 1225   6.489   0.741   1.415
  109SOL    HW1 1226   6.474   0.663   1.475
  109SOL    HW2 1227   6.561   0.720   1.349
  110SOL     OW 1228   3.437   5.990   4.444
  110SOL    HW1 1229   3.338   6.006   4.436
  110SOL    HW2 1230   3.469   6.023   4.532
  111SOL     OW 1231   3.142   1.159   3.429
  111SOL    HW1 1232   3.162   1.085   3.364
  111SOL    HW2 1233   3.227   1.200   3.460
  112SOL     OW 1234   6.712   1.247   6.509
  112SOL    HW1 1235   6.704   1.272   6.412
  112SOL    HW2 1236   6.743   1.326   6.561
  113SOL     OW 1237   6.900   6.249   3.638
  113SOL    HW1 1238   6.908   6.343   3.606
  113SOL    HW2 1239   6.806   6.231   3.668
  114SOL     OW 1240   1.297   6.806   0.141
  114SOL    HW1 1241   1.287   6.737   0.069
  114SOL    HW2 1242   1.269   6.766   0.228
  115SOL     OW 1243   5.442   0.840   5.827
  115SOL    HW1 1244   5.529   0.835   5.777
  115SOL    HW2 1245   5.459   0.821   5.924
  116SOL     OW 1246   6.058   4.402   2.462
  116SOL    HW1 1247   5.967   4.362   2.470
  116SOL    HW2 1248   6.125   4.341   2.505
  117SOL     OW 1249   1.562   6.741   6.337
  117SOL    HW1 1250   1.602   6.711   6.250
  117SOL    HW2 1251   1.464   6.757   6.325
  118SOL     OW 1252   2.048   0.910   2.912
  118SOL    HW1 1253   2.089   0.916   3.004
  118SOL    HW2 1254   2.022   0.815   2.894
  119SOL     OW 1255   6.705   2.461   6.392
  119SOL    HW1 1256   6.677   2.389   6.330
  119SOL    HW2 1257   6.804   2.459   6.405
  120SOL     OW 1258   5.523   6.465   1.656
  120SOL    HW1 1259   5.605   6.515   1.682
  120SOL    HW2 1260   5.531   6.369   1.684
  121SOL     OW 1261   2.820   3.066   5.945
  121SOL    HW1 1262   2.864   3.050   5.856
  121SOL    HW2 1263   2.721   3.066   5.933
  122SOL     OW 1264   0.286   3.287   4.743
  122SOL    HW1 1265   0.278   3.277   4.644
  122SOL    HW2 1266   0.374   3.329   4.765
  123SOL     OW 1267   0.591   1.958   1.762
  123SOL    HW1 1268   0.518   1.911   1.713
  123SOL    HW2 1269   0.599   2.052   1.729
  124SOL     OW 1270   4.864   3.693   0.916
  124SOL    HW1 1271   4.791   3.749   0.955
  124SOL    HW2 1272   4.863   3.702   0.816
  125SOL     OW 1273   2.222   3.506   1.631
  125SOL    HW1 1274   2.278   3.472   1.707
  125SOL    HW2 1275   2.126   3.504   1.657
  126SOL     OW 1276   3.825   4.610   0.642
  126SOL    HW1 1277   3.765   4.674   0.689
  126SOL    HW2 1278   3.817   4.622   0.543
  127SOL     OW 1279   1.079   5.015   5.745
  127SOL    HW1 1280   1.070   4.985   5.650
  127SOL    HW2 1281   1.125   5.104   5.747
  128SOL     OW 1282   4.381   2.648   1.254
  128SOL    HW1 1283   4.418   2.633   1.162
  128SOL    HW2 1284   4.392   2.745   1.278
  129SOL     OW 1285   2.354   3.874   6.876
  129SOL    HW1 1286   2.447   3.856   6.845
  129SOL    HW2 1287   2.336   3.823   6.960
  130SOL     OW 1288   1.779   2.537   5.025
  130SOL    HW1 1289   1.758   2.603   5.096
  130SOL    HW2 1290   1.812   2.452   5.066
  131SOL     OW 1291   5.493   1.584   2.644
  131SOL    HW1 1292   5.457   1.623   2.729
  131SOL    HW2 1293   5.588   1.559   2.656
  132SOL     OW 1294   0.642   2.339   2.277
  132SOL    HW1 1295   0.606   2.258   2.230
  132SOL    HW2 1296   0.649   2.415   2.213
  133SOL     OW 1297   7.001   5.478   2.673
  133SOL    HW1 1298   6.907   5.453   2.649
  133SOL    HW2 1299   0.020   5.546   2.607
  134SOL     OW 1300   1.182   3.378   2.366
  134SOL    HW1 1301   1.263   3.425   2.400
  134SOL    HW2 1302   1.100   3.415   2.410
  135SOL     OW 1303   4.034   1.440   4.000
  135SOL    HW1 1304   4.052   1.538   3.994
  135SOL    HW2 1305   4.119   1.390   3.982
  136SOL     OW 1306   4.778   4.840   5.423
  136SOL    HW1 1307   4.875   4.824   5.404
  136SOL    HW2 1308   4.733   4.872   5.340
  137SOL     OW 1309   3.393   0.954   5.892
  137SOL    HW1 1310   3.296   0.945   5.915
  137SOL    HW2 1311   3.442   0.871   5.922
  138SOL     OW 1312   6.194   4.742   5.351
  138SOL    HW1 1313   6.163   4.667   5.409
  138SOL    HW2 1314   6.118   4.778   5.298
  139SOL     OW 1315   2.951   6.108   5.593
  139SOL    HW1 1316   2.867   6.053   5.601
  139SOL    HW2 1317   2.943   6.190   5.650
  140SOL     OW 1318   6.534   4.408   4.425
  140SOL    HW1 1319   6.474   4.405   4.505
  140SOL    HW2 1320   6.497   4.471   4.357
  141SOL     OW 1321   1.187   1.911   2.409
  141SOL    HW1 1322   1.198   1.984   2.476
  141SOL    HW2 1323   1.217   1.943   2.319
  142SOL     OW 1324   1.634   5.386   1.469
  142SOL    HW1 1325   1.556   5.447   1.481
  142SOL    HW2 1326   1.660   5.384   1.372
  143SOL     OW 1327   5.222   4.500   2.291
  143SOL    HW1 1328   5.320   4.488   2.305
  143SOL    HW2 1329   5.180   4.412   2.269
  144SOL     OW 1330   2.292   6.331   1.110
  144SOL    HW1 1331   2.334   6.346   1.021
  144SOL    HW2 1332   2.349   6.269   1.164
  145SOL     OW 1333   6.774   5.167   0.525
  145SOL    HW1 1334   6.711   5.109   0.577
  145SOL    HW2 1335   6.868   5.139   0.543
  146SOL     OW 1336   6.677   5.035   0.747
  146SOL    HW1 1337   6.679   4.936   0.739
  146SOL    HW2 1338   6.732   5.063   0.826
  147SOL     OW 1339   5.194   2.744   0.884
  147SOL    HW1 1340   5.142   2.757   0.968
  147SOL    HW2 1341   5.285   2.784   0.893
  148SOL     OW 1342   1.176   5.245   5.289
  148SOL    HW1 1343   1.112   5.273   5.360
  148SOL    HW2 1344   1.136   5.262   5.199
  149SOL     OW 1345   3.155   1.015   5.996
  149SOL    HW1 1346   3.062   1.044   6.018
  149SOL    HW2 1347   3.219   1.088   6.018
  150SOL     OW 1348   0.314   5.931   5.616
  150SOL    HW1 1349   0.246   5.858   5.606
  150SOL    HW2 1350   0.275   6.005   5.671
  151SOL     OW 1351   3.613   0.530   2.162
  151SOL    HW1 1352   3.615   0.614   2.107
  151SOL    HW2 1353   3.596   0.554   2.258
  152SOL     OW 1354   3.324   1.171   4.856
  152SOL    HW1 1355   3.367   1.109   4.922
  152SOL    HW2 1356   3.233   1.197   4.889
  153SOL     OW 1357   1.275   0.596   2.811
  153SOL    HW1 1358   1.284   0.530   2.885
  153SOL    HW2 1359   1.271   0.547   2.723
  154SOL     OW 1360   6.471   2.050   2.970
  154SOL    HW1 1361   6.377   2.065   2.998
  154SOL    HW2 1362   6.507   1.968   3.014
  155SOL     OW 1363   0.464   1.335   2.833
  155SOL    HW1 1364   0.553   1.371   2.860
  155SOL    HW2 1365   0.427   1.279   2.906
  156SOL     OW 1366   0.505   2.448   1.741
  156SOL    HW1 1367   0.604   2.460   1.729
  156SOL    HW2 1368   0.488   2.401   1.828
  157SOL     OW 1369   6.051   3.080   2.702
  157SOL    HW1 1370   6.061   3.003   2.765
  157SOL    HW2 1371   5.957   3.082   2.667
  158SOL     OW 1372   1.842   2.039   3.978
  158SOL    HW1 1373   1.917   2.023   4.042
  158SOL    HW2 1374   1.878   2.079   3.894
  159SOL     OW 1375   4.969   3.353   2.053
  159SOL    HW1 1376   4.970   3.268   2.106
  159SOL    HW2 1377   4.932   3.334   1.961
  160SOL     OW 1378   6.288   4.408   5.939
  160SOL    HW1 1379   6.266   4.505   5.937
  160SOL    HW2 1380   6.352   4.390   6.014
  161SOL     OW 1381   3.124   4.640   5.697
  161SOL    HW1 1382   3.153   4.708   5.630
  161SOL    HW2 1383   3.175   4.555   5.683
  162SOL     OW 1384   4.833   6.089   2.137
  162SOL    HW1 1385   4.905   6.111   2.203
  162SOL    HW2 1386   4.784   6.007   2.167
  163SOL     OW 1387   5.543   0.809   1.957
  163SOL    HW1 1388   5.635   0.809   1.917
  163SOL    HW2 1389   5.523   0.898   1.997
  164SOL     OW 1390   6.449   3.414   1.454
  164SOL    HW1 1391   6.412   3.507   1.464
  164SOL    HW2 1392   6.547   3.420   1.436
  165SOL     OW 1393   6.415   3.823   6.496
  165SOL    HW1 1394   6.359   3.884   6.440
  165SOL    HW2 1395   6.359   3.745   6.526
  166SOL     OW 1396   1.428   0.405   0.950
  166SOL    HW1 1397   1.450   0.313   0.982
  166SOL    HW2 1398   1.354   0.443   1.006
  167SOL     OW 1399   6.763   2.998   0.859
  167SOL    HW1 1400   6.832   2.934   0.893
  167SOL    HW2 1401   6.691   3.009   0.928
  168SOL     OW 1402   2.526   5.639   1.457
  168SOL    HW1 1403   2.451   5.595   1.408
  168SOL    HW2 1404   2.591   5.569   1.488
  169SOL     OW 1405   1.200   7.013   1.516
  169SOL    HW1 1406   1.115   0.049   1.520
  169SOL    HW2 1407   1.225   6.983   1.609
  170SOL     OW 1408   0.725   1.401   2.929
  170SOL    HW1 1409   0.786   1.385   3.007
  170SOL    HW2 1410   0.749   1.340   2.854
  171SOL     OW 1411   3.426   4.082   0.771
  171SOL    HW1 1412   3.400   4.035   0.687
  171SOL    HW2 1413   3.416   4.181   0.759
  172SOL     OW 1414   6.899   3.038   1.690
  172SOL    HW1 1415   6.844   3.028   1.773
  172SOL    HW2 1416   6.971   2.969   1.689
  173SOL     OW 1417   0.365   6.251   5.447
  173SOL    HW1 1418   0.458   6.217   5.461
  173SOL    HW2 1419   0.307   6.178   5.411
  174SOL     OW 1420   2.543   5.778   3.672
  174SOL    HW1 1421   2.607   5.749   3.743
  174SOL    HW2 1422   2.590   5.782   3.584
  175SOL     OW 1423   0.529   5.296   3.291
  175SOL    HW1 1424   0.440   5.342   3.290
  175SOL    HW2 1425   0.599   5.360   3.324
  176SOL     OW 1426   3.023   5.272   0.475
  176SOL    HW1 1427   2.995   5.188   0.521
  176SOL    HW2 1428   3.095   5.251   0.409
  177SOL     OW 1429   4.583   2.219   3.283
  177SOL    HW1 1430   4.647   2.151   3.248
  177SOL    HW2 1431   4.575   2.208   3.382
  178SOL     OW 1432   5.489   4.409   5.750
  178SOL    HW1 1433   5.475   4.315   5.782
  178SOL    HW2 1434   5.401   4.448   5.722
  179SOL     OW 1435   3.121   0.022   0.965
  179SOL    HW1 1436   3.080   6.961   0.915
  179SOL    HW2 1437   3.050   0.072   1.014
  180SOL     OW 1438   1.249   2.459   6.959
  180SOL    HW1 1439   1.177   2.393   6.980
  180SOL    HW2 1440   1.331   2.411   6.928
  181SOL     OW 1441   2.902   3.391   4.605
  181SOL    HW1 1442   2.929   3.481   4.640
  181SOL    HW2 1443   2.802   3.389   4.592
  182SOL     OW 1444   4.841   2.313   4.890
  182SOL    HW1 1445   4.794   2.286   4.807
  182SOL    HW2 1446   4.819   2.408   4.912
  183SOL     OW 1447   5.851   1.861   2.663
  183SOL    HW1 1448   5.789   1.877   2.586
  183SOL    HW2 1449   5.876   1.949   2.704
  184SOL     OW 1450   0.173   4.322   2.907
  184SOL    HW1 1451   0.173   4.404   2.964
  184SOL    HW2 1452   0.080   4.305   2.873
  185SOL     OW 1453   2.713   3.110   6.451
  185SOL    HW1 1454   2.784   3.109   6.521
  185SOL    HW2 1455   2.623   3.111   6.495
  186SOL     OW 1456   6.022   6.343   3.685
  186SOL    HW1 1457   6.117   6.372   3.673
  186SOL    HW2 1458   5.976   6.405   3.748
  187SOL     OW 1459   5.785   0.236   3.768
  187SOL    HW1 1460   5.786   0.145   3.809
  187SOL    HW2 1461   5.765   0.228   3.670
  188SOL     OW 1462   6.120   2.084   4.446
  188SOL    HW1 1463   6.178   2.158   4.480
  188SOL    HW2 1464   6.048   2.122   4.388
  189SOL     OW 1465   1.414   4.428   2.858
  189SOL    HW1 1466   1.323   4.395   2.885
  189SOL    HW2 1467   1.459   4.360   2.801
  190SOL     OW 1468   3.325   1.471   6.420
  190SOL    HW1 1469   3.234   1.495   6.386
  190SOL    HW2 1470   3.320   1.387   6.473
  191SOL     OW 1471   4.464   6.297   5.870
  191SOL    HW1 1472   4.511   6.309   5.957
  191SOL    HW2 1473   4.366   6.293   5.884
  192SOL     OW 1474   6.641   0.804   0.543
  192SOL    HW1 1475   6.607   0.803   0.637
  192SOL    HW2 1476   6.663   0.898   0.517
  193SOL     OW 1477   5.660   4.383   6.854
  193SOL    HW1 1478   5.710   4.400   6.769
  193SOL    HW2 1479   5.680   4.291   6.887
  194SOL     OW 1480   4.374   6.816   4.413
  194SOL    HW1 1481   4.463   6.848   4.378
  194SOL    HW2 1482   4.336   6.886   4.473
  195SOL     OW 1483   6.780   5.427   3.273
  195SOL    HW1 1484   6.827   5.343   3.244
  195SOL    HW2 1485   6.766   5.486   3.193
  196SOL     OW 1486   0.752   1.173   1.152
  196SOL    HW1 1487   0.686   1.129   1.091
  196SOL    HW2 1488   0.840   1.183   1.105
  197SOL     OW 1489   1.932   0.788   0.652
  197SOL    HW1 1490   1.939   0.819   0.557
  197SOL    HW2 1491   1.947   0.866   0.713
  198SOL     OW 1492   2.738   1.335   4.170
  198SOL    HW1 1493   2.829   1.375   4.174
  198SOL    HW2 1494   2.670   1.408   4.158
  199SOL     OW 1495   1.204   1.702   4.659
  199SOL    HW1 1496   1.234   1.614   4.696
  199SOL    HW2 1497   1.212   1.701   4.559
  200SOL     OW 1498   5.999   2.153   6.952
  200SOL    HW1 1499   5.994   2.192   0.029
  200SOL    HW2 1500   6.042   2.219   6.890
  201SOL     OW 1501   0.142   1.134   6.428
  201SOL    HW1 1502   0.232   1.093   6.436
  201SOL    HW2 1503   0.121   1.184   6.512
  202SOL     OW 1504   5.055   0.263   0.347
  202SOL    HW1 1505   5.150   0.267   0.315
  202SOL    HW2 1506   5.003   0.200   0.290
  203SOL     OW 1507   6.291   2.826   6.544
  203SOL    HW1 1508   6.366   2.761   6.533
  203SOL    HW2 1509   6.300   2.900   6.478
  204SOL     OW 1510   6.039   0.480   5.137
  204SOL    HW1 1511   6.052   0.475   5.236
  204SOL    HW2 1512   6.077   0.565   5.102
  205SOL     OW 1513   1.882   4.097   2.497
  205SOL    HW1 1514   1.849   4.104   2.590
  205SOL    HW2 1515   1.975   4.060   2.497
  206SOL     OW 1516   0.230   3.729   0.855
  206SOL    HW1 1517   0.171   3.720   0.935
  206SOL    HW2 1518   0.307   3.789   0.876
  207SOL     OW 1519   6.112   2.566   4.646
  207SOL    HW1 1520   6.055   2.486   4.664
  207SOL    HW2 1521   6.056   2.640   4.609
  208SOL     OW 1522   1.041   3.434   5.323
  208SOL    HW1 1523   1.094   3.360   5.364
  208SOL    HW2 1524   1.058   3.519   5.372
  209SOL     OW 1525   6.676   4.645   2.961
  209SOL    HW1 1526   6.655   4.709   3.034
  209SOL    HW2 1527   6.619   4.666   2.881
  210SOL     OW 1528   4.679   3.184   0.579
  210SOL    HW1 1529   4.613   3.190   0.653
  210SOL    HW2 1530   4.757   3.129   0.608
  211SOL     OW 1531   1.498   1.304   2.054
  211SOL    HW1 1532   1.468   1.290   2.148
  211SOL    HW2 1533   1.428   1.355   2.004
  212SOL     OW 1534   1.740   3.935   1.773
  212SOL    HW1 1535   1.784   3.977   1.694
  212SOL    HW2 1536   1.750   3.836   1.768
  213SOL     OW 1537   1.111   4.888   1.146
  213SOL    HW1 1538   1.162   4.910   1.229
  213SOL    HW2 1539   1.080   4.972   1.101
  214SOL     OW 1540   5.719   6.892   2.082
  214SOL    HW1 1541   5.807   6.939   2.094
  214SOL    HW2 1542   5.646   6.949   2.121
  215SOL     OW 1543   2.015   5.225   2.773
  215SOL    HW1 1544   1.983   5.271   2.856
  215SOL    HW2 1545   2.100   5.176   2.793
  216SOL     OW 1546   1.821   6.265   3.033
  216SOL    HW1 1547   1.831   6.314   3.120
  216SOL    HW2 1548   1.755   6.312   2.975
  217SOL     OW 1549   1.047   4.896   5.497
  217SOL    HW1 1550   1.038   4.926   5.402
  217SOL    HW2 1551   1.055   4.796   5.499
  218SOL     OW 1552   2.616   2.178   5.596
  218SOL    HW1 1553   2.623   2.176   5.696
  218SOL    HW2 1554   2.533   2.131   5.568
  219SOL     OW 1555   4.287   2.318   1.458
  219SOL    HW1 1556   4.247   2.407   1.477
  219SOL    HW2 1557   4.221   2.246   1.477
  220SOL     OW 1558   3.087   6.527   1.223
  220SOL    HW1 1559   3.098   6.610   1.279
  220SOL    HW2 1560   3.066   6.450   1.282
  221SOL     OW 1561   5.045   4.874   1.995
  221SOL    HW1 1562   5.084   4.809   2.060
  221SOL    HW2 1563   5.057   4.839   1.902
  222SOL     OW 1564   1.982   4.536   6.743
  222SOL    HW1 1565   2.051   4.609   6.740
  222SOL    HW2 1566   1.892   4.576   6.760
  223SOL     OW 1567   6.375   2.671   4.965
  223SOL    HW1 1568   6.296   2.698   5.019
  223SOL    HW2 1569   6.459   2.695   5.014
  224SOL     OW 1570   3.497   2.250   5.785
  224SOL    HW1 1571   3.504   2.344   5.819
  224SOL    HW2 1572   3.409   2.211   5.812
  225SOL     OW 1573   3.888   6.393   6.375
  225SOL    HW1 1574   3.899   6.441   6.288
  225SOL    HW2 1575   3.929   6.303   6.369
  226SOL     OW 1576   1.640   2.695   6.710
  226SOL    HW1 1577   1.561   2.636   6.692
  226SOL    HW2 1578   1.614   2.766   6.776
  227SOL     OW 1579   1.613   3.839   1.072
  227SOL    HW1 1580   1.696   3.837   1.017
  227SOL    HW2 1581   1.633   3.802   1.163
  228SOL     OW 1582   0.693   0.533   2.156
  228SOL    HW1 1583   0.757   0.467   2.116
  228SOL    HW2 1584   0.688   0.518   2.255
  229SOL     OW 1585   3.735   6.953   6.074
  229SOL    HW1 1586   3.717   6.941   6.172
  229SOL    HW2 1587   3.684   6.884   6.022
  230SOL     OW 1588   5.407   5.333   5.425
  230SOL    HW1 1589   5.356   5.300   5.346
  230SOL    HW2 1590   5.364   5.300   5.509
  231SOL     OW 1591   5.344   1.640   6.805
  231SOL    HW1 1592   5.420   1.658   6.743
  231SOL    HW2 1593   5.375   1.650   6.900
  232SOL     OW 1594   0.903   1.753   5.841
  232SOL    HW1 1595   0.817   1.731   5.887
  232SOL    HW2 1596   0.939   1.838   5.878
  233SOL     OW 1597   3.349   1.823   2.966
  233SOL    HW1 1598   3.313   1.828   3.059
  233SOL    HW2 1599   3.440   1.781   2.967
  234SOL     OW 1600   5.361   0.566   0.877
  234SOL    HW1 1601   5.319   0.482   0.911
  234SOL    HW2 1602   5.381   0.557   0.779
  235SOL     OW 1603   4.789   2.803   2.724
  235SOL    HW1 1604   4.766   2.764   2.635
  235SOL    HW2 1605   4.853   2.742   2.772
  236SOL     OW 1606   4.170   3.737   6.177
  236SOL    HW1 1607   4.149   3.784   6.262
  236SOL    HW2 1608   4.111   3.657   6.167
  237SOL     OW 1609   6.169   3.471   2.717
  237SOL    HW1 1610   6.130   3.429   2.635
  237SOL    HW2 1611   6.105   3.462   2.793
  238SOL     OW 1612   5.943   2.153   0.840
  238SOL    HW1 1613   5.845   2.140   0.828
  238SOL    HW2 1614   5.980   2.201   0.760
  239SOL     OW 1615   1.066   3.541   0.589
  239SOL    HW1 1616   1.008   3.516   0.667
  239SOL    HW2 1617   1.046   3.481   0.512
  240SOL     OW 1618   4.952   3.502   4.071
  240SOL    HW1 1619   4.935   3.428   4.005
  240SOL    HW2 1620   4.971   3.463   4.161
  241SOL     OW 1621   2.657   1.906   4.307
  241SOL    HW1 1622   2.749   1.868   4.313
  241SOL    HW2 1623   2.591   1.840   4.344
  242SOL     OW 1624   3.833   3.504   2.674
  242SOL    HW1 1625   3.749   3.455   2.649
  242SOL    HW2 1626   3.838   3.514   2.773
  243SOL     OW 1627   3.902   2.539   6.677
  243SOL    HW1 1628   3.959   2.567   6.755
  243SOL    HW2 1629   3.914   2.603   6.602
  244SOL     OW 1630   4.879   3.323   4.770
  244SOL    HW1 1631   4.904   3.328   4.866
  244SOL    HW2 1632   4.873   3.227   4.742
  245SOL     OW 1633   3.262   0.991   3.256
  245SOL    HW1 1634   3.322   1.066   3.229
  245SOL    HW2 1635   3.317   0.912   3.283
  246SOL     OW 1636   6.441   1.188   2.153
  246SOL    HW1 1637   6.426   1.260   2.084
  246SOL    HW2 1638   6.377   1.113   2.136
  247SOL     OW 1639   1.814   1.510   1.897
  247SOL    HW1 1640   1.866   1.559   1.827
  247SOL    HW2 1641   1.724   1.552   1.908
  248SOL     OW 1642   2.972   3.316   1.701
  248SOL    HW1 1643   3.071   3.329   1.700
  248SOL    HW2 1644   2.951   3.220   1.718
  249SOL     OW 1645   4.815   6.796   4.797
  249SOL    HW1 1646   4.874   6.872   4.822
  249SOL    HW2 1647   4.751   6.778   4.872
  250SOL     OW 1648   4.302   2.403   0.201
  250SOL    HW1 1649   4.258   2.492   0.215
  250SOL    HW2 1650   4.338   2.370   0.288
  251SOL     OW 1651   3.983   4.690   5.295
  251SOL    HW1 1652   3.984   4.739   5.382
  251SOL    HW2 1653   3.917   4.616   5.299
  252SOL     OW 1654   6.290   6.503   5.375
  252SOL    HW1 1655   6.200   6.465   5.356
  252SOL    HW2 1656   6.357   6.462   5.313
  253SOL     OW 1657   4.332   6.222   6.212
  253SOL    HW1 1658   4.265   6.296   6.216
  253SOL    HW2 1659   4.289   6.139   6.176
  254SOL     OW 1660   6.222   2.171   5.811
  254SOL    HW1 1661   6.165   2.089   5.814
  254SOL    HW2 1662   6.183   2.240   5.872
  255SOL     OW 1663   0.745   4.204   6.728
  255SOL    HW1 1664   0.731   4.140   6.804
  255SOL    HW2 1665   0.764   4.295   6.765
  256SOL     OW 1666   5.411   2.394   5.028
  256SOL    HW1 1667   5.313   2.396   5.047
  256SOL    HW2 1668   5.453   2.477   5.063
  257SOL     OW 1669   4.828   6.413   2.310
  257SOL    HW1 1670   4.870   6.325   2.331
  257SOL    HW2 1671   4.771   6.404   2.228
  258SOL     OW 1672   1.824   3.095   6.194
  258SOL    HW1 1673   1.846   3.077   6.099
  258SOL    HW2 1674   1.766   3.022   6.230
  259SOL     OW 1675   3.358   6.829   3.810
  259SOL    HW1 1676   3.380   6.879   3.894
  259SOL    HW2 1677   3.292   6.882   3.757
  260SOL     OW 1678   4.265   5.466   3.129
  260SOL    HW1 1679   4.312   5.467   3.217
  260SOL    HW2 1680   4.310   5.530   3.066
  261SOL     OW 1681   4.583   5.151   0.065
  261SOL    HW1 1682   4.598   5.086   7.006
  261SOL    HW2 1683   4.501   5.125   0.116
  262SOL     OW 1684   0.668   4.533   6.439
  262SOL    HW1 1685   0.648   4.435   6.433
  262SOL    HW2 1686   0.745   4.555   6.379
  263SOL     OW 1687   0.930   6.659   4.020
  263SOL    HW1 1688   1.011   6.700   4.062
  263SOL    HW2 1689   0.849   6.712   4.045
  264SOL     OW 1690   6.570   3.449   6.766
  264SOL    HW1 1691   6.476   3.460   6.797
  264SOL    HW2 1692   6.611   3.539   6.749
  265SOL     OW 1693   7.002   0.508   3.126
  265SOL    HW1 1694   0.067   0.476   3.076
  265SOL    HW2 1695   7.001   0.608   3.129
  266SOL     OW 1696   3.538   0.728   5.987
  266SOL    HW1 1697   3.547   0.651   5.923
  266SOL    HW2 1698   3.628   0.753   6.022
  267SOL     OW 1699   2.064   0.405   3.422
  267SOL    HW1 1700   1.987   0.449   3.375
  267SOL    HW2 1701   2.060   0.306   3.406
  268SOL     OW 1702   3.167   2.699   1.132
  268SOL    HW1 1703   3.084   2.726   1.083
  268SOL    HW2 1704   3.209   2.780   1.173
  269SOL     OW 1705   4.684   1.933   0.312
  269SOL    HW1 1706   4.771   1.887   0.329
  269SOL    HW2 1707   4.611   1.885   0.359
  270SOL     OW 1708   5.768   0.840   0.013
  270SOL    HW1 1709   5.679   0.871   0.046
  270SOL    HW2 1710   5.785   0.879   6.937
  271SOL     OW 1711   0.424   4.017   6.385
  271SOL    HW1 1712   0.347   4.081   6.383
  271SOL    HW2 1713   0.390   3.923   6.376
  272SOL     OW 1714   3.494   5.867   3.014
  272SOL    HW1 1715   3.447   5.949   2.982
  272SOL    HW2 1716   3.471   5.849   3.109
  273SOL     OW 1717   1.795   4.765   6.198
  273SOL    HW1 1718   1.734   4.724   6.130
  273SOL    HW2 1719   1.770   4.861   6.210
  274SOL     OW 1720   5.224   2.315   3.594
  274SOL    HW1 1721   5.312   2.304   3.548
  274SOL    HW2 1722   5.152   2.274   3.537
  275SOL     OW 1723   6.257   6.600   1.185
  275SOL    HW1 1724   6.227   6.527   1.123
  275SOL    HW2 1725   6.262   6.565   1.279
  276SOL     OW 1726   0.846   0.637   4.801
  276SOL    HW1 1727   0.836   0.711   4.735
  276SOL    HW2 1728   0.932   0.589   4.784
  277SOL     OW 1729   1.962   4.312   0.599
  277SOL    HW1 1730   1.889   4.348   0.657
  277SOL    HW2 1731   1.924   4.243   0.537
  278SOL     OW 1732   0.903   3.231   2.690
  278SOL    HW1 1733   0.983   3.290   2.684
  278SOL    HW2 1734   0.901   3.187   2.780
  279SOL     OW 1735   6.569   1.067   3.710
  279SOL    HW1 1736   6.637   0.995   3.697
  279SOL    HW2 1737   6.495   1.055   3.644
  280SOL     OW 1738   1.562   4.821   2.430
  280SOL    HW1 1739   1.552   4.792   2.334
  280SOL    HW2 1740   1.624   4.899   2.435
  281SOL     OW 1741   2.433   4.776   1.205
  281SOL    HW1 1742   2.502   4.754   1.135
  281SOL    HW2 1743   2.452   4.724   1.288
  282SOL     OW 1744   2.764   1.542   6.045
  282SOL    HW1 1745   2.829   1.533   6.121
  282SOL    HW2 1746   2.785   1.474   5.975
  283SOL     OW 1747   3.493   2.512   5.916
  283SOL    HW1 1748   3.515   2.571   5.838
  283SOL    HW2 1749   3.577   2.467   5.948
  284SOL     OW 1750   0.678   3.540   3.853
  284SOL    HW1 1751   0.622   3.608   3.901
  284SOL    HW2 1752   0.679   3.560   3.755
  285SOL     OW 1753   4.858   5.021   4.273
  285SOL    HW1 1754   4.809   5.069   4.200
  285SOL    HW2 1755   4.939   5.074   4.299
  286SOL     OW 1756   3.056   3.786   0.333
  286SOL    HW1 1757   2.964   3.815   0.309
  286SOL    HW2 1758   3.058   3.755   0.428
  287SOL     OW 1759   1.339   2.679   0.376
  287SOL    HW1 1760   1.277   2.603   0.356
  287SOL    HW2 1761   1.318   2.756   0.316
  288SOL     OW 1762   4.840   3.413   0.953
  288SOL    HW1 1763   4.837   3.511   0.932
  288SOL    HW2 1764   4.934   3.379   0.940
  289SOL     OW 1765   3.922   5.680   6.661
  289SOL    HW1 1766   3.894   5.741   6.736
  289SOL    HW2 1767   3.854   5.608   6.650
  290SOL     OW 1768   1.602   1.369   4.772
  290SOL    HW1 1769   1.667   1.300   4.740
  290SOL    HW2 1770   1.510   1.344   4.743
  291SOL     OW 1771   6.386   2.266   2.752
  291SOL    HW1 1772   6.465   2.327   2.755
  291SOL    HW2 1773   6.401   2.189   2.814
  292SOL     OW 1774   3.171   0.538   3.853
  292SOL    HW1 1775   3.229   0.597   3.796
  292SOL    HW2 1776   3.213   0.528   3.943
  293SOL     OW 1777   3.735   4.858   3.540
  293SOL    HW1 1778   3.784   4.799   3.604
  293SOL    HW2 1779   3.767   4.953   3.551
  294SOL     OW 1780   4.919   0.791   0.697
  294SOL    HW1 1781   4.853   0.716   0.692
  294SOL    HW2 1782   4.951   0.801   0.791
  295SOL     OW 1783   5.858   6.873   3.508
  295SOL    HW1 1784   5.798   6.911   3.437
  295SOL    HW2 1785   5.941   6.928   3.515
  296SOL     OW 1786   2.462   2.145   3.608
  296SOL    HW1 1787   2.547   2.192   3.633
  296SOL    HW2 1788   2.394   2.213   3.581
  297SOL     OW 1789   1.556   5.238   2.346
  297SOL    HW1 1790   1.527   5.247   2.442
  297SOL    HW2 1791   1.478   5.256   2.286
  298SOL     OW 1792   6.551   4.606   1.133
  298SOL    HW1 1793   6.648   4.630   1.127
  298SOL    HW2 1794   6.538   4.533   1.200
  299SOL     OW 1795   5.907   2.405   4.209
  299SOL    HW1 1796   5.993   2.457   4.210
  299SOL    HW2 1797   5.830   2.469   4.216
  300SOL     OW 1798   6.712   6.733   2.027
  300SOL    HW1 1799   6.690   6.756   2.122
  300SOL    HW2 1800   6.639   6.676   1.989
  301SOL     OW 1801   4.467   2.687   5.435
  301SOL    HW1 1802   4.506   2.777   5.457
  301SOL    HW2 1803   4.468   2.675   5.336
  302SOL     OW 1804   0.764   5.560   4.116
  302SOL    HW1 1805   0.722   5.649   4.095
  302SOL    HW2 1806   0.728   5.525   4.202
  303SOL     OW 1807   6.180   6.842   2.911
  303SOL    HW1 1808   6.111   6.872   2.977
  303SOL    HW2 1809   6.233   6.767   2.951
  304SOL     OW 1810   3.571   6.946   3.162
  304SOL    HW1 1811   3.574   6.874   3.231
  304SOL    HW2 1812   3.665   6.975   3.141
  305SOL     OW 1813   1.390   4.596   1.251
  305SOL    HW1 1814   1.487   4.619   1.244
  305SOL    HW2 1815   1.340   4.674   1.287
  306SOL     OW 1816   1.902   0.643   3.596
  306SOL    HW1 1817   1.884   0.545   3.585
  306SOL    HW2 1818   1.887   0.668   3.692
  307SOL     OW 1819   3.276   0.369   1.687
  307SOL    HW1 1820   3.209   0.300   1.660
  307SOL    HW2 1821   3.368   0.331   1.683
  308SOL     OW 1822   1.125   4.662   3.912
  308SOL    HW1 1823   1.150   4.752   3.946
  308SOL    HW2 1824   1.036   4.636   3.948
  309SOL     OW 1825   3.288   4.816   5.190
  309SOL    HW1 1826   3.210   4.839   5.132
  309SOL    HW2 1827   3.276   4.724   5.228
  310SOL     OW 1828   1.514   5.554   6.041
  310SOL    HW1 1829   1.481   5.515   6.128
  310SOL    HW2 1830   1.614   5.553   6.040
  311SOL     OW 1831   0.071   1.065   1.375
  311SOL    HW1 1832   0.154   1.020   1.341
  311SOL    HW2 1833   0.085   1.090   1.471
  312SOL     OW 1834   3.823   1.332   5.895
  312SOL    HW1 1835   3.834   1.240   5.858
  312SOL    HW2 1836   3.872   1.397   5.838
  313SOL     OW 1837   0.125   4.587   0.840
  313SOL    HW1 1838   0.219   4.580   0.872
  313SOL    HW2 1839   0.109   4.520   0.768
  314SOL     OW 1840   3.226   5.836   1.706
  314SOL    HW1 1841   3.187   5.920   1.668
  314SOL    HW2 1842   3.249   5.850   1.802
  315SOL     OW 1843   1.099   3.697   2.890
  315SOL    HW1 1844   1.093   3.738   2.798
  315SOL    HW2 1845   1.011   3.658   2.915
  316SOL     OW 1846   1.912   3.024   4.952
  316SOL    HW1 1847   1.996   3.039   4.900
  316SOL    HW2 1848   1.925   3.053   5.047
  317SOL     OW 1849   6.492   1.256   0.296
  317SOL    HW1 1850   6.457   1.349   0.286
  317SOL    HW2 1851   6.563   1.240   0.228
  318SOL     OW 1852   2.623   4.451   1.168
  318SOL    HW1 1853   2.581   4.497   1.247
  318SOL    HW2 1854   2.720   4.435   1.187
  319SOL     OW 1855   1.518   6.985   6.553
  319SOL    HW1 1856   1.535   0.035   6.626
  319SOL    HW2 1857   1.602   6.934   6.535
  320SOL     OW 1858   5.755   3.357   0.647
  320SOL    HW1 1859   5.749   3.418   0.569
  320SOL    HW2 1860   5.667   3.357   0.696
  321SOL     OW 1861   2.029   1.439   2.404
  321SOL    HW1 1862   2.089   1.449   2.325
  321SOL    HW2 1863   2.069   1.374   2.468
  322SOL     OW 1864   3.345   2.542   5.558
  322SOL    HW1 1865   3.425   2.570   5.612
  322SOL    HW2 1866   3.262   2.559   5.611
  323SOL     OW 1867   0.710   4.430   1.677
  323SOL    HW1 1868   0.713   4.529   1.690
  323SOL    HW2 1869   0.789   4.400   1.624
  324SOL     OW 1870   0.585   2.693   4.340
  324SOL    HW1 1871   0.588   2.706   4.240
  324SOL    HW2 1872   0.665   2.640   4.369
  325SOL     OW 1873   2.265   1.892   3.084
  325SOL    HW1 1874   2.355   1.934   3.099
  325SOL    HW2 1875   2.244   1.894   2.986
  326SOL     OW 1876   1.394   4.076   4.704
  326SOL    HW1 1877   1.384   4.171   4.675
  326SOL    HW2 1878   1.469   4.069   4.770
  327SOL     OW 1879   6.053   4.175   6.179
  327SOL    HW1 1880   6.030   4.078   6.174
  327SOL    HW2 1881   6.152   4.186   6.174
  328SOL     OW 1882   3.988   5.860   2.788
  328SOL    HW1 1883   3.938   5.845   2.702
  328SOL    HW2 1884   3.952   5.942   2.833
  329SOL     OW 1885   3.587   4.091   2.317
  329SOL    HW1 1886   3.665   4.151   2.301
  329SOL    HW2 1887   3.576   4.076   2.415
  330SOL     OW 1888   2.524   2.122   1.868
  330SOL    HW1 1889   2.623   2.134   1.873
  330SOL    HW2 1890   2.484   2.130   1.959
  331SOL     OW 1891   5.906   4.262   5.402
  331SOL    HW1 1892   5.935   4.328   5.472
  331SOL    HW2 1893   5.986   4.224   5.356
  332SOL     OW 1894   4.229   2.020   3.287
  332SOL    HW1 1895   4.313   1.985   3.244
  332SOL    HW2 1896   4.157   1.951   3.280
  333SOL     OW 1897   4.508   6.267   0.537
  333SOL    HW1 1898   4.514   6.226   0.628
  333SOL    HW2 1899   4.447   6.347   0.541
  334SOL     OW 1900   5.017   6.324   2.818
  334SOL    HW1 1901   4.937   6.301   2.874
  334SOL    HW2 1902   4.988   6.374   2.737
  335SOL     OW 1903   3.173   0.203   2.723
  335SOL    HW1 1904   3.214   0.244   2.805
  335SOL    HW2 1905   3.190   0.262   2.645
  336SOL     OW 1906   3.326   0.502   4.461
  336SOL    HW1 1907   3.426   0.499   4.459
  336SOL    HW2 1908   3.294   0.565   4.390
  337SOL     OW 1909   0.094   4.337   2.203
  337SOL    HW1 1910   0.041   4.329   2.288
  337SOL    HW2 1911   0.096   4.249   2.156
  338SOL     OW 1912   2.383   2.266   1.474
  338SOL    HW1 1913   2.452   2.193   1.471
  338SOL    HW2 1914   2.292   2.226   1.485
  339SOL     OW 1915   4.407   1.520   3.281
  339SOL    HW1 1916   4.357   1.483   3.203
  339SOL    HW2 1917   4.427   1.446   3.346
  340SOL     OW 1918   4.831   4.057   4.733
  340SOL    HW1 1919   4.874   3.968   4.747
  340SOL    HW2 1920   4.777   4.056   4.649
  341SOL     OW 1921   4.414   4.641   5.490
  341SOL    HW1 1922   4.500   4.623   5.442
  341SOL    HW2 1923   4.415   4.595   5.579
  342SOL     OW 1924   5.802   3.945   0.340
  342SOL    HW1 1925   5.751   3.991   0.267
  342SOL    HW2 1926   5.883   3.901   0.301
  343SOL     OW 1927   2.425   0.909   2.340
  343SOL    HW1 1928   2.444   1.006   2.346
  343SOL    HW2 1929   2.373   0.880   2.421
  344SOL     OW 1930   4.070   6.406   0.394
  344SOL    HW1 1931   4.018   6.333   0.350
  344SOL    HW2 1932   4.161   6.412   0.354
  345SOL     OW 1933   1.519   1.277   5.590
  345SOL    HW1 1934   1.536   1.220   5.510
  345SOL    HW2 1935   1.600   1.333   5.609
  346SOL     OW 1936   3.409   0.913   4.950
  346SOL    HW1 1937   3.416   0.840   5.018
  346SOL    HW2 1938   3.498   0.956   4.938
  347SOL     OW 1939   4.759   6.425   5.835
  347SOL    HW1 1940   4.805   6.337   5.846
  347SOL    HW2 1941   4.753   6.447   5.738
  348SOL     OW 1942   2.460   6.323   2.635
  348SOL    HW1 1943   2.379   6.273   2.668
  348SOL    HW2 1944   2.520   6.345   2.712
  349SOL     OW 1945   3.046   5.086   2.472
  349SOL    HW1 1946   3.070   5.003   2.422
  349SOL    HW2 1947   3.130   5.136   2.495
  350SOL     OW 1948   4.625   3.200   0.933
  350SOL    HW1 1949   4.632   3.126   1.000
  350SOL    HW2 1950   4.695   3.268   0.951
  351SOL     OW 1951   3.354   1.696   0.652
  351SOL    HW1 1952   3.282   1.628   0.640
  351SOL    HW2 1953   3.334   1.752   0.733
  352SOL     OW 1954   3.014   2.015   6.214
  352SOL    HW1 1955   2.999   2.101   6.262
  352SOL    HW2 1956   3.106   1.980   6.234
  353SOL     OW 1957   1.883   6.985   1.289
  353SOL    HW1 1958   1.949   0.033   1.247
  353SOL    HW2 1959   1.884   6.996   1.388
  354SOL     OW 1960   5.099   0.314   2.349
  354SOL    HW1 1961   5.061   0.225   2.324
  354SOL    HW2 1962   5.024   0.380   2.357
  355SOL     OW 1963   1.175   1.184   2.215
  355SOL    HW1 1964   1.274   1.174   2.205
  355SOL    HW2 1965   1.150   1.166   2.310
  356SOL     OW 1966   3.267   0.318   2.964
  356SOL    HW1 1967   3.305   0.279   3.048
  356SOL    HW2 1968   3.187   0.375   2.988
  357SOL     OW 1969   1.085   4.990   5.230
  357SOL    HW1 1970   1.115   4.965   5.139
  357SOL    HW2 1971   1.119   5.081   5.253
  358SOL     OW 1972   4.797   0.967   3.086
  358SOL    HW1 1973   4.751   0.913   3.156
  358SOL    HW2 1974   4.735   0.984   3.010
  359SOL     OW 1975   0.288   1.706   0.528
  359SOL    HW1 1976   0.281   1.742   0.621
  359SOL    HW2 1977   0.215   1.747   0.471
  360SOL     OW 1978   4.934   0.021   0.198
  360SOL    HW1 1979   4.962   6.971   0.269
  360SOL    HW2 1980   4.988   0.005   0.116
  361SOL     OW 1981   3.406   0.582   2.640
  361SOL    HW1 1982   3.427   0.555   2.734
  361SOL    HW2 1983   3.345   0.661   2.640
  362SOL     OW 1984   2.951   4.024   1.086
  362SOL    HW1 1985   2.926   4.094   1.019
  362SOL    HW2 1986   2.939   4.061   1.178
  363SOL     OW 1987   4.715   4.725   3.319
  363SOL    HW1 1988   4.764   4.760   3.398
  363SOL    HW2 1989   4.682   4.801   3.264
  364SOL     OW 1990   2.371   5.743   6.278
  364SOL    HW1 1991   2.445   5.784   6.332
  364SOL    HW2 1992   2.409   5.699   6.197
  365SOL     OW 1993   4.466   0.154   3.039
  365SOL    HW1 1994   4.504   0.093   2.969
  365SOL    HW2 1995   4.471   0.109   3.129
  366SOL     OW 1996   5.297   1.382   0.508
  366SOL    HW1 1997   5.367   1.433   0.557
  366SOL    HW2 1998   5.213   1.380   0.562
  367SOL     OW 1999   5.000   1.929   2.519
  367SOL    HW1 2000   4.946   1.901   2.440
  367SOL    HW2 2001   5.070   1.994   2.490
  368SOL     OW 2002   0.785   5.129   5.570
  368SOL    HW1 2003   0.803   5.174   5.657
  368SOL    HW2 2004   0.866   5.138   5.511
  369SOL     OW 2005   0.880   3.401   1.885
  369SOL    HW1 2006   0.872   3.429   1.981
  369SOL    HW2 2007   0.898   3.303   1.880
  370SOL     OW 2008   3.950   1.600   6.695
  370SOL    HW1 2009   3.998   1.688   6.693
  370SOL    HW2 2010   3.858   1.614   6.734
  371SOL     OW 2011   3.692   2.668   6.458
  371SOL    HW1 2012   3.647   2.656   6.370
  371SOL    HW2 2013   3.789   2.690   6.444
  372SOL     OW 2014   2.131   5.444   0.369
  372SOL    HW1 2015   2.207   5.406   0.316
  372SOL    HW2 2016   2.149   5.431   0.466
  373SOL     OW 2017   6.105   6.997   6.141
  373SOL    HW1 2018   6.040   6.954   6.079
  373SOL    HW2 2019   6.146   6.928   6.200
  374SOL     OW 2020   4.772   0.700   1.076
  374SOL    HW1 2021   4.699   0.681   1.010
  374SOL    HW2 2022   4.804   0.615   1.117
  375SOL     OW 2023   6.789   4.340   1.052
  375SOL    HW1 2024   6.874   4.377   1.091
  375SOL    HW2 2025   6.740   4.412   1.004
  376SOL     OW 2026   2.162   3.851   4.869
  376SOL    HW1 2027   2.107   3.919   4.819
  376SOL    HW2 2028   2.228   3.898   4.927
  377SOL     OW 2029   4.934   1.172   4.333
  377SOL    HW1 2030   4.966   1.145   4.424
  377SOL    HW2 2031   4.927   1.272   4.329
  378SOL     OW 2032   5.546   2.159   5.089
  378SOL    HW1 2033   5.527   2.253   5.061
  378SOL    HW2 2034   5.599   2.113   5.018
  379SOL     OW 2035   6.219   2.800   1.428
  379SOL    HW1 2036   6.295   2.789   1.492
  379SOL    HW2 2037   6.253   2.791   1.334
  380SOL     OW 2038   1.103   2.232   0.414
  380SOL    HW1 2039   1.018   2.262   0.458
  380SOL    HW2 2040   1.082   2.161   0.346
  381SOL     OW 2041   4.568   5.392   6.983
  381SOL    HW1 2042   4.645   5.433   6.935
  381SOL    HW2 2043   4.598   5.309   0.015
  382SOL     OW 2044   2.422   5.283   6.789
  382SOL    HW1 2045   2.384   5.273   6.881
  382SOL    HW2 2046   2.399   5.373   6.752
  383SOL     OW 2047   6.336   1.495   0.282
  383SOL    HW1 2048   6.329   1.594   0.281
  383SOL    HW2 2049   6.295   1.458   0.199
  384SOL     OW 2050   0.840   5.459   5.044
  384SOL    HW1 2051   0.791   5.476   4.959
  384SOL    HW2 2052   0.906   5.385   5.031
  385SOL     OW 2053   4.452   5.336   1.564
  385SOL    HW1 2054   4.484   5.430   1.558
  385SOL    HW2 2055   4.390   5.317   1.488
  386SOL     OW 2056   2.375   5.971   4.326
  386SOL    HW1 2057   2.348   5.923   4.409
  386SOL    HW2 2058   2.298   6.027   4.294
  387SOL     OW 2059   6.914   0.295   5.538
  387SOL    HW1 2060   6.893   0.215   5.595
  387SOL    HW2 2061   7.012   0.302   5.526
  388SOL     OW 2062   0.401   1.446   4.480
  388SOL    HW1 2063   0.347   1.495   4.411
  388SOL    HW2 2064   0.494   1.482   4.480
  389SOL     OW 2065   4.830   3.874   2.285
  389SOL    HW1 2066   4.922   3.893   2.252
  389SOL    HW2 2067   4.766   3.939   2.244
  390SOL     OW 2068   3.632   2.683   0.617
  390SOL    HW1 2069   3.608   2.742   0.694
  390SOL    HW2 2070   3.679   2.737   0.547
  391SOL     OW 2071   4.106   3.714   3.846
  391SOL    HW1 2072   4.127   3.675   3.936
  391SOL    HW2 2073   4.033   3.782   3.856
  392SOL     OW 2074   1.689   3.936   1.395
  392SOL    HW1 2075   1.657   3.976   1.309
  392SOL    HW2 2076   1.747   4.002   1.443
  393SOL     OW 2077   1.050   5.735   1.356
  393SOL    HW1 2078   1.046   5.663   1.286
  393SOL    HW2 2079   1.132   5.722   1.413
  394SOL     OW 2080   6.164   1.172   6.213
  394SOL    HW1 2081   6.126   1.107   6.147
  394SOL    HW2 2082   6.146   1.265   6.181
  395SOL     OW 2083   6.075   4.775   6.662
  395SOL    HW1 2084   6.054   4.783   6.564
  395SOL    HW2 2085   6.175   4.774   6.675
  396SOL     OW 2086   0.613   0.988   1.375
  396SOL    HW1 2087   0.593   1.085   1.360
  396SOL    HW2 2088   0.702   0.965   1.334
  397SOL     OW 2089   4.704   2.238   4.660
  397SOL    HW1 2090   4.763   2.159   4.644
  397SOL    HW2 2091   4.739   2.317   4.609
  398SOL     OW 2092   7.015   1.487   2.942
  398SOL    HW1 2093   6.987   1.581   2.920
  398SOL    HW2 2094   0.051   1.487   3.028
  399SOL     OW 2095   5.689   5.771   3.410
  399SOL    HW1 2096   5.615   5.709   3.432
  399SOL    HW2 2097   5.683   5.798   3.313
  400SOL     OW 2098   0.154   6.363   3.085
  400SOL    HW1 2099   0.102   6.446   3.106
  400SOL    HW2 2100   0.210   6.378   3.004
  401SOL     OW 2101   0.983   6.041   5.015
  401SOL    HW1 2102   0.917   6.108   4.981
  401SOL    HW2 2103   0.951   5.949   4.993
  402SOL     OW 2104   5.908   0.797   3.966
  402SOL    HW1 2105   5.850   0.761   4.039
  402SOL    HW2 2106   5.923   0.727   3.897
  403SOL     OW 2107   2.542   1.819   5.028
  403SOL    HW1 2108   2.536   1.904   4.976
  403SOL    HW2 2109   2.519   1.836   5.123
  404SOL     OW 2110   3.117   5.170   3.478
  404SOL    HW1 2111   3.098   5.223   3.395
  404SOL    HW2 2112   3.031   5.155   3.528
  405SOL     OW 2113   2.779   4.748   3.771
  405SOL    HW1 2114   2.807   4.759   3.866
  405SOL    HW2 2115   2.857   4.768   3.711
  406SOL     OW 2116   0.455   6.646   6.231
  406SOL    HW1 2117   0.525   6.598   6.178
  406SOL    HW2 2118   0.364   6.618   6.200
  407SOL     OW 2119   1.844   3.904   4.286
  407SOL    HW1 2120   1.783   3.983   4.278
  407SOL    HW2 2121   1.845   3.873   4.382
  408SOL     OW 2122   2.579   2.363   2.124
  408SOL    HW1 2123   2.677   2.377   2.110
  408SOL    HW2 2124   2.549   2.287   2.067
  409SOL     OW 2125   0.530   2.463   2.024
  409SOL    HW1 2126   0.475   2.485   2.104
  409SOL    HW2 2127   0.508   2.370   1.993
  410SOL     OW 2128   1.920   3.153   1.684
  410SOL    HW1 2129   1.884   3.150   1.777
  410SOL    HW2 2130   2.019   3.169   1.687
  411SOL     OW 2131   6.875   1.825   1.099
  411SOL    HW1 2132   6.946   1.759   1.075
  411SOL    HW2 2133   6.881   1.847   1.196
  412SOL     OW 2134   1.685   4.577   2.816
  412SOL    HW1 2135   1.672   4.493   2.764
  412SOL    HW2 2136   1.611   4.641   2.796
  413SOL     OW 2137   6.437   5.164   2.233
  413SOL    HW1 2138   6.470   5.148   2.326
  413SOL    HW2 2139   6.514   5.183   2.173
  414SOL     OW 2140   2.171   0.193   3.161
  414SOL    HW1 2141   2.222   0.275   3.134
  414SOL    HW2 2142   2.177   0.124   3.088
  415SOL     OW 2143   5.570   2.930   0.244
  415SOL    HW1 2144   5.580   2.839   0.284
  415SOL    HW2 2145   5.651   2.985   0.267
  416SOL     OW 2146   5.885   3.394   6.841
  416SOL    HW1 2147   5.871   3.491   6.862
  416SOL    HW2 2148   5.881   3.380   6.742
  417SOL     OW 2149   2.327   2.725   5.556
  417SOL    HW1 2150   2.335   2.818   5.519
  417SOL    HW2 2151   2.417   2.690   5.580
  418SOL     OW 2152   3.805   6.034   6.574
  418SOL    HW1 2153   3.792   6.111   6.636
  418SOL    HW2 2154   3.884   6.051   6.515
  419SOL     OW 2155   5.730   0.444   0.294
  419SOL    HW1 2156   5.714   0.502   0.374
  419SOL    HW2 2157   5.793   0.489   0.232
  420SOL     OW 2158   3.442   6.620   0.992
  420SOL    HW1 2159   3.399   6.551   1.050
  420SOL    HW2 2160   3.513   6.578   0.936
  421SOL     OW 2161   5.253   4.353   3.128
  421SOL    HW1 2162   5.204   4.289   3.070
  421SOL    HW2 2163   5.265   4.440   3.079
  422SOL     OW 2164   4.083   1.939   2.045
  422SOL    HW1 2165   4.078   2.018   1.983
  422SOL    HW2 2166   4.066   1.969   2.139
  423SOL     OW 2167   3.572   1.389   6.002
  423SOL    HW1 2168   3.648   1.362   5.943
  423SOL    HW2 2169   3.565   1.489   6.003
  424SOL     OW 2170   1.583   3.673   4.890
  424SOL    HW1 2171   1.628   3.652   4.803
  424SOL    HW2 2172   1.524   3.597   4.916
  425SOL     OW 2173   3.195   1.698   0.234
  425SOL    HW1 2174   3.177   1.609   0.277
  425SOL    HW2 2175   3.153   1.770   0.289
  426SOL     OW 2176   2.263   2.340   3.852
  426SOL    HW1 2177   2.233   2.352   3.947
  426SOL    HW2 2178   2.191   2.369   3.790
  427SOL     OW 2179   4.442   1.548   4.278
  427SOL    HW1 2180   4.397   1.600   4.205
  427SOL    HW2 2181   4.540   1.568   4.276
  428SOL     OW 2182   2.438   2.347   5.925
  428SOL    HW1 2183   2.492   2.267   5.950
  428SOL    HW2 2184   2.425   2.350   5.826
  429SOL     OW 2185   0.003   6.571   3.159
  429SOL    HW1 2186   6.928   6.538   3.131
  429SOL    HW2 2187   7.015   6.670   3.173
  430SOL     OW 2188   2.462   1.738   3.563
  430SOL    HW1 2189   2.380   1.739   3.619
  430SOL    HW2 2190   2.448   1.797   3.483
  431SOL     OW 2191   2.775   1.384   1.721
  431SOL    HW1 2192   2.698   1.394   1.658
  431SOL    HW2 2193   2.839   1.316   1.685
  432SOL     OW 2194   4.924   1.943   1.242
  432SOL    HW1 2195   4.881   1.964   1.155
  432SOL    HW2 2196   5.005   2.000   1.254
  433SOL     OW 2197   2.289   4.670   0.199
  433SOL    HW1 2198   2.256   4.676   0.105
  433SOL    HW2 2199   2.326   4.579   0.216
  434SOL     OW 2200   3.861   5.584   2.444
  434SOL    HW1 2201   3.873   5.525   2.364
  434SOL    HW2 2202   3.949   5.596   2.490
  435SOL     OW 2203   2.734   2.540   6.516
  435SOL    HW1 2204   2.788   2.534   6.432
  435SOL    HW2 2205   2.792   2.520   6.594
  436SOL     OW 2206   5.038   6.725   2.563
  436SOL    HW1 2207   5.124   6.775   2.553
  436SOL    HW2 2208   5.043   6.639   2.512
  437SOL     OW 2209   6.731   0.864   5.624
  437SOL    HW1 2210   6.803   0.841   5.690
  437SOL    HW2 2211   6.647   0.815   5.648
  438SOL     OW 2212   0.717   3.866   2.112
  438SOL    HW1 2213   0.810   3.892   2.083
  438SOL    HW2 2214   0.709   3.767   2.113
  439SOL     OW 2215   0.520   0.777   6.085
  439SOL    HW1 2216   0.509   0.867   6.129
  439SOL    HW2 2217   0.617   0.761   6.066
  440SOL     OW 2218   3.395   1.490   1.335
  440SOL    HW1 2219   3.319   1.469   1.397
  440SOL    HW2 2220   3.359   1.500   1.242
  441SOL     OW 2221   0.928   4.427   2.557
  441SOL    HW1 2222   0.873   4.406   2.476
  441SOL    HW2 2223   0.869   4.469   2.627
  442SOL     OW 2224   3.133   3.014   4.904
  442SOL    HW1 2225   3.130   2.961   4.820
  442SOL    HW2 2226   3.071   3.092   4.896
  443SOL     OW 2227   4.686   2.680   3.108
  443SOL    HW1 2228   4.724   2.697   3.199
  443SOL    HW2 2229   4.712   2.755   3.047
  444SOL     OW 2230   3.927   2.407   1.266
  444SOL    HW1 2231   3.922   2.425   1.364
  444SOL    HW2 2232   3.863   2.468   1.218
  445SOL     OW 2233   2.650   5.371   3.744
  445SOL    HW1 2234   2.732   5.345   3.794
  445SOL    HW2 2235   2.575   5.310   3.768
  446SOL     OW 2236   6.774   6.952   0.768
  446SOL    HW1 2237   6.866   6.934   0.804
  446SOL    HW2 2238   6.766   0.034   0.744
  447SOL     OW 2239   6.340   3.435   6.899
  447SOL    HW1 2240   6.277   3.507   6.869
  447SOL    HW2 2241   6.290   3.349   6.906
  448SOL     OW 2242   3.449   6.210   4.093
  448SOL    HW1 2243   3.494   6.253   4.014
  448SOL    HW2 2244   3.492   6.243   4.177
  449SOL     OW 2245   0.632   4.039   4.730
  449SOL    HW1 2246   0.703   3.979   4.693
  449SOL    HW2 2247   0.658   4.134   4.715
  450SOL     OW 2248   6.526   3.636   3.213
  450SOL    HW1 2249   6.522   3.584   3.298
  450SOL    HW2 2250   6.609   3.691   3.210
  451SOL     OW 2251   2.442   1.715   6.888
  451SOL    HW1 2252   2.450   1.630   6.836
  451SOL    HW2 2253   2.494   1.788   6.843
  452SOL     OW 2254   4.164   5.471   1.749
  452SOL    HW1 2255   4.150   5.499   1.844
  452SOL    HW2 2256   4.153   5.372   1.740
  453SOL     OW 2257   4.582   0.693   6.923
  453SOL    HW1 2258   4.610   0.680   6.828
  453SOL    HW2 2259   4.513   0.625   6.947
  454SOL     OW 2260   0.036   3.127   3.854
  454SOL    HW1 2261   6.984   3.057   3.876
  454SOL    HW2 2262   0.069   3.112   3.761
  455SOL     OW 2263   5.965   5.238   0.008
  455SOL    HW1 2264   5.942   5.180   6.945
  455SOL    HW2 2265   5.913   5.323   0.002
  456SOL     OW 2266   1.723   0.769   3.000
  456SOL    HW1 2267   1.646   0.808   2.949
  456SOL    HW2 2268   1.804   0.825   2.987
  457SOL     OW 2269   3.048   5.711   0.077
  457SOL    HW1 2270   3.081   5.728   0.169
  457SOL    HW2 2271   3.021   5.615   0.068
  458SOL     OW 2272   3.093   1.117   4.015
  458SOL    HW1 2273   3.082   1.113   4.115
  458SOL    HW2 2274   3.187   1.140   3.993
  459SOL     OW 2275   2.782   1.051   3.477
  459SOL    HW1 2276   2.859   0.991   3.500
  459SOL    HW2 2277   2.817   1.141   3.452
  460SOL     OW 2278   0.725   1.902   0.158
  460SOL    HW1 2279   0.667   1.978   0.189
  460SOL    HW2 2280   0.766   1.926   0.070
  461SOL     OW 2281   1.415   6.843   5.060
  461SOL    HW1 2282   1.429   6.756   5.013
  461SOL    HW2 2283   1.372   6.826   5.149
  462SOL     OW 2284   3.550   4.107   5.078
  462SOL    HW1 2285   3.544   4.124   4.980
  462SOL    HW2 2286   3.503   4.021   5.100
  463SOL     OW 2287   5.138   6.558   2.865
  463SOL    HW1 2288   5.138   6.576   2.964
  463SOL    HW2 2289   5.134   6.460   2.849
  464SOL     OW 2290   4.432   6.340   4.866
  464SOL    HW1 2291   4.473   6.431   4.869
  464SOL    HW2 2292   4.344   6.341   4.915
  465SOL     OW 2293   0.563   5.224   0.571
  465SOL    HW1 2294   0.586   5.253   0.664
  465SOL    HW2 2295   0.529   5.130   0.572
  466SOL     OW 2296   3.653   5.183   4.283
  466SOL    HW1 2297   3.558   5.181   4.252
  466SOL    HW2 2298   3.678   5.277   4.306
  467SOL     OW 2299   6.594   6.982   1.435
  467SOL    HW1 2300   6.565   6.893   1.400
  467SOL    HW2 2301   6.687   6.976   1.471
  468SOL     OW 2302   2.754   5.990   6.500
  468SOL    HW1 2303   2.788   5.989   6.406
  468SOL    HW2 2304   2.810   6.051   6.556
  469SOL     OW 2305   3.529   4.757   5.401
  469SOL    HW1 2306   3.477   4.672   5.413
  469SOL    HW2 2307   3.476   4.820   5.345
  470SOL     OW 2308   2.219   5.174   2.162
  470SOL    HW1 2309   2.262   5.189   2.250
  470SOL    HW2 2310   2.137   5.118   2.174
  471SOL     OW 2311   1.353   1.951   4.311
  471SOL    HW1 2312   1.340   2.014   4.388
  471SOL    HW2 2313   1.266   1.908   4.288
  472SOL     OW 2314   5.132   4.329   5.946
  472SOL    HW1 2315   5.093   4.329   5.854
  472SOL    HW2 2316   5.191   4.249   5.958
  473SOL     OW 2317   5.517   3.110   1.838
  473SOL    HW1 2318   5.435   3.158   1.807
  473SOL    HW2 2319   5.560   3.162   1.911
  474SOL     OW 2320   5.156   5.123   3.398
  474SOL    HW1 2321   5.120   5.196   3.457
  474SOL    HW2 2322   5.081   5.063   3.370
  475SOL     OW 2323   4.609   1.575   0.285
  475SOL    HW1 2324   4.705   1.603   0.286
  475SOL    HW2 2325   4.583   1.544   0.193
  476SOL     OW 2326   1.166   2.972   0.533
  476SOL    HW1 2327   1.243   3.019   0.492
  476SOL    HW2 2328   1.111   2.929   0.461
  477SOL     OW 2329   6.390   5.711   2.987
  477SOL    HW1 2330   6.405   5.754   3.076
  477SOL    HW2 2331   6.325   5.636   2.997
  478SOL     OW 2332   6.466   5.148   2.531
  478SOL    HW1 2333   6.480   5.244   2.508
  478SOL    HW2 2334   6.505   5.129   2.621
  479SOL     OW 2335   3.544   3.801   2.770
  479SOL    HW1 2336   3.633   3.792   2.814
  479SOL    HW2 2337   3.474   3.757   2.826
  480SOL     OW 2338   0.429   0.701   1.785
  480SOL    HW1 2339   0.521   0.677   1.813
  480SOL    HW2 2340   0.429   0.730   1.689
  481SOL     OW 2341   6.126   5.908   0.906
  481SOL    HW1 2342   6.053   5.898   0.974
  481SOL    HW2 2343   6.172   5.821   0.894
  482SOL     OW 2344   3.913   4.846   2.630
  482SOL    HW1 2345   3.825   4.817   2.594
  482SOL    HW2 2346   3.981   4.774   2.614
  483SOL     OW 2347   6.472   1.010   4.786
  483SOL    HW1 2348   6.425   0.923   4.803
  483SOL    HW2 2349   6.417   1.066   4.724
  484SOL     OW 2350   2.311   4.677   3.403
  484SOL    HW1 2351   2.271   4.744   3.340
  484SOL    HW2 2352   2.380   4.721   3.460
  485SOL     OW 2353   4.476   2.549   0.558
  485SOL    HW1 2354   4.571   2.552   0.528
  485SOL    HW2 2355   4.428   2.476   0.508
  486SOL     OW 2356   5.873   6.171   5.338
  486SOL    HW1 2357   5.892   6.081   5.378
  486SOL    HW2 2358   5.839   6.159   5.244
  487SOL     OW 2359   6.888   0.740   0.041
  487SOL    HW1 2360   6.802   0.767   0.085
  487SOL    HW2 2361   6.951   0.704   0.110
  488SOL     OW 2362   1.888   6.070   3.355
  488SOL    HW1 2363   1.825   6.034   3.424
  488SOL    HW2 2364   1.859   6.162   3.327
  489SOL     OW 2365   2.723   4.629   5.334
  489SOL    HW1 2366   2.639   4.649   5.284
  489SOL    HW2 2367   2.797   4.609   5.270
  490SOL     OW 2368   1.448   3.313   5.357
  490SOL    HW1 2369   1.423   3.390   5.416
  490SOL    HW2 2370   1.502   3.347   5.280
  491SOL     OW 2371   6.102   3.784   1.081
  491SOL    HW1 2372   6.023   3.727   1.103
  491SOL    HW2 2373   6.185   3.729   1.083
  492SOL     OW 2374   1.366   2.719   5.707
  492SOL    HW1 2375   1.351   2.655   5.631
  492SOL    HW2 2376   1.457   2.707   5.744
  493SOL     OW 2377   1.509   5.680   3.567
  493SOL    HW1 2378   1.555   5.767   3.550
  493SOL    HW2 2379   1.411   5.695   3.575
  494SOL     OW 2380   2.539   0.175   3.201
  494SOL    HW1 2381   2.532   0.267   3.238
  494SOL    HW2 2382   2.613   0.126   3.247
  495SOL     OW 2383   4.006   4.614   0.055
  495SOL    HW1 2384   3.907   4.610   0.042
  495SOL    HW2 2385   4.027   4.672   0.134
  496SOL     OW 2386   5.066   0.936   3.261
  496SOL    HW1 2387   4.970   0.930   3.289
  496SOL    HW2 2388   5.078   1.016   3.202
  497SOL     OW 2389   4.813   3.040   1.211
  497SOL    HW1 2390   4.736   3.031   1.148
  497SOL    HW2 2391   4.813   2.963   1.276
  498SOL     OW 2392   0.764   0.214   1.170
  498SOL    HW1 2393   0.765   0.126   1.123
  498SOL    HW2 2394   0.857   0.250   1.175
  499SOL     OW 2395   2.872   6.812   6.943
  499SOL    HW1 2396   2.923   6.862   6.873
  499SOL    HW2 2397   2.777   6.802   6.915
  500SOL     OW 2398   6.241   1.917   6.667
  500SOL    HW1 2399   6.153   1.950   6.699
  500SOL    HW2 2400   6.227   1.842   6.602
  501SOL     OW 2401   1.627   2.346   4.902
  501SOL    HW1 2402   1.682   2.424   4.932
  501SOL    HW2 2403   1.599   2.292   4.982
  502SOL     OW 2404   2.138   3.036   6.681
  502SOL    HW1 2405   2.121   3.052   6.584
  502SOL    HW2 2406   2.183   2.947   6.693
  503SOL     OW 2407   4.287   5.131   1.150
  503SOL    HW1 2408   4.311   5.045   1.193
  503SOL    HW2 2409   4.187   5.138   1.142
  504SOL     OW 2410   6.370   0.475   0.235
  504SOL    HW1 2411   6.294   0.535   0.262
  504SOL    HW2 2412   6.343   0.379   0.248
  505SOL     OW 2413   6.493   3.650   5.266
  505SOL    HW1 2414   6.544   3.724   5.309
  505SOL    HW2 2415   6.402   3.644   5.307
  506SOL     OW 2416   2.534   5.600   2.126
  506SOL    HW1 2417   2.449   5.589   2.075
  506SOL    HW2 2418   2.533   5.539   2.205
  507SOL     OW 2419   2.861   6.656   3.403
  507SOL    HW1 2420   2.934   6.638   3.338
  507SOL    HW2 2421   2.785   6.702   3.356
  508SOL     OW 2422   0.378   5.042   3.468
  508SOL    HW1 2423   0.359   4.997   3.381
  508SOL    HW2 2424   0.438   5.121   3.452
  509SOL     OW 2425   4.541   0.117   6.007
  509SOL    HW1 2426   4.531   0.145   5.911
  509SOL    HW2 2427   4.451   0.107   6.049
  510SOL     OW 2428   6.763   4.633   0.288
  510SOL    HW1 2429   6.785   4.570   0.363
  510SOL    HW2 2430   6.816   4.607   0.207
  511SOL     OW 2431   0.651   1.756   0.677
  511SOL    HW1 2432   0.719   1.684   0.669
  511SOL    HW2 2433   0.603   1.768   0.591
  512SOL     OW 2434   1.283   2.136   4.502
  512SOL    HW1 2435   1.208   2.132   4.568
  512SOL    HW2 2436   1.352   2.200   4.535
  513SOL     OW 2437   5.694   5.682   2.725
  513SOL    HW1 2438   5.788   5.649   2.733
  513SOL    HW2 2439   5.682   5.727   2.637
  514SOL     OW 2440   4.681   1.348   4.558
  514SOL    HW1 2441   4.769   1.361   4.603
  514SOL    HW2 2442   4.655   1.252   4.562
  515SOL     OW 2443   3.334   0.720   6.989
  515SOL    HW1 2444   3.268   0.663   0.023
  515SOL    HW2 2445   3.413   0.665   6.963
  516SOL     OW 2446   0.489   5.516   2.451
  516SOL    HW1 2447   0.518   5.454   2.524
  516SOL    HW2 2448   0.506   5.611   2.479
  517SOL     OW 2449   3.638   4.833   1.257
  517SOL    HW1 2450   3.591   4.755   1.299
  517SOL    HW2 2451   3.659   4.811   1.161
  518SOL     OW 2452   2.286   6.615   4.048
  518SOL    HW1 2453   2.332   6.654   3.968
  518SOL    HW2 2454   2.226   6.684   4.088
  519SOL     OW 2455   6.968   0.436   2.471
  519SOL    HW1 2456   6.982   0.414   2.375
  519SOL    HW2 2457   6.916   0.363   2.515
  520SOL     OW 2458   3.146   5.511   0.826
  520SOL    HW1 2459   3.164   5.512   0.728
  520SOL    HW2 2460   3.048   5.523   0.843
  521SOL     OW 2461   6.869   6.506   5.154
  521SOL    HW1 2462   6.810   6.567   5.206
  521SOL    HW2 2463   6.949   6.482   5.209
  522SOL     OW 2464   3.945   4.641   6.529
  522SOL    HW1 2465   3.975   4.547   6.547
  522SOL    HW2 2466   3.915   4.683   6.615
  523SOL     OW 2467   2.192   6.637   5.411
  523SOL    HW1 2468   2.215   6.566   5.478
  523SOL    HW2 2469   2.276   6.666   5.364
  524SOL     OW 2470   6.598   1.272   0.824
  524SOL    HW1 2471   6.657   1.191   0.823
  524SOL    HW2 2472   6.618   1.329   0.744
  525SOL     OW 2473   1.223   3.366   3.695
  525SOL    HW1 2474   1.165   3.370   3.614
  525SOL    HW2 2475   1.172   3.400   3.774
  526SOL     OW 2476   3.955   6.229   4.508
  526SOL    HW1 2477   4.049   6.199   4.493
  526SOL    HW2 2478   3.945   6.325   4.481
  527SOL     OW 2479   0.061   1.068   0.651
  527SOL    HW1 2480   0.002   0.988   0.665
  527SOL    HW2 2481   0.021   1.147   0.697
  528SOL     OW 2482   0.004   1.729   4.332
  528SOL    HW1 2483   6.953   1.779   4.277
  528SOL    HW2 2484   6.990   1.729   4.427
  529SOL     OW 2485   1.059   1.377   5.864
  529SOL    HW1 2486   0.973   1.395   5.911
  529SOL    HW2 2487   1.095   1.462   5.824
  530SOL     OW 2488   3.354   4.623   1.740
  530SOL    HW1 2489   3.431   4.673   1.780
  530SOL    HW2 2490   3.286   4.687   1.705
  531SOL     OW 2491   0.317   1.183   6.099
  531SOL    HW1 2492   0.329   1.283   6.094
  531SOL    HW2 2493   0.308   1.146   6.007
  532SOL     OW 2494   3.658   0.890   0.177
  532SOL    HW1 2495   3.563   0.881   0.208
  532SOL    HW2 2496   3.719   0.888   0.255
  533SOL     OW 2497   4.372   0.177   4.855
  533SOL    HW1 2498   4.465   0.143   4.843
  533SOL    HW2 2499   4.315   0.147   4.778
  534SOL     OW 2500   1.866   4.061   1.543
  534SOL    HW1 2501   1.956   4.029   1.571
  534SOL    HW2 2502   1.868   4.160   1.531
  535SOL     OW 2503   4.468   4.488   4.094
  535SOL    HW1 2504   4.403   4.542   4.147
  535SOL    HW2 2505   4.536   4.549   4.053
  536SOL     OW 2506   6.358   6.258   1.193
  536SOL    HW1 2507   6.403   6.298   1.113
  536SOL    HW2 2508   6.269   6.221   1.166
  537SOL     OW 2509   3.320   1.375   2.780
  537SOL    HW1 2510   3.258   1.385   2.857
  537SOL    HW2 2511   3.296   1.442   2.709
  538SOL     OW 2512   3.971   4.834   5.529
  538SOL    HW1 2513   3.883   4.808   5.567
  538SOL    HW2 2514   4.044   4.807   5.592
  539SOL     OW 2515   2.451   0.475   6.926
  539SOL    HW1 2516   2.427   0.502   6.833
  539SOL    HW2 2517   2.415   0.384   6.945
  540SOL     OW 2518   2.735   1.523   5.282
  540SOL    HW1 2519   2.803   1.450   5.292
  540SOL    HW2 2520   2.664   1.493   5.218
  541SOL     OW 2521   5.187   6.054   3.016
  541SOL    HW1 2522   5.196   6.138   3.069
  541SOL    HW2 2523   5.093   6.042   2.986
  542SOL     OW 2524   3.893   5.998   5.774
  542SOL    HW1 2525   3.910   5.927   5.843
  542SOL    HW2 2526   3.949   5.979   5.693
  543SOL     OW 2527   6.500   2.243   4.722
  543SOL    HW1 2528   6.475   2.157   4.766
  543SOL    HW2 2529   6.450   2.318   4.765
  544SOL     OW 2530   0.580   3.098   0.998
  544SOL    HW1 2531   0.671   3.096   0.957
  544SOL    HW2 2532   0.518   3.041   0.945
  545SOL     OW 2533   6.746   5.146   0.260
  545SOL    HW1 2534   6.759   5.164   0.358
  545SOL    HW2 2535   6.812   5.078   0.229
  546SOL     OW 2536   6.887   5.070   2.682
  546SOL    HW1 2537   6.814   5.047   2.618
  546SOL    HW2 2538   6.959   5.120   2.634
  547SOL     OW 2539   4.249   6.397   6.518
  547SOL    HW1 2540   4.210   6.425   6.430
  547SOL    HW2 2541   4.272   6.479   6.571
  548SOL     OW 2542   4.190   2.677   0.152
  548SOL    HW1 2543   4.147   2.716   0.070
  548SOL    HW2 2544   4.282   2.716   0.162
  549SOL     OW 2545   5.549   2.674   3.854
  549SOL    HW1 2546   5.523   2.626   3.938
  549SOL    HW2 2547   5.497   2.638   3.777
  550SOL     OW 2548   0.119   5.751   3.968
  550SOL    HW1 2549   0.082   5.700   4.045
  550SOL    HW2 2550   0.068   5.730   3.885
  551SOL     OW 2551   5.503   0.588   0.431
  551SOL    HW1 2552   5.451   0.646   0.494
  551SOL    HW2 2553   5.557   0.522   0.482
  552SOL     OW 2554   0.339   0.166   4.826
  552SOL    HW1 2555   0.402   0.165   4.748
  552SOL    HW2 2556   0.363   0.241   4.887
  553SOL     OW 2557   3.664   2.296   5.377
  553SOL    HW1 2558   3.740   2.362   5.376
  553SOL    HW2 2559   3.672   2.235   5.298
  554SOL     OW 2560   0.062   5.246   0.250
  554SOL    HW1 2561   0.020   5.156   0.257
  554SOL    HW2 2562   0.026   5.305   0.322
  555SOL     OW 2563   3.198   4.148   5.920
  555SOL    HW1 2564   3.254   4.203   5.858
  555SOL    HW2 2565   3.181   4.200   6.004
  556SOL     OW 2566   5.985   6.252   2.207
  556SOL    HW1 2567   6.067   6.301   2.235
  556SOL    HW2 2568   5.935   6.306   2.139
  557SOL     OW 2569   6.181   3.634   6.853
  557SOL    HW1 2570   6.090   3.661   6.886
  557SOL    HW2 2571   6.242   3.713   6.859
  558SOL     OW 2572   3.275   3.790   1.959
  558SOL    HW1 2573   3.266   3.692   1.977
  558SOL    HW2 2574   3.318   3.835   2.038
  559SOL     OW 2575   6.009   1.088   6.431
  559SOL    HW1 2576   6.007   1.166   6.493
  559SOL    HW2 2577   6.092   1.092   6.375
  560SOL     OW 2578   0.955   2.184   3.511
  560SOL    HW1 2579   1.004   2.260   3.469
  560SOL    HW2 2580   0.960   2.103   3.452
  561SOL     OW 2581   0.322   4.089   6.868
  561SOL    HW1 2582   0.308   4.010   6.928
  561SOL    HW2 2583   0.363   4.058   6.782
  562SOL     OW 2584   4.040   6.318   3.475
  562SOL    HW1 2585   4.135   6.346   3.477
  562SOL    HW2 2586   4.033   6.221   3.498
  563SOL     OW 2587   0.675   0.759   4.404
  563SOL    HW1 2588   0.705   0.854   4.413
  563SOL    HW2 2589   0.598   0.742   4.465
  564SOL     OW 2590   5.717   1.261   5.131
  564SOL    HW1 2591   5.717   1.245   5.033
  564SOL    HW2 2592   5.632   1.305   5.158
  565SOL     OW 2593   3.393   3.352   4.175
  565SOL    HW1 2594   3.312   3.397   4.212
  565SOL    HW2 2595   3.368   3.305   4.090
  566SOL     OW 2596   1.698   2.827   3.623
  566SOL    HW1 2597   1.625   2.895   3.630
  566SOL    HW2 2598   1.779   2.869   3.582
  567SOL     OW 2599   1.478   3.124   5.546
  567SOL    HW1 2600   1.425   3.049   5.507
  567SOL    HW2 2601   1.477   3.202   5.483
  568SOL     OW 2602   1.107   0.248   6.907
  568SOL    HW1 2603   1.172   0.275   6.836
  568SOL    HW2 2604   1.155   0.200   6.980
  569SOL     OW 2605   5.230   3.723   5.168
  569SOL    HW1 2606   5.159   3.773   5.216
  569SOL    HW2 2607   5.187   3.664   5.099
  570SOL     OW 2608   3.495   0.690   6.442
  570SOL    HW1 2609   3.535   0.726   6.526
  570SOL    HW2 2610   3.469   0.766   6.382
  571SOL     OW 2611   2.490   4.394   1.594
  571SOL    HW1 2612   2.585   4.374   1.615
  571SOL    HW2 2613   2.457   4.465   1.656
  572SOL     OW 2614   2.835   1.501   4.673
  572SOL    HW1 2615   2.788   1.577   4.719
  572SOL    HW2 2616   2.825   1.418   4.728
  573SOL     OW 2617   0.540   0.326   5.662
  573SOL    HW1 2618   0.553   0.394   5.735
  573SOL    HW2 2619   0.520   0.373   5.576
  574SOL     OW 2620   2.719   0.977   5.810
  574SOL    HW1 2621   2.669   0.913   5.752
  574SOL    HW2 2622   2.672   1.065   5.811
  575SOL     OW 2623   3.894   3.681   0.295
  575SOL    HW1 2624   3.893   3.660   0.392
  575SOL    HW2 2625   3.808   3.652   0.253
  576SOL     OW 2626   0.333   0.963   2.871
  576SOL    HW1 2627   0.241   0.974   2.911
  576SOL    HW2 2628   0.396   0.929   2.941
  577SOL     OW 2629   0.280   0.012   2.231
  577SOL    HW1 2630   0.304   6.980   2.146
  577SOL    HW2 2631   0.207   6.977   2.278
  578SOL     OW 2632   3.892   0.008   0.642
  578SOL    HW1 2633   3.839   6.938   0.644
  578SOL    HW2 2634   3.988   7.002   0.621
  579SOL     OW 2635   0.968   3.765   2.031
  579SOL    HW1 2636   1.046   3.723   1.985
  579SOL    HW2 2637   0.897   3.696   2.046
  580SOL     OW 2638   4.775   4.949   4.865
  580SOL    HW1 2639   4.797   4.878   4.798
  580SOL    HW2 2640   4.680   4.978   4.853
  581SOL     OW 2641   1.792   2.472   3.988
  581SOL    HW1 2642   1.713   2.415   3.968
  581SOL    HW2 2643   1.826   2.451   4.080
  582SOL     OW 2644   5.429   4.259   4.808
  582SOL    HW1 2645   5.345   4.239   4.758
  582SOL    HW2 2646   5.508   4.252   4.747
  583SOL     OW 2647   3.228   6.317   5.489
  583SOL    HW1 2648   3.171   6.240   5.518
  583SOL    HW2 2649   3.236   6.317   5.389
  584SOL     OW 2650   4.185   1.193   5.285
  584SOL    HW1 2651   4.220   1.234   5.200
  584SOL    HW2 2652   4.256   1.136   5.326
  585SOL     OW 2653   3.749   6.220   1.487
  585SOL    HW1 2654   3.831   6.194   1.537
  585SOL    HW2 2655   3.757   6.315   1.456
  586SOL     OW 2656   3.725   0.149   0.805
  586SOL    HW1 2657   3.685   0.213   0.739
  586SOL    HW2 2658   3.794   0.093   0.760
  587SOL     OW 2659   4.670   1.386   2.617
  587SOL    HW1 2660   4.692   1.317   2.686
  587SOL    HW2 2661   4.708   1.474   2.646
  588SOL     OW 2662   2.188   4.037   2.988
  588SOL    HW1 2663   2.197   3.950   2.940
  588SOL    HW2 2664   2.228   4.111   2.934
  589SOL     OW 2665   3.445   4.965   6.664
  589SOL    HW1 2666   3.527   4.992   6.613
  589SOL    HW2 2667   3.380   5.041   6.665
  590SOL     OW 2668   2.764   1.906   6.233
  590SOL    HW1 2669   2.744   1.869   6.142
  590SOL    HW2 2670   2.860   1.936   6.236
  591SOL     OW 2671   2.717   0.108   3.975
  591SOL    HW1 2672   2.756   0.186   4.024
  591SOL    HW2 2673   2.761   0.024   4.007
  592SOL     OW 2674   5.033   2.389   4.655
  592SOL    HW1 2675   5.097   2.455   4.616
  592SOL    HW2 2676   4.961   2.437   4.706
  593SOL     OW 2677   1.905   0.457   6.967
  593SOL    HW1 2678   1.886   0.486   0.045
  593SOL    HW2 2679   1.997   0.486   6.941
  594SOL     OW 2680   3.674   0.980   4.940
  594SOL    HW1 2681   3.761   0.972   4.990
  594SOL    HW2 2682   3.685   1.044   4.864
  595SOL     OW 2683   6.167   4.040   2.174
  595SOL    HW1 2684   6.210   3.997   2.254
  595SOL    HW2 2685   6.156   4.138   2.190
  596SOL     OW 2686   5.911   5.186   4.314
  596SOL    HW1 2687   5.908   5.149   4.407
  596SOL    HW2 2688   5.927   5.285   4.319
  597SOL     OW 2689   3.723   1.901   6.463
  597SOL    HW1 2690   3.695   1.979   6.407
  597SOL    HW2 2691   3.707   1.922   6.560
  598SOL     OW 2692   2.942   3.642   3.038
  598SOL    HW1 2693   2.877   3.610   2.969
  598SOL    HW2 2694   2.949   3.574   3.111
  599SOL     OW 2695   2.028   4.667   1.233
  599SOL    HW1 2696   2.106   4.632   1.284
  599SOL    HW2 2697   2.048   4.758   1.199
  600SOL     OW 2698   0.210   3.447   5.577
  600SOL    HW1 2699   0.151   3.377   5.618
  600SOL    HW2 2700   0.271   3.403   5.511
  601SOL     OW 2701   0.024   0.128   5.796
  601SOL    HW1 2702   0.083   0.063   5.845
  601SOL    HW2 2703   0.055   0.221   5.815
  602SOL     OW 2704   1.315   0.871   3.626
  602SOL    HW1 2705   1.394   0.922   3.595
  602SOL    HW2 2706   1.231   0.913   3.591
  603SOL     OW 2707   1.365   1.639   4.161
  603SOL    HW1 2708   1.448   1.683   4.127
  603SOL    HW2 2709   1.290   1.657   4.097
  604SOL     OW 2710   5.316   2.536   1.517
  604SOL    HW1 2711   5.241   2.559   1.578
  604SOL    HW2 2712   5.369   2.618   1.497
  605SOL     OW 2713   5.805   6.452   1.479
  605SOL    HW1 2714   5.851   6.508   1.410
  605SOL    HW2 2715   5.720   6.497   1.507
  606SOL     OW 2716   3.032   6.505   5.180
  606SOL    HW1 2717   3.097   6.432   5.158
  606SOL    HW2 2718   3.052   6.541   5.271
  607SOL     OW 2719   1.160   3.129   6.351
  607SOL    HW1 2720   1.108   3.094   6.273
  607SOL    HW2 2721   1.256   3.104   6.341
  608SOL     OW 2722   3.048   1.832   0.431
  608SOL    HW1 2723   2.948   1.829   0.433
  608SOL    HW2 2724   3.080   1.909   0.486
  609SOL     OW 2725   3.529   2.998   2.423
  609SOL    HW1 2726   3.616   2.952   2.442
  609SOL    HW2 2727   3.546   3.084   2.375
  610SOL     OW 2728   4.897   2.949   1.807
  610SOL    HW1 2729   4.844   2.968   1.890
  610SOL    HW2 2730   4.994   2.942   1.830
  611SOL     OW 2731   3.608   1.730   2.238
  611SOL    HW1 2732   3.538   1.801   2.248
  611SOL    HW2 2733   3.694   1.773   2.210
  612SOL     OW 2734   4.679   4.886   4.428
  612SOL    HW1 2735   4.741   4.938   4.368
  612SOL    HW2 2736   4.732   4.838   4.498
  613SOL     OW 2737   4.050   5.027   6.396
  613SOL    HW1 2738   4.060   5.063   6.489
  613SOL    HW2 2739   4.035   4.928   6.399
  614SOL     OW 2740   3.170   6.179   6.172
  614SOL    HW1 2741   3.075   6.210   6.177
  614SOL    HW2 2742   3.188   6.115   6.247
  615SOL     OW 2743   6.622   4.970   3.743
  615SOL    HW1 2744   6.668   5.047   3.700
  615SOL    HW2 2745   6.629   4.978   3.842
  616SOL     OW 2746   6.286   2.520   3.810
  616SOL    HW1 2747   6.197   2.532   3.766
  616SOL    HW2 2748   6.285   2.439   3.868
  617SOL     OW 2749   2.714   0.324   5.979
  617SOL    HW1 2750   2.797   0.302   6.030
  617SOL    HW2 2751   2.637   0.330   6.042
  618SOL     OW 2752   2.314   0.572   3.371
  618SOL    HW1 2753   2.242   0.503   3.360
  618SOL    HW2 2754   2.298   0.625   3.454
  619SOL     OW 2755   0.879   2.531   7.011
  619SOL    HW1 2756   0.780   2.536   7.003
  619SOL    HW2 2757   0.907   2.435   7.004
  620SOL     OW 2758   4.451   3.665   0.330
  620SOL    HW1 2759   4.369   3.722   0.342
  620SOL    HW2 2760   4.508   3.705   0.258
  621SOL     OW 2761   0.271   5.766   1.324
  621SOL    HW1 2762   0.241   5.786   1.231
  621SOL    HW2 2763   0.226   5.828   1.388
  622SOL     OW 2764   0.583   1.418   0.035
  622SOL    HW1 2765   0.670   1.403   7.004
  622SOL    HW2 2766   0.598   1.476   0.116
  623SOL     OW 2767   6.657   5.584   5.308
  623SOL    HW1 2768   6.743   5.628   5.284
  623SOL    HW2 2769   6.655   5.492   5.269
  624SOL     OW 2770   0.708   1.358   1.697
  624SOL    HW1 2771   0.652   1.414   1.758
  624SOL    HW2 2772   0.709   1.399   1.605
  625SOL     OW 2773   1.567   1.057   2.664
  625SOL    HW1 2774   1.553   1.149   2.701
  625SOL    HW2 2775   1.485   1.028   2.614
  626SOL     OW 2776   3.251   5.692   4.677
  626SOL    HW1 2777   3.218   5.726   4.589
  626SOL    HW2 2778   3.186   5.716   4.749
  627SOL     OW 2779   4.459   5.979   6.692
  627SOL    HW1 2780   4.370   5.935   6.707
  627SOL    HW2 2781   4.524   5.910   6.659
  628SOL     OW 2782   5.466   3.888   2.970
  628SOL    HW1 2783   5.536   3.960   2.970
  628SOL    HW2 2784   5.508   3.801   2.996
  629SOL     OW 2785   1.798   7.012   1.039
  629SOL    HW1 2786   1.850   6.939   0.994
  629SOL    HW2 2787   1.794   6.994   1.137
  630SOL     OW 2788   2.739   1.314   2.093
  630SOL    HW1 2789   2.810   1.375   2.057
  630SOL    HW2 2790   2.692   1.270   2.017
  631SOL     OW 2791   2.536   1.130   4.328
  631SOL    HW1 2792   2.472   1.063   4.290
  631SOL    HW2 2793   2.575   1.185   4.254
  632SOL     OW 2794   3.009   0.651   0.913
  632SOL    HW1 2795   3.080   0.615   0.973
  632SOL    HW2 2796   3.020   0.750   0.904
  633SOL     OW 2797   1.876   0.387   4.886
  633SOL    HW1 2798   1.877   0.439   4.972
  633SOL    HW2 2799   1.781   0.371   4.858
  634SOL     OW 2800   2.910   5.581   1.798
  634SOL    HW1 2801   2.811   5.568   1.803
  634SOL    HW2 2802   2.955   5.492   1.796
  635SOL     OW 2803   3.306   0.086   2.410
  635SOL    HW1 2804   3.206   0.092   2.419
  635SOL    HW2 2805   3.348   0.160   2.463
  636SOL     OW 2806   4.796   4.932   6.285
  636SOL    HW1 2807   4.884   4.930   6.236
  636SOL    HW2 2808   4.795   4.859   6.354
  637SOL     OW 2809   5.609   5.218   6.365
  637SOL    HW1 2810   5.636   5.195   6.458
  637SOL    HW2 2811   5.526   5.273   6.366
  638SOL     OW 2812   5.434   1.559   3.379
  638SOL    HW1 2813   5.467   1.630   3.317
  638SOL    HW2 2814   5.356   1.513   3.338
  639SOL     OW 2815   4.334   3.809   1.719
  639SOL    HW1 2816   4.305   3.718   1.690
  639SOL    HW2 2817   4.278   3.839   1.796
  640SOL     OW 2818   2.832   2.906   5.449
  640SOL    HW1 2819   2.759   2.869   5.391
  640SOL    HW2 2820   2.845   3.002   5.428
  641SOL     OW 2821   0.120   6.044   4.352
  641SOL    HW1 2822   0.173   6.040   4.437
  641SOL    HW2 2823   0.097   6.140   4.332
  642SOL     OW 2824   1.042   4.338   6.024
  642SOL    HW1 2825   1.121   4.294   5.982
  642SOL    HW2 2826   0.986   4.269   6.071
  643SOL     OW 2827   5.735   6.408   4.999
  643SOL    HW1 2828   5.638   6.432   5.010
  643SOL    HW2 2829   5.791   6.491   5.005
  644SOL     OW 2830   3.026   6.229   1.303
  644SOL    HW1 2831   2.982   6.165   1.366
  644SOL    HW2 2832   2.965   6.246   1.225
  645SOL     OW 2833   0.769   2.891   2.858
  645SOL    HW1 2834   0.845   2.838   2.820
  645SOL    HW2 2835   0.703   2.829   2.901
  646SOL     OW 2836   1.359   3.018   4.451
  646SOL    HW1 2837   1.438   3.035   4.392
  646SOL    HW2 2838   1.372   3.065   4.538
  647SOL     OW 2839   5.807   3.863   0.053
  647SOL    HW1 2840   5.722   3.811   0.056
  647SOL    HW2 2841   5.790   3.955   0.017
  648SOL     OW 2842   4.431   2.499   4.240
  648SOL    HW1 2843   4.410   2.449   4.324
  648SOL    HW2 2844   4.408   2.441   4.161
  649SOL     OW 2845   4.556   4.743   1.537
  649SOL    HW1 2846   4.457   4.743   1.550
  649SOL    HW2 2847   4.577   4.778   1.445
  650SOL     OW 2848   5.417   5.042   0.651
  650SOL    HW1 2849   5.347   5.055   0.721
  650SOL    HW2 2850   5.396   4.961   0.597
  651SOL     OW 2851   1.995   5.774   6.796
  651SOL    HW1 2852   1.904   5.804   6.825
  651SOL    HW2 2853   1.996   5.674   6.791
  652SOL     OW 2854   4.997   2.273   2.155
  652SOL    HW1 2855   5.067   2.307   2.092
  652SOL    HW2 2856   4.976   2.342   2.224
  653SOL     OW 2857   3.236   4.884   2.661
  653SOL    HW1 2858   3.166   4.910   2.728
  653SOL    HW2 2859   3.228   4.942   2.580
  654SOL     OW 2860   0.265   5.335   6.575
  654SOL    HW1 2861   0.208   5.327   6.493
  654SOL    HW2 2862   0.225   5.280   6.648
  655SOL     OW 2863   1.577   1.751   7.013
  655SOL    HW1 2864   1.651   1.791   6.959
  655SOL    HW2 2865   1.513   1.705   6.952
  656SOL     OW 2866   1.546   6.553   1.291
  656SOL    HW1 2867   1.512   6.615   1.221
  656SOL    HW2 2868   1.606   6.602   1.355
  657SOL     OW 2869   3.727   0.369   0.267
  657SOL    HW1 2870   3.774   0.324   0.343
  657SOL    HW2 2871   3.790   0.431   0.221
  658SOL     OW 2872   3.885   5.897   6.858
  658SOL    HW1 2873   3.893   5.820   6.921
  658SOL    HW2 2874   3.965   5.956   6.866
  659SOL     OW 2875   3.820   0.695   6.244
  659SOL    HW1 2876   3.878   0.707   6.325
  659SOL    HW2 2877   3.739   0.642   6.269
  660SOL     OW 2878   3.724   6.522   3.154
  660SOL    HW1 2879   3.812   6.569   3.157
  660SOL    HW2 2880   3.738   6.423   3.154
  661SOL     OW 2881   5.975   5.219   2.588
  661SOL    HW1 2882   6.024   5.228   2.501
  661SOL    HW2 2883   6.040   5.208   2.663
  662SOL     OW 2884   4.452   1.646   6.803
  662SOL    HW1 2885   4.532   1.697   6.834
  662SOL    HW2 2886   4.438   1.661   6.705
  663SOL     OW 2887   1.217   4.257   4.425
  663SOL    HW1 2888   1.164   4.282   4.344
  663SOL    HW2 2889   1.280   4.331   4.448
  664SOL     OW 2890   5.934   0.075   6.688
  664SOL    HW1 2891   5.890   0.071   6.777
  664SOL    HW2 2892   5.904   0.158   6.640
  665SOL     OW 2893   1.090   4.098   1.945
  665SOL    HW1 2894   1.131   4.157   2.016
  665SOL    HW2 2895   0.991   4.112   1.943
  666SOL     OW 2896   4.411   0.854   1.945
  666SOL    HW1 2897   4.379   0.944   1.914
  666SOL    HW2 2898   4.338   0.787   1.933
  667SOL     OW 2899   0.496   0.386   1.611
  667SOL    HW1 2900   0.546   0.444   1.676
  667SOL    HW2 2901   0.464   0.442   1.534
  668SOL     OW 2902   5.594   2.983   6.817
  668SOL    HW1 2903   5.543   3.064   6.791
  668SOL    HW2 2904   5.687   2.988   6.779
  669SOL     OW 2905   5.049   1.547   3.132
  669SOL    HW1 2906   5.037   1.632   3.081
  669SOL    HW2 2907   5.043   1.469   3.070
  670SOL     OW 2908   4.195   2.200   2.374
  670SOL    HW1 2909   4.145   2.214   2.459
  670SOL    HW2 2910   4.169   2.113   2.333
  671SOL     OW 2911   1.285   5.817   1.512
  671SOL    HW1 2912   1.376   5.821   1.470
  671SOL    HW2 2913   1.295   5.790   1.608
  672SOL     OW 2914   0.668   0.126   1.536
  672SOL    HW1 2915   0.659   0.220   1.503
  672SOL    HW2 2916   0.595   0.106   1.601
  673SOL     OW 2917   6.146   6.838   6.437
  673SOL    HW1 2918   6.074   6.827   6.369
  673SOL    HW2 2919   6.134   6.770   6.510
  674SOL     OW 2920   5.377   0.605   4.200
  674SOL    HW1 2921   5.281   0.633   4.196
  674SOL    HW2 2922   5.402   0.560   4.114
  675SOL     OW 2923   0.994   4.424   1.780
  675SOL    HW1 2924   1.089   4.397   1.798
  675SOL    HW2 2925   0.986   4.524   1.787
  676SOL     OW 2926   2.675   6.131   6.868
  676SOL    HW1 2927   2.667   6.038   6.905
  676SOL    HW2 2928   2.741   6.183   6.922
  677SOL     OW 2929   5.717   1.113   1.390
  677SOL    HW1 2930   5.647   1.134   1.321
  677SOL    HW2 2931   5.685   1.036   1.446
  678SOL     OW 2932   0.811   5.311   4.063
  678SOL    HW1 2933   0.778   5.240   4.125
  678SOL    HW2 2934   0.779   5.400   4.095
  679SOL     OW 2935   4.788   1.544   5.539
  679SOL    HW1 2936   4.732   1.581   5.465
  679SOL    HW2 2937   4.801   1.614   5.609
  680SOL     OW 2938   5.895   6.543   3.834
  680SOL    HW1 2939   5.882   6.562   3.932
  680SOL    HW2 2940   5.840   6.607   3.781
  681SOL     OW 2941   4.187   4.929   2.598
  681SOL    HW1 2942   4.115   4.996   2.616
  681SOL    HW2 2943   4.273   4.961   2.637
  682SOL     OW 2944   6.898   1.269   3.267
  682SOL    HW1 2945   6.829   1.248   3.336
  682SOL    HW2 2946   6.856   1.265   3.176
  683SOL     OW 2947   3.180   4.475   0.474
  683SOL    HW1 2948   3.220   4.458   0.384
  683SOL    HW2 2949   3.245   4.526   0.530
  684SOL     OW 2950   6.572   1.554   6.170
  684SOL    HW1 2951   6.553   1.536   6.074
  684SOL    HW2 2952   6.667   1.529   6.191
  685SOL     OW 2953   3.262   6.581   3.392
  685SOL    HW1 2954   3.330   6.654   3.390
  685SOL    HW2 2955   3.212   6.585   3.478
  686SOL     OW 2956   3.658   0.091   5.360
  686SOL    HW1 2957   3.748   0.135   5.358
  686SOL    HW2 2958   3.590   0.153   5.318
  687SOL     OW 2959   0.148   0.508   4.709
  687SOL    HW1 2960   0.234   0.460   4.728
  687SOL    HW2 2961   0.134   0.513   4.610
  688SOL     OW 2962   5.189   2.992   0.041
  688SOL    HW1 2963   5.242   3.047   0.105
  688SOL    HW2 2964   5.107   2.956   0.086
  689SOL     OW 2965   2.601   5.538   0.280
  689SOL    HW1 2966   2.535   5.603   0.317
  689SOL    HW2 2967   2.685   5.542   0.334
  690SOL     OW 2968   5.808   3.592   4.212
  690SOL    HW1 2969   5.802   3.534   4.131
  690SOL    HW2 2970   5.729   3.654   4.214
  691SOL     OW 2971   5.590   1.116   2.369
  691SOL    HW1 2972   5.525   1.190   2.388
  691SOL    HW2 2973   5.644   1.098   2.451
  692SOL     OW 2974   1.190   0.154   3.637
  692SOL    HW1 2975   1.130   0.086   3.594
  692SOL    HW2 2976   1.285   0.134   3.614
  693SOL     OW 2977   5.733   4.381   2.554
  693SOL    HW1 2978   5.652   4.426   2.590
  693SOL    HW2 2979   5.761   4.425   2.468
  694SOL     OW 2980   4.176   4.922   4.336
  694SOL    HW1 2981   4.087   4.965   4.349
  694SOL    HW2 2982   4.171   4.858   4.258
  695SOL     OW 2983   4.478   6.856   3.497
  695SOL    HW1 2984   4.442   6.943   3.529
  695SOL    HW2 2985   4.556   6.829   3.555
  696SOL     OW 2986   5.993   4.040   1.968
  696SOL    HW1 2987   5.924   3.968   1.978
  696SOL    HW2 2988   6.050   4.043   2.049
  697SOL     OW 2989   0.412   6.539   2.585
  697SOL    HW1 2990   0.386   6.540   2.488
  697SOL    HW2 2991   0.486   6.473   2.600
  698SOL     OW 2992   5.538   6.420   6.267
  698SOL    HW1 2993   5.588   6.446   6.185
  698SOL    HW2 2994   5.527   6.321   6.270
  699SOL     OW 2995   3.734   3.559   0.817
  699SOL    HW1 2996   3.694   3.643   0.853
  699SOL    HW2 2997   3.824   3.544   0.860
  700SOL     OW 2998   3.524   6.920   5.625
  700SOL    HW1 2999   3.566   6.983   5.560
  700SOL    HW2 3000   3.428   6.943   5.638
  701SOL     OW 3001   4.729   4.653   2.138
  701SOL    HW1 3002   4.755   4.748   2.156
  701SOL    HW2 3003   4.769   4.594   2.208
  702SOL     OW 3004   4.042   0.181   4.511
  702SOL    HW1 3005   3.999   0.229   4.435
  702SOL    HW2 3006   4.121   0.233   4.542
  703SOL     OW 3007   3.485   3.336   0.582
  703SOL    HW1 3008   3.512   3.349   0.677
  703SOL    HW2 3009   3.469   3.239   0.564
  704SOL     OW 3010   3.872   1.157   6.902
  704SOL    HW1 3011   3.902   1.137   6.809
  704SOL    HW2 3012   3.949   1.147   6.965
  705SOL     OW 3013   0.067   6.144   5.492
  705SOL    HW1 3014   0.133   6.103   5.429
  705SOL    HW2 3015   0.115   6.185   5.569
  706SOL     OW 3016   4.036   0.298   4.860
  706SOL    HW1 3017   4.035   0.269   4.765
  706SOL    HW2 3018   3.976   0.238   4.914
  707SOL     OW 3019   3.088   4.929   4.464
  707SOL    HW1 3020   3.052   5.001   4.406
  707SOL    HW2 3021   3.033   4.923   4.548
  708SOL     OW 3022   3.165   5.905   3.491
  708SOL    HW1 3023   3.181   5.810   3.518
  708SOL    HW2 3024   3.091   5.908   3.423
  709SOL     OW 3025   2.208   0.332   2.057
  709SOL    HW1 3026   2.218   0.427   2.030
  709SOL    HW2 3027   2.246   0.319   2.148
  710SOL     OW 3028   4.891   3.232   2.955
  710SOL    HW1 3029   4.983   3.272   2.953
  710SOL    HW2 3030   4.877   3.177   2.873
  711SOL     OW 3031   0.074   1.764   0.865
  711SOL    HW1 3032   0.072   1.849   0.814
  711SOL    HW2 3033   0.166   1.749   0.902
  712SOL     OW 3034   5.594   4.040   0.182
  712SOL    HW1 3035   5.566   4.082   0.096
  712SOL    HW2 3036   5.547   4.087   0.258
  713SOL     OW 3037   4.071   3.288   6.451
  713SOL    HW1 3038   4.163   3.317   6.424
  713SOL    HW2 3039   4.039   3.345   6.527
  714SOL     OW 3040   4.427   6.561   3.038
  714SOL    HW1 3041   4.460   6.473   3.070
  714SOL    HW2 3042   4.455   6.633   3.101
  715SOL     OW 3043   6.538   4.527   5.346
  715SOL    HW1 3044   6.539   4.627   5.359
  715SOL    HW2 3045   6.501   4.483   5.428
  716SOL     OW 3046   3.409   1.808   3.508
  716SOL    HW1 3047   3.314   1.778   3.499
  716SOL    HW2 3048   3.462   1.774   3.430
  717SOL     OW 3049   4.858   5.088   3.821
  717SOL    HW1 3050   4.934   5.044   3.870
  717SOL    HW2 3051   4.831   5.030   3.743
  718SOL     OW 3052   6.048   2.115   5.471
  718SOL    HW1 3053   5.962   2.159   5.449
  718SOL    HW2 3054   6.120   2.184   5.480
  719SOL     OW 3055   4.870   5.732   2.870
  719SOL    HW1 3056   4.893   5.754   2.964
  719SOL    HW2 3057   4.843   5.815   2.822
  720SOL     OW 3058   2.835   1.399   1.403
  720SOL    HW1 3059   2.886   1.431   1.482
  720SOL    HW2 3060   2.739   1.385   1.429
  721SOL     OW 3061   0.070   2.735   2.016
  721SOL    HW1 3062   0.137   2.777   1.954
  721SOL    HW2 3063   0.113   2.721   2.106
  722SOL     OW 3064   5.626   6.226   1.348
  722SOL    HW1 3065   5.717   6.246   1.312
  722SOL    HW2 3066   5.632   6.216   1.448
  723SOL     OW 3067   2.005   0.764   4.489
  723SOL    HW1 3068   2.069   0.707   4.438
  723SOL    HW2 3069   1.925   0.784   4.432
  724SOL     OW 3070   1.426   2.539   4.674
  724SOL    HW1 3071   1.510   2.582   4.705
  724SOL    HW2 3072   1.433   2.440   4.682
  725SOL     OW 3073   1.573   4.375   3.077
  725SOL    HW1 3074   1.617   4.464   3.076
  725SOL    HW2 3075   1.521   4.363   2.992
  726SOL     OW 3076   2.486   3.739   0.521
  726SOL    HW1 3077   2.471   3.835   0.495
  726SOL    HW2 3078   2.431   3.717   0.601
  727SOL     OW 3079   3.931   5.175   4.485
  727SOL    HW1 3080   3.834   5.200   4.491
  727SOL    HW2 3081   3.943   5.081   4.518
  728SOL     OW 3082   6.031   3.077   3.601
  728SOL    HW1 3083   6.090   3.013   3.553
  728SOL    HW2 3084   6.087   3.143   3.652
  729SOL     OW 3085   0.843   4.619   0.223
  729SOL    HW1 3086   0.907   4.552   0.184
  729SOL    HW2 3087   0.823   4.689   0.155
  730SOL     OW 3088   4.131   1.589   3.052
  730SOL    HW1 3089   4.185   1.505   3.054
  730SOL    HW2 3090   4.125   1.623   2.957
  731SOL     OW 3091   4.636   4.958   5.226
  731SOL    HW1 3092   4.573   4.953   5.304
  731SOL    HW2 3093   4.681   5.048   5.225
  732SOL     OW 3094   4.466   0.743   4.114
  732SOL    HW1 3095   4.455   0.701   4.204
  732SOL    HW2 3096   4.531   0.819   4.121
  733SOL     OW 3097   6.990   5.096   4.177
  733SOL    HW1 3098   6.975   5.195   4.174
  733SOL    HW2 3099   6.970   5.056   4.088
  734SOL     OW 3100   6.130   6.140   3.208
  734SOL    HW1 3101   6.091   6.048   3.211
  734SOL    HW2 3102   6.058   6.206   3.188
  735SOL     OW 3103   4.140   0.347   2.520
  735SOL    HW1 3104   4.210   0.418   2.520
  735SOL    HW2 3105   4.176   0.264   2.477
  736SOL     OW 3106   1.587   2.135   3.905
  736SOL    HW1 3107   1.673   2.119   3.954
  736SOL    HW2 3108   1.510   2.119   3.966
  737SOL     OW 3109   3.364   0.946   6.351
  737SOL    HW1 3110   3.398   0.961   6.258
  737SOL    HW2 3111   3.300   1.019   6.375
  738SOL     OW 3112   1.485   5.175   0.430
  738SOL    HW1 3113   1.397   5.188   0.382
  738SOL    HW2 3114   1.542   5.113   0.377
  739SOL     OW 3115   1.566   0.561   3.631
  739SOL    HW1 3116   1.591   0.483   3.573
  739SOL    HW2 3117   1.587   0.646   3.583
  740SOL     OW 3118   5.286   2.933   3.027
  740SOL    HW1 3119   5.234   2.978   2.955
  740SOL    HW2 3120   5.371   2.895   2.988
  741SOL     OW 3121   2.956   1.657   3.070
  741SOL    HW1 3122   3.026   1.723   3.043
  741SOL    HW2 3123   2.865   1.698   3.060
  742SOL     OW 3124   2.146   0.411   2.475
  742SOL    HW1 3125   2.081   0.349   2.518
  742SOL    HW2 3126   2.211   0.359   2.420
  743SOL     OW 3127   0.019   6.684   2.824
  743SOL    HW1 3128   0.048   6.596   2.786
  743SOL    HW2 3129   6.987   6.737   2.753
  744SOL     OW 3130   4.810   1.928   0.996
  744SOL    HW1 3131   4.880   1.911   0.927
  744SOL    HW2 3132   4.737   1.862   0.987
  745SOL     OW 3133   2.321   6.817   5.230
  745SOL    HW1 3134   2.250   6.867   5.180
  745SOL    HW2 3135   2.367   6.879   5.293
  746SOL     OW 3136   6.172   5.713   5.085
  746SOL    HW1 3137   6.199   5.627   5.128
  746SOL    HW2 3138   6.087   5.746   5.126
  747SOL     OW 3139   4.220   5.310   2.705
  747SOL    HW1 3140   4.235   5.398   2.751
  747SOL    HW2 3141   4.306   5.258   2.705
  748SOL     OW 3142   5.987   4.323   1.659
  748SOL    HW1 3143   6.033   4.329   1.570
  748SOL    HW2 3144   5.888   4.331   1.646
  749SOL     OW 3145   4.673   4.327   4.757
  749SOL    HW1 3146   4.656   4.235   4.721
  749SOL    HW2 3147   4.700   4.321   4.853
  750SOL     OW 3148   2.498   2.022   3.342
  750SOL    HW1 3149   2.476   2.058   3.251
  750SOL    HW2 3150   2.511   2.098   3.406
  751SOL     OW 3151   4.536   0.598   0.452
  751SOL    HW1 3152   4.487   0.510   0.453
  751SOL    HW2 3153   4.616   0.592   0.512
  752SOL     OW 3154   3.103   3.105   4.198
  752SOL    HW1 3155   3.121   3.173   4.127
  752SOL    HW2 3156   3.029   3.138   4.257
  753SOL     OW 3157   3.718   4.087   3.658
  753SOL    HW1 3158   3.683   4.106   3.566
  753SOL    HW2 3159   3.810   4.049   3.652
  754SOL     OW 3160   4.967   0.033   6.924
  754SOL    HW1 3161   4.933   6.954   6.927
  754SOL    HW2 3162   4.890   0.096   6.929
  755SOL     OW 3163   4.869   4.733   5.056
  755SOL    HW1 3164   4.886   4.640   5.022
  755SOL    HW2 3165   4.951   4.766   5.104
  756SOL     OW 3166   3.370   5.814   5.572
  756SOL    HW1 3167   3.439   5.832   5.643
  756SOL    HW2 3168   3.416   5.790   5.486
  757SOL     OW 3169   1.219   0.208   1.855
  757SOL    HW1 3170   1.273   0.243   1.931
  757SOL    HW2 3171   1.217   0.276   1.781
  758SOL     OW 3172   3.971   1.242   4.566
  758SOL    HW1 3173   3.963   1.262   4.468
  758SOL    HW2 3174   4.065   1.257   4.595
  759SOL     OW 3175   0.064   3.017   3.599
  759SOL    HW1 3176   0.105   3.025   3.508
  759SOL    HW2 3177   0.031   2.924   3.613
  760SOL     OW 3178   6.695   5.444   3.916
  760SOL    HW1 3179   6.722   5.456   4.012
  760SOL    HW2 3180   6.700   5.533   3.870
  761SOL     OW 3181   4.465   4.893   5.966
  761SOL    HW1 3182   4.408   4.886   6.048
  761SOL    HW2 3183   4.553   4.849   5.983
  762SOL     OW 3184   3.883   5.781   3.485
  762SOL    HW1 3185   3.860   5.873   3.516
  762SOL    HW2 3186   3.970   5.784   3.434
  763SOL     OW 3187   5.475   1.347   0.803
  763SOL    HW1 3188   5.535   1.290   0.746
  763SOL    HW2 3189   5.504   1.341   0.898
  764SOL     OW 3190   5.196   6.535   5.055
  764SOL    HW1 3191   5.113   6.527   4.999
  764SOL    HW2 3192   5.171   6.567   5.147
  765SOL     OW 3193   5.581   6.413   0.584
  765SOL    HW1 3194   5.640   6.335   0.606
  765SOL    HW2 3195   5.632   6.479   0.528
  766SOL     OW 3196   2.458   2.291   4.105
  766SOL    HW1 3197   2.375   2.347   4.102
  766SOL    HW2 3198   2.522   2.324   4.036
  767SOL     OW 3199   0.007   6.120   3.433
  767SOL    HW1 3200   6.975   6.172   3.504
  767SOL    HW2 3201   0.016   6.025   3.462
  768SOL     OW 3202   2.166   5.745   2.140
  768SOL    HW1 3203   2.077   5.757   2.095
  768SOL    HW2 3204   2.219   5.676   2.091
  769SOL     OW 3205   3.819   1.262   5.217
  769SOL    HW1 3206   3.860   1.258   5.308
  769SOL    HW2 3207   3.727   1.225   5.221
  770SOL     OW 3208   0.738   4.860   5.548
  770SOL    HW1 3209   0.837   4.852   5.543
  770SOL    HW2 3210   0.709   4.947   5.509
  771SOL     OW 3211   1.449   4.658   2.633
  771SOL    HW1 3212   1.477   4.712   2.554
  771SOL    HW2 3213   1.425   4.565   2.604
  772SOL     OW 3214   5.739   5.191   0.449
  772SOL    HW1 3215   5.742   5.259   0.523
  772SOL    HW2 3216   5.650   5.195   0.404
  773SOL     OW 3217   1.876   5.124   4.359
  773SOL    HW1 3218   1.881   5.119   4.260
  773SOL    HW2 3219   1.925   5.047   4.400
  774SOL     OW 3220   1.942   2.206   3.789
  774SOL    HW1 3221   1.987   2.147   3.722
  774SOL    HW2 3222   1.986   2.296   3.790
  775SOL     OW 3223   0.955   4.102   2.550
  775SOL    HW1 3224   0.872   4.053   2.578
  775SOL    HW2 3225   0.954   4.194   2.588
  776SOL     OW 3226   3.426   5.568   6.211
  776SOL    HW1 3227   3.395   5.484   6.167
  776SOL    HW2 3228   3.359   5.641   6.194
  777SOL     OW 3229   1.915   3.680   6.684
  777SOL    HW1 3230   1.946   3.744   6.754
  777SOL    HW2 3231   1.882   3.596   6.728
  778SOL     OW 3232   3.632   5.618   6.903
  778SOL    HW1 3233   3.590   5.709   6.896
  778SOL    HW2 3234   3.660   5.588   6.812
  779SOL     OW 3235   5.883   1.627   3.482
  779SOL    HW1 3236   5.899   1.657   3.576
  779SOL    HW2 3237   5.964   1.579   3.448
  780SOL     OW 3238   6.492   1.456   4.568
  780SOL    HW1 3239   6.446   1.429   4.653
  780SOL    HW2 3240   6.424   1.465   4.495
  781SOL     OW 3241   0.792   4.974   6.342
  781SOL    HW1 3242   0.877   5.012   6.378
  781SOL    HW2 3243   0.714   5.022   6.383
  782SOL     OW 3244   1.911   4.156   5.527
  782SOL    HW1 3245   1.975   4.226   5.560
  782SOL    HW2 3246   1.825   4.200   5.503
  783SOL     OW 3247   6.643   4.726   6.465
  783SOL    HW1 3248   6.545   4.721   6.446
  783SOL    HW2 3249   6.693   4.745   6.381
  784SOL     OW 3250   2.084   5.464   6.464
  784SOL    HW1 3251   2.118   5.405   6.537
  784SOL    HW2 3252   2.136   5.446   6.380
  785SOL     OW 3253   0.522   0.403   3.933
  785SOL    HW1 3254   0.600   0.460   3.956
  785SOL    HW2 3255   0.438   0.444   3.968
  786SOL     OW 3256   5.649   0.809   5.013
  786SOL    HW1 3257   5.716   0.753   5.061
  786SOL    HW2 3258   5.589   0.751   4.958
  787SOL     OW 3259   1.935   6.726   0.947
  787SOL    HW1 3260   1.924   6.639   0.996
  787SOL    HW2 3261   2.009   6.778   0.989
  788SOL     OW 3262   2.248   2.887   2.330
  788SOL    HW1 3263   2.222   2.955   2.398
  788SOL    HW2 3264   2.315   2.926   2.267
  789SOL     OW 3265   3.975   5.164   2.274
  789SOL    HW1 3266   4.011   5.187   2.364
  789SOL    HW2 3267   3.973   5.065   2.263
  790SOL     OW 3268   6.863   3.425   2.190
  790SOL    HW1 3269   6.947   3.371   2.197
  790SOL    HW2 3270   6.806   3.407   2.270
  791SOL     OW 3271   3.282   1.356   3.630
  791SOL    HW1 3272   3.359   1.322   3.683
  791SOL    HW2 3273   3.225   1.415   3.688
  792SOL     OW 3274   2.367   0.388   0.738
  792SOL    HW1 3275   2.291   0.447   0.767
  792SOL    HW2 3276   2.452   0.440   0.740
  793SOL     OW 3277   1.831   5.481   5.009
  793SOL    HW1 3278   1.845   5.560   5.068
  793SOL    HW2 3279   1.874   5.400   5.051
  794SOL     OW 3280   3.598   3.720   2.313
  794SOL    HW1 3281   3.600   3.748   2.409
  794SOL    HW2 3282   3.517   3.760   2.269
  795SOL     OW 3283   4.692   0.055   5.183
  795SOL    HW1 3284   4.783   0.095   5.183
  795SOL    HW2 3285   4.690   6.991   5.244
  796SOL     OW 3286   1.009   2.447   6.636
  796SOL    HW1 3287   1.041   2.524   6.691
  796SOL    HW2 3288   0.958   2.481   6.558
  797SOL     OW 3289   3.395   6.837   1.209
  797SOL    HW1 3290   3.384   6.893   1.126
  797SOL    HW2 3291   3.396   6.740   1.183
  798SOL     OW 3292   4.874   4.408   1.275
  798SOL    HW1 3293   4.841   4.346   1.346
  798SOL    HW2 3294   4.969   4.385   1.253
  799SOL     OW 3295   3.718   2.901   5.764
  799SOL    HW1 3296   3.720   2.984   5.708
  799SOL    HW2 3297   3.631   2.895   5.812
  800SOL     OW 3298   5.497   3.069   2.717
  800SOL    HW1 3299   5.553   3.023   2.786
  800SOL    HW2 3300   5.425   3.007   2.686
  801SOL     OW 3301   2.017   5.499   6.839
  801SOL    HW1 3302   2.046   5.407   6.812
  801SOL    HW2 3303   2.055   5.521   6.929
  802SOL     OW 3304   4.163   2.597   6.322
  802SOL    HW1 3305   4.225   2.667   6.286
  802SOL    HW2 3306   4.114   2.553   6.247
  803SOL     OW 3307   2.532   2.518   3.463
  803SOL    HW1 3308   2.513   2.602   3.411
  803SOL    HW2 3309   2.578   2.452   3.403
  804SOL     OW 3310   4.850   7.008   2.718
  804SOL    HW1 3311   4.878   0.077   2.764
  804SOL    HW2 3312   4.900   6.931   2.757
  805SOL     OW 3313   3.452   1.519   4.054
  805SOL    HW1 3314   3.386   1.575   4.005
  805SOL    HW2 3315   3.504   1.464   3.988
  806SOL     OW 3316   3.703   6.201   6.217
  806SOL    HW1 3317   3.642   6.200   6.296
  806SOL    HW2 3318   3.682   6.122   6.159
  807SOL     OW 3319   1.756   5.938   6.389
  807SOL    HW1 3320   1.704   5.858   6.420
  807SOL    HW2 3321   1.700   5.993   6.328
  808SOL     OW 3322   5.309   2.236   6.082
  808SOL    HW1 3323   5.236   2.172   6.057
  808SOL    HW2 3324   5.325   2.300   6.007
  809SOL     OW 3325   3.394   6.585   6.257
  809SOL    HW1 3326   3.370   6.677   6.226
  809SOL    HW2 3327   3.444   6.537   6.185
  810SOL     OW 3328   3.966   3.904   0.084
  810SOL    HW1 3329   3.901   3.954   0.026
  810SOL    HW2 3330   3.924   3.821   0.118
  811SOL     OW 3331   5.567   5.679   4.204
  811SOL    HW1 3332   5.558   5.649   4.109
  811SOL    HW2 3333   5.583   5.778   4.206
  812SOL     OW 3334   0.983   3.091   1.149
  812SOL    HW1 3335   1.046   3.120   1.076
  812SOL    HW2 3336   1.031   3.094   1.237
  813SOL     OW 3337   3.107   1.871   4.837
  813SOL    HW1 3338   3.100   1.971   4.832
  813SOL    HW2 3339   3.166   1.845   4.914
  814SOL     OW 3340   0.360   4.780   1.613
  814SOL    HW1 3341   0.422   4.855   1.640
  814SOL    HW2 3342   0.308   4.750   1.693
  815SOL     OW 3343   4.717   1.005   3.669
  815SOL    HW1 3344   4.700   1.102   3.653
  815SOL    HW2 3345   4.646   0.968   3.729
  816SOL     OW 3346   5.130   3.849   6.355
  816SOL    HW1 3347   5.163   3.767   6.310
  816SOL    HW2 3348   5.030   3.847   6.359
  817SOL     OW 3349   6.913   5.302   6.442
  817SOL    HW1 3350   7.003   5.321   6.403
  817SOL    HW2 3351   6.891   5.372   6.510
  818SOL     OW 3352   6.751   1.121   5.581
  818SOL    HW1 3353   6.751   1.027   5.616
  818SOL    HW2 3354   6.766   1.119   5.482
  819SOL     OW 3355   5.666   3.431   1.647
  819SOL    HW1 3356   5.722   3.362   1.601
  819SOL    HW2 3357   5.691   3.435   1.744
  820SOL     OW 3358   2.400   1.923   5.602
  820SOL    HW1 3359   2.333   1.877   5.661
  820SOL    HW2 3360   2.490   1.882   5.616
  821SOL     OW 3361   5.146   3.323   6.302
  821SOL    HW1 3362   5.125   3.380   6.223
  821SOL    HW2 3363   5.067   3.265   6.323
  822SOL     OW 3364   6.862   4.654   3.336
  822SOL    HW1 3365   6.799   4.641   3.412
  822SOL    HW2 3366   6.826   4.723   3.273
  823SOL     OW 3367   2.262   2.936   4.319
  823SOL    HW1 3368   2.289   2.931   4.415
  823SOL    HW2 3369   2.240   3.031   4.296
  824SOL     OW 3370   5.428   0.457   6.653
  824SOL    HW1 3371   5.436   0.386   6.584
  824SOL    HW2 3372   5.375   0.423   6.730
  825SOL     OW 3373   6.249   5.390   0.797
  825SOL    HW1 3374   6.158   5.370   0.835
  825SOL    HW2 3375   6.311   5.314   0.817
  826SOL     OW 3376   3.785   1.973   0.350
  826SOL    HW1 3377   3.860   1.944   0.290
  826SOL    HW2 3378   3.749   2.060   0.318
  827SOL     OW 3379   3.605   3.311   5.100
  827SOL    HW1 3380   3.563   3.342   5.014
  827SOL    HW2 3381   3.544   3.246   5.145
  828SOL     OW 3382   1.034   6.464   6.101
  828SOL    HW1 3383   1.113   6.467   6.040
  828SOL    HW2 3384   1.048   6.526   6.178
  829SOL     OW 3385   3.895   3.343   1.722
  829SOL    HW1 3386   3.952   3.354   1.803
  829SOL    HW2 3387   3.802   3.374   1.742
  830SOL     OW 3388   6.792   4.073   5.554
  830SOL    HW1 3389   6.881   4.067   5.600
  830SOL    HW2 3390   6.724   4.111   5.619
  831SOL     OW 3391   5.883   1.263   3.160
  831SOL    HW1 3392   5.849   1.189   3.102
  831SOL    HW2 3393   5.810   1.295   3.220
  832SOL     OW 3394   3.070   2.137   4.800
  832SOL    HW1 3395   3.111   2.184   4.878
  832SOL    HW2 3396   2.971   2.131   4.814
  833SOL     OW 3397   4.246   3.040   0.013
  833SOL    HW1 3398   4.263   3.030   6.931
  833SOL    HW2 3399   4.150   3.062   0.028
  834SOL     OW 3400   5.960   3.187   0.549
  834SOL    HW1 3401   5.877   3.218   0.595
  834SOL    HW2 3402   5.996   3.260   0.491
  835SOL     OW 3403   6.797   6.662   5.451
  835SOL    HW1 3404   6.773   6.597   5.524
  835SOL    HW2 3405   6.896   6.676   5.449
  836SOL     OW 3406   5.718   7.000   3.918
  836SOL    HW1 3407   5.679   6.960   3.835
  836SOL    HW2 3408   5.644   0.017   3.977
  837SOL     OW 3409   1.360   0.506   6.460
  837SOL    HW1 3410   1.443   0.555   6.484
  837SOL    HW2 3411   1.379   0.443   6.385
  838SOL     OW 3412   1.651   5.592   3.152
  838SOL    HW1 3413   1.719   5.528   3.116
  838SOL    HW2 3414   1.563   5.545   3.162
  839SOL     OW 3415   1.148   2.519   0.304
  839SOL    HW1 3416   1.148   2.463   0.222
  839SOL    HW2 3417   1.055   2.549   0.325
  840SOL     OW 3418   4.467   5.403   0.218
  840SOL    HW1 3419   4.561   5.405   0.253
  840SOL    HW2 3420   4.468   5.417   0.119
  841SOL     OW 3421   2.816   5.255   6.373
  841SOL    HW1 3422   2.721   5.227   6.362
  841SOL    HW2 3423   2.820   5.354   6.388
  842SOL     OW 3424   4.478   6.699   0.916
  842SOL    HW1 3425   4.502   6.610   0.955
  842SOL    HW2 3426   4.551   6.764   0.934
  843SOL     OW 3427   1.234   0.589   2.025
  843SOL    HW1 3428   1.209   0.672   1.974
  843SOL    HW2 3429   1.320   0.604   2.074
  844SOL     OW 3430   6.677   6.658   1.518
  844SOL    HW1 3431   6.592   6.671   1.568
  844SOL    HW2 3432   6.753   6.652   1.583
  845SOL     OW 3433   3.930   1.377   1.706
  845SOL    HW1 3434   3.940   1.466   1.750
  845SOL    HW2 3435   3.850   1.330   1.743
  846SOL     OW 3436   1.508   1.447   1.324
  846SOL    HW1 3437   1.474   1.381   1.391
  846SOL    HW2 3438   1.606   1.435   1.312
  847SOL     OW 3439   2.450   3.295   1.195
  847SOL    HW1 3440   2.470   3.264   1.288
  847SOL    HW2 3441   2.396   3.379   1.199
  848SOL     OW 3442   6.609   6.018   0.743
  848SOL    HW1 3443   6.625   6.116   0.730
  848SOL    HW2 3444   6.526   6.004   0.797
  849SOL     OW 3445   5.086   2.970   6.401
  849SOL    HW1 3446   5.035   2.888   6.429
  849SOL    HW2 3447   5.160   2.943   6.339
  850SOL     OW 3448   1.790   1.309   4.495
  850SOL    HW1 3449   1.693   1.313   4.472
  850SOL    HW2 3450   1.843   1.353   4.423
  851SOL     OW 3451   4.938   2.419   6.215
  851SOL    HW1 3452   4.982   2.508   6.227
  851SOL    HW2 3453   4.948   2.389   6.121
  852SOL     OW 3454   6.795   5.312   1.852
  852SOL    HW1 3455   6.882   5.355   1.828
  852SOL    HW2 3456   6.723   5.381   1.857
  853SOL     OW 3457   3.149   2.864   0.767
  853SOL    HW1 3458   3.230   2.850   0.823
  853SOL    HW2 3459   3.159   2.816   0.680
  854SOL     OW 3460   0.216   6.993   5.990
  854SOL    HW1 3461   0.310   0.014   5.990
  854SOL    HW2 3462   0.161   0.030   6.055
  855SOL     OW 3463   4.911   1.857   6.979
  855SOL    HW1 3464   4.901   1.804   0.047
  855SOL    HW2 3465   5.003   1.844   6.942
  856SOL     OW 3466   1.984   5.551   1.567
  856SOL    HW1 3467   2.072   5.503   1.562
  856SOL    HW2 3468   1.982   5.609   1.648
  857SOL     OW 3469   6.925   6.074   5.140
  857SOL    HW1 3470   6.908   6.130   5.221
  857SOL    HW2 3471   6.839   6.057   5.092
  858SOL     OW 3472   3.393   4.037   0.259
  858SOL    HW1 3473   3.475   3.985   0.284
  858SOL    HW2 3474   3.335   3.982   0.200
  859SOL     OW 3475   4.427   5.579   5.472
  859SOL    HW1 3476   4.450   5.592   5.376
  859SOL    HW2 3477   4.434   5.482   5.496
  860SOL     OW 3478   4.315   2.798   6.180
  860SOL    HW1 3479   4.401   2.760   6.147
  860SOL    HW2 3480   4.328   2.894   6.204
  861SOL     OW 3481   0.798   5.764   2.615
  861SOL    HW1 3482   0.854   5.745   2.534
  861SOL    HW2 3483   0.771   5.860   2.615
  862SOL     OW 3484   0.927   4.143   4.027
  862SOL    HW1 3485   0.933   4.155   3.928
  862SOL    HW2 3486   0.877   4.059   4.048
  863SOL     OW 3487   5.532   0.869   1.470
  863SOL    HW1 3488   5.518   0.793   1.532
  863SOL    HW2 3489   5.540   0.835   1.376
  864SOL     OW 3490   5.759   5.294   2.988
  864SOL    HW1 3491   5.768   5.235   2.907
  864SOL    HW2 3492   5.795   5.246   3.068
  865SOL     OW 3493   1.065   5.173   4.654
  865SOL    HW1 3494   1.141   5.110   4.667
  865SOL    HW2 3495   1.049   5.187   4.556
  866SOL     OW 3496   3.753   6.715   1.517
  866SOL    HW1 3497   3.829   6.743   1.576
  866SOL    HW2 3498   3.755   6.768   1.433
  867SOL     OW 3499   6.224   3.621   5.296
  867SOL    HW1 3500   6.147   3.679   5.321
  867SOL    HW2 3501   6.207   3.579   5.207
  868SOL     OW 3502   0.776   1.578   2.334
  868SOL    HW1 3503   0.700   1.610   2.276
  868SOL    HW2 3504   0.860   1.625   2.307
  869SOL     OW 3505   0.431   3.112   2.414
  869SOL    HW1 3506   0.492   3.058   2.356
  869SOL    HW2 3507   0.337   3.079   2.402
  870SOL     OW 3508   3.913   4.887   2.224
  870SOL    HW1 3509   3.877   4.827   2.295
  870SOL    HW2 3510   3.838   4.938   2.181
  871SOL     OW 3511   4.365   1.675   3.602
  871SOL    HW1 3512   4.359   1.759   3.657
  871SOL    HW2 3513   4.462   1.651   3.588
  872SOL     OW 3514   1.191   2.264   4.975
  872SOL    HW1 3515   1.184   2.165   4.990
  872SOL    HW2 3516   1.102   2.300   4.949
  873SOL     OW 3517   4.048   6.942   6.357
  873SOL    HW1 3518   4.025   0.004   6.415
  873SOL    HW2 3519   4.099   6.874   6.410
  874SOL     OW 3520   6.312   3.959   1.957
  874SOL    HW1 3521   6.286   3.983   2.050
  874SOL    HW2 3522   6.273   4.026   1.893
  875SOL     OW 3523   5.301   5.868   2.573
  875SOL    HW1 3524   5.211   5.849   2.612
  875SOL    HW2 3525   5.332   5.958   2.604
  876SOL     OW 3526   6.518   1.023   6.465
  876SOL    HW1 3527   6.597   1.080   6.490
  876SOL    HW2 3528   6.531   0.930   6.499
  877SOL     OW 3529   1.295   3.336   6.915
  877SOL    HW1 3530   1.336   3.293   6.835
  877SOL    HW2 3531   1.358   3.403   6.954
  878SOL     OW 3532   3.944   6.491   4.420
  878SOL    HW1 3533   3.997   6.575   4.411
  878SOL    HW2 3534   3.904   6.468   4.332
  879SOL     OW 3535   5.631   6.711   6.256
  879SOL    HW1 3536   5.574   6.759   6.322
  879SOL    HW2 3537   5.695   6.651   6.304
  880SOL     OW 3538   3.184   3.430   2.971
  880SOL    HW1 3539   3.223   3.467   3.054
  880SOL    HW2 3540   3.105   3.485   2.943
  881SOL     OW 3541   4.227   2.057   0.487
  881SOL    HW1 3542   4.184   2.144   0.509
  881SOL    HW2 3543   4.323   2.058   0.512
  882SOL     OW 3544   1.884   2.981   3.471
  882SOL    HW1 3545   1.978   3.008   3.491
  882SOL    HW2 3546   1.884   2.904   3.407
  883SOL     OW 3547   2.533   6.311   3.104
  883SOL    HW1 3548   2.497   6.402   3.127
  883SOL    HW2 3549   2.593   6.279   3.176
  884SOL     OW 3550   2.689   3.271   6.136
  884SOL    HW1 3551   2.753   3.210   6.091
  884SOL    HW2 3552   2.731   3.310   6.218
  885SOL     OW 3553   4.060   3.010   6.372
  885SOL    HW1 3554   4.158   3.004   6.352
  885SOL    HW2 3555   4.029   3.104   6.363
  886SOL     OW 3556   3.642   1.087   6.992
  886SOL    HW1 3557   3.636   0.995   0.017
  886SOL    HW2 3558   3.738   1.109   6.975
  887SOL     OW 3559   4.353   1.036   5.496
  887SOL    HW1 3560   4.453   1.041   5.501
  887SOL    HW2 3561   4.313   1.108   5.552
  888SOL     OW 3562   0.243   6.483   1.724
  888SOL    HW1 3563   0.285   6.539   1.796
  888SOL    HW2 3564   0.200   6.543   1.657
  889SOL     OW 3565   0.140   3.840   0.620
  889SOL    HW1 3566   0.182   3.802   0.703
  889SOL    HW2 3567   0.043   3.813   0.617
  890SOL     OW 3568   2.119   6.122   4.565
  890SOL    HW1 3569   2.098   6.142   4.470
  890SOL    HW2 3570   2.125   6.208   4.617
  891SOL     OW 3571   4.816   4.494   2.321
  891SOL    HW1 3572   4.911   4.471   2.343
  891SOL    HW2 3573   4.755   4.438   2.377
  892SOL     OW 3574   2.455   4.282   0.770
  892SOL    HW1 3575   2.492   4.299   0.678
  892SOL    HW2 3576   2.361   4.250   0.763
  893SOL     OW 3577   1.584   5.297   2.863
  893SOL    HW1 3578   1.519   5.372   2.863
  893SOL    HW2 3579   1.661   5.320   2.922
  894SOL     OW 3580   0.863   4.545   1.042
  894SOL    HW1 3581   0.841   4.451   1.067
  894SOL    HW2 3582   0.912   4.589   1.118
  895SOL     OW 3583   6.945   4.943   3.934
  895SOL    HW1 3584   6.943   4.996   3.849
  895SOL    HW2 3585   6.999   4.860   3.920
  896SOL     OW 3586   0.270   0.910   6.706
  896SOL    HW1 3587   0.234   0.853   6.780
  896SOL    HW2 3588   0.272   0.856   6.621
  897SOL     OW 3589   5.274   1.076   0.898
  897SOL    HW1 3590   5.340   1.150   0.890
  897SOL    HW2 3591   5.182   1.112   0.883
  898SOL     OW 3592   3.944   0.878   2.788
  898SOL    HW1 3593   4.004   0.831   2.723
  898SOL    HW2 3594   3.849   0.869   2.758
  899SOL     OW 3595   6.396   6.175   6.769
  899SOL    HW1 3596   6.461   6.138   6.703
  899SOL    HW2 3597   6.393   6.275   6.761
  900SOL     OW 3598   5.133   5.281   0.217
  900SOL    HW1 3599   5.228   5.271   0.187
  900SOL    HW2 3600   5.114   5.218   0.291
  901SOL     OW 3601   1.154   0.405   3.516
  901SOL    HW1 3602   1.182   0.314   3.548
  901SOL    HW2 3603   1.094   0.447   3.584
  902SOL     OW 3604   6.596   3.285   1.730
  902SOL    HW1 3605   6.678   3.281   1.674
  902SOL    HW2 3606   6.621   3.286   1.826
  903SOL     OW 3607   0.206   1.296   0.934
  903SOL    HW1 3608   0.261   1.349   0.870
  903SOL    HW2 3609   0.175   1.355   1.008
  904SOL     OW 3610   2.543   1.155   3.183
  904SOL    HW1 3611   2.569   1.156   3.279
  904SOL    HW2 3612   2.467   1.217   3.168
  905SOL     OW 3613   6.313   1.936   6.140
  905SOL    HW1 3614   6.257   1.857   6.162
  905SOL    HW2 3615   6.410   1.912   6.149
  906SOL     OW 3616   5.221   3.018   0.382
  906SOL    HW1 3617   5.216   2.923   0.412
  906SOL    HW2 3618   5.309   3.035   0.338
  907SOL     OW 3619   5.200   4.340   6.265
  907SOL    HW1 3620   5.225   4.414   6.201
  907SOL    HW2 3621   5.252   4.351   6.350
  908SOL     OW 3622   0.690   4.329   3.663
  908SOL    HW1 3623   0.633   4.303   3.585
  908SOL    HW2 3624   0.748   4.252   3.690
  909SOL     OW 3625   5.362   5.770   6.060
  909SOL    HW1 3626   5.445   5.758   6.007
  909SOL    HW2 3627   5.303   5.690   6.048
  910SOL     OW 3628   3.459   4.594   0.449
  910SOL    HW1 3629   3.430   4.665   0.513
  910SOL    HW2 3630   3.475   4.509   0.498
  911SOL     OW 3631   1.319   4.407   5.434
  911SOL    HW1 3632   1.328   4.314   5.469
  911SOL    HW2 3633   1.388   4.423   5.363
  912SOL     OW 3634   4.988   1.658   4.760
  912SOL    HW1 3635   5.027   1.604   4.835
  912SOL    HW2 3636   4.895   1.627   4.742
  913SOL     OW 3637   4.695   6.633   2.962
  913SOL    HW1 3638   4.599   6.660   2.959
  913SOL    HW2 3639   4.737   6.649   2.873
  914SOL     OW 3640   3.205   6.523   6.006
  914SOL    HW1 3641   3.305   6.523   6.011
  914SOL    HW2 3642   3.173   6.434   5.974
  915SOL     OW 3643   5.473   5.714   1.452
  915SOL    HW1 3644   5.392   5.773   1.444
  915SOL    HW2 3645   5.446   5.619   1.437
  916SOL     OW 3646   1.193   3.267   2.986
  916SOL    HW1 3647   1.129   3.191   2.977
  916SOL    HW2 3648   1.283   3.232   3.011
  917SOL     OW 3649   0.570   6.812   6.714
  917SOL    HW1 3650   0.515   6.799   6.632
  917SOL    HW2 3651   0.663   6.839   6.688
  918SOL     OW 3652   3.617   6.365   6.975
  918SOL    HW1 3653   3.641   6.401   0.050
  918SOL    HW2 3654   3.522   6.389   6.954
  919SOL     OW 3655   4.452   0.681   5.935
  919SOL    HW1 3656   4.486   0.774   5.917
  919SOL    HW2 3657   4.368   0.666   5.884
  920SOL     OW 3658   3.120   4.876   1.778
  920SOL    HW1 3659   3.146   4.962   1.734
  920SOL    HW2 3660   3.197   4.841   1.831
  921SOL     OW 3661   4.792   5.888   4.933
  921SOL    HW1 3662   4.824   5.982   4.946
  921SOL    HW2 3663   4.766   5.850   5.022
  922SOL     OW 3664   3.249   3.699   3.422
  922SOL    HW1 3665   3.149   3.710   3.428
  922SOL    HW2 3666   3.291   3.733   3.506
  923SOL     OW 3667   2.477   3.521   5.846
  923SOL    HW1 3668   2.424   3.605   5.840
  923SOL    HW2 3669   2.574   3.542   5.831
  924SOL     OW 3670   0.230   3.209   1.237
  924SOL    HW1 3671   0.312   3.244   1.191
  924SOL    HW2 3672   0.157   3.277   1.229
  925SOL     OW 3673   0.678   1.043   6.692
  925SOL    HW1 3674   0.711   1.022   6.600
  925SOL    HW2 3675   0.673   1.142   6.704
  926SOL     OW 3676   2.090   1.714   1.385
  926SOL    HW1 3677   1.999   1.699   1.345
  926SOL    HW2 3678   2.087   1.794   1.445
  927SOL     OW 3679   6.595   3.412   4.468
  927SOL    HW1 3680   6.669   3.348   4.488
  927SOL    HW2 3681   6.509   3.376   4.503
  928SOL     OW 3682   2.951   5.307   5.466
  928SOL    HW1 3683   2.907   5.321   5.555
  928SOL    HW2 3684   2.883   5.316   5.393
  929SOL     OW 3685   0.691   1.821   4.739
  929SOL    HW1 3686   0.766   1.848   4.677
  929SOL    HW2 3687   0.674   1.895   4.804
  930SOL     OW 3688   5.776   5.426   4.613
  930SOL    HW1 3689   5.822   5.513   4.593
  930SOL    HW2 3690   5.678   5.437   4.601
  931SOL     OW 3691   6.026   0.390   3.482
  931SOL    HW1 3692   6.009   0.342   3.568
  931SOL    HW2 3693   6.059   0.325   3.413
  932SOL     OW 3694   3.527   0.444   3.599
  932SOL    HW1 3695   3.496   0.439   3.504
  932SOL    HW2 3696   3.448   0.438   3.660
  933SOL     OW 3697   0.966   5.454   1.561
  933SOL    HW1 3698   0.961   5.543   1.605
  933SOL    HW2 3699   0.907   5.453   1.480
  934SOL     OW 3700   1.825   2.822   0.185
  934SOL    HW1 3701   1.773   2.902   0.216
  934SOL    HW2 3702   1.867   2.778   0.264
  935SOL     OW 3703   5.625   2.664   5.723
  935SOL    HW1 3704   5.571   2.650   5.806
  935SOL    HW2 3705   5.694   2.735   5.739
  936SOL     OW 3706   1.887   0.560   5.907
  936SOL    HW1 3707   1.949   0.502   5.854
  936SOL    HW2 3708   1.924   0.574   5.998
  937SOL     OW 3709   3.339   2.450   6.348
  937SOL    HW1 3710   3.428   2.488   6.322
  937SOL    HW2 3711   3.296   2.409   6.267
  938SOL     OW 3712   4.989   6.584   4.883
  938SOL    HW1 3713   4.924   6.660   4.874
  938SOL    HW2 3714   4.952   6.503   4.837
  939SOL     OW 3715   1.517   0.091   5.162
  939SOL    HW1 3716   1.497   7.009   5.153
  939SOL    HW2 3717   1.611   0.109   5.132
  940SOL     OW 3718   1.826   5.518   0.673
  940SOL    HW1 3719   1.766   5.598   0.680
  940SOL    HW2 3720   1.775   5.442   0.632
  941SOL     OW 3721   4.000   6.651   1.052
  941SOL    HW1 3722   4.000   6.726   0.985
  941SOL    HW2 3723   4.071   6.668   1.120
  942SOL     OW 3724   6.881   5.237   7.015
  942SOL    HW1 3725   6.889   5.329   6.976
  942SOL    HW2 3726   6.901   5.239   0.097
  943SOL     OW 3727   3.619   5.682   1.009
  943SOL    HW1 3728   3.535   5.675   0.956
  943SOL    HW2 3729   3.684   5.743   0.962
  944SOL     OW 3730   6.952   6.052   3.171
  944SOL    HW1 3731   6.991   6.111   3.242
  944SOL    HW2 3732   6.951   5.957   3.203
  945SOL     OW 3733   1.138   5.624   6.645
  945SOL    HW1 3734   1.150   5.680   6.727
  945SOL    HW2 3735   1.204   5.651   6.576
  946SOL     OW 3736   5.639   1.899   4.019
  946SOL    HW1 3737   5.562   1.936   4.071
  946SOL    HW2 3738   5.724   1.919   4.067
  947SOL     OW 3739   3.924   3.938   2.419
  947SOL    HW1 3740   3.869   3.884   2.484
  947SOL    HW2 3741   4.021   3.927   2.440
  948SOL     OW 3742   3.479   1.221   3.771
  948SOL    HW1 3743   3.560   1.166   3.794
  948SOL    HW2 3744   3.422   1.230   3.853
  949SOL     OW 3745   2.979   0.298   5.763
  949SOL    HW1 3746   3.030   0.378   5.796
  949SOL    HW2 3747   2.910   0.327   5.697
  950SOL     OW 3748   6.722   6.957   1.870
  950SOL    HW1 3749   6.812   6.957   1.827
  950SOL    HW2 3750   6.711   6.874   1.925
  951SOL     OW 3751   1.178   0.146   2.971
  951SOL    HW1 3752   1.248   0.096   3.022
  951SOL    HW2 3753   1.156   0.097   2.887
  952SOL     OW 3754   3.707   1.675   3.187
  952SOL    HW1 3755   3.762   1.677   3.270
  952SOL    HW2 3756   3.610   1.666   3.212
  953SOL     OW 3757   0.903   5.654   5.818
  953SOL    HW1 3758   0.906   5.592   5.896
  953SOL    HW2 3759   0.970   5.727   5.830
  954SOL     OW 3760   4.408   6.493   2.389
  954SOL    HW1 3761   4.326   6.437   2.376
  954SOL    HW2 3762   4.430   6.497   2.486
  955SOL     OW 3763   2.532   5.054   1.003
  955SOL    HW1 3764   2.590   4.980   1.037
  955SOL    HW2 3765   2.576   5.099   0.925
  956SOL     OW 3766   3.660   0.523   0.961
  956SOL    HW1 3767   3.666   0.437   1.013
  956SOL    HW2 3768   3.574   0.525   0.910
  957SOL     OW 3769   5.897   6.609   3.427
  957SOL    HW1 3770   5.903   6.701   3.464
  957SOL    HW2 3771   5.825   6.558   3.475
  958SOL     OW 3772   5.574   6.041   2.199
  958SOL    HW1 3773   5.476   6.029   2.183
  958SOL    HW2 3774   5.589   6.121   2.257
  959SOL     OW 3775   4.985   0.215   2.846
  959SOL    HW1 3776   4.924   0.255   2.913
  959SOL    HW2 3777   5.040   0.288   2.804
  960SOL     OW 3778   1.776   6.094   5.976
  960SOL    HW1 3779   1.815   6.104   5.885
  960SOL    HW2 3780   1.849   6.098   6.044
  961SOL     OW 3781   4.141   1.289   3.516
  961SOL    HW1 3782   4.047   1.274   3.485
  961SOL    HW2 3783   4.161   1.387   3.514
  962SOL     OW 3784   0.281   0.032   4.481
  962SOL    HW1 3785   0.248   6.967   4.431
  962SOL    HW2 3786   0.359   0.005   4.537
  963SOL     OW 3787   5.703   2.811   1.487
  963SOL    HW1 3788   5.706   2.910   1.472
  963SOL    HW2 3789   5.787   2.769   1.451
  964SOL     OW 3790   3.386   6.514   4.876
  964SOL    HW1 3791   3.342   6.530   4.964
  964SOL    HW2 3792   3.319   6.526   4.803
  965SOL     OW 3793   4.748   2.117   3.974
  965SOL    HW1 3794   4.697   2.159   4.049
  965SOL    HW2 3795   4.788   2.187   3.916
  966SOL     OW 3796   5.441   0.894   3.463
  966SOL    HW1 3797   5.432   0.993   3.468
  966SOL    HW2 3798   5.409   0.862   3.374
  967SOL     OW 3799   4.130   5.025   5.901
  967SOL    HW1 3800   4.185   4.970   5.838
  967SOL    HW2 3801   4.183   5.105   5.929
  968SOL     OW 3802   3.675   0.685   1.199
  968SOL    HW1 3803   3.697   0.629   1.120
  968SOL    HW2 3804   3.607   0.753   1.174
  969SOL     OW 3805   2.772   3.492   6.748
  969SOL    HW1 3806   2.753   3.575   6.695
  969SOL    HW2 3807   2.853   3.447   6.711
  970SOL     OW 3808   4.445   6.779   5.230
  970SOL    HW1 3809   4.513   6.816   5.294
  970SOL    HW2 3810   4.356   6.772   5.276
  971SOL     OW 3811   5.263   3.248   3.560
  971SOL    HW1 3812   5.327   3.312   3.603
  971SOL    HW2 3813   5.182   3.239   3.618
  972SOL     OW 3814   0.766   2.030   0.922
  972SOL    HW1 3815   0.684   1.983   0.953
  972SOL    HW2 3816   0.780   2.112   0.977
  973SOL     OW 3817   6.888   2.670   4.674
  973SOL    HW1 3818   6.845   2.729   4.605
  973SOL    HW2 3819   6.881   2.714   4.763
  974SOL     OW 3820   0.349   3.092   2.112
  974SOL    HW1 3821   0.402   3.009   2.129
  974SOL    HW2 3822   0.356   3.118   2.016
  975SOL     OW 3823   2.663   0.441   1.951
  975SOL    HW1 3824   2.578   0.423   1.901
  975SOL    HW2 3825   2.738   0.390   1.909
  976SOL     OW 3826   0.202   2.634   3.741
  976SOL    HW1 3827   0.111   2.674   3.733
  976SOL    HW2 3828   0.251   2.677   3.817
  977SOL     OW 3829   5.919   1.149   2.278
  977SOL    HW1 3830   5.985   1.090   2.232
  977SOL    HW2 3831   5.887   1.219   2.215
  978SOL     OW 3832   4.745   2.804   0.846
  978SOL    HW1 3833   4.773   2.709   0.856
  978SOL    HW2 3834   4.815   2.863   0.887
  979SOL     OW 3835   0.307   4.943   6.413
  979SOL    HW1 3836   0.404   4.945   6.390
  979SOL    HW2 3837   0.292   4.877   6.486
  980SOL     OW 3838   4.304   1.283   4.245
  980SOL    HW1 3839   4.364   1.363   4.246
  980SOL    HW2 3840   4.276   1.263   4.151
  981SOL     OW 3841   0.936   6.071   5.425
  981SOL    HW1 3842   0.997   5.996   5.399
  981SOL    HW2 3843   0.941   6.143   5.355
  982SOL     OW 3844   0.159   0.751   6.913
  982SOL    HW1 3845   0.211   0.803   6.981
  982SOL    HW2 3846   0.201   0.660   6.901
  983SOL     OW 3847   0.274   3.634   3.062
  983SOL    HW1 3848   0.230   3.548   3.035
  983SOL    HW2 3849   0.373   3.620   3.066
  984SOL     OW 3850   0.486   3.376   3.750
  984SOL    HW1 3851   0.430   3.326   3.816
  984SOL    HW2 3852   0.564   3.418   3.796
  985SOL     OW 3853   5.745   5.668   4.799
  985SOL    HW1 3854   5.693   5.633   4.721
  985SOL    HW2 3855   5.705   5.632   4.884
  986SOL     OW 3856   3.579   5.637   1.732
  986SOL    HW1 3857   3.520   5.678   1.662
  986SOL    HW2 3858   3.663   5.691   1.740
  987SOL     OW 3859   4.595   4.574   4.566
  987SOL    HW1 3860   4.499   4.602   4.565
  987SOL    HW2 3861   4.605   4.490   4.620
  988SOL     OW 3862   3.001   4.771   2.052
  988SOL    HW1 3863   3.053   4.793   1.969
  988SOL    HW2 3864   2.930   4.704   2.030
  989SOL     OW 3865   0.206   2.650   1.167
  989SOL    HW1 3866   0.207   2.636   1.068
  989SOL    HW2 3867   0.282   2.709   1.193
  990SOL     OW 3868   3.617   0.286   5.041
  990SOL    HW1 3869   3.568   0.285   5.129
  990SOL    HW2 3870   3.710   0.252   5.054
  991SOL     OW 3871   0.834   5.951   4.018
  991SOL    HW1 3872   0.894   6.021   3.979
  991SOL    HW2 3873   0.776   5.914   3.946
  992SOL     OW 3874   6.521   2.684   0.189
  992SOL    HW1 3875   6.485   2.776   0.207
  992SOL    HW2 3876   6.553   2.643   0.274
  993SOL     OW 3877   1.908   4.917   6.608
  993SOL    HW1 3878   1.857   4.862   6.543
  993SOL    HW2 3879   1.996   4.944   6.568
  994SOL     OW 3880   2.802   0.114   1.575
  994SOL    HW1 3881   2.750   0.036   1.611
  994SOL    HW2 3882   2.738   0.181   1.537
  995SOL     OW 3883   5.757   4.028   5.457
  995SOL    HW1 3884   5.827   4.098   5.465
  995SOL    HW2 3885   5.691   4.055   5.387
  996SOL     OW 3886   4.161   6.478   5.239
  996SOL    HW1 3887   4.113   6.500   5.323
  996SOL    HW2 3888   4.124   6.533   5.164
  997SOL     OW 3889   1.437   6.307   3.211
  997SOL    HW1 3890   1.502   6.235   3.190
  997SOL    HW2 3891   1.346   6.268   3.224
  998SOL     OW 3892   4.435   6.871   0.509
  998SOL    HW1 3893   4.516   6.818   0.484
  998SOL    HW2 3894   4.438   6.893   0.606
  999SOL     OW 3895   5.523   2.999   2.232
  999SOL    HW1 3896   5.590   2.967   2.164
  999SOL    HW2 3897   5.508   2.927   2.300
 1000SOL     OW 3898   5.534   1.906   2.398
 1000SOL    HW1 3899   5.634   1.898   2.395
 1000SOL    HW2 3900   5.494   1.836   2.339
 1001SOL     OW 3901   2.729   6.575   2.872
 1001SOL    HW1 3902   2.827   6.565   2.891
 1001SOL    HW2 3903   2.684   6.615   2.952
 1002SOL     OW 3904   3.895   2.473   0.440
 1002SOL    HW1 3905   3.865   2.485   0.534
 1002SOL    HW2 3906   3.908   2.376   0.420
 1003SOL     OW 3907   0.608   0.745   3.518
 1003SOL    HW1 3908   0.604   0.712   3.612
 1003SOL    HW2 3909   0.648   0.674   3.459
 1004SOL     OW 3910   5.297   1.731   4.275
 1004SOL    HW1 3911   5.300   1.644   4.227
 1004SOL    HW2 3912   5.217   1.733   4.336
 1005SOL     OW 3913   0.612   5.282   1.406
 1005SOL    HW1 3914   0.518   5.285   1.373
 1005SOL    HW2 3915   0.639   5.187   1.421
 1006SOL     OW 3916   2.107   4.351   1.591
 1006SOL    HW1 3917   2.161   4.278   1.549
 1006SOL    HW2 3918   2.010   4.328   1.584
 1007SOL     OW 3919   4.930   0.971   6.556
 1007SOL    HW1 3920   4.838   0.994   6.587
 1007SOL    HW2 3921   4.925   0.913   6.475
 1008SOL     OW 3922   0.258   4.852   4.859
 1008SOL    HW1 3923   0.166   4.869   4.824
 1008SOL    HW2 3924   0.323   4.850   4.783
 1009SOL     OW 3925   6.389   5.832   6.495
 1009SOL    HW1 3926   6.365   5.771   6.570
 1009SOL    HW2 3927   6.315   5.898   6.481
 1010SOL     OW 3928   2.762   3.649   0.599
 1010SOL    HW1 3929   2.845   3.700   0.577
 1010SOL    HW2 3930   2.682   3.707   0.581
 1011SOL     OW 3931   0.016   4.991   2.422
 1011SOL    HW1 3932   6.995   5.024   2.334
 1011SOL    HW2 3933   0.065   5.065   2.467
 1012SOL     OW 3934   5.566   6.268   2.642
 1012SOL    HW1 3935   5.580   6.174   2.672
 1012SOL    HW2 3936   5.622   6.330   2.697
 1013SOL     OW 3937   0.811   0.762   6.099
 1013SOL    HW1 3938   0.860   0.748   6.013
 1013SOL    HW2 3939   0.876   0.789   6.170
 1014SOL     OW 3940   0.789   4.621   4.293
 1014SOL    HW1 3941   0.854   4.625   4.369
 1014SOL    HW2 3942   0.751   4.712   4.277
 1015SOL     OW 3943   2.942   6.552   6.856
 1015SOL    HW1 3944   3.008   6.528   6.785
 1015SOL    HW2 3945   2.921   6.650   6.851
 1016SOL     OW 3946   6.904   4.740   0.849
 1016SOL    HW1 3947   6.869   4.767   0.760
 1016SOL    HW2 3948   6.978   4.673   0.837
 1017SOL     OW 3949   2.140   1.255   2.570
 1017SOL    HW1 3950   2.226   1.287   2.608
 1017SOL    HW2 3951   2.092   1.198   2.637
 1018SOL     OW 3952   6.107   6.417   5.016
 1018SOL    HW1 3953   6.201   6.452   5.012
 1018SOL    HW2 3954   6.043   6.494   5.011
 1019SOL     OW 3955   6.194   4.037   1.155
 1019SOL    HW1 3956   6.224   4.022   1.249
 1019SOL    HW2 3957   6.152   3.953   1.120
 1020SOL     OW 3958   5.380   1.491   1.330
 1020SOL    HW1 3959   5.441   1.562   1.296
 1020SOL    HW2 3960   5.331   1.526   1.411
 1021SOL     OW 3961   1.602   6.714   0.747
 1021SOL    HW1 3962   1.603   6.814   0.746
 1021SOL    HW2 3963   1.600   6.681   0.842
 1022SOL     OW 3964   2.173   4.921   6.476
 1022SOL    HW1 3965   2.133   4.854   6.414
 1022SOL    HW2 3966   2.270   4.934   6.453
 1023SOL     OW 3967   1.046   1.586   2.200
 1023SOL    HW1 3968   1.022   1.502   2.151
 1023SOL    HW2 3969   1.061   1.660   2.135
 1024SOL     OW 3970   2.038   2.230   4.682
 1024SOL    HW1 3971   2.068   2.306   4.625
 1024SOL    HW2 3972   2.097   2.223   4.763
 1025SOL     OW 3973   4.552   4.277   1.271
 1025SOL    HW1 3974   4.593   4.355   1.319
 1025SOL    HW2 3975   4.478   4.309   1.212
 1026SOL     OW 3976   3.283   2.852   2.021
 1026SOL    HW1 3977   3.194   2.896   2.034
 1026SOL    HW2 3978   3.314   2.813   2.107
 1027SOL     OW 3979   6.565   6.842   0.154
 1027SOL    HW1 3980   6.538   6.886   0.239
 1027SOL    HW2 3981   6.597   6.911   0.089
 1028SOL     OW 3982   0.969   4.834   3.072
 1028SOL    HW1 3983   1.006   4.926   3.074
 1028SOL    HW2 3984   0.999   4.784   3.153
 1029SOL     OW 3985   0.487   0.689   4.962
 1029SOL    HW1 3986   0.433   0.744   5.025
 1029SOL    HW2 3987   0.570   0.658   5.008
 1030SOL     OW 3988   3.968   3.545   0.940
 1030SOL    HW1 3989   4.001   3.623   0.993
 1030SOL    HW2 3990   3.959   3.465   1.000
 1031SOL     OW 3991   3.983   2.931   0.656
 1031SOL    HW1 3992   3.963   2.842   0.699
 1031SOL    HW2 3993   4.082   2.944   0.653
 1032SOL     OW 3994   1.672   1.188   1.053
 1032SOL    HW1 3995   1.743   1.218   0.989
 1032SOL    HW2 3996   1.597   1.146   1.001
 1033SOL     OW 3997   6.722   0.059   2.144
 1033SOL    HW1 3998   6.741   0.057   2.045
 1033SOL    HW2 3999   6.663   0.137   2.165
 1034SOL     OW 4000   2.579   0.924   5.040
 1034SOL    HW1 4001   2.496   0.979   5.051
 1034SOL    HW2 4002   2.655   0.984   5.017
 1035SOL     OW 4003   1.545   0.555   0.126
 1035SOL    HW1 4004   1.636   0.515   0.138
 1035SOL    HW2 4005   1.496   0.554   0.213
 1036SOL     OW 4006   4.802   1.461   2.164
 1036SOL    HW1 4007   4.759   1.398   2.228
 1036SOL    HW2 4008   4.880   1.417   2.119
 1037SOL     OW 4009   1.813   3.621   2.998
 1037SOL    HW1 4010   1.772   3.670   2.921
 1037SOL    HW2 4011   1.804   3.676   3.081
 1038SOL     OW 4012   1.974   6.001   0.068
 1038SOL    HW1 4013   1.992   5.903   0.072
 1038SOL    HW2 4014   2.058   6.049   0.045
 1039SOL     OW 4015   3.077   3.859   2.927
 1039SOL    HW1 4016   3.030   3.775   2.955
 1039SOL    HW2 4017   3.106   3.910   3.008
 1040SOL     OW 4018   3.818   1.445   2.803
 1040SOL    HW1 4019   3.861   1.473   2.888
 1040SOL    HW2 4020   3.739   1.503   2.784
 1041SOL     OW 4021   6.663   6.624   6.517
 1041SOL    HW1 4022   6.754   6.584   6.510
 1041SOL    HW2 4023   6.613   6.610   6.432
 1042SOL     OW 4024   5.463   3.787   4.163
 1042SOL    HW1 4025   5.432   3.877   4.133
 1042SOL    HW2 4026   5.423   3.716   4.104
 1043SOL     OW 4027   2.627   1.967   3.944
 1043SOL    HW1 4028   2.657   1.927   3.857
 1043SOL    HW2 4029   2.542   2.017   3.930
 1044SOL     OW 4030   5.822   4.498   1.940
 1044SOL    HW1 4031   5.903   4.530   1.891
 1044SOL    HW2 4032   5.828   4.399   1.954
 1045SOL     OW 4033   2.333   0.620   2.501
 1045SOL    HW1 4034   2.425   0.594   2.472
 1045SOL    HW2 4035   2.277   0.537   2.512
 1046SOL     OW 4036   2.980   2.601   0.802
 1046SOL    HW1 4037   3.029   2.631   0.721
 1046SOL    HW2 4038   2.961   2.680   0.861
 1047SOL     OW 4039   3.481   0.789   3.375
 1047SOL    HW1 4040   3.537   0.723   3.424
 1047SOL    HW2 4041   3.536   0.830   3.301
 1048SOL     OW 4042   0.825   0.170   1.879
 1048SOL    HW1 4043   0.906   0.121   1.848
 1048SOL    HW2 4044   0.746   0.109   1.877
 1049SOL     OW 4045   3.502   6.679   0.504
 1049SOL    HW1 4046   3.489   6.719   0.414
 1049SOL    HW2 4047   3.424   6.703   0.563
 1050SOL     OW 4048   2.294   1.484   4.633
 1050SOL    HW1 4049   2.359   1.417   4.595
 1050SOL    HW2 4050   2.228   1.509   4.562
 1051SOL     OW 4051   1.818   1.949   5.527
 1051SOL    HW1 4052   1.727   1.991   5.533
 1051SOL    HW2 4053   1.862   1.952   5.616
 1052SOL     OW 4054   4.260   1.986   6.934
 1052SOL    HW1 4055   4.185   2.041   6.971
 1052SOL    HW2 4056   4.327   1.969   7.007
 1053SOL     OW 4057   5.019   2.804   4.107
 1053SOL    HW1 4058   4.944   2.763   4.057
 1053SOL    HW2 4059   5.005   2.903   4.112
 1054SOL     OW 4060   4.619   5.405   6.520
 1054SOL    HW1 4061   4.683   5.336   6.486
 1054SOL    HW2 4062   4.525   5.371   6.510
 1055SOL     OW 4063   5.280   5.674   6.624
 1055SOL    HW1 4064   5.275   5.689   6.525
 1055SOL    HW2 4065   5.371   5.698   6.656
 1056SOL     OW 4066   3.753   3.960   0.495
 1056SOL    HW1 4067   3.828   3.960   0.428
 1056SOL    HW2 4068   3.673   3.916   0.456
 1057SOL     OW 4069   3.256   3.322   6.492
 1057SOL    HW1 4070   3.214   3.379   6.562
 1057SOL    HW2 4071   3.277   3.379   6.412
 1058SOL     OW 4072   3.056   2.116   2.052
 1058SOL    HW1 4073   2.993   2.192   2.070
 1058SOL    HW2 4074   3.128   2.147   1.989
 1059SOL     OW 4075   2.113   6.243   2.241
 1059SOL    HW1 4076   2.078   6.159   2.201
 1059SOL    HW2 4077   2.213   6.247   2.229
 1060SOL     OW 4078   6.031   0.408   5.654
 1060SOL    HW1 4079   5.970   0.339   5.692
 1060SOL    HW2 4080   6.063   0.468   5.727
 1061SOL     OW 4081   0.058   3.896   6.241
 1061SOL    HW1 4082   0.121   3.973   6.244
 1061SOL    HW2 4083   0.076   3.834   6.317
 1062SOL     OW 4084   2.843   4.953   5.559
 1062SOL    HW1 4085   2.850   4.916   5.467
 1062SOL    HW2 4086   2.919   5.016   5.576
 1063SOL     OW 4087   2.931   6.203   3.937
 1063SOL    HW1 4088   2.897   6.162   3.853
 1063SOL    HW2 4089   2.919   6.139   4.013
 1064SOL     OW 4090   0.699   3.703   0.759
 1064SOL    HW1 4091   0.782   3.734   0.806
 1064SOL    HW2 4092   0.701   3.736   0.665
 1065SOL     OW 4093   6.163   1.128   5.126
 1065SOL    HW1 4094   6.168   1.132   5.026
 1065SOL    HW2 4095   6.256   1.122   5.163
 1066SOL     OW 4096   4.724   6.062   1.067
 1066SOL    HW1 4097   4.775   6.047   0.982
 1066SOL    HW2 4098   4.634   6.020   1.059
 1067SOL     OW 4099   2.961   1.134   0.083
 1067SOL    HW1 4100   2.908   1.054   0.110
 1067SOL    HW2 4101   3.049   1.133   0.131
 1068SOL     OW 4102   5.874   2.827   1.811
 1068SOL    HW1 4103   5.945   2.894   1.787
 1068SOL    HW2 4104   5.788   2.853   1.767
 1069SOL     OW 4105   6.947   2.826   2.569
 1069SOL    HW1 4106   6.859   2.837   2.524
 1069SOL    HW2 4107   6.935   2.828   2.668
 1070SOL     OW 4108   0.728   0.911   2.376
 1070SOL    HW1 4109   0.751   0.826   2.424
 1070SOL    HW2 4110   0.700   0.980   2.443
 1071SOL     OW 4111   0.642   2.894   6.397
 1071SOL    HW1 4112   0.693   2.918   6.314
 1071SOL    HW2 4113   0.686   2.935   6.477
 1072SOL     OW 4114   2.211   1.325   1.994
 1072SOL    HW1 4115   2.280   1.344   1.925
 1072SOL    HW2 4116   2.243   1.253   2.055
 1073SOL     OW 4117   5.684   2.133   3.015
 1073SOL    HW1 4118   5.593   2.101   2.990
 1073SOL    HW2 4119   5.739   2.056   3.048
 1074SOL     OW 4120   3.167   5.103   1.593
 1074SOL    HW1 4121   3.180   5.072   1.498
 1074SOL    HW2 4122   3.256   5.125   1.633
 1075SOL     OW 4123   6.117   4.011   4.785
 1075SOL    HW1 4124   6.152   3.923   4.815
 1075SOL    HW2 4125   6.186   4.057   4.728
 1076SOL     OW 4126   2.078   4.109   5.197
 1076SOL    HW1 4127   2.157   4.092   5.139
 1076SOL    HW2 4128   2.017   4.029   5.195
 1077SOL     OW 4129   6.778   6.301   0.437
 1077SOL    HW1 4130   6.759   6.294   0.339
 1077SOL    HW2 4131   6.864   6.350   0.451
 1078SOL     OW 4132   5.704   6.443   4.392
 1078SOL    HW1 4133   5.715   6.373   4.322
 1078SOL    HW2 4134   5.755   6.416   4.474
 1079SOL     OW 4135   0.944   6.651   1.103
 1079SOL    HW1 4136   0.854   6.611   1.087
 1079SOL    HW2 4137   1.011   6.606   1.043
 1080SOL     OW 4138   4.515   5.880   0.545
 1080SOL    HW1 4139   4.521   5.898   0.447
 1080SOL    HW2 4140   4.446   5.810   0.562
 1081SOL     OW 4141   0.112   6.471   3.420
 1081SOL    HW1 4142   0.100   6.490   3.323
 1081SOL    HW2 4143   0.028   6.494   3.470
 1082SOL     OW 4144   4.539   6.958   0.067
 1082SOL    HW1 4145   4.446   6.938   0.039
 1082SOL    HW2 4146   4.538   0.016   0.136
 1083SOL     OW 4147   5.837   4.172   2.388
 1083SOL    HW1 4148   5.796   4.216   2.308
 1083SOL    HW2 4149   5.781   4.191   2.468
 1084SOL     OW 4150   4.912   0.687   5.250
 1084SOL    HW1 4151   4.823   0.727   5.273
 1084SOL    HW2 4152   4.947   0.730   5.166
 1085SOL     OW 4153   1.506   3.083   5.189
 1085SOL    HW1 4154   1.484   3.134   5.106
 1085SOL    HW2 4155   1.492   3.142   5.269
 1086SOL     OW 4156   5.840   5.075   1.815
 1086SOL    HW1 4157   5.782   5.152   1.839
 1086SOL    HW2 4158   5.807   4.992   1.860
 1087SOL     OW 4159   3.600   0.494   6.255
 1087SOL    HW1 4160   3.567   0.405   6.224
 1087SOL    HW2 4161   3.554   0.520   6.339
 1088SOL     OW 4162   6.640   5.053   4.502
 1088SOL    HW1 4163   6.571   4.986   4.529
 1088SOL    HW2 4164   6.724   5.005   4.476
 1089SOL     OW 4165   6.012   5.261   4.071
 1089SOL    HW1 4166   6.110   5.260   4.091
 1089SOL    HW2 4167   5.962   5.223   4.148
 1090SOL     OW 4168   5.563   2.617   5.167
 1090SOL    HW1 4169   5.589   2.710   5.144
 1090SOL    HW2 4170   5.591   2.597   5.261
 1091SOL     OW 4171   2.018   3.422   2.809
 1091SOL    HW1 4172   2.030   3.463   2.899
 1091SOL    HW2 4173   1.928   3.377   2.804
 1092SOL     OW 4174   0.988   6.436   0.519
 1092SOL    HW1 4175   1.072   6.393   0.551
 1092SOL    HW2 4176   0.959   6.506   0.584
 1093SOL     OW 4177   1.449   0.665   3.085
 1093SOL    HW1 4178   1.464   0.740   3.021
 1093SOL    HW2 4179   1.425   0.702   3.175
 1094SOL     OW 4180   0.249   6.761   2.961
 1094SOL    HW1 4181   0.158   6.758   2.920
 1094SOL    HW2 4182   0.316   6.727   2.895
 1095SOL     OW 4183   6.165   3.854   0.641
 1095SOL    HW1 4184   6.190   3.897   0.554
 1095SOL    HW2 4185   6.071   3.821   0.637
 1096SOL     OW 4186   2.023   6.035   2.083
 1096SOL    HW1 4187   1.929   6.013   2.057
 1096SOL    HW2 4188   2.075   6.058   2.001
 1097SOL     OW 4189   2.893   6.143   4.461
 1097SOL    HW1 4190   2.805   6.106   4.433
 1097SOL    HW2 4191   2.963   6.117   4.394
 1098SOL     OW 4192   6.748   4.157   0.050
 1098SOL    HW1 4193   6.704   4.116   0.130
 1098SOL    HW2 4194   6.678   4.190   7.002
 1099SOL     OW 4195   5.420   0.626   6.277
 1099SOL    HW1 4196   5.413   0.528   6.296
 1099SOL    HW2 4197   5.362   0.677   6.341
 1100SOL     OW 4198   4.734   1.628   4.650
 1100SOL    HW1 4199   4.687   1.543   4.625
 1100SOL    HW2 4200   4.668   1.691   4.692
 1101SOL     OW 4201   5.118   2.660   6.453
 1101SOL    HW1 4202   5.097   2.565   6.479
 1101SOL    HW2 4203   5.157   2.708   6.532
 1102SOL     OW 4204   2.853   0.656   3.825
 1102SOL    HW1 4205   2.915   0.612   3.761
 1102SOL    HW2 4206   2.760   0.621   3.811
 1103SOL     OW 4207   3.183   5.996   0.809
 1103SOL    HW1 4208   3.244   6.010   0.887
 1103SOL    HW2 4209   3.226   5.934   0.743
 1104SOL     OW 4210   6.804   1.875   3.943
 1104SOL    HW1 4211   6.733   1.885   4.013
 1104SOL    HW2 4212   6.889   1.915   3.976
 1105SOL     OW 4213   4.876   0.698   6.426
 1105SOL    HW1 4214   4.914   0.755   6.353
 1105SOL    HW2 4215   4.950   0.650   6.472
 1106SOL     OW 4216   6.092   1.996   1.540
 1106SOL    HW1 4217   6.086   1.903   1.575
 1106SOL    HW2 4218   6.010   2.018   1.488
 1107SOL     OW 4219   1.149   1.805   0.461
 1107SOL    HW1 4220   1.154   1.826   0.363
 1107SOL    HW2 4221   1.082   1.865   0.504
 1108SOL     OW 4222   2.606   1.473   3.481
 1108SOL    HW1 4223   2.592   1.428   3.393
 1108SOL    HW2 4224   2.565   1.563   3.480
 1109SOL     OW 4225   4.986   1.844   5.255
 1109SOL    HW1 4226   4.931   1.771   5.296
 1109SOL    HW2 4227   5.023   1.812   5.168
 1110SOL     OW 4228   1.376   0.849   2.524
 1110SOL    HW1 4229   1.340   0.853   2.617
 1110SOL    HW2 4230   1.301   0.845   2.459
 1111SOL     OW 4231   5.581   3.156   6.190
 1111SOL    HW1 4232   5.504   3.218   6.174
 1111SOL    HW2 4233   5.632   3.187   6.270
 1112SOL     OW 4234   5.923   0.654   2.629
 1112SOL    HW1 4235   5.855   0.611   2.688
 1112SOL    HW2 4236   5.989   0.703   2.685
 1113SOL     OW 4237   6.351   2.830   3.115
 1113SOL    HW1 4238   6.330   2.926   3.095
 1113SOL    HW2 4239   6.421   2.797   3.051
 1114SOL     OW 4240   3.484   3.372   4.863
 1114SOL    HW1 4241   3.461   3.291   4.808
 1114SOL    HW2 4242   3.488   3.453   4.805
 1115SOL     OW 4243   1.949   4.960   5.835
 1115SOL    HW1 4244   1.980   5.053   5.853
 1115SOL    HW2 4245   1.931   4.950   5.737
 1116SOL     OW 4246   4.126   0.056   0.365
 1116SOL    HW1 4247   4.070   0.105   0.298
 1116SOL    HW2 4248   4.221   0.054   0.334
 1117SOL     OW 4249   1.879   2.434   1.740
 1117SOL    HW1 4250   1.956   2.398   1.688
 1117SOL    HW2 4251   1.837   2.509   1.689
 1118SOL     OW 4252   4.651   6.711   0.414
 1118SOL    HW1 4253   4.705   6.748   0.489
 1118SOL    HW2 4254   4.687   6.621   0.388
 1119SOL     OW 4255   2.948   5.298   3.863
 1119SOL    HW1 4256   3.045   5.320   3.854
 1119SOL    HW2 4257   2.912   5.267   3.774
 1120SOL     OW 4258   6.752   3.398   1.349
 1120SOL    HW1 4259   6.752   3.498   1.348
 1120SOL    HW2 4260   6.786   3.364   1.437
 1121SOL     OW 4261   6.214   4.590   5.591
 1121SOL    HW1 4262   6.148   4.520   5.566
 1121SOL    HW2 4263   6.307   4.553   5.582
 1122SOL     OW 4264   5.797   1.459   1.843
 1122SOL    HW1 4265   5.875   1.488   1.787
 1122SOL    HW2 4266   5.712   1.473   1.792
 1123SOL     OW 4267   4.072   1.838   4.473
 1123SOL    HW1 4268   4.095   1.782   4.552
 1123SOL    HW2 4269   3.996   1.797   4.423
 1124SOL     OW 4270   2.344   2.800   3.776
 1124SOL    HW1 4271   2.409   2.726   3.758
 1124SOL    HW2 4272   2.348   2.827   3.872
 1125SOL     OW 4273   1.291   3.089   3.785
 1125SOL    HW1 4274   1.203   3.043   3.772
 1125SOL    HW2 4275   1.282   3.186   3.759
 1126SOL     OW 4276   4.204   4.800   4.048
 1126SOL    HW1 4277   4.178   4.735   3.976
 1126SOL    HW2 4278   4.194   4.893   4.015
 1127SOL     OW 4279   6.213   6.911   1.231
 1127SOL    HW1 4280   6.264   6.860   1.300
 1127SOL    HW2 4281   6.161   6.848   1.175
 1128SOL     OW 4282   4.199   1.496   4.741
 1128SOL    HW1 4283   4.136   1.428   4.779
 1128SOL    HW2 4284   4.232   1.464   4.652
 1129SOL     OW 4285   1.199   0.834   0.177
 1129SOL    HW1 4286   1.292   0.825   0.212
 1129SOL    HW2 4287   1.139   0.868   0.249
 1130SOL     OW 4288   2.021   5.409   2.170
 1130SOL    HW1 4289   1.957   5.347   2.215
 1130SOL    HW2 4290   2.114   5.374   2.179
 1131SOL     OW 4291   1.709   5.270   3.719
 1131SOL    HW1 4292   1.677   5.318   3.637
 1131SOL    HW2 4293   1.801   5.303   3.743
 1132SOL     OW 4294   1.341   1.679   2.909
 1132SOL    HW1 4295   1.279   1.746   2.871
 1132SOL    HW2 4296   1.399   1.722   2.979
 1133SOL     OW 4297   1.249   6.474   6.628
 1133SOL    HW1 4298   1.345   6.463   6.654
 1133SOL    HW2 4299   1.243   6.517   6.538
 1134SOL     OW 4300   4.609   5.585   0.710
 1134SOL    HW1 4301   4.664   5.506   0.685
 1134SOL    HW2 4302   4.512   5.564   0.696
 1135SOL     OW 4303   1.542   0.278   3.237
 1135SOL    HW1 4304   1.578   0.295   3.329
 1135SOL    HW2 4305   1.582   0.343   3.173
 1136SOL     OW 4306   1.752   5.029   2.419
 1136SOL    HW1 4307   1.707   5.096   2.359
 1136SOL    HW2 4308   1.746   5.060   2.514
 1137SOL     OW 4309   0.687   5.446   4.338
 1137SOL    HW1 4310   0.611   5.470   4.399
 1137SOL    HW2 4311   0.770   5.435   4.392
 1138SOL     OW 4312   1.652   3.721   5.133
 1138SOL    HW1 4313   1.707   3.666   5.196
 1138SOL    HW2 4314   1.667   3.689   5.039
 1139SOL     OW 4315   2.507   5.690   5.225
 1139SOL    HW1 4316   2.574   5.663   5.156
 1139SOL    HW2 4317   2.535   5.654   5.314
 1140SOL     OW 4318   2.148   2.238   1.690
 1140SOL    HW1 4319   2.186   2.157   1.735
 1140SOL    HW2 4320   2.188   2.320   1.731
 1141SOL     OW 4321   6.175   5.134   5.368
 1141SOL    HW1 4322   6.203   5.154   5.275
 1141SOL    HW2 4323   6.250   5.152   5.431
 1142SOL     OW 4324   1.137   5.715   2.789
 1142SOL    HW1 4325   1.076   5.637   2.806
 1142SOL    HW2 4326   1.190   5.699   2.706
 1143SOL     OW 4327   0.070   4.483   1.668
 1143SOL    HW1 4328   0.094   4.461   1.763
 1143SOL    HW2 4329   6.988   4.503   1.661
 1144SOL     OW 4330   4.897   4.213   0.623
 1144SOL    HW1 4331   4.882   4.174   0.713
 1144SOL    HW2 4332   4.956   4.294   0.630
 1145SOL     OW 4333   6.298   0.384   0.568
 1145SOL    HW1 4334   6.308   0.483   0.583
 1145SOL    HW2 4335   6.244   0.369   0.485
 1146SOL     OW 4336   1.504   1.004   1.263
 1146SOL    HW1 4337   1.489   1.095   1.224
 1146SOL    HW2 4338   1.546   1.014   1.354
 1147SOL     OW 4339   1.871   6.521   1.150
 1147SOL    HW1 4340   1.935   6.578   1.201
 1147SOL    HW2 4341   1.794   6.495   1.209
 1148SOL     OW 4342   3.827   6.074   2.331
 1148SOL    HW1 4343   3.737   6.047   2.365
 1148SOL    HW2 4344   3.885   6.102   2.408
 1149SOL     OW 4345   5.099   2.586   1.680
 1149SOL    HW1 4346   5.141   2.580   1.770
 1149SOL    HW2 4347   5.005   2.618   1.689
 1150SOL     OW 4348   0.727   2.762   1.030
 1150SOL    HW1 4349   0.810   2.716   1.061
 1150SOL    HW2 4350   0.747   2.858   1.012
 1151SOL     OW 4351   5.466   5.328   4.367
 1151SOL    HW1 4352   5.448   5.254   4.432
 1151SOL    HW2 4353   5.560   5.320   4.333
 1152SOL     OW 4354   3.513   6.479   6.038
 1152SOL    HW1 4355   3.515   6.416   5.961
 1152SOL    HW2 4356   3.605   6.487   6.077
 1153SOL     OW 4357   5.920   6.889   1.346
 1153SOL    HW1 4358   5.851   6.956   1.319
 1153SOL    HW2 4359   5.968   6.922   1.428
 1154SOL     OW 4360   1.705   3.181   0.631
 1154SOL    HW1 4361   1.771   3.115   0.668
 1154SOL    HW2 4362   1.614   3.139   0.627
 1155SOL     OW 4363   3.537   5.926   3.335
 1155SOL    HW1 4364   3.621   5.979   3.319
 1155SOL    HW2 4365   3.551   5.866   3.414
 1156SOL     OW 4366   2.910   1.463   1.941
 1156SOL    HW1 4367   2.854   1.445   1.861
 1156SOL    HW2 4368   2.990   1.517   1.915
 1157SOL     OW 4369   2.652   2.036   0.547
 1157SOL    HW1 4370   2.713   1.988   0.610
 1157SOL    HW2 4371   2.642   2.132   0.575
 1158SOL     OW 4372   5.452   4.553   3.850
 1158SOL    HW1 4373   5.540   4.578   3.891
 1158SOL    HW2 4374   5.378   4.574   3.913
 1159SOL     OW 4375   5.995   4.571   0.671
 1159SOL    HW1 4376   5.930   4.589   0.745
 1159SOL    HW2 4377   5.991   4.646   0.605
 1160SOL     OW 4378   4.751   2.200   0.300
 1160SOL    HW1 4379   4.817   2.193   0.374
 1160SOL    HW2 4380   4.704   2.113   0.289
 1161SOL     OW 4381   6.470   5.180   0.866
 1161SOL    HW1 4382   6.476   5.160   0.964
 1161SOL    HW2 4383   6.520   5.111   0.815
 1162SOL     OW 4384   2.663   2.437   4.566
 1162SOL    HW1 4385   2.735   2.497   4.531
 1162SOL    HW2 4386   2.695   2.342   4.567
 1163SOL     OW 4387   5.372   2.144   1.901
 1163SOL    HW1 4388   5.296   2.083   1.882
 1163SOL    HW2 4389   5.433   2.103   1.969
 1164SOL     OW 4390   4.541   2.017   5.714
 1164SOL    HW1 4391   4.454   2.055   5.743
 1164SOL    HW2 4392   4.598   1.998   5.794
 1165SOL     OW 4393   4.705   0.007   3.264
 1165SOL    HW1 4394   4.709   6.922   3.261
 1165SOL    HW2 4395   4.611   0.036   3.284
 1166SOL     OW 4396   3.428   4.227   6.222
 1166SOL    HW1 4397   3.498   4.233   6.295
 1166SOL    HW2 4398   3.359   4.298   6.236
 1167SOL     OW 4399   5.042   4.625   3.154
 1167SOL    HW1 4400   4.967   4.568   3.189
 1167SOL    HW2 4401   5.077   4.682   3.229
 1168SOL     OW 4402   0.503   0.216   1.305
 1168SOL    HW1 4403   0.473   0.145   1.369
 1168SOL    HW2 4404   0.597   0.197   1.275
 1169SOL     OW 4405   4.703   1.954   5.323
 1169SOL    HW1 4406   4.638   1.952   5.247
 1169SOL    HW2 4407   4.792   1.985   5.289
 1170SOL     OW 4408   5.103   5.013   2.623
 1170SOL    HW1 4409   5.132   5.109   2.621
 1170SOL    HW2 4410   5.037   4.999   2.697
 1171SOL     OW 4411   0.098   6.280   0.889
 1171SOL    HW1 4412   0.181   6.247   0.934
 1171SOL    HW2 4413   0.046   6.336   0.952
 1172SOL     OW 4414   5.942   3.078   6.783
 1172SOL    HW1 4415   5.967   3.037   6.696
 1172SOL    HW2 4416   6.024   3.105   6.833
 1173SOL     OW 4417   3.880   2.701   0.781
 1173SOL    HW1 4418   3.849   2.731   0.871
 1173SOL    HW2 4419   3.811   2.640   0.741
 1174SOL     OW 4420   2.332   4.956   0.306
 1174SOL    HW1 4421   2.310   4.896   0.229
 1174SOL    HW2 4422   2.420   4.929   0.345
 1175SOL     OW 4423   3.157   3.465   4.232
 1175SOL    HW1 4424   3.090   3.403   4.191
 1175SOL    HW2 4425   3.149   3.555   4.191
 1176SOL     OW 4426   5.381   3.003   6.442
 1176SOL    HW1 4427   5.317   3.079   6.454
 1176SOL    HW2 4428   5.363   2.933   6.510
 1177SOL     OW 4429   1.193   1.994   5.070
 1177SOL    HW1 4430   1.277   1.954   5.105
 1177SOL    HW2 4431   1.185   1.975   4.972
 1178SOL     OW 4432   4.443   6.635   0.200
 1178SOL    HW1 4433   4.519   6.619   0.136
 1178SOL    HW2 4434   4.480   6.665   0.288
 1179SOL     OW 4435   0.179   5.804   0.189
 1179SOL    HW1 4436   0.200   5.713   0.152
 1179SOL    HW2 4437   0.231   5.819   0.272
 1180SOL     OW 4438   3.708   5.982   0.695
 1180SOL    HW1 4439   3.776   6.047   0.662
 1180SOL    HW2 4440   3.650   5.954   0.620
 1181SOL     OW 4441   6.774   6.292   6.713
 1181SOL    HW1 4442   6.694   6.345   6.742
 1181SOL    HW2 4443   6.811   6.331   6.629
 1182SOL     OW 4444   4.969   3.965   3.131
 1182SOL    HW1 4445   4.926   4.033   3.191
 1182SOL    HW2 4446   5.065   3.990   3.116
 1183SOL     OW 4447   1.813   4.308   6.929
 1183SOL    HW1 4448   1.728   4.304   6.981
 1183SOL    HW2 4449   1.834   4.404   6.905
 1184SOL     OW 4450   0.083   0.689   5.458
 1184SOL    HW1 4451   0.004   0.691   5.519
 1184SOL    HW2 4452   0.097   0.595   5.425
 1185SOL     OW 4453   6.187   1.538   6.771
 1185SOL    HW1 4454   6.269   1.593   6.788
 1185SOL    HW2 4455   6.212   1.441   6.770
 1186SOL     OW 4456   5.468   6.986   4.787
 1186SOL    HW1 4457   5.524   0.049   4.813
 1186SOL    HW2 4458   5.437   6.938   4.869
 1187SOL     OW 4459   6.565   1.827   6.237
 1187SOL    HW1 4460   6.634   1.842   6.308
 1187SOL    HW2 4461   6.578   1.736   6.197
 1188SOL     OW 4462   3.656   1.636   6.752
 1188SOL    HW1 4463   3.652   1.711   6.818
 1188SOL    HW2 4464   3.620   1.667   6.664
 1189SOL     OW 4465   5.540   3.265   3.618
 1189SOL    HW1 4466   5.636   3.257   3.648
 1189SOL    HW2 4467   5.491   3.182   3.644
 1190SOL     OW 4468   3.006   6.854   3.794
 1190SOL    HW1 4469   2.952   6.922   3.744
 1190SOL    HW2 4470   2.999   6.871   3.892
 1191SOL     OW 4471   3.714   6.560   2.876
 1191SOL    HW1 4472   3.634   6.533   2.822
 1191SOL    HW2 4473   3.693   6.551   2.973
 1192SOL     OW 4474   6.103   5.667   3.604
 1192SOL    HW1 4475   6.111   5.672   3.703
 1192SOL    HW2 4476   6.030   5.729   3.573
 1193SOL     OW 4477   6.748   5.875   4.712
 1193SOL    HW1 4478   6.735   5.955   4.653
 1193SOL    HW2 4479   6.668   5.863   4.770
 1194SOL     OW 4480   3.653   0.043   1.074
 1194SOL    HW1 4481   3.559   0.009   1.065
 1194SOL    HW2 4482   3.687   0.070   0.984
 1195SOL     OW 4483   5.110   2.358   3.213
 1195SOL    HW1 4484   5.194   2.393   3.255
 1195SOL    HW2 4485   5.099   2.398   3.122
 1196SOL     OW 4486   0.073   6.766   5.110
 1196SOL    HW1 4487   0.148   6.717   5.066
 1196SOL    HW2 4488   7.007   6.761   5.053
 1197SOL     OW 4489   1.931   6.151   0.338
 1197SOL    HW1 4490   1.966   6.121   0.249
 1197SOL    HW2 4491   1.994   6.218   0.377
 1198SOL     OW 4492   1.701   2.368   0.023
 1198SOL    HW1 4493   1.792   2.406   0.001
 1198SOL    HW2 4494   1.701   2.270   0.006
 1199SOL     OW 4495   6.278   3.733   1.809
 1199SOL    HW1 4496   6.280   3.650   1.864
 1199SOL    HW2 4497   6.265   3.812   1.868
 1200SOL     OW 4498   3.464   4.166   2.757
 1200SOL    HW1 4499   3.513   4.122   2.681
 1200SOL    HW2 4500   3.513   4.248   2.785
 1201SOL     OW 4501   1.267   1.941   4.786
 1201SOL    HW1 4502   1.311   2.007   4.725
 1201SOL    HW2 4503   1.243   1.859   4.734
 1202SOL     OW 4504   1.185   5.428   4.887
 1202SOL    HW1 4505   1.154   5.491   4.815
 1202SOL    HW2 4506   1.284   5.417   4.882
 1203SOL     OW 4507   3.556   6.233   5.313
 1203SOL    HW1 4508   3.639   6.190   5.275
 1203SOL    HW2 4509   3.560   6.331   5.297
 1204SOL     OW 4510   1.760   7.010   3.127
 1204SOL    HW1 4511   1.758   6.914   3.099
 1204SOL    HW2 4512   1.770   0.052   3.046
 1205SOL     OW 4513   5.789   3.874   2.061
 1205SOL    HW1 4514   5.701   3.921   2.067
 1205SOL    HW2 4515   5.816   3.840   2.151
 1206SOL     OW 4516   3.344   3.563   4.695
 1206SOL    HW1 4517   3.279   3.523   4.630
 1206SOL    HW2 4518   3.305   3.647   4.733
 1207SOL     OW 4519   1.351   5.981   2.676
 1207SOL    HW1 4520   1.274   5.974   2.740
 1207SOL    HW2 4521   1.436   5.965   2.725
 1208SOL     OW 4522   3.283   3.489   6.274
 1208SOL    HW1 4523   3.232   3.566   6.236
 1208SOL    HW2 4524   3.280   3.412   6.210
 1209SOL     OW 4525   3.806   6.623   5.070
 1209SOL    HW1 4526   3.787   6.646   5.165
 1209SOL    HW2 4527   3.760   6.538   5.046
 1210SOL     OW 4528   3.630   0.926   2.814
 1210SOL    HW1 4529   3.671   0.897   2.728
 1210SOL    HW2 4530   3.596   1.019   2.806
 1211SOL     OW 4531   0.756   2.861   0.413
 1211SOL    HW1 4532   0.693   2.936   0.391
 1211SOL    HW2 4533   0.764   2.800   0.334
 1212SOL     OW 4534   1.298   0.235   0.191
 1212SOL    HW1 4535   1.392   0.202   0.184
 1212SOL    HW2 4536   1.235   0.160   0.172
 1213SOL     OW 4537   5.421   3.201   1.463
 1213SOL    HW1 4538   5.376   3.287   1.441
 1213SOL    HW2 4539   5.357   3.125   1.448
 1214SOL     OW 4540   0.209   2.670   2.247
 1214SOL    HW1 4541   0.233   2.690   2.342
 1214SOL    HW2 4542   0.243   2.579   2.222
 1215SOL     OW 4543   2.053   6.067   2.839
 1215SOL    HW1 4544   2.001   6.034   2.760
 1215SOL    HW2 4545   2.149   6.045   2.827
 1216SOL     OW 4546   3.784   6.972   1.689
 1216SOL    HW1 4547   3.721   7.003   1.618
 1216SOL    HW2 4548   3.731   6.928   1.762
 1217SOL     OW 4549   2.821   4.314   6.747
 1217SOL    HW1 4550   2.864   4.341   6.833
 1217SOL    HW2 4551   2.745   4.252   6.766
 1218SOL     OW 4552   2.454   4.836   3.565
 1218SOL    HW1 4553   2.446   4.840   3.664
 1218SOL    HW2 4554   2.460   4.929   3.528
 1219SOL     OW 4555   3.809   5.920   2.019
 1219SOL    HW1 4556   3.772   5.900   1.929
 1219SOL    HW2 4557   3.804   6.018   2.037
 1220SOL     OW 4558   0.850   4.609   2.017
 1220SOL    HW1 4559   0.759   4.572   2.038
 1220SOL    HW2 4560   0.916   4.534   2.012
 1221SOL     OW 4561   4.153   4.451   6.317
 1221SOL    HW1 4562   4.068   4.483   6.274
 1221SOL    HW2 4563   4.165   4.354   6.299
 1222SOL     OW 4564   6.651   0.773   6.446
 1222SOL    HW1 4565   6.707   0.690   6.448
 1222SOL    HW2 4566   6.699   0.845   6.397
 1223SOL     OW 4567   3.774   6.505   1.097
 1223SOL    HW1 4568   3.863   6.540   1.068
 1223SOL    HW2 4569   3.780   6.471   1.190
 1224SOL     OW 4570   3.246   1.127   1.752
 1224SOL    HW1 4571   3.194   1.087   1.827
 1224SOL    HW2 4572   3.330   1.075   1.738
 1225SOL     OW 4573   2.959   3.425   5.929
 1225SOL    HW1 4574   3.016   3.505   5.907
 1225SOL    HW2 4575   2.948   3.369   5.847
 1226SOL     OW 4576   2.090   5.158   0.502
 1226SOL    HW1 4577   2.093   5.173   0.601
 1226SOL    HW2 4578   2.007   5.110   0.478
 1227SOL     OW 4579   0.969   3.591   6.047
 1227SOL    HW1 4580   0.911   3.574   6.128
 1227SOL    HW2 4581   1.062   3.560   6.066
 1228SOL     OW 4582   3.997   1.835   0.196
 1228SOL    HW1 4583   4.022   1.919   0.147
 1228SOL    HW2 4584   3.935   1.780   0.140
 1229SOL     OW 4585   3.127   4.032   6.416
 1229SOL    HW1 4586   3.079   4.097   6.357
 1229SOL    HW2 4587   3.199   3.986   6.363
 1230SOL     OW 4588   4.501   0.432   3.667
 1230SOL    HW1 4589   4.489   0.531   3.655
 1230SOL    HW2 4590   4.476   0.406   3.760
 1231SOL     OW 4591   0.870   3.572   4.071
 1231SOL    HW1 4592   0.829   3.540   3.985
 1231SOL    HW2 4593   0.914   3.660   4.056
 1232SOL     OW 4594   2.203   3.000   2.968
 1232SOL    HW1 4595   2.226   3.038   2.878
 1232SOL    HW2 4596   2.131   3.056   3.010
 1233SOL     OW 4597   0.970   2.704   4.103
 1233SOL    HW1 4598   0.930   2.769   4.038
 1233SOL    HW2 4599   0.947   2.732   4.196
 1234SOL     OW 4600   6.411   4.580   4.230
 1234SOL    HW1 4601   6.431   4.624   4.143
 1234SOL    HW2 4602   6.321   4.535   4.224
 1235SOL     OW 4603   6.758   5.693   3.845
 1235SOL    HW1 4604   6.785   5.769   3.903
 1235SOL    HW2 4605   6.739   5.726   3.752
 1236SOL     OW 4606   5.482   1.005   6.357
 1236SOL    HW1 4607   5.559   0.941   6.353
 1236SOL    HW2 4608   5.480   1.049   6.447
 1237SOL     OW 4609   1.975   4.548   5.784
 1237SOL    HW1 4610   2.057   4.602   5.803
 1237SOL    HW2 4611   1.894   4.603   5.803
 1238SOL     OW 4612   1.779   1.412   0.856
 1238SOL    HW1 4613   1.843   1.461   0.797
 1238SOL    HW2 4614   1.718   1.476   0.902
 1239SOL     OW 4615   1.056   0.452   6.048
 1239SOL    HW1 4616   1.099   0.543   6.052
 1239SOL    HW2 4617   0.975   0.456   5.989
 1240SOL     OW 4618   4.582   5.530   1.429
 1240SOL    HW1 4619   4.599   5.460   1.359
 1240SOL    HW2 4620   4.668   5.572   1.455
 1241SOL     OW 4621   0.270   2.051   4.465
 1241SOL    HW1 4622   0.229   2.036   4.375
 1241SOL    HW2 4623   0.201   2.037   4.536
 1242SOL     OW 4624   2.253   2.133   6.316
 1242SOL    HW1 4625   2.153   2.131   6.316
 1242SOL    HW2 4626   2.284   2.220   6.278
 1243SOL     OW 4627   2.297   4.972   4.882
 1243SOL    HW1 4628   2.363   5.018   4.941
 1243SOL    HW2 4629   2.303   4.873   4.895
 1244SOL     OW 4630   6.995   2.125   2.776
 1244SOL    HW1 4631   0.025   2.174   2.851
 1244SOL    HW2 4632   6.944   2.048   2.813
 1245SOL     OW 4633   2.944   2.897   5.705
 1245SOL    HW1 4634   3.043   2.889   5.711
 1245SOL    HW2 4635   2.917   2.904   5.609
 1246SOL     OW 4636   1.243   6.577   1.024
 1246SOL    HW1 4637   1.281   6.523   0.948
 1246SOL    HW2 4638   1.250   6.524   1.108
 1247SOL     OW 4639   1.243   6.526   6.360
 1247SOL    HW1 4640   1.315   6.585   6.323
 1247SOL    HW2 4641   1.154   6.569   6.346
 1248SOL     OW 4642   2.406   6.717   3.794
 1248SOL    HW1 4643   2.422   6.639   3.733
 1248SOL    HW2 4644   2.489   6.772   3.799
 1249SOL     OW 4645   5.824   2.813   2.951
 1249SOL    HW1 4646   5.860   2.893   3.000
 1249SOL    HW2 4647   5.897   2.746   2.940
 1250SOL     OW 4648   0.028   3.710   4.115
 1250SOL    HW1 4649   0.063   3.616   4.117
 1250SOL    HW2 4650   6.955   3.713   4.162
 1251SOL     OW 4651   3.557   0.654   6.729
 1251SOL    HW1 4652   3.551   0.594   6.808
 1251SOL    HW2 4653   3.608   0.736   6.754
 1252SOL     OW 4654   3.061   4.068   0.208
 1252SOL    HW1 4655   3.087   4.098   0.300
 1252SOL    HW2 4656   3.144   4.047   0.155
 1253SOL     OW 4657   4.623   0.819   2.837
 1253SOL    HW1 4658   4.543   0.832   2.778
 1253SOL    HW2 4659   4.599   0.757   2.912
 1254SOL     OW 4660   5.434   1.262   3.471
 1254SOL    HW1 4661   5.372   1.206   3.415
 1254SOL    HW2 4662   5.449   1.350   3.426
 1255SOL     OW 4663   6.173   0.545   1.401
 1255SOL    HW1 4664   6.245   0.611   1.420
 1255SOL    HW2 4665   6.214   0.461   1.366
 1256SOL     OW 4666   4.866   2.325   3.856
 1256SOL    HW1 4667   4.822   2.362   3.775
 1256SOL    HW2 4668   4.893   2.400   3.917
 1257SOL     OW 4669   5.956   0.826   4.361
 1257SOL    HW1 4670   5.867   0.861   4.388
 1257SOL    HW2 4671   5.951   0.789   4.268
 1258SOL     OW 4672   6.951   5.411   3.515
 1258SOL    HW1 4673   6.866   5.413   3.462
 1258SOL    HW2 4674   6.996   5.323   3.503
 1259SOL     OW 4675   5.118   2.170   4.802
 1259SOL    HW1 4676   5.054   2.244   4.778
 1259SOL    HW2 4677   5.067   2.089   4.830
 1260SOL     OW 4678   0.341   1.584   5.137
 1260SOL    HW1 4679   0.357   1.491   5.171
 1260SOL    HW2 4680   0.407   1.604   5.064
 1261SOL     OW 4681   6.748   3.687   0.887
 1261SOL    HW1 4682   6.751   3.592   0.918
 1261SOL    HW2 4683   6.660   3.705   0.844
 1262SOL     OW 4684   5.016   6.198   2.318
 1262SOL    HW1 4685   5.020   6.184   2.417
 1262SOL    HW2 4686   5.104   6.232   2.285
 1263SOL     OW 4687   0.245   2.309   3.393
 1263SOL    HW1 4688   0.178   2.352   3.331
 1263SOL    HW2 4689   0.299   2.380   3.437
 1264SOL     OW 4690   0.706   2.451   5.182
 1264SOL    HW1 4691   0.742   2.358   5.188
 1264SOL    HW2 4692   0.748   2.498   5.104
 1265SOL     OW 4693   5.773   0.190   5.481
 1265SOL    HW1 4694   5.803   0.219   5.572
 1265SOL    HW2 4695   5.706   0.256   5.446
 1266SOL     OW 4696   3.023   1.539   5.062
 1266SOL    HW1 4697   2.969   1.491   5.131
 1266SOL    HW2 4698   3.007   1.637   5.070
 1267SOL     OW 4699   3.122   6.897   2.227
 1267SOL    HW1 4700   3.089   6.944   2.145
 1267SOL    HW2 4701   3.044   6.873   2.285
 1268SOL     OW 4702   4.036   2.229   5.297
 1268SOL    HW1 4703   4.037   2.129   5.290
 1268SOL    HW2 4704   4.020   2.255   5.393
 1269SOL     OW 4705   5.382   1.911   3.716
 1269SOL    HW1 4706   5.328   1.871   3.791
 1269SOL    HW2 4707   5.457   1.849   3.693
 1270SOL     OW 4708   6.518   5.374   3.051
 1270SOL    HW1 4709   6.436   5.353   2.997
 1270SOL    HW2 4710   6.492   5.391   3.146
 1271SOL     OW 4711   1.593   1.041   1.897
 1271SOL    HW1 4712   1.625   1.136   1.896
 1271SOL    HW2 4713   1.507   1.036   1.949
 1272SOL     OW 4714   6.195   2.771   0.784
 1272SOL    HW1 4715   6.269   2.835   0.765
 1272SOL    HW2 4716   6.189   2.755   0.883
 1273SOL     OW 4717   1.837   3.989   5.758
 1273SOL    HW1 4718   1.857   4.041   5.674
 1273SOL    HW2 4719   1.820   3.893   5.734
 1274SOL     OW 4720   0.189   4.131   4.075
 1274SOL    HW1 4721   0.136   4.150   4.158
 1274SOL    HW2 4722   0.219   4.217   4.034
 1275SOL     OW 4723   1.980   1.676   3.036
 1275SOL    HW1 4724   1.965   1.759   2.983
 1275SOL    HW2 4725   1.932   1.684   3.124
 1276SOL     OW 4726   5.747   4.412   3.839
 1276SOL    HW1 4727   5.685   4.335   3.828
 1276SOL    HW2 4728   5.815   4.411   3.765
 1277SOL     OW 4729   1.437   5.840   6.665
 1277SOL    HW1 4730   1.352   5.811   6.621
 1277SOL    HW2 4731   1.418   5.906   6.736
 1278SOL     OW 4732   0.293   5.872   2.645
 1278SOL    HW1 4733   0.197   5.885   2.618
 1278SOL    HW2 4734   0.324   5.952   2.697
 1279SOL     OW 4735   2.643   3.449   0.779
 1279SOL    HW1 4736   2.690   3.361   0.768
 1279SOL    HW2 4737   2.695   3.521   0.732
 1280SOL     OW 4738   2.495   2.539   3.753
 1280SOL    HW1 4739   2.405   2.501   3.774
 1280SOL    HW2 4740   2.527   2.504   3.665
 1281SOL     OW 4741   5.159   6.375   5.566
 1281SOL    HW1 4742   5.151   6.454   5.626
 1281SOL    HW2 4743   5.243   6.325   5.589
 1282SOL     OW 4744   0.657   3.097   1.275
 1282SOL    HW1 4745   0.572   3.093   1.327
 1282SOL    HW2 4746   0.636   3.114   1.179
 1283SOL     OW 4747   0.344   1.193   4.630
 1283SOL    HW1 4748   0.396   1.146   4.559
 1283SOL    HW2 4749   0.343   1.292   4.611
 1284SOL     OW 4750   3.744   1.981   1.857
 1284SOL    HW1 4751   3.729   2.066   1.908
 1284SOL    HW2 4752   3.818   1.994   1.792
 1285SOL     OW 4753   4.179   1.521   4.434
 1285SOL    HW1 4754   4.091   1.546   4.393
 1285SOL    HW2 4755   4.253   1.547   4.372
 1286SOL     OW 4756   4.708   1.140   2.064
 1286SOL    HW1 4757   4.672   1.198   1.991
 1286SOL    HW2 4758   4.785   1.187   2.108
 1287SOL     OW 4759   5.084   4.714   6.300
 1287SOL    HW1 4760   5.148   4.788   6.320
 1287SOL    HW2 4761   5.075   4.705   6.201
 1288SOL     OW 4762   4.420   4.125   6.744
 1288SOL    HW1 4763   4.476   4.179   6.681
 1288SOL    HW2 4764   4.476   4.054   6.787
 1289SOL     OW 4765   0.639   6.635   0.422
 1289SOL    HW1 4766   0.728   6.681   0.414
 1289SOL    HW2 4767   0.648   6.558   0.485
 1290SOL     OW 4768   1.498   6.464   5.128
 1290SOL    HW1 4769   1.561   6.524   5.178
 1290SOL    HW2 4770   1.463   6.513   5.048
 1291SOL     OW 4771   5.480   5.355   3.690
 1291SOL    HW1 4772   5.577   5.362   3.711
 1291SOL    HW2 4773   5.466   5.368   3.591
 1292SOL     OW 4774   0.512   6.660   2.825
 1292SOL    HW1 4775   0.601   6.704   2.834
 1292SOL    HW2 4776   0.498   6.631   2.731
 1293SOL     OW 4777   5.381   0.186   1.220
 1293SOL    HW1 4778   5.312   0.230   1.163
 1293SOL    HW2 4779   5.363   0.088   1.226
 1294SOL     OW 4780   2.213   4.279   5.347
 1294SOL    HW1 4781   2.158   4.208   5.302
 1294SOL    HW2 4782   2.206   4.363   5.294
 1295SOL     OW 4783   0.030   4.657   0.278
 1295SOL    HW1 4784   7.006   4.723   0.343
 1295SOL    HW2 4785   0.007   4.684   0.185
 1296SOL     OW 4786   4.631   0.475   5.852
 1296SOL    HW1 4787   4.582   0.539   5.911
 1296SOL    HW2 4788   4.725   0.466   5.883
 1297SOL     OW 4789   6.437   6.861   6.822
 1297SOL    HW1 4790   6.402   6.950   6.793
 1297SOL    HW2 4791   6.388   6.832   6.905
 1298SOL     OW 4792   5.355   0.282   3.114
 1298SOL    HW1 4793   5.388   0.309   3.024
 1298SOL    HW2 4794   5.265   0.322   3.129
 1299SOL     OW 4795   1.002   4.083   4.499
 1299SOL    HW1 4796   1.005   4.000   4.443
 1299SOL    HW2 4797   1.057   4.154   4.456
 1300SOL     OW 4798   1.429   5.525   0.131
 1300SOL    HW1 4799   1.442   5.624   0.127
 1300SOL    HW2 4800   1.391   5.500   0.220
 1301SOL     OW 4801   6.224   1.157   0.311
 1301SOL    HW1 4802   6.216   1.179   0.214
 1301SOL    HW2 4803   6.309   1.195   0.347
 1302SOL     OW 4804   6.906   6.971   5.197
 1302SOL    HW1 4805   6.988   6.926   5.162
 1302SOL    HW2 4806   6.909   6.973   5.297
 1303SOL     OW 4807   3.291   6.615   1.530
 1303SOL    HW1 4808   3.235   6.665   1.464
 1303SOL    HW2 4809   3.372   6.669   1.551
 1304SOL     OW 4810   0.114   0.508   0.453
 1304SOL    HW1 4811   0.182   0.573   0.488
 1304SOL    HW2 4812   0.059   0.553   0.381
 1305SOL     OW 4813   4.390   4.050   6.119
 1305SOL    HW1 4814   4.341   3.968   6.088
 1305SOL    HW2 4815   4.332   4.101   6.183
 1306SOL     OW 4816   3.113   6.364   4.359
 1306SOL    HW1 4817   3.122   6.324   4.268
 1306SOL    HW2 4818   3.151   6.456   4.359
 1307SOL     OW 4819   2.184   3.195   4.291
 1307SOL    HW1 4820   2.135   3.281   4.277
 1307SOL    HW2 4821   2.182   3.171   4.388
 1308SOL     OW 4822   6.656   3.351   6.004
 1308SOL    HW1 4823   6.746   3.357   5.961
 1308SOL    HW2 4824   6.601   3.429   5.975
 1309SOL     OW 4825   5.722   4.173   6.478
 1309SOL    HW1 4826   5.663   4.142   6.553
 1309SOL    HW2 4827   5.813   4.132   6.488
 1310SOL     OW 4828   1.964   3.289   3.212
 1310SOL    HW1 4829   1.954   3.196   3.175
 1310SOL    HW2 4830   1.996   3.284   3.306
 1311SOL     OW 4831   5.458   5.271   0.343
 1311SOL    HW1 4832   5.518   5.348   0.361
 1311SOL    HW2 4833   5.383   5.271   0.410
 1312SOL     OW 4834   2.579   1.408   6.439
 1312SOL    HW1 4835   2.545   1.325   6.484
 1312SOL    HW2 4836   2.679   1.407   6.438
 1313SOL     OW 4837   5.675   5.268   1.870
 1313SOL    HW1 4838   5.731   5.317   1.936
 1313SOL    HW2 4839   5.579   5.272   1.899
 1314SOL     OW 4840   1.885   1.014   3.407
 1314SOL    HW1 4841   1.950   1.076   3.362
 1314SOL    HW2 4842   1.933   0.929   3.432
 1315SOL     OW 4843   6.267   0.554   3.260
 1315SOL    HW1 4844   6.255   0.547   3.359
 1315SOL    HW2 4845   6.353   0.510   3.234
 1316SOL     OW 4846   5.290   6.861   6.181
 1316SOL    HW1 4847   5.322   6.771   6.212
 1316SOL    HW2 4848   5.232   6.849   6.099
 1317SOL     OW 4849   3.790   2.948   4.713
 1317SOL    HW1 4850   3.818   3.002   4.792
 1317SOL    HW2 4851   3.867   2.892   4.682
 1318SOL     OW 4852   1.870   1.514   6.265
 1318SOL    HW1 4853   1.935   1.453   6.310
 1318SOL    HW2 4854   1.832   1.577   6.332
 1319SOL     OW 4855   6.958   1.272   0.430
 1319SOL    HW1 4856   0.008   1.328   0.481
 1319SOL    HW2 4857   7.006   1.195   0.387
 1320SOL     OW 4858   3.060   2.899   6.082
 1320SOL    HW1 4859   3.075   2.806   6.115
 1320SOL    HW2 4860   2.980   2.900   6.022
 1321SOL     OW 4861   6.774   2.640   1.228
 1321SOL    HW1 4862   6.683   2.676   1.208
 1321SOL    HW2 4863   6.842   2.713   1.216
 1322SOL     OW 4864   2.587   2.667   6.892
 1322SOL    HW1 4865   2.636   2.710   6.816
 1322SOL    HW2 4866   2.586   2.729   6.970
 1323SOL     OW 4867   3.995   0.590   1.554
 1323SOL    HW1 4868   3.981   0.520   1.484
 1323SOL    HW2 4869   4.013   0.546   1.642
 1324SOL     OW 4870   2.160   4.231   5.929
 1324SOL    HW1 4871   2.081   4.277   5.970
 1324SOL    HW2 4872   2.161   4.249   5.830
 1325SOL     OW 4873   4.153   6.536   4.758
 1325SOL    HW1 4874   4.181   6.458   4.813
 1325SOL    HW2 4875   4.222   6.555   4.688
 1326SOL     OW 4876   4.964   1.336   4.676
 1326SOL    HW1 4877   5.049   1.333   4.623
 1326SOL    HW2 4878   4.971   1.408   4.745
 1327SOL     OW 4879   5.022   5.847   2.571
 1327SOL    HW1 4880   4.926   5.832   2.547
 1327SOL    HW2 4881   5.046   5.943   2.552
 1328SOL     OW 4882   2.395   1.782   6.062
 1328SOL    HW1 4883   2.419   1.685   6.068
 1328SOL    HW2 4884   2.425   1.829   6.144
 1329SOL     OW 4885   1.442   3.078   3.986
 1329SOL    HW1 4886   1.444   3.165   4.034
 1329SOL    HW2 4887   1.382   3.084   3.906
 1330SOL     OW 4888   6.415   3.328   2.932
 1330SOL    HW1 4889   6.512   3.322   2.955
 1330SOL    HW2 4890   6.383   3.422   2.943
 1331SOL     OW 4891   4.316   2.403   3.463
 1331SOL    HW1 4892   4.361   2.357   3.540
 1331SOL    HW2 4893   4.385   2.444   3.403
 1332SOL     OW 4894   2.261   5.883   6.967
 1332SOL    HW1 4895   2.196   5.839   0.014
 1332SOL    HW2 4896   2.225   5.971   6.938
 1333SOL     OW 4897   3.542   3.501   2.849
 1333SOL    HW1 4898   3.491   3.514   2.763
 1333SOL    HW2 4899   3.542   3.586   2.901
 1334SOL     OW 4900   6.848   4.143   1.744
 1334SOL    HW1 4901   6.844   4.150   1.645
 1334SOL    HW2 4902   6.800   4.060   1.774
 1335SOL     OW 4903   6.919   3.337   3.089
 1335SOL    HW1 4904   6.890   3.370   3.179
 1335SOL    HW2 4905   0.003   3.322   3.091
 1336SOL     OW 4906   2.472   6.972   5.405
 1336SOL    HW1 4907   2.565   7.003   5.425
 1336SOL    HW2 4908   2.412   6.995   5.481
 1337SOL     OW 4909   0.326   0.255   1.999
 1337SOL    HW1 4910   0.237   0.214   2.018
 1337SOL    HW2 4911   0.320   0.354   2.010
 1338SOL     OW 4912   0.030   3.924   4.828
 1338SOL    HW1 4913   6.988   3.874   4.764
 1338SOL    HW2 4914   0.127   3.906   4.809
 1339SOL     OW 4915   5.613   1.324   6.666
 1339SOL    HW1 4916   5.691   1.274   6.703
 1339SOL    HW2 4917   5.599   1.298   6.570
 1340SOL     OW 4918   3.349   2.912   1.290
 1340SOL    HW1 4919   3.281   2.940   1.358
 1340SOL    HW2 4920   3.435   2.891   1.336
 1341SOL     OW 4921   5.321   5.720   6.323
 1341SOL    HW1 4922   5.347   5.733   6.227
 1341SOL    HW2 4923   5.384   5.771   6.382
 1342SOL     OW 4924   1.824   5.923   1.322
 1342SOL    HW1 4925   1.813   5.993   1.251
 1342SOL    HW2 4926   1.903   5.944   1.378
 1343SOL     OW 4927   4.795   5.988   2.811
 1343SOL    HW1 4928   4.731   6.045   2.759
 1343SOL    HW2 4929   4.776   5.995   2.908
 1344SOL     OW 4930   0.999   0.629   4.405
 1344SOL    HW1 4931   0.975   0.636   4.308
 1344SOL    HW2 4932   0.961   0.708   4.454
 1345SOL     OW 4933   1.708   6.661   5.670
 1345SOL    HW1 4934   1.736   6.588   5.608
 1345SOL    HW2 4935   1.725   6.750   5.628
 1346SOL     OW 4936   3.012   5.198   4.343
 1346SOL    HW1 4937   2.920   5.227   4.318
 1346SOL    HW2 4938   3.047   5.256   4.416
 1347SOL     OW 4939   1.884   0.596   6.232
 1347SOL    HW1 4940   1.913   0.678   6.281
 1347SOL    HW2 4941   1.833   0.537   6.294
 1348SOL     OW 4942   1.371   6.601   4.921
 1348SOL    HW1 4943   1.408   6.609   4.828
 1348SOL    HW2 4944   1.279   6.561   4.917
 1349SOL     OW 4945   5.285   4.024   4.188
 1349SOL    HW1 4946   5.191   4.043   4.217
 1349SOL    HW2 4947   5.325   4.106   4.147
 1350SOL     OW 4948   4.628   4.766   6.484
 1350SOL    HW1 4949   4.641   4.746   6.581
 1350SOL    HW2 4950   4.682   4.702   6.430
 1351SOL     OW 4951   0.180   1.977   6.259
 1351SOL    HW1 4952   0.127   2.060   6.277
 1351SOL    HW2 4953   0.268   2.001   6.217
 1352SOL     OW 4954   0.251   0.796   2.591
 1352SOL    HW1 4955   0.189   0.739   2.645
 1352SOL    HW2 4956   0.318   0.839   2.652
 1353SOL     OW 4957   6.452   1.641   6.778
 1353SOL    HW1 4958   6.501   1.725   6.754
 1353SOL    HW2 4959   6.492   1.603   6.861
 1354SOL     OW 4960   4.995   5.121   3.125
 1354SOL    HW1 4961   5.047   5.111   3.040
 1354SOL    HW2 4962   5.004   5.037   3.179
 1355SOL     OW 4963   4.252   3.548   5.180
 1355SOL    HW1 4964   4.184   3.481   5.149
 1355SOL    HW2 4965   4.339   3.529   5.136
 1356SOL     OW 4966   2.922   3.121   6.636
 1356SOL    HW1 4967   2.902   3.109   6.733
 1356SOL    HW2 4968   3.004   3.069   6.612
 1357SOL     OW 4969   1.049   2.829   5.574
 1357SOL    HW1 4970   0.992   2.843   5.493
 1357SOL    HW2 4971   1.014   2.752   5.627
 1358SOL     OW 4972   2.633   0.082   6.530
 1358SOL    HW1 4973   2.646   0.090   6.629
 1358SOL    HW2 4974   2.547   0.034   6.512
 1359SOL     OW 4975   6.147   4.717   6.984
 1359SOL    HW1 4976   6.118   4.806   6.948
 1359SOL    HW2 4977   6.234   4.728   0.018
 1360SOL     OW 4978   2.784   1.811   6.679
 1360SOL    HW1 4979   2.713   1.743   6.655
 1360SOL    HW2 4980   2.751   1.902   6.655
 1361SOL     OW 4981   6.649   5.312   5.191
 1361SOL    HW1 4982   6.744   5.308   5.161
 1361SOL    HW2 4983   6.596   5.242   5.142
 1362SOL     OW 4984   3.606   3.927   4.181
 1362SOL    HW1 4985   3.595   3.886   4.090
 1362SOL    HW2 4986   3.568   3.865   4.250
 1363SOL     OW 4987   0.780   6.327   3.096
 1363SOL    HW1 4988   0.721   6.303   3.019
 1363SOL    HW2 4989   0.739   6.296   3.181
 1364SOL     OW 4990   3.776   4.296   0.236
 1364SOL    HW1 4991   3.679   4.288   0.213
 1364SOL    HW2 4992   3.793   4.386   0.276
 1365SOL     OW 4993   6.183   2.445   6.494
 1365SOL    HW1 4994   6.166   2.520   6.430
 1365SOL    HW2 4995   6.128   2.366   6.467
 1366SOL     OW 4996   2.088   0.070   5.366
 1366SOL    HW1 4997   2.064   0.160   5.329
 1366SOL    HW2 4998   2.102   0.005   5.292
 1367SOL     OW 4999   2.704   1.860   2.692
 1367SOL    HW1 5000   2.785   1.809   2.661
 1367SOL    HW2 5001   2.622   1.805   2.676
 1368SOL     OW 5002   6.856   0.631   2.827
 1368SOL    HW1 5003   6.781   0.681   2.871
 1368SOL    HW2 5004   6.840   0.533   2.835
 1369SOL     OW 5005   0.230   0.471   2.357
 1369SOL    HW1 5006   0.181   0.556   2.377
 1369SOL    HW2 5007   0.284   0.482   2.273
 1370SOL     OW 5008   1.928   0.878   2.353
 1370SOL    HW1 5009   1.946   0.780   2.363
 1370SOL    HW2 5010   1.894   0.915   2.439
 1371SOL     OW 5011   2.996   0.469   6.433
 1371SOL    HW1 5012   2.981   0.527   6.353
 1371SOL    HW2 5013   3.055   0.392   6.408
 1372SOL     OW 5014   2.638   1.926   1.656
 1372SOL    HW1 5015   2.574   1.850   1.652
 1372SOL    HW2 5016   2.622   1.978   1.740
 1373SOL     OW 5017   1.710   5.946   0.218
 1373SOL    HW1 5018   1.792   5.981   0.174
 1373SOL    HW2 5019   1.660   6.022   0.260
 1374SOL     OW 5020   4.826   3.941   5.603
 1374SOL    HW1 5021   4.775   3.876   5.547
 1374SOL    HW2 5022   4.924   3.929   5.589
 1375SOL     OW 5023   0.695   3.852   4.292
 1375SOL    HW1 5024   0.610   3.809   4.262
 1375SOL    HW2 5025   0.691   3.950   4.274
 1376SOL     OW 5026   5.188   0.654   1.909
 1376SOL    HW1 5027   5.252   0.650   1.986
 1376SOL    HW2 5028   5.094   0.664   1.944
 1377SOL     OW 5029   0.675   4.443   4.669
 1377SOL    HW1 5030   0.681   4.424   4.571
 1377SOL    HW2 5031   0.628   4.530   4.684
 1378SOL     OW 5032   2.066   2.254   0.235
 1378SOL    HW1 5033   2.035   2.309   0.157
 1378SOL    HW2 5034   2.023   2.288   0.319
 1379SOL     OW 5035   4.088   5.800   1.862
 1379SOL    HW1 5036   3.997   5.839   1.875
 1379SOL    HW2 5037   4.100   5.774   1.766
 1380SOL     OW 5038   5.952   4.785   2.706
 1380SOL    HW1 5039   6.032   4.836   2.738
 1380SOL    HW2 5040   5.978   4.691   2.685
 1381SOL     OW 5041   4.643   6.990   2.265
 1381SOL    HW1 5042   4.559   0.004   2.310
 1381SOL    HW2 5043   4.710   6.962   2.334
 1382SOL     OW 5044   0.338   4.216   0.311
 1382SOL    HW1 5045   0.288   4.269   0.242
 1382SOL    HW2 5046   0.292   4.129   0.325
 1383SOL     OW 5047   2.741   0.176   0.943
 1383SOL    HW1 5048   2.809   0.104   0.926
 1383SOL    HW2 5049   2.780   0.264   0.918
 1384SOL     OW 5050   1.624   1.825   2.093
 1384SOL    HW1 5051   1.685   1.774   2.154
 1384SOL    HW2 5052   1.570   1.761   2.039
 1385SOL     OW 5053   4.877   3.785   4.116
 1385SOL    HW1 5054   4.924   3.697   4.105
 1385SOL    HW2 5055   4.944   3.858   4.125
 1386SOL     OW 5056   2.705   2.244   3.644
 1386SOL    HW1 5057   2.752   2.201   3.721
 1386SOL    HW2 5058   2.760   2.319   3.609
 1387SOL     OW 5059   3.263   0.731   3.499
 1387SOL    HW1 5060   3.343   0.756   3.445
 1387SOL    HW2 5061   3.284   0.741   3.597
 1388SOL     OW 5062   5.084   1.901   3.690
 1388SOL    HW1 5063   5.050   1.992   3.712
 1388SOL    HW2 5064   5.179   1.892   3.719
 1389SOL     OW 5065   0.203   0.255   3.419
 1389SOL    HW1 5066   0.233   0.348   3.395
 1389SOL    HW2 5067   0.284   0.198   3.434
 1390SOL     OW 5068   5.441   1.951   2.633
 1390SOL    HW1 5069   5.474   1.930   2.541
 1390SOL    HW2 5070   5.348   1.918   2.643
 1391SOL     OW 5071   5.715   0.966   5.208
 1391SOL    HW1 5072   5.707   1.062   5.180
 1391SOL    HW2 5073   5.688   0.907   5.132
 1392SOL     OW 5074   3.568   6.861   5.263
 1392SOL    HW1 5075   3.602   6.952   5.287
 1392SOL    HW2 5076   3.469   6.867   5.244
 1393SOL     OW 5077   5.345   0.657   6.964
 1393SOL    HW1 5078   5.291   0.631   6.885
 1393SOL    HW2 5079   5.338   0.586   0.019
 1394SOL     OW 5080   4.262   0.966   4.043
 1394SOL    HW1 5081   4.165   0.951   4.062
 1394SOL    HW2 5082   4.311   0.879   4.047
 1395SOL     OW 5083   0.739   5.013   2.585
 1395SOL    HW1 5084   0.717   4.957   2.504
 1395SOL    HW2 5085   0.712   5.108   2.568
 1396SOL     OW 5086   1.361   1.297   3.655
 1396SOL    HW1 5087   1.267   1.332   3.662
 1396SOL    HW2 5088   1.381   1.274   3.560
 1397SOL     OW 5089   2.371   4.499   5.556
 1397SOL    HW1 5090   2.460   4.514   5.600
 1397SOL    HW2 5091   2.384   4.442   5.475
 1398SOL     OW 5092   2.936   6.960   6.708
 1398SOL    HW1 5093   3.024   7.006   6.714
 1398SOL    HW2 5094   2.931   6.908   6.622
 1399SOL     OW 5095   3.745   0.017   0.154
 1399SOL    HW1 5096   3.815   0.088   0.154
 1399SOL    HW2 5097   3.785   6.945   0.179
 1400SOL     OW 5098   0.692   1.134   5.639
 1400SOL    HW1 5099   0.676   1.100   5.731
 1400SOL    HW2 5100   0.780   1.100   5.606
 1401SOL     OW 5101   5.089   0.298   2.063
 1401SOL    HW1 5102   5.068   0.388   2.102
 1401SOL    HW2 5103   5.124   0.309   1.970
 1402SOL     OW 5104   5.365   4.536   1.960
 1402SOL    HW1 5105   5.339   4.624   2.000
 1402SOL    HW2 5106   5.338   4.534   1.864
 1403SOL     OW 5107   3.060   3.198   6.934
 1403SOL    HW1 5108   3.100   3.289   6.930
 1403SOL    HW2 5109   3.133   3.131   6.953
 1404SOL     OW 5110   3.851   6.082   0.324
 1404SOL    HW1 5111   3.816   6.163   0.278
 1404SOL    HW2 5112   3.815   6.000   0.278
 1405SOL     OW 5113   0.846   3.708   6.883
 1405SOL    HW1 5114   0.925   3.649   6.896
 1405SOL    HW2 5115   0.856   3.790   6.940
 1406SOL     OW 5116   2.241   2.677   6.490
 1406SOL    HW1 5117   2.150   2.666   6.450
 1406SOL    HW2 5118   2.275   2.769   6.471
 1407SOL     OW 5119   6.838   2.528   2.147
 1407SOL    HW1 5120   6.786   2.488   2.072
 1407SOL    HW2 5121   6.853   2.625   2.129
 1408SOL     OW 5122   6.110   6.375   0.854
 1408SOL    HW1 5123   6.170   6.298   0.878
 1408SOL    HW2 5124   6.016   6.343   0.850
 1409SOL     OW 5125   5.791   2.066   5.878
 1409SOL    HW1 5126   5.767   2.031   5.969
 1409SOL    HW2 5127   5.883   2.038   5.854
 1410SOL     OW 5128   2.790   0.766   0.754
 1410SOL    HW1 5129   2.850   0.746   0.831
 1410SOL    HW2 5130   2.773   0.682   0.701
 1411SOL     OW 5131   3.945   6.339   0.010
 1411SOL    HW1 5132   3.999   6.383   6.954
 1411SOL    HW2 5133   4.006   6.283   0.067
 1412SOL     OW 5134   2.270   1.399   0.200
 1412SOL    HW1 5135   2.196   1.395   0.267
 1412SOL    HW2 5136   2.270   1.489   0.155
 1413SOL     OW 5137   2.313   1.638   5.234
 1413SOL    HW1 5138   2.365   1.622   5.150
 1413SOL    HW2 5139   2.369   1.688   5.300
 1414SOL     OW 5140   0.522   4.675   2.064
 1414SOL    HW1 5141   0.522   4.594   2.124
 1414SOL    HW2 5142   0.458   4.660   1.989
 1415SOL     OW 5143   3.827   1.973   5.241
 1415SOL    HW1 5144   3.733   2.006   5.229
 1415SOL    HW2 5145   3.871   1.964   5.152
 1416SOL     OW 5146   4.909   0.422   5.015
 1416SOL    HW1 5147   4.933   0.325   5.016
 1416SOL    HW2 5148   4.989   0.476   4.988
 1417SOL     OW 5149   3.786   3.680   4.368
 1417SOL    HW1 5150   3.865   3.730   4.331
 1417SOL    HW2 5151   3.804   3.654   4.462
 1418SOL     OW 5152   3.401   3.880   5.642
 1418SOL    HW1 5153   3.431   3.784   5.633
 1418SOL    HW2 5154   3.378   3.898   5.737
 1419SOL     OW 5155   0.102   5.237   2.109
 1419SOL    HW1 5156   0.022   5.180   2.129
 1419SOL    HW2 5157   0.184   5.195   2.148
 1420SOL     OW 5158   2.961   6.401   3.520
 1420SOL    HW1 5159   2.955   6.390   3.620
 1420SOL    HW2 5160   2.922   6.489   3.494
 1421SOL     OW 5161   1.705   5.298   0.555
 1421SOL    HW1 5162   1.615   5.265   0.526
 1421SOL    HW2 5163   1.763   5.220   0.576
 1422SOL     OW 5164   1.377   3.958   6.857
 1422SOL    HW1 5165   1.369   4.023   6.781
 1422SOL    HW2 5166   1.471   3.928   6.866
 1423SOL     OW 5167   4.635   1.030   4.874
 1423SOL    HW1 5168   4.647   1.128   4.892
 1423SOL    HW2 5169   4.618   1.016   4.777
 1424SOL     OW 5170   6.274   3.264   1.248
 1424SOL    HW1 5171   6.333   3.291   1.323
 1424SOL    HW2 5172   6.308   3.304   1.163
 1425SOL     OW 5173   6.027   6.547   3.195
 1425SOL    HW1 5174   6.020   6.448   3.189
 1425SOL    HW2 5175   5.975   6.579   3.274
 1426SOL     OW 5176   3.558   1.446   0.649
 1426SOL    HW1 5177   3.505   1.441   0.564
 1426SOL    HW2 5178   3.559   1.356   0.692
 1427SOL     OW 5179   1.081   0.835   3.952
 1427SOL    HW1 5180   1.154   0.780   3.913
 1427SOL    HW2 5181   1.013   0.856   3.882
 1428SOL     OW 5182   1.897   3.952   3.842
 1428SOL    HW1 5183   1.834   3.921   3.914
 1428SOL    HW2 5184   1.989   3.918   3.862
 1429SOL     OW 5185   6.435   0.498   1.535
 1429SOL    HW1 5186   6.355   0.504   1.594
 1429SOL    HW2 5187   6.515   0.475   1.590
 1430SOL     OW 5188   2.153   4.178   4.399
 1430SOL    HW1 5189   2.163   4.118   4.320
 1430SOL    HW2 5190   2.101   4.132   4.471
 1431SOL     OW 5191   3.650   2.210   0.723
 1431SOL    HW1 5192   3.699   2.153   0.657
 1431SOL    HW2 5193   3.560   2.171   0.740
 1432SOL     OW 5194   3.818   0.326   2.772
 1432SOL    HW1 5195   3.760   0.286   2.702
 1432SOL    HW2 5196   3.777   0.311   2.862
 1433SOL     OW 5197   3.078   2.046   4.484
 1433SOL    HW1 5198   3.176   2.037   4.467
 1433SOL    HW2 5199   3.029   1.967   4.449
 1434SOL     OW 5200   5.316   3.633   0.462
 1434SOL    HW1 5201   5.369   3.548   0.461
 1434SOL    HW2 5202   5.361   3.702   0.405
 1435SOL     OW 5203   0.357   5.931   4.044
 1435SOL    HW1 5204   0.348   5.844   3.997
 1435SOL    HW2 5205   0.270   5.955   4.087
 1436SOL     OW 5206   5.642   1.073   0.329
 1436SOL    HW1 5207   5.543   1.064   0.322
 1436SOL    HW2 5208   5.683   0.983   0.340
 1437SOL     OW 5209   4.523   1.379   0.790
 1437SOL    HW1 5210   4.497   1.369   0.694
 1437SOL    HW2 5211   4.506   1.473   0.819
 1438SOL     OW 5212   2.132   6.769   3.013
 1438SOL    HW1 5213   2.157   6.863   2.992
 1438SOL    HW2 5214   2.105   6.762   3.109
 1439SOL     OW 5215   0.392   5.281   4.768
 1439SOL    HW1 5216   0.310   5.329   4.737
 1439SOL    HW2 5217   0.369   5.222   4.846
 1440SOL     OW 5218   3.312   3.354   2.286
 1440SOL    HW1 5219   3.233   3.368   2.346
 1440SOL    HW2 5220   3.280   3.325   2.196
 1441SOL     OW 5221   0.351   1.683   5.812
 1441SOL    HW1 5222   0.317   1.594   5.781
 1441SOL    HW2 5223   0.394   1.673   5.902
 1442SOL     OW 5224   5.544   5.989   0.331
 1442SOL    HW1 5225   5.544   5.954   0.238
 1442SOL    HW2 5226   5.636   6.018   0.357
 1443SOL     OW 5227   1.462   3.295   4.140
 1443SOL    HW1 5228   1.543   3.328   4.091
 1443SOL    HW2 5229   1.483   3.285   4.237
 1444SOL     OW 5230   5.245   6.828   4.356
 1444SOL    HW1 5231   5.288   6.904   4.404
 1444SOL    HW2 5232   5.309   6.751   4.350
 1445SOL     OW 5233   0.068   2.484   0.536
 1445SOL    HW1 5234   0.160   2.458   0.506
 1445SOL    HW2 5235   0.041   2.568   0.490
 1446SOL     OW 5236   2.847   5.476   2.199
 1446SOL    HW1 5237   2.772   5.430   2.247
 1446SOL    HW2 5238   2.929   5.418   2.203
 1447SOL     OW 5239   6.764   0.885   4.548
 1447SOL    HW1 5240   6.780   0.945   4.469
 1447SOL    HW2 5241   6.745   0.942   4.628
 1448SOL     OW 5242   5.445   0.738   0.636
 1448SOL    HW1 5243   5.492   0.824   0.615
 1448SOL    HW2 5244   5.348   0.755   0.650
 1449SOL     OW 5245   4.702   5.393   0.381
 1449SOL    HW1 5246   4.747   5.348   0.303
 1449SOL    HW2 5247   4.720   5.491   0.378
 1450SOL     OW 5248   5.389   1.278   3.903
 1450SOL    HW1 5249   5.347   1.326   3.826
 1450SOL    HW2 5250   5.452   1.208   3.869
 1451SOL     OW 5251   0.958   6.942   1.810
 1451SOL    HW1 5252   0.909   6.861   1.776
 1451SOL    HW2 5253   1.055   6.920   1.820
 1452SOL     OW 5254   2.142   0.102   6.413
 1452SOL    HW1 5255   2.216   0.086   6.349
 1452SOL    HW2 5256   2.176   0.157   6.490
 1453SOL     OW 5257   5.858   4.673   4.260
 1453SOL    HW1 5258   5.834   4.604   4.191
 1453SOL    HW2 5259   5.846   4.764   4.221
 1454SOL     OW 5260   5.602   3.725   0.683
 1454SOL    HW1 5261   5.514   3.769   0.701
 1454SOL    HW2 5262   5.628   3.741   0.587
 1455SOL     OW 5263   1.899   1.945   1.785
 1455SOL    HW1 5264   1.857   2.036   1.781
 1455SOL    HW2 5265   1.909   1.917   1.880
 1456SOL     OW 5266   5.390   5.473   4.961
 1456SOL    HW1 5267   5.470   5.526   4.989
 1456SOL    HW2 5268   5.371   5.402   5.028
 1457SOL     OW 5269   2.045   1.034   4.566
 1457SOL    HW1 5270   2.023   0.941   4.535
 1457SOL    HW2 5271   1.964   1.074   4.608
 1458SOL     OW 5272   0.174   5.373   0.029
 1458SOL    HW1 5273   0.204   5.303   6.979
 1458SOL    HW2 5274   0.132   5.329   0.109
 1459SOL     OW 5275   2.625   6.908   1.885
 1459SOL    HW1 5276   2.558   6.836   1.903
 1459SOL    HW2 5277   2.697   6.872   1.826
 1460SOL     OW 5278   0.475   0.626   6.693
 1460SOL    HW1 5279   0.506   0.660   6.604
 1460SOL    HW2 5280   0.519   0.679   6.765
 1461SOL     OW 5281   4.900   4.214   2.887
 1461SOL    HW1 5282   4.854   4.234   2.973
 1461SOL    HW2 5283   4.851   4.143   2.838
 1462SOL     OW 5284   5.536   0.245   5.167
 1462SOL    HW1 5285   5.597   0.277   5.240
 1462SOL    HW2 5286   5.591   0.202   5.095
 1463SOL     OW 5287   0.695   2.218   5.384
 1463SOL    HW1 5288   0.685   2.304   5.434
 1463SOL    HW2 5289   0.607   2.194   5.342
 1464SOL     OW 5290   0.852   0.978   0.762
 1464SOL    HW1 5291   0.772   1.011   0.812
 1464SOL    HW2 5292   0.925   1.046   0.765
 1465SOL     OW 5293   1.737   1.222   3.544
 1465SOL    HW1 5294   1.783   1.148   3.495
 1465SOL    HW2 5295   1.704   1.291   3.479
 1466SOL     OW 5296   5.941   5.740   4.010
 1466SOL    HW1 5297   5.861   5.679   4.008
 1466SOL    HW2 5298   5.910   5.835   4.012
 1467SOL     OW 5299   0.060   3.782   4.405
 1467SOL    HW1 5300   0.052   3.691   4.445
 1467SOL    HW2 5301   7.006   3.793   4.333
 1468SOL     OW 5302   4.603   6.997   2.861
 1468SOL    HW1 5303   4.550   6.912   2.860
 1468SOL    HW2 5304   4.687   6.984   2.808
 1469SOL     OW 5305   0.227   0.912   2.286
 1469SOL    HW1 5306   0.268   0.958   2.364
 1469SOL    HW2 5307   0.196   0.821   2.313
 1470SOL     OW 5308   0.389   0.142   2.905
 1470SOL    HW1 5309   0.479   0.168   2.871
 1470SOL    HW2 5310   0.393   0.129   3.004
 1471SOL     OW 5311   6.022   1.304   1.078
 1471SOL    HW1 5312   5.998   1.348   1.165
 1471SOL    HW2 5313   5.939   1.289   1.025
 1472SOL     OW 5314   4.734   5.208   5.256
 1472SOL    HW1 5315   4.688   5.286   5.213
 1472SOL    HW2 5316   4.829   5.204   5.225
 1473SOL     OW 5317   6.794   3.195   4.031
 1473SOL    HW1 5318   6.840   3.178   4.118
 1473SOL    HW2 5319   6.815   3.122   3.966
 1474SOL     OW 5320   4.479   5.971   2.771
 1474SOL    HW1 5321   4.479   6.010   2.679
 1474SOL    HW2 5322   4.514   5.877   2.767
 1475SOL     OW 5323   6.145   6.775   2.644
 1475SOL    HW1 5324   6.230   6.812   2.607
 1475SOL    HW2 5325   6.139   6.795   2.741
 1476SOL     OW 5326   0.815   2.327   1.499
 1476SOL    HW1 5327   0.832   2.383   1.580
 1476SOL    HW2 5328   0.895   2.331   1.439
 1477SOL     OW 5329   2.760   6.369   4.656
 1477SOL    HW1 5330   2.788   6.456   4.697
 1477SOL    HW2 5331   2.683   6.331   4.707
 1478SOL     OW 5332   0.108   3.546   1.295
 1478SOL    HW1 5333   0.076   3.454   1.270
 1478SOL    HW2 5334   0.141   3.545   1.390
 1479SOL     OW 5335   1.624   5.239   0.136
 1479SOL    HW1 5336   1.614   5.218   0.038
 1479SOL    HW2 5337   1.640   5.153   0.186
 1480SOL     OW 5338   3.005   0.897   0.624
 1480SOL    HW1 5339   2.996   0.975   0.562
 1480SOL    HW2 5340   2.914   0.870   0.657
 1481SOL     OW 5341   6.887   3.490   0.399
 1481SOL    HW1 5342   6.844   3.580   0.403
 1481SOL    HW2 5343   6.912   3.470   0.304
 1482SOL     OW 5344   5.953   0.664   6.310
 1482SOL    HW1 5345   5.857   0.653   6.337
 1482SOL    HW2 5346   6.011   0.614   6.373
 1483SOL     OW 5347   6.826   2.819   0.029
 1483SOL    HW1 5348   6.798   2.736   6.995
 1483SOL    HW2 5349   6.752   2.886   0.027
 1484SOL     OW 5350   6.203   6.791   3.626
 1484SOL    HW1 5351   6.242   6.882   3.642
 1484SOL    HW2 5352   6.240   6.754   3.541
 1485SOL     OW 5353   5.264   3.624   4.054
 1485SOL    HW1 5354   5.272   3.540   4.107
 1485SOL    HW2 5355   5.221   3.695   4.109
 1486SOL     OW 5356   5.080   2.878   1.244
 1486SOL    HW1 5357   4.992   2.904   1.284
 1486SOL    HW2 5358   5.071   2.789   1.199
 1487SOL     OW 5359   0.785   0.110   5.520
 1487SOL    HW1 5360   0.795   0.140   5.425
 1487SOL    HW2 5361   0.857   0.151   5.575
 1488SOL     OW 5362   5.150   1.979   4.554
 1488SOL    HW1 5363   5.085   2.046   4.519
 1488SOL    HW2 5364   5.178   2.004   4.647
 1489SOL     OW 5365   3.177   4.970   4.960
 1489SOL    HW1 5366   3.253   5.036   4.960
 1489SOL    HW2 5367   3.135   4.969   4.869
 1490SOL     OW 5368   2.394   2.767   0.693
 1490SOL    HW1 5369   2.296   2.763   0.670
 1490SOL    HW2 5370   2.437   2.679   0.672
 1491SOL     OW 5371   0.642   2.028   4.372
 1491SOL    HW1 5372   0.572   2.077   4.319
 1491SOL    HW2 5373   0.626   2.042   4.469
 1492SOL     OW 5374   0.348   2.220   1.668
 1492SOL    HW1 5375   0.392   2.309   1.657
 1492SOL    HW2 5376   0.290   2.202   1.589
 1493SOL     OW 5377   6.038   3.040   4.843
 1493SOL    HW1 5378   6.127   3.006   4.814
 1493SOL    HW2 5379   6.040   3.140   4.847
 1494SOL     OW 5380   5.262   1.677   3.849
 1494SOL    HW1 5381   5.244   1.596   3.793
 1494SOL    HW2 5382   5.352   1.670   3.891
 1495SOL     OW 5383   1.464   3.955   1.820
 1495SOL    HW1 5384   1.450   3.931   1.723
 1495SOL    HW2 5385   1.560   3.940   1.843
 1496SOL     OW 5386   1.057   0.579   2.441
 1496SOL    HW1 5387   1.082   0.554   2.534
 1496SOL    HW2 5388   1.082   0.674   2.424
 1497SOL     OW 5389   5.785   5.220   6.171
 1497SOL    HW1 5390   5.713   5.230   6.238
 1497SOL    HW2 5391   5.751   5.167   6.093
 1498SOL     OW 5392   2.980   5.451   0.067
 1498SOL    HW1 5393   2.932   5.392   0.133
 1498SOL    HW2 5394   3.071   5.413   0.049
 1499SOL     OW 5395   0.518   4.070   4.449
 1499SOL    HW1 5396   0.616   4.069   4.429
 1499SOL    HW2 5397   0.503   4.034   4.541
 1500SOL     OW 5398   3.932   6.755   5.729
 1500SOL    HW1 5399   3.858   6.724   5.669
 1500SOL    HW2 5400   4.013   6.775   5.673
 1501SOL     OW 5401   3.761   0.297   1.046
 1501SOL    HW1 5402   3.859   0.280   1.036
 1501SOL    HW2 5403   3.712   0.210   1.057
 1502SOL     OW 5404   0.551   0.711   6.459
 1502SOL    HW1 5405   0.565   0.625   6.411
 1502SOL    HW2 5406   0.593   0.786   6.408
 1503SOL     OW 5407   3.440   3.846   5.041
 1503SOL    HW1 5408   3.474   3.754   5.061
 1503SOL    HW2 5409   3.426   3.855   4.942
 1504SOL     OW 5410   2.706   6.736   3.703
 1504SOL    HW1 5411   2.723   6.834   3.717
 1504SOL    HW2 5412   2.748   6.707   3.618
 1505SOL     OW 5413   5.574   6.593   2.944
 1505SOL    HW1 5414   5.564   6.667   3.011
 1505SOL    HW2 5415   5.543   6.507   2.983
 1506SOL     OW 5416   0.554   5.942   3.849
 1506SOL    HW1 5417   0.582   6.032   3.816
 1506SOL    HW2 5418   0.494   5.953   3.928
 1507SOL     OW 5419   1.974   1.483   0.084
 1507SOL    HW1 5420   1.996   1.580   0.076
 1507SOL    HW2 5421   1.996   1.437   7.013
 1508SOL     OW 5422   4.897   6.252   1.216
 1508SOL    HW1 5423   4.833   6.187   1.177
 1508SOL    HW2 5424   4.855   6.297   1.295
 1509SOL     OW 5425   5.606   1.605   6.652
 1509SOL    HW1 5426   5.677   1.647   6.594
 1509SOL    HW2 5427   5.564   1.529   6.603
 1510SOL     OW 5428   6.334   1.593   2.503
 1510SOL    HW1 5429   6.381   1.504   2.495
 1510SOL    HW2 5430   6.235   1.578   2.509
 1511SOL     OW 5431   0.265   2.913   0.162
 1511SOL    HW1 5432   0.235   2.922   0.258
 1511SOL    HW2 5433   0.187   2.885   0.106
 1512SOL     OW 5434   6.301   0.995   2.066
 1512SOL    HW1 5435   6.355   0.954   1.993
 1512SOL    HW2 5436   6.214   1.028   2.030
 1513SOL     OW 5437   2.352   1.041   2.768
 1513SOL    HW1 5438   2.329   1.136   2.748
 1513SOL    HW2 5439   2.290   0.980   2.718
 1514SOL     OW 5440   4.720   0.949   5.861
 1514SOL    HW1 5441   4.622   0.958   5.840
 1514SOL    HW2 5442   4.768   1.031   5.831
 1515SOL     OW 5443   5.661   5.391   5.716
 1515SOL    HW1 5444   5.724   5.463   5.686
 1515SOL    HW2 5445   5.710   5.304   5.722
 1516SOL     OW 5446   6.161   1.879   1.885
 1516SOL    HW1 5447   6.113   1.847   1.803
 1516SOL    HW2 5448   6.112   1.849   1.966
 1517SOL     OW 5449   3.476   5.182   2.348
 1517SOL    HW1 5450   3.482   5.084   2.366
 1517SOL    HW2 5451   3.488   5.198   2.250
 1518SOL     OW 5452   0.612   4.994   1.276
 1518SOL    HW1 5453   0.584   5.056   1.204
 1518SOL    HW2 5454   0.532   4.944   1.311
 1519SOL     OW 5455   0.159   4.033   1.096
 1519SOL    HW1 5456   0.258   4.042   1.083
 1519SOL    HW2 5457   0.117   4.123   1.085
 1520SOL     OW 5458   1.429   3.815   2.334
 1520SOL    HW1 5459   1.378   3.836   2.417
 1520SOL    HW2 5460   1.520   3.783   2.359
 1521SOL     OW 5461   2.266   5.567   5.253
 1521SOL    HW1 5462   2.350   5.622   5.254
 1521SOL    HW2 5463   2.278   5.489   5.191
 1522SOL     OW 5464   1.747   1.903   6.273
 1522SOL    HW1 5465   1.817   1.968   6.304
 1522SOL    HW2 5466   1.663   1.918   6.325
 1523SOL     OW 5467   5.955   0.819   1.570
 1523SOL    HW1 5468   5.990   0.909   1.542
 1523SOL    HW2 5469   5.866   0.831   1.614
 1524SOL     OW 5470   0.514   1.817   1.243
 1524SOL    HW1 5471   0.607   1.779   1.244
 1524SOL    HW2 5472   0.451   1.752   1.286
 1525SOL     OW 5473   5.103   1.250   5.394
 1525SOL    HW1 5474   5.107   1.261   5.294
 1525SOL    HW2 5475   5.128   1.156   5.418
 1526SOL     OW 5476   5.671   2.317   6.991
 1526SOL    HW1 5477   5.707   2.258   0.048
 1526SOL    HW2 5478   5.727   2.399   6.984
 1527SOL     OW 5479   3.190   1.100   5.350
 1527SOL    HW1 5480   3.178   1.013   5.398
 1527SOL    HW2 5481   3.116   1.111   5.283
 1528SOL     OW 5482   5.130   5.798   3.665
 1528SOL    HW1 5483   5.089   5.710   3.690
 1528SOL    HW2 5484   5.155   5.796   3.568
 1529SOL     OW 5485   2.092   6.943   5.129
 1529SOL    HW1 5486   2.076   0.007   5.071
 1529SOL    HW2 5487   2.069   6.860   5.078
 1530SOL     OW 5488   3.009   6.508   1.576
 1530SOL    HW1 5489   3.100   6.549   1.576
 1530SOL    HW2 5490   2.950   6.556   1.510
 1531SOL     OW 5491   5.850   1.283   6.300
 1531SOL    HW1 5492   5.894   1.211   6.353
 1531SOL    HW2 5493   5.873   1.272   6.204
 1532SOL     OW 5494   3.059   1.787   5.228
 1532SOL    HW1 5495   3.052   1.847   5.148
 1532SOL    HW2 5496   3.139   1.812   5.282
 1533SOL     OW 5497   4.680   3.098   0.253
 1533SOL    HW1 5498   4.721   3.049   0.330
 1533SOL    HW2 5499   4.747   3.107   0.179
 1534SOL     OW 5500   0.388   6.824   0.126
 1534SOL    HW1 5501   0.417   6.864   0.213
 1534SOL    HW2 5502   0.385   6.896   0.056
 1535SOL     OW 5503   5.297   4.487   4.462
 1535SOL    HW1 5504   5.359   4.497   4.384
 1535SOL    HW2 5505   5.310   4.564   4.525
 1536SOL     OW 5506   3.352   6.091   2.924
 1536SOL    HW1 5507   3.356   6.081   2.824
 1536SOL    HW2 5508   3.256   6.099   2.952
 1537SOL     OW 5509   2.283   5.853   4.582
 1537SOL    HW1 5510   2.233   5.938   4.564
 1537SOL    HW2 5511   2.251   5.813   4.668
 1538SOL     OW 5512   3.460   6.083   0.326
 1538SOL    HW1 5513   3.407   6.154   0.371
 1538SOL    HW2 5514   3.477   6.008   0.390
 1539SOL     OW 5515   2.230   6.747   2.593
 1539SOL    HW1 5516   2.285   6.676   2.550
 1539SOL    HW2 5517   2.289   6.812   2.640
 1540SOL     OW 5518   5.912   0.283   4.975
 1540SOL    HW1 5519   5.929   0.347   5.050
 1540SOL    HW2 5520   5.910   0.190   5.010
 1541SOL     OW 5521   5.236   1.646   1.959
 1541SOL    HW1 5522   5.137   1.640   1.955
 1541SOL    HW2 5523   5.274   1.560   1.995
 1542SOL     OW 5524   7.009   5.615   1.332
 1542SOL    HW1 5525   0.093   5.604   1.329
 1542SOL    HW2 5526   6.977   5.604   1.426
 1543SOL     OW 5527   3.236   3.498   3.244
 1543SOL    HW1 5528   3.325   3.454   3.231
 1543SOL    HW2 5529   3.243   3.566   3.317
 1544SOL     OW 5530   3.447   3.589   1.719
 1544SOL    HW1 5531   3.467   3.682   1.749
 1544SOL    HW2 5532   3.365   3.589   1.662
 1545SOL     OW 5533   0.516   6.657   5.379
 1545SOL    HW1 5534   0.574   6.626   5.454
 1545SOL    HW2 5535   0.465   6.738   5.407
 1546SOL     OW 5536   0.123   6.517   6.937
 1546SOL    HW1 5537   0.035   6.555   6.968
 1546SOL    HW2 5538   0.159   6.574   6.863
 1547SOL     OW 5539   3.254   6.064   0.019
 1547SOL    HW1 5540   3.353   6.051   0.020
 1547SOL    HW2 5541   3.224   6.101   0.107
 1548SOL     OW 5542   6.415   4.213   3.119
 1548SOL    HW1 5543   6.322   4.240   3.096
 1548SOL    HW2 5544   6.417   4.115   3.139
 1549SOL     OW 5545   6.244   1.961   0.979
 1549SOL    HW1 5546   6.229   1.978   1.077
 1549SOL    HW2 5547   6.212   1.869   0.956
 1550SOL     OW 5548   2.527   4.919   2.433
 1550SOL    HW1 5549   2.446   4.975   2.448
 1550SOL    HW2 5550   2.502   4.822   2.434
 1551SOL     OW 5551   0.865   2.950   1.689
 1551SOL    HW1 5552   0.894   2.995   1.604
 1551SOL    HW2 5553   0.782   2.897   1.672
 1552SOL     OW 5554   1.597   6.989   2.092
 1552SOL    HW1 5555   1.660   6.917   2.120
 1552SOL    HW2 5556   1.504   6.965   2.119
 1553SOL     OW 5557   6.093   1.593   5.456
 1553SOL    HW1 5558   6.092   1.581   5.555
 1553SOL    HW2 5559   6.106   1.690   5.434
 1554SOL     OW 5560   2.717   2.960   0.929
 1554SOL    HW1 5561   2.768   2.949   0.844
 1554SOL    HW2 5562   2.619   2.948   0.911
 1555SOL     OW 5563   4.422   1.265   1.024
 1555SOL    HW1 5564   4.444   1.317   0.941
 1555SOL    HW2 5565   4.330   1.288   1.054
 1556SOL     OW 5566   3.288   2.426   0.457
 1556SOL    HW1 5567   3.367   2.409   0.398
 1556SOL    HW2 5568   3.207   2.381   0.419
 1557SOL     OW 5569   1.886   2.886   1.205
 1557SOL    HW1 5570   1.836   2.967   1.236
 1557SOL    HW2 5571   1.834   2.839   1.134
 1558SOL     OW 5572   4.834   2.564   6.665
 1558SOL    HW1 5573   4.911   2.513   6.702
 1558SOL    HW2 5574   4.791   2.511   6.592
 1559SOL     OW 5575   2.658   6.144   3.505
 1559SOL    HW1 5576   2.594   6.068   3.491
 1559SOL    HW2 5577   2.672   6.192   3.418
 1560SOL     OW 5578   4.364   3.000   1.298
 1560SOL    HW1 5579   4.266   3.020   1.292
 1560SOL    HW2 5580   4.385   2.961   1.388
 1561SOL     OW 5581   6.300   6.214   0.480
 1561SOL    HW1 5582   6.286   6.283   0.409
 1561SOL    HW2 5583   6.309   6.124   0.438
 1562SOL     OW 5584   2.652   6.915   2.860
 1562SOL    HW1 5585   2.631   7.013   2.865
 1562SOL    HW2 5586   2.740   6.902   2.816
 1563SOL     OW 5587   2.141   3.829   3.845
 1563SOL    HW1 5588   2.180   3.916   3.815
 1563SOL    HW2 5589   2.186   3.799   3.929
 1564SOL     OW 5590   1.208   1.710   3.329
 1564SOL    HW1 5591   1.177   1.775   3.260
 1564SOL    HW2 5592   1.210   1.755   3.418
 1565SOL     OW 5593   5.211   1.508   5.386
 1565SOL    HW1 5594   5.269   1.503   5.305
 1565SOL    HW2 5595   5.186   1.416   5.415
 1566SOL     OW 5596   0.899   3.160   3.878
 1566SOL    HW1 5597   0.915   3.087   3.945
 1566SOL    HW2 5598   0.831   3.130   3.811
 1567SOL     OW 5599   5.306   0.713   4.698
 1567SOL    HW1 5600   5.395   0.747   4.667
 1567SOL    HW2 5601   5.268   0.653   4.628
 1568SOL     OW 5602   2.156   4.230   0.818
 1568SOL    HW1 5603   2.107   4.262   0.737
 1568SOL    HW2 5604   2.107   4.152   0.857
 1569SOL     OW 5605   2.315   1.102   2.148
 1569SOL    HW1 5606   2.378   1.044   2.096
 1569SOL    HW2 5607   2.360   1.136   2.230
 1570SOL     OW 5608   2.916   6.363   6.401
 1570SOL    HW1 5609   2.901   6.286   6.338
 1570SOL    HW2 5610   2.897   6.333   6.495
 1571SOL     OW 5611   0.553   1.424   4.769
 1571SOL    HW1 5612   0.522   1.419   4.674
 1571SOL    HW2 5613   0.507   1.354   4.823
 1572SOL     OW 5614   1.835   6.373   3.275
 1572SOL    HW1 5615   1.781   6.384   3.358
 1572SOL    HW2 5616   1.930   6.395   3.294
 1573SOL     OW 5617   5.371   6.462   0.351
 1573SOL    HW1 5618   5.350   6.370   0.315
 1573SOL    HW2 5619   5.301   6.488   0.418
 1574SOL     OW 5620   0.041   3.936   3.415
 1574SOL    HW1 5621   0.100   3.981   3.348
 1574SOL    HW2 5622   0.075   3.844   3.432
 1575SOL     OW 5623   6.854   2.488   0.281
 1575SOL    HW1 5624   6.809   2.555   0.340
 1575SOL    HW2 5625   6.933   2.531   0.237
 1576SOL     OW 5626   1.675   5.895   2.400
 1576SOL    HW1 5627   1.758   5.918   2.452
 1576SOL    HW2 5628   1.647   5.801   2.422
 1577SOL     OW 5629   4.215   5.836   4.215
 1577SOL    HW1 5630   4.141   5.852   4.149
 1577SOL    HW2 5631   4.203   5.747   4.258
 1578SOL     OW 5632   5.213   1.846   1.507
 1578SOL    HW1 5633   5.296   1.864   1.560
 1578SOL    HW2 5634   5.210   1.907   1.429
 1579SOL     OW 5635   1.252   3.117   2.291
 1579SOL    HW1 5636   1.167   3.064   2.290
 1579SOL    HW2 5637   1.232   3.213   2.272
 1580SOL     OW 5638   3.304   4.025   3.935
 1580SOL    HW1 5639   3.316   3.953   3.867
 1580SOL    HW2 5640   3.378   4.092   3.927
 1581SOL     OW 5641   5.046   4.702   5.383
 1581SOL    HW1 5642   5.011   4.619   5.426
 1581SOL    HW2 5643   5.104   4.752   5.448
 1582SOL     OW 5644   4.275   6.058   4.372
 1582SOL    HW1 5645   4.373   6.062   4.395
 1582SOL    HW2 5646   4.253   5.967   4.336
 1583SOL     OW 5647   0.623   5.145   4.717
 1583SOL    HW1 5648   0.622   5.049   4.689
 1583SOL    HW2 5649   0.531   5.172   4.746
 1584SOL     OW 5650   6.966   4.274   6.963
 1584SOL    HW1 5651   0.040   4.231   6.969
 1584SOL    HW2 5652   6.898   4.217   7.010
 1585SOL     OW 5653   5.059   6.426   4.308
 1585SOL    HW1 5654   5.073   6.353   4.241
 1585SOL    HW2 5655   5.041   6.512   4.261
 1586SOL     OW 5656   2.252   5.828   3.615
 1586SOL    HW1 5657   2.202   5.914   3.609
 1586SOL    HW2 5658   2.347   5.845   3.640
 1587SOL     OW 5659   3.652   6.290   0.274
 1587SOL    HW1 5660   3.675   6.363   0.337
 1587SOL    HW2 5661   3.577   6.235   0.311
 1588SOL     OW 5662   6.433   1.988   3.739
 1588SOL    HW1 5663   6.423   1.907   3.681
 1588SOL    HW2 5664   6.440   1.959   3.834
 1589SOL     OW 5665   0.259   1.611   4.323
 1589SOL    HW1 5666   0.283   1.632   4.228
 1589SOL    HW2 5667   0.167   1.645   4.342
 1590SOL     OW 5668   5.481   0.541   3.914
 1590SOL    HW1 5669   5.578   0.520   3.926
 1590SOL    HW2 5670   5.452   0.514   3.822
 1591SOL     OW 5671   0.334   5.829   0.409
 1591SOL    HW1 5672   0.319   5.855   0.505
 1591SOL    HW2 5673   0.410   5.882   0.372
 1592SOL     OW 5674   6.688   3.977   4.814
 1592SOL    HW1 5675   6.711   4.051   4.877
 1592SOL    HW2 5676   6.594   3.988   4.783
 1593SOL     OW 5677   3.341   5.691   1.517
 1593SOL    HW1 5678   3.267   5.734   1.567
 1593SOL    HW2 5679   3.417   5.755   1.507
 1594SOL     OW 5680   5.243   1.700   2.784
 1594SOL    HW1 5681   5.230   1.735   2.876
 1594SOL    HW2 5682   5.155   1.675   2.744
 1595SOL     OW 5683   0.176   3.917   6.602
 1595SOL    HW1 5684   0.273   3.914   6.627
 1595SOL    HW2 5685   0.156   3.843   6.538
 1596SOL     OW 5686   5.086   4.478   4.067
 1596SOL    HW1 5687   5.063   4.417   3.991
 1596SOL    HW2 5688   5.050   4.441   4.152
 1597SOL     OW 5689   4.198   6.678   1.247
 1597SOL    HW1 5690   4.283   6.728   1.231
 1597SOL    HW2 5691   4.198   6.640   1.339
 1598SOL     OW 5692   1.027   4.845   5.976
 1598SOL    HW1 5693   1.037   4.912   5.903
 1598SOL    HW2 5694   0.930   4.823   5.988
 1599SOL     OW 5695   5.017   5.272   3.619
 1599SOL    HW1 5696   4.942   5.246   3.679
 1599SOL    HW2 5697   5.104   5.264   3.669
 1600SOL     OW 5698   4.421   0.703   1.309
 1600SOL    HW1 5699   4.354   0.707   1.382
 1600SOL    HW2 5700   4.498   0.763   1.331
 1601SOL     OW 5701   6.334   0.605   4.599
 1601SOL    HW1 5702   6.307   0.665   4.674
 1601SOL    HW2 5703   6.257   0.593   4.537
 1602SOL     OW 5704   4.319   5.836   3.090
 1602SOL    HW1 5705   4.361   5.759   3.138
 1602SOL    HW2 5706   4.374   5.859   3.009
 1603SOL     OW 5707   3.384   4.931   1.873
 1603SOL    HW1 5708   3.446   4.875   1.928
 1603SOL    HW2 5709   3.430   4.961   1.790
 1604SOL     OW 5710   4.439   5.214   2.217
 1604SOL    HW1 5711   4.435   5.183   2.122
 1604SOL    HW2 5712   4.376   5.290   2.230
 1605SOL     OW 5713   4.910   4.735   0.575
 1605SOL    HW1 5714   4.849   4.813   0.592
 1605SOL    HW2 5715   4.938   4.736   0.479
 1606SOL     OW 5716   3.955   6.058   5.114
 1606SOL    HW1 5717   4.027   6.117   5.152
 1606SOL    HW2 5718   3.942   6.081   5.018
 1607SOL     OW 5719   4.839   3.805   3.842
 1607SOL    HW1 5720   4.757   3.758   3.810
 1607SOL    HW2 5721   4.860   3.776   3.936
 1608SOL     OW 5722   6.332   3.132   3.341
 1608SOL    HW1 5723   6.237   3.110   3.361
 1608SOL    HW2 5724   6.357   3.096   3.251
 1609SOL     OW 5725   1.959   0.163   0.647
 1609SOL    HW1 5726   1.875   0.137   0.599
 1609SOL    HW2 5727   1.939   0.237   0.711
 1610SOL     OW 5728   5.828   6.283   1.171
 1610SOL    HW1 5729   5.857   6.358   1.111
 1610SOL    HW2 5730   5.814   6.201   1.116
 1611SOL     OW 5731   0.481   4.447   6.706
 1611SOL    HW1 5732   0.513   4.398   6.625
 1611SOL    HW2 5733   0.557   4.460   6.769
 1612SOL     OW 5734   5.104   1.117   1.567
 1612SOL    HW1 5735   5.148   1.043   1.516
 1612SOL    HW2 5736   5.133   1.113   1.662
 1613SOL     OW 5737   0.239   6.196   2.620
 1613SOL    HW1 5738   0.167   6.126   2.615
 1613SOL    HW2 5739   0.301   6.185   2.542
 1614SOL     OW 5740   5.808   1.600   5.402
 1614SOL    HW1 5741   5.769   1.674   5.457
 1614SOL    HW2 5742   5.907   1.599   5.412
 1615SOL     OW 5743   6.818   3.242   5.124
 1615SOL    HW1 5744   6.811   3.284   5.034
 1615SOL    HW2 5745   6.885   3.292   5.179
 1616SOL     OW 5746   0.881   1.506   3.331
 1616SOL    HW1 5747   0.852   1.595   3.367
 1616SOL    HW2 5748   0.848   1.434   3.392
 1617SOL     OW 5749   6.742   5.483   4.251
 1617SOL    HW1 5750   6.737   5.570   4.300
 1617SOL    HW2 5751   6.700   5.411   4.307
 1618SOL     OW 5752   2.980   5.334   3.285
 1618SOL    HW1 5753   2.966   5.251   3.230
 1618SOL    HW2 5754   2.894   5.383   3.294
 1619SOL     OW 5755   0.718   3.247   6.435
 1619SOL    HW1 5756   0.755   3.336   6.464
 1619SOL    HW2 5757   0.791   3.179   6.440
 1620SOL     OW 5758   2.716   6.931   4.640
 1620SOL    HW1 5759   2.699   0.014   4.635
 1620SOL    HW2 5760   2.634   6.881   4.614
 1621SOL     OW 5761   5.470   4.735   1.225
 1621SOL    HW1 5762   5.529   4.784   1.161
 1621SOL    HW2 5763   5.456   4.790   1.307
 1622SOL     OW 5764   6.706   3.056   3.156
 1622SOL    HW1 5765   6.722   2.960   3.135
 1622SOL    HW2 5766   6.647   3.097   3.086
 1623SOL     OW 5767   0.662   2.570   3.853
 1623SOL    HW1 5768   0.632   2.510   3.778
 1623SOL    HW2 5769   0.727   2.520   3.911
 1624SOL     OW 5770   4.479   2.902   0.469
 1624SOL    HW1 5771   4.477   2.900   0.369
 1624SOL    HW2 5772   4.488   2.997   0.500
 1625SOL     OW 5773   0.914   6.068   0.457
 1625SOL    HW1 5774   0.973   6.149   0.461
 1625SOL    HW2 5775   0.853   6.075   0.378
 1626SOL     OW 5776   2.432   1.785   2.261
 1626SOL    HW1 5777   2.423   1.738   2.174
 1626SOL    HW2 5778   2.405   1.723   2.335
 1627SOL     OW 5779   4.604   1.567   5.911
 1627SOL    HW1 5780   4.633   1.621   5.832
 1627SOL    HW2 5781   4.643   1.475   5.905
 1628SOL     OW 5782   5.416   6.172   1.204
 1628SOL    HW1 5783   5.496   6.190   1.260
 1628SOL    HW2 5784   5.341   6.232   1.232
 1629SOL     OW 5785   1.744   6.899   3.383
 1629SOL    HW1 5786   1.741   6.950   3.469
 1629SOL    HW2 5787   1.766   6.961   3.307
 1630SOL     OW 5788   0.248   4.680   6.342
 1630SOL    HW1 5789   0.341   4.653   6.368
 1630SOL    HW2 5790   0.245   4.779   6.330
 1631SOL     OW 5791   5.159   3.982   0.387
 1631SOL    HW1 5792   5.087   3.962   0.320
 1631SOL    HW2 5793   5.165   4.081   0.401
 1632SOL     OW 5794   6.184   6.536   2.281
 1632SOL    HW1 5795   6.230   6.448   2.269
 1632SOL    HW2 5796   6.145   6.541   2.372
 1633SOL     OW 5797   6.062   3.803   4.429
 1633SOL    HW1 5798   6.114   3.718   4.439
 1633SOL    HW2 5799   6.097   3.855   4.352
 1634SOL     OW 5800   1.428   3.935   6.403
 1634SOL    HW1 5801   1.382   3.942   6.491
 1634SOL    HW2 5802   1.386   3.863   6.348
 1635SOL     OW 5803   2.859   0.529   4.074
 1635SOL    HW1 5804   2.795   0.573   4.136
 1635SOL    HW2 5805   2.868   0.584   3.990
 1636SOL     OW 5806   0.395   6.261   1.703
 1636SOL    HW1 5807   0.342   6.178   1.688
 1636SOL    HW2 5808   0.334   6.340   1.712
 1637SOL     OW 5809   1.282   1.431   1.965
 1637SOL    HW1 5810   1.272   1.406   1.869
 1637SOL    HW2 5811   1.193   1.424   2.010
 1638SOL     OW 5812   5.463   2.286   3.452
 1638SOL    HW1 5813   5.489   2.200   3.408
 1638SOL    HW2 5814   5.542   2.326   3.498
 1639SOL     OW 5815   4.738   2.453   1.087
 1639SOL    HW1 5816   4.787   2.473   1.173
 1639SOL    HW2 5817   4.647   2.493   1.091
 1640SOL     OW 5818   6.418   0.958   0.011
 1640SOL    HW1 5819   6.420   0.932   0.107
 1640SOL    HW2 5820   6.342   1.021   7.010
 1641SOL     OW 5821   5.524   0.957   2.985
 1641SOL    HW1 5822   5.529   1.038   3.042
 1641SOL    HW2 5823   5.525   0.875   3.043
 1642SOL     OW 5824   6.896   3.090   5.673
 1642SOL    HW1 5825   6.832   3.156   5.712
 1642SOL    HW2 5826   6.938   3.128   5.591
 1643SOL     OW 5827   2.464   5.392   4.219
 1643SOL    HW1 5828   2.418   5.305   4.234
 1643SOL    HW2 5829   2.424   5.438   4.139
 1644SOL     OW 5830   5.865   1.985   1.366
 1644SOL    HW1 5831   5.780   1.936   1.345
 1644SOL    HW2 5832   5.941   1.941   1.319
 1645SOL     OW 5833   2.501   0.908   4.569
 1645SOL    HW1 5834   2.423   0.951   4.615
 1645SOL    HW2 5835   2.470   0.866   4.484
 1646SOL     OW 5836   0.542   5.434   1.659
 1646SOL    HW1 5837   0.561   5.367   1.587
 1646SOL    HW2 5838   0.544   5.389   1.748
 1647SOL     OW 5839   6.157   3.287   4.810
 1647SOL    HW1 5840   6.242   3.332   4.836
 1647SOL    HW2 5841   6.119   3.332   4.728
 1648SOL     OW 5842   5.261   6.308   2.217
 1648SOL    HW1 5843   5.270   6.336   2.312
 1648SOL    HW2 5844   5.326   6.234   2.198
 1649SOL     OW 5845   3.829   0.794   3.048
 1649SOL    HW1 5846   3.730   0.787   3.032
 1649SOL    HW2 5847   3.873   0.834   2.968
 1650SOL     OW 5848   2.496   2.572   4.999
 1650SOL    HW1 5849   2.563   2.637   4.962
 1650SOL    HW2 5850   2.410   2.620   5.017
 1651SOL     OW 5851   1.375   2.040   4.051
 1651SOL    HW1 5852   1.328   2.034   4.139
 1651SOL    HW2 5853   1.356   1.958   3.997
 1652SOL     OW 5854   6.895   4.389   1.888
 1652SOL    HW1 5855   6.845   4.469   1.855
 1652SOL    HW2 5856   6.860   4.307   1.844
 1653SOL     OW 5857   6.723   4.610   2.073
 1653SOL    HW1 5858   6.630   4.610   2.112
 1653SOL    HW2 5859   6.770   4.526   2.099
 1654SOL     OW 5860   0.252   3.655   1.917
 1654SOL    HW1 5861   0.247   3.632   2.014
 1654SOL    HW2 5862   0.338   3.703   1.899
 1655SOL     OW 5863   0.143   0.699   6.237
 1655SOL    HW1 5864   0.154   0.693   6.138
 1655SOL    HW2 5865   0.117   0.609   6.273
 1656SOL     OW 5866   2.187   4.048   2.519
 1656SOL    HW1 5867   2.222   4.059   2.612
 1656SOL    HW2 5868   2.247   4.095   2.454
 1657SOL     OW 5869   0.552   1.027   6.215
 1657SOL    HW1 5870   0.607   1.095   6.264
 1657SOL    HW2 5871   0.461   1.064   6.198
 1658SOL     OW 5872   5.402   6.863   5.870
 1658SOL    HW1 5873   5.305   6.885   5.885
 1658SOL    HW2 5874   5.453   6.946   5.849
 1659SOL     OW 5875   3.656   0.437   6.594
 1659SOL    HW1 5876   3.585   0.369   6.573
 1659SOL    HW2 5877   3.612   0.523   6.620
 1660SOL     OW 5878   2.457   0.931   1.960
 1660SOL    HW1 5879   2.420   0.857   2.017
 1660SOL    HW2 5880   2.531   0.895   1.904
 1661SOL     OW 5881   4.787   4.752   3.575
 1661SOL    HW1 5882   4.863   4.738   3.638
 1661SOL    HW2 5883   4.703   4.712   3.613
 1662SOL     OW 5884   0.045   1.684   3.768
 1662SOL    HW1 5885   6.991   1.688   3.695
 1662SOL    HW2 5886   0.049   1.592   3.805
 1663SOL     OW 5887   5.555   3.968   0.849
 1663SOL    HW1 5888   5.583   3.880   0.812
 1663SOL    HW2 5889   5.575   3.971   0.947
 1664SOL     OW 5890   1.324   1.817   6.202
 1664SOL    HW1 5891   1.369   1.747   6.148
 1664SOL    HW2 5892   1.228   1.794   6.214
 1665SOL     OW 5893   2.200   4.098   6.870
 1665SOL    HW1 5894   2.275   4.033   6.881
 1665SOL    HW2 5895   2.155   4.083   6.782
 1666SOL     OW 5896   5.383   6.218   5.653
 1666SOL    HW1 5897   5.440   6.172   5.584
 1666SOL    HW2 5898   5.365   6.155   5.728
 1667SOL     OW 5899   6.790   5.118   0.982
 1667SOL    HW1 5900   6.725   5.175   1.033
 1667SOL    HW2 5901   6.883   5.150   1.000
 1668SOL     OW 5902   6.345   3.505   1.964
 1668SOL    HW1 5903   6.388   3.444   2.031
 1668SOL    HW2 5904   6.330   3.455   1.878
 1669SOL     OW 5905   6.165   2.710   5.153
 1669SOL    HW1 5906   6.137   2.619   5.182
 1669SOL    HW2 5907   6.091   2.753   5.100
 1670SOL     OW 5908   2.912   4.299   5.317
 1670SOL    HW1 5909   2.909   4.385   5.266
 1670SOL    HW2 5910   2.936   4.224   5.255
 1671SOL     OW 5911   5.718   2.303   0.722
 1671SOL    HW1 5912   5.804   2.332   0.681
 1671SOL    HW2 5913   5.712   2.338   0.816
 1672SOL     OW 5914   0.118   2.151   1.451
 1672SOL    HW1 5915   0.198   2.094   1.429
 1672SOL    HW2 5916   0.115   2.228   1.388
 1673SOL     OW 5917   1.459   0.516   5.257
 1673SOL    HW1 5918   1.391   0.564   5.313
 1673SOL    HW2 5919   1.434   0.420   5.250
 1674SOL     OW 5920   4.926   2.293   3.414
 1674SOL    HW1 5921   4.970   2.321   3.328
 1674SOL    HW2 5922   4.906   2.195   3.410
 1675SOL     OW 5923   5.280   0.989   2.099
 1675SOL    HW1 5924   5.187   0.968   2.130
 1675SOL    HW2 5925   5.346   0.955   2.166
 1676SOL     OW 5926   1.071   2.452   4.228
 1676SOL    HW1 5927   1.152   2.474   4.282
 1676SOL    HW2 5928   1.030   2.537   4.193
 1677SOL     OW 5929   3.233   4.041   2.447
 1677SOL    HW1 5930   3.283   4.127   2.439
 1677SOL    HW2 5931   3.182   4.040   2.532
 1678SOL     OW 5932   0.198   6.740   6.824
 1678SOL    HW1 5933   0.129   6.782   6.882
 1678SOL    HW2 5934   0.251   6.811   6.778
 1679SOL     OW 5935   6.079   1.752   0.344
 1679SOL    HW1 5936   6.013   1.737   0.270
 1679SOL    HW2 5937   6.171   1.764   0.305
 1680SOL     OW 5938   6.068   2.303   2.931
 1680SOL    HW1 5939   6.103   2.392   2.903
 1680SOL    HW2 5940   6.001   2.271   2.864
 1681SOL     OW 5941   3.893   6.491   4.676
 1681SOL    HW1 5942   3.965   6.534   4.731
 1681SOL    HW2 5943   3.907   6.513   4.580
 1682SOL     OW 5944   4.081   1.056   4.954
 1682SOL    HW1 5945   4.174   1.022   4.964
 1682SOL    HW2 5946   4.035   1.053   5.043
 1683SOL     OW 5947   1.085   2.886   2.935
 1683SOL    HW1 5948   1.175   2.864   2.972
 1683SOL    HW2 5949   1.063   2.824   2.860
 1684SOL     OW 5950   2.733   5.154   1.350
 1684SOL    HW1 5951   2.791   5.146   1.269
 1684SOL    HW2 5952   2.790   5.170   1.430
 1685SOL     OW 5953   0.203   1.611   5.442
 1685SOL    HW1 5954   0.116   1.658   5.459
 1685SOL    HW2 5955   0.259   1.667   5.381
 1686SOL     OW 5956   3.377   5.206   1.733
 1686SOL    HW1 5957   3.368   5.284   1.795
 1686SOL    HW2 5958   3.473   5.181   1.724
 1687SOL     OW 5959   4.518   4.374   0.452
 1687SOL    HW1 5960   4.595   4.394   0.513
 1687SOL    HW2 5961   4.466   4.296   0.489
 1688SOL     OW 5962   2.853   0.382   3.029
 1688SOL    HW1 5963   2.939   0.431   3.018
 1688SOL    HW2 5964   2.777   0.443   3.007
 1689SOL     OW 5965   4.120   0.509   1.822
 1689SOL    HW1 5966   4.032   0.464   1.835
 1689SOL    HW2 5967   4.134   0.576   1.895
 1690SOL     OW 5968   6.667   5.012   4.003
 1690SOL    HW1 5969   6.635   5.027   4.097
 1690SOL    HW2 5970   6.760   4.974   4.005
 1691SOL     OW 5971   4.146   2.619   5.396
 1691SOL    HW1 5972   4.201   2.562   5.458
 1691SOL    HW2 5973   4.164   2.593   5.302
 1692SOL     OW 5974   6.244   5.153   2.753
 1692SOL    HW1 5975   6.328   5.137   2.702
 1692SOL    HW2 5976   6.207   5.066   2.785
 1693SOL     OW 5977   5.384   6.983   5.510
 1693SOL    HW1 5978   5.411   0.025   5.587
 1693SOL    HW2 5979   5.464   6.934   5.475
 1694SOL     OW 5980   4.680   1.017   6.662
 1694SOL    HW1 5981   4.647   1.059   6.746
 1694SOL    HW2 5982   4.612   1.029   6.590
 1695SOL     OW 5983   4.777   0.238   4.797
 1695SOL    HW1 5984   4.862   0.289   4.788
 1695SOL    HW2 5985   4.699   0.298   4.776
 1696SOL     OW 5986   5.332   6.719   1.053
 1696SOL    HW1 5987   5.279   6.699   0.971
 1696SOL    HW2 5988   5.408   6.654   1.061
 1697SOL     OW 5989   4.328   3.302   1.625
 1697SOL    HW1 5990   4.389   3.241   1.676
 1697SOL    HW2 5991   4.341   3.289   1.527
 1698SOL     OW 5992   4.357   1.119   1.909
 1698SOL    HW1 5993   4.440   1.163   1.875
 1698SOL    HW2 5994   4.287   1.188   1.926
 1699SOL     OW 5995   1.640   0.777   1.025
 1699SOL    HW1 5996   1.594   0.728   1.099
 1699SOL    HW2 5997   1.705   0.843   1.064
 1700SOL     OW 5998   5.405   3.385   2.441
 1700SOL    HW1 5999   5.422   3.477   2.476
 1700SOL    HW2 6000   5.489   3.331   2.450
 1701SOL     OW 6001   0.953   5.330   5.420
 1701SOL    HW1 6002   0.941   5.421   5.461
 1701SOL    HW2 6003   0.881   5.315   5.352
 1702SOL     OW 6004   1.856   2.531   6.721
 1702SOL    HW1 6005   1.790   2.604   6.706
 1702SOL    HW2 6006   1.947   2.570   6.738
 1703SOL     OW 6007   1.469   2.188   2.496
 1703SOL    HW1 6008   1.517   2.247   2.561
 1703SOL    HW2 6009   1.489   2.218   2.402
 1704SOL     OW 6010   3.168   3.048   6.590
 1704SOL    HW1 6011   3.154   3.098   6.505
 1704SOL    HW2 6012   3.258   3.069   6.627
 1705SOL     OW 6013   5.128   3.157   0.616
 1705SOL    HW1 6014   5.177   3.129   0.534
 1705SOL    HW2 6015   5.097   3.252   0.605
 1706SOL     OW 6016   5.472   0.815   6.106
 1706SOL    HW1 6017   5.553   0.864   6.137
 1706SOL    HW2 6018   5.440   0.754   6.179
 1707SOL     OW 6019   3.699   1.340   2.158
 1707SOL    HW1 6020   3.614   1.319   2.109
 1707SOL    HW2 6021   3.684   1.330   2.256
 1708SOL     OW 6022   2.504   4.505   2.023
 1708SOL    HW1 6023   2.598   4.530   2.002
 1708SOL    HW2 6024   2.446   4.522   1.943
 1709SOL     OW 6025   5.264   4.467   1.671
 1709SOL    HW1 6026   5.210   4.385   1.653
 1709SOL    HW2 6027   5.287   4.511   1.585
 1710SOL     OW 6028   4.822   2.768   2.141
 1710SOL    HW1 6029   4.741   2.713   2.164
 1710SOL    HW2 6030   4.792   2.856   2.105
 1711SOL     OW 6031   4.330   5.414   6.847
 1711SOL    HW1 6032   4.409   5.385   6.901
 1711SOL    HW2 6033   4.296   5.338   6.792
 1712SOL     OW 6034   0.583   2.064   2.200
 1712SOL    HW1 6035   0.555   1.994   2.266
 1712SOL    HW2 6036   0.623   2.020   2.119
 1713SOL     OW 6037   2.968   1.756   2.206
 1713SOL    HW1 6038   2.973   1.668   2.253
 1713SOL    HW2 6039   2.964   1.742   2.107
 1714SOL     OW 6040   2.868   4.441   1.251
 1714SOL    HW1 6041   2.931   4.383   1.302
 1714SOL    HW2 6042   2.829   4.511   1.312
 1715SOL     OW 6043   1.548   6.128   1.043
 1715SOL    HW1 6044   1.633   6.133   1.096
 1715SOL    HW2 6045   1.521   6.032   1.033
 1716SOL     OW 6046   5.008   1.346   2.950
 1716SOL    HW1 6047   4.985   1.249   2.957
 1716SOL    HW2 6048   4.928   1.397   2.920
 1717SOL     OW 6049   3.682   5.970   4.018
 1717SOL    HW1 6050   3.588   5.956   4.050
 1717SOL    HW2 6051   3.744   5.970   4.096
 1718SOL     OW 6052   1.827   3.435   1.609
 1718SOL    HW1 6053   1.849   3.338   1.602
 1718SOL    HW2 6054   1.878   3.476   1.684
 1719SOL     OW 6055   1.134   5.030   3.476
 1719SOL    HW1 6056   1.066   5.022   3.548
 1719SOL    HW2 6057   1.131   4.949   3.418
 1720SOL     OW 6058   1.371   2.801   5.188
 1720SOL    HW1 6059   1.425   2.883   5.170
 1720SOL    HW2 6060   1.430   2.721   5.188
 1721SOL     OW 6061   2.420   2.778   0.360
 1721SOL    HW1 6062   2.464   2.858   0.401
 1721SOL    HW2 6063   2.321   2.785   0.373
 1722SOL     OW 6064   3.154   2.014   3.440
 1722SOL    HW1 6065   3.176   1.916   3.443
 1722SOL    HW2 6066   3.176   2.050   3.349
 1723SOL     OW 6067   6.634   4.793   1.404
 1723SOL    HW1 6068   6.693   4.849   1.347
 1723SOL    HW2 6069   6.545   4.837   1.414
 1724SOL     OW 6070   6.058   3.548   0.555
 1724SOL    HW1 6071   6.063   3.636   0.601
 1724SOL    HW2 6072   6.094   3.476   0.615
 1725SOL     OW 6073   1.693   6.543   6.115
 1725SOL    HW1 6074   1.779   6.553   6.064
 1725SOL    HW2 6075   1.711   6.493   6.200
 1726SOL     OW 6076   5.121   5.042   3.938
 1726SOL    HW1 6077   5.119   5.061   4.036
 1726SOL    HW2 6078   5.198   4.982   3.917
 1727SOL     OW 6079   3.066   3.059   3.628
 1727SOL    HW1 6080   2.978   3.012   3.638
 1727SOL    HW2 6081   3.070   3.104   3.539
 1728SOL     OW 6082   5.493   1.982   4.716
 1728SOL    HW1 6083   5.443   2.066   4.738
 1728SOL    HW2 6084   5.574   1.976   4.775
 1729SOL     OW 6085   1.818   3.249   2.753
 1729SOL    HW1 6086   1.792   3.292   2.667
 1729SOL    HW2 6087   1.803   3.150   2.747
 1730SOL     OW 6088   2.645   0.662   4.547
 1730SOL    HW1 6089   2.616   0.757   4.532
 1730SOL    HW2 6090   2.662   0.647   4.645
 1731SOL     OW 6091   5.680   4.565   3.549
 1731SOL    HW1 6092   5.773   4.573   3.513
 1731SOL    HW2 6093   5.615   4.557   3.474
 1732SOL     OW 6094   4.091   3.327   5.174
 1732SOL    HW1 6095   3.998   3.348   5.203
 1732SOL    HW2 6096   4.107   3.229   5.182
 1733SOL     OW 6097   1.191   2.152   6.837
 1733SOL    HW1 6098   1.280   2.106   6.843
 1733SOL    HW2 6099   1.176   2.185   6.744
 1734SOL     OW 6100   0.722   4.238   1.893
 1734SOL    HW1 6101   0.647   4.177   1.868
 1734SOL    HW2 6102   0.722   4.317   1.832
 1735SOL     OW 6103   3.242   5.624   5.748
 1735SOL    HW1 6104   3.287   5.686   5.684
 1735SOL    HW2 6105   3.221   5.673   5.833
 1736SOL     OW 6106   4.835   1.870   5.555
 1736SOL    HW1 6107   4.929   1.845   5.534
 1736SOL    HW2 6108   4.787   1.894   5.471
 1737SOL     OW 6109   2.885   1.114   6.308
 1737SOL    HW1 6110   2.842   1.056   6.377
 1737SOL    HW2 6111   2.868   1.210   6.330
 1738SOL     OW 6112   1.225   3.878   1.897
 1738SOL    HW1 6113   1.316   3.915   1.878
 1738SOL    HW2 6114   1.162   3.953   1.918
 1739SOL     OW 6115   4.566   5.112   2.456
 1739SOL    HW1 6116   4.534   5.167   2.379
 1739SOL    HW2 6117   4.665   5.114   2.460
 1740SOL     OW 6118   6.806   2.258   4.638
 1740SOL    HW1 6119   6.818   2.336   4.698
 1740SOL    HW2 6120   6.813   2.173   4.691
 1741SOL     OW 6121   1.102   3.130   4.476
 1741SOL    HW1 6122   1.084   3.203   4.410
 1741SOL    HW2 6123   1.174   3.070   4.440
 1742SOL     OW 6124   5.858   0.165   6.936
 1742SOL    HW1 6125   5.770   0.212   6.941
 1742SOL    HW2 6126   5.877   0.121   0.009
 1743SOL     OW 6127   1.195   2.145   1.518
 1743SOL    HW1 6128   1.127   2.198   1.468
 1743SOL    HW2 6129   1.212   2.187   1.607
 1744SOL     OW 6130   3.269   1.900   5.074
 1744SOL    HW1 6131   3.336   1.828   5.097
 1744SOL    HW2 6132   3.282   1.978   5.135
 1745SOL     OW 6133   6.475   6.331   0.968
 1745SOL    HW1 6134   6.571   6.345   0.994
 1745SOL    HW2 6135   6.468   6.325   0.869
 1746SOL     OW 6136   2.693   5.339   2.641
 1746SOL    HW1 6137   2.707   5.240   2.643
 1746SOL    HW2 6138   2.704   5.372   2.548
 1747SOL     OW 6139   2.674   6.914   2.199
 1747SOL    HW1 6140   2.636   6.975   2.130
 1747SOL    HW2 6141   2.704   6.829   2.156
 1748SOL     OW 6142   6.788   1.418   3.965
 1748SOL    HW1 6143   6.887   1.425   3.949
 1748SOL    HW2 6144   6.743   1.389   3.881
 1749SOL     OW 6145   6.572   5.031   2.784
 1749SOL    HW1 6146   6.639   5.081   2.839
 1749SOL    HW2 6147   6.604   4.937   2.772
 1750SOL     OW 6148   3.026   1.213   1.016
 1750SOL    HW1 6149   3.118   1.244   0.991
 1750SOL    HW2 6150   2.977   1.288   1.061
 1751SOL     OW 6151   6.369   4.461   4.635
 1751SOL    HW1 6152   6.294   4.484   4.698
 1751SOL    HW2 6153   6.441   4.530   4.642
 1752SOL     OW 6154   6.231   0.913   2.593
 1752SOL    HW1 6155   6.198   0.890   2.502
 1752SOL    HW2 6156   6.164   0.883   2.662
 1753SOL     OW 6157   6.403   1.557   1.457
 1753SOL    HW1 6158   6.502   1.549   1.445
 1753SOL    HW2 6159   6.380   1.648   1.489
 1754SOL     OW 6160   2.451   5.104   3.516
 1754SOL    HW1 6161   2.546   5.098   3.487
 1754SOL    HW2 6162   2.447   5.148   3.606
 1755SOL     OW 6163   6.382   6.072   5.454
 1755SOL    HW1 6164   6.304   6.018   5.421
 1755SOL    HW2 6165   6.386   6.158   5.402
 1756SOL     OW 6166   4.401   6.329   1.501
 1756SOL    HW1 6167   4.410   6.306   1.404
 1756SOL    HW2 6168   4.461   6.406   1.522
 1757SOL     OW 6169   2.814   5.226   4.887
 1757SOL    HW1 6170   2.884   5.282   4.844
 1757SOL    HW2 6171   2.782   5.271   4.971
 1758SOL     OW 6172   0.545   6.099   4.209
 1758SOL    HW1 6173   0.641   6.074   4.225
 1758SOL    HW2 6174   0.509   6.046   4.133
 1759SOL     OW 6175   1.797   5.265   6.355
 1759SOL    HW1 6176   1.793   5.265   6.255
 1759SOL    HW2 6177   1.812   5.358   6.388
 1760SOL     OW 6178   6.005   1.656   3.786
 1760SOL    HW1 6179   5.942   1.716   3.737
 1760SOL    HW2 6180   5.992   1.668   3.885
 1761SOL     OW 6181   5.710   2.262   3.651
 1761SOL    HW1 6182   5.677   2.190   3.712
 1761SOL    HW2 6183   5.803   2.240   3.621
 1762SOL     OW 6184   0.635   1.843   5.774
 1762SOL    HW1 6185   0.561   1.845   5.706
 1762SOL    HW2 6186   0.690   1.760   5.760
 1763SOL     OW 6187   1.586   4.709   3.622
 1763SOL    HW1 6188   1.629   4.678   3.537
 1763SOL    HW2 6189   1.634   4.790   3.656
 1764SOL     OW 6190   1.100   5.627   3.554
 1764SOL    HW1 6191   1.162   5.684   3.608
 1764SOL    HW2 6192   1.095   5.662   3.461
 1765SOL     OW 6193   5.493   4.068   1.848
 1765SOL    HW1 6194   5.531   4.012   1.774
 1765SOL    HW2 6195   5.498   4.165   1.824
 1766SOL     OW 6196   4.163   5.033   3.911
 1766SOL    HW1 6197   4.136   5.022   3.815
 1766SOL    HW2 6198   4.233   5.104   3.918
 1767SOL     OW 6199   1.385   4.254   1.580
 1767SOL    HW1 6200   1.340   4.297   1.502
 1767SOL    HW2 6201   1.472   4.299   1.597
 1768SOL     OW 6202   3.715   4.927   2.980
 1768SOL    HW1 6203   3.798   4.885   2.944
 1768SOL    HW2 6204   3.681   4.874   3.058
 1769SOL     OW 6205   5.557   0.185   1.023
 1769SOL    HW1 6206   5.503   0.199   1.106
 1769SOL    HW2 6207   5.570   0.087   1.007
 1770SOL     OW 6208   2.334   4.589   0.633
 1770SOL    HW1 6209   2.284   4.675   0.642
 1770SOL    HW2 6210   2.401   4.581   0.707
 1771SOL     OW 6211   1.106   3.141   6.052
 1771SOL    HW1 6212   1.028   3.144   5.990
 1771SOL    HW2 6213   1.185   3.184   6.009
 1772SOL     OW 6214   2.592   4.708   2.676
 1772SOL    HW1 6215   2.587   4.687   2.578
 1772SOL    HW2 6216   2.684   4.739   2.699
 1773SOL     OW 6217   2.270   6.829   4.579
 1773SOL    HW1 6218   2.242   6.747   4.629
 1773SOL    HW2 6219   2.253   6.910   4.635
 1774SOL     OW 6220   5.399   5.591   2.211
 1774SOL    HW1 6221   5.355   5.669   2.256
 1774SOL    HW2 6222   5.471   5.624   2.151
 1775SOL     OW 6223   1.576   6.354   0.881
 1775SOL    HW1 6224   1.558   6.268   0.928
 1775SOL    HW2 6225   1.606   6.423   0.948
 1776SOL     OW 6226   4.570   3.042   6.053
 1776SOL    HW1 6227   4.651   3.082   6.096
 1776SOL    HW2 6228   4.597   2.958   6.005
 1777SOL     OW 6229   4.903   5.507   7.014
 1777SOL    HW1 6230   4.917   5.428   6.954
 1777SOL    HW2 6231   4.896   5.476   0.093
 1778SOL     OW 6232   0.189   0.395   2.993
 1778SOL    HW1 6233   0.241   0.425   2.914
 1778SOL    HW2 6234   0.191   0.295   2.999
 1779SOL     OW 6235   6.865   0.269   4.496
 1779SOL    HW1 6236   6.883   0.304   4.588
 1779SOL    HW2 6237   6.846   0.171   4.501
 1780SOL     OW 6238   2.946   6.822   4.453
 1780SOL    HW1 6239   2.978   6.879   4.378
 1780SOL    HW2 6240   2.879   6.873   4.508
 1781SOL     OW 6241   5.014   1.175   6.047
 1781SOL    HW1 6242   5.097   1.152   6.099
 1781SOL    HW2 6243   5.006   1.113   5.969
 1782SOL     OW 6244   4.854   0.482   2.439
 1782SOL    HW1 6245   4.789   0.512   2.369
 1782SOL    HW2 6246   4.877   0.559   2.498
 1783SOL     OW 6247   1.668   3.364   0.206
 1783SOL    HW1 6248   1.573   3.381   0.233
 1783SOL    HW2 6249   1.711   3.304   0.273
 1784SOL     OW 6250   2.195   5.836   1.450
 1784SOL    HW1 6251   2.215   5.746   1.412
 1784SOL    HW2 6252   2.189   5.903   1.376
 1785SOL     OW 6253   1.960   5.511   4.293
 1785SOL    HW1 6254   1.907   5.484   4.213
 1785SOL    HW2 6255   2.025   5.583   4.268
 1786SOL     OW 6256   0.491   5.708   1.772
 1786SOL    HW1 6257   0.518   5.621   1.731
 1786SOL    HW2 6258   0.570   5.770   1.776
 1787SOL     OW 6259   2.432   2.671   6.077
 1787SOL    HW1 6260   2.336   2.665   6.104
 1787SOL    HW2 6261   2.440   2.656   5.978
 1788SOL     OW 6262   3.441   4.383   0.625
 1788SOL    HW1 6263   3.533   4.369   0.662
 1788SOL    HW2 6264   3.376   4.393   0.701
 1789SOL     OW 6265   5.776   2.342   2.268
 1789SOL    HW1 6266   5.850   2.404   2.243
 1789SOL    HW2 6267   5.779   2.260   2.212
 1790SOL     OW 6268   2.467   2.051   4.877
 1790SOL    HW1 6269   2.505   2.144   4.882
 1790SOL    HW2 6270   2.370   2.054   4.901
 1791SOL     OW 6271   6.294   0.465   3.539
 1791SOL    HW1 6272   6.373   0.427   3.490
 1791SOL    HW2 6273   6.215   0.406   3.525
 1792SOL     OW 6274   6.732   2.483   5.826
 1792SOL    HW1 6275   6.828   2.511   5.822
 1792SOL    HW2 6276   6.673   2.562   5.805
 1793SOL     OW 6277   0.541   1.647   4.981
 1793SOL    HW1 6278   0.576   1.737   4.955
 1793SOL    HW2 6279   0.568   1.580   4.912
 1794SOL     OW 6280   6.700   1.837   6.753
 1794SOL    HW1 6281   6.665   1.846   6.847
 1794SOL    HW2 6282   6.753   1.918   6.729
 1795SOL     OW 6283   5.474   4.630   0.580
 1795SOL    HW1 6284   5.414   4.709   0.566
 1795SOL    HW2 6285   5.484   4.580   0.493
 1796SOL     OW 6286   6.158   7.000   6.854
 1796SOL    HW1 6287   6.176   0.056   6.922
 1796SOL    HW2 6288   6.097   0.021   6.784
 1797SOL     OW 6289   3.249   6.300   5.205
 1797SOL    HW1 6290   3.206   6.249   5.131
 1797SOL    HW2 6291   3.346   6.279   5.209
 1798SOL     OW 6292   2.374   3.925   6.537
 1798SOL    HW1 6293   2.455   3.975   6.507
 1798SOL    HW2 6294   2.342   3.963   6.624
 1799SOL     OW 6295   3.401   1.568   2.299
 1799SOL    HW1 6296   3.474   1.632   2.275
 1799SOL    HW2 6297   3.352   1.541   2.216
 1800SOL     OW 6298   5.772   2.209   5.633
 1800SOL    HW1 6299   5.701   2.279   5.644
 1800SOL    HW2 6300   5.775   2.152   5.715
 1801SOL     OW 6301   0.532   1.677   2.285
 1801SOL    HW1 6302   0.466   1.613   2.323
 1801SOL    HW2 6303   0.515   1.768   2.321
 1802SOL     OW 6304   6.390   4.749   4.440
 1802SOL    HW1 6305   6.414   4.693   4.361
 1802SOL    HW2 6306   6.293   4.774   4.435
 1803SOL     OW 6307   0.133   6.368   3.776
 1803SOL    HW1 6308   0.096   6.284   3.735
 1803SOL    HW2 6309   0.227   6.381   3.743
 1804SOL     OW 6310   0.846   2.985   6.601
 1804SOL    HW1 6311   0.875   3.067   6.651
 1804SOL    HW2 6312   0.855   2.905   6.660
 1805SOL     OW 6313   6.546   4.967   5.657
 1805SOL    HW1 6314   6.613   4.911   5.609
 1805SOL    HW2 6315   6.593   5.031   5.717
 1806SOL     OW 6316   0.396   1.399   1.590
 1806SOL    HW1 6317   0.430   1.481   1.636
 1806SOL    HW2 6318   0.305   1.417   1.553
 1807SOL     OW 6319   6.574   2.358   2.138
 1807SOL    HW1 6320   6.559   2.456   2.144
 1807SOL    HW2 6321   6.562   2.317   2.228
 1808SOL     OW 6322   6.401   0.434   6.644
 1808SOL    HW1 6323   6.376   0.488   6.724
 1808SOL    HW2 6324   6.494   0.398   6.654
 1809SOL     OW 6325   4.696   0.368   5.148
 1809SOL    HW1 6326   4.763   0.421   5.096
 1809SOL    HW2 6327   4.732   0.347   5.239
 1810SOL     OW 6328   1.105   1.678   5.145
 1810SOL    HW1 6329   1.169   1.755   5.138
 1810SOL    HW2 6330   1.128   1.609   5.076
 1811SOL     OW 6331   3.401   5.691   1.945
 1811SOL    HW1 6332   3.462   5.676   1.867
 1811SOL    HW2 6333   3.447   5.748   2.014
 1812SOL     OW 6334   4.258   0.802   6.454
 1812SOL    HW1 6335   4.303   0.727   6.406
 1812SOL    HW2 6336   4.288   0.889   6.415
 1813SOL     OW 6337   5.730   3.388   1.903
 1813SOL    HW1 6338   5.722   3.311   1.967
 1813SOL    HW2 6339   5.686   3.469   1.943
 1814SOL     OW 6340   6.534   5.638   0.824
 1814SOL    HW1 6341   6.583   5.696   0.759
 1814SOL    HW2 6342   6.534   5.544   0.790
 1815SOL     OW 6343   6.076   5.302   1.162
 1815SOL    HW1 6344   6.052   5.389   1.205
 1815SOL    HW2 6345   6.055   5.227   1.226
 1816SOL     OW 6346   3.491   4.921   4.422
 1816SOL    HW1 6347   3.437   4.921   4.506
 1816SOL    HW2 6348   3.515   5.015   4.398
 1817SOL     OW 6349   6.869   2.634   3.322
 1817SOL    HW1 6350   6.879   2.573   3.400
 1817SOL    HW2 6351   6.959   2.666   3.293
 1818SOL     OW 6352   2.352   1.829   0.767
 1818SOL    HW1 6353   2.352   1.761   0.694
 1818SOL    HW2 6354   2.445   1.863   0.782
 1819SOL     OW 6355   0.879   3.483   1.393
 1819SOL    HW1 6356   0.956   3.539   1.425
 1819SOL    HW2 6357   0.857   3.414   1.462
 1820SOL     OW 6358   4.045   6.936   5.099
 1820SOL    HW1 6359   4.119   7.001   5.114
 1820SOL    HW2 6360   4.080   6.855   5.052
 1821SOL     OW 6361   3.798   1.182   2.754
 1821SOL    HW1 6362   3.791   1.282   2.747
 1821SOL    HW2 6363   3.850   1.158   2.836
 1822SOL     OW 6364   1.962   4.069   4.550
 1822SOL    HW1 6365   1.929   4.126   4.625
 1822SOL    HW2 6366   1.921   3.978   4.556
 1823SOL     OW 6367   3.734   6.831   3.921
 1823SOL    HW1 6368   3.813   6.892   3.921
 1823SOL    HW2 6369   3.677   6.851   3.842
 1824SOL     OW 6370   4.699   2.718   1.852
 1824SOL    HW1 6371   4.657   2.808   1.835
 1824SOL    HW2 6372   4.776   2.728   1.914
 1825SOL     OW 6373   1.101   3.738   0.391
 1825SOL    HW1 6374   1.112   3.672   0.465
 1825SOL    HW2 6375   1.109   3.692   0.303
 1826SOL     OW 6376   3.424   3.414   0.323
 1826SOL    HW1 6377   3.468   3.402   0.412
 1826SOL    HW2 6378   3.325   3.421   0.336
 1827SOL     OW 6379   5.284   4.693   0.912
 1827SOL    HW1 6380   5.318   4.733   0.997
 1827SOL    HW2 6381   5.355   4.635   0.872
 1828SOL     OW 6382   2.527   5.130   4.955
 1828SOL    HW1 6383   2.618   5.154   4.922
 1828SOL    HW2 6384   2.484   5.211   4.996
 1829SOL     OW 6385   1.820   6.335   2.135
 1829SOL    HW1 6386   1.741   6.359   2.192
 1829SOL    HW2 6387   1.862   6.251   2.170
 1830SOL     OW 6388   4.706   1.263   6.442
 1830SOL    HW1 6389   4.614   1.282   6.405
 1830SOL    HW2 6390   4.722   1.165   6.441
 1831SOL     OW 6391   3.381   4.822   0.102
 1831SOL    HW1 6392   3.296   4.771   0.092
 1831SOL    HW2 6393   3.444   4.770   0.160
 1832SOL     OW 6394   1.994   3.186   5.717
 1832SOL    HW1 6395   2.021   3.267   5.769
 1832SOL    HW2 6396   1.952   3.119   5.777
 1833SOL     OW 6397   5.789   1.150   0.625
 1833SOL    HW1 6398   5.813   1.233   0.674
 1833SOL    HW2 6399   5.857   1.132   0.554
 1834SOL     OW 6400   2.000   4.115   6.383
 1834SOL    HW1 6401   2.059   4.134   6.305
 1834SOL    HW2 6402   2.014   4.020   6.412
 1835SOL     OW 6403   6.604   0.106   0.178
 1835SOL    HW1 6404   6.509   0.127   0.204
 1835SOL    HW2 6405   6.662   0.113   0.259
 1836SOL     OW 6406   5.921   1.461   4.237
 1836SOL    HW1 6407   5.846   1.482   4.173
 1836SOL    HW2 6408   6.002   1.434   4.186
 1837SOL     OW 6409   0.952   1.972   0.651
 1837SOL    HW1 6410   0.923   1.927   0.736
 1837SOL    HW2 6411   1.003   2.056   0.674
 1838SOL     OW 6412   5.269   0.328   0.990
 1838SOL    HW1 6413   5.184   0.332   1.044
 1838SOL    HW2 6414   5.255   0.268   0.911
 1839SOL     OW 6415   0.060   1.525   6.172
 1839SOL    HW1 6416   0.001   1.567   6.103
 1839SOL    HW2 6417   0.038   1.428   6.181
 1840SOL     OW 6418   2.947   0.439   5.110
 1840SOL    HW1 6419   3.002   0.378   5.054
 1840SOL    HW2 6420   2.984   0.532   5.106
 1841SOL     OW 6421   2.410   6.984   1.717
 1841SOL    HW1 6422   2.394   0.067   1.719
 1841SOL    HW2 6423   2.501   6.965   1.754
 1842SOL     OW 6424   0.081   4.723   1.517
 1842SOL    HW1 6425   0.048   4.680   1.433
 1842SOL    HW2 6426   0.181   4.720   1.519
 1843SOL     OW 6427   3.121   0.820   6.659
 1843SOL    HW1 6428   3.187   0.892   6.676
 1843SOL    HW2 6429   3.086   0.786   6.746
 1844SOL     OW 6430   5.019   3.437   0.509
 1844SOL    HW1 6431   4.922   3.412   0.503
 1844SOL    HW2 6432   5.029   3.534   0.489
 1845SOL     OW 6433   1.011   2.481   4.633
 1845SOL    HW1 6434   0.943   2.448   4.698
 1845SOL    HW2 6435   1.075   2.541   4.680
 1846SOL     OW 6436   3.707   1.583   2.453
 1846SOL    HW1 6437   3.644   1.595   2.529
 1846SOL    HW2 6438   3.664   1.616   2.369
 1847SOL     OW 6439   3.192   5.929   6.648
 1847SOL    HW1 6440   3.127   5.954   6.720
 1847SOL    HW2 6441   3.251   6.007   6.629
 1848SOL     OW 6442   3.034   5.931   4.618
 1848SOL    HW1 6443   3.113   5.949   4.559
 1848SOL    HW2 6444   2.953   5.973   4.578
 1849SOL     OW 6445   4.789   2.803   2.426
 1849SOL    HW1 6446   4.884   2.778   2.448
 1849SOL    HW2 6447   4.776   2.798   2.327
 1850SOL     OW 6448   4.819   1.608   0.956
 1850SOL    HW1 6449   4.805   1.661   1.040
 1850SOL    HW2 6450   4.739   1.618   0.896
 1851SOL     OW 6451   0.832   4.907   4.080
 1851SOL    HW1 6452   0.797   4.984   4.133
 1851SOL    HW2 6453   0.931   4.916   4.071
 1852SOL     OW 6454   0.794   6.947   3.392
 1852SOL    HW1 6455   0.723   6.965   3.324
 1852SOL    HW2 6456   0.806   6.848   3.401
 1853SOL     OW 6457   0.669   1.731   5.478
 1853SOL    HW1 6458   0.759   1.766   5.504
 1853SOL    HW2 6459   0.598   1.792   5.512
 1854SOL     OW 6460   0.400   0.055   4.164
 1854SOL    HW1 6461   0.394   0.124   4.236
 1854SOL    HW2 6462   0.466   0.085   4.095
 1855SOL     OW 6463   6.616   1.289   5.174
 1855SOL    HW1 6464   6.617   1.358   5.246
 1855SOL    HW2 6465   6.608   1.333   5.085
 1856SOL     OW 6466   5.160   3.949   6.645
 1856SOL    HW1 6467   5.160   3.855   6.611
 1856SOL    HW2 6468   5.093   3.957   6.719
 1857SOL     OW 6469   4.720   0.738   6.661
 1857SOL    HW1 6470   4.686   0.832   6.662
 1857SOL    HW2 6471   4.779   0.724   6.581
 1858SOL     OW 6472   5.655   2.200   4.497
 1858SOL    HW1 6473   5.644   2.236   4.590
 1858SOL    HW2 6474   5.573   2.147   4.473
 1859SOL     OW 6475   6.363   6.342   2.560
 1859SOL    HW1 6476   6.296   6.416   2.559
 1859SOL    HW2 6477   6.315   6.254   2.556
 1860SOL     OW 6478   2.235   0.930   0.013
 1860SOL    HW1 6479   2.328   0.921   6.993
 1860SOL    HW2 6480   2.187   0.843   0.002
 1861SOL     OW 6481   6.538   6.377   5.241
 1861SOL    HW1 6482   6.634   6.369   5.268
 1861SOL    HW2 6483   6.502   6.286   5.219
 1862SOL     OW 6484   4.008   5.186   5.650
 1862SOL    HW1 6485   3.997   5.136   5.563
 1862SOL    HW2 6486   4.079   5.142   5.704
 1863SOL     OW 6487   6.840   1.287   1.559
 1863SOL    HW1 6488   6.821   1.260   1.465
 1863SOL    HW2 6489   6.839   1.206   1.618
 1864SOL     OW 6490   2.316   6.024   2.836
 1864SOL    HW1 6491   2.309   6.108   2.890
 1864SOL    HW2 6492   2.325   5.945   2.898
 1865SOL     OW 6493   6.229   2.735   5.576
 1865SOL    HW1 6494   6.283   2.651   5.579
 1865SOL    HW2 6495   6.286   2.811   5.547
 1866SOL     OW 6496   0.482   3.961   5.187
 1866SOL    HW1 6497   0.494   3.972   5.285
 1866SOL    HW2 6498   0.392   3.996   5.160
 1867SOL     OW 6499   1.219   0.841   1.432
 1867SOL    HW1 6500   1.199   0.854   1.334
 1867SOL    HW2 6501   1.133   0.839   1.483
 1868SOL     OW 6502   5.616   3.398   5.788
 1868SOL    HW1 6503   5.615   3.472   5.856
 1868SOL    HW2 6504   5.620   3.437   5.696
 1869SOL     OW 6505   4.948   0.343   5.622
 1869SOL    HW1 6506   4.983   0.387   5.704
 1869SOL    HW2 6507   4.881   0.403   5.578
 1870SOL     OW 6508   5.693   0.882   5.678
 1870SOL    HW1 6509   5.741   0.909   5.595
 1870SOL    HW2 6510   5.754   0.825   5.734
 1871SOL     OW 6511   2.421   4.841   6.888
 1871SOL    HW1 6512   2.426   4.741   6.890
 1871SOL    HW2 6513   2.451   4.874   6.799
 1872SOL     OW 6514   2.420   3.543   0.895
 1872SOL    HW1 6515   2.400   3.465   0.955
 1872SOL    HW2 6516   2.497   3.520   0.836
 1873SOL     OW 6517   6.033   1.718   2.410
 1873SOL    HW1 6518   5.947   1.758   2.378
 1873SOL    HW2 6519   6.015   1.658   2.488
 1874SOL     OW 6520   2.083   5.124   6.311
 1874SOL    HW1 6521   2.021   5.115   6.233
 1874SOL    HW2 6522   2.063   5.053   6.378
 1875SOL     OW 6523   1.202   6.402   2.120
 1875SOL    HW1 6524   1.264   6.438   2.189
 1875SOL    HW2 6525   1.174   6.310   2.144
 1876SOL     OW 6526   1.143   4.799   6.206
 1876SOL    HW1 6527   1.169   4.703   6.204
 1876SOL    HW2 6528   1.078   4.818   6.132
 1877SOL     OW 6529   0.804   0.926   3.253
 1877SOL    HW1 6530   0.825   0.832   3.224
 1877SOL    HW2 6531   0.887   0.982   3.246
 1878SOL     OW 6532   5.788   4.129   4.080
 1878SOL    HW1 6533   5.871   4.138   4.135
 1878SOL    HW2 6534   5.757   4.034   4.082
 1879SOL     OW 6535   4.008   6.538   5.469
 1879SOL    HW1 6536   4.062   6.582   5.542
 1879SOL    HW2 6537   3.916   6.518   5.503
 1880SOL     OW 6538   1.781   3.290   4.525
 1880SOL    HW1 6539   1.832   3.339   4.596
 1880SOL    HW2 6540   1.822   3.311   4.436
 1881SOL     OW 6541   1.913   1.924   3.572
 1881SOL    HW1 6542   1.984   1.882   3.516
 1881SOL    HW2 6543   1.825   1.880   3.554
 1882SOL     OW 6544   3.926   6.310   0.816
 1882SOL    HW1 6545   3.924   6.244   0.742
 1882SOL    HW2 6546   3.952   6.400   0.780
 1883SOL     OW 6547   2.007   3.292   2.413
 1883SOL    HW1 6548   2.073   3.340   2.470
 1883SOL    HW2 6549   2.037   3.297   2.317
 1884SOL     OW 6550   4.941   0.605   6.833
 1884SOL    HW1 6551   4.924   0.531   6.897
 1884SOL    HW2 6552   4.865   0.670   6.836
 1885SOL     OW 6553   0.309   1.616   0.922
 1885SOL    HW1 6554   0.364   1.686   0.878
 1885SOL    HW2 6555   0.361   1.574   0.996
 1886SOL     OW 6556   3.508   2.947   4.802
 1886SOL    HW1 6557   3.604   2.934   4.781
 1886SOL    HW2 6558   3.488   2.910   4.893
 1887SOL     OW 6559   0.720   6.177   5.183
 1887SOL    HW1 6560   0.723   6.091   5.234
 1887SOL    HW2 6561   0.714   6.253   5.247
 1888SOL     OW 6562   2.170   1.411   6.055
 1888SOL    HW1 6563   2.207   1.422   6.148
 1888SOL    HW2 6564   2.111   1.488   6.034
 1889SOL     OW 6565   3.684   3.644   6.977
 1889SOL    HW1 6566   3.716   3.567   6.921
 1889SOL    HW2 6567   3.595   3.675   6.944
 1890SOL     OW 6568   6.189   6.019   6.517
 1890SOL    HW1 6569   6.217   6.069   6.435
 1890SOL    HW2 6570   6.106   5.968   6.499
 1891SOL     OW 6571   5.377   3.668   6.517
 1891SOL    HW1 6572   5.437   3.633   6.445
 1891SOL    HW2 6573   5.373   3.768   6.510
 1892SOL     OW 6574   4.314   0.610   3.144
 1892SOL    HW1 6575   4.293   0.580   3.237
 1892SOL    HW2 6576   4.245   0.675   3.114
 1893SOL     OW 6577   2.938   2.004   6.882
 1893SOL    HW1 6578   2.892   2.080   6.837
 1893SOL    HW2 6579   2.886   1.920   6.866
 1894SOL     OW 6580   4.893   3.060   0.694
 1894SOL    HW1 6581   4.884   3.048   0.793
 1894SOL    HW2 6582   4.988   3.077   0.671
 1895SOL     OW 6583   4.947   5.532   3.336
 1895SOL    HW1 6584   5.042   5.546   3.362
 1895SOL    HW2 6585   4.925   5.435   3.338
 1896SOL     OW 6586   6.605   1.407   4.941
 1896SOL    HW1 6587   6.588   1.506   4.950
 1896SOL    HW2 6588   6.538   1.367   4.880
 1897SOL     OW 6589   5.358   5.624   3.059
 1897SOL    HW1 6590   5.304   5.548   3.096
 1897SOL    HW2 6591   5.378   5.606   2.962
 1898SOL     OW 6592   5.796   6.392   6.926
 1898SOL    HW1 6593   5.697   6.386   6.928
 1898SOL    HW2 6594   5.825   6.450   6.850
 1899SOL     OW 6595   2.275   2.829   3.520
 1899SOL    HW1 6596   2.326   2.826   3.606
 1899SOL    HW2 6597   2.193   2.773   3.528
 1900SOL     OW 6598   2.734   5.440   1.497
 1900SOL    HW1 6599   2.797   5.365   1.512
 1900SOL    HW2 6600   2.760   5.490   1.414
 1901SOL     OW 6601   0.827   1.169   6.069
 1901SOL    HW1 6602   0.752   1.105   6.049
 1901SOL    HW2 6603   0.913   1.131   6.035
 1902SOL     OW 6604   1.690   2.384   4.512
 1902SOL    HW1 6605   1.768   2.442   4.493
 1902SOL    HW2 6606   1.717   2.313   4.578
 1903SOL     OW 6607   6.408   5.638   3.813
 1903SOL    HW1 6608   6.319   5.684   3.810
 1903SOL    HW2 6609   6.465   5.680   3.884
 1904SOL     OW 6610   0.715   0.603   4.000
 1904SOL    HW1 6611   0.729   0.689   4.049
 1904SOL    HW2 6612   0.767   0.531   4.045
 1905SOL     OW 6613   5.971   3.143   5.706
 1905SOL    HW1 6614   5.914   3.116   5.629
 1905SOL    HW2 6615   6.040   3.072   5.723
 1906SOL     OW 6616   2.687   6.641   5.290
 1906SOL    HW1 6617   2.707   6.738   5.302
 1906SOL    HW2 6618   2.736   6.588   5.359
 1907SOL     OW 6619   4.440   6.778   3.225
 1907SOL    HW1 6620   4.464   6.803   3.319
 1907SOL    HW2 6621   4.343   6.795   3.210
 1908SOL     OW 6622   4.899   5.075   0.328
 1908SOL    HW1 6623   4.860   5.150   0.274
 1908SOL    HW2 6624   4.974   5.110   0.385
 1909SOL     OW 6625   5.198   5.506   3.484
 1909SOL    HW1 6626   5.280   5.455   3.458
 1909SOL    HW2 6627   5.181   5.493   3.582
 1910SOL     OW 6628   4.817   3.924   4.364
 1910SOL    HW1 6629   4.810   3.859   4.440
 1910SOL    HW2 6630   4.788   3.880   4.279
 1911SOL     OW 6631   0.887   2.494   5.664
 1911SOL    HW1 6632   0.933   2.467   5.579
 1911SOL    HW2 6633   0.791   2.469   5.659
 1912SOL     OW 6634   2.900   6.416   2.487
 1912SOL    HW1 6635   2.834   6.367   2.544
 1912SOL    HW2 6636   2.869   6.416   2.392
 1913SOL     OW 6637   2.692   3.931   6.739
 1913SOL    HW1 6638   2.676   3.847   6.687
 1913SOL    HW2 6639   2.786   3.932   6.772
 1914SOL     OW 6640   4.457   1.423   4.804
 1914SOL    HW1 6641   4.446   1.386   4.711
 1914SOL    HW2 6642   4.368   1.451   4.839
 1915SOL     OW 6643   2.812   6.511   5.475
 1915SOL    HW1 6644   2.890   6.570   5.457
 1915SOL    HW2 6645   2.780   6.525   5.569
 1916SOL     OW 6646   3.121   6.418   2.286
 1916SOL    HW1 6647   3.163   6.443   2.373
 1916SOL    HW2 6648   3.022   6.407   2.299
 1917SOL     OW 6649   3.577   4.131   3.897
 1917SOL    HW1 6650   3.634   4.132   3.815
 1917SOL    HW2 6651   3.635   4.113   3.977
 1918SOL     OW 6652   0.650   6.359   5.750
 1918SOL    HW1 6653   0.740   6.317   5.749
 1918SOL    HW2 6654   0.603   6.335   5.835
 1919SOL     OW 6655   5.801   0.819   1.872
 1919SOL    HW1 6656   5.837   0.903   1.911
 1919SOL    HW2 6657   5.870   0.747   1.879
 1920SOL     OW 6658   6.749   6.133   4.574
 1920SOL    HW1 6659   6.838   6.124   4.617
 1920SOL    HW2 6660   6.696   6.204   4.621
 1921SOL     OW 6661   2.341   6.255   0.375
 1921SOL    HW1 6662   2.263   6.316   0.393
 1921SOL    HW2 6663   2.402   6.299   0.310
 1922SOL     OW 6664   3.737   4.634   0.030
 1922SOL    HW1 6665   3.659   4.648   0.091
 1922SOL    HW2 6666   3.728   4.694   6.966
 1923SOL     OW 6667   1.930   3.059   0.949
 1923SOL    HW1 6668   1.872   2.988   0.990
 1923SOL    HW2 6669   1.908   3.066   0.851
 1924SOL     OW 6670   0.585   3.545   1.497
 1924SOL    HW1 6671   0.604   3.520   1.592
 1924SOL    HW2 6672   0.602   3.466   1.437
 1925SOL     OW 6673   3.091   4.203   0.561
 1925SOL    HW1 6674   3.092   4.293   0.518
 1925SOL    HW2 6675   3.184   4.164   0.560
 1926SOL     OW 6676   0.601   0.671   3.773
 1926SOL    HW1 6677   0.661   0.639   3.846
 1926SOL    HW2 6678   0.515   0.622   3.776
 1927SOL     OW 6679   5.254   3.409   1.430
 1927SOL    HW1 6680   5.217   3.344   1.364
 1927SOL    HW2 6681   5.195   3.412   1.511
 1928SOL     OW 6682   0.093   5.246   4.637
 1928SOL    HW1 6683   0.049   5.203   4.716
 1928SOL    HW2 6684   0.043   5.329   4.611
 1929SOL     OW 6685   0.557   4.959   2.991
 1929SOL    HW1 6686   0.461   4.953   2.962
 1929SOL    HW2 6687   0.580   5.054   3.009
 1930SOL     OW 6688   6.849   5.456   5.649
 1930SOL    HW1 6689   6.841   5.443   5.748
 1930SOL    HW2 6690   6.780   5.522   5.618
 1931SOL     OW 6691   2.093   2.271   4.325
 1931SOL    HW1 6692   2.134   2.322   4.401
 1931SOL    HW2 6693   2.015   2.219   4.359
 1932SOL     OW 6694   5.739   3.426   2.243
 1932SOL    HW1 6695   5.835   3.442   2.220
 1932SOL    HW2 6696   5.725   3.444   2.341
 1933SOL     OW 6697   3.260   5.037   0.247
 1933SOL    HW1 6698   3.305   4.955   0.212
 1933SOL    HW2 6699   3.166   5.040   0.214
 1934SOL     OW 6700   0.351   6.080   2.822
 1934SOL    HW1 6701   0.309   6.141   2.754
 1934SOL    HW2 6702   0.423   6.129   2.871
 1935SOL     OW 6703   1.093   0.892   3.196
 1935SOL    HW1 6704   1.064   0.956   3.125
 1935SOL    HW2 6705   1.187   0.912   3.222
 1936SOL     OW 6706   0.470   5.667   5.171
 1936SOL    HW1 6707   0.545   5.677   5.236
 1936SOL    HW2 6708   0.440   5.758   5.140
 1937SOL     OW 6709   4.586   1.855   2.941
 1937SOL    HW1 6710   4.540   1.880   2.856
 1937SOL    HW2 6711   4.668   1.912   2.953
 1938SOL     OW 6712   5.554   0.057   3.696
 1938SOL    HW1 6713   5.530   0.059   3.599
 1938SOL    HW2 6714   5.479   0.094   3.750
 1939SOL     OW 6715   2.736   0.194   4.587
 1939SOL    HW1 6716   2.833   0.207   4.610
 1939SOL    HW2 6717   2.680   0.257   4.641
 1940SOL     OW 6718   6.294   6.443   6.589
 1940SOL    HW1 6719   6.366   6.463   6.656
 1940SOL    HW2 6720   6.304   6.503   6.510
 1941SOL     OW 6721   4.536   4.847   2.466
 1941SOL    HW1 6722   4.632   4.822   2.453
 1941SOL    HW2 6723   4.528   4.946   2.465
 1942SOL     OW 6724   0.064   3.657   2.451
 1942SOL    HW1 6725   0.051   3.725   2.524
 1942SOL    HW2 6726   0.001   3.676   2.376
 1943SOL     OW 6727   3.329   5.327   3.297
 1943SOL    HW1 6728   3.396   5.320   3.372
 1943SOL    HW2 6729   3.296   5.421   3.291
 1944SOL     OW 6730   0.253   6.342   2.083
 1944SOL    HW1 6731   0.187   6.282   2.037
 1944SOL    HW2 6732   0.249   6.326   2.181
 1945SOL     OW 6733   3.035   4.868   2.859
 1945SOL    HW1 6734   3.117   4.897   2.908
 1945SOL    HW2 6735   2.956   4.873   2.920
 1946SOL     OW 6736   1.936   6.824   6.723
 1946SOL    HW1 6737   2.012   6.814   6.787
 1946SOL    HW2 6738   1.850   6.831   6.774
 1947SOL     OW 6739   4.413   0.846   3.472
 1947SOL    HW1 6740   4.350   0.920   3.496
 1947SOL    HW2 6741   4.366   0.758   3.477
 1948SOL     OW 6742   6.237   3.211   5.465
 1948SOL    HW1 6743   6.167   3.142   5.447
 1948SOL    HW2 6744   6.328   3.170   5.453
 1949SOL     OW 6745   4.618   3.381   6.553
 1949SOL    HW1 6746   4.592   3.308   6.616
 1949SOL    HW2 6747   4.718   3.389   6.551
 1950SOL     OW 6748   3.167   5.500   0.561
 1950SOL    HW1 6749   3.260   5.498   0.524
 1950SOL    HW2 6750   3.117   5.419   0.529
 1951SOL     OW 6751   5.943   2.902   0.161
 1951SOL    HW1 6752   5.899   2.944   0.240
 1951SOL    HW2 6753   5.874   2.882   0.092
 1952SOL     OW 6754   3.314   2.890   4.198
 1952SOL    HW1 6755   3.243   2.955   4.172
 1952SOL    HW2 6756   3.316   2.881   4.298
 1953SOL     OW 6757   0.820   2.154   4.048
 1953SOL    HW1 6758   0.785   2.106   3.968
 1953SOL    HW2 6759   0.859   2.087   4.112
 1954SOL     OW 6760   2.233   1.644   4.224
 1954SOL    HW1 6761   2.179   1.616   4.303
 1954SOL    HW2 6762   2.215   1.740   4.204
 1955SOL     OW 6763   6.248   5.739   2.364
 1955SOL    HW1 6764   6.286   5.707   2.277
 1955SOL    HW2 6765   6.250   5.664   2.431
 1956SOL     OW 6766   4.725   6.107   3.054
 1956SOL    HW1 6767   4.636   6.101   3.100
 1956SOL    HW2 6768   4.751   6.203   3.044
 1957SOL     OW 6769   2.497   6.245   5.142
 1957SOL    HW1 6770   2.581   6.190   5.138
 1957SOL    HW2 6771   2.478   6.270   5.237
 1958SOL     OW 6772   3.699   3.754   6.410
 1958SOL    HW1 6773   3.788   3.735   6.452
 1958SOL    HW2 6774   3.651   3.824   6.462
 1959SOL     OW 6775   2.663   0.542   0.662
 1959SOL    HW1 6776   2.722   0.480   0.714
 1959SOL    HW2 6777   2.632   0.496   0.579
 1960SOL     OW 6778   5.308   5.515   2.647
 1960SOL    HW1 6779   5.227   5.563   2.682
 1960SOL    HW2 6780   5.380   5.518   2.716
 1961SOL     OW 6781   5.374   5.012   5.728
 1961SOL    HW1 6782   5.376   4.975   5.821
 1961SOL    HW2 6783   5.332   5.103   5.729
 1962SOL     OW 6784   0.054   6.695   4.462
 1962SOL    HW1 6785   0.026   6.634   4.388
 1962SOL    HW2 6786   0.107   6.771   4.424
 1963SOL     OW 6787   2.559   1.313   3.949
 1963SOL    HW1 6788   2.653   1.313   3.984
 1963SOL    HW2 6789   2.559   1.277   3.856
 1964SOL     OW 6790   6.502   3.096   2.481
 1964SOL    HW1 6791   6.491   3.183   2.434
 1964SOL    HW2 6792   6.425   3.081   2.543
 1965SOL     OW 6793   2.362   6.533   3.589
 1965SOL    HW1 6794   2.446   6.485   3.613
 1965SOL    HW2 6795   2.283   6.475   3.611
 1966SOL     OW 6796   6.671   6.874   6.697
 1966SOL    HW1 6797   6.664   6.813   6.618
 1966SOL    HW2 6798   6.592   6.858   6.757
 1967SOL     OW 6799   5.652   2.864   5.063
 1967SOL    HW1 6800   5.695   2.896   4.979
 1967SOL    HW2 6801   5.623   2.943   5.118
 1968SOL     OW 6802   4.202   5.548   4.857
 1968SOL    HW1 6803   4.137   5.624   4.863
 1968SOL    HW2 6804   4.151   5.462   4.847
 1969SOL     OW 6805   6.581   1.367   1.630
 1969SOL    HW1 6806   6.569   1.465   1.645
 1969SOL    HW2 6807   6.677   1.347   1.610
 1970SOL     OW 6808   1.846   0.733   3.837
 1970SOL    HW1 6809   1.794   0.817   3.828
 1970SOL    HW2 6810   1.822   0.687   3.923
 1971SOL     OW 6811   7.015   1.268   6.196
 1971SOL    HW1 6812   0.037   1.246   6.286
 1971SOL    HW2 6813   0.050   1.218   6.126
 1972SOL     OW 6814   1.337   6.871   3.792
 1972SOL    HW1 6815   1.385   6.940   3.738
 1972SOL    HW2 6816   1.238   6.882   3.779
 1973SOL     OW 6817   2.535   3.275   0.486
 1973SOL    HW1 6818   2.530   3.176   0.495
 1973SOL    HW2 6819   2.466   3.317   0.545
 1974SOL     OW 6820   6.524   6.537   4.349
 1974SOL    HW1 6821   6.473   6.453   4.370
 1974SOL    HW2 6822   6.459   6.609   4.323
 1975SOL     OW 6823   2.616   6.805   3.325
 1975SOL    HW1 6824   2.658   6.893   3.345
 1975SOL    HW2 6825   2.537   6.792   3.385
 1976SOL     OW 6826   6.628   4.532   5.830
 1976SOL    HW1 6827   6.669   4.613   5.873
 1976SOL    HW2 6828   6.593   4.471   5.900
 1977SOL     OW 6829   3.290   2.120   5.236
 1977SOL    HW1 6830   3.225   2.186   5.196
 1977SOL    HW2 6831   3.326   2.157   5.321
 1978SOL     OW 6832   6.748   2.685   5.092
 1978SOL    HW1 6833   6.814   2.732   5.151
 1978SOL    HW2 6834   6.673   2.650   5.148
 1979SOL     OW 6835   6.536   3.991   2.355
 1979SOL    HW1 6836   6.610   3.975   2.421
 1979SOL    HW2 6837   6.555   4.076   2.305
 1980SOL     OW 6838   2.663   0.838   2.481
 1980SOL    HW1 6839   2.744   0.788   2.451
 1980SOL    HW2 6840   2.595   0.838   2.408
 1981SOL     OW 6841   5.638   3.220   2.103
 1981SOL    HW1 6842   5.662   3.299   2.160
 1981SOL    HW2 6843   5.658   3.136   2.154
 1982SOL     OW 6844   0.132   0.106   5.468
 1982SOL    HW1 6845   0.059   0.044   5.495
 1982SOL    HW2 6846   0.163   0.083   5.375
 1983SOL     OW 6847   0.928   4.330   1.529
 1983SOL    HW1 6848   0.976   4.247   1.560
 1983SOL    HW2 6849   0.985   4.410   1.549
 1984SOL     OW 6850   4.638   0.753   5.369
 1984SOL    HW1 6851   4.551   0.719   5.406
 1984SOL    HW2 6852   4.694   0.789   5.444
 1985SOL     OW 6853   1.703   5.798   1.669
 1985SOL    HW1 6854   1.645   5.717   1.656
 1985SOL    HW2 6855   1.790   5.771   1.709
 1986SOL     OW 6856   6.862   2.770   0.593
 1986SOL    HW1 6857   6.897   2.852   0.549
 1986SOL    HW2 6858   6.846   2.789   0.690
 1987SOL     OW 6859   2.519   3.628   6.900
 1987SOL    HW1 6860   2.542   3.682   6.981
 1987SOL    HW2 6861   2.602   3.595   6.857
 1988SOL     OW 6862   4.942   2.961   0.964
 1988SOL    HW1 6863   5.041   2.974   0.964
 1988SOL    HW2 6864   4.906   2.980   1.056
 1989SOL     OW 6865   1.993   2.469   3.800
 1989SOL    HW1 6866   2.042   2.556   3.789
 1989SOL    HW2 6867   1.921   2.481   3.868
 1990SOL     OW 6868   1.041   0.720   3.446
 1990SOL    HW1 6869   1.116   0.659   3.419
 1990SOL    HW2 6870   1.052   0.809   3.402
 1991SOL     OW 6871   4.426   6.215   2.850
 1991SOL    HW1 6872   4.439   6.119   2.872
 1991SOL    HW2 6873   4.334   6.230   2.814
 1992SOL     OW 6874   2.659   5.345   5.556
 1992SOL    HW1 6875   2.683   5.263   5.504
 1992SOL    HW2 6876   2.577   5.327   5.610
 1993SOL     OW 6877   3.107   3.307   3.998
 1993SOL    HW1 6878   3.034   3.311   3.930
 1993SOL    HW2 6879   3.194   3.288   3.953
 1994SOL     OW 6880   6.330   2.088   2.233
 1994SOL    HW1 6881   6.281   2.040   2.307
 1994SOL    HW2 6882   6.407   2.139   2.271
 1995SOL     OW 6883   3.707   2.195   1.375
 1995SOL    HW1 6884   3.637   2.131   1.407
 1995SOL    HW2 6885   3.780   2.202   1.443
 1996SOL     OW 6886   2.469   4.397   5.079
 1996SOL    HW1 6887   2.466   4.362   5.172
 1996SOL    HW2 6888   2.555   4.446   5.064
 1997SOL     OW 6889   5.928   5.924   4.318
 1997SOL    HW1 6890   5.935   6.021   4.345
 1997SOL    HW2 6891   5.893   5.918   4.225
 1998SOL     OW 6892   2.918   4.914   5.050
 1998SOL    HW1 6893   2.890   4.818   5.046
 1998SOL    HW2 6894   2.988   4.932   4.981
 1999SOL     OW 6895   2.159   1.507   2.180
 1999SOL    HW1 6896   2.172   1.606   2.178
 1999SOL    HW2 6897   2.159   1.471   2.087
 2000SOL     OW 6898   3.020   1.146   5.135
 2000SOL    HW1 6899   3.044   1.087   5.058
 2000SOL    HW2 6900   2.921   1.145   5.149
 2001SOL     OW 6901   2.276   2.797   6.751
 2001SOL    HW1 6902   2.350   2.766   6.811
 2001SOL    HW2 6903   2.278   2.745   6.666
 2002SOL     OW 6904   1.297   4.995   4.648
 2002SOL    HW1 6905   1.395   4.984   4.630
 2002SOL    HW2 6906   1.256   4.906   4.666
 2003SOL     OW 6907   6.561   3.996   3.622
 2003SOL    HW1 6908   6.638   3.955   3.573
 2003SOL    HW2 6909   6.475   3.959   3.587
 2004SOL     OW 6910   3.478   0.078   6.957
 2004SOL    HW1 6911   3.537   7.013   6.950
 2004SOL    HW2 6912   3.474   0.108   0.037
 2005SOL     OW 6913   2.920   6.137   5.148
 2005SOL    HW1 6914   2.884   6.187   5.226
 2005SOL    HW2 6915   2.851   6.075   5.113
 2006SOL     OW 6916   4.774   6.753   3.207
 2006SOL    HW1 6917   4.873   6.766   3.220
 2006SOL    HW2 6918   4.758   6.692   3.130
 2007SOL     OW 6919   6.494   5.513   0.091
 2007SOL    HW1 6920   6.449   5.598   0.067
 2007SOL    HW2 6921   6.591   5.529   0.106
 2008SOL     OW 6922   0.067   5.786   5.698
 2008SOL    HW1 6923   0.074   5.729   5.615
 2008SOL    HW2 6924   0.010   5.866   5.678
 2009SOL     OW 6925   0.950   0.455   6.950
 2009SOL    HW1 6926   0.989   0.365   6.931
 2009SOL    HW2 6927   1.023   0.518   6.978
 2010SOL     OW 6928   2.144   0.798   0.939
 2010SOL    HW1 6929   2.131   0.724   0.873
 2010SOL    HW2 6930   2.080   0.873   0.918
 2011SOL     OW 6931   6.831   2.006   4.762
 2011SOL    HW1 6932   6.825   2.045   4.854
 2011SOL    HW2 6933   6.754   1.945   4.746
 2012SOL     OW 6934   7.001   3.313   1.200
 2012SOL    HW1 6935   6.964   3.302   1.107
 2012SOL    HW2 6936   6.928   3.342   1.262
 2013SOL     OW 6937   4.052   2.159   1.507
 2013SOL    HW1 6938   3.987   2.150   1.583
 2013SOL    HW2 6939   4.036   2.086   1.440
 2014SOL     OW 6940   3.637   5.527   3.128
 2014SOL    HW1 6941   3.658   5.481   3.043
 2014SOL    HW2 6942   3.711   5.591   3.151
 2015SOL     OW 6943   3.454   5.800   0.054
 2015SOL    HW1 6944   3.498   5.872   7.015
 2015SOL    HW2 6945   3.370   5.770   0.008
 2016SOL     OW 6946   6.145   5.753   4.241
 2016SOL    HW1 6947   6.114   5.799   4.324
 2016SOL    HW2 6948   6.067   5.734   4.181
 2017SOL     OW 6949   2.051   5.434   2.584
 2017SOL    HW1 6950   2.046   5.346   2.631
 2017SOL    HW2 6951   1.968   5.448   2.530
 2018SOL     OW 6952   0.463   4.305   6.171
 2018SOL    HW1 6953   0.534   4.280   6.237
 2018SOL    HW2 6954   0.460   4.404   6.160
 2019SOL     OW 6955   5.284   1.260   2.821
 2019SOL    HW1 6956   5.192   1.293   2.844
 2019SOL    HW2 6957   5.291   1.163   2.844
 2020SOL     OW 6958   2.269   5.162   3.320
 2020SOL    HW1 6959   2.287   5.259   3.302
 2020SOL    HW2 6960   2.333   5.129   3.390
 2021SOL     OW 6961   2.004   6.075   1.476
 2021SOL    HW1 6962   2.075   6.141   1.449
 2021SOL    HW2 6963   2.045   6.005   1.535
 2022SOL     OW 6964   3.552   5.205   1.438
 2022SOL    HW1 6965   3.484   5.277   1.456
 2022SOL    HW2 6966   3.585   5.167   1.524
 2023SOL     OW 6967   6.480   2.069   5.748
 2023SOL    HW1 6968   6.507   1.983   5.790
 2023SOL    HW2 6969   6.383   2.087   5.769
 2024SOL     OW 6970   5.866   0.262   3.128
 2024SOL    HW1 6971   5.831   0.192   3.065
 2024SOL    HW2 6972   5.964   0.273   3.114
 2025SOL     OW 6973   6.186   1.050   1.179
 2025SOL    HW1 6974   6.255   1.117   1.150
 2025SOL    HW2 6975   6.116   1.042   1.108
 2026SOL     OW 6976   2.425   1.914   5.260
 2026SOL    HW1 6977   2.387   2.007   5.261
 2026SOL    HW2 6978   2.433   1.881   5.354
 2027SOL     OW 6979   6.868   0.208   1.851
 2027SOL    HW1 6980   6.866   0.305   1.873
 2027SOL    HW2 6981   6.791   0.186   1.791
 2028SOL     OW 6982   3.666   3.673   5.808
 2028SOL    HW1 6983   3.577   3.652   5.848
 2028SOL    HW2 6984   3.689   3.605   5.738
 2029SOL     OW 6985   2.021   0.834   0.398
 2029SOL    HW1 6986   1.939   0.847   0.342
 2029SOL    HW2 6987   2.102   0.846   0.341
 2030SOL     OW 6988   1.787   2.547   3.115
 2030SOL    HW1 6989   1.749   2.517   3.203
 2030SOL    HW2 6990   1.875   2.502   3.100
 2031SOL     OW 6991   6.320   0.109   2.861
 2031SOL    HW1 6992   6.266   0.025   2.867
 2031SOL    HW2 6993   6.337   0.130   2.765
 2032SOL     OW 6994   4.437   5.978   2.224
 2032SOL    HW1 6995   4.526   5.932   2.217
 2032SOL    HW2 6996   4.374   5.939   2.158
 2033SOL     OW 6997   0.437   5.188   6.165
 2033SOL    HW1 6998   0.483   5.274   6.145
 2033SOL    HW2 6999   0.347   5.187   6.121
 2034SOL     OW 7000   2.246   5.430   3.916
 2034SOL    HW1 7001   2.240   5.510   3.975
 2034SOL    HW2 7002   2.227   5.457   3.821
 2035SOL     OW 7003   0.572   2.112   3.035
 2035SOL    HW1 7004   0.558   2.018   3.066
 2035SOL    HW2 7005   0.662   2.120   2.992
 2036SOL     OW 7006   0.847   4.984   0.832
 2036SOL    HW1 7007   0.766   4.970   0.889
 2036SOL    HW2 7008   0.904   4.903   0.836
 2037SOL     OW 7009   0.101   1.852   6.768
 2037SOL    HW1 7010   0.063   1.865   6.676
 2037SOL    HW2 7011   0.200   1.847   6.763
 2038SOL     OW 7012   1.417   6.958   4.811
 2038SOL    HW1 7013   1.384   6.938   4.903
 2038SOL    HW2 7014   1.408   0.040   4.792
 2039SOL     OW 7015   1.210   4.901   1.720
 2039SOL    HW1 7016   1.152   4.836   1.770
 2039SOL    HW2 7017   1.161   4.987   1.708
 2040SOL     OW 7018   3.675   3.857   4.609
 2040SOL    HW1 7019   3.642   3.781   4.554
 2040SOL    HW2 7020   3.742   3.824   4.676
 2041SOL     OW 7021   4.859   2.805   6.526
 2041SOL    HW1 7022   4.860   2.711   6.560
 2041SOL    HW2 7023   4.898   2.866   6.595
 2042SOL     OW 7024   3.238   5.831   0.306
 2042SOL    HW1 7025   3.230   5.930   0.314
 2042SOL    HW2 7026   3.312   5.808   0.243
 2043SOL     OW 7027   4.550   5.474   2.357
 2043SOL    HW1 7028   4.592   5.527   2.283
 2043SOL    HW2 7029   4.450   5.474   2.345
 2044SOL     OW 7030   6.560   1.011   2.349
 2044SOL    HW1 7031   6.525   1.059   2.268
 2044SOL    HW2 7032   6.594   0.921   2.322
 2045SOL     OW 7033   3.139   6.542   6.662
 2045SOL    HW1 7034   3.203   6.592   6.720
 2045SOL    HW2 7035   3.191   6.479   6.603
 2046SOL     OW 7036   6.168   6.683   5.750
 2046SOL    HW1 7037   6.212   6.688   5.839
 2046SOL    HW2 7038   6.220   6.737   5.684
 2047SOL     OW 7039   4.895   3.090   0.109
 2047SOL    HW1 7040   4.924   3.051   0.196
 2047SOL    HW2 7041   4.881   3.017   0.042
 2048SOL     OW 7042   4.814   6.608   5.547
 2048SOL    HW1 7043   4.771   6.678   5.603
 2048SOL    HW2 7044   4.747   6.572   5.482
 2049SOL     OW 7045   4.761   5.477   6.748
 2049SOL    HW1 7046   4.857   5.469   6.720
 2049SOL    HW2 7047   4.702   5.456   6.670
 2050SOL     OW 7048   5.643   0.740   3.580
 2050SOL    HW1 7049   5.580   0.790   3.521
 2050SOL    HW2 7050   5.690   0.805   3.641
 2051SOL     OW 7051   2.914   5.182   1.127
 2051SOL    HW1 7052   2.909   5.270   1.080
 2051SOL    HW2 7053   3.004   5.172   1.170
 2052SOL     OW 7054   2.219   2.512   1.062
 2052SOL    HW1 7055   2.284   2.468   1.125
 2052SOL    HW2 7056   2.232   2.611   1.065
 2053SOL     OW 7057   4.993   1.200   0.950
 2053SOL    HW1 7058   4.903   1.158   0.936
 2053SOL    HW2 7059   4.999   1.235   1.043
 2054SOL     OW 7060   0.496   3.340   1.172
 2054SOL    HW1 7061   0.502   3.427   1.123
 2054SOL    HW2 7062   0.586   3.297   1.175
 2055SOL     OW 7063   6.435   1.120   3.951
 2055SOL    HW1 7064   6.512   1.136   4.012
 2055SOL    HW2 7065   6.470   1.098   3.859
 2056SOL     OW 7066   0.765   6.954   2.397
 2056SOL    HW1 7067   0.698   6.898   2.444
 2056SOL    HW2 7068   0.740   6.962   2.300
 2057SOL     OW 7069   5.455   2.971   3.812
 2057SOL    HW1 7070   5.517   2.892   3.808
 2057SOL    HW2 7071   5.409   2.973   3.900
 2058SOL     OW 7072   0.642   1.121   1.851
 2058SOL    HW1 7073   0.680   1.166   1.770
 2058SOL    HW2 7074   0.705   1.052   1.884
 2059SOL     OW 7075   1.607   1.042   0.032
 2059SOL    HW1 7076   1.543   1.119   0.039
 2059SOL    HW2 7077   1.684   1.068   6.989
 2060SOL     OW 7078   0.273   4.950   2.950
 2060SOL    HW1 7079   0.313   4.865   2.917
 2060SOL    HW2 7080   0.188   4.968   2.901
 2061SOL     OW 7081   1.176   0.677   0.875
 2061SOL    HW1 7082   1.195   0.621   0.794
 2061SOL    HW2 7083   1.242   0.751   0.880
 2062SOL     OW 7084   4.392   0.379   3.907
 2062SOL    HW1 7085   4.334   0.458   3.925
 2062SOL    HW2 7086   4.404   0.327   3.992
 2063SOL     OW 7087   2.411   2.184   1.097
 2063SOL    HW1 7088   2.356   2.181   1.014
 2063SOL    HW2 7089   2.411   2.094   1.140
 2064SOL     OW 7090   1.152   1.993   1.212
 2064SOL    HW1 7091   1.234   1.942   1.186
 2064SOL    HW2 7092   1.140   1.990   1.311
 2065SOL     OW 7093   0.035   3.317   2.493
 2065SOL    HW1 7094   0.108   3.281   2.550
 2065SOL    HW2 7095   7.011   3.398   2.536
 2066SOL     OW 7096   1.634   5.947   2.709
 2066SOL    HW1 7097   1.696   6.020   2.679
 2066SOL    HW2 7098   1.682   5.887   2.773
 2067SOL     OW 7099   0.457   0.286   0.067
 2067SOL    HW1 7100   0.383   0.291   0.133
 2067SOL    HW2 7101   0.509   0.202   0.081
 2068SOL     OW 7102   2.017   1.949   4.997
 2068SOL    HW1 7103   1.928   1.951   4.950
 2068SOL    HW2 7104   2.020   1.869   5.057
 2069SOL     OW 7105   1.153   2.214   2.194
 2069SOL    HW1 7106   1.136   2.312   2.183
 2069SOL    HW2 7107   1.072   2.163   2.165
 2070SOL     OW 7108   0.171   1.335   2.717
 2070SOL    HW1 7109   0.143   1.281   2.638
 2070SOL    HW2 7110   0.110   1.413   2.727
 2071SOL     OW 7111   2.509   6.384   5.662
 2071SOL    HW1 7112   2.515   6.333   5.577
 2071SOL    HW2 7113   2.516   6.321   5.739
 2072SOL     OW 7114   5.314   4.892   2.361
 2072SOL    HW1 7115   5.337   4.973   2.415
 2072SOL    HW2 7116   5.219   4.866   2.378
 2073SOL     OW 7117   3.303   6.908   5.249
 2073SOL    HW1 7118   3.272   6.884   5.341
 2073SOL    HW2 7119   3.258   6.992   5.219
 2074SOL     OW 7120   5.754   2.586   2.748
 2074SOL    HW1 7121   5.656   2.594   2.729
 2074SOL    HW2 7122   5.791   2.676   2.770
 2075SOL     OW 7123   3.861   3.041   6.101
 2075SOL    HW1 7124   3.953   3.070   6.077
 2075SOL    HW2 7125   3.795   3.110   6.072
 2076SOL     OW 7126   5.500   0.204   0.640
 2076SOL    HW1 7127   5.543   0.114   0.650
 2076SOL    HW2 7128   5.424   0.212   0.705
 2077SOL     OW 7129   4.230   1.234   3.972
 2077SOL    HW1 7130   4.277   1.242   3.884
 2077SOL    HW2 7131   4.218   1.137   3.995
 2078SOL     OW 7132   4.152   6.024   4.671
 2078SOL    HW1 7133   4.151   5.991   4.577
 2078SOL    HW2 7134   4.227   5.980   4.721
 2079SOL     OW 7135   6.329   6.705   4.065
 2079SOL    HW1 7136   6.350   6.726   4.161
 2079SOL    HW2 7137   6.401   6.741   4.007
 2080SOL     OW 7138   2.717   1.837   3.694
 2080SOL    HW1 7139   2.635   1.782   3.674
 2080SOL    HW2 7140   2.757   1.868   3.608
 2081SOL     OW 7141   1.237   6.239   4.049
 2081SOL    HW1 7142   1.154   6.293   4.038
 2081SOL    HW2 7143   1.214   6.144   4.071
 2082SOL     OW 7144   4.699   0.821   1.905
 2082SOL    HW1 7145   4.607   0.819   1.945
 2082SOL    HW2 7146   4.728   0.916   1.894
 2083SOL     OW 7147   3.973   4.211   6.272
 2083SOL    HW1 7148   3.938   4.163   6.192
 2083SOL    HW2 7149   3.903   4.273   6.308
 2084SOL     OW 7150   6.816   2.653   3.046
 2084SOL    HW1 7151   6.909   2.643   3.010
 2084SOL    HW2 7152   6.816   2.632   3.144
 2085SOL     OW 7153   6.115   6.765   6.738
 2085SOL    HW1 7154   6.126   6.852   6.785
 2085SOL    HW2 7155   6.123   6.690   6.804
 2086SOL     OW 7156   3.679   5.151   0.026
 2086SOL    HW1 7157   3.727   5.105   0.101
 2086SOL    HW2 7158   3.631   5.083   6.986
 2087SOL     OW 7159   5.794   6.206   3.332
 2087SOL    HW1 7160   5.845   6.156   3.402
 2087SOL    HW2 7161   5.726   6.145   3.291
 2088SOL     OW 7162   2.599   6.681   1.555
 2088SOL    HW1 7163   2.512   6.674   1.604
 2088SOL    HW2 7164   2.669   6.718   1.617
 2089SOL     OW 7165   2.147   1.161   0.149
 2089SOL    HW1 7166   2.196   1.089   0.099
 2089SOL    HW2 7167   2.212   1.229   0.183
 2090SOL     OW 7168   3.615   3.754   3.948
 2090SOL    HW1 7169   3.627   3.762   3.849
 2090SOL    HW2 7170   3.615   3.657   3.973
 2091SOL     OW 7171   2.651   4.437   0.899
 2091SOL    HW1 7172   2.593   4.363   0.865
 2091SOL    HW2 7173   2.638   4.446   0.998
 2092SOL     OW 7174   0.540   6.149   1.182
 2092SOL    HW1 7175   0.541   6.173   1.279
 2092SOL    HW2 7176   0.448   6.157   1.146
 2093SOL     OW 7177   1.453   2.213   1.531
 2093SOL    HW1 7178   1.507   2.224   1.448
 2093SOL    HW2 7179   1.368   2.165   1.509
 2094SOL     OW 7180   6.165   0.724   1.739
 2094SOL    HW1 7181   6.220   0.799   1.775
 2094SOL    HW2 7182   6.104   0.758   1.667
 2095SOL     OW 7183   6.455   4.753   5.104
 2095SOL    HW1 7184   6.516   4.676   5.123
 2095SOL    HW2 7185   6.467   4.823   5.175
 2096SOL     OW 7186   4.644   4.315   3.811
 2096SOL    HW1 7187   4.660   4.216   3.804
 2096SOL    HW2 7188   4.618   4.338   3.905
 2097SOL     OW 7189   6.441   3.602   6.109
 2097SOL    HW1 7190   6.500   3.606   6.029
 2097SOL    HW2 7191   6.347   3.583   6.080
 2098SOL     OW 7192   4.387   0.302   4.192
 2098SOL    HW1 7193   4.335   0.387   4.203
 2098SOL    HW2 7194   4.454   0.295   4.266
 2099SOL     OW 7195   2.830   1.964   3.481
 2099SOL    HW1 7196   2.826   2.063   3.492
 2099SOL    HW2 7197   2.868   1.942   3.391
 2100SOL     OW 7198   4.030   4.761   6.283
 2100SOL    HW1 7199   3.986   4.708   6.354
 2100SOL    HW2 7200   4.105   4.709   6.243
 2101SOL     OW 7201   6.436   6.991   1.811
 2101SOL    HW1 7202   6.533   6.975   1.826
 2101SOL    HW2 7203   6.419   0.074   1.804
 2102SOL     OW 7204   7.008   5.045   1.392
 2102SOL    HW1 7205   6.980   5.096   1.473
 2102SOL    HW2 7206   0.031   4.957   1.420
 2103SOL     OW 7207   3.535   3.574   6.266
 2103SOL    HW1 7208   3.542   3.673   6.275
 2103SOL    HW2 7209   3.444   3.544   6.293
 2104SOL     OW 7210   1.672   4.650   5.613
 2104SOL    HW1 7211   1.607   4.718   5.646
 2104SOL    HW2 7212   1.644   4.618   5.522
 2105SOL     OW 7213   5.586   6.294   2.040
 2105SOL    HW1 7214   5.555   6.375   2.092
 2105SOL    HW2 7215   5.589   6.215   2.101
 2106SOL     OW 7216   5.740   5.763   6.483
 2106SOL    HW1 7217   5.715   5.683   6.429
 2106SOL    HW2 7218   5.839   5.764   6.496
 2107SOL     OW 7219   2.611   5.036   0.466
 2107SOL    HW1 7220   2.706   5.007   0.456
 2107SOL    HW2 7221   2.595   5.118   0.410
 2108SOL     OW 7222   6.219   4.263   6.482
 2108SOL    HW1 7223   6.172   4.343   6.445
 2108SOL    HW2 7224   6.307   4.290   6.520
 2109SOL     OW 7225   5.598   5.832   2.494
 2109SOL    HW1 7226   5.506   5.812   2.527
 2109SOL    HW2 7227   5.593   5.861   2.398
 2110SOL     OW 7228   1.380   4.924   5.404
 2110SOL    HW1 7229   1.375   4.991   5.478
 2110SOL    HW2 7230   1.289   4.886   5.389
 2111SOL     OW 7231   1.747   2.099   6.946
 2111SOL    HW1 7232   1.812   2.061   7.012
 2111SOL    HW2 7233   1.797   2.134   6.867
 2112SOL     OW 7234   5.062   3.740   0.482
 2112SOL    HW1 7235   5.085   3.835   0.461
 2112SOL    HW2 7236   5.139   3.681   0.461
 2113SOL     OW 7237   6.565   1.815   3.048
 2113SOL    HW1 7238   6.586   1.828   3.145
 2113SOL    HW2 7239   6.531   1.722   3.033
 2114SOL     OW 7240   1.466   3.523   6.958
 2114SOL    HW1 7241   1.553   3.519   6.911
 2114SOL    HW2 7242   1.468   3.597   0.010
 2115SOL     OW 7243   3.659   5.494   1.950
 2115SOL    HW1 7244   3.646   5.572   2.011
 2115SOL    HW2 7245   3.608   5.509   1.865
 2116SOL     OW 7246   0.783   3.641   4.456
 2116SOL    HW1 7247   0.736   3.557   4.431
 2116SOL    HW2 7248   0.761   3.712   4.389
 2117SOL     OW 7249   6.901   5.746   6.031
 2117SOL    HW1 7250   6.849   5.824   5.996
 2117SOL    HW2 7251   6.864   5.718   6.120
 2118SOL     OW 7252   6.890   3.692   2.256
 2118SOL    HW1 7253   6.881   3.608   2.202
 2118SOL    HW2 7254   6.905   3.770   2.195
 2119SOL     OW 7255   4.168   6.111   0.626
 2119SOL    HW1 7256   4.223   6.116   0.543
 2119SOL    HW2 7257   4.194   6.186   0.687
 2120SOL     OW 7258   6.556   3.950   2.080
 2120SOL    HW1 7259   6.527   3.953   2.176
 2120SOL    HW2 7260   6.479   3.921   2.023
 2121SOL     OW 7261   0.532   3.773   4.901
 2121SOL    HW1 7262   0.514   3.747   4.806
 2121SOL    HW2 7263   0.602   3.844   4.904
 2122SOL     OW 7264   4.124   5.048   5.403
 2122SOL    HW1 7265   4.079   4.961   5.419
 2122SOL    HW2 7266   4.223   5.036   5.408
 2123SOL     OW 7267   4.645   5.226   3.533
 2123SOL    HW1 7268   4.608   5.253   3.622
 2123SOL    HW2 7269   4.572   5.230   3.464
 2124SOL     OW 7270   3.062   2.181   1.405
 2124SOL    HW1 7271   3.011   2.245   1.463
 2124SOL    HW2 7272   3.127   2.232   1.349
 2125SOL     OW 7273   5.045   5.620   0.598
 2125SOL    HW1 7274   4.966   5.678   0.616
 2125SOL    HW2 7275   5.065   5.619   0.500
 2126SOL     OW 7276   3.280   1.347   1.594
 2126SOL    HW1 7277   3.204   1.355   1.529
 2126SOL    HW2 7278   3.280   1.256   1.635
 2127SOL     OW 7279   5.563   2.719   4.655
 2127SOL    HW1 7280   5.511   2.635   4.645
 2127SOL    HW2 7281   5.525   2.789   4.595
 2128SOL     OW 7282   0.239   3.852   3.989
 2128SOL    HW1 7283   0.169   3.788   4.021
 2128SOL    HW2 7284   0.203   3.945   3.992
 2129SOL     OW 7285   4.463   2.345   5.096
 2129SOL    HW1 7286   4.405   2.418   5.060
 2129SOL    HW2 7287   4.460   2.266   5.035
 2130SOL     OW 7288   5.124   0.278   3.409
 2130SOL    HW1 7289   5.139   0.346   3.481
 2130SOL    HW2 7290   5.101   0.325   3.324
 2131SOL     OW 7291   5.160   1.847   6.864
 2131SOL    HW1 7292   5.200   1.771   6.812
 2131SOL    HW2 7293   5.117   1.911   6.801
 2132SOL     OW 7294   1.837   3.595   0.715
 2132SOL    HW1 7295   1.803   3.652   0.640
 2132SOL    HW2 7296   1.764   3.537   0.749
 2133SOL     OW 7297   2.301   4.299   6.331
 2133SOL    HW1 7298   2.221   4.359   6.337
 2133SOL    HW2 7299   2.286   4.230   6.260
 2134SOL     OW 7300   0.103   6.863   0.506
 2134SOL    HW1 7301   0.042   6.790   0.537
 2134SOL    HW2 7302   0.195   6.846   0.541
 2135SOL     OW 7303   6.745   5.055   5.416
 2135SOL    HW1 7304   6.770   4.975   5.471
 2135SOL    HW2 7305   6.749   5.137   5.473
 2136SOL     OW 7306   1.346   5.358   6.883
 2136SOL    HW1 7307   1.411   5.414   6.935
 2136SOL    HW2 7308   1.328   5.400   6.795
 2137SOL     OW 7309   1.501   6.650   3.825
 2137SOL    HW1 7310   1.487   6.566   3.773
 2137SOL    HW2 7311   1.415   6.699   3.834
 2138SOL     OW 7312   5.186   1.928   1.899
 2138SOL    HW1 7313   5.104   1.924   1.843
 2138SOL    HW2 7314   5.216   1.835   1.920
 2139SOL     OW 7315   2.955   6.369   5.694
 2139SOL    HW1 7316   3.015   6.444   5.722
 2139SOL    HW2 7317   2.895   6.400   5.621
 2140SOL     OW 7318   2.246   1.660   3.715
 2140SOL    HW1 7319   2.218   1.745   3.760
 2140SOL    HW2 7320   2.327   1.624   3.761
 2141SOL     OW 7321   6.762   3.293   3.340
 2141SOL    HW1 7322   6.682   3.318   3.394
 2141SOL    HW2 7323   6.743   3.210   3.288
 2142SOL     OW 7324   1.660   2.522   2.121
 2142SOL    HW1 7325   1.747   2.556   2.086
 2142SOL    HW2 7326   1.660   2.422   2.120
 2143SOL     OW 7327   0.105   5.643   5.461
 2143SOL    HW1 7328   0.094   5.662   5.363
 2143SOL    HW2 7329   0.043   5.570   5.488
 2144SOL     OW 7330   6.138   4.574   2.974
 2144SOL    HW1 7331   6.130   4.528   2.886
 2144SOL    HW2 7332   6.213   4.641   2.970
 2145SOL     OW 7333   4.125   1.677   2.801
 2145SOL    HW1 7334   4.166   1.762   2.767
 2145SOL    HW2 7335   4.153   1.601   2.743
 2146SOL     OW 7336   1.975   1.832   6.481
 2146SOL    HW1 7337   1.923   1.917   6.483
 2146SOL    HW2 7338   2.003   1.808   6.574
 2147SOL     OW 7339   5.950   6.772   5.267
 2147SOL    HW1 7340   5.890   6.845   5.300
 2147SOL    HW2 7341   5.895   6.692   5.241
 2148SOL     OW 7342   0.548   2.309   4.863
 2148SOL    HW1 7343   0.564   2.397   4.817
 2148SOL    HW2 7344   0.451   2.287   4.861
 2149SOL     OW 7345   0.440   6.215   6.894
 2149SOL    HW1 7346   0.456   6.142   6.827
 2149SOL    HW2 7347   0.345   6.212   6.924
 2150SOL     OW 7348   1.706   2.713   0.714
 2150SOL    HW1 7349   1.655   2.742   0.633
 2150SOL    HW2 7350   1.690   2.616   0.731
 2151SOL     OW 7351   0.621   4.950   6.647
 2151SOL    HW1 7352   0.577   4.927   6.560
 2151SOL    HW2 7353   0.673   4.871   6.680
 2152SOL     OW 7354   4.969   6.268   3.881
 2152SOL    HW1 7355   4.942   6.181   3.839
 2152SOL    HW2 7356   4.910   6.341   3.846
 2153SOL     OW 7357   4.894   6.974   3.721
 2153SOL    HW1 7358   4.854   0.040   3.679
 2153SOL    HW2 7359   4.890   6.983   3.821
 2154SOL     OW 7360   2.652   6.592   2.595
 2154SOL    HW1 7361   2.747   6.599   2.565
 2154SOL    HW2 7362   2.649   6.569   2.692
 2155SOL     OW 7363   4.546   1.000   1.027
 2155SOL    HW1 7364   4.463   0.950   1.003
 2155SOL    HW2 7365   4.525   1.097   1.036
 2156SOL     OW 7366   5.903   2.202   5.141
 2156SOL    HW1 7367   5.862   2.252   5.217
 2156SOL    HW2 7368   5.894   2.104   5.156
 2157SOL     OW 7369   4.347   6.349   4.394
 2157SOL    HW1 7370   4.256   6.306   4.394
 2157SOL    HW2 7371   4.367   6.382   4.302
 2158SOL     OW 7372   2.838   6.569   0.844
 2158SOL    HW1 7373   2.754   6.598   0.799
 2158SOL    HW2 7374   2.916   6.621   0.807
 2159SOL     OW 7375   0.344   1.063   5.839
 2159SOL    HW1 7376   0.329   1.120   5.758
 2159SOL    HW2 7377   0.297   0.975   5.826
 2160SOL     OW 7378   5.520   6.901   6.479
 2160SOL    HW1 7379   5.549   6.911   6.574
 2160SOL    HW2 7380   5.425   6.871   6.477
 2161SOL     OW 7381   1.660   4.013   0.607
 2161SOL    HW1 7382   1.567   3.995   0.573
 2161SOL    HW2 7383   1.656   4.083   0.678
 2162SOL     OW 7384   1.894   0.434   0.455
 2162SOL    HW1 7385   1.984   0.464   0.486
 2162SOL    HW2 7386   1.825   0.500   0.486
 2163SOL     OW 7387   1.119   2.850   3.802
 2163SOL    HW1 7388   1.159   2.759   3.808
 2163SOL    HW2 7389   1.025   2.844   3.770
 2164SOL     OW 7390   2.182   3.908   2.171
 2164SOL    HW1 7391   2.263   3.945   2.216
 2164SOL    HW2 7392   2.152   3.825   2.218
 2165SOL     OW 7393   5.959   1.330   5.201
 2165SOL    HW1 7394   5.867   1.304   5.171
 2165SOL    HW2 7395   6.027   1.271   5.157
 2166SOL     OW 7396   0.512   2.797   2.073
 2166SOL    HW1 7397   0.506   2.744   1.988
 2166SOL    HW2 7398   0.500   2.737   2.151
 2167SOL     OW 7399   1.348   2.258   3.223
 2167SOL    HW1 7400   1.402   2.282   3.142
 2167SOL    HW2 7401   1.396   2.287   3.305
 2168SOL     OW 7402   1.877   2.440   3.552
 2168SOL    HW1 7403   1.926   2.477   3.631
 2168SOL    HW2 7404   1.889   2.341   3.549
 2169SOL     OW 7405   6.808   0.376   0.959
 2169SOL    HW1 7406   6.809   0.435   1.040
 2169SOL    HW2 7407   6.871   0.300   0.972
 2170SOL     OW 7408   1.415   3.199   6.703
 2170SOL    HW1 7409   1.512   3.177   6.697
 2170SOL    HW2 7410   1.361   3.115   6.700
 2171SOL     OW 7411   6.910   6.063   1.544
 2171SOL    HW1 7412   6.814   6.043   1.563
 2171SOL    HW2 7413   6.918   6.157   1.509
 2172SOL     OW 7414   2.563   2.291   4.872
 2172SOL    HW1 7415   2.519   2.372   4.911
 2172SOL    HW2 7416   2.604   2.315   4.783
 2173SOL     OW 7417   4.545   0.554   4.665
 2173SOL    HW1 7418   4.550   0.501   4.750
 2173SOL    HW2 7419   4.537   0.651   4.687
 2174SOL     OW 7420   5.311   0.133   6.213
 2174SOL    HW1 7421   5.326   0.038   6.185
 2174SOL    HW2 7422   5.353   0.148   6.303
 2175SOL     OW 7423   3.721   3.240   6.007
 2175SOL    HW1 7424   3.652   3.207   5.943
 2175SOL    HW2 7425   3.710   3.338   6.021
 2176SOL     OW 7426   6.074   1.823   3.201
 2176SOL    HW1 7427   6.060   1.899   3.264
 2176SOL    HW2 7428   5.988   1.772   3.191
 2177SOL     OW 7429   0.952   1.013   5.227
 2177SOL    HW1 7430   1.050   1.030   5.211
 2177SOL    HW2 7431   0.908   0.989   5.140
 2178SOL     OW 7432   1.754   2.791   2.497
 2178SOL    HW1 7433   1.700   2.736   2.433
 2178SOL    HW2 7434   1.831   2.736   2.532
 2179SOL     OW 7435   0.981   4.139   0.096
 2179SOL    HW1 7436   1.048   4.167   0.165
 2179SOL    HW2 7437   0.896   4.189   0.111
 2180SOL     OW 7438   0.375   5.456   3.029
 2180SOL    HW1 7439   0.443   5.421   2.965
 2180SOL    HW2 7440   0.284   5.426   3.001
 2181SOL     OW 7441   3.849   4.949   4.289
 2181SOL    HW1 7442   3.772   5.012   4.279
 2181SOL    HW2 7443   3.847   4.909   4.381
 2182SOL     OW 7444   6.882   6.311   1.397
 2182SOL    HW1 7445   6.808   6.378   1.402
 2182SOL    HW2 7446   6.970   6.359   1.396
 2183SOL     OW 7447   3.238   2.827   0.132
 2183SOL    HW1 7448   3.231   2.923   0.158
 2183SOL    HW2 7449   3.331   2.808   0.099
 2184SOL     OW 7450   6.193   1.934   0.033
 2184SOL    HW1 7451   6.116   1.995   0.015
 2184SOL    HW2 7452   6.182   1.850   6.996
 2185SOL     OW 7453   0.774   1.695   6.127
 2185SOL    HW1 7454   0.674   1.696   6.115
 2185SOL    HW2 7455   0.809   1.605   6.103
 2186SOL     OW 7456   6.985   6.355   5.352
 2186SOL    HW1 7457   6.886   6.339   5.347
 2186SOL    HW2 7458   0.012   6.284   5.408
 2187SOL     OW 7459   5.806   4.739   1.368
 2187SOL    HW1 7460   5.819   4.805   1.295
 2187SOL    HW2 7461   5.751   4.780   1.441
 2188SOL     OW 7462   3.068   0.938   0.880
 2188SOL    HW1 7463   3.025   1.024   0.906
 2188SOL    HW2 7464   3.054   0.923   0.782
 2189SOL     OW 7465   1.964   0.612   2.391
 2189SOL    HW1 7466   1.876   0.590   2.433
 2189SOL    HW2 7467   2.031   0.543   2.416
 2190SOL     OW 7468   6.230   5.024   2.132
 2190SOL    HW1 7469   6.321   5.057   2.157
 2190SOL    HW2 7470   6.218   5.031   2.033
 2191SOL     OW 7471   3.669   6.594   6.491
 2191SOL    HW1 7472   3.725   6.620   6.412
 2191SOL    HW2 7473   3.627   6.506   6.473
 2192SOL     OW 7474   4.844   2.084   1.935
 2192SOL    HW1 7475   4.877   2.164   1.984
 2192SOL    HW2 7476   4.890   2.077   1.847
 2193SOL     OW 7477   1.748   0.502   4.589
 2193SOL    HW1 7478   1.797   0.415   4.599
 2193SOL    HW2 7479   1.726   0.517   4.493
 2194SOL     OW 7480   0.527   4.346   5.127
 2194SOL    HW1 7481   0.474   4.268   5.158
 2194SOL    HW2 7482   0.538   4.411   5.202
 2195SOL     OW 7483   0.376   3.602   5.083
 2195SOL    HW1 7484   0.313   3.662   5.133
 2195SOL    HW2 7485   0.422   3.654   5.012
 2196SOL     OW 7486   4.066   0.825   6.979
 2196SOL    HW1 7487   4.121   0.872   6.910
 2196SOL    HW2 7488   3.969   0.839   6.960
 2197SOL     OW 7489   3.724   5.514   6.619
 2197SOL    HW1 7490   3.699   5.418   6.629
 2197SOL    HW2 7491   3.708   5.543   6.524
 2198SOL     OW 7492   1.491   1.288   6.802
 2198SOL    HW1 7493   1.447   1.253   6.884
 2198SOL    HW2 7494   1.546   1.216   6.760
 2199SOL     OW 7495   3.982   6.430   3.902
 2199SOL    HW1 7496   4.064   6.473   3.863
 2199SOL    HW2 7497   4.009   6.353   3.960
 2200SOL     OW 7498   2.540   2.592   4.346
 2200SOL    HW1 7499   2.561   2.578   4.443
 2200SOL    HW2 7500   2.443   2.616   4.337
 2201SOL     OW 7501   5.464   3.816   4.881
 2201SOL    HW1 7502   5.496   3.783   4.970
 2201SOL    HW2 7503   5.542   3.832   4.822
 2202SOL     OW 7504   3.603   6.808   3.694
 2202SOL    HW1 7505   3.520   6.828   3.746
 2202SOL    HW2 7506   3.616   6.709   3.688
 2203SOL     OW 7507   2.108   5.435   1.025
 2203SOL    HW1 7508   2.162   5.398   1.100
 2203SOL    HW2 7509   2.084   5.362   0.962
 2204SOL     OW 7510   5.195   3.024   1.027
 2204SOL    HW1 7511   5.198   2.972   1.113
 2204SOL    HW2 7512   5.285   3.021   0.983
 2205SOL     OW 7513   5.986   5.666   0.975
 2205SOL    HW1 7514   5.971   5.708   1.064
 2205SOL    HW2 7515   6.084   5.651   0.962
 2206SOL     OW 7516   3.579   2.648   5.707
 2206SOL    HW1 7517   3.597   2.746   5.694
 2206SOL    HW2 7518   3.664   2.601   5.731
 2207SOL     OW 7519   4.608   5.781   1.746
 2207SOL    HW1 7520   4.535   5.715   1.730
 2207SOL    HW2 7521   4.684   5.736   1.793
 2208SOL     OW 7522   6.851   6.466   2.924
 2208SOL    HW1 7523   6.885   6.372   2.913
 2208SOL    HW2 7524   6.915   6.530   2.882
 2209SOL     OW 7525   2.714   5.180   3.377
 2209SOL    HW1 7526   2.792   5.145   3.324
 2209SOL    HW2 7527   2.703   5.278   3.359
 2210SOL     OW 7528   5.096   6.821   1.842
 2210SOL    HW1 7529   5.152   6.741   1.862
 2210SOL    HW2 7530   5.004   6.791   1.816
 2211SOL     OW 7531   1.346   1.747   1.430
 2211SOL    HW1 7532   1.308   1.723   1.341
 2211SOL    HW2 7533   1.402   1.830   1.421
 2212SOL     OW 7534   3.099   5.587   6.076
 2212SOL    HW1 7535   3.081   5.624   6.168
 2212SOL    HW2 7536   3.014   5.550   6.038
 2213SOL     OW 7537   3.574   1.523   4.592
 2213SOL    HW1 7538   3.513   1.449   4.619
 2213SOL    HW2 7539   3.602   1.574   4.674
 2214SOL     OW 7540   4.191   4.082   6.598
 2214SOL    HW1 7541   4.133   4.022   6.652
 2214SOL    HW2 7542   4.283   4.084   6.639
 2215SOL     OW 7543   5.364   5.503   0.007
 2215SOL    HW1 7544   5.266   5.520   7.009
 2215SOL    HW2 7545   5.407   5.584   0.046
 2216SOL     OW 7546   0.468   5.898   6.883
 2216SOL    HW1 7547   0.554   5.859   6.917
 2216SOL    HW2 7548   0.471   5.901   6.783
 2217SOL     OW 7549   4.183   1.567   3.460
 2217SOL    HW1 7550   4.254   1.608   3.517
 2217SOL    HW2 7551   4.218   1.555   3.367
 2218SOL     OW 7552   6.664   5.625   5.585
 2218SOL    HW1 7553   6.571   5.625   5.622
 2218SOL    HW2 7554   6.661   5.630   5.485
 2219SOL     OW 7555   5.447   1.979   0.428
 2219SOL    HW1 7556   5.522   2.034   0.466
 2219SOL    HW2 7557   5.361   2.029   0.437
 2220SOL     OW 7558   6.847   6.425   4.414
 2220SOL    HW1 7559   6.784   6.473   4.353
 2220SOL    HW2 7560   6.800   6.400   4.499
 2221SOL     OW 7561   5.617   0.765   4.591
 2221SOL    HW1 7562   5.622   0.683   4.534
 2221SOL    HW2 7563   5.636   0.846   4.535
 2222SOL     OW 7564   3.610   1.079   3.543
 2222SOL    HW1 7565   3.600   1.054   3.447
 2222SOL    HW2 7566   3.536   1.139   3.570
 2223SOL     OW 7567   0.996   0.193   5.252
 2223SOL    HW1 7568   0.915   0.137   5.234
 2223SOL    HW2 7569   1.053   0.148   5.320
 2224SOL     OW 7570   5.231   4.525   6.563
 2224SOL    HW1 7571   5.167   4.452   6.584
 2224SOL    HW2 7572   5.187   4.592   6.504
 2225SOL     OW 7573   6.562   6.609   1.077
 2225SOL    HW1 7574   6.616   6.645   1.001
 2225SOL    HW2 7575   6.492   6.547   1.041
 2226SOL     OW 7576   2.452   3.360   0.051
 2226SOL    HW1 7577   2.434   3.271   0.093
 2226SOL    HW2 7578   2.526   3.406   0.101
 2227SOL     OW 7579   4.079   2.203   1.926
 2227SOL    HW1 7580   3.980   2.203   1.913
 2227SOL    HW2 7581   4.117   2.291   1.897
 2228SOL     OW 7582   5.285   6.454   6.740
 2228SOL    HW1 7583   5.310   6.399   6.819
 2228SOL    HW2 7584   5.331   6.419   6.659
 2229SOL     OW 7585   3.241   3.803   4.138
 2229SOL    HW1 7586   3.338   3.814   4.157
 2229SOL    HW2 7587   3.210   3.878   4.080
 2230SOL     OW 7588   6.472   0.613   6.208
 2230SOL    HW1 7589   6.510   0.693   6.253
 2230SOL    HW2 7590   6.541   0.572   6.148
 2231SOL     OW 7591   1.431   0.058   6.312
 2231SOL    HW1 7592   1.447   0.026   6.406
 2231SOL    HW2 7593   1.400   6.996   6.256
 2232SOL     OW 7594   1.498   1.017   5.985
 2232SOL    HW1 7595   1.493   0.927   5.942
 2232SOL    HW2 7596   1.479   1.009   6.083
 2233SOL     OW 7597   3.016   4.806   0.858
 2233SOL    HW1 7598   2.970   4.874   0.914
 2233SOL    HW2 7599   2.960   4.723   0.854
 2234SOL     OW 7600   4.912   2.123   1.680
 2234SOL    HW1 7601   4.940   2.212   1.645
 2234SOL    HW2 7602   4.872   2.069   1.607
 2235SOL     OW 7603   0.652   2.038   2.624
 2235SOL    HW1 7604   0.603   2.056   2.710
 2235SOL    HW2 7605   0.586   2.017   2.553
 2236SOL     OW 7606   3.033   5.140   5.184
 2236SOL    HW1 7607   3.111   5.157   5.123
 2236SOL    HW2 7608   2.982   5.061   5.152
 2237SOL     OW 7609   6.188   6.609   6.177
 2237SOL    HW1 7610   6.231   6.636   6.092
 2237SOL    HW2 7611   6.098   6.651   6.184
 2238SOL     OW 7612   5.800   3.714   2.289
 2238SOL    HW1 7613   5.851   3.647   2.236
 2238SOL    HW2 7614   5.721   3.670   2.332
 2239SOL     OW 7615   3.999   0.147   2.703
 2239SOL    HW1 7616   3.976   0.141   2.606
 2239SOL    HW2 7617   3.955   0.228   2.743
 2240SOL     OW 7618   4.831   5.109   2.405
 2240SOL    HW1 7619   4.912   5.068   2.448
 2240SOL    HW2 7620   4.860   5.180   2.341
 2241SOL     OW 7621   0.629   1.806   3.090
 2241SOL    HW1 7622   0.564   1.732   3.105
 2241SOL    HW2 7623   0.710   1.769   3.043
 2242SOL     OW 7624   5.613   2.477   4.364
 2242SOL    HW1 7625   5.584   2.384   4.383
 2242SOL    HW2 7626   5.680   2.506   4.433
 2243SOL     OW 7627   2.584   0.341   0.461
 2243SOL    HW1 7628   2.601   0.260   0.518
 2243SOL    HW2 7629   2.495   0.333   0.417
 2244SOL     OW 7630   3.005   1.822   1.108
 2244SOL    HW1 7631   2.960   1.782   1.029
 2244SOL    HW2 7632   3.030   1.917   1.089
 2245SOL     OW 7633   0.389   0.847   0.023
 2245SOL    HW1 7634   0.461   0.908   7.006
 2245SOL    HW2 7635   0.425   0.754   0.031
 2246SOL     OW 7636   5.165   1.163   5.682
 2246SOL    HW1 7637   5.128   1.109   5.758
 2246SOL    HW2 7638   5.092   1.215   5.638
 2247SOL     OW 7639   2.874   3.482   1.909
 2247SOL    HW1 7640   2.919   3.414   1.850
 2247SOL    HW2 7641   2.856   3.565   1.856
 2248SOL     OW 7642   4.862   3.031   4.570
 2248SOL    HW1 7643   4.955   3.029   4.608
 2248SOL    HW2 7644   4.811   2.951   4.604
 2249SOL     OW 7645   2.150   6.381   3.929
 2249SOL    HW1 7646   2.230   6.322   3.923
 2249SOL    HW2 7647   2.178   6.473   3.957
 2250SOL     OW 7648   4.523   5.837   6.088
 2250SOL    HW1 7649   4.514   5.867   6.183
 2250SOL    HW2 7650   4.532   5.916   6.028
 2251SOL     OW 7651   3.904   6.872   4.747
 2251SOL    HW1 7652   4.003   6.860   4.760
 2251SOL    HW2 7653   3.858   6.874   4.835
 2252SOL     OW 7654   4.110   1.138   2.487
 2252SOL    HW1 7655   4.119   1.232   2.521
 2252SOL    HW2 7656   4.201   1.096   2.480
 2253SOL     OW 7657   0.490   3.493   2.103
 2253SOL    HW1 7658   0.525   3.565   2.042
 2253SOL    HW2 7659   0.391   3.505   2.115
 2254SOL     OW 7660   3.275   3.026   3.012
 2254SOL    HW1 7661   3.283   3.030   2.912
 2254SOL    HW2 7662   3.366   3.017   3.052
 2255SOL     OW 7663   1.340   2.462   6.403
 2255SOL    HW1 7664   1.304   2.554   6.417
 2255SOL    HW2 7665   1.271   2.407   6.354
 2256SOL     OW 7666   5.486   0.362   1.578
 2256SOL    HW1 7667   5.394   0.382   1.543
 2256SOL    HW2 7668   5.501   0.412   1.663
 2257SOL     OW 7669   0.388   0.096   5.665
 2257SOL    HW1 7670   0.439   0.182   5.656
 2257SOL    HW2 7671   0.304   0.101   5.611
 2258SOL     OW 7672   2.041   6.721   3.578
 2258SOL    HW1 7673   2.123   6.776   3.595
 2258SOL    HW2 7674   2.000   6.694   3.666
 2259SOL     OW 7675   5.883   0.372   4.595
 2259SOL    HW1 7676   5.981   0.366   4.613
 2259SOL    HW2 7677   5.840   0.284   4.617
 2260SOL     OW 7678   1.331   3.762   1.098
 2260SOL    HW1 7679   1.422   3.799   1.080
 2260SOL    HW2 7680   1.289   3.734   1.012
 2261SOL     OW 7681   5.023   4.573   6.038
 2261SOL    HW1 7682   4.930   4.588   6.071
 2261SOL    HW2 7683   5.035   4.478   6.012
 2262SOL     OW 7684   6.996   6.888   4.024
 2262SOL    HW1 7685   0.077   6.885   3.997
 2262SOL    HW2 7686   6.986   6.937   4.110
 2263SOL     OW 7687   2.188   4.372   6.832
 2263SOL    HW1 7688   2.185   4.273   6.843
 2263SOL    HW2 7689   2.095   4.407   6.823
 2264SOL     OW 7690   2.078   0.535   6.458
 2264SOL    HW1 7691   2.154   0.593   6.489
 2264SOL    HW2 7692   2.002   0.592   6.428
 2265SOL     OW 7693   0.144   6.659   3.823
 2265SOL    HW1 7694   0.175   6.666   3.918
 2265SOL    HW2 7695   0.100   6.571   3.809
 2266SOL     OW 7696   4.497   3.344   6.289
 2266SOL    HW1 7697   4.565   3.365   6.359
 2266SOL    HW2 7698   4.542   3.333   6.200
 2267SOL     OW 7699   5.688   2.895   4.339
 2267SOL    HW1 7700   5.786   2.884   4.328
 2267SOL    HW2 7701   5.669   2.958   4.414
 2268SOL     OW 7702   0.805   6.276   4.930
 2268SOL    HW1 7703   0.801   6.273   5.030
 2268SOL    HW2 7704   0.712   6.281   4.893
 2269SOL     OW 7705   1.998   2.672   5.780
 2269SOL    HW1 7706   2.079   2.645   5.831
 2269SOL    HW2 7707   2.017   2.755   5.728
 2270SOL     OW 7708   5.143   2.007   6.269
 2270SOL    HW1 7709   5.114   2.095   6.307
 2270SOL    HW2 7710   5.063   1.957   6.236
 2271SOL     OW 7711   4.111   5.746   5.502
 2271SOL    HW1 7712   4.097   5.700   5.415
 2271SOL    HW2 7713   4.130   5.678   5.573
 2272SOL     OW 7714   6.112   1.388   6.071
 2272SOL    HW1 7715   6.108   1.488   6.075
 2272SOL    HW2 7716   6.122   1.359   5.976
 2273SOL     OW 7717   0.861   2.769   3.801
 2273SOL    HW1 7718   0.871   2.670   3.810
 2273SOL    HW2 7719   0.798   2.802   3.872
 2274SOL     OW 7720   1.218   1.041   0.383
 2274SOL    HW1 7721   1.308   1.004   0.403
 2274SOL    HW2 7722   1.228   1.130   0.339
 2275SOL     OW 7723   5.643   3.690   3.304
 2275SOL    HW1 7724   5.736   3.706   3.336
 2275SOL    HW2 7725   5.636   3.598   3.265
 2276SOL     OW 7726   1.848   1.660   1.287
 2276SOL    HW1 7727   1.810   1.684   1.376
 2276SOL    HW2 7728   1.838   1.561   1.272
 2277SOL     OW 7729   3.842   3.228   3.343
 2277SOL    HW1 7730   3.752   3.271   3.339
 2277SOL    HW2 7731   3.886   3.252   3.429
 2278SOL     OW 7732   6.866   2.933   3.924
 2278SOL    HW1 7733   6.924   2.860   3.961
 2278SOL    HW2 7734   6.784   2.893   3.884
 2279SOL     OW 7735   1.471   4.777   5.721
 2279SOL    HW1 7736   1.431   4.837   5.790
 2279SOL    HW2 7737   1.399   4.717   5.684
 2280SOL     OW 7738   4.999   2.346   5.678
 2280SOL    HW1 7739   4.939   2.419   5.711
 2280SOL    HW2 7740   4.955   2.257   5.693
 2281SOL     OW 7741   5.207   6.896   2.307
 2281SOL    HW1 7742   5.149   6.977   2.305
 2281SOL    HW2 7743   5.285   6.912   2.367
 2282SOL     OW 7744   3.819   5.447   5.883
 2282SOL    HW1 7745   3.827   5.449   5.783
 2282SOL    HW2 7746   3.725   5.425   5.908
 2283SOL     OW 7747   0.020   0.682   4.917
 2283SOL    HW1 7748   0.046   0.643   4.828
 2283SOL    HW2 7749   6.936   0.677   4.927
 2284SOL     OW 7750   1.839   3.555   6.440
 2284SOL    HW1 7751   1.752   3.578   6.396
 2284SOL    HW2 7752   1.846   3.604   6.527
 2285SOL     OW 7753   1.348   4.450   6.590
 2285SOL    HW1 7754   1.400   4.494   6.664
 2285SOL    HW2 7755   1.411   4.419   6.519
 2286SOL     OW 7756   4.668   4.398   2.749
 2286SOL    HW1 7757   4.612   4.434   2.824
 2286SOL    HW2 7758   4.650   4.300   2.738
 2287SOL     OW 7759   1.208   1.406   4.494
 2287SOL    HW1 7760   1.214   1.347   4.414
 2287SOL    HW2 7761   1.221   1.501   4.466
 2288SOL     OW 7762   6.725   5.465   2.645
 2288SOL    HW1 7763   6.639   5.498   2.685
 2288SOL    HW2 7764   6.705   5.416   2.560
 2289SOL     OW 7765   0.548   5.445   0.281
 2289SOL    HW1 7766   0.460   5.396   0.277
 2289SOL    HW2 7767   0.619   5.384   0.316
 2290SOL     OW 7768   0.819   5.376   6.269
 2290SOL    HW1 7769   0.914   5.403   6.252
 2290SOL    HW2 7770   0.799   5.384   6.366
 2291SOL     OW 7771   2.277   1.681   0.089
 2291SOL    HW1 7772   2.329   1.669   0.173
 2291SOL    HW2 7773   2.340   1.695   0.012
 2292SOL     OW 7774   2.025   1.248   4.149
 2292SOL    HW1 7775   2.095   1.286   4.089
 2292SOL    HW2 7776   1.967   1.321   4.184
 2293SOL     OW 7777   5.604   3.750   2.553
 2293SOL    HW1 7778   5.626   3.821   2.621
 2293SOL    HW2 7779   5.505   3.751   2.536
 2294SOL     OW 7780   4.322   6.420   0.315
 2294SOL    HW1 7781   4.372   6.494   0.270
 2294SOL    HW2 7782   4.371   6.334   0.300
 2295SOL     OW 7783   1.022   1.379   2.040
 2295SOL    HW1 7784   0.978   1.338   1.961
 2295SOL    HW2 7785   1.040   1.308   2.109
 2296SOL     OW 7786   3.057   6.431   0.530
 2296SOL    HW1 7787   3.089   6.347   0.572
 2296SOL    HW2 7788   3.006   6.410   0.446
 2297SOL     OW 7789   4.613   6.439   6.991
 2297SOL    HW1 7790   4.638   6.536   6.992
 2297SOL    HW2 7791   4.633   6.400   6.901
 2298SOL     OW 7792   3.999   3.113   6.766
 2298SOL    HW1 7793   3.977   3.126   6.863
 2298SOL    HW2 7794   3.923   3.147   6.710
 2299SOL     OW 7795   4.197   0.146   0.619
 2299SOL    HW1 7796   4.144   0.228   0.641
 2299SOL    HW2 7797   4.211   0.141   0.520
 2300SOL     OW 7798   1.016   4.655   1.239
 2300SOL    HW1 7799   1.045   4.730   1.180
 2300SOL    HW2 7800   1.085   4.639   1.309
 2301SOL     OW 7801   3.898   3.737   1.794
 2301SOL    HW1 7802   3.893   3.837   1.803
 2301SOL    HW2 7803   3.963   3.701   1.861
 2302SOL     OW 7804   2.264   5.267   2.461
 2302SOL    HW1 7805   2.218   5.338   2.514
 2302SOL    HW2 7806   2.245   5.177   2.502
 2303SOL     OW 7807   6.850   2.811   5.732
 2303SOL    HW1 7808   6.852   2.905   5.697
 2303SOL    HW2 7809   6.819   2.812   5.827
 2304SOL     OW 7810   2.098   1.377   4.792
 2304SOL    HW1 7811   2.141   1.421   4.713
 2304SOL    HW2 7812   2.050   1.446   4.846
 2305SOL     OW 7813   4.347   4.639   1.825
 2305SOL    HW1 7814   4.422   4.617   1.887
 2305SOL    HW2 7815   4.351   4.577   1.746
 2306SOL     OW 7816   0.054   4.401   0.418
 2306SOL    HW1 7817   0.015   4.325   0.364
 2306SOL    HW2 7818   0.051   4.485   0.363
 2307SOL     OW 7819   0.708   1.658   2.840
 2307SOL    HW1 7820   0.706   1.646   2.741
 2307SOL    HW2 7821   0.717   1.569   2.885
 2308SOL     OW 7822   0.925   6.828   0.350
 2308SOL    HW1 7823   0.975   6.746   0.374
 2308SOL    HW2 7824   0.988   6.905   0.341
 2309SOL     OW 7825   2.693   5.091   5.880
 2309SOL    HW1 7826   2.717   5.151   5.957
 2309SOL    HW2 7827   2.603   5.052   5.896
 2310SOL     OW 7828   5.691   1.440   3.342
 2310SOL    HW1 7829   5.600   1.478   3.328
 2310SOL    HW2 7830   5.737   1.490   3.415
 2311SOL     OW 7831   2.531   0.514   2.292
 2311SOL    HW1 7832   2.610   0.457   2.268
 2311SOL    HW2 7833   2.517   0.582   2.219
 2312SOL     OW 7834   2.452   1.184   2.379
 2312SOL    HW1 7835   2.541   1.229   2.372
 2312SOL    HW2 7836   2.403   1.220   2.459
 2313SOL     OW 7837   5.213   4.041   1.819
 2313SOL    HW1 7838   5.310   4.015   1.819
 2313SOL    HW2 7839   5.198   4.113   1.886
 2314SOL     OW 7840   6.582   6.524   2.847
 2314SOL    HW1 7841   6.584   6.526   2.747
 2314SOL    HW2 7842   6.675   6.513   2.883
 2315SOL     OW 7843   4.361   6.026   4.866
 2315SOL    HW1 7844   4.399   6.118   4.876
 2315SOL    HW2 7845   4.349   5.985   4.956
 2316SOL     OW 7846   3.175   1.670   5.604
 2316SOL    HW1 7847   3.170   1.717   5.516
 2316SOL    HW2 7848   3.131   1.581   5.597
 2317SOL     OW 7849   0.061   4.909   2.790
 2317SOL    HW1 7850   7.006   4.972   2.756
 2317SOL    HW2 7851   0.138   4.909   2.727
 2318SOL     OW 7852   1.209   4.537   4.229
 2318SOL    HW1 7853   1.147   4.480   4.175
 2318SOL    HW2 7854   1.295   4.488   4.243
 2319SOL     OW 7855   1.930   5.374   3.573
 2319SOL    HW1 7856   1.933   5.457   3.518
 2319SOL    HW2 7857   1.965   5.297   3.519
 2320SOL     OW 7858   0.742   1.829   5.211
 2320SOL    HW1 7859   0.732   1.777   5.296
 2320SOL    HW2 7860   0.833   1.871   5.208
 2321SOL     OW 7861   1.801   4.556   5.222
 2321SOL    HW1 7862   1.853   4.599   5.295
 2321SOL    HW2 7863   1.861   4.537   5.144
 2322SOL     OW 7864   1.663   3.659   1.727
 2322SOL    HW1 7865   1.579   3.606   1.723
 2322SOL    HW2 7866   1.739   3.606   1.689
 2323SOL     OW 7867   2.643   5.200   0.797
 2323SOL    HW1 7868   2.657   5.297   0.775
 2323SOL    HW2 7869   2.629   5.149   0.712
 2324SOL     OW 7870   6.714   5.291   2.426
 2324SOL    HW1 7871   6.722   5.194   2.450
 2324SOL    HW2 7872   6.802   5.325   2.393
 2325SOL     OW 7873   5.918   5.270   2.076
 2325SOL    HW1 7874   5.964   5.358   2.065
 2325SOL    HW2 7875   5.978   5.197   2.043
 2326SOL     OW 7876   1.714   0.286   6.894
 2326SOL    HW1 7877   1.643   0.284   6.964
 2326SOL    HW2 7878   1.789   0.345   6.924
 2327SOL     OW 7879   0.043   6.811   2.264
 2327SOL    HW1 7880   0.041   6.721   2.308
 2327SOL    HW2 7881   0.042   6.799   2.164
 2328SOL     OW 7882   2.084   3.779   2.531
 2328SOL    HW1 7883   2.088   3.734   2.442
 2328SOL    HW2 7884   2.122   3.871   2.524
 2329SOL     OW 7885   0.300   4.927   3.238
 2329SOL    HW1 7886   0.324   4.839   3.279
 2329SOL    HW2 7887   0.306   4.920   3.139
 2330SOL     OW 7888   6.301   3.014   0.959
 2330SOL    HW1 7889   6.393   3.030   0.995
 2330SOL    HW2 7890   6.294   3.052   0.867
 2331SOL     OW 7891   5.184   5.702   1.443
 2331SOL    HW1 7892   5.181   5.722   1.541
 2331SOL    HW2 7893   5.111   5.638   1.420
 2332SOL     OW 7894   5.930   6.864   5.998
 2332SOL    HW1 7895   5.833   6.888   5.998
 2332SOL    HW2 7896   5.957   6.836   5.906
 2333SOL     OW 7897   0.558   4.363   2.542
 2333SOL    HW1 7898   0.521   4.405   2.626
 2333SOL    HW2 7899   0.505   4.282   2.520
 2334SOL     OW 7900   2.855   1.733   6.417
 2334SOL    HW1 7901   2.862   1.754   6.515
 2334SOL    HW2 7902   2.820   1.813   6.369
 2335SOL     OW 7903   6.694   1.556   3.616
 2335SOL    HW1 7904   6.704   1.466   3.659
 2335SOL    HW2 7905   6.686   1.626   3.686
 2336SOL     OW 7906   1.640   1.638   3.647
 2336SOL    HW1 7907   1.571   1.617   3.716
 2336SOL    HW2 7908   1.731   1.638   3.689
 2337SOL     OW 7909   4.176   1.526   1.396
 2337SOL    HW1 7910   4.081   1.505   1.422
 2337SOL    HW2 7911   4.225   1.559   1.477
 2338SOL     OW 7912   6.952   3.922   3.764
 2338SOL    HW1 7913   6.949   3.944   3.667
 2338SOL    HW2 7914   6.946   3.823   3.776
 2339SOL     OW 7915   3.098   3.213   3.367
 2339SOL    HW1 7916   3.073   3.229   3.271
 2339SOL    HW2 7917   3.095   3.299   3.417
 2340SOL     OW 7918   2.351   4.566   6.940
 2340SOL    HW1 7919   2.294   4.509   6.881
 2340SOL    HW2 7920   2.436   4.518   6.961
 2341SOL     OW 7921   2.365   4.235   3.976
 2341SOL    HW1 7922   2.391   4.288   3.895
 2341SOL    HW2 7923   2.366   4.295   4.057
 2342SOL     OW 7924   3.363   1.174   4.019
 2342SOL    HW1 7925   3.411   1.088   4.000
 2342SOL    HW2 7926   3.391   1.209   4.108
 2343SOL     OW 7927   0.942   0.085   1.578
 2343SOL    HW1 7928   0.956   0.020   1.653
 2343SOL    HW2 7929   0.844   0.091   1.558
 2344SOL     OW 7930   5.509   4.167   0.451
 2344SOL    HW1 7931   5.458   4.232   0.508
 2344SOL    HW2 7932   5.596   4.146   0.494
 2345SOL     OW 7933   3.559   6.011   4.713
 2345SOL    HW1 7934   3.521   6.035   4.802
 2345SOL    HW2 7935   3.628   6.078   4.687
 2346SOL     OW 7936   4.595   3.447   6.968
 2346SOL    HW1 7937   4.683   3.402   6.959
 2346SOL    HW2 7938   4.531   3.388   0.002
 2347SOL     OW 7939   1.800   2.165   1.444
 2347SOL    HW1 7940   1.774   2.207   1.531
 2347SOL    HW2 7941   1.881   2.212   1.407
 2348SOL     OW 7942   0.345   5.100   2.134
 2348SOL    HW1 7943   0.333   5.004   2.161
 2348SOL    HW2 7944   0.378   5.104   2.040
 2349SOL     OW 7945   0.976   4.276   5.219
 2349SOL    HW1 7946   0.894   4.294   5.274
 2349SOL    HW2 7947   1.055   4.265   5.280
 2350SOL     OW 7948   5.521   3.407   6.912
 2350SOL    HW1 7949   5.444   3.417   6.975
 2350SOL    HW2 7950   5.601   3.373   6.961
 2351SOL     OW 7951   2.334   5.802   2.368
 2351SOL    HW1 7952   2.306   5.818   2.274
 2351SOL    HW2 7953   2.421   5.753   2.369
 2352SOL     OW 7954   0.099   2.445   3.205
 2352SOL    HW1 7955   0.156   2.523   3.180
 2352SOL    HW2 7956   0.094   2.382   3.128
 2353SOL     OW 7957   3.342   5.041   4.631
 2353SOL    HW1 7958   3.338   5.113   4.700
 2353SOL    HW2 7959   3.254   5.033   4.585
 2354SOL     OW 7960   2.429   2.589   4.066
 2354SOL    HW1 7961   2.490   2.548   3.998
 2354SOL    HW2 7962   2.469   2.580   4.157
 2355SOL     OW 7963   2.390   5.908   4.975
 2355SOL    HW1 7964   2.466   5.907   4.910
 2355SOL    HW2 7965   2.313   5.855   4.938
 2356SOL     OW 7966   6.671   3.109   6.610
 2356SOL    HW1 7967   6.670   3.012   6.636
 2356SOL    HW2 7968   6.671   3.116   6.510
 2357SOL     OW 7969   2.286   6.551   2.898
 2357SOL    HW1 7970   2.223   6.551   2.975
 2357SOL    HW2 7971   2.337   6.466   2.897
 2358SOL     OW 7972   3.432   4.447   5.871
 2358SOL    HW1 7973   3.360   4.422   5.806
 2358SOL    HW2 7974   3.472   4.364   5.910
 2359SOL     OW 7975   1.671   6.862   4.723
 2359SOL    HW1 7976   1.584   6.888   4.765
 2359SOL    HW2 7977   1.669   6.884   4.625
 2360SOL     OW 7978   6.578   4.117   0.253
 2360SOL    HW1 7979   6.610   4.075   0.338
 2360SOL    HW2 7980   6.485   4.087   0.234
 2361SOL     OW 7981   3.142   1.437   0.306
 2361SOL    HW1 7982   3.087   1.407   0.384
 2361SOL    HW2 7983   3.116   1.384   0.225
 2362SOL     OW 7984   2.899   5.915   3.399
 2362SOL    HW1 7985   2.921   5.860   3.319
 2362SOL    HW2 7986   2.935   6.007   3.388
 2363SOL     OW 7987   3.935   0.294   4.245
 2363SOL    HW1 7988   3.910   0.389   4.265
 2363SOL    HW2 7989   3.852   0.241   4.225
 2364SOL     OW 7990   0.978   2.626   1.039
 2364SOL    HW1 7991   1.028   2.594   1.119
 2364SOL    HW2 7992   1.035   2.615   0.957
 2365SOL     OW 7993   5.035   2.440   6.758
 2365SOL    HW1 7994   5.048   2.350   6.800
 2365SOL    HW2 7995   5.070   2.510   6.819
 2366SOL     OW 7996   4.340   5.648   0.618
 2366SOL    HW1 7997   4.261   5.704   0.592
 2366SOL    HW2 7998   4.310   5.553   0.633
 2367SOL     OW 7999   2.376   3.374   6.053
 2367SOL    HW1 8000   2.434   3.293   6.043
 2367SOL    HW2 8001   2.391   3.435   5.975
 2368SOL     OW 8002   6.364   6.000   2.351
 2368SOL    HW1 8003   6.439   6.005   2.285
 2368SOL    HW2 8004   6.347   5.905   2.376
 2369SOL     OW 8005   2.557   0.935   3.423
 2369SOL    HW1 8006   2.508   1.007   3.471
 2369SOL    HW2 8007   2.656   0.953   3.429
 2370SOL     OW 8008   6.376   2.510   6.255
 2370SOL    HW1 8009   6.387   2.415   6.282
 2370SOL    HW2 8010   6.281   2.526   6.226
 2371SOL     OW 8011   2.613   6.518   1.915
 2371SOL    HW1 8012   2.679   6.471   1.855
 2371SOL    HW2 8013   2.663   6.573   1.982
 2372SOL     OW 8014   6.543   3.015   2.883
 2372SOL    HW1 8015   6.528   2.918   2.862
 2372SOL    HW2 8016   6.481   3.071   2.829
 2373SOL     OW 8017   2.616   3.455   6.451
 2373SOL    HW1 8018   2.692   3.393   6.431
 2373SOL    HW2 8019   2.583   3.497   6.367
 2374SOL     OW 8020   5.679   3.186   4.883
 2374SOL    HW1 8021   5.693   3.094   4.847
 2374SOL    HW2 8022   5.640   3.244   4.812
 2375SOL     OW 8023   2.771   6.506   5.063
 2375SOL    HW1 8024   2.856   6.455   5.076
 2375SOL    HW2 8025   2.755   6.566   5.142
 2376SOL     OW 8026   6.330   2.825   4.493
 2376SOL    HW1 8027   6.323   2.786   4.402
 2376SOL    HW2 8028   6.337   2.751   4.560
 2377SOL     OW 8029   3.792   2.937   3.693
 2377SOL    HW1 8030   3.779   2.900   3.785
 2377SOL    HW2 8031   3.736   2.886   3.629
 2378SOL     OW 8032   5.181   2.775   0.508
 2378SOL    HW1 8033   5.224   2.713   0.442
 2378SOL    HW2 8034   5.174   2.728   0.596
 2379SOL     OW 8035   0.071   6.816   6.377
 2379SOL    HW1 8036   0.165   6.840   6.356
 2379SOL    HW2 8037   0.037   6.876   6.449
 2380SOL     OW 8038   6.139   2.136   2.624
 2380SOL    HW1 8039   6.167   2.075   2.550
 2380SOL    HW2 8040   6.216   2.195   2.650
 2381SOL     OW 8041   1.760   6.705   3.100
 2381SOL    HW1 8042   1.774   6.691   3.002
 2381SOL    HW2 8043   1.676   6.658   3.128
 2382SOL     OW 8044   1.700   3.617   5.860
 2382SOL    HW1 8045   1.687   3.518   5.862
 2382SOL    HW2 8046   1.693   3.650   5.766
 2383SOL     OW 8047   5.810   5.931   2.097
 2383SOL    HW1 8048   5.731   5.985   2.127
 2383SOL    HW2 8049   5.894   5.971   2.134
 2384SOL     OW 8050   4.140   1.925   1.651
 2384SOL    HW1 8051   4.138   2.023   1.632
 2384SOL    HW2 8052   4.231   1.889   1.633
 2385SOL     OW 8053   0.487   2.315   6.851
 2385SOL    HW1 8054   0.417   2.302   6.780
 2385SOL    HW2 8055   0.575   2.335   6.807
 2386SOL     OW 8056   4.111   5.424   3.943
 2386SOL    HW1 8057   4.152   5.441   4.033
 2386SOL    HW2 8058   4.171   5.362   3.891
 2387SOL     OW 8059   1.589   1.444   2.553
 2387SOL    HW1 8060   1.673   1.394   2.577
 2387SOL    HW2 8061   1.608   1.508   2.479
 2388SOL     OW 8062   6.834   1.958   4.243
 2388SOL    HW1 8063   6.809   2.033   4.305
 2388SOL    HW2 8064   6.886   1.996   4.166
 2389SOL     OW 8065   3.605   6.432   2.465
 2389SOL    HW1 8066   3.535   6.363   2.484
 2389SOL    HW2 8067   3.684   6.416   2.524
 2390SOL     OW 8068   3.085   4.323   1.399
 2390SOL    HW1 8069   3.151   4.272   1.343
 2390SOL    HW2 8070   3.127   4.347   1.487
 2391SOL     OW 8071   3.882   5.590   5.389
 2391SOL    HW1 8072   3.923   5.574   5.300
 2391SOL    HW2 8073   3.832   5.677   5.388
 2392SOL     OW 8074   3.954   1.132   6.621
 2392SOL    HW1 8075   3.950   1.220   6.575
 2392SOL    HW2 8076   4.049   1.111   6.645
 2393SOL     OW 8077   3.416   5.281   5.271
 2393SOL    HW1 8078   3.477   5.302   5.347
 2393SOL    HW2 8079   3.422   5.184   5.249
 2394SOL     OW 8080   0.010   4.851   5.734
 2394SOL    HW1 8081   0.087   4.796   5.766
 2394SOL    HW2 8082   0.023   4.875   5.637
 2395SOL     OW 8083   4.260   6.774   6.474
 2395SOL    HW1 8084   4.259   6.683   6.516
 2395SOL    HW2 8085   4.305   6.768   6.384
 2396SOL     OW 8086   3.417   5.276   0.552
 2396SOL    HW1 8087   3.363   5.197   0.521
 2396SOL    HW2 8088   3.446   5.261   0.646
 2397SOL     OW 8089   6.958   3.579   3.830
 2397SOL    HW1 8090   0.005   3.508   3.861
 2397SOL    HW2 8091   6.891   3.598   3.901
 2398SOL     OW 8092   4.603   3.981   5.350
 2398SOL    HW1 8093   4.590   4.077   5.371
 2398SOL    HW2 8094   4.547   3.925   5.411
 2399SOL     OW 8095   4.142   2.370   1.720
 2399SOL    HW1 8096   4.075   2.438   1.691
 2399SOL    HW2 8097   4.133   2.288   1.663
 2400SOL     OW 8098   1.853   5.273   0.872
 2400SOL    HW1 8099   1.846   5.209   0.795
 2400SOL    HW2 8100   1.861   5.366   0.836
 2401SOL     OW 8101   0.211   6.085   5.867
 2401SOL    HW1 8102   0.156   6.106   5.948
 2401SOL    HW2 8103   0.276   6.012   5.888
 2402SOL     OW 8104   6.683   6.384   3.911
 2402SOL    HW1 8105   6.655   6.330   3.832
 2402SOL    HW2 8106   6.633   6.353   3.992
 2403SOL     OW 8107   0.435   1.253   4.951
 2403SOL    HW1 8108   0.408   1.157   4.943
 2403SOL    HW2 8109   0.420   1.284   5.045
 2404SOL     OW 8110   1.493   1.049   0.472
 2404SOL    HW1 8111   1.546   1.064   0.389
 2404SOL    HW2 8112   1.498   0.952   0.498
 2405SOL     OW 8113   3.102   3.822   1.419
 2405SOL    HW1 8114   3.132   3.821   1.323
 2405SOL    HW2 8115   3.004   3.802   1.423
 2406SOL     OW 8116   4.743   0.946   1.200
 2406SOL    HW1 8117   4.672   0.983   1.140
 2406SOL    HW2 8118   4.753   0.848   1.184
 2407SOL     OW 8119   5.331   0.136   3.552
 2407SOL    HW1 8120   5.268   0.206   3.516
 2407SOL    HW2 8121   5.288   0.088   3.628
 2408SOL     OW 8122   4.495   4.446   2.211
 2408SOL    HW1 8123   4.523   4.375   2.146
 2408SOL    HW2 8124   4.473   4.530   2.162
 2409SOL     OW 8125   0.989   4.498   0.461
 2409SOL    HW1 8126   0.935   4.560   0.405
 2409SOL    HW2 8127   0.953   4.405   0.452
 2410SOL     OW 8128   3.111   2.975   2.698
 2410SOL    HW1 8129   3.169   3.010   2.624
 2410SOL    HW2 8130   3.126   2.877   2.707
 2411SOL     OW 8131   4.703   0.247   4.326
 2411SOL    HW1 8132   4.772   0.244   4.254
 2411SOL    HW2 8133   4.697   0.158   4.370
 2412SOL     OW 8134   4.129   3.685   1.142
 2412SOL    HW1 8135   4.194   3.735   1.085
 2412SOL    HW2 8136   4.155   3.588   1.144
 2413SOL     OW 8137   4.255   0.199   2.761
 2413SOL    HW1 8138   4.166   0.186   2.718
 2413SOL    HW2 8139   4.253   0.283   2.816
 2414SOL     OW 8140   5.531   3.164   4.258
 2414SOL    HW1 8141   5.470   3.105   4.310
 2414SOL    HW2 8142   5.491   3.255   4.249
 2415SOL     OW 8143   4.363   1.088   3.111
 2415SOL    HW1 8144   4.338   1.045   3.025
 2415SOL    HW2 8145   4.350   1.023   3.186
 2416SOL     OW 8146   5.537   1.912   6.753
 2416SOL    HW1 8147   5.564   1.818   6.776
 2416SOL    HW2 8148   5.610   1.975   6.779
 2417SOL     OW 8149   3.158   4.339   5.431
 2417SOL    HW1 8150   3.221   4.266   5.406
 2417SOL    HW2 8151   3.066   4.317   5.397
 2418SOL     OW 8152   3.291   3.251   2.728
 2418SOL    HW1 8153   3.209   3.251   2.784
 2418SOL    HW2 8154   3.303   3.341   2.686
 2419SOL     OW 8155   0.490   0.516   3.291
 2419SOL    HW1 8156   0.533   0.580   3.227
 2419SOL    HW2 8157   0.392   0.536   3.298
 2420SOL     OW 8158   2.123   0.060   2.025
 2420SOL    HW1 8159   2.103   0.021   1.935
 2420SOL    HW2 8160   2.150   0.155   2.015
 2421SOL     OW 8161   3.441   1.663   3.272
 2421SOL    HW1 8162   3.362   1.720   3.251
 2421SOL    HW2 8163   3.410   1.568   3.286
 2422SOL     OW 8164   4.974   1.862   0.732
 2422SOL    HW1 8165   5.068   1.891   0.715
 2422SOL    HW2 8166   4.974   1.776   0.782
 2423SOL     OW 8167   1.773   5.163   2.659
 2423SOL    HW1 8168   1.864   5.199   2.681
 2423SOL    HW2 8169   1.712   5.176   2.737
 2424SOL     OW 8170   6.782   0.439   0.452
 2424SOL    HW1 8171   6.813   0.512   0.391
 2424SOL    HW2 8172   6.800   0.466   0.547
 2425SOL     OW 8173   6.756   6.742   4.541
 2425SOL    HW1 8174   6.827   6.676   4.565
 2425SOL    HW2 8175   6.743   6.743   4.442
 2426SOL     OW 8176   2.497   4.652   4.166
 2426SOL    HW1 8177   2.574   4.682   4.222
 2426SOL    HW2 8178   2.421   4.716   4.177
 2427SOL     OW 8179   6.206   7.006   5.731
 2427SOL    HW1 8180   6.120   6.983   5.686
 2427SOL    HW2 8181   6.280   6.953   5.691
 2428SOL     OW 8182   5.561   0.996   0.606
 2428SOL    HW1 8183   5.552   0.981   0.508
 2428SOL    HW2 8184   5.654   1.027   0.627
 2429SOL     OW 8185   5.046   4.869   2.406
 2429SOL    HW1 8186   5.062   4.933   2.482
 2429SOL    HW2 8187   4.956   4.828   2.416
 2430SOL     OW 8188   4.863   6.643   2.766
 2430SOL    HW1 8189   4.937   6.619   2.828
 2430SOL    HW2 8190   4.901   6.670   2.677
 2431SOL     OW 8191   4.434   6.725   2.272
 2431SOL    HW1 8192   4.533   6.738   2.278
 2431SOL    HW2 8193   4.409   6.640   2.318
 2432SOL     OW 8194   2.357   6.056   2.532
 2432SOL    HW1 8195   2.357   5.962   2.498
 2432SOL    HW2 8196   2.434   6.106   2.492
 2433SOL     OW 8197   4.583   0.645   0.882
 2433SOL    HW1 8198   4.561   0.576   0.814
 2433SOL    HW2 8199   4.599   0.733   0.837
 2434SOL     OW 8200   3.420   2.907   4.481
 2434SOL    HW1 8201   3.415   3.007   4.488
 2434SOL    HW2 8202   3.406   2.867   4.571
 2435SOL     OW 8203   6.137   6.078   5.893
 2435SOL    HW1 8204   6.062   6.024   5.856
 2435SOL    HW2 8205   6.181   6.027   5.967
 2436SOL     OW 8206   2.524   4.868   0.698
 2436SOL    HW1 8207   2.554   4.964   0.694
 2436SOL    HW2 8208   2.539   4.825   0.609
 2437SOL     OW 8209   6.655   0.760   5.385
 2437SOL    HW1 8210   6.695   0.669   5.392
 2437SOL    HW2 8211   6.686   0.816   5.461
 2438SOL     OW 8212   3.047   3.545   0.829
 2438SOL    HW1 8213   3.132   3.507   0.865
 2438SOL    HW2 8214   3.006   3.606   0.897
 2439SOL     OW 8215   6.087   4.720   6.187
 2439SOL    HW1 8216   6.001   4.670   6.172
 2439SOL    HW2 8217   6.114   4.767   6.103
 2440SOL     OW 8218   5.926   4.837   5.647
 2440SOL    HW1 8219   5.910   4.850   5.549
 2440SOL    HW2 8220   6.013   4.880   5.673
 2441SOL     OW 8221   6.188   2.193   0.583
 2441SOL    HW1 8222   6.266   2.176   0.642
 2441SOL    HW2 8223   6.150   2.106   0.551
 2442SOL     OW 8224   6.732   2.126   5.027
 2442SOL    HW1 8225   6.661   2.194   5.016
 2442SOL    HW2 8226   6.795   2.154   5.100
 2443SOL     OW 8227   2.771   4.906   5.288
 2443SOL    HW1 8228   2.837   4.891   5.214
 2443SOL    HW2 8229   2.744   4.818   5.327
 2444SOL     OW 8230   3.951   2.711   5.845
 2444SOL    HW1 8231   3.880   2.774   5.816
 2444SOL    HW2 8232   4.038   2.760   5.853
 2445SOL     OW 8233   1.208   0.044   0.693
 2445SOL    HW1 8234   1.230   6.999   0.770
 2445SOL    HW2 8235   1.279   0.114   0.684
 2446SOL     OW 8236   4.854   3.041   6.158
 2446SOL    HW1 8237   4.885   2.965   6.216
 2446SOL    HW2 8238   4.858   3.013   6.062
 2447SOL     OW 8239   0.791   3.477   6.593
 2447SOL    HW1 8240   0.838   3.565   6.588
 2447SOL    HW2 8241   0.702   3.489   6.638
 2448SOL     OW 8242   0.102   6.975   4.706
 2448SOL    HW1 8243   0.199   6.997   4.701
 2448SOL    HW2 8244   0.055   0.028   4.761
 2449SOL     OW 8245   0.522   2.633   4.997
 2449SOL    HW1 8246   0.538   2.718   5.047
 2449SOL    HW2 8247   0.462   2.573   5.051
 2450SOL     OW 8248   2.423   3.321   1.520
 2450SOL    HW1 8249   2.519   3.348   1.524
 2450SOL    HW2 8250   2.365   3.402   1.528
 2451SOL     OW 8251   1.945   5.477   3.830
 2451SOL    HW1 8252   1.939   5.447   3.735
 2451SOL    HW2 8253   1.992   5.565   3.835
 2452SOL     OW 8254   2.271   2.375   4.809
 2452SOL    HW1 8255   2.316   2.288   4.833
 2452SOL    HW2 8256   2.207   2.400   4.881
 2453SOL     OW 8257   0.572   3.609   1.004
 2453SOL    HW1 8258   0.505   3.665   1.052
 2453SOL    HW2 8259   0.608   3.659   0.926
 2454SOL     OW 8260   1.290   0.176   2.158
 2454SOL    HW1 8261   1.229   0.251   2.186
 2454SOL    HW2 8262   1.373   0.214   2.117
 2455SOL     OW 8263   5.548   3.496   1.245
 2455SOL    HW1 8264   5.561   3.534   1.153
 2455SOL    HW2 8265   5.620   3.430   1.265
 2456SOL     OW 8266   2.518   6.929   1.239
 2456SOL    HW1 8267   2.496   6.834   1.213
 2456SOL    HW2 8268   2.477   6.949   1.328
 2457SOL     OW 8269   5.970   5.902   1.142
 2457SOL    HW1 8270   5.883   5.937   1.107
 2457SOL    HW2 8271   5.955   5.851   1.227
 2458SOL     OW 8272   0.639   6.395   1.779
 2458SOL    HW1 8273   0.551   6.355   1.755
 2458SOL    HW2 8274   0.712   6.346   1.732
 2459SOL     OW 8275   1.248   1.308   0.306
 2459SOL    HW1 8276   1.341   1.320   0.340
 2459SOL    HW2 8277   1.220   1.391   0.257
 2460SOL     OW 8278   2.532   4.620   1.400
 2460SOL    HW1 8279   2.616   4.665   1.430
 2460SOL    HW2 8280   2.502   4.556   1.472
 2461SOL     OW 8281   4.689   1.345   3.134
 2461SOL    HW1 8282   4.609   1.406   3.135
 2461SOL    HW2 8283   4.688   1.291   3.050
 2462SOL     OW 8284   3.030   3.895   6.057
 2462SOL    HW1 8285   2.958   3.860   5.997
 2462SOL    HW2 8286   3.000   3.981   6.099
 2463SOL     OW 8287   0.866   2.784   5.149
 2463SOL    HW1 8288   0.962   2.805   5.133
 2463SOL    HW2 8289   0.858   2.714   5.220
 2464SOL     OW 8290   0.745   3.331   0.505
 2464SOL    HW1 8291   0.659   3.376   0.485
 2464SOL    HW2 8292   0.738   3.283   0.593
 2465SOL     OW 8293   6.535   4.719   2.698
 2465SOL    HW1 8294   6.569   4.634   2.657
 2465SOL    HW2 8295   6.515   4.785   2.625
 2466SOL     OW 8296   3.349   1.906   1.748
 2466SOL    HW1 8297   3.280   1.955   1.801
 2466SOL    HW2 8298   3.311   1.819   1.716
 2467SOL     OW 8299   0.651   0.919   4.752
 2467SOL    HW1 8300   0.705   0.988   4.703
 2467SOL    HW2 8301   0.697   0.895   4.837
 2468SOL     OW 8302   6.336   4.837   6.738
 2468SOL    HW1 8303   6.319   4.923   6.689
 2468SOL    HW2 8304   6.346   4.855   6.835
 2469SOL     OW 8305   2.871   2.672   5.857
 2469SOL    HW1 8306   2.846   2.668   5.954
 2469SOL    HW2 8307   2.908   2.762   5.835
 2470SOL     OW 8308   5.261   2.933   1.433
 2470SOL    HW1 8309   5.338   2.872   1.452
 2470SOL    HW2 8310   5.200   2.889   1.367
 2471SOL     OW 8311   0.331   1.584   2.775
 2471SOL    HW1 8312   0.242   1.594   2.730
 2471SOL    HW2 8313   0.354   1.487   2.784
 2472SOL     OW 8314   6.050   0.378   3.785
 2472SOL    HW1 8315   5.977   0.313   3.807
 2472SOL    HW2 8316   6.137   0.344   3.820
 2473SOL     OW 8317   0.498   5.947   5.406
 2473SOL    HW1 8318   0.450   5.960   5.492
 2473SOL    HW2 8319   0.549   5.861   5.410
 2474SOL     OW 8320   6.345   6.809   4.614
 2474SOL    HW1 8321   6.321   6.713   4.631
 2474SOL    HW2 8322   6.433   6.829   4.655
 2475SOL     OW 8323   4.153   2.449   6.081
 2475SOL    HW1 8324   4.241   2.413   6.049
 2475SOL    HW2 8325   4.116   2.511   6.011
 2476SOL     OW 8326   0.573   1.505   3.323
 2476SOL    HW1 8327   0.553   1.409   3.309
 2476SOL    HW2 8328   0.598   1.521   3.419
 2477SOL     OW 8329   4.458   4.567   2.473
 2477SOL    HW1 8330   4.463   4.531   2.380
 2477SOL    HW2 8331   4.461   4.667   2.471
 2478SOL     OW 8332   6.874   0.432   2.011
 2478SOL    HW1 8333   6.915   0.507   1.959
 2478SOL    HW2 8334   6.943   0.391   2.071
 2479SOL     OW 8335   1.186   3.587   0.185
 2479SOL    HW1 8336   1.105   3.535   0.156
 2479SOL    HW2 8337   1.218   3.643   0.109
 2480SOL     OW 8338   6.619   5.164   1.524
 2480SOL    HW1 8339   6.689   5.094   1.508
 2480SOL    HW2 8340   6.663   5.253   1.533
 2481SOL     OW 8341   4.192   4.694   2.500
 2481SOL    HW1 8342   4.250   4.635   2.557
 2481SOL    HW2 8343   4.186   4.785   2.542
 2482SOL     OW 8344   4.223   2.248   4.704
 2482SOL    HW1 8345   4.182   2.157   4.701
 2482SOL    HW2 8346   4.223   2.281   4.798
 2483SOL     OW 8347   1.132   3.539   6.856
 2483SOL    HW1 8348   1.191   3.458   6.856
 2483SOL    HW2 8349   1.182   3.616   6.896
 2484SOL     OW 8350   3.862   4.131   5.781
 2484SOL    HW1 8351   3.790   4.064   5.799
 2484SOL    HW2 8352   3.823   4.210   5.733
 2485SOL     OW 8353   0.832   5.830   6.863
 2485SOL    HW1 8354   0.832   5.923   6.824
 2485SOL    HW2 8355   0.851   5.764   6.791
 2486SOL     OW 8356   0.699   5.530   3.500
 2486SOL    HW1 8357   0.603   5.527   3.527
 2486SOL    HW2 8358   0.715   5.611   3.444
 2487SOL     OW 8359   3.565   1.391   1.516
 2487SOL    HW1 8360   3.570   1.436   1.427
 2487SOL    HW2 8361   3.470   1.385   1.545
 2488SOL     OW 8362   3.137   5.707   6.310
 2488SOL    HW1 8363   3.219   5.695   6.366
 2488SOL    HW2 8364   3.058   5.722   6.369
 2489SOL     OW 8365   6.835   5.268   4.651
 2489SOL    HW1 8366   6.784   5.199   4.702
 2489SOL    HW2 8367   6.780   5.301   4.575
 2490SOL     OW 8368   5.662   3.096   1.464
 2490SOL    HW1 8369   5.733   3.131   1.525
 2490SOL    HW2 8370   5.575   3.140   1.485
 2491SOL     OW 8371   6.673   3.944   2.884
 2491SOL    HW1 8372   6.745   3.881   2.914
 2491SOL    HW2 8373   6.695   4.036   2.915
 2492SOL     OW 8374   4.241   1.254   6.786
 2492SOL    HW1 8375   4.274   1.200   6.863
 2492SOL    HW2 8376   4.195   1.336   6.819
 2493SOL     OW 8377   6.146   0.461   5.398
 2493SOL    HW1 8378   6.234   0.414   5.396
 2493SOL    HW2 8379   6.101   0.444   5.485
 2494SOL     OW 8380   5.054   4.987   0.678
 2494SOL    HW1 8381   5.090   4.927   0.750
 2494SOL    HW2 8382   4.961   4.959   0.654
 2495SOL     OW 8383   0.353   1.536   2.377
 2495SOL    HW1 8384   0.269   1.486   2.357
 2495SOL    HW2 8385   0.397   1.497   2.458
 2496SOL     OW 8386   2.250   4.844   0.690
 2496SOL    HW1 8387   2.348   4.860   0.702
 2496SOL    HW2 8388   2.203   4.858   0.778
 2497SOL     OW 8389   5.668   0.624   6.359
 2497SOL    HW1 8390   5.665   0.604   6.457
 2497SOL    HW2 8391   5.580   0.601   6.318
 2498SOL     OW 8392   0.637   3.217   4.631
 2498SOL    HW1 8393   0.599   3.267   4.710
 2498SOL    HW2 8394   0.727   3.254   4.608
 2499SOL     OW 8395   5.214   0.796   0.183
 2499SOL    HW1 8396   5.266   0.843   0.254
 2499SOL    HW2 8397   5.244   0.701   0.177
 2500SOL     OW 8398   5.307   3.697   6.185
 2500SOL    HW1 8399   5.345   3.716   6.094
 2500SOL    HW2 8400   5.233   3.630   6.178
 2501SOL     OW 8401   6.778   4.760   1.089
 2501SOL    HW1 8402   6.825   4.756   1.001
 2501SOL    HW2 8403   6.787   4.852   1.127
 2502SOL     OW 8404   1.071   7.001   3.430
 2502SOL    HW1 8405   1.085   0.022   3.338
 2502SOL    HW2 8406   0.974   6.980   3.443
 2503SOL     OW 8407   5.538   6.610   4.683
 2503SOL    HW1 8408   5.515   6.635   4.589
 2503SOL    HW2 8409   5.533   6.510   4.693
 2504SOL     OW 8410   2.562   4.691   3.155
 2504SOL    HW1 8411   2.503   4.659   3.229
 2504SOL    HW2 8412   2.525   4.662   3.067
 2505SOL     OW 8413   5.005   4.276   4.794
 2505SOL    HW1 8414   5.076   4.268   4.725
 2505SOL    HW2 8415   4.922   4.231   4.762
 2506SOL     OW 8416   0.621   0.748   0.442
 2506SOL    HW1 8417   0.575   0.661   0.430
 2506SOL    HW2 8418   0.679   0.745   0.524
 2507SOL     OW 8419   6.612   6.455   0.209
 2507SOL    HW1 8420   6.616   6.520   0.133
 2507SOL    HW2 8421   6.663   6.492   0.287
 2508SOL     OW 8422   1.653   2.087   2.010
 2508SOL    HW1 8423   1.627   1.991   2.020
 2508SOL    HW2 8424   1.604   2.142   2.078
 2509SOL     OW 8425   6.334   7.008   3.926
 2509SOL    HW1 8426   6.275   6.934   3.957
 2509SOL    HW2 8427   6.420   7.006   3.978
 2510SOL     OW 8428   4.142   5.899   2.525
 2510SOL    HW1 8429   4.144   5.883   2.426
 2510SOL    HW2 8430   4.151   5.811   2.572
 2511SOL     OW 8431   0.770   6.044   3.505
 2511SOL    HW1 8432   0.676   6.014   3.484
 2511SOL    HW2 8433   0.769   6.093   3.592
 2512SOL     OW 8434   5.661   3.458   4.416
 2512SOL    HW1 8435   5.746   3.468   4.365
 2512SOL    HW2 8436   5.595   3.527   4.385
 2513SOL     OW 8437   0.079   4.979   0.978
 2513SOL    HW1 8438   0.155   4.914   0.971
 2513SOL    HW2 8439   7.013   4.939   0.935
 2514SOL     OW 8440   6.710   2.029   3.628
 2514SOL    HW1 8441   6.632   2.050   3.569
 2514SOL    HW2 8442   6.694   1.941   3.674
 2515SOL     OW 8443   1.095   4.155   6.846
 2515SOL    HW1 8444   1.049   4.149   6.935
 2515SOL    HW2 8445   1.083   4.247   6.808
 2516SOL     OW 8446   4.622   6.779   3.963
 2516SOL    HW1 8447   4.561   6.847   4.003
 2516SOL    HW2 8448   4.717   6.803   3.983
 2517SOL     OW 8449   2.447   5.526   0.689
 2517SOL    HW1 8450   2.447   5.622   0.659
 2517SOL    HW2 8451   2.538   5.487   0.675
 2518SOL     OW 8452   2.256   2.095   0.169
 2518SOL    HW1 8453   2.272   2.091   0.070
 2518SOL    HW2 8454   2.187   2.166   0.188
 2519SOL     OW 8455   5.953   4.546   4.750
 2519SOL    HW1 8456   5.982   4.574   4.658
 2519SOL    HW2 8457   6.033   4.515   4.802
 2520SOL     OW 8458   4.032   5.409   0.642
 2520SOL    HW1 8459   3.978   5.366   0.570
 2520SOL    HW2 8460   4.111   5.351   0.664
 2521SOL     OW 8461   5.663   6.385   6.012
 2521SOL    HW1 8462   5.749   6.344   6.041
 2521SOL    HW2 8463   5.673   6.420   5.919
 2522SOL     OW 8464   2.168   4.510   5.169
 2522SOL    HW1 8465   2.131   4.494   5.078
 2522SOL    HW2 8466   2.261   4.545   5.163
 2523SOL     OW 8467   0.610   2.063   6.333
 2523SOL    HW1 8468   0.540   2.045   6.264
 2523SOL    HW2 8469   0.583   2.143   6.388
 2524SOL     OW 8470   1.716   6.930   4.470
 2524SOL    HW1 8471   1.779   6.865   4.428
 2524SOL    HW2 8472   1.628   6.927   4.422
 2525SOL     OW 8473   2.745   4.687   2.202
 2525SOL    HW1 8474   2.761   4.614   2.135
 2525SOL    HW2 8475   2.824   4.749   2.204
 2526SOL     OW 8476   1.623   2.898   4.588
 2526SOL    HW1 8477   1.683   2.819   4.600
 2526SOL    HW2 8478   1.609   2.915   4.490
 2527SOL     OW 8479   0.022   6.628   4.149
 2527SOL    HW1 8480   6.996   6.718   4.135
 2527SOL    HW2 8481   6.966   6.558   4.144
 2528SOL     OW 8482   5.490   5.110   1.118
 2528SOL    HW1 8483   5.547   5.030   1.138
 2528SOL    HW2 8484   5.534   5.192   1.153
 2529SOL     OW 8485   5.274   4.584   5.161
 2529SOL    HW1 8486   5.351   4.521   5.149
 2529SOL    HW2 8487   5.306   4.668   5.204
 2530SOL     OW 8488   1.255   6.187   2.990
 2530SOL    HW1 8489   1.188   6.129   2.944
 2530SOL    HW2 8490   1.318   6.131   3.043
 2531SOL     OW 8491   5.742   2.302   6.542
 2531SOL    HW1 8492   5.644   2.290   6.527
 2531SOL    HW2 8493   5.761   2.395   6.572
 2532SOL     OW 8494   0.822   5.971   5.819
 2532SOL    HW1 8495   0.749   5.959   5.886
 2532SOL    HW2 8496   0.796   5.929   5.733
 2533SOL     OW 8497   5.492   0.610   4.907
 2533SOL    HW1 8498   5.570   0.550   4.889
 2533SOL    HW2 8499   5.450   0.638   4.821
 2534SOL     OW 8500   6.634   1.189   3.380
 2534SOL    HW1 8501   6.645   1.101   3.425
 2534SOL    HW2 8502   6.579   1.178   3.298
 2535SOL     OW 8503   2.665   0.749   1.926
 2535SOL    HW1 8504   2.647   0.651   1.913
 2535SOL    HW2 8505   2.700   0.765   2.018
 2536SOL     OW 8506   0.807   0.253   3.454
 2536SOL    HW1 8507   0.857   0.189   3.395
 2536SOL    HW2 8508   0.829   0.234   3.550
 2537SOL     OW 8509   2.385   6.298   2.186
 2537SOL    HW1 8510   2.460   6.322   2.247
 2537SOL    HW2 8511   2.354   6.380   2.137
 2538SOL     OW 8512   0.247   5.487   5.197
 2538SOL    HW1 8513   0.169   5.548   5.211
 2538SOL    HW2 8514   0.332   5.535   5.221
 2539SOL     OW 8515   1.334   0.329   5.579
 2539SOL    HW1 8516   1.362   0.303   5.487
 2539SOL    HW2 8517   1.379   0.269   5.645
 2540SOL     OW 8518   5.134   2.121   2.359
 2540SOL    HW1 8519   5.066   2.150   2.292
 2540SOL    HW2 8520   5.206   2.070   2.313
 2541SOL     OW 8521   1.398   1.508   6.997
 2541SOL    HW1 8522   1.381   1.541   6.904
 2541SOL    HW2 8523   1.327   1.543   0.042
 2542SOL     OW 8524   4.130   1.985   2.821
 2542SOL    HW1 8525   4.226   1.970   2.796
 2542SOL    HW2 8526   4.125   2.044   2.901
 2543SOL     OW 8527   6.192   6.764   5.420
 2543SOL    HW1 8528   6.211   6.668   5.397
 2543SOL    HW2 8529   6.107   6.793   5.376
 2544SOL     OW 8530   0.193   0.112   0.602
 2544SOL    HW1 8531   0.159   0.034   0.549
 2544SOL    HW2 8532   0.293   0.112   0.599
 2545SOL     OW 8533   6.899   1.542   0.312
 2545SOL    HW1 8534   6.921   1.446   0.332
 2545SOL    HW2 8535   6.807   1.562   0.347
 2546SOL     OW 8536   6.135   3.442   2.391
 2546SOL    HW1 8537   6.231   3.422   2.411
 2546SOL    HW2 8538   6.130   3.521   2.329
 2547SOL     OW 8539   5.543   3.606   0.973
 2547SOL    HW1 8540   5.573   3.680   0.913
 2547SOL    HW2 8541   5.444   3.593   0.963
 2548SOL     OW 8542   6.751   0.509   5.388
 2548SOL    HW1 8543   6.682   0.442   5.359
 2548SOL    HW2 8544   6.809   0.468   5.458
 2549SOL     OW 8545   2.763   5.236   0.124
 2549SOL    HW1 8546   2.719   5.228   0.035
 2549SOL    HW2 8547   2.694   5.254   0.194
 2550SOL     OW 8548   3.939   0.517   0.915
 2550SOL    HW1 8549   3.840   0.505   0.919
 2550SOL    HW2 8550   3.980   0.484   1.000
 2551SOL     OW 8551   3.607   4.403   1.426
 2551SOL    HW1 8552   3.582   4.320   1.475
 2551SOL    HW2 8553   3.685   4.447   1.470
 2552SOL     OW 8554   2.547   5.074   1.732
 2552SOL    HW1 8555   2.491   5.087   1.814
 2552SOL    HW2 8556   2.493   5.026   1.662
 2553SOL     OW 8557   4.466   1.787   0.365
 2553SOL    HW1 8558   4.504   1.699   0.335
 2553SOL    HW2 8559   4.366   1.781   0.364
 2554SOL     OW 8560   0.972   5.857   0.597
 2554SOL    HW1 8561   1.009   5.890   0.684
 2554SOL    HW2 8562   0.959   5.935   0.535
 2555SOL     OW 8563   1.020   6.346   5.462
 2555SOL    HW1 8564   0.969   6.292   5.529
 2555SOL    HW2 8565   1.117   6.324   5.466
 2556SOL     OW 8566   5.709   0.519   0.883
 2556SOL    HW1 8567   5.781   0.559   0.941
 2556SOL    HW2 8568   5.620   0.533   0.926
 2557SOL     OW 8569   2.532   1.333   0.237
 2557SOL    HW1 8570   2.596   1.364   0.167
 2557SOL    HW2 8571   2.441   1.370   0.217
 2558SOL     OW 8572   5.479   2.667   1.084
 2558SOL    HW1 8573   5.547   2.633   1.150
 2558SOL    HW2 8574   5.503   2.635   0.992
 2559SOL     OW 8575   6.128   5.110   3.517
 2559SOL    HW1 8576   6.214   5.091   3.563
 2559SOL    HW2 8577   6.108   5.208   3.522
 2560SOL     OW 8578   4.123   2.839   1.703
 2560SOL    HW1 8579   4.142   2.932   1.735
 2560SOL    HW2 8580   4.034   2.810   1.736
 2561SOL     OW 8581   3.068   0.018   4.276
 2561SOL    HW1 8582   3.127   0.018   4.357
 2561SOL    HW2 8583   3.076   0.106   4.229
 2562SOL     OW 8584   1.320   6.322   4.786
 2562SOL    HW1 8585   1.241   6.381   4.798
 2562SOL    HW2 8586   1.311   6.241   4.843
 2563SOL     OW 8587   4.138   2.896   5.936
 2563SOL    HW1 8588   4.191   2.861   6.013
 2563SOL    HW2 8589   4.118   2.993   5.951
 2564SOL     OW 8590   1.766   1.380   1.245
 2564SOL    HW1 8591   1.815   1.322   1.310
 2564SOL    HW2 8592   1.749   1.329   1.161
 2565SOL     OW 8593   0.099   0.808   0.997
 2565SOL    HW1 8594   0.002   0.813   1.018
 2565SOL    HW2 8595   0.140   0.899   1.010
 2566SOL     OW 8596   2.539   1.465   0.745
 2566SOL    HW1 8597   2.476   1.394   0.712
 2566SOL    HW2 8598   2.610   1.423   0.801
 2567SOL     OW 8599   2.283   1.066   6.211
 2567SOL    HW1 8600   2.203   1.115   6.246
 2567SOL    HW2 8601   2.301   1.095   6.117
 2568SOL     OW 8602   2.443   6.408   0.863
 2568SOL    HW1 8603   2.520   6.443   0.915
 2568SOL    HW2 8604   2.476   6.353   0.786
 2569SOL     OW 8605   2.595   6.252   6.633
 2569SOL    HW1 8606   2.562   6.340   6.668
 2569SOL    HW2 8607   2.608   6.189   6.710
 2570SOL     OW 8608   0.212   6.923   3.376
 2570SOL    HW1 8609   0.174   6.905   3.466
 2570SOL    HW2 8610   0.286   6.991   3.384
 2571SOL     OW 8611   3.802   3.467   2.961
 2571SOL    HW1 8612   3.820   3.513   3.048
 2571SOL    HW2 8613   3.708   3.487   2.932
 2572SOL     OW 8614   2.732   5.816   2.448
 2572SOL    HW1 8615   2.731   5.866   2.361
 2572SOL    HW2 8616   2.655   5.753   2.451
 2573SOL     OW 8617   6.705   0.831   2.993
 2573SOL    HW1 8618   6.691   0.902   2.924
 2573SOL    HW2 8619   6.618   0.814   3.040
 2574SOL     OW 8620   0.094   4.102   2.111
 2574SOL    HW1 8621   0.042   4.026   2.151
 2574SOL    HW2 8622   0.139   4.071   2.027
 2575SOL     OW 8623   4.677   3.631   5.421
 2575SOL    HW1 8624   4.593   3.675   5.453
 2575SOL    HW2 8625   4.673   3.623   5.321
 2576SOL     OW 8626   0.506   0.347   2.595
 2576SOL    HW1 8627   0.470   0.298   2.515
 2576SOL    HW2 8628   0.430   0.388   2.645
 2577SOL     OW 8629   1.690   4.474   0.701
 2577SOL    HW1 8630   1.737   4.560   0.722
 2577SOL    HW2 8631   1.671   4.469   0.603
 2578SOL     OW 8632   4.452   2.493   4.723
 2578SOL    HW1 8633   4.361   2.524   4.750
 2578SOL    HW2 8634   4.459   2.394   4.736
 2579SOL     OW 8635   0.063   1.171   6.680
 2579SOL    HW1 8636   0.145   1.186   6.736
 2579SOL    HW2 8637   7.002   1.145   6.740
 2580SOL     OW 8638   1.942   1.920   5.766
 2580SOL    HW1 8639   2.013   1.850   5.760
 2580SOL    HW2 8640   1.892   1.910   5.852
 2581SOL     OW 8641   5.383   6.676   4.014
 2581SOL    HW1 8642   5.405   6.745   3.944
 2581SOL    HW2 8643   5.468   6.636   4.048
 2582SOL     OW 8644   6.361   3.953   3.186
 2582SOL    HW1 8645   6.268   3.961   3.150
 2582SOL    HW2 8646   6.402   3.867   3.154
 2583SOL     OW 8647   2.711   1.190   0.400
 2583SOL    HW1 8648   2.652   1.233   0.331
 2583SOL    HW2 8649   2.782   1.137   0.354
 2584SOL     OW 8650   3.945   0.693   3.277
 2584SOL    HW1 8651   3.867   0.680   3.339
 2584SOL    HW2 8652   3.911   0.715   3.186
 2585SOL     OW 8653   3.974   0.706   2.198
 2585SOL    HW1 8654   4.054   0.735   2.249
 2585SOL    HW2 8655   3.900   0.772   2.211
 2586SOL     OW 8656   0.814   1.385   4.351
 2586SOL    HW1 8657   0.740   1.427   4.403
 2586SOL    HW2 8658   0.872   1.332   4.413
 2587SOL     OW 8659   6.354   4.772   2.944
 2587SOL    HW1 8660   6.394   4.730   3.026
 2587SOL    HW2 8661   6.424   4.783   2.874
 2588SOL     OW 8662   3.311   6.958   2.745
 2588SOL    HW1 8663   3.237   0.010   2.738
 2588SOL    HW2 8664   3.388   6.999   2.795
 2589SOL     OW 8665   4.606   6.683   1.959
 2589SOL    HW1 8666   4.675   6.740   2.006
 2589SOL    HW2 8667   4.579   6.608   2.020
 2590SOL     OW 8668   4.267   5.717   3.837
 2590SOL    HW1 8669   4.317   5.729   3.923
 2590SOL    HW2 8670   4.169   5.726   3.854
 2591SOL     OW 8671   6.073   0.292   0.917
 2591SOL    HW1 8672   6.161   0.311   0.874
 2591SOL    HW2 8673   6.084   0.220   0.985
 2592SOL     OW 8674   2.633   4.748   1.844
 2592SOL    HW1 8675   2.651   4.801   1.761
 2592SOL    HW2 8676   2.717   4.702   1.873
 2593SOL     OW 8677   2.745   0.040   3.333
 2593SOL    HW1 8678   2.812   0.060   3.261
 2593SOL    HW2 8679   2.745   0.116   3.399
 2594SOL     OW 8680   2.227   6.221   6.684
 2594SOL    HW1 8681   2.238   6.313   6.646
 2594SOL    HW2 8682   2.264   6.154   6.620
 2595SOL     OW 8683   6.481   3.036   4.381
 2595SOL    HW1 8684   6.411   2.983   4.428
 2595SOL    HW2 8685   6.554   2.974   4.350
 2596SOL     OW 8686   4.525   1.796   1.281
 2596SOL    HW1 8687   4.560   1.823   1.191
 2596SOL    HW2 8688   4.516   1.877   1.339
 2597SOL     OW 8689   2.646   2.232   6.282
 2597SOL    HW1 8690   2.616   2.195   6.194
 2597SOL    HW2 8691   2.582   2.303   6.311
 2598SOL     OW 8692   6.694   1.028   2.813
 2598SOL    HW1 8693   6.668   1.037   2.717
 2598SOL    HW2 8694   6.767   1.093   2.834
 2599SOL     OW 8695   4.869   5.657   6.472
 2599SOL    HW1 8696   4.863   5.736   6.534
 2599SOL    HW2 8697   4.935   5.676   6.400
 2600SOL     OW 8698   0.617   2.457   4.624
 2600SOL    HW1 8699   0.680   2.499   4.559
 2600SOL    HW2 8700   0.527   2.447   4.582
 2601SOL     OW 8701   3.962   4.391   5.411
 2601SOL    HW1 8702   4.051   4.413   5.371
 2601SOL    HW2 8703   3.889   4.432   5.356
 2602SOL     OW 8704   6.050   6.570   6.515
 2602SOL    HW1 8705   6.116   6.505   6.554
 2602SOL    HW2 8706   6.025   6.638   6.583
 2603SOL     OW 8707   1.751   1.703   6.778
 2603SOL    HW1 8708   1.820   1.674   6.712
 2603SOL    HW2 8709   1.696   1.776   6.738
 2604SOL     OW 8710   5.287   1.852   0.696
 2604SOL    HW1 8711   5.306   1.755   0.711
 2604SOL    HW2 8712   5.325   1.881   0.609
 2605SOL     OW 8713   5.388   3.121   4.774
 2605SOL    HW1 8714   5.410   3.026   4.792
 2605SOL    HW2 8715   5.399   3.141   4.677
 2606SOL     OW 8716   6.930   4.845   1.674
 2606SOL    HW1 8717   6.844   4.796   1.673
 2606SOL    HW2 8718   7.000   4.791   1.627
 2607SOL     OW 8719   1.053   1.144   3.950
 2607SOL    HW1 8720   1.032   1.184   3.861
 2607SOL    HW2 8721   1.134   1.085   3.942
 2608SOL     OW 8722   4.773   0.863   0.052
 2608SOL    HW1 8723   4.743   0.852   0.147
 2608SOL    HW2 8724   4.723   0.799   7.010
 2609SOL     OW 8725   0.794   3.568   3.172
 2609SOL    HW1 8726   0.875   3.510   3.173
 2609SOL    HW2 8727   0.802   3.639   3.242
 2610SOL     OW 8728   5.006   5.393   4.759
 2610SOL    HW1 8729   4.962   5.354   4.840
 2610SOL    HW2 8730   5.067   5.467   4.787
 2611SOL     OW 8731   2.598   5.857   2.064
 2611SOL    HW1 8732   2.562   5.765   2.076
 2611SOL    HW2 8733   2.696   5.853   2.047
 2612SOL     OW 8734   0.798   7.015   5.202
 2612SOL    HW1 8735   0.788   0.043   5.112
 2612SOL    HW2 8736   0.759   6.923   5.199
 2613SOL     OW 8737   3.647   1.287   0.291
 2613SOL    HW1 8738   3.698   1.214   0.336
 2613SOL    HW2 8739   3.694   1.313   0.206
 2614SOL     OW 8740   6.117   6.588   6.948
 2614SOL    HW1 8741   6.102   6.498   6.988
 2614SOL    HW2 8742   6.191   6.634   6.996
 2615SOL     OW 8743   6.822   4.176   1.477
 2615SOL    HW1 8744   6.889   4.249   1.467
 2615SOL    HW2 8745   6.806   4.134   1.387
 2616SOL     OW 8746   3.977   4.011   1.813
 2616SOL    HW1 8747   3.895   4.068   1.818
 2616SOL    HW2 8748   4.044   4.055   1.753
 2617SOL     OW 8749   2.185   6.559   1.168
 2617SOL    HW1 8750   2.203   6.460   1.168
 2617SOL    HW2 8751   2.201   6.596   1.076
 2618SOL     OW 8752   0.735   6.177   0.296
 2618SOL    HW1 8753   0.645   6.213   0.320
 2618SOL    HW2 8754   0.731   6.135   0.205
 2619SOL     OW 8755   6.239   1.587   1.929
 2619SOL    HW1 8756   6.278   1.677   1.909
 2619SOL    HW2 8757   6.237   1.573   2.028
 2620SOL     OW 8758   1.381   5.899   3.881
 2620SOL    HW1 8759   1.433   5.813   3.879
 2620SOL    HW2 8760   1.301   5.888   3.939
 2621SOL     OW 8761   0.733   6.003   4.730
 2621SOL    HW1 8762   0.648   6.055   4.720
 2621SOL    HW2 8763   0.785   6.037   4.807
 2622SOL     OW 8764   2.427   2.551   4.673
 2622SOL    HW1 8765   2.368   2.521   4.748
 2622SOL    HW2 8766   2.489   2.477   4.648
 2623SOL     OW 8767   3.226   0.304   6.362
 2623SOL    HW1 8768   3.247   0.399   6.339
 2623SOL    HW2 8769   3.280   0.243   6.303
 2624SOL     OW 8770   5.432   2.042   4.451
 2624SOL    HW1 8771   5.462   1.977   4.521
 2624SOL    HW2 8772   5.333   2.035   4.438
 2625SOL     OW 8773   2.663   6.693   6.285
 2625SOL    HW1 8774   2.569   6.711   6.256
 2625SOL    HW2 8775   2.709   6.638   6.215
 2626SOL     OW 8776   2.307   6.726   3.380
 2626SOL    HW1 8777   2.308   6.667   3.461
 2626SOL    HW2 8778   2.216   6.725   3.339
 2627SOL     OW 8779   0.867   6.908   4.474
 2627SOL    HW1 8780   0.850   6.814   4.444
 2627SOL    HW2 8781   0.940   6.948   4.418
 2628SOL     OW 8782   4.751   5.659   0.374
 2628SOL    HW1 8783   4.695   5.725   0.325
 2628SOL    HW2 8784   4.843   5.697   0.388
 2629SOL     OW 8785   2.907   3.743   1.791
 2629SOL    HW1 8786   2.974   3.801   1.745
 2629SOL    HW2 8787   2.923   3.744   1.890
 2630SOL     OW 8788   3.573   2.026   2.460
 2630SOL    HW1 8789   3.659   1.995   2.419
 2630SOL    HW2 8790   3.498   2.006   2.397
 2631SOL     OW 8791   3.638   6.254   4.333
 2631SOL    HW1 8792   3.579   6.319   4.382
 2631SOL    HW2 8793   3.614   6.161   4.360
 2632SOL     OW 8794   4.501   1.328   1.521
 2632SOL    HW1 8795   4.404   1.349   1.509
 2632SOL    HW2 8796   4.533   1.271   1.445
 2633SOL     OW 8797   6.772   2.568   6.925
 2633SOL    HW1 8798   6.747   2.526   6.838
 2633SOL    HW2 8799   6.783   2.497   6.995
 2634SOL     OW 8800   2.844   4.830   0.489
 2634SOL    HW1 8801   2.832   4.794   0.397
 2634SOL    HW2 8802   2.841   4.755   0.555
 2635SOL     OW 8803   5.905   4.660   3.420
 2635SOL    HW1 8804   5.911   4.593   3.347
 2635SOL    HW2 8805   5.988   4.716   3.420
 2636SOL     OW 8806   5.475   5.597   5.224
 2636SOL    HW1 8807   5.489   5.669   5.293
 2636SOL    HW2 8808   5.394   5.544   5.248
 2637SOL     OW 8809   5.255   5.839   3.190
 2637SOL    HW1 8810   5.235   5.925   3.143
 2637SOL    HW2 8811   5.289   5.772   3.124
 2638SOL     OW 8812   5.295   5.447   0.914
 2638SOL    HW1 8813   5.206   5.467   0.873
 2638SOL    HW2 8814   5.297   5.352   0.944
 2639SOL     OW 8815   6.884   0.001   6.799
 2639SOL    HW1 8816   6.805   6.978   6.750
 2639SOL    HW2 8817   6.869   7.009   6.897
 2640SOL     OW 8818   6.559   6.459   6.754
 2640SOL    HW1 8819   6.567   6.521   6.832
 2640SOL    HW2 8820   6.597   6.502   6.673
 2641SOL     OW 8821   6.847   5.651   0.864
 2641SOL    HW1 8822   6.809   5.667   0.956
 2641SOL    HW2 8823   6.801   5.711   0.798
 2642SOL     OW 8824   6.614   0.133   4.031
 2642SOL    HW1 8825   6.550   0.203   4.000
 2642SOL    HW2 8826   6.701   0.144   3.983
 2643SOL     OW 8827   1.962   0.184   2.212
 2643SOL    HW1 8828   2.017   0.234   2.279
 2643SOL    HW2 8829   2.021   0.124   2.158
 2644SOL     OW 8830   6.429   6.390   4.912
 2644SOL    HW1 8831   6.430   6.422   4.817
 2644SOL    HW2 8832   6.520   6.401   4.952
 2645SOL     OW 8833   5.582   6.162   6.738
 2645SOL    HW1 8834   5.662   6.202   6.693
 2645SOL    HW2 8835   5.609   6.077   6.783
 2646SOL     OW 8836   5.751   6.006   6.126
 2646SOL    HW1 8837   5.833   6.062   6.113
 2646SOL    HW2 8838   5.778   5.910   6.138
 2647SOL     OW 8839   3.308   3.783   0.413
 2647SOL    HW1 8840   3.324   3.703   0.471
 2647SOL    HW2 8841   3.235   3.764   0.347
 2648SOL     OW 8842   4.425   1.296   3.417
 2648SOL    HW1 8843   4.471   1.223   3.367
 2648SOL    HW2 8844   4.348   1.258   3.468
 2649SOL     OW 8845   3.041   4.075   5.167
 2649SOL    HW1 8846   3.010   4.002   5.227
 2649SOL    HW2 8847   3.141   4.079   5.169
 2650SOL     OW 8848   0.725   6.700   2.520
 2650SOL    HW1 8849   0.733   6.752   2.604
 2650SOL    HW2 8850   0.652   6.632   2.530
 2651SOL     OW 8851   0.995   0.147   3.184
 2651SOL    HW1 8852   1.043   0.174   3.101
 2651SOL    HW2 8853   0.951   0.228   3.225
 2652SOL     OW 8854   3.105   3.439   2.468
 2652SOL    HW1 8855   3.095   3.339   2.474
 2652SOL    HW2 8856   3.015   3.482   2.473
 2653SOL     OW 8857   6.887   6.077   0.801
 2653SOL    HW1 8858   6.939   6.076   0.715
 2653SOL    HW2 8859   6.796   6.040   0.785
 2654SOL     OW 8860   6.494   2.352   5.757
 2654SOL    HW1 8861   6.509   2.257   5.726
 2654SOL    HW2 8862   6.582   2.397   5.768
 2655SOL     OW 8863   5.679   5.422   4.212
 2655SOL    HW1 8864   5.627   5.506   4.225
 2655SOL    HW2 8865   5.773   5.435   4.245
 2656SOL     OW 8866   5.872   3.311   5.024
 2656SOL    HW1 8867   5.806   3.259   4.970
 2656SOL    HW2 8868   5.848   3.307   5.120
 2657SOL     OW 8869   3.867   2.460   5.440
 2657SOL    HW1 8870   3.887   2.479   5.536
 2657SOL    HW2 8871   3.903   2.535   5.384
 2658SOL     OW 8872   6.759   4.129   5.046
 2658SOL    HW1 8873   6.799   4.085   5.126
 2658SOL    HW2 8874   6.720   4.218   5.073
 2659SOL     OW 8875   6.723   1.296   3.728
 2659SOL    HW1 8876   6.660   1.222   3.703
 2659SOL    HW2 8877   6.817   1.262   3.723
 2660SOL     OW 8878   0.953   2.206   3.780
 2660SOL    HW1 8879   0.919   2.125   3.826
 2660SOL    HW2 8880   0.947   2.193   3.681
 2661SOL     OW 8881   3.661   6.800   3.374
 2661SOL    HW1 8882   3.725   6.860   3.423
 2661SOL    HW2 8883   3.698   6.708   3.370
 2662SOL     OW 8884   3.727   1.097   4.005
 2662SOL    HW1 8885   3.777   1.165   3.951
 2662SOL    HW2 8886   3.713   1.131   4.098
 2663SOL     OW 8887   1.098   4.474   2.827
 2663SOL    HW1 8888   1.131   4.511   2.740
 2663SOL    HW2 8889   1.126   4.379   2.836
 2664SOL     OW 8890   4.644   4.296   1.680
 2664SOL    HW1 8891   4.561   4.285   1.736
 2664SOL    HW2 8892   4.724   4.282   1.738
 2665SOL     OW 8893   4.546   0.417   4.901
 2665SOL    HW1 8894   4.453   0.386   4.920
 2665SOL    HW2 8895   4.597   0.424   4.987
 2666SOL     OW 8896   4.994   5.811   1.629
 2666SOL    HW1 8897   4.950   5.858   1.706
 2666SOL    HW2 8898   5.017   5.878   1.558
 2667SOL     OW 8899   1.843   4.849   2.753
 2667SOL    HW1 8900   1.886   4.874   2.666
 2667SOL    HW2 8901   1.773   4.780   2.736
 2668SOL     OW 8902   0.018   2.516   5.193
 2668SOL    HW1 8903   0.106   2.518   5.241
 2668SOL    HW2 8904   0.017   2.587   5.123
 2669SOL     OW 8905   3.967   6.150   4.846
 2669SOL    HW1 8906   4.032   6.108   4.781
 2669SOL    HW2 8907   3.905   6.210   4.796
 2670SOL     OW 8908   2.352   6.310   4.231
 2670SOL    HW1 8909   2.352   6.328   4.329
 2670SOL    HW2 8910   2.435   6.349   4.190
 2671SOL     OW 8911   3.012   3.695   6.908
 2671SOL    HW1 8912   2.930   3.663   6.956
 2671SOL    HW2 8913   3.070   3.616   6.886
 2672SOL     OW 8914   0.630   4.284   0.388
 2672SOL    HW1 8915   0.622   4.383   0.398
 2672SOL    HW2 8916   0.539   4.246   0.367
 2673SOL     OW 8917   3.846   2.188   2.778
 2673SOL    HW1 8918   3.749   2.177   2.757
 2673SOL    HW2 8919   3.857   2.249   2.856
 2674SOL     OW 8920   5.191   5.608   5.296
 2674SOL    HW1 8921   5.125   5.666   5.249
 2674SOL    HW2 8922   5.193   5.631   5.393
 2675SOL     OW 8923   0.353   4.876   5.600
 2675SOL    HW1 8924   0.431   4.912   5.651
 2675SOL    HW2 8925   0.269   4.922   5.630
 2676SOL     OW 8926   4.459   0.738   1.646
 2676SOL    HW1 8927   4.490   0.745   1.740
 2676SOL    HW2 8928   4.518   0.792   1.586
 2677SOL     OW 8929   2.423   4.411   2.271
 2677SOL    HW1 8930   2.379   4.491   2.312
 2677SOL    HW2 8931   2.460   4.436   2.181
 2678SOL     OW 8932   0.468   6.331   6.253
 2678SOL    HW1 8933   0.469   6.316   6.154
 2678SOL    HW2 8934   0.374   6.352   6.282
 2679SOL     OW 8935   2.564   5.335   1.847
 2679SOL    HW1 8936   2.540   5.295   1.759
 2679SOL    HW2 8937   2.508   5.293   1.919
 2680SOL     OW 8938   0.354   2.378   1.086
 2680SOL    HW1 8939   0.439   2.391   1.137
 2680SOL    HW2 8940   0.332   2.462   1.036
 2681SOL     OW 8941   2.259   1.984   1.480
 2681SOL    HW1 8942   2.163   1.956   1.481
 2681SOL    HW2 8943   2.287   2.009   1.573
 2682SOL     OW 8944   0.342   2.452   3.616
 2682SOL    HW1 8945   0.315   2.362   3.651
 2682SOL    HW2 8946   0.295   2.523   3.667
 2683SOL     OW 8947   1.470   6.928   0.307
 2683SOL    HW1 8948   1.561   6.888   0.312
 2683SOL    HW2 8949   1.417   6.884   0.234
 2684SOL     OW 8950   2.263   5.605   2.988
 2684SOL    HW1 8951   2.184   5.615   2.927
 2684SOL    HW2 8952   2.302   5.513   2.977
 2685SOL     OW 8953   5.485   5.534   5.585
 2685SOL    HW1 8954   5.533   5.490   5.661
 2685SOL    HW2 8955   5.482   5.473   5.506
 2686SOL     OW 8956   0.922   3.335   5.074
 2686SOL    HW1 8957   0.967   3.356   5.161
 2686SOL    HW2 8958   0.983   3.358   4.999
 2687SOL     OW 8959   4.391   5.339   3.423
 2687SOL    HW1 8960   4.466   5.404   3.410
 2687SOL    HW2 8961   4.323   5.377   3.486
 2688SOL     OW 8962   3.484   4.497   5.390
 2688SOL    HW1 8963   3.473   4.399   5.373
 2688SOL    HW2 8964   3.399   4.545   5.366
 2689SOL     OW 8965   6.176   2.064   4.127
 2689SOL    HW1 8966   6.210   2.157   4.144
 2689SOL    HW2 8967   6.198   2.006   4.204
 2690SOL     OW 8968   3.118   4.068   3.646
 2690SOL    HW1 8969   3.101   4.074   3.744
 2690SOL    HW2 8970   3.215   4.087   3.628
 2691SOL     OW 8971   1.155   6.057   1.510
 2691SOL    HW1 8972   1.182   6.077   1.604
 2691SOL    HW2 8973   1.178   5.962   1.488
 2692SOL     OW 8974   6.838   4.229   3.535
 2692SOL    HW1 8975   6.859   4.303   3.599
 2692SOL    HW2 8976   6.917   4.215   3.474
 2693SOL     OW 8977   1.762   3.352   2.501
 2693SOL    HW1 8978   1.838   3.348   2.436
 2693SOL    HW2 8979   1.690   3.289   2.471
 2694SOL     OW 8980   2.229   1.903   2.781
 2694SOL    HW1 8981   2.135   1.871   2.770
 2694SOL    HW2 8982   2.283   1.876   2.701
 2695SOL     OW 8983   4.031   1.960   2.326
 2695SOL    HW1 8984   4.020   1.874   2.376
 2695SOL    HW2 8985   3.943   2.005   2.316
 2696SOL     OW 8986   3.918   3.586   6.043
 2696SOL    HW1 8987   3.970   3.529   6.106
 2696SOL    HW2 8988   3.919   3.545   5.952
 2697SOL     OW 8989   2.753   1.127   5.181
 2697SOL    HW1 8990   2.728   1.082   5.267
 2697SOL    HW2 8991   2.681   1.191   5.155
 2698SOL     OW 8992   1.301   1.796   6.799
 2698SOL    HW1 8993   1.217   1.820   6.847
 2698SOL    HW2 8994   1.291   1.706   6.756
 2699SOL     OW 8995   1.636   5.000   3.641
 2699SOL    HW1 8996   1.545   5.017   3.678
 2699SOL    HW2 8997   1.689   5.084   3.643
 2700SOL     OW 8998   2.294   4.196   2.802
 2700SOL    HW1 8999   2.313   4.223   2.708
 2700SOL    HW2 9000   2.340   4.258   2.865
 2701SOL     OW 9001   2.709   0.711   5.186
 2701SOL    HW1 9002   2.626   0.659   5.205
 2701SOL    HW2 9003   2.685   0.796   5.139
 2702SOL     OW 9004   6.253   6.388   2.832
 2702SOL    HW1 9005   6.338   6.418   2.790
 2702SOL    HW2 9006   6.273   6.317   2.900
 2703SOL     OW 9007   1.622   2.206   3.198
 2703SOL    HW1 9008   1.648   2.279   3.261
 2703SOL    HW2 9009   1.689   2.200   3.124
 2704SOL     OW 9010   1.355   6.478   0.447
 2704SOL    HW1 9011   1.406   6.412   0.502
 2704SOL    HW2 9012   1.306   6.429   0.374
 2705SOL     OW 9013   0.328   3.526   2.556
 2705SOL    HW1 9014   0.263   3.588   2.513
 2705SOL    HW2 9015   0.420   3.566   2.551
 2706SOL     OW 9016   6.455   2.636   3.578
 2706SOL    HW1 9017   6.421   2.543   3.594
 2706SOL    HW2 9018   6.521   2.660   3.649
 2707SOL     OW 9019   2.897   1.173   6.801
 2707SOL    HW1 9020   2.935   1.116   6.874
 2707SOL    HW2 9021   2.911   1.269   6.823
 2708SOL     OW 9022   1.253   4.665   6.956
 2708SOL    HW1 9023   1.231   4.679   0.037
 2708SOL    HW2 9024   1.301   4.745   6.920
 2709SOL     OW 9025   4.399   6.814   1.846
 2709SOL    HW1 9026   4.407   6.877   1.923
 2709SOL    HW2 9027   4.474   6.749   1.848
 2710SOL     OW 9028   6.482   4.208   2.727
 2710SOL    HW1 9029   6.441   4.298   2.711
 2710SOL    HW2 9030   6.535   4.210   2.811
 2711SOL     OW 9031   1.416   0.000   2.507
 2711SOL    HW1 9032   1.335   0.042   2.467
 2711SOL    HW2 9033   1.497   0.025   2.454
 2712SOL     OW 9034   3.049   5.504   2.934
 2712SOL    HW1 9035   3.030   5.432   3.000
 2712SOL    HW2 9036   3.009   5.478   2.845
 2713SOL     OW 9037   1.661   2.890   5.549
 2713SOL    HW1 9038   1.601   2.960   5.587
 2713SOL    HW2 9039   1.677   2.909   5.452
 2714SOL     OW 9040   5.636   0.330   0.012
 2714SOL    HW1 9041   5.643   0.407   6.964
 2714SOL    HW2 9042   5.663   0.360   0.104
 2715SOL     OW 9043   6.461   0.819   0.292
 2715SOL    HW1 9044   6.369   0.836   0.327
 2715SOL    HW2 9045   6.517   0.778   0.365
 2716SOL     OW 9046   6.178   6.621   1.797
 2716SOL    HW1 9047   6.168   6.526   1.768
 2716SOL    HW2 9048   6.134   6.634   1.886
 2717SOL     OW 9049   0.402   6.599   3.129
 2717SOL    HW1 9050   0.417   6.514   3.079
 2717SOL    HW2 9051   0.321   6.646   3.093
 2718SOL     OW 9052   0.220   4.045   3.234
 2718SOL    HW1 9053   0.279   4.063   3.156
 2718SOL    HW2 9054   0.204   4.131   3.283
 2719SOL     OW 9055   3.966   4.849   2.961
 2719SOL    HW1 9056   4.041   4.788   2.936
 2719SOL    HW2 9057   3.965   4.927   2.899
 2720SOL     OW 9058   0.394   6.016   4.472
 2720SOL    HW1 9059   0.448   6.064   4.404
 2720SOL    HW2 9060   0.423   5.920   4.475
 2721SOL     OW 9061   5.168   6.104   3.611
 2721SOL    HW1 9062   5.194   6.192   3.570
 2721SOL    HW2 9063   5.139   6.119   3.706
 2722SOL     OW 9064   0.673   5.505   2.165
 2722SOL    HW1 9065   0.652   5.504   2.263
 2722SOL    HW2 9066   0.724   5.588   2.143
 2723SOL     OW 9067   1.914   2.098   4.453
 2723SOL    HW1 9068   1.969   2.117   4.534
 2723SOL    HW2 9069   1.820   2.079   4.481
 2724SOL     OW 9070   4.619   5.593   6.016
 2724SOL    HW1 9071   4.582   5.677   6.056
 2724SOL    HW2 9072   4.667   5.540   6.086
 2725SOL     OW 9073   2.602   4.597   3.542
 2725SOL    HW1 9074   2.658   4.587   3.624
 2725SOL    HW2 9075   2.558   4.687   3.542
 2726SOL     OW 9076   4.163   6.222   2.794
 2726SOL    HW1 9077   4.115   6.234   2.881
 2726SOL    HW2 9078   4.098   6.227   2.718
 2727SOL     OW 9079   2.151   5.686   4.209
 2727SOL    HW1 9080   2.251   5.682   4.210
 2727SOL    HW2 9081   2.120   5.781   4.216
 2728SOL     OW 9082   2.740   0.078   5.427
 2728SOL    HW1 9083   2.788   0.085   5.515
 2728SOL    HW2 9084   2.672   0.152   5.421
 2729SOL     OW 9085   0.316   4.699   2.806
 2729SOL    HW1 9086   0.405   4.709   2.761
 2729SOL    HW2 9087   0.244   4.701   2.737
 2730SOL     OW 9088   1.260   4.362   1.328
 2730SOL    HW1 9089   1.296   4.306   1.253
 2730SOL    HW2 9090   1.275   4.459   1.306
 2731SOL     OW 9091   2.366   3.584   0.338
 2731SOL    HW1 9092   2.428   3.556   0.265
 2731SOL    HW2 9093   2.417   3.633   0.409
 2732SOL     OW 9094   5.352   3.397   4.235
 2732SOL    HW1 9095   5.377   3.434   4.325
 2732SOL    HW2 9096   5.253   3.382   4.232
 2733SOL     OW 9097   2.170   0.555   6.805
 2733SOL    HW1 9098   2.262   0.576   6.770
 2733SOL    HW2 9099   2.132   0.478   6.754
 2734SOL     OW 9100   1.772   6.715   4.082
 2734SOL    HW1 9101   1.738   6.638   4.136
 2734SOL    HW2 9102   1.714   6.795   4.099
 2735SOL     OW 9103   1.824   5.362   1.661
 2735SOL    HW1 9104   1.756   5.375   1.589
 2735SOL    HW2 9105   1.905   5.416   1.641
 2736SOL     OW 9106   4.230   6.959   6.693
 2736SOL    HW1 9107   4.250   6.933   6.599
 2736SOL    HW2 9108   4.155   6.902   6.728
 2737SOL     OW 9109   4.020   3.877   5.476
 2737SOL    HW1 9110   3.939   3.897   5.421
 2737SOL    HW2 9111   3.993   3.827   5.558
 2738SOL     OW 9112   6.306   4.112   4.195
 2738SOL    HW1 9113   6.385   4.113   4.257
 2738SOL    HW2 9114   6.337   4.119   4.101
 2739SOL     OW 9115   4.482   4.305   6.979
 2739SOL    HW1 9116   4.424   4.235   6.936
 2739SOL    HW2 9117   4.501   4.279   0.058
 2740SOL     OW 9118   6.111   2.581   4.214
 2740SOL    HW1 9119   6.084   2.633   4.132
 2740SOL    HW2 9120   6.204   2.607   4.240
 2741SOL     OW 9121   1.848   3.193   5.449
 2741SOL    HW1 9122   1.780   3.264   5.471
 2741SOL    HW2 9123   1.907   3.178   5.528
 2742SOL     OW 9124   2.813   6.023   5.822
 2742SOL    HW1 9125   2.742   5.975   5.874
 2742SOL    HW2 9126   2.857   5.960   5.759
 2743SOL     OW 9127   6.104   4.495   6.398
 2743SOL    HW1 9128   6.092   4.531   6.306
 2743SOL    HW2 9129   6.026   4.522   6.455
 2744SOL     OW 9130   4.739   0.049   0.490
 2744SOL    HW1 9131   4.714   0.106   0.411
 2744SOL    HW2 9132   4.793   6.986   0.459
 2745SOL     OW 9133   3.037   6.056   1.974
 2745SOL    HW1 9134   3.006   5.967   1.940
 2745SOL    HW2 9135   3.137   6.060   1.970
 2746SOL     OW 9136   0.826   2.109   6.594
 2746SOL    HW1 9137   0.757   2.054   6.641
 2746SOL    HW2 9138   0.901   2.051   6.564
 2747SOL     OW 9139   4.977   5.985   3.835
 2747SOL    HW1 9140   4.920   5.920   3.885
 2747SOL    HW2 9141   5.031   5.937   3.766
 2748SOL     OW 9142   5.535   1.020   4.749
 2748SOL    HW1 9143   5.571   1.046   4.659
 2748SOL    HW2 9144   5.595   0.951   4.790
 2749SOL     OW 9145   5.397   4.792   3.184
 2749SOL    HW1 9146   5.367   4.828   3.096
 2749SOL    HW2 9147   5.479   4.840   3.215
 2750SOL     OW 9148   0.903   6.932   6.969
 2750SOL    HW1 9149   0.961   6.918   6.888
 2750SOL    HW2 9150   0.841   6.854   6.979
 2751SOL     OW 9151   1.718   0.404   6.341
 2751SOL    HW1 9152   1.766   0.318   6.359
 2751SOL    HW2 9153   1.619   0.387   6.337
 2752SOL     OW 9154   0.705   6.802   6.103
 2752SOL    HW1 9155   0.771   6.868   6.067
 2752SOL    HW2 9156   0.727   6.780   6.198
 2753SOL     OW 9157   3.392   5.205   4.903
 2753SOL    HW1 9158   3.488   5.195   4.930
 2753SOL    HW2 9159   3.346   5.268   4.965
 2754SOL     OW 9160   1.030   5.589   4.049
 2754SOL    HW1 9161   0.934   5.579   4.076
 2754SOL    HW2 9162   1.087   5.533   4.109
 2755SOL     OW 9163   4.627   6.179   2.667
 2755SOL    HW1 9164   4.563   6.214   2.736
 2755SOL    HW2 9165   4.575   6.144   2.589
 2756SOL     OW 9166   6.934   2.797   5.249
 2756SOL    HW1 9167   0.005   2.830   5.209
 2756SOL    HW2 9168   6.951   2.764   5.342
 2757SOL     OW 9169   5.398   3.743   5.923
 2757SOL    HW1 9170   5.312   3.757   5.875
 2757SOL    HW2 9171   5.458   3.822   5.909
 2758SOL     OW 9172   0.145   6.056   1.985
 2758SOL    HW1 9173   0.209   5.993   1.941
 2758SOL    HW2 9174   0.122   6.130   1.921
 2759SOL     OW 9175   3.462   3.604   5.161
 2759SOL    HW1 9176   3.519   3.522   5.163
 2759SOL    HW2 9177   3.401   3.604   5.240
 2760SOL     OW 9178   5.122   5.294   2.642
 2760SOL    HW1 9179   5.046   5.356   2.623
 2760SOL    HW2 9180   5.209   5.342   2.626
 2761SOL     OW 9181   1.605   3.610   4.392
 2761SOL    HW1 9182   1.676   3.619   4.322
 2761SOL    HW2 9183   1.526   3.665   4.366
 2762SOL     OW 9184   4.472   1.382   2.190
 2762SOL    HW1 9185   4.529   1.426   2.121
 2762SOL    HW2 9186   4.530   1.330   2.253
 2763SOL     OW 9187   5.671   0.957   4.400
 2763SOL    HW1 9188   5.656   0.953   4.301
 2763SOL    HW2 9189   5.676   1.052   4.429
 2764SOL     OW 9190   6.785   2.141   3.199
 2764SOL    HW1 9191   6.717   2.107   3.264
 2764SOL    HW2 9192   6.872   2.155   3.246
 2765SOL     OW 9193   0.461   6.712   6.496
 2765SOL    HW1 9194   0.381   6.656   6.517
 2765SOL    HW2 9195   0.483   6.703   6.399
 2766SOL     OW 9196   4.842   0.326   0.801
 2766SOL    HW1 9197   4.856   0.270   0.719
 2766SOL    HW2 9198   4.930   0.365   0.830
 2767SOL     OW 9199   0.522   6.058   5.773
 2767SOL    HW1 9200   0.590   6.091   5.707
 2767SOL    HW2 9201   0.461   5.992   5.729
 2768SOL     OW 9202   4.107   6.570   1.487
 2768SOL    HW1 9203   4.049   6.632   1.541
 2768SOL    HW2 9204   4.112   6.482   1.533
 2769SOL     OW 9205   0.473   4.669   5.797
 2769SOL    HW1 9206   0.500   4.626   5.711
 2769SOL    HW2 9207   0.487   4.768   5.790
 2770SOL     OW 9208   2.348   6.775   0.810
 2770SOL    HW1 9209   2.276   6.839   0.782
 2770SOL    HW2 9210   2.307   6.689   0.838
 2771SOL     OW 9211   4.259   6.891   5.415
 2771SOL    HW1 9212   4.164   6.902   5.387
 2771SOL    HW2 9213   4.317   6.954   5.363
 2772SOL     OW 9214   5.698   1.801   3.389
 2772SOL    HW1 9215   5.674   1.789   3.293
 2772SOL    HW2 9216   5.764   1.731   3.416
 2773SOL     OW 9217   5.399   1.735   6.443
 2773SOL    HW1 9218   5.329   1.733   6.514
 2773SOL    HW2 9219   5.489   1.724   6.485
 2774SOL     OW 9220   6.707   0.199   3.577
 2774SOL    HW1 9221   6.667   0.222   3.665
 2774SOL    HW2 9222   6.806   0.214   3.579
 2775SOL     OW 9223   6.689   2.147   4.417
 2775SOL    HW1 9224   6.697   2.189   4.508
 2775SOL    HW2 9225   6.642   2.059   4.425
 2776SOL     OW 9226   4.901   3.810   5.967
 2776SOL    HW1 9227   4.879   3.827   6.063
 2776SOL    HW2 9228   4.817   3.789   5.917
 2777SOL     OW 9229   1.409   1.812   0.236
 2777SOL    HW1 9230   1.453   1.838   0.322
 2777SOL    HW2 9231   1.477   1.775   0.173
 2778SOL     OW 9232   2.687   0.075   5.830
 2778SOL    HW1 9233   2.638   0.144   5.777
 2778SOL    HW2 9234   2.783   0.102   5.838
 2779SOL     OW 9235   4.913   0.893   2.747
 2779SOL    HW1 9236   4.978   0.821   2.771
 2779SOL    HW2 9237   4.825   0.873   2.789
 2780SOL     OW 9238   0.802   0.978   4.962
 2780SOL    HW1 9239   0.768   1.071   4.975
 2780SOL    HW2 9240   0.900   0.981   4.942
 2781SOL     OW 9241   0.078   0.588   2.685
 2781SOL    HW1 9242   0.060   0.520   2.613
 2781SOL    HW2 9243   0.000   0.592   2.748
 2782SOL     OW 9244   5.678   0.113   4.888
 2782SOL    HW1 9245   5.733   0.092   4.969
 2782SOL    HW2 9246   5.739   0.132   4.811
 2783SOL     OW 9247   6.128   2.925   1.880
 2783SOL    HW1 9248   6.086   2.971   1.958
 2783SOL    HW2 9249   6.217   2.888   1.907
 2784SOL     OW 9250   0.428   2.228   1.920
 2784SOL    HW1 9251   0.406   2.222   1.822
 2784SOL    HW2 9252   0.348   2.202   1.973
 2785SOL     OW 9253   5.536   3.858   3.761
 2785SOL    HW1 9254   5.505   3.938   3.812
 2785SOL    HW2 9255   5.492   3.856   3.671
 2786SOL     OW 9256   0.041   5.553   0.693
 2786SOL    HW1 9257   6.977   5.581   0.748
 2786SOL    HW2 9258   0.099   5.633   0.676
 2787SOL     OW 9259   0.935   6.829   5.864
 2787SOL    HW1 9260   0.883   6.848   5.781
 2787SOL    HW2 9261   0.919   6.734   5.893
 2788SOL     OW 9262   2.484   6.583   0.592
 2788SOL    HW1 9263   2.402   6.571   0.536
 2788SOL    HW2 9264   2.470   6.540   0.681
 2789SOL     OW 9265   1.883   1.618   3.790
 2789SOL    HW1 9266   1.947   1.545   3.770
 2789SOL    HW2 9267   1.930   1.706   3.784
 2790SOL     OW 9268   0.163   5.392   1.585
 2790SOL    HW1 9269   0.077   5.364   1.544
 2790SOL    HW2 9270   0.147   5.431   1.676
 2791SOL     OW 9271   0.214   3.258   5.212
 2791SOL    HW1 9272   0.230   3.171   5.258
 2791SOL    HW2 9273   0.269   3.330   5.256
 2792SOL     OW 9274   3.336   2.327   6.578
 2792SOL    HW1 9275   3.337   2.370   6.488
 2792SOL    HW2 9276   3.390   2.381   6.642
 2793SOL     OW 9277   3.765   3.422   6.359
 2793SOL    HW1 9278   3.687   3.464   6.313
 2793SOL    HW2 9279   3.745   3.415   6.457
 2794SOL     OW 9280   1.555   1.883   6.687
 2794SOL    HW1 9281   1.543   1.967   6.633
 2794SOL    HW2 9282   1.466   1.850   6.718
 2795SOL     OW 9283   0.942   0.028   0.608
 2795SOL    HW1 9284   1.040   0.042   0.625
 2795SOL    HW2 9285   0.899   7.006   0.690
 2796SOL     OW 9286   3.122   6.264   6.959
 2796SOL    HW1 9287   3.032   6.267   7.003
 2796SOL    HW2 9288   3.168   6.179   6.985
 2797SOL     OW 9289   4.707   4.175   4.408
 2797SOL    HW1 9290   4.726   4.077   4.415
 2797SOL    HW2 9291   4.678   4.197   4.315
 2798SOL     OW 9292   5.389   2.682   2.227
 2798SOL    HW1 9293   5.411   2.733   2.144
 2798SOL    HW2 9294   5.433   2.593   2.223
 2799SOL     OW 9295   3.162   6.872   4.693
 2799SOL    HW1 9296   3.190   6.781   4.663
 2799SOL    HW2 9297   3.065   6.870   4.717
 2800SOL     OW 9298   4.854   1.467   6.641
 2800SOL    HW1 9299   4.813   1.555   6.617
 2800SOL    HW2 9300   4.826   1.399   6.573
 2801SOL     OW 9301   0.217   4.156   3.528
 2801SOL    HW1 9302   0.168   4.140   3.614
 2801SOL    HW2 9303   0.168   4.223   3.473
 2802SOL     OW 9304   1.366   4.231   4.119
 2802SOL    HW1 9305   1.344   4.299   4.049
 2802SOL    HW2 9306   1.454   4.253   4.160
 2803SOL     OW 9307   3.679   2.607   6.837
 2803SOL    HW1 9308   3.748   2.620   6.766
 2803SOL    HW2 9309   3.709   2.653   6.921
 2804SOL     OW 9310   6.020   2.533   3.668
 2804SOL    HW1 9311   6.060   2.548   3.578
 2804SOL    HW2 9312   5.928   2.573   3.670
 2805SOL     OW 9313   4.180   5.064   0.360
 2805SOL    HW1 9314   4.185   5.046   0.458
 2805SOL    HW2 9315   4.195   5.161   0.344
 2806SOL     OW 9316   0.407   2.847   4.432
 2806SOL    HW1 9317   0.435   2.918   4.497
 2806SOL    HW2 9318   0.489   2.801   4.396
 2807SOL     OW 9319   4.479   1.579   3.878
 2807SOL    HW1 9320   4.497   1.482   3.861
 2807SOL    HW2 9321   4.494   1.632   3.795
 2808SOL     OW 9322   1.115   6.138   6.543
 2808SOL    HW1 9323   1.020   6.156   6.516
 2808SOL    HW2 9324   1.167   6.222   6.539
 2809SOL     OW 9325   1.184   6.243   0.589
 2809SOL    HW1 9326   1.264   6.190   0.559
 2809SOL    HW2 9327   1.144   6.199   0.670
 2810SOL     OW 9328   0.770   6.191   2.436
 2810SOL    HW1 9329   0.710   6.116   2.465
 2810SOL    HW2 9330   0.856   6.186   2.485
 2811SOL     OW 9331   0.858   0.467   0.802
 2811SOL    HW1 9332   0.943   0.414   0.807
 2811SOL    HW2 9333   0.792   0.431   0.867
 2812SOL     OW 9334   1.828   0.982   1.152
 2812SOL    HW1 9335   1.784   1.066   1.122
 2812SOL    HW2 9336   1.834   0.982   1.252
 2813SOL     OW 9337   6.475   2.372   1.071
 2813SOL    HW1 9338   6.552   2.374   1.008
 2813SOL    HW2 9339   6.500   2.320   1.152
 2814SOL     OW 9340   2.580   4.193   6.771
 2814SOL    HW1 9341   2.496   4.223   6.727
 2814SOL    HW2 9342   2.609   4.105   6.731
 2815SOL     OW 9343   6.641   6.104   5.081
 2815SOL    HW1 9344   6.560   6.046   5.084
 2815SOL    HW2 9345   6.630   6.173   5.010
 2816SOL     OW 9346   0.822   4.875   4.480
 2816SOL    HW1 9347   0.726   4.863   4.504
 2816SOL    HW2 9348   0.877   4.802   4.520
 2817SOL     OW 9349   2.402   0.500   1.857
 2817SOL    HW1 9350   2.408   0.554   1.941
 2817SOL    HW2 9351   2.366   0.557   1.784
 2818SOL     OW 9352   1.827   1.198   0.434
 2818SOL    HW1 9353   1.903   1.198   0.500
 2818SOL    HW2 9354   1.857   1.152   0.350
 2819SOL     OW 9355   6.377   0.161   6.691
 2819SOL    HW1 9356   6.394   0.154   6.790
 2819SOL    HW2 9357   6.348   0.254   6.669
 2820SOL     OW 9358   1.832   1.858   0.319
 2820SOL    HW1 9359   1.908   1.799   0.348
 2820SOL    HW2 9360   1.770   1.805   0.261
 2821SOL     OW 9361   3.527   2.211   6.103
 2821SOL    HW1 9362   3.433   2.246   6.109
 2821SOL    HW2 9363   3.532   2.145   6.027
 2822SOL     OW 9364   4.104   2.660   1.242
 2822SOL    HW1 9365   4.035   2.635   1.310
 2822SOL    HW2 9366   4.190   2.613   1.261
 2823SOL     OW 9367   5.700   3.916   2.765
 2823SOL    HW1 9368   5.640   3.853   2.815
 2823SOL    HW2 9369   5.676   4.010   2.789
 2824SOL     OW 9370   0.737   4.360   4.924
 2824SOL    HW1 9371   0.666   4.321   4.982
 2824SOL    HW2 9372   0.698   4.384   4.835
 2825SOL     OW 9373   5.149   2.249   5.484
 2825SOL    HW1 9374   5.093   2.285   5.558
 2825SOL    HW2 9375   5.145   2.150   5.484
 2826SOL     OW 9376   2.819   3.100   6.946
 2826SOL    HW1 9377   2.904   3.150   6.933
 2826SOL    HW2 9378   2.781   3.121   0.021
 2827SOL     OW 9379   6.360   1.779   0.232
 2827SOL    HW1 9380   6.445   1.811   0.274
 2827SOL    HW2 9381   6.325   1.848   0.169
 2828SOL     OW 9382   1.633   4.451   0.107
 2828SOL    HW1 9383   1.672   4.376   0.161
 2828SOL    HW2 9384   1.540   4.428   0.079
 2829SOL     OW 9385   3.542   4.173   1.537
 2829SOL    HW1 9386   3.462   4.189   1.595
 2829SOL    HW2 9387   3.603   4.108   1.582
 2830SOL     OW 9388   2.832   5.706   4.643
 2830SOL    HW1 9389   2.901   5.701   4.571
 2830SOL    HW2 9390   2.744   5.732   4.603
 2831SOL     OW 9391   6.374   1.918   2.031
 2831SOL    HW1 9392   6.345   1.981   2.103
 2831SOL    HW2 9393   6.299   1.906   1.966
 2832SOL     OW 9394   1.430   3.935   1.537
 2832SOL    HW1 9395   1.420   4.034   1.527
 2832SOL    HW2 9396   1.525   3.909   1.518
 2833SOL     OW 9397   6.698   2.882   3.442
 2833SOL    HW1 9398   6.649   2.834   3.369
 2833SOL    HW2 9399   6.785   2.918   3.406
 2834SOL     OW 9400   3.052   0.684   4.292
 2834SOL    HW1 9401   2.979   0.752   4.279
 2834SOL    HW2 9402   3.014   0.602   4.333
 2835SOL     OW 9403   6.735   1.495   0.658
 2835SOL    HW1 9404   6.697   1.434   0.588
 2835SOL    HW2 9405   6.681   1.579   0.663
 2836SOL     OW 9406   3.169   5.723   1.223
 2836SOL    HW1 9407   3.239   5.677   1.277
 2836SOL    HW2 9408   3.091   5.746   1.281
 2837SOL     OW 9409   5.578   4.128   2.913
 2837SOL    HW1 9410   5.514   4.121   2.836
 2837SOL    HW2 9411   5.585   4.223   2.941
 2838SOL     OW 9412   0.043   3.697   5.554
 2838SOL    HW1 9413   0.037   3.658   5.646
 2838SOL    HW2 9414   0.004   3.789   5.554
 2839SOL     OW 9415   6.088   2.880   6.215
 2839SOL    HW1 9416   6.150   2.951   6.251
 2839SOL    HW2 9417   6.054   2.909   6.126
 2840SOL     OW 9418   6.360   6.193   5.114
 2840SOL    HW1 9419   6.359   6.260   5.040
 2840SOL    HW2 9420   6.267   6.163   5.133
 2841SOL     OW 9421   5.726   3.605   2.980
 2841SOL    HW1 9422   5.772   3.561   3.057
 2841SOL    HW2 9423   5.627   3.599   2.992
 2842SOL     OW 9424   1.168   6.268   3.632
 2842SOL    HW1 9425   1.075   6.301   3.643
 2842SOL    HW2 9426   1.223   6.337   3.584
 2843SOL     OW 9427   1.220   2.829   4.300
 2843SOL    HW1 9428   1.277   2.897   4.346
 2843SOL    HW2 9429   1.143   2.804   4.359
 2844SOL     OW 9430   5.415   4.283   0.049
 2844SOL    HW1 9431   5.409   4.356   6.996
 2844SOL    HW2 9432   5.328   4.234   0.054
 2845SOL     OW 9433   3.660   1.949   1.148
 2845SOL    HW1 9434   3.614   2.037   1.162
 2845SOL    HW2 9435   3.611   1.877   1.196
 2846SOL     OW 9436   5.075   6.942   6.679
 2846SOL    HW1 9437   5.056   7.001   6.757
 2846SOL    HW2 9438   4.991   6.929   6.626
 2847SOL     OW 9439   5.939   4.925   2.415
 2847SOL    HW1 9440   5.985   5.013   2.403
 2847SOL    HW2 9441   5.963   4.888   2.505
 2848SOL     OW 9442   0.368   3.452   0.209
 2848SOL    HW1 9443   0.412   3.539   0.188
 2848SOL    HW2 9444   0.368   3.437   0.308
 2849SOL     OW 9445   5.496   0.753   1.211
 2849SOL    HW1 9446   5.495   0.774   1.113
 2849SOL    HW2 9447   5.417   0.697   1.234
 2850SOL     OW 9448   0.628   1.093   0.892
 2850SOL    HW1 9449   0.540   1.045   0.888
 2850SOL    HW2 9450   0.634   1.159   0.818
 2851SOL     OW 9451   3.799   3.646   2.158
 2851SOL    HW1 9452   3.864   3.714   2.127
 2851SOL    HW2 9453   3.732   3.689   2.219
 2852SOL     OW 9454   0.548   4.884   4.530
 2852SOL    HW1 9455   0.539   4.922   4.438
 2852SOL    HW2 9456   0.478   4.814   4.544
 2853SOL     OW 9457   0.143   4.526   6.086
 2853SOL    HW1 9458   0.211   4.549   6.156
 2853SOL    HW2 9459   0.152   4.430   6.061
 2854SOL     OW 9460   3.183   0.346   6.864
 2854SOL    HW1 9461   3.206   0.255   6.898
 2854SOL    HW2 9462   3.256   0.378   6.803
 2855SOL     OW 9463   2.487   2.114   4.323
 2855SOL    HW1 9464   2.485   2.169   4.240
 2855SOL    HW2 9465   2.527   2.025   4.303
 2856SOL     OW 9466   1.462   5.373   4.832
 2856SOL    HW1 9467   1.454   5.276   4.857
 2856SOL    HW2 9468   1.543   5.386   4.775
 2857SOL     OW 9469   0.363   4.531   0.263
 2857SOL    HW1 9470   0.295   4.587   0.310
 2857SOL    HW2 9471   0.442   4.517   0.324
 2858SOL     OW 9472   5.656   4.726   4.002
 2858SOL    HW1 9473   5.629   4.812   4.046
 2858SOL    HW2 9474   5.717   4.745   3.926
 2859SOL     OW 9475   6.912   5.040   2.161
 2859SOL    HW1 9476   6.814   5.057   2.159
 2859SOL    HW2 9477   6.931   4.952   2.116
 2860SOL     OW 9478   1.195   6.674   3.134
 2860SOL    HW1 9479   1.137   6.624   3.198
 2860SOL    HW2 9480   1.139   6.735   3.078
 2861SOL     OW 9481   5.542   3.352   5.232
 2861SOL    HW1 9482   5.481   3.380   5.306
 2861SOL    HW2 9483   5.497   3.367   5.144
 2862SOL     OW 9484   4.667   1.218   0.298
 2862SOL    HW1 9485   4.742   1.195   0.236
 2862SOL    HW2 9486   4.703   1.228   0.391
 2863SOL     OW 9487   5.481   1.657   6.190
 2863SOL    HW1 9488   5.388   1.684   6.166
 2863SOL    HW2 9489   5.491   1.657   6.290
 2864SOL     OW 9490   4.124   4.731   1.175
 2864SOL    HW1 9491   4.044   4.674   1.193
 2864SOL    HW2 9492   4.206   4.674   1.175
 2865SOL     OW 9493   5.528   4.972   6.187
 2865SOL    HW1 9494   5.558   4.878   6.202
 2865SOL    HW2 9495   5.547   5.027   6.268
 2866SOL     OW 9496   4.480   5.673   0.960
 2866SOL    HW1 9497   4.419   5.737   0.913
 2866SOL    HW2 9498   4.562   5.659   0.905
 2867SOL     OW 9499   0.586   6.281   2.852
 2867SOL    HW1 9500   0.615   6.353   2.789
 2867SOL    HW2 9501   0.621   6.193   2.820
 2868SOL     OW 9502   6.508   6.952   5.136
 2868SOL    HW1 9503   6.586   6.955   5.074
 2868SOL    HW2 9504   6.498   0.024   5.182
 2869SOL     OW 9505   5.363   4.605   5.481
 2869SOL    HW1 9506   5.350   4.703   5.495
 2869SOL    HW2 9507   5.456   4.580   5.507
 2870SOL     OW 9508   0.279   1.337   1.234
 2870SOL    HW1 9509   0.308   1.261   1.292
 2870SOL    HW2 9510   0.183   1.358   1.252
 2871SOL     OW 9511   4.617   1.136   3.310
 2871SOL    HW1 9512   4.656   1.165   3.223
 2871SOL    HW2 9513   4.605   1.037   3.310
 2872SOL     OW 9514   3.566   1.597   2.700
 2872SOL    HW1 9515   3.511   1.514   2.698
 2872SOL    HW2 9516   3.559   1.640   2.790
 2873SOL     OW 9517   0.439   6.961   2.489
 2873SOL    HW1 9518   0.374   7.003   2.552
 2873SOL    HW2 9519   0.450   0.004   2.409
 2874SOL     OW 9520   1.954   1.063   2.708
 2874SOL    HW1 9521   2.011   1.023   2.779
 2874SOL    HW2 9522   1.876   1.002   2.690
 2875SOL     OW 9523   2.511   0.726   2.788
 2875SOL    HW1 9524   2.534   0.727   2.691
 2875SOL    HW2 9525   2.497   0.820   2.820
 2876SOL     OW 9526   1.259   6.928   0.942
 2876SOL    HW1 9527   1.201   6.933   1.023
 2876SOL    HW2 9528   1.253   6.836   0.902
 2877SOL     OW 9529   1.494   3.480   6.618
 2877SOL    HW1 9530   1.469   3.384   6.633
 2877SOL    HW2 9531   1.413   3.533   6.595
 2878SOL     OW 9532   3.156   3.445   4.519
 2878SOL    HW1 9533   3.063   3.418   4.543
 2878SOL    HW2 9534   3.161   3.460   4.420
 2879SOL     OW 9535   5.963   5.584   0.611
 2879SOL    HW1 9536   5.993   5.643   0.686
 2879SOL    HW2 9537   6.040   5.527   0.581
 2880SOL     OW 9538   1.593   1.781   3.059
 2880SOL    HW1 9539   1.607   1.862   3.116
 2880SOL    HW2 9540   1.601   1.807   2.963
 2881SOL     OW 9541   4.900   4.785   6.929
 2881SOL    HW1 9542   4.933   4.834   7.009
 2881SOL    HW2 9543   4.975   4.771   6.865
 2882SOL     OW 9544   5.130   6.829   0.099
 2882SOL    HW1 9545   5.088   6.802   0.186
 2882SOL    HW2 9546   5.065   6.812   0.025
 2883SOL     OW 9547   5.243   6.360   3.141
 2883SOL    HW1 9548   5.255   6.346   3.240
 2883SOL    HW2 9549   5.181   6.438   3.126
 2884SOL     OW 9550   6.107   5.286   3.262
 2884SOL    HW1 9551   6.158   5.294   3.348
 2884SOL    HW2 9552   6.019   5.242   3.280
 2885SOL     OW 9553   0.269   3.769   3.285
 2885SOL    HW1 9554   0.260   3.715   3.201
 2885SOL    HW2 9555   0.225   3.858   3.273
 2886SOL     OW 9556   2.186   4.149   4.799
 2886SOL    HW1 9557   2.209   4.115   4.708
 2886SOL    HW2 9558   2.256   4.120   4.864
 2887SOL     OW 9559   6.849   4.706   2.756
 2887SOL    HW1 9560   6.792   4.678   2.833
 2887SOL    HW2 9561   6.928   4.758   2.791
 2888SOL     OW 9562   4.439   5.952   6.318
 2888SOL    HW1 9563   4.417   6.050   6.318
 2888SOL    HW2 9564   4.375   5.903   6.376
 2889SOL     OW 9565   4.215   5.528   4.280
 2889SOL    HW1 9566   4.221   5.468   4.359
 2889SOL    HW2 9567   4.119   5.543   4.256
 2890SOL     OW 9568   1.491   2.177   0.742
 2890SOL    HW1 9569   1.405   2.135   0.772
 2890SOL    HW2 9570   1.483   2.206   0.647
 2891SOL     OW 9571   1.778   1.363   5.377
 2891SOL    HW1 9572   1.695   1.377   5.323
 2891SOL    HW2 9573   1.755   1.366   5.474
 2892SOL     OW 9574   5.557   4.032   2.143
 2892SOL    HW1 9575   5.583   4.089   2.220
 2892SOL    HW2 9576   5.544   4.089   2.062
 2893SOL     OW 9577   6.839   5.815   5.265
 2893SOL    HW1 9578   6.902   5.884   5.231
 2893SOL    HW2 9579   6.751   5.858   5.287
 2894SOL     OW 9580   1.872   5.563   1.060
 2894SOL    HW1 9581   1.956   5.517   1.034
 2894SOL    HW2 9582   1.887   5.617   1.143
 2895SOL     OW 9583   4.799   6.481   6.631
 2895SOL    HW1 9584   4.853   6.509   6.710
 2895SOL    HW2 9585   4.856   6.485   6.549
 2896SOL     OW 9586   6.541   0.342   5.398
 2896SOL    HW1 9587   6.455   0.341   5.346
 2896SOL    HW2 9588   6.565   0.249   5.423
 2897SOL     OW 9589   3.320   6.098   3.344
 2897SOL    HW1 9590   3.401   6.044   3.321
 2897SOL    HW2 9591   3.269   6.052   3.417
 2898SOL     OW 9592   5.122   2.374   2.674
 2898SOL    HW1 9593   5.138   2.447   2.608
 2898SOL    HW2 9594   5.046   2.317   2.641
 2899SOL     OW 9595   6.558   2.792   1.115
 2899SOL    HW1 9596   6.587   2.761   1.025
 2899SOL    HW2 9597   6.459   2.782   1.124
 2900SOL     OW 9598   3.235   2.945   5.153
 2900SOL    HW1 9599   3.171   2.901   5.216
 2900SOL    HW2 9600   3.185   2.980   5.074
 2901SOL     OW 9601   1.502   3.489   1.372
 2901SOL    HW1 9602   1.509   3.499   1.471
 2901SOL    HW2 9603   1.569   3.548   1.328
 2902SOL     OW 9604   5.534   6.414   3.377
 2902SOL    HW1 9605   5.613   6.391   3.434
 2902SOL    HW2 9606   5.562   6.474   3.303
 2903SOL     OW 9607   0.971   5.591   0.719
 2903SOL    HW1 9608   0.881   5.567   0.755
 2903SOL    HW2 9609   0.962   5.667   0.654
 2904SOL     OW 9610   2.793   4.808   4.759
 2904SOL    HW1 9611   2.720   4.783   4.696
 2904SOL    HW2 9612   2.794   4.743   4.836
 2905SOL     OW 9613   1.403   4.607   1.558
 2905SOL    HW1 9614   1.482   4.665   1.580
 2905SOL    HW2 9615   1.430   4.510   1.564
 2906SOL     OW 9616   6.759   6.274   6.276
 2906SOL    HW1 9617   6.805   6.198   6.322
 2906SOL    HW2 9618   6.748   6.253   6.179
 2907SOL     OW 9619   6.555   0.760   5.910
 2907SOL    HW1 9620   6.555   0.810   5.997
 2907SOL    HW2 9621   6.591   0.668   5.925
 2908SOL     OW 9622   4.078   6.097   3.918
 2908SOL    HW1 9623   4.149   6.117   3.851
 2908SOL    HW2 9624   3.988   6.110   3.877
 2909SOL     OW 9625   0.541   6.798   1.158
 2909SOL    HW1 9626   0.475   6.861   1.117
 2909SOL    HW2 9627   0.500   6.754   1.238
 2910SOL     OW 9628   1.240   0.993   4.644
 2910SOL    HW1 9629   1.300   0.975   4.566
 2910SOL    HW2 9630   1.278   0.952   4.727
 2911SOL     OW 9631   6.316   3.700   3.965
 2911SOL    HW1 9632   6.264   3.723   3.884
 2911SOL    HW2 9633   6.305   3.603   3.987
 2912SOL     OW 9634   0.507   1.362   2.578
 2912SOL    HW1 9635   0.586   1.423   2.586
 2912SOL    HW2 9636   0.473   1.339   2.669
 2913SOL     OW 9637   0.969   6.228   4.291
 2913SOL    HW1 9638   0.898   6.159   4.276
 2913SOL    HW2 9639   0.928   6.319   4.288
 2914SOL     OW 9640   3.649   4.456   1.053
 2914SOL    HW1 9641   3.631   4.388   0.982
 2914SOL    HW2 9642   3.611   4.424   1.140
 2915SOL     OW 9643   2.302   0.714   3.632
 2915SOL    HW1 9644   2.229   0.777   3.659
 2915SOL    HW2 9645   2.384   0.733   3.686
 2916SOL     OW 9646   0.270   5.691   6.154
 2916SOL    HW1 9647   0.290   5.616   6.217
 2916SOL    HW2 9648   0.208   5.658   6.082
 2917SOL     OW 9649   2.055   0.797   3.426
 2917SOL    HW1 9650   2.139   0.743   3.416
 2917SOL    HW2 9651   1.991   0.749   3.486
 2918SOL     OW 9652   4.890   2.198   1.018
 2918SOL    HW1 9653   4.848   2.107   1.015
 2918SOL    HW2 9654   4.824   2.265   1.053
 2919SOL     OW 9655   0.523   6.109   4.992
 2919SOL    HW1 9656   0.595   6.140   5.054
 2919SOL    HW2 9657   0.517   6.172   4.914
 2920SOL     OW 9658   2.792   2.126   1.891
 2920SOL    HW1 9659   2.826   2.194   1.956
 2920SOL    HW2 9660   2.868   2.096   1.833
 2921SOL     OW 9661   0.274   5.411   3.380
 2921SOL    HW1 9662   0.220   5.402   3.463
 2921SOL    HW2 9663   0.290   5.508   3.361
 2922SOL     OW 9664   4.125   5.004   3.153
 2922SOL    HW1 9665   4.072   4.941   3.096
 2922SOL    HW2 9666   4.094   5.097   3.137
 2923SOL     OW 9667   1.412   5.136   4.076
 2923SOL    HW1 9668   1.343   5.182   4.020
 2923SOL    HW2 9669   1.367   5.085   4.149
 2924SOL     OW 9670   5.511   1.416   6.902
 2924SOL    HW1 9671   5.413   1.413   6.881
 2924SOL    HW2 9672   5.564   1.419   6.817
 2925SOL     OW 9673   5.512   6.933   4.518
 2925SOL    HW1 9674   5.509   6.936   4.617
 2925SOL    HW2 9675   5.541   0.007   4.483
 2926SOL     OW 9676   6.380   2.653   4.682
 2926SOL    HW1 9677   6.370   2.698   4.770
 2926SOL    HW2 9678   6.292   2.616   4.653
 2927SOL     OW 9679   1.177   2.430   2.655
 2927SOL    HW1 9680   1.165   2.379   2.740
 2927SOL    HW2 9681   1.171   2.367   2.577
 2928SOL     OW 9682   5.057   4.475   0.598
 2928SOL    HW1 9683   5.153   4.462   0.626
 2928SOL    HW2 9684   5.039   4.572   0.584
 2929SOL     OW 9685   1.964   2.194   3.498
 2929SOL    HW1 9686   1.957   2.212   3.400
 2929SOL    HW2 9687   1.920   2.106   3.519
 2930SOL     OW 9688   0.804   3.092   4.272
 2930SOL    HW1 9689   0.866   3.170   4.269
 2930SOL    HW2 9690   0.811   3.046   4.361
 2931SOL     OW 9691   6.188   3.997   5.733
 2931SOL    HW1 9692   6.107   3.953   5.693
 2931SOL    HW2 9693   6.164   4.088   5.765
 2932SOL     OW 9694   6.756   6.367   0.939
 2932SOL    HW1 9695   6.838   6.405   0.982
 2932SOL    HW2 9696   6.781   6.287   0.884
 2933SOL     OW 9697   0.638   0.066   0.114
 2933SOL    HW1 9698   0.706   0.134   0.140
 2933SOL    HW2 9699   0.651   6.998   0.168
 2934SOL     OW 9700   5.813   4.747   2.243
 2934SOL    HW1 9701   5.861   4.798   2.315
 2934SOL    HW2 9702   5.728   4.794   2.220
 2935SOL     OW 9703   0.821   4.147   5.758
 2935SOL    HW1 9704   0.880   4.088   5.813
 2935SOL    HW2 9705   0.844   4.137   5.662
 2936SOL     OW 9706   4.041   6.165   2.522
 2936SOL    HW1 9707   4.079   6.073   2.531
 2936SOL    HW2 9708   4.107   6.223   2.474
 2937SOL     OW 9709   6.329   3.430   3.329
 2937SOL    HW1 9710   6.329   3.330   3.338
 2937SOL    HW2 9711   6.251   3.458   3.272
 2938SOL     OW 9712   0.846   5.289   1.151
 2938SOL    HW1 9713   0.763   5.308   1.100
 2938SOL    HW2 9714   0.881   5.373   1.192
 2939SOL     OW 9715   5.950   6.290   1.647
 2939SOL    HW1 9716   5.893   6.209   1.656
 2939SOL    HW2 9717   5.912   6.350   1.577
 2940SOL     OW 9718   4.762   6.176   4.221
 2940SOL    HW1 9719   4.861   6.174   4.227
 2940SOL    HW2 9720   4.731   6.267   4.194
 2941SOL     OW 9721   2.462   5.091   3.005
 2941SOL    HW1 9722   2.502   5.088   3.097
 2941SOL    HW2 9723   2.528   5.053   2.939
 2942SOL     OW 9724   3.522   1.823   1.334
 2942SOL    HW1 9725   3.563   1.757   1.396
 2942SOL    HW2 9726   3.462   1.884   1.385
 2943SOL     OW 9727   0.701   3.661   3.594
 2943SOL    HW1 9728   0.765   3.655   3.517
 2943SOL    HW2 9729   0.607   3.660   3.560
 2944SOL     OW 9730   0.824   5.583   3.122
 2944SOL    HW1 9731   0.864   5.491   3.117
 2944SOL    HW2 9732   0.816   5.611   3.217
 2945SOL     OW 9733   5.782   4.158   0.531
 2945SOL    HW1 9734   5.868   4.205   0.552
 2945SOL    HW2 9735   5.803   4.067   0.495
 2946SOL     OW 9736   3.537   4.155   4.295
 2946SOL    HW1 9737   3.440   4.160   4.269
 2946SOL    HW2 9738   3.577   4.071   4.258
 2947SOL     OW 9739   6.391   5.735   6.982
 2947SOL    HW1 9740   6.419   5.830   6.969
 2947SOL    HW2 9741   6.291   5.729   6.978
 2948SOL     OW 9742   6.435   4.227   0.545
 2948SOL    HW1 9743   6.483   4.144   0.514
 2948SOL    HW2 9744   6.405   4.215   0.639
 2949SOL     OW 9745   1.907   6.222   0.837
 2949SOL    HW1 9746   1.937   6.209   0.932
 2949SOL    HW2 9747   1.859   6.140   0.806
 2950SOL     OW 9748   5.453   5.203   2.180
 2950SOL    HW1 9749   5.411   5.219   2.269
 2950SOL    HW2 9750   5.526   5.269   2.165
 2951SOL     OW 9751   0.604   2.334   1.241
 2951SOL    HW1 9752   0.612   2.304   1.336
 2951SOL    HW2 9753   0.646   2.266   1.181
 2952SOL     OW 9754   0.635   1.588   4.466
 2952SOL    HW1 9755   0.674   1.652   4.400
 2952SOL    HW2 9756   0.636   1.630   4.557
 2953SOL     OW 9757   1.890   6.004   3.030
 2953SOL    HW1 9758   1.954   6.013   2.954
 2953SOL    HW2 9759   1.840   6.090   3.042
 2954SOL     OW 9760   0.964   4.359   6.361
 2954SOL    HW1 9761   0.952   4.444   6.311
 2954SOL    HW2 9762   1.023   4.297   6.309
 2955SOL     OW 9763   1.921   4.519   6.481
 2955SOL    HW1 9764   1.949   4.503   6.575
 2955SOL    HW2 9765   1.869   4.604   6.476
 2956SOL     OW 9766   5.660   3.828   4.710
 2956SOL    HW1 9767   5.692   3.921   4.727
 2956SOL    HW2 9768   5.713   3.788   4.635
 2957SOL     OW 9769   1.400   4.966   2.634
 2957SOL    HW1 9770   1.450   4.905   2.572
 2957SOL    HW2 9771   1.410   4.932   2.728
 2958SOL     OW 9772   1.684   4.278   1.308
 2958SOL    HW1 9773   1.655   4.191   1.267
 2958SOL    HW2 9774   1.685   4.349   1.238
 2959SOL     OW 9775   0.071   4.410   4.122
 2959SOL    HW1 9776   0.031   4.420   4.031
 2959SOL    HW2 9777   0.006   4.366   4.183
 2960SOL     OW 9778   5.040   6.232   0.976
 2960SOL    HW1 9779   5.035   6.137   0.946
 2960SOL    HW2 9780   4.999   6.240   1.067
 2961SOL     OW 9781   5.541   2.323   1.189
 2961SOL    HW1 9782   5.613   2.253   1.193
 2961SOL    HW2 9783   5.582   2.414   1.201
 2962SOL     OW 9784   0.147   0.091   3.827
 2962SOL    HW1 9785   0.223   0.145   3.790
 2962SOL    HW2 9786   0.105   0.141   3.903
 2963SOL     OW 9787   2.256   2.166   5.608
 2963SOL    HW1 9788   2.304   2.082   5.631
 2963SOL    HW2 9789   2.177   2.145   5.550
 2964SOL     OW 9790   1.147   0.872   5.888
 2964SOL    HW1 9791   1.109   0.954   5.845
 2964SOL    HW2 9792   1.204   0.823   5.823
 2965SOL     OW 9793   6.078   0.500   6.505
 2965SOL    HW1 9794   6.031   0.437   6.566
 2965SOL    HW2 9795   6.160   0.535   6.550
 2966SOL     OW 9796   3.294   6.153   2.618
 2966SOL    HW1 9797   3.302   6.175   2.521
 2966SOL    HW2 9798   3.226   6.211   2.661
 2967SOL     OW 9799   6.080   6.934   5.017
 2967SOL    HW1 9800   6.129   6.979   5.091
 2967SOL    HW2 9801   6.120   6.961   4.929
 2968SOL     OW 9802   1.540   4.217   1.877
 2968SOL    HW1 9803   1.516   4.120   1.871
 2968SOL    HW2 9804   1.620   4.228   1.936
 2969SOL     OW 9805   4.711   2.574   4.800
 2969SOL    HW1 9806   4.714   2.629   4.884
 2969SOL    HW2 9807   4.617   2.547   4.782
 2970SOL     OW 9808   2.875   2.364   5.870
 2970SOL    HW1 9809   2.814   2.435   5.834
 2970SOL    HW2 9810   2.957   2.359   5.814
 2971SOL     OW 9811   4.383   3.579   6.101
 2971SOL    HW1 9812   4.466   3.577   6.156
 2971SOL    HW2 9813   4.317   3.642   6.142
 2972SOL     OW 9814   0.607   6.050   6.249
 2972SOL    HW1 9815   0.624   6.143   6.216
 2972SOL    HW2 9816   0.510   6.039   6.270
 2973SOL     OW 9817   5.772   0.470   3.903
 2973SOL    HW1 9818   5.823   0.533   3.845
 2973SOL    HW2 9819   5.776   0.378   3.866
 2974SOL     OW 9820   5.347   6.124   2.638
 2974SOL    HW1 9821   5.408   6.192   2.597
 2974SOL    HW2 9822   5.358   6.126   2.738
 2975SOL     OW 9823   6.850   3.761   4.697
 2975SOL    HW1 9824   6.797   3.774   4.781
 2975SOL    HW2 9825   6.787   3.752   4.619
 2976SOL     OW 9826   3.753   0.231   1.344
 2976SOL    HW1 9827   3.833   0.278   1.381
 2976SOL    HW2 9828   3.727   0.273   1.257
 2977SOL     OW 9829   1.626   1.012   2.344
 2977SOL    HW1 9830   1.685   1.092   2.349
 2977SOL    HW2 9831   1.663   0.939   2.401
 2978SOL     OW 9832   3.781   5.840   0.228
 2978SOL    HW1 9833   3.725   5.770   0.272
 2978SOL    HW2 9834   3.806   5.810   0.136
 2979SOL     OW 9835   2.789   1.505   5.567
 2979SOL    HW1 9836   2.799   1.596   5.609
 2979SOL    HW2 9837   2.741   1.514   5.480
 2980SOL     OW 9838   3.473   2.881   3.976
 2980SOL    HW1 9839   3.436   2.910   3.887
 2980SOL    HW2 9840   3.397   2.855   4.036
 2981SOL     OW 9841   3.024   2.099   1.744
 2981SOL    HW1 9842   2.978   2.186   1.724
 2981SOL    HW2 9843   3.113   2.117   1.786
 2982SOL     OW 9844   1.597   0.544   1.869
 2982SOL    HW1 9845   1.550   0.502   1.791
 2982SOL    HW2 9846   1.621   0.638   1.846
 2983SOL     OW 9847   6.550   2.716   6.421
 2983SOL    HW1 9848   6.522   2.768   6.341
 2983SOL    HW2 9849   6.624   2.653   6.396
 2984SOL     OW 9850   0.684   6.608   1.034
 2984SOL    HW1 9851   0.659   6.512   1.045
 2984SOL    HW2 9852   0.612   6.666   1.073
 2985SOL     OW 9853   6.788   0.109   5.701
 2985SOL    HW1 9854   6.725   0.097   5.778
 2985SOL    HW2 9855   6.881   0.119   5.737
 2986SOL     OW 9856   4.090   3.442   2.913
 2986SOL    HW1 9857   4.127   3.352   2.938
 2986SOL    HW2 9858   3.991   3.443   2.931
 2987SOL     OW 9859   2.329   5.983   5.245
 2987SOL    HW1 9860   2.399   5.994   5.316
 2987SOL    HW2 9861   2.368   5.934   5.167
 2988SOL     OW 9862   0.912   1.792   6.619
 2988SOL    HW1 9863   0.948   1.701   6.600
 2988SOL    HW2 9864   0.829   1.807   6.566
 2989SOL     OW 9865   5.723   3.851   5.805
 2989SOL    HW1 9866   5.691   3.906   5.883
 2989SOL    HW2 9867   5.655   3.854   5.732
 2990SOL     OW 9868   4.639   0.814   5.034
 2990SOL    HW1 9869   4.706   0.756   4.987
 2990SOL    HW2 9870   4.636   0.904   4.990
 2991SOL     OW 9871   6.517   2.962   0.243
 2991SOL    HW1 9872   6.604   3.009   0.227
 2991SOL    HW2 9873   6.447   3.029   0.271
 2992SOL     OW 9874   1.591   4.065   5.172
 2992SOL    HW1 9875   1.605   4.040   5.076
 2992SOL    HW2 9876   1.503   4.030   5.204
 2993SOL     OW 9877   3.513   4.678   6.720
 2993SOL    HW1 9878   3.475   4.765   6.688
 2993SOL    HW2 9879   3.604   4.693   6.757
 2994SOL     OW 9880   2.672   5.003   4.545
 2994SOL    HW1 9881   2.625   4.960   4.468
 2994SOL    HW2 9882   2.745   4.943   4.578
 2995SOL     OW 9883   4.991   0.051   1.979
 2995SOL    HW1 9884   5.022   0.139   2.013
 2995SOL    HW2 9885   5.066   0.006   1.930
 2996SOL     OW 9886   0.019   0.625   4.047
 2996SOL    HW1 9887   0.005   0.708   3.994
 2996SOL    HW2 9888   6.955   0.609   4.106
 2997SOL     OW 9889   4.705   5.986   4.526
 2997SOL    HW1 9890   4.651   5.939   4.596
 2997SOL    HW2 9891   4.668   6.077   4.511
 2998SOL     OW 9892   2.500   0.122   2.335
 2998SOL    HW1 9893   2.593   0.139   2.304
 2998SOL    HW2 9894   2.501   0.093   2.431
 2999SOL     OW 9895   1.914   5.026   0.322
 2999SOL    HW1 9896   1.952   5.086   0.252
 2999SOL    HW2 9897   1.940   4.931   0.303
 3000SOL     OW 9898   1.641   4.073   6.241
 3000SOL    HW1 9899   1.583   4.010   6.293
 3000SOL    HW2 9900   1.668   4.029   6.155
 3001SOL     OW 9901   3.925   0.459   6.569
 3001SOL    HW1 9902   3.939   0.368   6.531
 3001SOL    HW2 9903   3.828   0.475   6.583
 3002SOL     OW 9904   1.438   2.031   1.818
 3002SOL    HW1 9905   1.516   2.063   1.764
 3002SOL    HW2 9906   1.378   1.976   1.760
 3003SOL     OW 9907   1.413   6.093   0.583
 3003SOL    HW1 9908   1.472   6.174   0.580
 3003SOL    HW2 9909   1.451   6.022   0.523
 3004SOL     OW 9910   2.712   0.237   4.287
 3004SOL    HW1 9911   2.674   0.154   4.247
 3004SOL    HW2 9912   2.703   0.233   4.387
 3005SOL     OW 9913   2.547   1.970   0.269
 3005SOL    HW1 9914   2.464   2.004   0.225
 3005SOL    HW2 9915   2.555   2.009   0.361
 3006SOL     OW 9916   5.385   1.099   5.936
 3006SOL    HW1 9917   5.408   1.004   5.914
 3006SOL    HW2 9918   5.367   1.149   5.851
 3007SOL     OW 9919   6.145   5.632   5.698
 3007SOL    HW1 9920   6.156   5.538   5.665
 3007SOL    HW2 9921   6.235   5.672   5.714
 3008SOL     OW 9922   5.374   4.216   5.372
 3008SOL    HW1 9923   5.400   4.263   5.456
 3008SOL    HW2 9924   5.299   4.153   5.391
 3009SOL     OW 9925   5.389   3.692   1.841
 3009SOL    HW1 9926   5.305   3.643   1.863
 3009SOL    HW2 9927   5.452   3.686   1.919
 3010SOL     OW 9928   4.274   4.709   1.512
 3010SOL    HW1 9929   4.258   4.623   1.464
 3010SOL    HW2 9930   4.187   4.744   1.546
 3011SOL     OW 9931   6.077   6.843   0.167
 3011SOL    HW1 9932   6.030   6.931   0.166
 3011SOL    HW2 9933   6.010   6.769   0.158
 3012SOL     OW 9934   2.531   1.381   4.834
 3012SOL    HW1 9935   2.519   1.334   4.746
 3012SOL    HW2 9936   2.627   1.375   4.861
 3013SOL     OW 9937   0.583   5.398   5.408
 3013SOL    HW1 9938   0.631   5.348   5.335
 3013SOL    HW2 9939   0.617   5.491   5.413
 3014SOL     OW 9940   4.015   0.247   0.139
 3014SOL    HW1 9941   4.019   0.334   0.189
 3014SOL    HW2 9942   4.098   0.237   0.083
 3015SOL     OW 9943   1.971   6.527   6.291
 3015SOL    HW1 9944   1.956   6.601   6.225
 3015SOL    HW2 9945   1.917   6.545   6.373
 3016SOL     OW 9946   3.526   0.999   4.498
 3016SOL    HW1 9947   3.474   0.940   4.559
 3016SOL    HW2 9948   3.497   0.984   4.404
 3017SOL     OW 9949   1.475   5.851   0.428
 3017SOL    HW1 9950   1.558   5.854   0.372
 3017SOL    HW2 9951   1.397   5.829   0.370
 3018SOL     OW 9952   2.526   2.338   1.679
 3018SOL    HW1 9953   2.477   2.325   1.593
 3018SOL    HW2 9954   2.558   2.249   1.713
 3019SOL     OW 9955   1.224   0.692   5.334
 3019SOL    HW1 9956   1.133   0.669   5.370
 3019SOL    HW2 9957   1.265   0.764   5.391
 3020SOL     OW 9958   5.054   4.215   6.498
 3020SOL    HW1 9959   5.045   4.218   6.398
 3020SOL    HW2 9960   5.055   4.120   6.529
 3021SOL     OW 9961   4.372   6.586   4.566
 3021SOL    HW1 9962   4.364   6.508   4.503
 3021SOL    HW2 9963   4.397   6.668   4.515
 3022SOL     OW 9964   4.171   6.826   3.174
 3022SOL    HW1 9965   4.160   6.845   3.271
 3022SOL    HW2 9966   4.132   6.902   3.120
 3023SOL     OW 9967   5.447   4.554   4.864
 3023SOL    HW1 9968   5.362   4.606   4.858
 3023SOL    HW2 9969   5.426   4.456   4.859
 3024SOL     OW 9970   6.260   1.290   6.800
 3024SOL    HW1 9971   6.360   1.283   6.803
 3024SOL    HW2 9972   6.221   1.198   6.801
 3025SOL     OW 9973   4.217   5.241   0.727
 3025SOL    HW1 9974   4.226   5.148   0.692
 3025SOL    HW2 9975   4.209   5.239   0.826
 3026SOL     OW 9976   0.385   0.225   2.348
 3026SOL    HW1 9977   0.312   0.291   2.369
 3026SOL    HW2 9978   0.346   0.148   2.297
 3027SOL     OW 9979   4.425   0.450   0.736
 3027SOL    HW1 9980   4.336   0.497   0.735
 3027SOL    HW2 9981   4.416   0.361   0.781
 3028SOL     OW 9982   4.075   3.324   4.184
 3028SOL    HW1 9983   4.023   3.382   4.122
 3028SOL    HW2 9984   4.128   3.258   4.130
 3029SOL     OW 9985   0.036   2.512   4.252
 3029SOL    HW1 9986   0.129   2.517   4.215
 3029SOL    HW2 9987   0.033   2.443   4.325
 3030SOL     OW 9988   0.417   3.604   6.362
 3030SOL    HW1 9989   0.432   3.555   6.275
 3030SOL    HW2 9990   0.504   3.641   6.394
 3031SOL     OW 9991   0.203   4.636   6.951
 3031SOL    HW1 9992   0.185   4.550   6.904
 3031SOL    HW2 9993   0.143   4.707   6.913
 3032SOL     OW 9994   3.516   6.945   4.048
 3032SOL    HW1 9995   3.494   6.933   4.144
 3032SOL    HW2 9996   3.593   6.886   4.023
 3033SOL     OW 9997   2.265   0.750   6.446
 3033SOL    HW1 9998   2.338   0.762   6.513
 3033SOL    HW2 9999   2.305   0.745   6.354
 3034SOL     OW10000   5.625   3.257   3.307
 3034SOL    HW110001   5.573   3.260   3.393
 3034SOL    HW210002   5.575   3.202   3.240
 3035SOL     OW10003   6.511   4.444   6.121
 3035SOL    HW110004   6.590   4.383   6.127
 3035SOL    HW210005   6.539   4.537   6.147
 3036SOL     OW10006   3.286   2.343   6.095
 3036SOL    HW110007   3.319   2.405   6.024
 3036SOL    HW210008   3.197   2.307   6.069
 3037SOL     OW10009   0.505   5.413   5.988
 3037SOL    HW110010   0.414   5.413   5.948
 3037SOL    HW210011   0.544   5.505   5.985
 3038SOL     OW10012   5.807   4.619   5.739
 3038SOL    HW110013   5.861   4.695   5.702
 3038SOL    HW210014   5.731   4.600   5.677
 3039SOL     OW10015   6.068   3.331   6.610
 3039SOL    HW110016   6.145   3.340   6.546
 3039SOL    HW210017   6.101   3.343   6.704
 3040SOL     OW10018   4.266   6.132   6.521
 3040SOL    HW110019   4.326   6.090   6.589
 3040SOL    HW210020   4.280   6.231   6.520
 3041SOL     OW10021   2.282   6.024   6.488
 3041SOL    HW110022   2.368   5.973   6.498
 3041SOL    HW210023   2.210   5.962   6.459
 3042SOL     OW10024   0.213   5.457   3.738
 3042SOL    HW110025   0.130   5.510   3.718
 3042SOL    HW210026   0.207   5.368   3.692
 3043SOL     OW10027   2.434   3.742   1.357
 3043SOL    HW110028   2.439   3.824   1.413
 3043SOL    HW210029   2.525   3.702   1.349
 3044SOL     OW10030   3.786   3.708   4.818
 3044SOL    HW110031   3.734   3.650   4.756
 3044SOL    HW210032   3.880   3.675   4.824
 3045SOL     OW10033   5.834   0.541   3.083
 3045SOL    HW110034   5.845   0.447   3.114
 3045SOL    HW210035   5.770   0.589   3.142
 3046SOL     OW10036   6.664   5.865   1.318
 3046SOL    HW110037   6.595   5.835   1.251
 3046SOL    HW210038   6.700   5.954   1.291
 3047SOL     OW10039   4.614   1.537   3.599
 3047SOL    HW110040   4.589   1.476   3.523
 3047SOL    HW210041   4.677   1.489   3.661
 3048SOL     OW10042   4.476   5.289   1.014
 3048SOL    HW110043   4.392   5.254   1.054
 3048SOL    HW210044   4.470   5.284   0.915
 3049SOL     OW10045   0.212   0.788   1.549
 3049SOL    HW110046   0.198   0.868   1.607
 3049SOL    HW210047   0.282   0.808   1.481
 3050SOL     OW10048   3.968   2.300   5.852
 3050SOL    HW110049   4.040   2.285   5.919
 3050SOL    HW210050   3.958   2.218   5.795
 3051SOL     OW10051   1.692   4.309   6.096
 3051SOL    HW110052   1.673   4.233   6.159
 3051SOL    HW210053   1.720   4.389   6.148
 3052SOL     OW10054   6.117   6.254   4.147
 3052SOL    HW110055   6.072   6.221   4.065
 3052SOL    HW210056   6.212   6.278   4.126
 3053SOL     OW10057   0.842   5.752   6.176
 3053SOL    HW110058   0.787   5.799   6.107
 3053SOL    HW210059   0.894   5.820   6.229
 3054SOL     OW10060   6.150   6.463   3.457
 3054SOL    HW110061   6.223   6.531   3.457
 3054SOL    HW210062   6.062   6.508   3.474
 3055SOL     OW10063   5.062   6.392   0.657
 3055SOL    HW110064   4.970   6.429   0.667
 3055SOL    HW210065   5.089   6.347   0.742
 3056SOL     OW10066   4.160   1.809   0.649
 3056SOL    HW110067   4.113   1.725   0.622
 3056SOL    HW210068   4.161   1.872   0.572
 3057SOL     OW10069   6.929   3.012   3.326
 3057SOL    HW110070   6.864   3.039   3.255
 3057SOL    HW210071   7.010   2.971   3.283
 3058SOL     OW10072   5.987   3.941   6.050
 3058SOL    HW110073   5.957   3.932   6.145
 3058SOL    HW210074   6.040   3.860   6.024
 3059SOL     OW10075   1.638   2.548   3.645
 3059SOL    HW110076   1.670   2.643   3.641
 3059SOL    HW210077   1.716   2.486   3.641
 3060SOL     OW10078   5.811   3.402   4.031
 3060SOL    HW110079   5.860   3.316   4.015
 3060SOL    HW210080   5.734   3.409   3.966
 3061SOL     OW10081   5.720   6.514   2.691
 3061SOL    HW110082   5.676   6.581   2.751
 3061SOL    HW210083   5.814   6.500   2.720
 3062SOL     OW10084   3.564   5.189   0.319
 3062SOL    HW110085   3.575   5.253   0.243
 3062SOL    HW210086   3.518   5.235   0.395
 3063SOL     OW10087   6.449   5.199   0.385
 3063SOL    HW110088   6.534   5.234   0.423
 3063SOL    HW210089   6.386   5.178   0.459
 3064SOL     OW10090   4.794   1.186   5.787
 3064SOL    HW110091   4.826   1.227   5.702
 3064SOL    HW210092   4.788   1.257   5.857
 3065SOL     OW10093   5.077   0.605   6.600
 3065SOL    HW110094   5.026   0.632   6.681
 3065SOL    HW210095   5.113   0.513   6.613
 3066SOL     OW10096   5.347   6.570   5.927
 3066SOL    HW110097   5.314   6.585   6.020
 3066SOL    HW210098   5.349   6.657   5.877
 3067SOL     OW10099   1.762   2.199   4.717
 3067SOL    HW110100   1.718   2.258   4.785
 3067SOL    HW210101   1.860   2.218   4.714
 3068SOL     OW10102   5.818   0.003   0.419
 3068SOL    HW110103   5.722   0.028   0.430
 3068SOL    HW210104   5.872   0.047   0.491
 3069SOL     OW10105   5.760   6.142   3.811
 3069SOL    HW110106   5.696   6.066   3.821
 3069SOL    HW210107   5.711   6.228   3.821
 3070SOL     OW10108   2.932   1.436   1.139
 3070SOL    HW110109   3.003   1.507   1.140
 3070SOL    HW210110   2.887   1.432   1.229
 3071SOL     OW10111   5.545   4.749   5.017
 3071SOL    HW110112   5.509   4.665   4.976
 3071SOL    HW210113   5.626   4.778   4.968
 3072SOL     OW10114   1.919   6.382   5.053
 3072SOL    HW110115   1.997   6.410   5.109
 3072SOL    HW210116   1.950   6.368   4.959
 3073SOL     OW10117   0.181   5.176   3.272
 3073SOL    HW110118   0.224   5.245   3.330
 3073SOL    HW210119   0.234   5.091   3.277
 3074SOL     OW10120   3.434   3.082   2.079
 3074SOL    HW110121   3.528   3.116   2.085
 3074SOL    HW210122   3.429   2.992   2.122
 3075SOL     OW10123   3.868   4.998   0.430
 3075SOL    HW110124   3.902   5.035   0.344
 3075SOL    HW210125   3.788   4.940   0.412
 3076SOL     OW10126   1.858   1.433   3.999
 3076SOL    HW110127   1.932   1.388   3.949
 3076SOL    HW210128   1.839   1.522   3.957
 3077SOL     OW10129   0.269   3.852   2.862
 3077SOL    HW110130   0.289   3.776   2.924
 3077SOL    HW210131   0.239   3.931   2.915
 3078SOL     OW10132   6.320   4.318   1.142
 3078SOL    HW110133   6.342   4.377   1.064
 3078SOL    HW210134   6.289   4.229   1.108
 3079SOL     OW10135   0.707   3.974   3.473
 3079SOL    HW110136   0.735   3.879   3.490
 3079SOL    HW210137   0.619   3.991   3.517
 3080SOL     OW10138   3.868   4.685   1.742
 3080SOL    HW110139   3.900   4.595   1.715
 3080SOL    HW210140   3.768   4.683   1.753
 3081SOL     OW10141   1.698   2.828   6.190
 3081SOL    HW110142   1.600   2.809   6.192
 3081SOL    HW210143   1.731   2.821   6.095
 3082SOL     OW10144   5.822   4.021   4.806
 3082SOL    HW110145   5.808   4.084   4.883
 3082SOL    HW210146   5.919   3.995   4.801
 3083SOL     OW10147   3.758   5.838   1.352
 3083SOL    HW110148   3.735   5.918   1.297
 3083SOL    HW210149   3.846   5.802   1.322
 3084SOL     OW10150   6.497   5.272   3.893
 3084SOL    HW110151   6.560   5.350   3.889
 3084SOL    HW210152   6.544   5.193   3.932
 3085SOL     OW10153   6.710   5.319   6.220
 3085SOL    HW110154   6.780   5.328   6.149
 3085SOL    HW210155   6.753   5.291   6.305
 3086SOL     OW10156   6.259   6.143   6.287
 3086SOL    HW110157   6.204   6.222   6.314
 3086SOL    HW210158   6.345   6.175   6.247
 3087SOL     OW10159   2.947   0.290   1.718
 3087SOL    HW110160   2.927   0.375   1.671
 3087SOL    HW210161   2.896   0.215   1.675
 3088SOL     OW10162   2.300   3.251   5.248
 3088SOL    HW110163   2.251   3.248   5.335
 3088SOL    HW210164   2.359   3.171   5.240
 3089SOL     OW10165   3.804   6.522   0.134
 3089SOL    HW110166   3.850   6.442   0.095
 3089SOL    HW210167   3.772   6.500   0.227
 3090SOL     OW10168   1.596   2.341   2.668
 3090SOL    HW110169   1.594   2.293   2.756
 3090SOL    HW210170   1.671   2.407   2.668
 3091SOL     OW10171   1.179   2.685   6.773
 3091SOL    HW110172   1.261   2.634   6.747
 3091SOL    HW210173   1.150   2.658   6.864
 3092SOL     OW10174   4.668   1.827   3.452
 3092SOL    HW110175   4.620   1.770   3.519
 3092SOL    HW210176   4.761   1.793   3.439
 3093SOL     OW10177   6.343   5.148   6.961
 3093SOL    HW110178   6.357   5.214   0.019
 3093SOL    HW210179   6.273   5.081   6.988
 3094SOL     OW10180   2.634   0.717   5.690
 3094SOL    HW110181   2.710   0.660   5.722
 3094SOL    HW210182   2.547   0.675   5.714
 3095SOL     OW10183   2.023   3.399   6.120
 3095SOL    HW110184   2.058   3.453   6.196
 3095SOL    HW210185   1.931   3.366   6.142
 3096SOL     OW10186   1.709   3.077   3.908
 3096SOL    HW110187   1.623   3.067   3.957
 3096SOL    HW210188   1.691   3.100   3.812
 3097SOL     OW10189   5.491   2.678   5.976
 3097SOL    HW110190   5.555   2.677   6.053
 3097SOL    HW210191   5.442   2.765   5.974
 3098SOL     OW10192   1.437   3.538   2.398
 3098SOL    HW110193   1.513   3.507   2.341
 3098SOL    HW210194   1.414   3.632   2.374
 3099SOL     OW10195   0.569   6.957   5.778
 3099SOL    HW110196   0.632   6.913   5.714
 3099SOL    HW210197   0.503   7.012   5.727
 3100SOL     OW10198   6.212   4.201   2.550
 3100SOL    HW110199   6.130   4.159   2.590
 3100SOL    HW210200   6.268   4.130   2.507
 3101SOL     OW10201   5.461   1.085   4.189
 3101SOL    HW110202   5.516   1.016   4.142
 3101SOL    HW210203   5.487   1.176   4.156
 3102SOL     OW10204   5.930   3.832   3.031
 3102SOL    HW110205   5.875   3.760   2.989
 3102SOL    HW210206   5.998   3.864   2.965
 3103SOL     OW10207   1.040   1.104   2.446
 3103SOL    HW110208   0.959   1.138   2.398
 3103SOL    HW210209   1.041   1.139   2.539
 3104SOL     OW10210   5.676   2.065   6.355
 3104SOL    HW110211   5.701   2.160   6.376
 3104SOL    HW210212   5.590   2.043   6.400
 3105SOL     OW10213   5.667   4.311   0.732
 3105SOL    HW110214   5.728   4.287   0.807
 3105SOL    HW210215   5.705   4.277   0.646
 3106SOL     OW10216   5.412   1.900   5.517
 3106SOL    HW110217   5.425   1.801   5.524
 3106SOL    HW210218   5.373   1.935   5.602
 3107SOL     OW10219   4.113   2.006   4.690
 3107SOL    HW110220   4.097   1.953   4.607
 3107SOL    HW210221   4.094   1.948   4.770
 3108SOL     OW10222   2.003   4.363   3.613
 3108SOL    HW110223   1.923   4.357   3.673
 3108SOL    HW210224   2.058   4.280   3.623
 3109SOL     OW10225   0.186   5.228   3.591
 3109SOL    HW110226   0.265   5.167   3.581
 3109SOL    HW210227   0.107   5.175   3.622
 3110SOL     OW10228   1.262   5.646   4.380
 3110SOL    HW110229   1.282   5.578   4.309
 3110SOL    HW210230   1.326   5.722   4.372
 3111SOL     OW10231   6.576   3.945   4.131
 3111SOL    HW110232   6.560   3.860   4.181
 3111SOL    HW210233   6.581   4.021   4.195
 3112SOL     OW10234   4.392   0.584   1.069
 3112SOL    HW110235   4.435   0.583   0.978
 3112SOL    HW210236   4.449   0.635   1.133
 3113SOL     OW10237   1.390   6.590   4.160
 3113SOL    HW110238   1.314   6.545   4.207
 3113SOL    HW210239   1.459   6.521   4.136
 3114SOL     OW10240   4.650   6.241   5.570
 3114SOL    HW110241   4.563   6.205   5.604
 3114SOL    HW210242   4.635   6.333   5.533
 3115SOL     OW10243   4.890   6.312   4.761
 3115SOL    HW110244   4.859   6.296   4.667
 3115SOL    HW210245   4.986   6.285   4.770
 3116SOL     OW10246   0.847   2.294   6.827
 3116SOL    HW110247   0.907   2.337   6.760
 3116SOL    HW210248   0.827   2.200   6.799
 3117SOL     OW10249   4.404   0.139   1.551
 3117SOL    HW110250   4.353   0.188   1.622
 3117SOL    HW210251   4.498   0.123   1.582
 3118SOL     OW10252   1.018   1.926   3.360
 3118SOL    HW110253   1.086   1.960   3.296
 3118SOL    HW210254   0.927   1.948   3.327
 3119SOL     OW10255   4.403   6.603   3.986
 3119SOL    HW110256   4.488   6.655   3.997
 3119SOL    HW210257   4.405   6.523   4.046
 3120SOL     OW10258   3.396   6.155   6.613
 3120SOL    HW110259   3.416   6.215   6.690
 3120SOL    HW210260   3.402   6.206   6.527
 3121SOL     OW10261   3.604   2.063   3.103
 3121SOL    HW110262   3.689   2.113   3.089
 3121SOL    HW210263   3.585   2.056   3.201
 3122SOL     OW10264   5.583   3.557   6.185
 3122SOL    HW110265   5.507   3.493   6.196
 3122SOL    HW210266   5.666   3.506   6.161
 3123SOL     OW10267   1.960   2.984   2.351
 3123SOL    HW110268   1.860   2.990   2.353
 3123SOL    HW210269   1.993   2.992   2.257
 3124SOL     OW10270   4.741   6.562   6.069
 3124SOL    HW110271   4.771   6.526   5.981
 3124SOL    HW210272   4.695   6.490   6.121
 3125SOL     OW10273   1.749   1.877   5.253
 3125SOL    HW110274   1.767   1.782   5.228
 3125SOL    HW210275   1.822   1.911   5.313
 3126SOL     OW10276   4.639   4.529   5.335
 3126SOL    HW110277   4.610   4.442   5.293
 3126SOL    HW210278   4.624   4.603   5.270
 3127SOL     OW10279   6.172   2.345   6.035
 3127SOL    HW110280   6.209   2.325   6.126
 3127SOL    HW210281   6.074   2.327   6.034
 3128SOL     OW10282   4.157   1.333   1.069
 3128SOL    HW110283   4.124   1.427   1.070
 3128SOL    HW210284   4.132   1.288   1.154
 3129SOL     OW10285   4.495   4.723   0.090
 3129SOL    HW110286   4.454   4.811   0.115
 3129SOL    HW210287   4.593   4.724   0.109
 3130SOL     OW10288   6.673   5.950   2.464
 3130SOL    HW110289   6.754   6.007   2.450
 3130SOL    HW210290   6.643   5.958   2.559
 3131SOL     OW10291   6.680   2.274   2.996
 3131SOL    HW110292   6.603   2.227   2.952
 3131SOL    HW210293   6.707   2.225   3.078
 3132SOL     OW10294   4.398   3.842   6.670
 3132SOL    HW110295   4.422   3.761   6.724
 3132SOL    HW210296   4.310   3.878   6.702
 3133SOL     OW10297   6.008   6.131   3.938
 3133SOL    HW110298   5.941   6.169   3.874
 3133SOL    HW210299   6.090   6.105   3.888
 3134SOL     OW10300   4.839   4.912   2.776
 3134SOL    HW110301   4.816   4.872   2.687
 3134SOL    HW210302   4.849   4.840   2.844
 3135SOL     OW10303   3.674   0.911   6.711
 3135SOL    HW110304   3.606   0.978   6.741
 3135SOL    HW210305   3.707   0.936   6.620
 3136SOL     OW10306   6.505   6.607   2.286
 3136SOL    HW110307   6.531   6.703   2.286
 3136SOL    HW210308   6.407   6.598   2.272
 3137SOL     OW10309   5.053   4.354   6.766
 3137SOL    HW110310   5.071   4.301   6.849
 3137SOL    HW210311   5.019   4.293   6.695
 3138SOL     OW10312   0.018   6.602   4.723
 3138SOL    HW110313   0.012   6.506   4.699
 3138SOL    HW210314   0.051   6.654   4.644
 3139SOL     OW10315   1.439   4.521   2.086
 3139SOL    HW110316   1.359   4.536   2.144
 3139SOL    HW210317   1.416   4.546   1.991
 3140SOL     OW10318   5.167   6.025   0.153
 3140SOL    HW110319   5.068   6.013   0.147
 3140SOL    HW210320   5.206   6.027   0.061
 3141SOL     OW10321   5.887   2.096   0.393
 3141SOL    HW110322   5.943   2.138   0.322
 3141SOL    HW210323   5.945   2.064   0.467
 3142SOL     OW10324   4.501   1.021   3.845
 3142SOL    HW110325   4.408   1.050   3.823
 3142SOL    HW210326   4.508   1.004   3.943
 3143SOL     OW10327   6.491   1.629   0.773
 3143SOL    HW110328   6.455   1.575   0.696
 3143SOL    HW210329   6.421   1.636   0.844
 3144SOL     OW10330   4.029   4.800   6.792
 3144SOL    HW110331   4.024   4.783   6.890
 3144SOL    HW210332   4.118   4.772   6.757
 3145SOL     OW10333   1.018   5.788   5.422
 3145SOL    HW110334   0.960   5.751   5.350
 3145SOL    HW210335   1.111   5.798   5.389
 3146SOL     OW10336   6.332   1.976   4.655
 3146SOL    HW110337   6.247   1.988   4.604
 3146SOL    HW210338   6.410   1.995   4.595
 3147SOL     OW10339   4.361   6.547   0.655
 3147SOL    HW110340   4.393   6.590   0.739
 3147SOL    HW210341   4.343   6.617   0.586
 3148SOL     OW10342   5.685   4.911   0.219
 3148SOL    HW110343   5.666   4.896   0.316
 3148SOL    HW210344   5.667   5.006   0.195
 3149SOL     OW10345   4.034   3.217   0.002
 3149SOL    HW110346   3.965   3.230   0.073
 3149SOL    HW210347   4.081   3.303   7.000
 3150SOL     OW10348   0.464   0.171   5.368
 3150SOL    HW110349   0.437   0.261   5.403
 3150SOL    HW210350   0.559   0.152   5.395
 3151SOL     OW10351   6.895   0.988   6.039
 3151SOL    HW110352   6.817   1.037   6.079
 3151SOL    HW210353   6.969   0.983   6.107
 3152SOL     OW10354   2.832   2.073   5.865
 3152SOL    HW110355   2.862   1.993   5.814
 3152SOL    HW210356   2.865   2.156   5.821
 3153SOL     OW10357   6.200   5.771   1.886
 3153SOL    HW110358   6.105   5.800   1.872
 3153SOL    HW210359   6.223   5.701   1.818
 3154SOL     OW10360   3.397   2.082   0.752
 3154SOL    HW110361   3.385   2.018   0.827
 3154SOL    HW210362   3.312   2.133   0.738
 3155SOL     OW10363   0.576   5.790   6.621
 3155SOL    HW110364   0.674   5.810   6.623
 3155SOL    HW210365   0.562   5.695   6.649
 3156SOL     OW10366   3.169   3.851   1.136
 3156SOL    HW110367   3.262   3.871   1.103
 3156SOL    HW210368   3.111   3.932   1.126
 3157SOL     OW10369   1.553   1.357   4.038
 3157SOL    HW110370   1.574   1.361   3.940
 3157SOL    HW210371   1.586   1.441   4.083
 3158SOL     OW10372   2.703   0.654   6.299
 3158SOL    HW110373   2.794   0.635   6.261
 3158SOL    HW210374   2.711   0.667   6.398
 3159SOL     OW10375   4.740   6.232   1.470
 3159SOL    HW110376   4.694   6.203   1.386
 3159SOL    HW210377   4.680   6.295   1.520
 3160SOL     OW10378   2.518   1.296   5.196
 3160SOL    HW110379   2.509   1.347   5.110
 3160SOL    HW210380   2.439   1.315   5.254
 3161SOL     OW10381   1.733   2.658   1.644
 3161SOL    HW110382   1.638   2.682   1.664
 3161SOL    HW210383   1.791   2.739   1.655
 3162SOL     OW10384   1.026   5.630   1.877
 3162SOL    HW110385   1.122   5.644   1.853
 3162SOL    HW210386   0.968   5.669   1.806
 3163SOL     OW10387   5.131   4.271   0.982
 3163SOL    HW110388   5.200   4.311   0.922
 3163SOL    HW210389   5.043   4.317   0.968
 3164SOL     OW10390   2.604   0.477   3.956
 3164SOL    HW110391   2.701   0.478   3.981
 3164SOL    HW210392   2.573   0.383   3.945
 3165SOL     OW10393   0.851   5.661   6.625
 3165SOL    HW110394   0.823   5.565   6.612
 3165SOL    HW210395   0.950   5.669   6.609
 3166SOL     OW10396   3.854   1.612   4.570
 3166SOL    HW110397   3.763   1.588   4.536
 3166SOL    HW210398   3.857   1.599   4.669
 3167SOL     OW10399   6.327   3.041   2.139
 3167SOL    HW110400   6.265   3.120   2.137
 3167SOL    HW210401   6.358   3.020   2.046
 3168SOL     OW10402   5.180   1.406   1.151
 3168SOL    HW110403   5.255   1.433   1.212
 3168SOL    HW210404   5.115   1.350   1.201
 3169SOL     OW10405   0.685   2.975   1.943
 3169SOL    HW110406   0.689   3.005   1.848
 3169SOL    HW210407   0.606   2.914   1.955
 3170SOL     OW10408   2.264   4.060   3.784
 3170SOL    HW110409   2.309   4.114   3.855
 3170SOL    HW210410   2.272   4.107   3.696
 3171SOL     OW10411   5.114   1.451   4.932
 3171SOL    HW110412   5.125   1.374   4.995
 3171SOL    HW210413   5.204   1.482   4.901
 3172SOL     OW10414   6.264   3.975   1.410
 3172SOL    HW110415   6.196   3.983   1.483
 3172SOL    HW210416   6.356   3.981   1.449
 3173SOL     OW10417   5.346   3.634   0.064
 3173SOL    HW110418   5.269   3.694   0.087
 3173SOL    HW210419   5.322   3.540   0.087
 3174SOL     OW10420   3.205   2.772   6.730
 3174SOL    HW110421   3.166   2.854   6.689
 3174SOL    HW210422   3.271   2.731   6.668
 3175SOL     OW10423   5.898   5.926   5.457
 3175SOL    HW110424   5.819   5.958   5.509
 3175SOL    HW210425   5.891   5.828   5.441
 3176SOL     OW10426   0.294   4.847   3.650
 3176SOL    HW110427   0.330   4.855   3.743
 3176SOL    HW210428   0.333   4.918   3.592
 3177SOL     OW10429   5.347   2.575   2.527
 3177SOL    HW110430   5.338   2.492   2.472
 3177SOL    HW210431   5.294   2.649   2.485
 3178SOL     OW10432   1.169   0.837   2.719
 3178SOL    HW110433   1.210   0.776   2.787
 3178SOL    HW210434   1.086   0.796   2.683
 3179SOL     OW10435   0.974   3.555   2.545
 3179SOL    HW110436   1.033   3.505   2.609
 3179SOL    HW210437   0.879   3.544   2.573
 3180SOL     OW10438   6.244   0.306   6.987
 3180SOL    HW110439   6.258   0.399   6.954
 3180SOL    HW210440   6.160   0.303   0.027
 3181SOL     OW10441   0.241   6.559   5.030
 3181SOL    HW110442   0.272   6.540   5.123
 3181SOL    HW210443   0.192   6.479   4.994
 3182SOL     OW10444   1.246   0.265   1.285
 3182SOL    HW110445   1.230   0.276   1.383
 3182SOL    HW210446   1.344   0.257   1.268
 3183SOL     OW10447   4.361   4.181   0.580
 3183SOL    HW110448   4.302   4.116   0.533
 3183SOL    HW210449   4.421   4.132   0.644
 3184SOL     OW10450   6.125   0.790   4.132
 3184SOL    HW110451   6.151   0.882   4.160
 3184SOL    HW210452   6.074   0.795   4.046
 3185SOL     OW10453   1.524   0.208   5.768
 3185SOL    HW110454   1.518   0.187   5.865
 3185SOL    HW210455   1.617   0.193   5.735
 3186SOL     OW10456   0.241   1.988   5.368
 3186SOL    HW110457   0.148   1.956   5.351
 3186SOL    HW210458   0.306   1.914   5.350
 3187SOL     OW10459   5.288   0.037   2.794
 3187SOL    HW110460   5.282   0.080   2.704
 3187SOL    HW210461   5.384   0.018   2.815
 3188SOL     OW10462   1.538   5.854   1.428
 3188SOL    HW110463   1.593   5.862   1.345
 3188SOL    HW210464   1.593   5.880   1.507
 3189SOL     OW10465   2.485   1.527   6.179
 3189SOL    HW110466   2.510   1.515   6.275
 3189SOL    HW210467   2.564   1.506   6.121
 3190SOL     OW10468   6.053   6.280   4.779
 3190SOL    HW110469   6.086   6.313   4.868
 3190SOL    HW210470   6.057   6.180   4.777
 3191SOL     OW10471   4.018   5.033   1.396
 3191SOL    HW110472   4.000   4.998   1.304
 3191SOL    HW210473   4.038   5.131   1.391
 3192SOL     OW10474   5.584   0.517   3.274
 3192SOL    HW110475   5.635   0.518   3.360
 3192SOL    HW210476   5.540   0.428   3.262
 3193SOL     OW10477   3.531   5.701   4.692
 3193SOL    HW110478   3.440   5.682   4.656
 3193SOL    HW210479   3.542   5.800   4.702
 3194SOL     OW10480   2.450   6.544   4.784
 3194SOL    HW110481   2.362   6.528   4.738
 3194SOL    HW210482   2.434   6.579   4.876
 3195SOL     OW10483   0.485   6.216   0.428
 3195SOL    HW110484   0.472   6.261   0.340
 3195SOL    HW210485   0.551   6.268   0.482
 3196SOL     OW10486   6.408   6.799   2.536
 3196SOL    HW110487   6.378   6.833   2.447
 3196SOL    HW210488   6.478   6.860   2.573
 3197SOL     OW10489   2.855   0.891   0.225
 3197SOL    HW110490   2.857   0.805   0.174
 3197SOL    HW210491   2.918   0.885   0.303
 3198SOL     OW10492   5.072   3.782   3.687
 3198SOL    HW110493   4.993   3.770   3.747
 3198SOL    HW210494   5.093   3.880   3.678
 3199SOL     OW10495   4.920   3.788   3.431
 3199SOL    HW110496   4.961   3.803   3.341
 3199SOL    HW210497   4.992   3.780   3.500
 3200SOL     OW10498   5.830   3.477   4.820
 3200SOL    HW110499   5.826   3.413   4.897
 3200SOL    HW210500   5.864   3.565   4.853
 3201SOL     OW10501   6.477   3.720   2.354
 3201SOL    HW110502   6.425   3.692   2.435
 3201SOL    HW210503   6.484   3.819   2.352
 3202SOL     OW10504   3.008   2.438   6.322
 3202SOL    HW110505   2.946   2.390   6.260
 3202SOL    HW210506   3.041   2.374   6.391
 3203SOL     OW10507   3.218   6.524   1.840
 3203SOL    HW110508   3.276   6.500   1.763
 3203SOL    HW210509   3.265   6.499   1.925
 3204SOL     OW10510   5.054   0.642   3.799
 3204SOL    HW110511   4.988   0.686   3.859
 3204SOL    HW210512   5.111   0.712   3.756
 3205SOL     OW10513   4.549   2.760   6.620
 3205SOL    HW110514   4.647   2.747   6.634
 3205SOL    HW210515   4.514   2.688   6.560
 3206SOL     OW10516   2.901   4.539   0.545
 3206SOL    HW110517   2.876   4.446   0.520
 3206SOL    HW210518   3.000   4.551   0.538
 3207SOL     OW10519   2.153   6.348   3.613
 3207SOL    HW110520   2.115   6.255   3.607
 3207SOL    HW210521   2.150   6.378   3.708
 3208SOL     OW10522   0.012   3.716   6.729
 3208SOL    HW110523   0.045   3.801   6.689
 3208SOL    HW210524   0.019   3.642   6.662
 3209SOL     OW10525   4.864   0.106   5.685
 3209SOL    HW110526   4.903   0.196   5.665
 3209SOL    HW210527   4.848   0.098   5.784
 3210SOL     OW10528   5.102   5.156   1.979
 3210SOL    HW110529   5.129   5.196   2.066
 3210SOL    HW210530   5.077   5.060   1.992
 3211SOL     OW10531   2.509   6.515   6.770
 3211SOL    HW110532   2.566   6.563   6.704
 3211SOL    HW210533   2.445   6.579   6.812
 3212SOL     OW10534   3.399   6.645   4.176
 3212SOL    HW110535   3.350   6.622   4.092
 3212SOL    HW210536   3.484   6.592   4.181
 3213SOL     OW10537   1.434   0.550   5.747
 3213SOL    HW110538   1.426   0.490   5.667
 3213SOL    HW210539   1.409   0.500   5.829
 3214SOL     OW10540   3.243   0.727   2.997
 3214SOL    HW110541   3.189   0.800   3.037
 3214SOL    HW210542   3.238   0.732   2.897
 3215SOL     OW10543   2.047   3.017   2.086
 3215SOL    HW110544   2.072   2.928   2.049
 3215SOL    HW210545   2.105   3.088   2.045
 3216SOL     OW10546   6.077   4.756   0.486
 3216SOL    HW110547   6.035   4.845   0.504
 3216SOL    HW210548   6.176   4.763   0.496
 3217SOL     OW10549   6.586   6.257   3.664
 3217SOL    HW110550   6.506   6.241   3.606
 3217SOL    HW210551   6.615   6.171   3.705
 3218SOL     OW10552   5.984   1.263   3.562
 3218SOL    HW110553   6.004   1.177   3.513
 3218SOL    HW210554   5.885   1.273   3.573
 3219SOL     OW10555   5.426   1.954   4.183
 3219SOL    HW110556   5.452   1.996   4.270
 3219SOL    HW210557   5.367   1.875   4.200
 3220SOL     OW10558   6.819   3.612   5.392
 3220SOL    HW110559   6.889   3.642   5.457
 3220SOL    HW210560   6.849   3.634   5.299
 3221SOL     OW10561   4.060   1.216   2.017
 3221SOL    HW110562   4.111   1.258   1.942
 3221SOL    HW210563   4.035   1.286   2.084
 3222SOL     OW10564   3.085   0.810   3.849
 3222SOL    HW110565   3.001   0.756   3.859
 3222SOL    HW210566   3.069   0.903   3.883
 3223SOL     OW10567   1.717   5.800   0.674
 3223SOL    HW110568   1.712   5.808   0.774
 3223SOL    HW210569   1.739   5.889   0.634
 3224SOL     OW10570   4.671   2.585   4.128
 3224SOL    HW110571   4.572   2.578   4.138
 3224SOL    HW210572   4.707   2.645   4.200
 3225SOL     OW10573   4.327   1.308   4.562
 3225SOL    HW110574   4.275   1.365   4.498
 3225SOL    HW210575   4.416   1.285   4.521
 3226SOL     OW10576   5.967   1.086   0.425
 3226SOL    HW110577   5.935   1.027   0.351
 3226SOL    HW210578   6.049   1.134   0.396
 3227SOL     OW10579   5.983   4.426   5.621
 3227SOL    HW110580   5.999   4.351   5.685
 3227SOL    HW210581   5.911   4.485   5.656
 3228SOL     OW10582   2.184   4.452   0.449
 3228SOL    HW110583   2.095   4.419   0.481
 3228SOL    HW210584   2.227   4.506   0.521
 3229SOL     OW10585   1.437   1.280   1.541
 3229SOL    HW110586   1.342   1.252   1.554
 3229SOL    HW210587   1.496   1.199   1.540
 3230SOL     OW10588   3.129   6.223   4.973
 3230SOL    HW110589   3.156   6.278   4.894
 3230SOL    HW210590   3.029   6.224   4.981
 3231SOL     OW10591   2.558   2.470   2.633
 3231SOL    HW110592   2.541   2.396   2.698
 3231SOL    HW210593   2.529   2.557   2.673
 3232SOL     OW10594   2.785   4.718   3.297
 3232SOL    HW110595   2.706   4.719   3.236
 3232SOL    HW210596   2.767   4.655   3.373
 3233SOL     OW10597   2.953   0.218   6.116
 3233SOL    HW110598   2.940   0.210   6.214
 3233SOL    HW210599   2.994   0.134   6.081
 3234SOL     OW10600   3.419   3.654   0.837
 3234SOL    HW110601   3.378   3.591   0.904
 3234SOL    HW210602   3.488   3.710   0.881
 3235SOL     OW10603   0.092   1.638   2.615
 3235SOL    HW110604   0.096   1.734   2.641
 3235SOL    HW210605   0.061   1.631   2.520
 3236SOL     OW10606   5.691   0.009   0.159
 3236SOL    HW110607   5.641   0.077   0.213
 3236SOL    HW210608   5.784   7.015   0.194
 3237SOL     OW10609   6.120   1.056   5.603
 3237SOL    HW110610   6.202   1.026   5.553
 3237SOL    HW210611   6.076   1.130   5.553
 3238SOL     OW10612   0.293   5.174   0.925
 3238SOL    HW110613   0.258   5.254   0.974
 3238SOL    HW210614   0.229   5.098   0.937
 3239SOL     OW10615   6.347   0.228   5.236
 3239SOL    HW110616   6.308   0.256   5.148
 3239SOL    HW210617   6.310   0.139   5.262
 3240SOL     OW10618   0.976   1.806   1.908
 3240SOL    HW110619   0.907   1.737   1.884
 3240SOL    HW210620   1.063   1.760   1.926
 3241SOL     OW10621   0.241   2.664   5.914
 3241SOL    HW110622   0.330   2.672   5.959
 3241SOL    HW210623   0.172   2.714   5.967
 3242SOL     OW10624   0.248   4.800   5.279
 3242SOL    HW110625   0.227   4.732   5.208
 3242SOL    HW210626   0.347   4.814   5.283
 3243SOL     OW10627   5.823   5.718   4.472
 3243SOL    HW110628   5.846   5.806   4.431
 3243SOL    HW210629   5.725   5.714   4.488
 3244SOL     OW10630   4.596   0.012   6.832
 3244SOL    HW110631   4.522   0.075   6.808
 3244SOL    HW210632   4.573   6.979   6.916
 3245SOL     OW10633   3.146   5.915   4.130
 3245SOL    HW110634   3.093   5.830   4.130
 3245SOL    HW210635   3.083   5.993   4.124
 3246SOL     OW10636   6.742   5.699   3.296
 3246SOL    HW110637   6.738   5.603   3.322
 3246SOL    HW210638   6.836   5.725   3.275
 3247SOL     OW10639   1.955   4.182   4.086
 3247SOL    HW110640   1.879   4.179   4.022
 3247SOL    HW210641   1.933   4.127   4.166
 3248SOL     OW10642   6.298   2.710   3.361
 3248SOL    HW110643   6.320   2.726   3.265
 3248SOL    HW210644   6.383   2.707   3.414
 3249SOL     OW10645   3.976   3.918   4.436
 3249SOL    HW110646   3.951   3.959   4.524
 3249SOL    HW210647   4.012   3.826   4.451
 3250SOL     OW10648   4.609   6.445   3.875
 3250SOL    HW110649   4.525   6.498   3.877
 3250SOL    HW210650   4.587   6.347   3.873
 3251SOL     OW10651   2.639   2.044   2.495
 3251SOL    HW110652   2.651   1.985   2.575
 3251SOL    HW210653   2.658   2.139   2.522
 3252SOL     OW10654   1.951   1.771   2.741
 3252SOL    HW110655   1.916   1.713   2.668
 3252SOL    HW210656   1.892   1.851   2.752
 3253SOL     OW10657   6.571   4.024   0.816
 3253SOL    HW110658   6.563   4.124   0.807
 3253SOL    HW210659   6.593   4.001   0.911
 3254SOL     OW10660   6.197   6.626   0.479
 3254SOL    HW110661   6.213   6.648   0.382
 3254SOL    HW210662   6.283   6.597   0.521
 3255SOL     OW10663   3.622   5.441   2.438
 3255SOL    HW110664   3.705   5.480   2.479
 3255SOL    HW210665   3.647   5.388   2.357
 3256SOL     OW10666   5.569   2.460   1.725
 3256SOL    HW110667   5.480   2.417   1.707
 3256SOL    HW210668   5.612   2.484   1.638
 3257SOL     OW10669   2.349   1.346   3.143
 3257SOL    HW110670   2.266   1.392   3.112
 3257SOL    HW210671   2.428   1.408   3.133
 3258SOL     OW10672   1.014   5.321   3.886
 3258SOL    HW110673   0.972   5.388   3.824
 3258SOL    HW210674   0.948   5.299   3.958
 3259SOL     OW10675   5.578   5.239   4.059
 3259SOL    HW110676   5.552   5.289   3.977
 3259SOL    HW210677   5.620   5.302   4.124
 3260SOL     OW10678   1.599   4.530   3.373
 3260SOL    HW110679   1.648   4.614   3.351
 3260SOL    HW210680   1.665   4.459   3.397
 3261SOL     OW10681   6.065   6.750   4.035
 3261SOL    HW110682   6.158   6.736   4.067
 3261SOL    HW210683   6.007   6.674   4.066
 3262SOL     OW10684   2.939   2.220   3.120
 3262SOL    HW110685   3.002   2.216   3.043
 3262SOL    HW210686   2.875   2.296   3.108
 3263SOL     OW10687   6.032   0.306   1.614
 3263SOL    HW110688   6.082   0.381   1.658
 3263SOL    HW210689   5.962   0.344   1.553
 3264SOL     OW10690   1.170   4.660   6.486
 3264SOL    HW110691   1.169   4.564   6.514
 3264SOL    HW210692   1.104   4.674   6.413
 3265SOL     OW10693   0.374   5.863   5.936
 3265SOL    HW110694   0.346   5.825   6.024
 3265SOL    HW210695   0.346   5.801   5.863
 3266SOL     OW10696   3.428   4.650   6.268
 3266SOL    HW110697   3.413   4.749   6.274
 3266SOL    HW210698   3.455   4.627   6.174
 3267SOL     OW10699   3.421   0.293   1.015
 3267SOL    HW110700   3.397   0.373   0.959
 3267SOL    HW210701   3.416   0.318   1.112
 3268SOL     OW10702   5.491   4.328   1.784
 3268SOL    HW110703   5.481   4.365   1.876
 3268SOL    HW210704   5.418   4.364   1.726
 3269SOL     OW10705   2.209   4.893   1.222
 3269SOL    HW110706   2.291   4.836   1.230
 3269SOL    HW210707   2.162   4.896   1.310
 3270SOL     OW10708   1.411   3.356   6.270
 3270SOL    HW110709   1.462   3.399   6.345
 3270SOL    HW210710   1.440   3.260   6.262
 3271SOL     OW10711   1.107   3.532   1.536
 3271SOL    HW110712   1.177   3.583   1.586
 3271SOL    HW210713   1.144   3.502   1.448
 3272SOL     OW10714   4.113   6.957   1.243
 3272SOL    HW110715   4.018   6.988   1.236
 3272SOL    HW210716   4.115   6.864   1.282
 3273SOL     OW10717   3.917   3.753   6.577
 3273SOL    HW110718   3.898   3.803   6.661
 3273SOL    HW210719   3.947   3.661   6.599
 3274SOL     OW10720   4.430   0.309   1.929
 3274SOL    HW110721   4.419   0.323   1.830
 3274SOL    HW210722   4.451   0.213   1.947
 3275SOL     OW10723   5.510   0.560   2.119
 3275SOL    HW110724   5.413   0.535   2.131
 3275SOL    HW210725   5.516   0.648   2.072
 3276SOL     OW10726   5.574   5.500   0.451
 3276SOL    HW110727   5.646   5.474   0.515
 3276SOL    HW210728   5.514   5.568   0.494
 3277SOL     OW10729   3.536   1.335   2.406
 3277SOL    HW110730   3.477   1.400   2.357
 3277SOL    HW210731   3.559   1.372   2.496
 3278SOL     OW10732   5.261   1.345   6.817
 3278SOL    HW110733   5.247   1.360   6.719
 3278SOL    HW210734   5.174   1.323   6.860
 3279SOL     OW10735   4.332   0.503   2.142
 3279SOL    HW110736   4.372   0.445   2.213
 3279SOL    HW210737   4.340   0.458   2.054
 3280SOL     OW10738   0.066   2.767   4.021
 3280SOL    HW110739   0.113   2.804   4.101
 3280SOL    HW210740   0.111   2.682   3.992
 3281SOL     OW10741   5.738   2.339   1.934
 3281SOL    HW110742   5.684   2.386   1.864
 3281SOL    HW210743   5.808   2.401   1.969
 3282SOL     OW10744   6.269   4.436   5.131
 3282SOL    HW110745   6.314   4.498   5.195
 3282SOL    HW210746   6.303   4.343   5.144
 3283SOL     OW10747   2.720   1.630   0.621
 3283SOL    HW110748   2.637   1.600   0.668
 3283SOL    HW210749   2.716   1.603   0.525
 3284SOL     OW10750   2.150   0.536   5.095
 3284SOL    HW110751   2.209   0.588   5.156
 3284SOL    HW210752   2.200   0.513   5.012
 3285SOL     OW10753   3.815   2.062   4.011
 3285SOL    HW110754   3.870   2.048   3.928
 3285SOL    HW210755   3.750   1.986   4.021
 3286SOL     OW10756   1.552   3.428   2.834
 3286SOL    HW110757   1.492   3.428   2.914
 3286SOL    HW210758   1.636   3.379   2.855
 3287SOL     OW10759   2.440   1.255   0.597
 3287SOL    HW110760   2.368   1.185   0.595
 3287SOL    HW210761   2.502   1.241   0.521
 3288SOL     OW10762   3.091   5.350   1.768
 3288SOL    HW110763   3.139   5.403   1.698
 3288SOL    HW210764   3.124   5.255   1.767
 3289SOL     OW10765   4.950   0.410   0.050
 3289SOL    HW110766   4.957   0.438   0.146
 3289SOL    HW210767   4.873   0.348   0.039
 3290SOL     OW10768   0.844   5.154   6.679
 3290SOL    HW110769   0.773   5.085   6.688
 3290SOL    HW210770   0.860   5.198   6.767
 3291SOL     OW10771   5.002   6.193   5.436
 3291SOL    HW110772   5.032   6.277   5.482
 3291SOL    HW210773   5.044   6.187   5.346
 3292SOL     OW10774   0.074   3.375   0.544
 3292SOL    HW110775   0.091   3.279   0.569
 3292SOL    HW210776   7.006   3.380   0.489
 3293SOL     OW10777   6.613   4.462   2.483
 3293SOL    HW110778   6.694   4.473   2.540
 3293SOL    HW210779   6.536   4.431   2.539
 3294SOL     OW10780   4.001   2.814   5.530
 3294SOL    HW110781   4.056   2.866   5.595
 3294SOL    HW210782   4.058   2.744   5.486
 3295SOL     OW10783   1.504   3.012   3.597
 3295SOL    HW110784   1.466   2.941   3.538
 3295SOL    HW210785   1.442   3.027   3.674
 3296SOL     OW10786   2.678   0.719   6.839
 3296SOL    HW110787   2.701   0.637   6.891
 3296SOL    HW210788   2.634   0.693   6.753
 3297SOL     OW10789   3.618   0.653   5.610
 3297SOL    HW110790   3.704   0.604   5.624
 3297SOL    HW210791   3.629   0.748   5.638
 3298SOL     OW10792   3.560   4.215   5.998
 3298SOL    HW110793   3.596   4.122   6.004
 3298SOL    HW210794   3.496   4.231   6.074
 3299SOL     OW10795   2.553   0.021   4.368
 3299SOL    HW110796   2.480   6.983   4.327
 3299SOL    HW210797   2.516   0.076   4.444
 3300SOL     OW10798   1.582   0.959   3.639
 3300SOL    HW110799   1.619   1.046   3.606
 3300SOL    HW210800   1.597   0.952   3.737
 3301SOL     OW10801   1.423   1.227   2.298
 3301SOL    HW110802   1.476   1.147   2.325
 3301SOL    HW210803   1.378   1.266   2.378
 3302SOL     OW10804   1.393   4.475   5.140
 3302SOL    HW110805   1.338   4.504   5.062
 3302SOL    HW210806   1.455   4.402   5.112
 3303SOL     OW10807   3.847   3.599   0.564
 3303SOL    HW110808   3.848   3.500   0.574
 3303SOL    HW210809   3.804   3.641   0.644
 3304SOL     OW10810   2.203   3.974   0.546
 3304SOL    HW110811   2.165   3.950   0.635
 3304SOL    HW210812   2.135   3.956   0.475
 3305SOL     OW10813   2.909   2.860   6.844
 3305SOL    HW110814   2.864   2.943   6.874
 3305SOL    HW210815   2.959   2.820   6.921
 3306SOL     OW10816   2.963   0.142   1.155
 3306SOL    HW110817   2.912   0.082   1.217
 3306SOL    HW210818   2.923   0.234   1.159
 3307SOL     OW10819   2.400   5.513   4.897
 3307SOL    HW110820   2.348   5.586   4.942
 3307SOL    HW210821   2.366   5.501   4.804
 3308SOL     OW10822   4.653   5.379   1.208
 3308SOL    HW110823   4.590   5.353   1.135
 3308SOL    HW210824   4.726   5.311   1.214
 3309SOL     OW10825   5.793   3.913   3.685
 3309SOL    HW110826   5.819   3.996   3.733
 3309SOL    HW210827   5.700   3.885   3.712
 3310SOL     OW10828   6.505   4.251   6.528
 3310SOL    HW110829   6.575   4.305   6.481
 3310SOL    HW210830   6.522   4.154   6.513
 3311SOL     OW10831   2.104   2.580   6.816
 3311SOL    HW110832   2.132   2.676   6.808
 3311SOL    HW210833   2.186   2.522   6.813
 3312SOL     OW10834   4.762   3.370   0.321
 3312SOL    HW110835   4.732   3.280   0.353
 3312SOL    HW210836   4.716   3.441   0.375
 3313SOL     OW10837   0.570   0.135   3.966
 3313SOL    HW110838   0.645   0.081   4.005
 3313SOL    HW210839   0.599   0.230   3.957
 3314SOL     OW10840   3.376   6.282   3.113
 3314SOL    HW110841   3.372   6.242   3.205
 3314SOL    HW210842   3.362   6.210   3.045
 3315SOL     OW10843   0.993   6.350   4.015
 3315SOL    HW110844   0.943   6.367   4.100
 3315SOL    HW210845   0.990   6.432   3.958
 3316SOL     OW10846   3.372   1.935   0.338
 3316SOL    HW110847   3.436   1.936   0.415
 3316SOL    HW210848   3.326   1.846   0.335
 3317SOL     OW10849   5.686   2.546   1.241
 3317SOL    HW110850   5.763   2.601   1.208
 3317SOL    HW210851   5.705   2.515   1.334
 3318SOL     OW10852   3.734   3.142   0.737
 3318SOL    HW110853   3.791   3.103   0.810
 3318SOL    HW210854   3.684   3.068   0.691
 3319SOL     OW10855   6.776   6.506   4.130
 3319SOL    HW110856   6.749   6.481   4.037
 3319SOL    HW210857   6.707   6.567   4.169
 3320SOL     OW10858   6.518   0.564   2.327
 3320SOL    HW110859   6.615   0.543   2.314
 3320SOL    HW210860   6.476   0.583   2.239
 3321SOL     OW10861   4.654   1.814   6.908
 3321SOL    HW110862   4.607   1.854   6.987
 3321SOL    HW210863   4.751   1.802   6.930
 3322SOL     OW10864   5.747   3.325   1.312
 3322SOL    HW110865   5.844   3.337   1.332
 3322SOL    HW210866   5.719   3.232   1.334
 3323SOL     OW10867   1.424   0.955   2.118
 3323SOL    HW110868   1.417   0.856   2.135
 3323SOL    HW210869   1.494   0.994   2.179
 3324SOL     OW10870   6.102   5.039   5.681
 3324SOL    HW110871   6.165   5.049   5.604
 3324SOL    HW210872   6.094   5.127   5.729
 3325SOL     OW10873   2.860   5.447   5.967
 3325SOL    HW110874   2.848   5.425   5.870
 3325SOL    HW210875   2.871   5.362   6.019
 3326SOL     OW10876   3.484   2.054   2.022
 3326SOL    HW110877   3.544   2.008   1.956
 3326SOL    HW210878   3.520   2.145   2.041
 3327SOL     OW10879   1.922   5.780   5.909
 3327SOL    HW110880   1.908   5.810   5.815
 3327SOL    HW210881   1.975   5.848   5.959
 3328SOL     OW10882   4.728   3.059   5.247
 3328SOL    HW110883   4.781   3.144   5.240
 3328SOL    HW210884   4.784   2.988   5.289
 3329SOL     OW10885   0.163   6.299   5.712
 3329SOL    HW110886   0.234   6.366   5.733
 3329SOL    HW210887   0.167   6.224   5.778
 3330SOL     OW10888   6.844   2.876   2.851
 3330SOL    HW110889   6.823   2.814   2.927
 3330SOL    HW210890   6.770   2.943   2.841
 3331SOL     OW10891   2.131   2.825   0.341
 3331SOL    HW110892   2.120   2.768   0.422
 3331SOL    HW210893   2.044   2.827   0.291
 3332SOL     OW10894   0.442   3.867   1.639
 3332SOL    HW110895   0.494   3.934   1.691
 3332SOL    HW210896   0.490   3.847   1.553
 3333SOL     OW10897   3.224   6.049   5.572
 3333SOL    HW110898   3.124   6.040   5.570
 3333SOL    HW210899   3.265   5.960   5.555
 3334SOL     OW10900   1.412   2.890   0.925
 3334SOL    HW110901   1.453   2.818   0.980
 3334SOL    HW210902   1.474   2.913   0.850
 3335SOL     OW10903   5.339   4.750   4.579
 3335SOL    HW110904   5.329   4.801   4.664
 3335SOL    HW210905   5.429   4.768   4.539
 3336SOL     OW10906   3.516   6.633   5.487
 3336SOL    HW110907   3.509   6.586   5.400
 3336SOL    HW210908   3.466   6.720   5.483
 3337SOL     OW10909   3.775   1.648   0.706
 3337SOL    HW110910   3.771   1.660   0.805
 3337SOL    HW210911   3.706   1.581   0.678
 3338SOL     OW10912   7.006   5.055   6.849
 3338SOL    HW110913   6.956   5.106   6.919
 3338SOL    HW210914   6.952   5.050   6.765
 3339SOL     OW10915   0.720   4.780   6.172
 3339SOL    HW110916   0.752   4.831   6.252
 3339SOL    HW210917   0.648   4.832   6.126
 3340SOL     OW10918   4.217   0.258   1.724
 3340SOL    HW110919   4.149   0.189   1.749
 3340SOL    HW210920   4.191   0.346   1.761
 3341SOL     OW10921   0.927   0.323   0.457
 3341SOL    HW110922   0.958   0.250   0.517
 3341SOL    HW210923   0.832   0.345   0.478
 3342SOL     OW10924   2.512   0.337   5.113
 3342SOL    HW110925   2.589   0.274   5.118
 3342SOL    HW210926   2.432   0.289   5.077
 3343SOL     OW10927   0.022   2.553   1.355
 3343SOL    HW110928   0.008   2.463   1.315
 3343SOL    HW210929   0.066   2.613   1.288
 3344SOL     OW10930   1.277   2.720   6.438
 3344SOL    HW110931   1.297   2.751   6.531
 3344SOL    HW210932   1.182   2.741   6.415
 3345SOL     OW10933   2.636   3.297   5.785
 3345SOL    HW110934   2.573   3.369   5.758
 3345SOL    HW210935   2.594   3.240   5.855
 3346SOL     OW10936   1.970   6.084   2.436
 3346SOL    HW110937   1.968   5.998   2.385
 3346SOL    HW210938   2.047   6.139   2.404
 3347SOL     OW10939   6.169   3.794   3.741
 3347SOL    HW110940   6.101   3.724   3.718
 3347SOL    HW210941   6.126   3.867   3.794
 3348SOL     OW10942   3.499   3.837   3.342
 3348SOL    HW110943   3.571   3.768   3.344
 3348SOL    HW210944   3.410   3.793   3.346
 3349SOL     OW10945   4.982   3.009   6.663
 3349SOL    HW110946   5.056   3.021   6.729
 3349SOL    HW210947   5.011   3.045   6.574
 3350SOL     OW10948   2.048   2.783   1.383
 3350SOL    HW110949   2.084   2.692   1.365
 3350SOL    HW210950   2.006   2.820   1.300
 3351SOL     OW10951   5.756   2.878   0.615
 3351SOL    HW110952   5.838   2.828   0.643
 3351SOL    HW210953   5.700   2.820   0.556
 3352SOL     OW10954   6.944   3.425   0.125
 3352SOL    HW110955   6.872   3.414   0.055
 3352SOL    HW210956   6.986   3.336   0.143
 3353SOL     OW10957   1.461   6.627   5.726
 3353SOL    HW110958   1.559   6.645   5.723
 3353SOL    HW210959   1.438   6.550   5.666
 3354SOL     OW10960   0.664   0.607   1.891
 3354SOL    HW110961   0.755   0.582   1.856
 3354SOL    HW210962   0.666   0.606   1.991
 3355SOL     OW10963   6.050   0.848   2.792
 3355SOL    HW110964   5.999   0.925   2.754
 3355SOL    HW210965   6.092   0.876   2.878
 3356SOL     OW10966   1.218   3.546   6.587
 3356SOL    HW110967   1.193   3.449   6.581
 3356SOL    HW210968   1.182   3.584   6.672
 3357SOL     OW10969   2.675   5.316   2.349
 3357SOL    HW110970   2.582   5.353   2.343
 3357SOL    HW210971   2.684   5.239   2.286
 3358SOL     OW10972   6.646   4.344   3.290
 3358SOL    HW110973   6.725   4.286   3.312
 3358SOL    HW210974   6.579   4.292   3.238
 3359SOL     OW10975   2.180   1.705   1.795
 3359SOL    HW110976   2.195   1.606   1.795
 3359SOL    HW210977   2.086   1.724   1.766
 3360SOL     OW10978   2.621   0.861   6.104
 3360SOL    HW110979   2.624   0.876   6.006
 3360SOL    HW210980   2.688   0.791   6.129
 3361SOL     OW10981   2.970   1.198   2.959
 3361SOL    HW110982   2.890   1.239   3.003
 3361SOL    HW210983   2.996   1.115   3.008
 3362SOL     OW10984   3.020   1.716   4.627
 3362SOL    HW110985   3.048   1.796   4.681
 3362SOL    HW210986   2.927   1.691   4.653
 3363SOL     OW10987   6.727   0.787   6.748
 3363SOL    HW110988   6.699   0.707   6.800
 3363SOL    HW210989   6.697   0.777   6.653
 3364SOL     OW10990   2.195   5.237   5.190
 3364SOL    HW110991   2.267   5.295   5.154
 3364SOL    HW210992   2.166   5.172   5.119
 3365SOL     OW10993   6.328   2.944   5.245
 3365SOL    HW110994   6.266   2.876   5.206
 3365SOL    HW210995   6.356   3.009   5.174
 3366SOL     OW10996   5.643   0.802   0.282
 3366SOL    HW110997   5.607   0.726   0.337
 3366SOL    HW210998   5.591   0.807   0.196
 3367SOL     OW10999   2.057   0.011   2.718
 3367SOL    HW111000   2.155   0.002   2.735
 3367SOL    HW211001   2.009   6.949   2.759
 3368SOL     OW11002   6.357   1.356   4.821
 3368SOL    HW111003   6.348   1.273   4.765
 3368SOL    HW211004   6.270   1.374   4.866
 3369SOL     OW11005   3.694   5.814   6.393
 3369SOL    HW111006   3.737   5.853   6.475
 3369SOL    HW211007   3.605   5.857   6.379
 3370SOL     OW11008   5.836   0.031   5.084
 3370SOL    HW111009   5.815   0.017   5.181
 3370SOL    HW211010   5.911   6.986   5.057
 3371SOL     OW11011   0.044   4.777   1.232
 3371SOL    HW111012   0.013   4.844   1.164
 3371SOL    HW211013   0.144   4.770   1.229
 3372SOL     OW11014   1.148   2.324   2.892
 3372SOL    HW111015   1.116   2.393   2.956
 3372SOL    HW211016   1.146   2.234   2.936
 3373SOL     OW11017   0.495   2.654   6.427
 3373SOL    HW111018   0.415   2.668   6.485
 3373SOL    HW211019   0.550   2.738   6.425
 3374SOL     OW11020   3.614   6.380   5.007
 3374SOL    HW111021   3.596   6.283   4.989
 3374SOL    HW211022   3.562   6.436   4.942
 3375SOL     OW11023   3.391   3.862   4.777
 3375SOL    HW111024   3.307   3.915   4.789
 3375SOL    HW211025   3.441   3.895   4.698
 3376SOL     OW11026   3.439   3.234   1.753
 3376SOL    HW111027   3.375   3.311   1.755
 3376SOL    HW211028   3.388   3.148   1.760
 3377SOL     OW11029   3.026   5.587   5.539
 3377SOL    HW111030   2.994   5.497   5.508
 3377SOL    HW211031   3.115   5.577   5.583
 3378SOL     OW11032   0.363   1.344   0.653
 3378SOL    HW111033   0.366   1.245   0.665
 3378SOL    HW211034   0.270   1.372   0.630
 3379SOL     OW11035   5.918   4.997   5.407
 3379SOL    HW111036   6.008   5.041   5.405
 3379SOL    HW211037   5.848   5.065   5.430
 3380SOL     OW11038   0.527   3.628   5.319
 3380SOL    HW111039   0.445   3.658   5.368
 3380SOL    HW211040   0.511   3.636   5.220
 3381SOL     OW11041   3.263   2.459   1.634
 3381SOL    HW111042   3.249   2.478   1.536
 3381SOL    HW211043   3.359   2.433   1.649
 3382SOL     OW11044   0.463   6.567   0.239
 3382SOL    HW111045   0.536   6.589   0.303
 3382SOL    HW211046   0.412   6.650   0.217
 3383SOL     OW11047   0.687   3.847   1.463
 3383SOL    HW111048   0.740   3.780   1.515
 3383SOL    HW211049   0.707   3.837   1.365
 3384SOL     OW11050   3.349   3.211   3.920
 3384SOL    HW111051   3.328   3.114   3.930
 3384SOL    HW211052   3.418   3.224   3.849
 3385SOL     OW11053   6.840   3.998   4.022
 3385SOL    HW111054   6.860   3.964   3.930
 3385SOL    HW211055   6.752   3.962   4.053
 3386SOL     OW11056   5.693   4.292   4.365
 3386SOL    HW111057   5.751   4.361   4.323
 3386SOL    HW211058   5.722   4.201   4.334
 3387SOL     OW11059   3.412   1.845   2.671
 3387SOL    HW111060   3.402   1.829   2.769
 3387SOL    HW211061   3.505   1.820   2.642
 3388SOL     OW11062   5.375   2.292   1.406
 3388SOL    HW111063   5.442   2.311   1.334
 3388SOL    HW211064   5.334   2.377   1.437
 3389SOL     OW11065   4.262   5.833   2.811
 3389SOL    HW111066   4.311   5.917   2.792
 3389SOL    HW211067   4.165   5.845   2.791
 3390SOL     OW11068   4.614   1.579   5.302
 3390SOL    HW111069   4.518   1.605   5.298
 3390SOL    HW211070   4.651   1.571   5.209
 3391SOL     OW11071   3.505   2.039   3.974
 3391SOL    HW111072   3.511   2.082   4.064
 3391SOL    HW211073   3.420   2.067   3.929
 3392SOL     OW11074   5.124   6.125   3.296
 3392SOL    HW111075   5.180   6.204   3.323
 3392SOL    HW211076   5.169   6.041   3.325
 3393SOL     OW11077   0.062   0.092   0.180
 3393SOL    HW111078   0.030   0.179   0.141
 3393SOL    HW211079   0.161   0.094   0.190
 3394SOL     OW11080   5.353   1.203   2.566
 3394SOL    HW111081   5.300   1.118   2.560
 3394SOL    HW211082   5.346   1.240   2.659
 3395SOL     OW11083   1.423   3.773   5.264
 3395SOL    HW111084   1.500   3.745   5.205
 3395SOL    HW211085   1.341   3.722   5.238
 3396SOL     OW11086   6.512   3.738   4.274
 3396SOL    HW111087   6.415   3.763   4.269
 3396SOL    HW211088   6.522   3.639   4.261
 3397SOL     OW11089   3.832   5.606   6.129
 3397SOL    HW111090   3.820   5.530   6.065
 3397SOL    HW211091   3.802   5.579   6.220
 3398SOL     OW11092   0.604   0.670   3.119
 3398SOL    HW111093   0.590   0.676   3.021
 3398SOL    HW211094   0.702   0.665   3.139
 3399SOL     OW11095   4.532   5.873   4.710
 3399SOL    HW111096   4.477   5.943   4.757
 3399SOL    HW211097   4.477   5.791   4.697
 3400SOL     OW11098   5.271   2.540   0.328
 3400SOL    HW111099   5.207   2.480   0.279
 3400SOL    HW211100   5.335   2.580   0.262
 3401SOL     OW11101   6.719   4.198   6.147
 3401SOL    HW111102   6.695   4.102   6.161
 3401SOL    HW211103   6.812   4.214   6.178
 3402SOL     OW11104   5.393   5.206   1.915
 3402SOL    HW111105   5.420   5.198   2.011
 3402SOL    HW211106   5.314   5.148   1.897
 3403SOL     OW11107   3.810   1.583   5.243
 3403SOL    HW111108   3.792   1.564   5.146
 3403SOL    HW211109   3.885   1.525   5.275
 3404SOL     OW11110   4.630   6.477   1.564
 3404SOL    HW111111   4.661   6.446   1.654
 3404SOL    HW211112   4.601   6.572   1.570
 3405SOL     OW11113   5.958   4.536   0.033
 3405SOL    HW111114   5.888   4.559   0.101
 3405SOL    HW211115   6.022   4.612   0.025
 3406SOL     OW11116   0.988   3.940   1.452
 3406SOL    HW111117   1.071   3.930   1.397
 3406SOL    HW211118   1.006   4.004   1.527
 3407SOL     OW11119   1.144   4.989   2.875
 3407SOL    HW111120   1.144   5.016   2.971
 3407SOL    HW211121   1.190   4.901   2.864
 3408SOL     OW11122   5.194   3.568   3.016
 3408SOL    HW111123   5.135   3.648   3.004
 3408SOL    HW211124   5.155   3.508   3.086
 3409SOL     OW11125   2.875   1.069   6.032
 3409SOL    HW111126   2.793   1.020   6.003
 3409SOL    HW211127   2.879   1.072   6.132
 3410SOL     OW11128   6.885   1.973   0.316
 3410SOL    HW111129   6.955   1.998   0.249
 3410SOL    HW211130   6.880   2.042   0.388
 3411SOL     OW11131   4.736   2.002   2.259
 3411SOL    HW111132   4.649   1.957   2.243
 3411SOL    HW211133   4.798   1.984   2.183
 3412SOL     OW11134   4.497   5.642   6.796
 3412SOL    HW111135   4.547   5.610   6.715
 3412SOL    HW211136   4.439   5.568   6.830
 3413SOL     OW11137   5.023   1.242   2.403
 3413SOL    HW111138   4.997   1.211   2.312
 3413SOL    HW211139   5.046   1.339   2.400
 3414SOL     OW11140   3.885   0.583   5.645
 3414SOL    HW111141   3.908   0.492   5.679
 3414SOL    HW211142   3.951   0.610   5.574
 3415SOL     OW11143   1.039   5.202   4.355
 3415SOL    HW111144   1.103   5.253   4.298
 3415SOL    HW211145   0.946   5.238   4.341
 3416SOL     OW11146   1.950   4.389   6.027
 3416SOL    HW111147   1.964   4.430   5.937
 3416SOL    HW211148   1.859   4.346   6.030
 3417SOL     OW11149   5.250   0.596   1.238
 3417SOL    HW111150   5.167   0.602   1.293
 3417SOL    HW211151   5.230   0.620   1.143
 3418SOL     OW11152   3.301   2.829   6.354
 3418SOL    HW111153   3.224   2.825   6.418
 3418SOL    HW211154   3.294   2.911   6.298
 3419SOL     OW11155   4.874   3.464   6.461
 3419SOL    HW111156   4.964   3.491   6.496
 3419SOL    HW211157   4.880   3.371   6.424
 3420SOL     OW11158   4.273   1.625   4.067
 3420SOL    HW111159   4.202   1.689   4.036
 3420SOL    HW211160   4.348   1.623   4.001
 3421SOL     OW11161   0.093   6.435   2.747
 3421SOL    HW111162   0.189   6.414   2.728
 3421SOL    HW211163   0.034   6.367   2.702
 3422SOL     OW11164   3.151   2.134   2.805
 3422SOL    HW111165   3.246   2.163   2.793
 3422SOL    HW211166   3.127   2.067   2.735
 3423SOL     OW11167   3.243   0.636   1.498
 3423SOL    HW111168   3.264   0.554   1.551
 3423SOL    HW211169   3.220   0.711   1.561
 3424SOL     OW11170   4.163   1.277   1.590
 3424SOL    HW111171   4.216   1.205   1.636
 3424SOL    HW211172   4.080   1.296   1.642
 3425SOL     OW11173   4.283   4.097   1.709
 3425SOL    HW111174   4.346   4.157   1.758
 3425SOL    HW211175   4.325   4.007   1.697
 3426SOL     OW11176   4.670   3.787   1.096
 3426SOL    HW111177   4.576   3.766   1.123
 3426SOL    HW211178   4.685   3.885   1.101
 3427SOL     OW11179   0.690   1.727   0.996
 3427SOL    HW111180   0.613   1.790   1.011
 3427SOL    HW211181   0.731   1.745   0.906
 3428SOL     OW11182   4.329   4.817   3.123
 3428SOL    HW111183   4.292   4.906   3.096
 3428SOL    HW211184   4.421   4.828   3.160
 3429SOL     OW11185   0.446   3.030   0.581
 3429SOL    HW111186   0.509   3.069   0.514
 3429SOL    HW211187   0.497   3.003   0.663
 3430SOL     OW11188   1.403   5.353   6.503
 3430SOL    HW111189   1.314   5.398   6.495
 3430SOL    HW211190   1.390   5.261   6.539
 3431SOL     OW11191   1.757   6.175   6.658
 3431SOL    HW111192   1.839   6.118   6.666
 3431SOL    HW211193   1.685   6.124   6.611
 3432SOL     OW11194   3.393   1.763   6.758
 3432SOL    HW111195   3.387   1.676   6.807
 3432SOL    HW211196   3.443   1.750   6.673
 3433SOL     OW11197   4.842   0.862   4.647
 3433SOL    HW111198   4.862   0.937   4.711
 3433SOL    HW211199   4.924   0.840   4.595
 3434SOL     OW11200   4.471   1.878   3.209
 3434SOL    HW111201   4.508   1.884   3.116
 3434SOL    HW211202   4.547   1.877   3.274
 3435SOL     OW11203   0.986   1.265   0.188
 3435SOL    HW111204   1.044   1.196   0.232
 3435SOL    HW211205   0.938   1.223   0.111
 3436SOL     OW11206   4.461   6.755   2.791
 3436SOL    HW111207   4.435   6.662   2.768
 3436SOL    HW211208   4.378   6.812   2.797
 3437SOL     OW11209   4.418   0.715   6.214
 3437SOL    HW111210   4.443   0.701   6.119
 3437SOL    HW211211   4.495   0.690   6.273
 3438SOL     OW11212   1.183   5.091   6.140
 3438SOL    HW111213   1.236   5.128   6.216
 3438SOL    HW211214   1.139   5.006   6.168
 3439SOL     OW11215   2.460   0.236   3.897
 3439SOL    HW111216   2.432   0.201   3.808
 3439SOL    HW211217   2.531   0.176   3.935
 3440SOL     OW11218   3.084   2.099   0.696
 3440SOL    HW111219   3.082   2.180   0.755
 3440SOL    HW211220   3.053   2.123   0.605
 3441SOL     OW11221   4.930   0.267   4.167
 3441SOL    HW111222   4.998   0.302   4.103
 3441SOL    HW211223   4.933   0.167   4.168
 3442SOL     OW11224   1.085   5.095   3.115
 3442SOL    HW111225   1.045   5.144   3.192
 3442SOL    HW211226   1.183   5.111   3.112
 3443SOL     OW11227   6.054   6.585   4.376
 3443SOL    HW111228   5.971   6.626   4.413
 3443SOL    HW211229   6.073   6.499   4.424
 3444SOL     OW11230   4.401   4.974   0.225
 3444SOL    HW111231   4.475   4.960   0.291
 3444SOL    HW211232   4.321   5.012   0.272
 3445SOL     OW11233   5.825   5.238   4.787
 3445SOL    HW111234   5.737   5.193   4.799
 3445SOL    HW211235   5.816   5.311   4.720
 3446SOL     OW11236   2.611   6.317   2.356
 3446SOL    HW111237   2.617   6.218   2.342
 3446SOL    HW211238   2.586   6.336   2.451
 3447SOL     OW11239   6.475   4.777   5.416
 3447SOL    HW111240   6.494   4.869   5.381
 3447SOL    HW211241   6.376   4.765   5.424
 3448SOL     OW11242   3.560   3.348   0.829
 3448SOL    HW111243   3.621   3.277   0.794
 3448SOL    HW211244   3.610   3.435   0.833
 3449SOL     OW11245   6.950   6.211   2.953
 3449SOL    HW111246   7.014   6.282   2.983
 3449SOL    HW211247   6.938   6.144   3.026
 3450SOL     OW11248   0.757   1.878   1.518
 3450SOL    HW111249   0.768   1.822   1.436
 3450SOL    HW211250   0.731   1.819   1.595
 3451SOL     OW11251   1.640   4.429   4.243
 3451SOL    HW111252   1.704   4.387   4.308
 3451SOL    HW211253   1.688   4.499   4.190
 3452SOL     OW11254   6.798   1.906   0.636
 3452SOL    HW111255   6.711   1.942   0.602
 3452SOL    HW211256   6.790   1.889   0.734
 3453SOL     OW11257   5.598   6.201   5.402
 3453SOL    HW111258   5.555   6.189   5.313
 3453SOL    HW211259   5.696   6.215   5.390
 3454SOL     OW11260   1.026   1.186   0.743
 3454SOL    HW111261   0.949   1.248   0.730
 3454SOL    HW211262   1.103   1.236   0.783
 3455SOL     OW11263   1.955   2.787   3.975
 3455SOL    HW111264   1.860   2.772   3.946
 3455SOL    HW211265   1.994   2.864   3.924
 3456SOL     OW11266   7.014   0.310   0.602
 3456SOL    HW111267   0.023   0.369   0.524
 3456SOL    HW211268   0.068   0.238   0.611
 3457SOL     OW11269   1.915   6.148   3.792
 3457SOL    HW111270   1.845   6.216   3.814
 3457SOL    HW211271   1.994   6.160   3.853
 3458SOL     OW11272   5.323   4.864   0.467
 3458SOL    HW111273   5.277   4.781   0.435
 3458SOL    HW211274   5.316   4.935   0.397
 3459SOL     OW11275   6.485   6.460   3.159
 3459SOL    HW111276   6.533   6.469   3.071
 3459SOL    HW211277   6.393   6.426   3.143
 3460SOL     OW11278   3.960   2.751   6.449
 3460SOL    HW111279   4.034   2.692   6.417
 3460SOL    HW211280   3.973   2.844   6.413
 3461SOL     OW11281   2.482   5.475   2.734
 3461SOL    HW111282   2.435   5.449   2.818
 3461SOL    HW211283   2.554   5.408   2.714
 3462SOL     OW11284   5.278   2.917   2.643
 3462SOL    HW111285   5.246   2.927   2.549
 3462SOL    HW211286   5.221   2.974   2.703
 3463SOL     OW11287   1.526   3.177   1.471
 3463SOL    HW111288   1.499   3.259   1.419
 3463SOL    HW211289   1.625   3.168   1.470
 3464SOL     OW11290   5.196   2.034   5.902
 3464SOL    HW111291   5.263   2.057   5.831
 3464SOL    HW211292   5.170   1.938   5.893
 3465SOL     OW11293   1.896   4.906   1.705
 3465SOL    HW111294   1.916   4.819   1.659
 3465SOL    HW211295   1.908   4.895   1.803
 3466SOL     OW11296   6.025   4.187   4.218
 3466SOL    HW111297   6.026   4.230   4.308
 3466SOL    HW211298   6.113   4.143   4.201
 3467SOL     OW11299   3.327   2.680   0.902
 3467SOL    HW111300   3.311   2.602   0.842
 3467SOL    HW211301   3.282   2.665   0.990
 3468SOL     OW11302   3.727   1.595   1.291
 3468SOL    HW111303   3.805   1.545   1.330
 3468SOL    HW211304   3.713   1.680   1.341
 3469SOL     OW11305   3.986   5.310   5.025
 3469SOL    HW111306   3.987   5.396   5.077
 3469SOL    HW211307   3.994   5.233   5.089
 3470SOL     OW11308   1.059   2.228   2.472
 3470SOL    HW111309   0.965   2.203   2.450
 3470SOL    HW211310   1.107   2.255   2.388
 3471SOL     OW11311   4.851   2.906   4.887
 3471SOL    HW111312   4.822   2.889   4.793
 3471SOL    HW211313   4.901   2.993   4.891
 3472SOL     OW11314   4.392   2.026   2.801
 3472SOL    HW111315   4.428   2.099   2.742
 3472SOL    HW211316   4.401   2.052   2.897
 3473SOL     OW11317   6.057   4.706   1.853
 3473SOL    HW111318   5.972   4.744   1.887
 3473SOL    HW211319   6.048   4.684   1.756
 3474SOL     OW11320   4.876   4.705   3.923
 3474SOL    HW111321   4.927   4.696   3.837
 3474SOL    HW211322   4.941   4.706   4.000
 3475SOL     OW11323   6.938   4.203   4.219
 3475SOL    HW111324   6.893   4.144   4.152
 3475SOL    HW211325   6.939   4.157   4.308
 3476SOL     OW11326   1.847   1.779   3.273
 3476SOL    HW111327   1.868   1.684   3.295
 3476SOL    HW211328   1.794   1.820   3.347
 3477SOL     OW11329   0.722   3.841   1.780
 3477SOL    HW111330   0.753   3.921   1.832
 3477SOL    HW211331   0.794   3.812   1.717
 3478SOL     OW11332   2.073   0.488   1.206
 3478SOL    HW111333   2.136   0.415   1.178
 3478SOL    HW211334   2.021   0.519   1.126
 3479SOL     OW11335   0.994   4.439   5.010
 3479SOL    HW111336   1.007   4.363   5.073
 3479SOL    HW211337   0.919   4.418   4.947
 3480SOL     OW11338   1.550   4.619   6.127
 3480SOL    HW111339   1.490   4.687   6.171
 3480SOL    HW211340   1.525   4.610   6.031
 3481SOL     OW11341   6.092   0.235   4.727
 3481SOL    HW111342   6.042   0.259   4.811
 3481SOL    HW211343   6.125   0.141   4.735
 3482SOL     OW11344   6.258   3.618   6.574
 3482SOL    HW111345   6.222   3.587   6.662
 3482SOL    HW211346   6.194   3.593   6.502
 3483SOL     OW11347   5.592   2.595   5.445
 3483SOL    HW111348   5.499   2.559   5.439
 3483SOL    HW211349   5.613   2.618   5.540
 3484SOL     OW11350   1.127   3.361   4.905
 3484SOL    HW111351   1.148   3.263   4.910
 3484SOL    HW211352   1.198   3.407   4.852
 3485SOL     OW11353   0.097   3.182   6.783
 3485SOL    HW111354   0.168   3.204   6.851
 3485SOL    HW211355   0.097   3.084   6.766
 3486SOL     OW11356   1.796   6.481   5.470
 3486SOL    HW111357   1.857   6.551   5.433
 3486SOL    HW211358   1.800   6.400   5.411
 3487SOL     OW11359   4.533   1.493   0.036
 3487SOL    HW111360   4.602   1.439   7.004
 3487SOL    HW211361   4.460   1.518   6.988
 3488SOL     OW11362   5.924   6.641   4.996
 3488SOL    HW111363   5.984   6.710   5.036
 3488SOL    HW211364   5.849   6.687   4.948
 3489SOL     OW11365   2.969   6.000   0.620
 3489SOL    HW111366   2.901   5.926   0.615
 3489SOL    HW211367   3.010   6.001   0.711
 3490SOL     OW11368   3.428   6.424   0.727
 3490SOL    HW111369   3.511   6.415   0.781
 3490SOL    HW211370   3.382   6.510   0.749
 3491SOL     OW11371   4.183   4.704   6.045
 3491SOL    HW111372   4.247   4.673   5.975
 3491SOL    HW211373   4.117   4.631   6.063
 3492SOL     OW11374   5.842   4.329   3.311
 3492SOL    HW111375   5.918   4.387   3.282
 3492SOL    HW211376   5.875   4.236   3.328
 3493SOL     OW11377   6.693   2.949   5.427
 3493SOL    HW111378   6.788   2.946   5.395
 3493SOL    HW211379   6.670   3.042   5.454
 3494SOL     OW11380   3.924   1.538   1.943
 3494SOL    HW111381   3.832   1.578   1.950
 3494SOL    HW211382   3.950   1.498   2.032
 3495SOL     OW11383   1.445   3.497   3.151
 3495SOL    HW111384   1.544   3.499   3.169
 3495SOL    HW211385   1.404   3.418   3.197
 3496SOL     OW11386   6.378   4.905   1.363
 3496SOL    HW111387   6.416   4.919   1.272
 3496SOL    HW211388   6.358   4.993   1.406
 3497SOL     OW11389   3.339   0.248   2.030
 3497SOL    HW111390   3.243   0.235   2.002
 3497SOL    HW211391   3.391   0.286   1.954
 3498SOL     OW11392   2.116   2.515   1.423
 3498SOL    HW111393   2.125   2.426   1.379
 3498SOL    HW211394   2.174   2.518   1.505
 3499SOL     OW11395   5.855   6.697   4.603
 3499SOL    HW111396   5.806   6.734   4.682
 3499SOL    HW211397   5.863   6.768   4.533
 3500SOL     OW11398   2.637   2.425   3.948
 3500SOL    HW111399   2.705   2.352   3.943
 3500SOL    HW211400   2.621   2.463   3.857
 3501SOL     OW11401   1.312   6.739   6.205
 3501SOL    HW111402   1.229   6.789   6.180
 3501SOL    HW211403   1.349   6.694   6.123
 3502SOL     OW11404   4.595   2.439   2.432
 3502SOL    HW111405   4.686   2.398   2.423
 3502SOL    HW211406   4.595   2.530   2.390
 3503SOL     OW11407   0.187   5.848   6.370
 3503SOL    HW111408   0.111   5.804   6.416
 3503SOL    HW211409   0.192   5.818   6.275
 3504SOL     OW11410   1.822   0.824   0.175
 3504SOL    HW111411   1.820   0.793   0.080
 3504SOL    HW211412   1.818   0.924   0.177
 3505SOL     OW11413   5.192   3.529   5.822
 3505SOL    HW111414   5.110   3.478   5.796
 3505SOL    HW211415   5.210   3.599   5.754
 3506SOL     OW11416   4.245   4.833   4.982
 3506SOL    HW111417   4.171   4.850   5.048
 3506SOL    HW211418   4.257   4.734   4.972
 3507SOL     OW11419   3.458   0.932   0.843
 3507SOL    HW111420   3.377   0.882   0.876
 3507SOL    HW211421   3.540   0.876   0.858
 3508SOL     OW11422   3.231   1.349   5.424
 3508SOL    HW111423   3.232   1.249   5.422
 3508SOL    HW211424   3.288   1.382   5.499
 3509SOL     OW11425   4.061   5.712   6.440
 3509SOL    HW111426   3.985   5.697   6.504
 3509SOL    HW211427   4.122   5.633   6.440
 3510SOL     OW11428   2.582   2.092   1.439
 3510SOL    HW111429   2.607   2.026   1.511
 3510SOL    HW211430   2.656   2.098   1.372
 3511SOL     OW11431   2.742   4.358   1.665
 3511SOL    HW111432   2.743   4.259   1.673
 3511SOL    HW211433   2.809   4.397   1.728
 3512SOL     OW11434   0.150   5.130   5.532
 3512SOL    HW111435   0.201   5.186   5.467
 3512SOL    HW211436   0.130   5.041   5.491
 3513SOL     OW11437   5.891   1.932   1.027
 3513SOL    HW111438   5.947   1.986   0.965
 3513SOL    HW211439   5.802   1.914   0.985
 3514SOL     OW11440   3.167   1.677   1.917
 3514SOL    HW111441   3.190   1.665   2.014
 3514SOL    HW211442   3.112   1.759   1.906
 3515SOL     OW11443   0.185   4.996   4.300
 3515SOL    HW111444   0.116   5.045   4.246
 3515SOL    HW211445   0.141   4.957   4.381
 3516SOL     OW11446   4.837   0.435   1.210
 3516SOL    HW111447   4.759   0.375   1.188
 3516SOL    HW211448   4.819   0.483   1.296
 3517SOL     OW11449   5.242   0.407   1.464
 3517SOL    HW111450   5.263   0.449   1.375
 3517SOL    HW211451   5.217   0.479   1.529
 3518SOL     OW11452   4.956   0.867   4.985
 3518SOL    HW111453   4.920   0.790   4.933
 3518SOL    HW211454   4.962   0.947   4.925
 3519SOL     OW11455   3.286   1.237   1.203
 3519SOL    HW111456   3.239   1.269   1.285
 3519SOL    HW211457   3.384   1.229   1.221
 3520SOL     OW11458   2.868   6.024   4.117
 3520SOL    HW111459   2.775   6.011   4.151
 3520SOL    HW211460   2.907   5.936   4.089
 3521SOL     OW11461   2.810   2.856   6.328
 3521SOL    HW111462   2.780   2.937   6.378
 3521SOL    HW211463   2.899   2.826   6.364
 3522SOL     OW11464   0.880   6.229   6.439
 3522SOL    HW111465   0.818   6.305   6.459
 3522SOL    HW211466   0.918   6.241   6.347
 3523SOL     OW11467   3.361   6.436   6.930
 3523SOL    HW111468   3.276   6.385   6.941
 3523SOL    HW211469   3.340   6.531   6.905
 3524SOL     OW11470   4.895   1.246   3.890
 3524SOL    HW111471   4.971   1.182   3.874
 3524SOL    HW211472   4.812   1.195   3.911
 3525SOL     OW11473   0.166   3.336   3.113
 3525SOL    HW111474   0.231   3.360   3.185
 3525SOL    HW211475   0.213   3.281   3.043
 3526SOL     OW11476   0.375   6.548   1.952
 3526SOL    HW111477   0.316   6.470   1.974
 3526SOL    HW211478   0.470   6.523   1.968
 3527SOL     OW11479   6.911   3.224   6.290
 3527SOL    HW111480   6.938   3.207   6.385
 3527SOL    HW211481   6.878   3.318   6.282
 3528SOL     OW11482   2.123   5.313   4.447
 3528SOL    HW111483   2.026   5.322   4.470
 3528SOL    HW211484   2.140   5.349   4.355
 3529SOL     OW11485   4.026   4.858   0.801
 3529SOL    HW111486   4.053   4.762   0.790
 3529SOL    HW211487   3.994   4.873   0.895
 3530SOL     OW11488   6.511   6.876   0.454
 3530SOL    HW111489   6.607   6.885   0.427
 3530SOL    HW211490   6.501   6.803   0.521
 3531SOL     OW11491   4.623   2.438   0.309
 3531SOL    HW111492   4.567   2.464   0.231
 3531SOL    HW211493   4.668   2.350   0.291
 3532SOL     OW11494   1.805   0.711   1.451
 3532SOL    HW111495   1.764   0.707   1.542
 3532SOL    HW211496   1.898   0.674   1.455
 3533SOL     OW11497   1.151   1.512   3.610
 3533SOL    HW111498   1.154   1.527   3.511
 3533SOL    HW211499   1.195   1.589   3.657
 3534SOL     OW11500   0.287   1.030   0.996
 3534SOL    HW111501   0.314   0.992   0.907
 3534SOL    HW211502   0.261   1.127   0.984
 3535SOL     OW11503   3.427   5.946   4.090
 3535SOL    HW111504   3.436   6.043   4.114
 3535SOL    HW211505   3.332   5.918   4.100
 3536SOL     OW11506   4.056   1.872   3.118
 3536SOL    HW111507   4.095   1.780   3.108
 3536SOL    HW211508   3.978   1.881   3.056
 3537SOL     OW11509   1.719   7.000   3.638
 3537SOL    HW111510   1.816   0.009   3.633
 3537SOL    HW211511   1.709   6.915   3.689
 3538SOL     OW11512   2.638   5.578   1.837
 3538SOL    HW111513   2.651   5.608   1.932
 3538SOL    HW211514   2.614   5.481   1.836
 3539SOL     OW11515   3.494   3.747   4.358
 3539SOL    HW111516   3.547   3.670   4.395
 3539SOL    HW211517   3.398   3.737   4.383
 3540SOL     OW11518   1.292   2.460   3.634
 3540SOL    HW111519   1.341   2.526   3.691
 3540SOL    HW211520   1.275   2.376   3.686
 3541SOL     OW11521   4.105   3.678   4.485
 3541SOL    HW111522   4.120   3.723   4.573
 3541SOL    HW211523   4.136   3.583   4.491
 3542SOL     OW11524   6.351   5.239   1.285
 3542SOL    HW111525   6.298   5.323   1.294
 3542SOL    HW211526   6.381   5.208   1.376
 3543SOL     OW11527   5.403   2.502   4.649
 3543SOL    HW111528   5.397   2.416   4.699
 3543SOL    HW211529   5.337   2.502   4.574
 3544SOL     OW11530   2.350   6.725   0.173
 3544SOL    HW111531   2.356   6.682   0.264
 3544SOL    HW211532   2.275   6.792   0.173
 3545SOL     OW11533   3.424   4.820   0.613
 3545SOL    HW111534   3.375   4.764   0.679
 3545SOL    HW211535   3.373   4.906   0.598
 3546SOL     OW11536   0.329   4.844   2.185
 3546SOL    HW111537   0.234   4.817   2.170
 3546SOL    HW211538   0.390   4.783   2.135
 3547SOL     OW11539   5.072   4.706   4.457
 3547SOL    HW111540   5.036   4.638   4.520
 3547SOL    HW211541   5.164   4.733   4.486
 3548SOL     OW11542   5.135   3.838   5.818
 3548SOL    HW111543   5.098   3.849   5.726
 3548SOL    HW211544   5.065   3.799   5.878
 3549SOL     OW11545   5.068   3.438   2.639
 3549SOL    HW111546   4.985   3.412   2.590
 3549SOL    HW211547   5.097   3.529   2.610
 3550SOL     OW11548   4.984   1.289   3.564
 3550SOL    HW111549   4.955   1.356   3.632
 3550SOL    HW211550   4.975   1.328   3.473
 3551SOL     OW11551   2.306   6.268   2.940
 3551SOL    HW111552   2.378   6.281   3.008
 3551SOL    HW211553   2.217   6.290   2.980
 3552SOL     OW11554   6.817   4.437   3.061
 3552SOL    HW111555   6.806   4.425   3.160
 3552SOL    HW211556   6.763   4.515   3.031
 3553SOL     OW11557   5.588   2.044   3.361
 3553SOL    HW111558   5.623   1.951   3.379
 3553SOL    HW211559   5.664   2.108   3.362
 3554SOL     OW11560   4.164   5.636   6.803
 3554SOL    HW111561   4.198   5.547   6.832
 3554SOL    HW211562   4.087   5.624   6.741
 3555SOL     OW11563   0.596   2.180   3.382
 3555SOL    HW111564   0.654   2.200   3.461
 3555SOL    HW211565   0.523   2.118   3.409
 3556SOL     OW11566   4.320   1.423   6.512
 3556SOL    HW111567   4.285   1.369   6.589
 3556SOL    HW211568   4.286   1.516   6.519
 3557SOL     OW11569   0.806   0.263   4.542
 3557SOL    HW111570   0.869   0.203   4.592
 3557SOL    HW211571   0.788   0.345   4.596
 3558SOL     OW11572   0.077   6.488   1.413
 3558SOL    HW111573   0.031   6.513   1.498
 3558SOL    HW211574   0.079   6.567   1.352
 3559SOL     OW11575   1.069   0.409   5.670
 3559SOL    HW111576   1.039   0.329   5.721
 3559SOL    HW211577   1.150   0.386   5.616
 3560SOL     OW11578   6.792   6.733   1.262
 3560SOL    HW111579   6.712   6.710   1.207
 3560SOL    HW211580   6.763   6.756   1.355
 3561SOL     OW11581   4.991   4.314   3.837
 3561SOL    HW111582   4.918   4.336   3.772
 3561SOL    HW211583   4.951   4.279   3.922
 3562SOL     OW11584   3.856   2.151   3.086
 3562SOL    HW111585   3.866   2.124   3.182
 3562SOL    HW211586   3.945   2.154   3.042
 3563SOL     OW11587   4.956   6.568   1.533
 3563SOL    HW111588   4.964   6.623   1.450
 3563SOL    HW211589   4.905   6.620   1.602
 3564SOL     OW11590   6.644   4.234   2.955
 3564SOL    HW111591   6.704   4.295   3.006
 3564SOL    HW211592   6.551   4.237   2.993
 3565SOL     OW11593   1.517   1.087   5.387
 3565SOL    HW111594   1.516   1.015   5.457
 3565SOL    HW211595   1.530   1.045   5.297
 3566SOL     OW11596   1.188   4.523   6.183
 3566SOL    HW111597   1.136   4.450   6.138
 3566SOL    HW211598   1.276   4.486   6.214
 3567SOL     OW11599   7.004   2.626   1.616
 3567SOL    HW111600   7.003   2.600   1.519
 3567SOL    HW211601   0.039   2.712   1.626
 3568SOL     OW11602   4.579   4.403   3.554
 3568SOL    HW111603   4.561   4.500   3.543
 3568SOL    HW211604   4.570   4.377   3.651
 3569SOL     OW11605   4.100   3.302   3.494
 3569SOL    HW111606   4.113   3.388   3.544
 3569SOL    HW211607   4.101   3.225   3.558
 3570SOL     OW11608   0.036   2.217   4.926
 3570SOL    HW111609   6.981   2.258   4.984
 3570SOL    HW211610   0.042   2.119   4.944
 3571SOL     OW11611   2.606   6.729   4.332
 3571SOL    HW111612   2.570   6.722   4.425
 3571SOL    HW211613   2.605   6.825   4.303
 3572SOL     OW11614   5.228   4.232   2.066
 3572SOL    HW111615   5.159   4.260   2.133
 3572SOL    HW211616   5.259   4.311   2.014
 3573SOL     OW11617   6.925   4.354   3.901
 3573SOL    HW111618   6.892   4.395   3.816
 3573SOL    HW211619   6.941   4.256   3.887
 3574SOL     OW11620   2.282   1.772   5.795
 3574SOL    HW111621   2.219   1.694   5.804
 3574SOL    HW211622   2.331   1.785   5.881
 3575SOL     OW11623   5.159   0.354   6.660
 3575SOL    HW111624   5.161   0.254   6.661
 3575SOL    HW211625   5.115   0.386   6.743
 3576SOL     OW11626   1.013   2.881   0.751
 3576SOL    HW111627   1.061   2.798   0.779
 3576SOL    HW211628   1.051   2.914   0.665
 3577SOL     OW11629   1.376   2.893   4.775
 3577SOL    HW111630   1.436   2.904   4.854
 3577SOL    HW211631   1.429   2.861   4.696
 3578SOL     OW11632   3.774   2.949   6.915
 3578SOL    HW111633   3.708   3.021   6.935
 3578SOL    HW211634   3.769   2.926   6.818
 3579SOL     OW11635   1.229   3.911   1.331
 3579SOL    HW111636   1.285   3.912   1.414
 3579SOL    HW211637   1.272   3.852   1.263
 3580SOL     OW11638   6.878   3.912   2.067
 3580SOL    HW111639   6.888   3.862   1.981
 3580SOL    HW211640   6.782   3.936   2.081
 3581SOL     OW11641   1.782   0.614   2.646
 3581SOL    HW111642   1.702   0.571   2.688
 3581SOL    HW211643   1.849   0.636   2.716
 3582SOL     OW11644   4.211   5.865   6.690
 3582SOL    HW111645   4.174   5.789   6.743
 3582SOL    HW211646   4.149   5.885   6.614
 3583SOL     OW11647   1.799   5.649   1.376
 3583SOL    HW111648   1.809   5.747   1.362
 3583SOL    HW211649   1.875   5.615   1.431
 3584SOL     OW11650   5.942   5.105   4.562
 3584SOL    HW111651   5.858   5.149   4.596
 3584SOL    HW211652   6.006   5.093   4.638
 3585SOL     OW11653   3.403   2.028   3.646
 3585SOL    HW111654   3.333   2.018   3.718
 3585SOL    HW211655   3.409   1.942   3.594
 3586SOL     OW11656   6.713   2.032   5.347
 3586SOL    HW111657   6.730   2.112   5.404
 3586SOL    HW211658   6.663   1.963   5.401
 3587SOL     OW11659   2.964   0.855   5.724
 3587SOL    HW111660   2.876   0.901   5.728
 3587SOL    HW211661   2.995   0.835   5.817
 3588SOL     OW11662   5.508   4.560   4.285
 3588SOL    HW111663   5.580   4.533   4.221
 3588SOL    HW211664   5.550   4.599   4.367
 3589SOL     OW11665   0.770   0.491   6.203
 3589SOL    HW111666   0.839   0.550   6.244
 3589SOL    HW211667   0.804   0.397   6.199
 3590SOL     OW11668   6.202   5.230   5.124
 3590SOL    HW111669   6.229   5.314   5.076
 3590SOL    HW211670   6.110   5.204   5.096
 3591SOL     OW11671   4.431   1.842   0.687
 3591SOL    HW111672   4.335   1.835   0.712
 3591SOL    HW211673   4.439   1.856   0.588
 3592SOL     OW11674   1.297   6.259   1.049
 3592SOL    HW111675   1.393   6.240   1.029
 3592SOL    HW211676   1.267   6.201   1.125
 3593SOL     OW11677   4.082   3.184   5.950
 3593SOL    HW111678   4.012   3.246   5.914
 3593SOL    HW211679   4.137   3.233   6.018
 3594SOL     OW11680   4.496   4.691   5.178
 3594SOL    HW111681   4.416   4.735   5.218
 3594SOL    HW211682   4.468   4.634   5.100
 3595SOL     OW11683   4.755   6.616   4.528
 3595SOL    HW111684   4.773   6.521   4.502
 3595SOL    HW211685   4.766   6.625   4.627
 3596SOL     OW11686   3.765   1.877   2.665
 3596SOL    HW111687   3.704   1.955   2.654
 3596SOL    HW211688   3.837   1.900   2.730
 3597SOL     OW11689   3.694   4.290   5.239
 3597SOL    HW111690   3.619   4.251   5.185
 3597SOL    HW211691   3.777   4.235   5.225
 3598SOL     OW11692   0.094   5.896   5.040
 3598SOL    HW111693   0.033   5.877   4.963
 3598SOL    HW211694   0.055   5.969   5.096
 3599SOL     OW11695   2.476   1.560   5.030
 3599SOL    HW111696   2.516   1.648   5.007
 3599SOL    HW211697   2.481   1.499   4.951
 3600SOL     OW11698   2.770   3.904   0.230
 3600SOL    HW111699   2.804   3.916   0.323
 3600SOL    HW211700   2.779   3.990   0.179
 3601SOL     OW11701   4.084   0.593   5.480
 3601SOL    HW111702   4.148   0.623   5.551
 3601SOL    HW211703   4.090   0.494   5.470
 3602SOL     OW11704   1.459   2.540   1.363
 3602SOL    HW111705   1.486   2.446   1.381
 3602SOL    HW211706   1.532   2.602   1.393
 3603SOL     OW11707   2.178   0.429   5.765
 3603SOL    HW111708   2.185   0.437   5.865
 3603SOL    HW211709   2.129   0.345   5.742
 3604SOL     OW11710   6.622   0.902   3.458
 3604SOL    HW111711   6.667   0.818   3.486
 3604SOL    HW211712   6.524   0.886   3.449
 3605SOL     OW11713   1.385   0.254   5.327
 3605SOL    HW111714   1.448   0.191   5.282
 3605SOL    HW211715   1.306   0.270   5.268
 3606SOL     OW11716   2.389   6.831   2.827
 3606SOL    HW111717   2.486   6.818   2.808
 3606SOL    HW211718   2.346   6.743   2.848
 3607SOL     OW11719   6.356   1.147   3.483
 3607SOL    HW111720   6.441   1.200   3.482
 3607SOL    HW211721   6.292   1.188   3.548
 3608SOL     OW11722   3.834   1.823   5.828
 3608SOL    HW111723   3.852   1.724   5.830
 3608SOL    HW211724   3.814   1.854   5.921
 3609SOL     OW11725   3.336   0.271   5.504
 3609SOL    HW111726   3.429   0.289   5.535
 3609SOL    HW211727   3.281   0.354   5.514
 3610SOL     OW11728   1.982   0.433   5.488
 3610SOL    HW111729   1.918   0.508   5.501
 3610SOL    HW211730   1.990   0.381   5.573
 3611SOL     OW11731   5.590   4.025   3.252
 3611SOL    HW111732   5.646   4.093   3.300
 3611SOL    HW211733   5.607   3.935   3.290
 3612SOL     OW11734   4.911   1.756   0.371
 3612SOL    HW111735   4.927   1.689   0.444
 3612SOL    HW211736   4.985   1.751   0.304
 3613SOL     OW11737   3.606   0.216   2.612
 3613SOL    HW111738   3.610   0.131   2.560
 3613SOL    HW211739   3.538   0.206   2.686
 3614SOL     OW11740   3.800   5.470   0.270
 3614SOL    HW111741   3.798   5.421   0.358
 3614SOL    HW211742   3.712   5.516   0.256
 3615SOL     OW11743   5.356   3.031   5.246
 3615SOL    HW111744   5.456   3.036   5.246
 3615SOL    HW211745   5.328   2.937   5.227
 3616SOL     OW11746   1.296   2.037   0.882
 3616SOL    HW111747   1.207   2.005   0.914
 3616SOL    HW211748   1.351   1.960   0.852
 3617SOL     OW11749   3.944   5.140   5.229
 3617SOL    HW111750   3.979   5.094   5.311
 3617SOL    HW211751   3.870   5.203   5.255
 3618SOL     OW11752   0.899   5.405   4.541
 3618SOL    HW111753   0.855   5.316   4.533
 3618SOL    HW211754   0.994   5.393   4.570
 3619SOL     OW11755   6.211   1.937   2.455
 3619SOL    HW111756   6.308   1.913   2.464
 3619SOL    HW211757   6.158   1.855   2.438
 3620SOL     OW11758   4.832   6.052   5.600
 3620SOL    HW111759   4.910   6.100   5.562
 3620SOL    HW211760   4.750   6.107   5.590
 3621SOL     OW11761   3.738   2.872   3.971
 3621SOL    HW111762   3.777   2.875   4.063
 3621SOL    HW211763   3.638   2.863   3.978
 3622SOL     OW11764   2.143   5.516   6.179
 3622SOL    HW111765   2.164   5.574   6.100
 3622SOL    HW211766   2.063   5.552   6.226
 3623SOL     OW11767   1.796   5.581   6.061
 3623SOL    HW111768   1.806   5.602   6.159
 3623SOL    HW211769   1.827   5.659   6.007
 3624SOL     OW11770   2.748   1.806   3.050
 3624SOL    HW111771   2.708   1.801   3.142
 3624SOL    HW211772   2.725   1.895   3.009
 3625SOL     OW11773   5.818   2.483   1.478
 3625SOL    HW111774   5.863   2.404   1.521
 3625SOL    HW211775   5.871   2.565   1.495
 3626SOL     OW11776   1.382   2.811   6.183
 3626SOL    HW111777   1.376   2.763   6.271
 3626SOL    HW211778   1.293   2.850   6.160
 3627SOL     OW11779   3.128   1.146   2.600
 3627SOL    HW111780   3.034   1.180   2.600
 3627SOL    HW211781   3.189   1.217   2.634
 3628SOL     OW11782   6.678   1.586   1.414
 3628SOL    HW111783   6.636   1.572   1.324
 3628SOL    HW211784   6.774   1.560   1.410
 3629SOL     OW11785   1.789   0.793   4.322
 3629SOL    HW111786   1.702   0.763   4.360
 3629SOL    HW211787   1.773   0.863   4.253
 3630SOL     OW11788   6.617   2.462   2.822
 3630SOL    HW111789   6.633   2.406   2.903
 3630SOL    HW211790   6.705   2.491   2.784
 3631SOL     OW11791   2.090   5.596   2.784
 3631SOL    HW111792   2.064   5.528   2.715
 3631SOL    HW211793   2.136   5.673   2.740
 3632SOL     OW11794   4.857   3.349   2.506
 3632SOL    HW111795   4.846   3.250   2.494
 3632SOL    HW211796   4.826   3.395   2.423
 3633SOL     OW11797   4.325   4.474   6.524
 3633SOL    HW111798   4.371   4.386   6.510
 3633SOL    HW211799   4.251   4.484   6.458
 3634SOL     OW11800   3.267   5.385   6.100
 3634SOL    HW111801   3.194   5.449   6.078
 3634SOL    HW211802   3.263   5.307   6.037
 3635SOL     OW11803   1.399   0.000   3.197
 3635SOL    HW111804   1.481   0.055   3.214
 3635SOL    HW211805   1.370   6.974   3.283
 3636SOL     OW11806   7.004   6.088   4.686
 3636SOL    HW111807   0.073   6.034   4.680
 3636SOL    HW211808   6.942   6.046   4.752
 3637SOL     OW11809   5.470   2.322   6.808
 3637SOL    HW111810   5.546   2.318   6.872
 3637SOL    HW211811   5.475   2.245   6.745
 3638SOL     OW11812   0.567   3.043   3.428
 3638SOL    HW111813   0.642   2.993   3.471
 3638SOL    HW211814   0.564   3.021   3.331
 3639SOL     OW11815   4.140   3.404   4.474
 3639SOL    HW111816   4.148   3.359   4.385
 3639SOL    HW211817   4.107   3.337   4.542
 3640SOL     OW11818   4.741   1.645   2.386
 3640SOL    HW111819   4.649   1.672   2.358
 3640SOL    HW211820   4.768   1.563   2.335
 3641SOL     OW11821   6.744   3.672   1.895
 3641SOL    HW111822   6.675   3.654   1.966
 3641SOL    HW211823   6.723   3.618   1.814
 3642SOL     OW11824   4.915   4.266   6.200
 3642SOL    HW111825   5.008   4.301   6.211
 3642SOL    HW211826   4.899   4.240   6.105
 3643SOL     OW11827   4.174   6.298   4.953
 3643SOL    HW111828   4.131   6.247   4.879
 3643SOL    HW211829   4.138   6.267   5.041
 3644SOL     OW11830   2.814   1.033   2.304
 3644SOL    HW111831   2.776   1.122   2.278
 3644SOL    HW211832   2.754   0.989   2.371
 3645SOL     OW11833   2.175   4.162   3.220
 3645SOL    HW111834   2.180   4.126   3.127
 3645SOL    HW211835   2.203   4.258   3.220
 3646SOL     OW11836   1.995   5.256   5.454
 3646SOL    HW111837   2.031   5.163   5.454
 3646SOL    HW211838   1.990   5.290   5.360
 3647SOL     OW11839   3.734   6.772   0.603
 3647SOL    HW111840   3.640   6.750   0.575
 3647SOL    HW211841   3.797   6.751   0.528
 3648SOL     OW11842   5.306   4.632   3.610
 3648SOL    HW111843   5.374   4.584   3.665
 3648SOL    HW211844   5.340   4.724   3.589
 3649SOL     OW11845   5.072   2.448   0.156
 3649SOL    HW111846   5.021   2.372   0.115
 3649SOL    HW211847   5.007   2.515   0.193
 3650SOL     OW11848   5.290   6.200   6.301
 3650SOL    HW111849   5.386   6.179   6.284
 3650SOL    HW211850   5.283   6.272   6.369
 3651SOL     OW11851   1.009   1.823   6.194
 3651SOL    HW111852   0.923   1.776   6.176
 3651SOL    HW211853   1.035   1.877   6.114
 3652SOL     OW11854   5.472   2.226   2.628
 3652SOL    HW111855   5.433   2.134   2.626
 3652SOL    HW211856   5.512   2.243   2.718
 3653SOL     OW11857   2.039   1.207   0.596
 3653SOL    HW111858   2.044   1.221   0.695
 3653SOL    HW211859   2.119   1.155   0.566
 3654SOL     OW11860   4.158   6.332   1.597
 3654SOL    HW111861   4.256   6.332   1.578
 3654SOL    HW211862   4.114   6.258   1.545
 3655SOL     OW11863   1.473   0.761   4.443
 3655SOL    HW111864   1.440   0.851   4.413
 3655SOL    HW211865   1.399   0.713   4.490
 3656SOL     OW11866   0.451   0.046   0.607
 3656SOL    HW111867   0.523   0.016   0.545
 3656SOL    HW211868   0.491   0.101   0.680
 3657SOL     OW11869   6.125   4.879   6.405
 3657SOL    HW111870   6.041   4.933   6.406
 3657SOL    HW211871   6.116   4.806   6.338
 3658SOL     OW11872   1.631   4.355   5.069
 3658SOL    HW111873   1.726   4.389   5.074
 3658SOL    HW211874   1.627   4.262   5.106
 3659SOL     OW11875   1.074   2.253   0.053
 3659SOL    HW111876   1.060   2.205   6.982
 3659SOL    HW211877   0.992   2.243   0.111
 3660SOL     OW11878   3.975   4.898   5.095
 3660SOL    HW111879   3.977   4.819   5.156
 3660SOL    HW211880   3.948   4.979   5.146
 3661SOL     OW11881   0.844   1.573   5.189
 3661SOL    HW111882   0.782   1.631   5.137
 3661SOL    HW211883   0.935   1.613   5.191
 3662SOL     OW11884   3.979   1.769   5.389
 3662SOL    HW111885   3.985   1.679   5.346
 3662SOL    HW211886   3.929   1.831   5.328
 3663SOL     OW11887   1.668   2.268   5.949
 3663SOL    HW111888   1.705   2.218   6.027
 3663SOL    HW211889   1.582   2.312   5.974
 3664SOL     OW11890   2.281   1.718   1.009
 3664SOL    HW111891   2.331   1.778   0.946
 3664SOL    HW211892   2.301   1.622   0.986
 3665SOL     OW11893   0.037   6.364   4.935
 3665SOL    HW111894   6.968   6.401   4.973
 3665SOL    HW211895   0.039   6.382   4.836
 3666SOL     OW11896   2.139   3.589   4.790
 3666SOL    HW111897   2.122   3.686   4.808
 3666SOL    HW211898   2.236   3.576   4.769
 3667SOL     OW11899   2.166   6.732   1.384
 3667SOL    HW111900   2.117   6.684   1.457
 3667SOL    HW211901   2.170   6.674   1.303
 3668SOL     OW11902   5.088   1.329   0.704
 3668SOL    HW111903   5.037   1.269   0.766
 3668SOL    HW211904   5.102   1.418   0.748
 3669SOL     OW11905   6.692   1.111   2.090
 3669SOL    HW111906   6.771   1.157   2.131
 3669SOL    HW211907   6.609   1.163   2.109
 3670SOL     OW11908   1.814   6.862   2.471
 3670SOL    HW111909   1.911   6.842   2.455
 3670SOL    HW211910   1.799   6.961   2.470
 3671SOL     OW11911   0.652   0.802   5.671
 3671SOL    HW111912   0.665   0.844   5.761
 3671SOL    HW211913   0.561   0.825   5.637
 3672SOL     OW11914   3.958   0.543   3.878
 3672SOL    HW111915   3.893   0.471   3.902
 3672SOL    HW211916   3.976   0.541   3.780
 3673SOL     OW11917   3.667   1.322   1.804
 3673SOL    HW111918   3.635   1.358   1.716
 3673SOL    HW211919   3.658   1.393   1.874
 3674SOL     OW11920   6.789   4.574   6.152
 3674SOL    HW111921   6.809   4.618   6.065
 3674SOL    HW211922   6.856   4.602   6.220
 3675SOL     OW11923   6.157   0.689   5.036
 3675SOL    HW111924   6.125   0.754   5.104
 3675SOL    HW211925   6.256   0.678   5.043
 3676SOL     OW11926   2.468   0.577   5.329
 3676SOL    HW111927   2.470   0.501   5.265
 3676SOL    HW211928   2.441   0.544   5.420
 3677SOL     OW11929   1.427   0.989   4.860
 3677SOL    HW111930   1.413   0.958   4.954
 3677SOL    HW211931   1.518   1.031   4.852
 3678SOL     OW11932   2.796   0.569   3.362
 3678SOL    HW111933   2.893   0.544   3.358
 3678SOL    HW211934   2.771   0.590   3.456
 3679SOL     OW11935   3.128   1.057   2.017
 3679SOL    HW111936   3.037   1.082   1.982
 3679SOL    HW211937   3.127   1.058   2.117
 3680SOL     OW11938   4.208   2.185   4.290
 3680SOL    HW111939   4.236   2.255   4.355
 3680SOL    HW211940   4.229   2.094   4.327
 3681SOL     OW11941   1.243   5.836   3.624
 3681SOL    HW111942   1.263   5.851   3.721
 3681SOL    HW211943   1.192   5.914   3.588
 3682SOL     OW11944   5.333   1.588   1.606
 3682SOL    HW111945   5.240   1.573   1.641
 3682SOL    HW211946   5.352   1.686   1.607
 3683SOL     OW11947   6.515   1.916   1.058
 3683SOL    HW111948   6.438   1.963   1.014
 3683SOL    HW211949   6.573   1.875   0.988
 3684SOL     OW11950   2.420   5.853   5.708
 3684SOL    HW111951   2.514   5.839   5.741
 3684SOL    HW211952   2.377   5.927   5.759
 3685SOL     OW11953   2.091   0.109   3.408
 3685SOL    HW111954   2.167   0.058   3.449
 3685SOL    HW211955   2.108   0.122   3.310
 3686SOL     OW11956   0.375   4.624   0.616
 3686SOL    HW111957   0.458   4.671   0.645
 3686SOL    HW211958   0.380   4.528   0.640
 3687SOL     OW11959   6.752   4.756   4.196
 3687SOL    HW111960   6.797   4.703   4.124
 3687SOL    HW211961   6.813   4.761   4.275
 3688SOL     OW11962   6.798   3.078   1.930
 3688SOL    HW111963   6.774   3.172   1.956
 3688SOL    HW211964   6.868   3.043   1.992
 3689SOL     OW11965   2.038   1.745   5.166
 3689SOL    HW111966   2.125   1.710   5.201
 3689SOL    HW211967   1.963   1.707   5.220
 3690SOL     OW11968   6.464   5.166   1.877
 3690SOL    HW111969   6.528   5.183   1.802
 3690SOL    HW211970   6.417   5.080   1.863
 3691SOL     OW11971   2.171   2.118   0.540
 3691SOL    HW111972   2.225   2.169   0.473
 3691SOL    HW211973   2.075   2.143   0.531
 3692SOL     OW11974   0.663   2.932   5.465
 3692SOL    HW111975   0.695   3.009   5.410
 3692SOL    HW211976   0.711   2.849   5.437
 3693SOL     OW11977   0.376   2.241   2.750
 3693SOL    HW111978   0.287   2.202   2.773
 3693SOL    HW211979   0.437   2.236   2.830
 3694SOL     OW11980   0.137   6.750   1.963
 3694SOL    HW111981   0.221   6.700   1.988
 3694SOL    HW211982   0.157   6.812   1.887
 3695SOL     OW11983   5.931   3.660   3.668
 3695SOL    HW111984   5.872   3.583   3.693
 3695SOL    HW211985   5.878   3.745   3.673
 3696SOL     OW11986   4.483   6.967   4.113
 3696SOL    HW111987   4.384   6.954   4.106
 3696SOL    HW211988   4.513   6.949   4.207
 3697SOL     OW11989   5.862   5.113   3.157
 3697SOL    HW111990   5.923   5.035   3.149
 3697SOL    HW211991   5.843   5.131   3.253
 3698SOL     OW11992   1.091   6.828   4.153
 3698SOL    HW111993   1.062   6.915   4.193
 3698SOL    HW211994   1.169   6.792   4.204
 3699SOL     OW11995   3.300   2.080   3.194
 3699SOL    HW111996   3.303   2.095   3.095
 3699SOL    HW211997   3.393   2.068   3.229
 3700SOL     OW11998   0.510   5.348   4.092
 3700SOL    HW111999   0.575   5.308   4.156
 3700SOL    HW212000   0.476   5.435   4.128
 3701SOL     OW12001   6.488   0.647   2.087
 3701SOL    HW112002   6.485   0.740   2.048
 3701SOL    HW212003   6.521   0.584   2.017
 3702SOL     OW12004   6.430   4.880   3.534
 3702SOL    HW112005   6.489   4.923   3.466
 3702SOL    HW212006   6.465   4.899   3.626
 3703SOL     OW12007   0.643   2.133   3.679
 3703SOL    HW112008   0.564   2.072   3.673
 3703SOL    HW212009   0.703   2.102   3.753
 3704SOL     OW12010   6.644   6.740   0.860
 3704SOL    HW112011   6.674   6.832   0.834
 3704SOL    HW212012   6.556   6.721   0.818
 3705SOL     OW12013   6.558   4.257   3.582
 3705SOL    HW112014   6.551   4.161   3.608
 3705SOL    HW212015   6.653   4.278   3.557
 3706SOL     OW12016   1.099   5.475   6.245
 3706SOL    HW112017   1.180   5.450   6.193
 3706SOL    HW212018   1.112   5.451   6.341
 3707SOL     OW12019   0.533   4.386   3.323
 3707SOL    HW112020   0.588   4.305   3.306
 3707SOL    HW212021   0.573   4.464   3.276
 3708SOL     OW12022   1.790   5.731   0.360
 3708SOL    HW112023   1.889   5.724   0.370
 3708SOL    HW212024   1.768   5.805   0.298
 3709SOL     OW12025   0.795   1.665   1.716
 3709SOL    HW112026   0.698   1.650   1.731
 3709SOL    HW212027   0.823   1.617   1.632
 3710SOL     OW12028   2.080   3.885   5.526
 3710SOL    HW112029   2.052   3.980   5.516
 3710SOL    HW212030   2.154   3.865   5.461
 3711SOL     OW12031   1.976   4.896   5.062
 3711SOL    HW112032   1.902   4.853   5.011
 3711SOL    HW212033   1.991   4.847   5.148
 3712SOL     OW12034   3.022   4.789   3.669
 3712SOL    HW112035   3.076   4.806   3.587
 3712SOL    HW212036   3.080   4.799   3.750
 3713SOL     OW12037   5.869   0.192   5.734
 3713SOL    HW112038   5.907   0.103   5.710
 3713SOL    HW212039   5.875   0.206   5.833
 3714SOL     OW12040   0.353   5.266   0.318
 3714SOL    HW112041   0.366   5.234   0.412
 3714SOL    HW212042   0.258   5.296   0.307
 3715SOL     OW12043   6.056   4.508   2.731
 3715SOL    HW112044   5.994   4.431   2.727
 3715SOL    HW212045   6.109   4.513   2.646
 3716SOL     OW12046   5.532   5.812   5.392
 3716SOL    HW112047   5.462   5.881   5.370
 3716SOL    HW212048   5.528   5.791   5.490
 3717SOL     OW12049   4.832   0.082   1.080
 3717SOL    HW112050   4.817   0.088   1.179
 3717SOL    HW212051   4.780   0.154   1.034
 3718SOL     OW12052   5.340   6.617   6.265
 3718SOL    HW112053   5.432   6.579   6.268
 3718SOL    HW212054   5.297   6.607   6.355
 3719SOL     OW12055   2.665   4.441   0.171
 3719SOL    HW112056   2.639   4.439   0.075
 3719SOL    HW212057   2.584   4.427   0.228
 3720SOL     OW12058   0.665   2.114   0.634
 3720SOL    HW112059   0.690   2.031   0.683
 3720SOL    HW212060   0.727   2.188   0.661
 3721SOL     OW12061   6.311   0.065   5.966
 3721SOL    HW112062   6.269   0.032   5.882
 3721SOL    HW212063   6.241   0.072   6.038
 3722SOL     OW12064   5.735   6.714   0.952
 3722SOL    HW112065   5.734   6.730   0.853
 3722SOL    HW212066   5.828   6.695   0.982
 3723SOL     OW12067   4.569   4.198   5.949
 3723SOL    HW112068   4.662   4.163   5.959
 3723SOL    HW212069   4.510   4.159   6.019
 3724SOL     OW12070   6.302   4.761   4.898
 3724SOL    HW112071   6.220   4.816   4.915
 3724SOL    HW212072   6.367   4.776   4.972
 3725SOL     OW12073   0.120   6.566   0.806
 3725SOL    HW112074   0.072   6.588   0.720
 3725SOL    HW212075   0.101   6.471   0.831
 3726SOL     OW12076   5.881   3.596   5.370
 3726SOL    HW112077   5.854   3.655   5.294
 3726SOL    HW212078   5.884   3.501   5.340
 3727SOL     OW12079   6.616   1.713   4.619
 3727SOL    HW112080   6.588   1.620   4.593
 3727SOL    HW212081   6.710   1.729   4.589
 3728SOL     OW12082   1.992   4.850   0.597
 3728SOL    HW112083   2.092   4.857   0.600
 3728SOL    HW212084   1.964   4.822   0.505
 3729SOL     OW12085   0.008   0.100   6.154
 3729SOL    HW112086   0.041   0.119   6.246
 3729SOL    HW212087   6.924   0.112   6.151
 3730SOL     OW12088   5.149   4.628   4.923
 3730SOL    HW112089   5.194   4.628   5.012
 3730SOL    HW212090   5.068   4.570   4.926
 3731SOL     OW12091   6.856   1.941   1.395
 3731SOL    HW112092   6.758   1.935   1.376
 3731SOL    HW212093   6.887   2.036   1.382
 3732SOL     OW12094   3.976   2.705   0.292
 3732SOL    HW112095   3.938   2.624   0.336
 3732SOL    HW212096   4.051   2.677   0.231
 3733SOL     OW12097   1.492   1.206   3.168
 3733SOL    HW112098   1.430   1.163   3.102
 3733SOL    HW212099   1.546   1.275   3.122
 3734SOL     OW12100   3.851   0.820   1.635
 3734SOL    HW112101   3.902   0.739   1.607
 3734SOL    HW212102   3.763   0.822   1.587
 3735SOL     OW12103   4.137   1.237   2.813
 3735SOL    HW112104   4.110   1.140   2.814
 3735SOL    HW212105   4.176   1.259   2.724
 3736SOL     OW12106   0.924   2.010   0.389
 3736SOL    HW112107   0.873   1.928   0.364
 3736SOL    HW212108   0.938   2.013   0.488
 3737SOL     OW12109   5.151   2.163   4.056
 3737SOL    HW112110   5.128   2.076   4.100
 3737SOL    HW212111   5.151   2.151   3.957
 3738SOL     OW12112   0.362   1.081   0.703
 3738SOL    HW112113   0.262   1.074   0.707
 3738SOL    HW212114   0.401   0.989   0.708
 3739SOL     OW12115   2.924   4.759   6.798
 3739SOL    HW112116   2.843   4.710   6.765
 3739SOL    HW212117   2.996   4.693   6.820
 3740SOL     OW12118   5.994   6.364   0.076
 3740SOL    HW112119   6.051   6.294   0.032
 3740SOL    HW212120   5.912   6.379   0.020
 3741SOL     OW12121   6.077   4.274   6.972
 3741SOL    HW112122   6.058   4.361   0.003
 3741SOL    HW212123   6.175   4.254   6.977
 3742SOL     OW12124   4.915   4.972   1.590
 3742SOL    HW112125   4.881   4.893   1.641
 3742SOL    HW212126   4.840   5.015   1.540
 3743SOL     OW12127   2.162   3.863   0.806
 3743SOL    HW112128   2.217   3.862   0.890
 3743SOL    HW212129   2.069   3.892   0.827
 3744SOL     OW12130   6.700   5.883   2.755
 3744SOL    HW112131   6.671   5.788   2.741
 3744SOL    HW212132   6.676   5.912   2.848
 3745SOL     OW12133   5.645   1.801   2.861
 3745SOL    HW112134   5.721   1.851   2.821
 3745SOL    HW212135   5.576   1.865   2.895
 3746SOL     OW12136   5.050   6.974   5.266
 3746SOL    HW112137   5.058   6.997   5.363
 3746SOL    HW212138   5.016   6.880   5.257
 3747SOL     OW12139   1.998   5.956   5.622
 3747SOL    HW112140   2.052   5.875   5.645
 3747SOL    HW212141   1.902   5.939   5.642
 3748SOL     OW12142   5.277   2.193   3.014
 3748SOL    HW112143   5.214   2.224   3.085
 3748SOL    HW212144   5.226   2.144   2.943
 3749SOL     OW12145   6.148   6.241   1.462
 3749SOL    HW112146   6.134   6.150   1.425
 3749SOL    HW212147   6.088   6.254   1.541
 3750SOL     OW12148   5.855   4.031   1.344
 3750SOL    HW112149   5.903   4.119   1.343
 3750SOL    HW212150   5.867   3.988   1.434
 3751SOL     OW12151   1.512   4.779   0.414
 3751SOL    HW112152   1.440   4.797   0.482
 3751SOL    HW212153   1.571   4.706   0.448
 3752SOL     OW12154   1.095   6.886   6.083
 3752SOL    HW112155   1.041   6.846   6.009
 3752SOL    HW212156   1.068   6.981   6.097
 3753SOL     OW12157   0.930   0.677   5.869
 3753SOL    HW112158   0.901   0.715   5.781
 3753SOL    HW212159   1.022   0.709   5.890
 3754SOL     OW12160   6.618   6.340   1.840
 3754SOL    HW112161   6.701   6.326   1.894
 3754SOL    HW212162   6.545   6.283   1.877
 3755SOL     OW12163   4.719   2.448   2.971
 3755SOL    HW112164   4.729   2.530   3.028
 3755SOL    HW212165   4.623   2.435   2.948
 3756SOL     OW12166   3.413   6.952   0.724
 3756SOL    HW112167   3.404   6.988   0.816
 3756SOL    HW212168   3.369   6.862   0.719
 3757SOL     OW12169   3.112   4.321   6.116
 3757SOL    HW112170   3.063   4.402   6.085
 3757SOL    HW212171   3.171   4.345   6.193
 3758SOL     OW12172   6.959   1.199   2.097
 3758SOL    HW112173   7.011   1.279   2.068
 3758SOL    HW212174   6.968   1.127   2.027
 3759SOL     OW12175   4.798   3.989   0.795
 3759SOL    HW112176   4.896   3.999   0.814
 3759SOL    HW212177   4.782   3.903   0.747
 3760SOL     OW12178   2.061   1.597   5.782
 3760SOL    HW112179   2.029   1.606   5.876
 3760SOL    HW212180   2.019   1.517   5.740
 3761SOL     OW12181   6.481   6.300   4.110
 3761SOL    HW112182   6.399   6.325   4.058
 3761SOL    HW212183   6.464   6.313   4.208
 3762SOL     OW12184   0.407   3.342   0.458
 3762SOL    HW112185   0.427   3.435   0.488
 3762SOL    HW212186   0.375   3.288   0.536
 3763SOL     OW12187   0.008   3.222   4.278
 3763SOL    HW112188   6.973   3.149   4.325
 3763SOL    HW212189   0.065   3.183   4.206
 3764SOL     OW12190   2.031   0.023   3.963
 3764SOL    HW112191   2.097   0.093   3.990
 3764SOL    HW212192   1.938   0.056   3.982
 3765SOL     OW12193   6.351   0.915   3.340
 3765SOL    HW112194   6.280   0.849   3.362
 3765SOL    HW212195   6.321   1.007   3.365
 3766SOL     OW12196   2.213   1.390   5.214
 3766SOL    HW112197   2.244   1.484   5.229
 3766SOL    HW212198   2.231   1.363   5.119
 3767SOL     OW12199   0.109   4.824   0.684
 3767SOL    HW112200   0.154   4.746   0.728
 3767SOL    HW212201   0.167   4.858   0.609
 3768SOL     OW12202   4.639   6.326   0.971
 3768SOL    HW112203   4.675   6.233   0.985
 3768SOL    HW212204   4.710   6.393   0.994
 3769SOL     OW12205   4.162   6.817   4.780
 3769SOL    HW112206   4.169   6.724   4.745
 3769SOL    HW212207   4.234   6.833   4.847
 3770SOL     OW12208   1.874   2.654   0.423
 3770SOL    HW112209   1.789   2.674   0.471
 3770SOL    HW212210   1.894   2.556   0.429
 3771SOL     OW12211   4.388   1.400   6.045
 3771SOL    HW112212   4.415   1.495   6.060
 3771SOL    HW212213   4.449   1.359   5.977
 3772SOL     OW12214   4.696   0.724   2.584
 3772SOL    HW112215   4.702   0.776   2.669
 3772SOL    HW212216   4.601   0.699   2.566
 3773SOL     OW12217   6.479   2.844   0.726
 3773SOL    HW112218   6.529   2.930   0.724
 3773SOL    HW212219   6.414   2.841   0.650
 3774SOL     OW12220   1.555   1.595   1.904
 3774SOL    HW112221   1.555   1.565   1.808
 3774SOL    HW212222   1.492   1.537   1.956
 3775SOL     OW12223   5.204   2.678   3.450
 3775SOL    HW112224   5.159   2.737   3.383
 3775SOL    HW212225   5.252   2.604   3.402
 3776SOL     OW12226   3.059   1.745   6.669
 3776SOL    HW112227   2.959   1.747   6.669
 3776SOL    HW212228   3.094   1.782   6.755
 3777SOL     OW12229   1.083   3.942   3.205
 3777SOL    HW112230   1.115   3.860   3.157
 3777SOL    HW212231   1.162   3.992   3.241
 3778SOL     OW12232   2.044   0.724   1.821
 3778SOL    HW112233   2.059   0.699   1.916
 3778SOL    HW212234   2.048   0.824   1.812
 3779SOL     OW12235   1.897   5.255   6.970
 3779SOL    HW112236   1.802   5.249   6.939
 3779SOL    HW212237   1.941   5.166   6.961
 3780SOL     OW12238   2.065   6.793   4.075
 3780SOL    HW112239   1.975   6.790   4.119
 3780SOL    HW212240   2.077   6.883   4.032
 3781SOL     OW12241   2.941   5.490   4.781
 3781SOL    HW112242   2.892   5.566   4.739
 3781SOL    HW212243   3.011   5.525   4.843
 3782SOL     OW12244   2.648   1.365   2.337
 3782SOL    HW112245   2.729   1.385   2.392
 3782SOL    HW212246   2.676   1.346   2.243
 3783SOL     OW12247   5.335   4.863   4.852
 3783SOL    HW112248   5.366   4.876   4.946
 3783SOL    HW212249   5.250   4.810   4.852
 3784SOL     OW12250   4.970   2.198   4.458
 3784SOL    HW112251   4.952   2.236   4.367
 3784SOL    HW212252   4.976   2.273   4.525
 3785SOL     OW12253   0.896   0.379   2.064
 3785SOL    HW112254   0.978   0.367   2.119
 3785SOL    HW212255   0.883   0.298   2.005
 3786SOL     OW12256   2.788   6.378   1.729
 3786SOL    HW112257   2.868   6.402   1.674
 3786SOL    HW212258   2.717   6.340   1.669
 3787SOL     OW12259   4.832   0.770   3.953
 3787SOL    HW112260   4.828   0.849   4.014
 3787SOL    HW212261   4.741   0.731   3.942
 3788SOL     OW12262   6.419   3.397   2.429
 3788SOL    HW112263   6.457   3.386   2.337
 3788SOL    HW212264   6.469   3.469   2.477
 3789SOL     OW12265   1.788   5.297   2.207
 3789SOL    HW112266   1.775   5.363   2.133
 3789SOL    HW212267   1.699   5.261   2.236
 3790SOL     OW12268   1.870   2.966   2.706
 3790SOL    HW112269   1.951   2.970   2.646
 3790SOL    HW212270   1.798   2.913   2.660
 3791SOL     OW12271   6.469   0.489   2.714
 3791SOL    HW112272   6.376   0.506   2.746
 3791SOL    HW212273   6.514   0.576   2.694
 3792SOL     OW12274   1.317   5.715   6.454
 3792SOL    HW112275   1.308   5.801   6.403
 3792SOL    HW212276   1.392   5.661   6.415
 3793SOL     OW12277   0.652   5.273   2.484
 3793SOL    HW112278   0.674   5.358   2.531
 3793SOL    HW212279   0.556   5.251   2.496
 3794SOL     OW12280   4.497   0.142   3.805
 3794SOL    HW112281   4.537   0.089   3.880
 3794SOL    HW212282   4.432   0.208   3.843
 3795SOL     OW12283   5.967   0.395   0.544
 3795SOL    HW112284   5.953   0.298   0.566
 3795SOL    HW212285   5.879   0.436   0.518
 3796SOL     OW12286   6.947   2.834   1.158
 3796SOL    HW112287   6.914   2.918   1.199
 3796SOL    HW212288   0.032   2.832   1.162
 3797SOL     OW12289   0.287   5.241   2.778
 3797SOL    HW112290   0.283   5.143   2.758
 3797SOL    HW212291   0.245   5.258   2.867
 3798SOL     OW12292   1.432   4.243   0.506
 3798SOL    HW112293   1.334   4.248   0.528
 3798SOL    HW212294   1.454   4.151   0.474
 3799SOL     OW12295   1.594   0.713   5.409
 3799SOL    HW112296   1.668   0.673   5.464
 3799SOL    HW212297   1.560   0.644   5.345
 3800SOL     OW12298   5.164   2.489   5.114
 3800SOL    HW112299   5.114   2.412   5.152
 3800SOL    HW212300   5.100   2.557   5.079
 3801SOL     OW12301   6.577   0.155   5.901
 3801SOL    HW112302   6.477   0.153   5.906
 3801SOL    HW212303   6.608   0.247   5.876
 3802SOL     OW12304   1.872   2.553   5.437
 3802SOL    HW112305   1.965   2.587   5.448
 3802SOL    HW212306   1.830   2.540   5.527
 3803SOL     OW12307   4.093   1.236   1.319
 3803SOL    HW112308   4.060   1.152   1.276
 3803SOL    HW212309   4.130   1.214   1.409
 3804SOL     OW12310   5.090   3.562   5.012
 3804SOL    HW112311   5.124   3.472   5.040
 3804SOL    HW212312   4.992   3.568   5.030
 3805SOL     OW12313   1.674   3.683   1.297
 3805SOL    HW112314   1.769   3.653   1.290
 3805SOL    HW212315   1.666   3.755   1.365
 3806SOL     OW12316   3.377   1.117   0.428
 3806SOL    HW112317   3.477   1.126   0.438
 3806SOL    HW212318   3.334   1.134   0.517
 3807SOL     OW12319   1.439   6.858   2.963
 3807SOL    HW112320   1.432   6.768   3.008
 3807SOL    HW212321   1.428   6.930   3.031
 3808SOL     OW12322   3.664   1.101   0.519
 3808SOL    HW112323   3.763   1.107   0.527
 3808SOL    HW212324   3.633   1.013   0.555
 3809SOL     OW12325   4.328   1.035   0.310
 3809SOL    HW112326   4.341   0.973   0.233
 3809SOL    HW212327   4.360   1.127   0.285
 3810SOL     OW12328   1.841   4.067   6.749
 3810SOL    HW112329   1.790   4.141   6.794
 3810SOL    HW212330   1.785   4.028   6.676
 3811SOL     OW12331   0.209   0.495   6.583
 3811SOL    HW112332   0.272   0.458   6.652
 3811SOL    HW212333   0.236   0.589   6.562
 3812SOL     OW12334   4.813   0.835   5.579
 3812SOL    HW112335   4.903   0.794   5.568
 3812SOL    HW212336   4.777   0.812   5.670
 3813SOL     OW12337   3.674   4.856   2.445
 3813SOL    HW112338   3.619   4.855   2.361
 3813SOL    HW212339   3.613   4.855   2.524
 3814SOL     OW12340   2.400   0.907   1.546
 3814SOL    HW112341   2.402   0.982   1.612
 3814SOL    HW212342   2.340   0.932   1.469
 3815SOL     OW12343   5.195   2.483   2.043
 3815SOL    HW112344   5.258   2.414   2.008
 3815SOL    HW212345   5.247   2.560   2.079
 3816SOL     OW12346   0.108   6.510   0.336
 3816SOL    HW112347   0.131   6.444   0.264
 3816SOL    HW212348   0.117   6.603   0.300
 3817SOL     OW12349   5.310   2.034   5.142
 3817SOL    HW112350   5.401   2.073   5.129
 3817SOL    HW212351   5.300   1.955   5.081
 3818SOL     OW12352   4.090   5.603   2.568
 3818SOL    HW112353   4.042   5.576   2.652
 3818SOL    HW212354   4.182   5.564   2.569
 3819SOL     OW12355   5.569   3.867   6.190
 3819SOL    HW112356   5.631   3.923   6.134
 3819SOL    HW212357   5.567   3.774   6.154
 3820SOL     OW12358   4.323   6.372   3.507
 3820SOL    HW112359   4.417   6.369   3.474
 3820SOL    HW212360   4.294   6.467   3.515
 3821SOL     OW12361   0.357   4.914   1.364
 3821SOL    HW112362   0.334   5.009   1.383
 3821SOL    HW212363   0.376   4.866   1.450
 3822SOL     OW12364   0.918   4.040   1.153
 3822SOL    HW112365   1.011   4.045   1.119
 3822SOL    HW212366   0.910   3.965   1.219
 3823SOL     OW12367   2.858   3.747   5.660
 3823SOL    HW112368   2.879   3.809   5.584
 3823SOL    HW212369   2.800   3.672   5.627
 3824SOL     OW12370   0.423   2.072   6.149
 3824SOL    HW112371   0.427   2.172   6.155
 3824SOL    HW212372   0.425   2.044   6.054
 3825SOL     OW12373   0.486   6.275   5.939
 3825SOL    HW112374   0.411   6.316   5.887
 3825SOL    HW212375   0.505   6.184   5.904
 3826SOL     OW12376   6.595   2.228   1.299
 3826SOL    HW112377   6.588   2.145   1.352
 3826SOL    HW212378   6.640   2.299   1.353
 3827SOL     OW12379   5.459   1.667   2.235
 3827SOL    HW112380   5.397   1.661   2.313
 3827SOL    HW212381   5.413   1.634   2.153
 3828SOL     OW12382   3.667   0.931   1.864
 3828SOL    HW112383   3.714   1.015   1.892
 3828SOL    HW212384   3.723   0.885   1.794
 3829SOL     OW12385   0.934   5.001   3.670
 3829SOL    HW112386   0.927   4.904   3.692
 3829SOL    HW212387   0.844   5.043   3.674
 3830SOL     OW12388   2.929   0.715   5.337
 3830SOL    HW112389   2.844   0.697   5.287
 3830SOL    HW212390   2.943   0.644   5.406
 3831SOL     OW12391   4.595   1.596   2.050
 3831SOL    HW112392   4.568   1.691   2.034
 3831SOL    HW212393   4.695   1.591   2.057
 3832SOL     OW12394   6.076   6.633   2.065
 3832SOL    HW112395   6.118   6.595   2.147
 3832SOL    HW212396   5.980   6.654   2.083
 3833SOL     OW12397   1.622   6.370   2.344
 3833SOL    HW112398   1.553   6.440   2.358
 3833SOL    HW212399   1.698   6.384   2.407
 3834SOL     OW12400   2.956   2.941   0.265
 3834SOL    HW112401   2.903   3.023   0.245
 3834SOL    HW212402   2.957   2.881   0.185
 3835SOL     OW12403   3.191   5.247   2.804
 3835SOL    HW112404   3.229   5.173   2.859
 3835SOL    HW212405   3.220   5.236   2.709
 3836SOL     OW12406   1.119   2.882   6.176
 3836SOL    HW112407   1.050   2.893   6.247
 3836SOL    HW212408   1.112   2.958   6.112
 3837SOL     OW12409   3.236   4.281   6.844
 3837SOL    HW112410   3.320   4.322   6.808
 3837SOL    HW212411   3.221   4.193   6.800
 3838SOL     OW12412   6.353   3.757   4.710
 3838SOL    HW112413   6.291   3.759   4.789
 3838SOL    HW212414   6.303   3.723   4.630
 3839SOL     OW12415   0.753   5.994   6.492
 3839SOL    HW112416   0.701   5.929   6.437
 3839SOL    HW212417   0.800   6.059   6.432
 3840SOL     OW12418   2.690   2.329   3.284
 3840SOL    HW112419   2.766   2.292   3.337
 3840SOL    HW212420   2.725   2.363   3.196
 3841SOL     OW12421   0.711   3.131   3.666
 3841SOL    HW112422   0.632   3.182   3.633
 3841SOL    HW212423   0.708   3.038   3.631
 3842SOL     OW12424   1.378   4.857   6.801
 3842SOL    HW112425   1.377   4.955   6.822
 3842SOL    HW212426   1.455   4.837   6.740
 3843SOL     OW12427   6.314   4.241   6.801
 3843SOL    HW112428   6.342   4.198   6.716
 3843SOL    HW212429   6.317   4.341   6.791
 3844SOL     OW12430   2.632   4.492   5.646
 3844SOL    HW112431   2.711   4.553   5.643
 3844SOL    HW212432   2.651   4.410   5.592
 3845SOL     OW12433   3.375   3.193   4.428
 3845SOL    HW112434   3.412   3.268   4.372
 3845SOL    HW212435   3.345   3.229   4.516
 3846SOL     OW12436   0.110   4.424   4.878
 3846SOL    HW112437   0.064   4.336   4.884
 3846SOL    HW212438   0.077   4.474   4.797
 3847SOL     OW12439   1.421   6.918   0.577
 3847SOL    HW112440   1.380   7.002   0.612
 3847SOL    HW212441   1.425   6.921   0.477
 3848SOL     OW12442   3.097   6.236   1.665
 3848SOL    HW112443   3.196   6.228   1.679
 3848SOL    HW212444   3.073   6.333   1.657
 3849SOL     OW12445   2.897   1.712   5.739
 3849SOL    HW112446   2.906   1.684   5.834
 3849SOL    HW212447   2.984   1.750   5.706
 3850SOL     OW12448   1.252   3.433   1.331
 3850SOL    HW112449   1.343   3.471   1.348
 3850SOL    HW212450   1.234   3.431   1.233
 3851SOL     OW12451   2.327   2.759   1.140
 3851SOL    HW112452   2.300   2.841   1.189
 3851SOL    HW212453   2.410   2.721   1.181
 3852SOL     OW12454   4.733   1.098   5.506
 3852SOL    HW112455   4.779   1.096   5.417
 3852SOL    HW212456   4.780   1.038   5.570
 3853SOL     OW12457   0.593   3.952   2.341
 3853SOL    HW112458   0.527   3.877   2.336
 3853SOL    HW212459   0.662   3.940   2.269
 3854SOL     OW12460   1.510   3.324   4.437
 3854SOL    HW112461   1.497   3.420   4.414
 3854SOL    HW212462   1.593   3.315   4.492
 3855SOL     OW12463   0.012   1.454   5.303
 3855SOL    HW112464   0.088   1.492   5.355
 3855SOL    HW212465   0.033   1.360   5.277
 3856SOL     OW12466   1.373   6.275   6.403
 3856SOL    HW112467   1.315   6.356   6.416
 3856SOL    HW212468   1.331   6.215   6.335
 3857SOL     OW12469   0.525   0.190   6.529
 3857SOL    HW112470   0.551   0.113   6.588
 3857SOL    HW212471   0.456   0.245   6.576
 3858SOL     OW12472   3.753   4.775   6.813
 3858SOL    HW112473   3.684   4.846   6.804
 3858SOL    HW212474   3.843   4.814   6.797
 3859SOL     OW12475   6.392   2.458   2.527
 3859SOL    HW112476   6.340   2.425   2.448
 3859SOL    HW212477   6.369   2.402   2.607
 3860SOL     OW12478   2.552   5.869   4.764
 3860SOL    HW112479   2.648   5.872   4.792
 3860SOL    HW212480   2.546   5.857   4.665
 3861SOL     OW12481   3.180   4.623   6.782
 3861SOL    HW112482   3.144   4.550   6.724
 3861SOL    HW212483   3.280   4.626   6.773
 3862SOL     OW12484   1.156   5.837   5.945
 3862SOL    HW112485   1.233   5.804   6.000
 3862SOL    HW212486   1.178   5.830   5.848
 3863SOL     OW12487   2.480   3.118   0.210
 3863SOL    HW112488   2.427   3.065   0.144
 3863SOL    HW212489   2.418   3.167   0.271
 3864SOL     OW12490   3.330   1.830   1.098
 3864SOL    HW112491   3.391   1.810   1.174
 3864SOL    HW212492   3.318   1.929   1.091
 3865SOL     OW12493   4.215   0.785   2.323
 3865SOL    HW112494   4.302   0.760   2.282
 3865SOL    HW212495   4.195   0.881   2.305
 3866SOL     OW12496   4.233   6.448   6.881
 3866SOL    HW112497   4.154   6.399   6.843
 3866SOL    HW212498   4.276   6.392   6.951
 3867SOL     OW12499   1.893   4.922   3.193
 3867SOL    HW112500   1.844   4.940   3.107
 3867SOL    HW212501   1.851   4.844   3.239
 3868SOL     OW12502   2.001   5.766   3.187
 3868SOL    HW112503   2.083   5.763   3.243
 3868SOL    HW212504   1.998   5.854   3.138
 3869SOL     OW12505   0.629   1.577   3.873
 3869SOL    HW112506   0.712   1.591   3.927
 3869SOL    HW212507   0.603   1.481   3.876
 3870SOL     OW12508   3.553   3.851   0.360
 3870SOL    HW112509   3.595   3.768   0.322
 3870SOL    HW212510   3.480   3.825   0.424
 3871SOL     OW12511   3.304   0.855   4.266
 3871SOL    HW112512   3.234   0.901   4.211
 3871SOL    HW212513   3.263   0.826   4.353
 3872SOL     OW12514   4.528   4.065   0.745
 3872SOL    HW112515   4.626   4.050   0.759
 3872SOL    HW212516   4.481   4.068   0.833
 3873SOL     OW12517   6.294   4.956   1.789
 3873SOL    HW112518   6.338   4.992   1.707
 3873SOL    HW212519   6.216   4.899   1.763
 3874SOL     OW12520   5.332   6.268   6.029
 3874SOL    HW112521   5.394   6.257   6.107
 3874SOL    HW212522   5.331   6.364   6.000
 3875SOL     OW12523   2.619   3.496   0.183
 3875SOL    HW112524   2.694   3.470   0.244
 3875SOL    HW212525   2.631   3.591   0.154
 3876SOL     OW12526   5.919   3.914   2.420
 3876SOL    HW112527   5.886   4.008   2.414
 3876SOL    HW212528   5.859   3.853   2.367
 3877SOL     OW12529   4.363   2.117   2.038
 3877SOL    HW112530   4.368   2.190   2.106
 3877SOL    HW212531   4.294   2.140   1.969
 3878SOL     OW12532   5.169   5.593   4.842
 3878SOL    HW112533   5.181   5.690   4.822
 3878SOL    HW212534   5.247   5.560   4.894
 3879SOL     OW12535   2.470   5.792   0.643
 3879SOL    HW112536   2.430   5.864   0.701
 3879SOL    HW212537   2.450   5.811   0.547
 3880SOL     OW12538   6.320   1.404   4.365
 3880SOL    HW112539   6.275   1.325   4.323
 3880SOL    HW212540   6.325   1.478   4.298
 3881SOL     OW12541   0.103   5.657   5.915
 3881SOL    HW112542   0.028   5.695   5.968
 3881SOL    HW212543   0.110   5.704   5.827
 3882SOL     OW12544   6.908   6.388   6.469
 3882SOL    HW112545   6.996   6.429   6.444
 3882SOL    HW212546   6.859   6.361   6.387
 3883SOL     OW12547   4.087   2.081   0.090
 3883SOL    HW112548   4.135   2.128   0.165
 3883SOL    HW212549   4.014   2.140   0.056
 3884SOL     OW12550   2.914   5.692   5.804
 3884SOL    HW112551   2.914   5.619   5.873
 3884SOL    HW212552   2.991   5.680   5.743
 3885SOL     OW12553   6.818   0.455   3.385
 3885SOL    HW112554   6.890   0.492   3.326
 3885SOL    HW212555   6.858   0.386   3.446
 3886SOL     OW12556   6.827   5.982   4.370
 3886SOL    HW112557   6.772   6.037   4.432
 3886SOL    HW212558   6.915   6.027   4.354
 3887SOL     OW12559   6.306   2.983   4.831
 3887SOL    HW112560   6.357   3.009   4.913
 3887SOL    HW212561   6.358   3.012   4.750
 3888SOL     OW12562   5.286   0.928   2.856
 3888SOL    HW112563   5.230   0.873   2.919
 3888SOL    HW212564   5.376   0.942   2.897
 3889SOL     OW12565   6.608   5.633   6.501
 3889SOL    HW112566   6.567   5.704   6.560
 3889SOL    HW212567   6.537   5.572   6.468
 3890SOL     OW12568   6.163   3.503   3.105
 3890SOL    HW112569   6.239   3.530   3.046
 3890SOL    HW212570   6.102   3.443   3.055
 3891SOL     OW12571   4.101   4.228   5.701
 3891SOL    HW112572   4.027   4.173   5.739
 3891SOL    HW212573   4.122   4.196   5.608
 3892SOL     OW12574   5.553   5.909   3.917
 3892SOL    HW112575   5.467   5.959   3.901
 3892SOL    HW212576   5.533   5.812   3.932
 3893SOL     OW12577   2.390   6.407   4.487
 3893SOL    HW112578   2.472   6.383   4.540
 3893SOL    HW212579   2.308   6.383   4.539
 3894SOL     OW12580   5.924   5.389   6.547
 3894SOL    HW112581   5.970   5.301   6.538
 3894SOL    HW212582   5.975   5.447   6.611
 3895SOL     OW12583   1.499   2.075   6.120
 3895SOL    HW112584   1.439   2.139   6.073
 3895SOL    HW212585   1.451   2.035   6.198
 3896SOL     OW12586   6.258   2.536   0.183
 3896SOL    HW112587   6.345   2.587   0.185
 3896SOL    HW212588   6.257   2.470   0.258
 3897SOL     OW12589   2.603   6.746   3.073
 3897SOL    HW112590   2.621   6.785   3.164
 3897SOL    HW212591   2.627   6.813   3.003
 3898SOL     OW12592   2.944   3.576   3.669
 3898SOL    HW112593   2.887   3.582   3.751
 3898SOL    HW212594   2.965   3.668   3.636
 3899SOL     OW12595   4.707   2.210   6.577
 3899SOL    HW112596   4.790   2.161   6.605
 3899SOL    HW212597   4.628   2.172   6.625
 3900SOL     OW12598   0.833   2.579   3.530
 3900SOL    HW112599   0.740   2.541   3.531
 3900SOL    HW212600   0.887   2.536   3.602
 3901SOL     OW12601   3.615   6.502   4.672
 3901SOL    HW112602   3.577   6.577   4.726
 3901SOL    HW212603   3.714   6.496   4.688
 3902SOL     OW12604   3.358   5.518   3.062
 3902SOL    HW112605   3.277   5.544   3.114
 3902SOL    HW212606   3.440   5.534   3.117
 3903SOL     OW12607   3.296   3.725   6.464
 3903SOL    HW112608   3.217   3.668   6.488
 3903SOL    HW212609   3.280   3.769   6.376
 3904SOL     OW12610   2.661   6.120   0.802
 3904SOL    HW112611   2.685   6.023   0.803
 3904SOL    HW212612   2.743   6.175   0.821
 3905SOL     OW12613   4.123   0.297   5.524
 3905SOL    HW112614   4.060   0.220   5.539
 3905SOL    HW212615   4.178   0.312   5.605
 3906SOL     OW12616   6.288   5.913   4.048
 3906SOL    HW112617   6.371   5.860   4.068
 3906SOL    HW212618   6.233   5.921   4.131
 3907SOL     OW12619   0.825   1.421   4.864
 3907SOL    HW112620   0.765   1.424   4.944
 3907SOL    HW212621   0.816   1.506   4.813
 3908SOL     OW12622   2.098   1.828   4.619
 3908SOL    HW112623   2.142   1.809   4.706
 3908SOL    HW212624   2.144   1.905   4.574
 3909SOL     OW12625   5.938   3.528   2.113
 3909SOL    HW112626   5.967   3.451   2.056
 3909SOL    HW212627   6.007   3.601   2.107
 3910SOL     OW12628   2.192   2.458   0.591
 3910SOL    HW112629   2.203   2.414   0.680
 3910SOL    HW212630   2.252   2.413   0.524
 3911SOL     OW12631   5.883   1.299   1.322
 3911SOL    HW112632   5.974   1.286   1.361
 3911SOL    HW212633   5.824   1.223   1.349
 3912SOL     OW12634   5.160   4.254   0.405
 3912SOL    HW112635   5.095   4.324   0.436
 3912SOL    HW212636   5.253   4.284   0.424
 3913SOL     OW12637   4.158   4.483   1.387
 3913SOL    HW112638   4.069   4.476   1.343
 3913SOL    HW212639   4.181   4.398   1.433
 3914SOL     OW12640   0.341   0.910   0.419
 3914SOL    HW112641   0.319   0.990   0.364
 3914SOL    HW212642   0.440   0.894   0.416
 3915SOL     OW12643   5.142   0.549   4.928
 3915SOL    HW112644   5.201   0.471   4.950
 3915SOL    HW212645   5.197   0.632   4.923
 3916SOL     OW12646   1.893   2.613   1.986
 3916SOL    HW112647   1.879   2.563   1.900
 3916SOL    HW212648   1.966   2.680   1.973
 3917SOL     OW12649   4.270   5.447   2.383
 3917SOL    HW112650   4.201   5.392   2.430
 3917SOL    HW212651   4.226   5.503   2.313
 3918SOL     OW12652   3.796   6.880   1.268
 3918SOL    HW112653   3.837   6.812   1.208
 3918SOL    HW212654   3.752   6.951   1.213
 3919SOL     OW12655   5.016   4.904   3.304
 3919SOL    HW112656   5.077   4.836   3.343
 3919SOL    HW212657   4.941   4.923   3.368
 3920SOL     OW12658   4.732   1.060   6.110
 3920SOL    HW112659   4.699   1.017   6.026
 3920SOL    HW212660   4.792   1.136   6.086
 3921SOL     OW12661   0.885   2.896   5.899
 3921SOL    HW112662   0.960   2.832   5.885
 3921SOL    HW212663   0.904   2.982   5.853
 3922SOL     OW12664   5.668   2.016   3.761
 3922SOL    HW112665   5.571   2.016   3.738
 3922SOL    HW212666   5.680   1.989   3.857
 3923SOL     OW12667   5.272   1.076   1.161
 3923SOL    HW112668   5.221   1.161   1.170
 3923SOL    HW212669   5.245   1.030   1.076
 3924SOL     OW12670   5.483   5.042   3.733
 3924SOL    HW112671   5.456   5.138   3.733
 3924SOL    HW212672   5.455   4.999   3.819
 3925SOL     OW12673   3.588   4.438   1.736
 3925SOL    HW112674   3.594   4.531   1.772
 3925SOL    HW212675   3.498   4.399   1.758
 3926SOL     OW12676   1.284   5.821   5.318
 3926SOL    HW112677   1.324   5.899   5.367
 3926SOL    HW212678   1.354   5.777   5.263
 3927SOL     OW12679   6.087   6.337   5.289
 3927SOL    HW112680   6.011   6.274   5.307
 3927SOL    HW212681   6.082   6.370   5.195
 3928SOL     OW12682   4.648   5.592   2.774
 3928SOL    HW112683   4.675   5.505   2.734
 3928SOL    HW212684   4.729   5.648   2.791
 3929SOL     OW12685   2.038   1.275   5.370
 3929SOL    HW112686   2.093   1.326   5.304
 3929SOL    HW212687   1.943   1.304   5.363
 3930SOL     OW12688   2.464   5.595   4.413
 3930SOL    HW112689   2.414   5.573   4.496
 3930SOL    HW212690   2.461   5.517   4.350
 3931SOL     OW12691   0.420   2.281   0.132
 3931SOL    HW112692   0.363   2.205   0.163
 3931SOL    HW212693   0.433   2.275   0.033
 3932SOL     OW12694   1.926   4.445   2.675
 3932SOL    HW112695   1.937   4.355   2.718
 3932SOL    HW212696   2.006   4.501   2.695
 3933SOL     OW12697   1.459   6.747   1.107
 3933SOL    HW112698   1.433   6.831   1.156
 3933SOL    HW212699   1.385   6.720   1.046
 3934SOL     OW12700   1.944   6.824   2.107
 3934SOL    HW112701   1.954   6.787   2.200
 3934SOL    HW212702   2.004   6.903   2.096
 3935SOL     OW12703   0.054   1.116   4.975
 3935SOL    HW112704   0.076   1.059   4.896
 3935SOL    HW212705   6.990   1.173   4.954
 3936SOL     OW12706   6.716   4.702   3.724
 3936SOL    HW112707   6.708   4.799   3.702
 3936SOL    HW212708   6.629   4.668   3.758
 3937SOL     OW12709   1.307   5.956   0.050
 3937SOL    HW112710   1.269   5.914   6.983
 3937SOL    HW212711   1.233   5.984   0.110
 3938SOL     OW12712   0.517   4.750   6.473
 3938SOL    HW112713   0.579   4.672   6.462
 3938SOL    HW212714   0.450   4.729   6.545
 3939SOL     OW12715   2.107   6.176   4.260
 3939SOL    HW112716   2.125   6.100   4.197
 3939SOL    HW212717   2.183   6.240   4.257
 3940SOL     OW12718   2.865   6.333   0.013
 3940SOL    HW112719   2.863   6.364   0.109
 3940SOL    HW212720   2.885   6.410   6.969
 3941SOL     OW12721   5.754   5.558   2.295
 3941SOL    HW112722   5.849   5.591   2.291
 3941SOL    HW212723   5.743   5.498   2.374
 3942SOL     OW12724   0.581   6.423   6.813
 3942SOL    HW112725   0.555   6.509   6.858
 3942SOL    HW212726   0.515   6.351   6.837
 3943SOL     OW12727   0.776   5.343   0.412
 3943SOL    HW112728   0.855   5.300   0.456
 3943SOL    HW212729   0.693   5.318   0.463
 3944SOL     OW12730   4.710   2.760   0.553
 3944SOL    HW112731   4.746   2.817   0.627
 3944SOL    HW212732   4.620   2.792   0.526
 3945SOL     OW12733   6.927   0.909   2.644
 3945SOL    HW112734   6.939   0.817   2.606
 3945SOL    HW212735   6.880   0.902   2.732
 3946SOL     OW12736   5.607   1.862   1.339
 3946SOL    HW112737   5.602   1.776   1.391
 3946SOL    HW212738   5.514   1.895   1.322
 3947SOL     OW12739   5.277   0.267   1.806
 3947SOL    HW112740   5.275   0.175   1.768
 3947SOL    HW212741   5.367   0.287   1.844
 3948SOL     OW12742   1.836   1.713   4.332
 3948SOL    HW112743   1.752   1.758   4.363
 3948SOL    HW212744   1.900   1.783   4.299
 3949SOL     OW12745   6.194   0.237   2.493
 3949SOL    HW112746   6.217   0.317   2.439
 3949SOL    HW212747   6.167   0.162   2.433
 3950SOL     OW12748   2.418   4.613   1.762
 3950SOL    HW112749   2.372   4.676   1.699
 3950SOL    HW212750   2.502   4.656   1.796
 3951SOL     OW12751   6.687   2.478   3.922
 3951SOL    HW112752   6.656   2.401   3.866
 3951SOL    HW212753   6.620   2.552   3.919
 3952SOL     OW12754   5.935   5.075   6.813
 3952SOL    HW112755   5.965   5.044   6.723
 3952SOL    HW212756   5.868   5.011   6.850
 3953SOL     OW12757   3.460   3.100   5.200
 3953SOL    HW112758   3.531   3.031   5.181
 3953SOL    HW212759   3.370   3.059   5.187
 3954SOL     OW12760   1.005   4.615   5.454
 3954SOL    HW112761   1.062   4.601   5.373
 3954SOL    HW212762   0.976   4.526   5.490
 3955SOL     OW12763   5.742   3.217   6.976
 3955SOL    HW112764   5.789   3.286   6.920
 3955SOL    HW212765   5.766   3.126   6.943
 3956SOL     OW12766   6.493   3.094   5.059
 3956SOL    HW112767   6.489   3.182   5.105
 3956SOL    HW212768   6.571   3.042   5.093
 3957SOL     OW12769   1.887   2.863   1.633
 3957SOL    HW112770   1.924   2.844   1.542
 3957SOL    HW212771   1.890   2.961   1.651
 3958SOL     OW12772   5.962   5.703   1.613
 3958SOL    HW112773   5.884   5.748   1.656
 3958SOL    HW212774   5.965   5.607   1.642
 3959SOL     OW12775   3.180   4.845   1.223
 3959SOL    HW112776   3.208   4.828   1.318
 3959SOL    HW212777   3.250   4.899   1.177
 3960SOL     OW12778   5.991   3.381   0.927
 3960SOL    HW112779   6.024   3.320   0.999
 3960SOL    HW212780   6.057   3.379   0.851
 3961SOL     OW12781   6.947   1.534   0.856
 3961SOL    HW112782   6.886   1.516   0.779
 3961SOL    HW212783   7.007   1.611   0.835
 3962SOL     OW12784   0.099   6.537   6.352
 3962SOL    HW112785   0.108   6.628   6.393
 3962SOL    HW212786   0.112   6.543   6.253
 3963SOL     OW12787   5.294   3.747   4.673
 3963SOL    HW112788   5.229   3.678   4.704
 3963SOL    HW212789   5.345   3.782   4.752
 3964SOL     OW12790   6.020   4.386   6.734
 3964SOL    HW112791   6.032   4.381   6.833
 3964SOL    HW212792   6.108   4.375   6.689
 3965SOL     OW12793   2.343   4.183   1.514
 3965SOL    HW112794   2.392   4.238   1.582
 3965SOL    HW212795   2.379   4.202   1.423
 3966SOL     OW12796   6.957   3.092   5.402
 3966SOL    HW112797   6.938   3.187   5.376
 3966SOL    HW212798   0.035   3.068   5.373
 3967SOL     OW12799   1.818   0.537   0.209
 3967SOL    HW112800   1.857   0.488   0.287
 3967SOL    HW212801   1.847   0.632   0.211
 3968SOL     OW12802   4.470   2.832   0.869
 3968SOL    HW112803   4.421   2.748   0.846
 3968SOL    HW212804   4.560   2.830   0.826
 3969SOL     OW12805   6.106   6.156   1.149
 3969SOL    HW112806   6.089   6.058   1.143
 3969SOL    HW212807   6.028   6.201   1.191
 3970SOL     OW12808   5.459   4.275   4.142
 3970SOL    HW112809   5.473   4.357   4.087
 3970SOL    HW212810   5.486   4.292   4.237
 3971SOL     OW12811   0.011   5.644   4.191
 3971SOL    HW112812   0.060   5.619   4.274
 3971SOL    HW212813   6.931   5.614   4.198
 3972SOL     OW12814   1.189   0.720   6.667
 3972SOL    HW112815   1.235   0.672   6.592
 3972SOL    HW212816   1.102   0.675   6.686
 3973SOL     OW12817   3.899   3.017   2.000
 3973SOL    HW112818   3.866   3.107   1.973
 3973SOL    HW212819   3.920   2.963   1.918
 3974SOL     OW12820   5.293   1.136   7.005
 3974SOL    HW112821   5.314   1.201   6.932
 3974SOL    HW212822   5.217   1.077   6.977
 3975SOL     OW12823   6.881   5.918   3.985
 3975SOL    HW112824   6.970   5.886   4.018
 3975SOL    HW212825   6.861   6.007   4.028
 3976SOL     OW12826   0.675   2.712   5.672
 3976SOL    HW112827   0.647   2.806   5.651
 3976SOL    HW212828   0.663   2.695   5.769
 3977SOL     OW12829   2.529   4.845   5.980
 3977SOL    HW112830   2.550   4.845   6.078
 3977SOL    HW212831   2.604   4.800   5.931
 3978SOL     OW12832   4.824   2.536   5.794
 3978SOL    HW112833   4.735   2.493   5.812
 3978SOL    HW212834   4.809   2.625   5.749
 3979SOL     OW12835   0.957   5.505   2.791
 3979SOL    HW112836   1.021   5.429   2.792
 3979SOL    HW212837   0.877   5.481   2.736
 3980SOL     OW12838   5.038   4.066   4.288
 3980SOL    HW112839   5.055   4.124   4.367
 3980SOL    HW212840   4.965   4.001   4.309
 3981SOL     OW12841   7.004   0.904   6.612
 3981SOL    HW112842   6.974   0.905   6.516
 3981SOL    HW212843   0.041   0.987   6.631
 3982SOL     OW12844   2.152   3.132   4.552
 3982SOL    HW112845   2.181   3.130   4.647
 3982SOL    HW212846   2.065   3.083   4.542
 3983SOL     OW12847   2.982   0.852   3.516
 3983SOL    HW112848   3.078   0.827   3.503
 3983SOL    HW212849   2.938   0.785   3.577
 3984SOL     OW12850   1.401   5.972   1.928
 3984SOL    HW112851   1.335   5.987   1.854
 3984SOL    HW212852   1.408   6.056   1.983
 3985SOL     OW12853   1.703   2.671   1.367
 3985SOL    HW112854   1.751   2.666   1.455
 3985SOL    HW212855   1.733   2.751   1.317
 3986SOL     OW12856   0.393   1.700   3.298
 3986SOL    HW112857   0.374   1.698   3.200
 3986SOL    HW212858   0.469   1.638   3.318
 3987SOL     OW12859   0.783   4.152   5.489
 3987SOL    HW112860   0.813   4.073   5.436
 3987SOL    HW212861   0.684   4.148   5.502
 3988SOL     OW12862   5.281   6.612   1.864
 3988SOL    HW112863   5.306   6.656   1.950
 3988SOL    HW212864   5.245   6.521   1.882
 3989SOL     OW12865   4.107   0.458   5.902
 3989SOL    HW112866   4.142   0.373   5.864
 3989SOL    HW212867   4.102   0.451   6.002
 3990SOL     OW12868   5.990   0.367   4.108
 3990SOL    HW112869   5.960   0.392   4.016
 3990SOL    HW212870   6.072   0.419   4.131
 3991SOL     OW12871   6.541   2.088   3.342
 3991SOL    HW112872   6.457   2.050   3.381
 3991SOL    HW212873   6.528   2.186   3.325
 3992SOL     OW12874   5.898   3.666   5.913
 3992SOL    HW112875   5.853   3.734   5.855
 3992SOL    HW212876   5.914   3.583   5.860
 3993SOL     OW12877   1.657   1.049   4.222
 3993SOL    HW112878   1.695   1.104   4.148
 3993SOL    HW212879   1.660   1.102   4.307
 3994SOL     OW12880   3.030   2.142   3.667
 3994SOL    HW112881   3.078   2.123   3.581
 3994SOL    HW212882   3.001   2.056   3.708
 3995SOL     OW12883   1.499   3.369   1.981
 3995SOL    HW112884   1.414   3.409   2.013
 3995SOL    HW212885   1.484   3.319   1.896
 3996SOL     OW12886   0.482   6.361   5.098
 3996SOL    HW112887   0.534   6.366   5.183
 3996SOL    HW212888   0.387   6.339   5.118
 3997SOL     OW12889   5.576   3.550   4.806
 3997SOL    HW112890   5.669   3.522   4.783
 3997SOL    HW212891   5.554   3.636   4.759
 3998SOL     OW12892   3.652   2.137   3.643
 3998SOL    HW112893   3.657   2.207   3.715
 3998SOL    HW212894   3.567   2.085   3.653
 3999SOL     OW12895   5.194   3.811   0.913
 3999SOL    HW112896   5.136   3.892   0.921
 3999SOL    HW212897   5.239   3.811   0.824
 4000SOL     OW12898   2.071   4.690   2.808
 4000SOL    HW112899   1.987   4.742   2.792
 4000SOL    HW212900   2.143   4.724   2.747
 4001SOL     OW12901   0.535   6.210   4.749
 4001SOL    HW112902   0.450   6.183   4.705
 4001SOL    HW212903   0.565   6.298   4.711
 4002SOL     OW12904   3.774   3.977   4.903
 4002SOL    HW112905   3.681   4.010   4.920
 4002SOL    HW212906   3.770   3.884   4.865
 4003SOL     OW12907   2.743   1.030   4.700
 4003SOL    HW112908   2.658   0.978   4.691
 4003SOL    HW212909   2.766   1.071   4.611
 4004SOL     OW12910   1.634   3.384   5.162
 4004SOL    HW112911   1.710   3.436   5.203
 4004SOL    HW212912   1.669   3.327   5.088
 4005SOL     OW12913   5.531   3.302   0.899
 4005SOL    HW112914   5.463   3.341   0.961
 4005SOL    HW212915   5.620   3.301   0.945
 4006SOL     OW12916   6.976   5.926   1.778
 4006SOL    HW112917   0.055   5.911   1.807
 4006SOL    HW212918   6.973   5.997   1.707
 4007SOL     OW12919   0.317   1.008   1.285
 4007SOL    HW112920   0.409   1.008   1.323
 4007SOL    HW212921   0.322   1.015   1.185
 4008SOL     OW12922   4.275   1.021   1.616
 4008SOL    HW112923   4.345   0.959   1.581
 4008SOL    HW212924   4.219   0.973   1.684
 4009SOL     OW12925   3.495   2.452   1.359
 4009SOL    HW112926   3.558   2.376   1.373
 4009SOL    HW212927   3.486   2.504   1.443
 4010SOL     OW12928   1.739   4.888   0.939
 4010SOL    HW112929   1.755   4.877   1.037
 4010SOL    HW212930   1.658   4.945   0.926
 4011SOL     OW12931   5.962   6.765   6.240
 4011SOL    HW112932   5.929   6.798   6.152
 4011SOL    HW212933   5.896   6.787   6.312
 4012SOL     OW12934   5.283   5.159   1.527
 4012SOL    HW112935   5.262   5.089   1.459
 4012SOL    HW212936   5.242   5.134   1.614
 4013SOL     OW12937   7.009   1.836   6.998
 4013SOL    HW112938   6.910   1.821   6.993
 4013SOL    HW212939   0.027   1.867   6.909
 4014SOL     OW12940   2.876   5.957   2.643
 4014SOL    HW112941   2.962   5.941   2.594
 4014SOL    HW212942   2.801   5.910   2.595
 4015SOL     OW12943   4.060   6.646   5.015
 4015SOL    HW112944   4.066   6.632   4.916
 4015SOL    HW212945   3.965   6.639   5.044
 4016SOL     OW12946   4.857   5.157   4.656
 4016SOL    HW112947   4.776   5.147   4.713
 4016SOL    HW212948   4.905   5.241   4.681
 4017SOL     OW12949   2.094   5.964   6.025
 4017SOL    HW112950   2.118   5.910   6.106
 4017SOL    HW212951   2.060   6.054   6.054
 4018SOL     OW12952   5.106   5.155   0.479
 4018SOL    HW112953   5.190   5.209   0.482
 4018SOL    HW212954   5.105   5.090   0.555
 4019SOL     OW12955   0.540   2.454   3.282
 4019SOL    HW112956   0.607   2.528   3.282
 4019SOL    HW212957   0.584   2.369   3.314
 4020SOL     OW12958   6.542   5.774   4.134
 4020SOL    HW112959   6.587   5.740   4.217
 4020SOL    HW212960   6.561   5.872   4.125
 4021SOL     OW12961   5.019   5.364   5.929
 4021SOL    HW112962   4.980   5.304   5.999
 4021SOL    HW212963   5.034   5.313   5.845
 4022SOL     OW12964   3.366   0.051   1.385
 4022SOL    HW112965   3.431   0.043   1.459
 4022SOL    HW212966   3.377   6.990   1.322
 4023SOL     OW12967   1.078   1.890   4.298
 4023SOL    HW112968   1.029   1.976   4.312
 4023SOL    HW212969   1.097   1.878   4.201
 4024SOL     OW12970   0.989   6.625   6.310
 4024SOL    HW112971   0.929   6.567   6.365
 4024SOL    HW212972   0.964   6.721   6.322
 4025SOL     OW12973   0.168   4.172   4.616
 4025SOL    HW112974   0.229   4.144   4.690
 4025SOL    HW212975   0.216   4.236   4.556
 4026SOL     OW12976   0.453   6.346   4.218
 4026SOL    HW112977   0.514   6.399   4.277
 4026SOL    HW212978   0.473   6.249   4.229
 4027SOL     OW12979   2.708   5.316   5.116
 4027SOL    HW112980   2.726   5.233   5.170
 4027SOL    HW212981   2.741   5.396   5.167
 4028SOL     OW12982   5.137   1.704   4.524
 4028SOL    HW112983   5.071   1.684   4.597
 4028SOL    HW212984   5.152   1.803   4.517
 4029SOL     OW12985   1.612   6.647   0.494
 4029SOL    HW112986   1.603   6.685   0.586
 4029SOL    HW212987   1.524   6.607   0.465
 4030SOL     OW12988   1.185   1.361   1.726
 4030SOL    HW112989   1.192   1.353   1.627
 4030SOL    HW212990   1.092   1.341   1.755
 4031SOL     OW12991   5.641   5.813   0.672
 4031SOL    HW112992   5.680   5.817   0.580
 4031SOL    HW212993   5.599   5.901   0.694
 4032SOL     OW12994   5.289   2.026   2.153
 4032SOL    HW112995   5.228   2.032   2.074
 4032SOL    HW212996   5.276   1.938   2.199
 4033SOL     OW12997   1.574   2.998   2.841
 4033SOL    HW112998   1.622   2.924   2.888
 4033SOL    HW212999   1.588   2.989   2.742
 4034SOL     OW13000   2.179   2.463   4.539
 4034SOL    HW113001   2.213   2.550   4.504
 4034SOL    HW213002   2.225   2.441   4.626
 4035SOL     OW13003   3.843   2.268   1.664
 4035SOL    HW113004   3.761   2.292   1.715
 4035SOL    HW213005   3.882   2.350   1.623
 4036SOL     OW13006   4.106   6.044   3.522
 4036SOL    HW113007   4.121   5.974   3.452
 4036SOL    HW213008   4.175   6.035   3.594
 4037SOL     OW13009   1.808   1.273   6.130
 4037SOL    HW113010   1.783   1.278   6.033
 4037SOL    HW213011   1.812   1.365   6.169
 4038SOL     OW13012   3.862   4.629   5.848
 4038SOL    HW113013   3.781   4.575   5.825
 4038SOL    HW213014   3.928   4.571   5.895
 4039SOL     OW13015   6.260   4.648   1.384
 4039SOL    HW113016   6.313   4.563   1.384
 4039SOL    HW213017   6.322   4.725   1.368
 4040SOL     OW13018   2.740   0.232   4.896
 4040SOL    HW113019   2.827   0.268   4.862
 4040SOL    HW213020   2.665   0.270   4.842
 4041SOL     OW13021   1.488   6.190   1.603
 4041SOL    HW113022   1.402   6.227   1.568
 4041SOL    HW213023   1.479   6.172   1.701
 4042SOL     OW13024   0.359   1.406   3.595
 4042SOL    HW113025   0.334   1.310   3.585
 4042SOL    HW213026   0.314   1.460   3.524
 4043SOL     OW13027   4.389   2.095   6.057
 4043SOL    HW113028   4.479   2.056   6.075
 4043SOL    HW213029   4.348   2.126   6.143
 4044SOL     OW13030   4.444   4.493   3.183
 4044SOL    HW113031   4.365   4.550   3.202
 4044SOL    HW213032   4.441   4.411   3.239
 4045SOL     OW13033   4.635   1.282   4.936
 4045SOL    HW113034   4.613   1.290   5.033
 4045SOL    HW213035   4.569   1.335   4.883
 4046SOL     OW13036   4.937   1.446   4.074
 4046SOL    HW113037   4.883   1.441   4.158
 4046SOL    HW213038   4.906   1.376   4.010
 4047SOL     OW13039   3.065   2.233   6.538
 4047SOL    HW113040   3.149   2.281   6.561
 4047SOL    HW213041   3.083   2.134   6.532
 4048SOL     OW13042   4.680   2.258   3.576
 4048SOL    HW113043   4.667   2.335   3.639
 4048SOL    HW213044   4.749   2.283   3.508
 4049SOL     OW13045   4.253   4.092   1.308
 4049SOL    HW113046   4.252   3.992   1.311
 4049SOL    HW213047   4.307   4.126   1.385
 4050SOL     OW13048   6.752   4.837   3.145
 4050SOL    HW113049   6.694   4.893   3.203
 4050SOL    HW213050   6.815   4.896   3.094
 4051SOL     OW13051   5.840   1.157   4.245
 4051SOL    HW113052   5.750   1.182   4.209
 4051SOL    HW213053   5.896   1.117   4.172
 4052SOL     OW13054   4.894   1.714   4.359
 4052SOL    HW113055   4.966   1.718   4.429
 4052SOL    HW213056   4.904   1.793   4.298
 4053SOL     OW13057   0.361   4.894   3.933
 4053SOL    HW113058   0.440   4.864   3.986
 4053SOL    HW213059   0.360   4.994   3.928
 4054SOL     OW13060   4.697   4.071   1.176
 4054SOL    HW113061   4.775   4.023   1.216
 4054SOL    HW213062   4.659   4.135   1.242
 4055SOL     OW13063   6.871   4.505   0.058
 4055SOL    HW113064   6.908   4.413   0.066
 4055SOL    HW213065   6.806   4.508   6.997
 4056SOL     OW13066   5.087   3.724   0.100
 4056SOL    HW113067   5.044   3.809   0.128
 4056SOL    HW213068   5.024   3.648   0.115
 4057SOL     OW13069   6.990   4.131   5.901
 4057SOL    HW113070   6.924   4.205   5.893
 4057SOL    HW213071   0.041   4.153   5.972
 4058SOL     OW13072   3.784   0.747   4.173
 4058SOL    HW113073   3.768   0.776   4.078
 4058SOL    HW213074   3.801   0.828   4.229
 4059SOL     OW13075   1.000   1.471   4.173
 4059SOL    HW113076   0.931   1.446   4.240
 4059SOL    HW213077   1.071   1.400   4.170
 4060SOL     OW13078   0.070   6.317   4.326
 4060SOL    HW113079   6.995   6.358   4.342
 4060SOL    HW213080   0.091   6.320   4.228
 4061SOL     OW13081   1.281   4.324   1.875
 4061SOL    HW113082   1.370   4.285   1.898
 4061SOL    HW213083   1.293   4.408   1.822
 4062SOL     OW13084   2.412   4.420   0.294
 4062SOL    HW113085   2.337   4.426   0.359
 4062SOL    HW213086   2.389   4.354   0.222
 4063SOL     OW13087   3.821   0.869   1.071
 4063SOL    HW113088   3.893   0.931   1.100
 4063SOL    HW213089   3.807   0.798   1.140
 4064SOL     OW13090   2.306   0.457   4.827
 4064SOL    HW113091   2.337   0.548   4.852
 4064SOL    HW213092   2.219   0.464   4.778
 4065SOL     OW13093   2.307   1.402   1.537
 4065SOL    HW113094   2.329   1.334   1.467
 4065SOL    HW213095   2.218   1.444   1.515
 4066SOL     OW13096   0.326   3.790   4.442
 4066SOL    HW113097   0.230   3.803   4.414
 4066SOL    HW213098   0.385   3.797   4.361
 4067SOL     OW13099   6.531   4.747   0.846
 4067SOL    HW113100   6.607   4.738   0.910
 4067SOL    HW213101   6.563   4.726   0.753
 4068SOL     OW13102   1.634   2.681   5.719
 4068SOL    HW113103   1.692   2.601   5.705
 4068SOL    HW213104   1.642   2.743   5.641
 4069SOL     OW13105   4.689   6.902   5.606
 4069SOL    HW113106   4.645   6.881   5.693
 4069SOL    HW213107   4.765   6.965   5.621
 4070SOL     OW13108   1.889   3.327   4.274
 4070SOL    HW113109   1.876   3.415   4.228
 4070SOL    HW213110   1.862   3.253   4.213
 4071SOL     OW13111   1.625   0.566   4.853
 4071SOL    HW113112   1.616   0.556   4.754
 4071SOL    HW213113   1.709   0.617   4.874
 4072SOL     OW13114   2.973   6.632   2.604
 4072SOL    HW113115   2.948   6.548   2.557
 4072SOL    HW213116   3.053   6.673   2.560
 4073SOL     OW13117   3.994   5.030   6.652
 4073SOL    HW113118   3.948   5.099   6.707
 4073SOL    HW213119   3.995   4.943   6.700
 4074SOL     OW13120   1.561   5.636   2.462
 4074SOL    HW113121   1.649   5.589   2.458
 4074SOL    HW213122   1.515   5.628   2.373
 4075SOL     OW13123   6.137   0.754   6.968
 4075SOL    HW113124   6.145   0.773   0.051
 4075SOL    HW213125   6.147   0.839   6.917
 4076SOL     OW13126   1.712   5.711   4.016
 4076SOL    HW113127   1.633   5.684   3.961
 4076SOL    HW213128   1.759   5.630   4.050
 4077SOL     OW13129   3.077   1.924   1.532
 4077SOL    HW113130   3.027   1.954   1.451
 4077SOL    HW213131   3.050   1.980   1.610
 4078SOL     OW13132   4.263   4.996   2.308
 4078SOL    HW113133   4.250   5.010   2.406
 4078SOL    HW213134   4.345   5.045   2.278
 4079SOL     OW13135   0.664   1.770   4.263
 4079SOL    HW113136   0.587   1.759   4.201
 4079SOL    HW213137   0.667   1.865   4.296
 4080SOL     OW13138   6.327   2.317   4.252
 4080SOL    HW113139   6.291   2.357   4.336
 4080SOL    HW213140   6.427   2.316   4.256
 4081SOL     OW13141   7.010   4.005   2.996
 4081SOL    HW113142   6.994   3.906   2.999
 4081SOL    HW213143   6.982   4.041   2.907
 4082SOL     OW13144   0.316   3.201   7.002
 4082SOL    HW113145   0.372   3.239   0.061
 4082SOL    HW213146   0.367   3.128   6.956
 4083SOL     OW13147   6.510   3.173   4.763
 4083SOL    HW113148   6.471   3.197   4.852
 4083SOL    HW213149   6.606   3.201   4.760
 4084SOL     OW13150   5.835   0.858   4.802
 4084SOL    HW113151   5.840   0.804   4.719
 4084SOL    HW213152   5.766   0.820   4.864
 4085SOL     OW13153   3.325   5.716   6.521
 4085SOL    HW113154   3.272   5.784   6.571
 4085SOL    HW213155   3.405   5.690   6.575
 4086SOL     OW13156   0.864   3.345   1.613
 4086SOL    HW113157   0.891   3.249   1.617
 4086SOL    HW213158   0.915   3.397   1.682
 4087SOL     OW13159   2.181   1.187   3.342
 4087SOL    HW113160   2.232   1.223   3.265
 4087SOL    HW213161   2.091   1.229   3.346
 4088SOL     OW13162   6.855   2.102   6.901
 4088SOL    HW113163   6.829   2.190   6.940
 4088SOL    HW213164   6.841   2.030   6.969
 4089SOL     OW13165   0.628   1.038   5.903
 4089SOL    HW113166   0.542   1.073   5.867
 4089SOL    HW213167   0.610   0.970   5.973
 4090SOL     OW13168   3.400   5.118   6.281
 4090SOL    HW113169   3.473   5.180   6.307
 4090SOL    HW213170   3.405   5.100   6.183
 4091SOL     OW13171   4.989   6.744   1.323
 4091SOL    HW113172   4.896   6.768   1.296
 4091SOL    HW213173   5.026   6.817   1.381
 4092SOL     OW13174   0.570   1.414   4.231
 4092SOL    HW113175   0.665   1.437   4.210
 4092SOL    HW213176   0.524   1.495   4.266
 4093SOL     OW13177   5.214   6.974   4.014
 4093SOL    HW113178   5.229   6.875   4.021
 4093SOL    HW213179   5.281   0.007   4.071
 4094SOL     OW13180   3.431   3.597   5.946
 4094SOL    HW113181   3.508   3.549   5.987
 4094SOL    HW213182   3.382   3.536   5.884
 4095SOL     OW13183   1.655   3.587   6.164
 4095SOL    HW113184   1.670   3.489   6.148
 4095SOL    HW213185   1.725   3.639   6.116
 4096SOL     OW13186   4.492   4.865   1.783
 4096SOL    HW113187   4.586   4.846   1.752
 4096SOL    HW213188   4.451   4.781   1.819
 4097SOL     OW13189   3.594   4.088   3.376
 4097SOL    HW113190   3.560   3.994   3.369
 4097SOL    HW213191   3.606   4.126   3.285
 4098SOL     OW13192   0.847   3.152   2.169
 4098SOL    HW113193   0.754   3.187   2.155
 4098SOL    HW213194   0.842   3.058   2.205
 4099SOL     OW13195   2.603   6.013   1.702
 4099SOL    HW113196   2.518   6.026   1.754
 4099SOL    HW213197   2.582   6.009   1.605
 4100SOL     OW13198   3.624   0.296   3.000
 4100SOL    HW113199   3.653   0.288   3.095
 4100SOL    HW213200   3.618   0.392   2.974
 4101SOL     OW13201   4.516   1.763   6.414
 4101SOL    HW113202   4.434   1.720   6.451
 4101SOL    HW213203   4.581   1.693   6.387
 4102SOL     OW13204   4.251   1.720   6.509
 4102SOL    HW113205   4.200   1.747   6.427
 4102SOL    HW213206   4.193   1.734   6.590
 4103SOL     OW13207   0.030   0.531   1.819
 4103SOL    HW113208   0.018   0.605   1.753
 4103SOL    HW213209   0.108   0.552   1.878
 4104SOL     OW13210   2.204   4.594   2.491
 4104SOL    HW113211   2.105   4.580   2.490
 4104SOL    HW213212   2.233   4.631   2.403
 4105SOL     OW13213   5.992   5.172   0.358
 4105SOL    HW113214   6.021   5.256   0.311
 4105SOL    HW213215   5.894   5.176   0.375
 4106SOL     OW13216   6.490   4.017   4.641
 4106SOL    HW113217   6.441   4.077   4.578
 4106SOL    HW213218   6.437   3.933   4.654
 4107SOL     OW13219   0.252   0.647   0.797
 4107SOL    HW113220   0.185   0.716   0.824
 4107SOL    HW213221   0.249   0.571   0.862
 4108SOL     OW13222   6.299   2.413   4.873
 4108SOL    HW113223   6.316   2.511   4.884
 4108SOL    HW213224   6.223   2.385   4.933
 4109SOL     OW13225   2.395   6.278   3.841
 4109SOL    HW113226   2.435   6.188   3.855
 4109SOL    HW213227   2.454   6.331   3.779
 4110SOL     OW13228   4.841   3.322   5.192
 4110SOL    HW113229   4.795   3.409   5.179
 4110SOL    HW213230   4.926   3.336   5.242
 4111SOL     OW13231   3.673   2.923   6.607
 4111SOL    HW113232   3.680   2.843   6.547
 4111SOL    HW213233   3.689   3.006   6.554
 4112SOL     OW13234   3.979   0.119   6.044
 4112SOL    HW113235   3.971   0.174   6.127
 4112SOL    HW213236   3.930   0.032   6.057
 4113SOL     OW13237   3.756   5.092   4.731
 4113SOL    HW113238   3.685   5.038   4.686
 4113SOL    HW213239   3.832   5.033   4.758
 4114SOL     OW13240   3.871   1.919   2.916
 4114SOL    HW113241   3.958   1.929   2.868
 4114SOL    HW213242   3.831   2.009   2.932
 4115SOL     OW13243   4.815   3.981   2.759
 4115SOL    HW113244   4.755   3.901   2.767
 4115SOL    HW213245   4.906   3.958   2.795
 4116SOL     OW13246   2.767   0.802   2.168
 4116SOL    HW113247   2.806   0.730   2.225
 4116SOL    HW213248   2.792   0.891   2.206
 4117SOL     OW13249   0.842   5.936   1.347
 4117SOL    HW113250   0.915   5.869   1.356
 4117SOL    HW213251   0.816   5.946   1.251
 4118SOL     OW13252   1.893   0.114   6.722
 4118SOL    HW113253   1.823   0.135   6.790
 4118SOL    HW213254   1.859   0.041   6.662
 4119SOL     OW13255   4.883   1.669   3.421
 4119SOL    HW113256   4.980   1.683   3.404
 4119SOL    HW213257   4.865   1.571   3.433
 4120SOL     OW13258   5.196   1.009   2.434
 4120SOL    HW113259   5.159   1.102   2.431
 4120SOL    HW213260   5.157   0.956   2.359
 4121SOL     OW13261   6.289   2.282   3.979
 4121SOL    HW113262   6.313   2.322   4.068
 4121SOL    HW213263   6.325   2.189   3.974
 4122SOL     OW13264   2.023   5.488   0.111
 4122SOL    HW113265   2.032   5.487   0.210
 4122SOL    HW213266   1.993   5.397   0.080
 4123SOL     OW13267   4.241   3.349   5.471
 4123SOL    HW113268   4.325   3.295   5.461
 4123SOL    HW213269   4.221   3.395   5.384
 4124SOL     OW13270   4.368   5.854   3.616
 4124SOL    HW113271   4.364   5.799   3.532
 4124SOL    HW213272   4.320   5.806   3.689
 4125SOL     OW13273   4.839   0.986   1.608
 4125SOL    HW113274   4.865   1.082   1.611
 4125SOL    HW213275   4.906   0.931   1.658
 4126SOL     OW13276   1.860   4.363   4.708
 4126SOL    HW113277   1.856   4.265   4.731
 4126SOL    HW213278   1.776   4.408   4.738
 4127SOL     OW13279   5.686   4.672   4.479
 4127SOL    HW113280   5.711   4.664   4.575
 4127SOL    HW213281   5.763   4.644   4.422
 4128SOL     OW13282   0.383   1.820   1.657
 4128SOL    HW113283   0.353   1.782   1.569
 4128SOL    HW213284   0.314   1.884   1.691
 4129SOL     OW13285   6.572   2.883   6.221
 4129SOL    HW113286   6.670   2.886   6.238
 4129SOL    HW213287   6.554   2.892   6.123
 4130SOL     OW13288   6.405   2.452   1.448
 4130SOL    HW113289   6.408   2.531   1.509
 4130SOL    HW213290   6.453   2.375   1.491
 4131SOL     OW13291   6.908   3.756   2.952
 4131SOL    HW113292   6.943   3.677   2.901
 4131SOL    HW213293   6.908   3.735   3.050
 4132SOL     OW13294   4.777   1.927   4.649
 4132SOL    HW113295   4.835   1.941   4.729
 4132SOL    HW213296   4.776   1.830   4.625
 4133SOL     OW13297   2.514   2.660   1.276
 4133SOL    HW113298   2.463   2.598   1.336
 4133SOL    HW213299   2.564   2.726   1.332
 4134SOL     OW13300   1.877   1.102   0.174
 4134SOL    HW113301   1.976   1.116   0.174
 4134SOL    HW213302   1.838   1.137   0.089
 4135SOL     OW13303   1.890   0.387   0.780
 4135SOL    HW113304   1.815   0.441   0.740
 4135SOL    HW213305   1.864   0.359   0.873
 4136SOL     OW13306   0.507   1.649   3.646
 4136SOL    HW113307   0.446   1.573   3.623
 4136SOL    HW213308   0.557   1.627   3.730
 4137SOL     OW13309   4.006   3.194   5.555
 4137SOL    HW113310   4.025   3.105   5.514
 4137SOL    HW213311   4.065   3.263   5.513
 4138SOL     OW13312   4.447   5.446   2.006
 4138SOL    HW113313   4.428   5.371   1.943
 4138SOL    HW213314   4.380   5.519   1.991
 4139SOL     OW13315   2.848   1.928   0.723
 4139SOL    HW113316   2.852   1.837   0.766
 4139SOL    HW213317   2.939   1.968   0.720
 4140SOL     OW13318   4.349   1.696   5.364
 4140SOL    HW113319   4.267   1.684   5.308
 4140SOL    HW213320   4.387   1.787   5.347
 4141SOL     OW13321   5.716   5.627   0.870
 4141SOL    HW113322   5.810   5.652   0.891
 4141SOL    HW213323   5.681   5.686   0.797
 4142SOL     OW13324   6.045   3.352   1.383
 4142SOL    HW113325   6.117   3.293   1.345
 4142SOL    HW213326   6.070   3.447   1.370
 4143SOL     OW13327   0.605   2.874   1.659
 4143SOL    HW113328   0.586   2.811   1.734
 4143SOL    HW213329   0.590   2.826   1.572
 4144SOL     OW13330   4.168   1.048   2.227
 4144SOL    HW113331   4.118   1.076   2.145
 4144SOL    HW213332   4.130   1.095   2.306
 4145SOL     OW13333   3.465   6.534   3.063
 4145SOL    HW113334   3.440   6.438   3.070
 4145SOL    HW213335   3.554   6.549   3.105
 4146SOL     OW13336   4.421   4.812   0.534
 4146SOL    HW113337   4.512   4.833   0.498
 4146SOL    HW213338   4.388   4.727   0.494
 4147SOL     OW13339   2.680   1.793   5.985
 4147SOL    HW113340   2.582   1.787   5.966
 4147SOL    HW213341   2.719   1.701   5.990
 4148SOL     OW13342   0.017   0.363   2.224
 4148SOL    HW113343   0.110   0.383   2.254
 4148SOL    HW213344   7.013   0.266   2.236
 4149SOL     OW13345   4.752   4.150   2.243
 4149SOL    HW113346   4.724   4.206   2.165
 4149SOL    HW213347   4.710   4.187   2.327
 4150SOL     OW13348   4.213   0.338   5.254
 4150SOL    HW113349   4.186   0.312   5.347
 4150SOL    HW213350   4.306   0.373   5.255
 4151SOL     OW13351   0.076   5.417   0.473
 4151SOL    HW113352   0.166   5.462   0.472
 4151SOL    HW213353   0.027   5.443   0.555
 4152SOL     OW13354   3.276   3.998   1.578
 4152SOL    HW113355   3.321   3.951   1.654
 4152SOL    HW213356   3.220   3.933   1.527
 4153SOL     OW13357   6.085   5.618   6.018
 4153SOL    HW113358   6.146   5.685   6.062
 4153SOL    HW213359   6.133   5.576   5.941
 4154SOL     OW13360   4.705   2.728   5.043
 4154SOL    HW113361   4.735   2.819   5.016
 4154SOL    HW213362   4.633   2.735   5.112
 4155SOL     OW13363   1.586   2.770   0.471
 4155SOL    HW113364   1.610   2.862   0.439
 4155SOL    HW213365   1.488   2.756   0.458
 4156SOL     OW13366   5.799   0.630   5.116
 4156SOL    HW113367   5.882   0.575   5.107
 4156SOL    HW213368   5.748   0.601   5.197
 4157SOL     OW13369   2.778   0.835   3.184
 4157SOL    HW113370   2.713   0.801   3.116
 4157SOL    HW213371   2.785   0.768   3.259
 4158SOL     OW13372   1.403   0.204   3.821
 4158SOL    HW113373   1.466   0.131   3.796
 4158SOL    HW213374   1.322   0.200   3.763
 4159SOL     OW13375   0.205   4.233   5.537
 4159SOL    HW113376   0.246   4.314   5.579
 4159SOL    HW213377   0.185   4.251   5.441
 4160SOL     OW13378   0.330   0.647   0.553
 4160SOL    HW113379   0.331   0.742   0.521
 4160SOL    HW213380   0.311   0.646   0.652
 4161SOL     OW13381   6.181   2.022   1.227
 4161SOL    HW113382   6.121   2.101   1.239
 4161SOL    HW213383   6.163   1.956   1.299
 4162SOL     OW13384   1.155   0.063   5.430
 4162SOL    HW113385   1.112   0.070   5.520
 4162SOL    HW213386   1.251   0.092   5.437
 4163SOL     OW13387   6.743   1.481   5.322
 4163SOL    HW113388   6.724   1.442   5.412
 4163SOL    HW213389   6.841   1.488   5.308
 4164SOL     OW13390   2.703   6.562   5.725
 4164SOL    HW113391   2.675   6.638   5.784
 4164SOL    HW213392   2.622   6.515   5.691
 4165SOL     OW13393   2.252   6.375   1.772
 4165SOL    HW113394   2.255   6.433   1.853
 4165SOL    HW213395   2.230   6.281   1.800
 4166SOL     OW13396   5.928   1.832   2.043
 4166SOL    HW113397   5.847   1.775   2.049
 4166SOL    HW213398   5.903   1.922   2.006
 4167SOL     OW13399   1.934   2.437   1.025
 4167SOL    HW113400   2.027   2.475   1.032
 4167SOL    HW213401   1.893   2.433   1.116
 4168SOL     OW13402   1.998   5.173   1.368
 4168SOL    HW113403   1.947   5.187   1.283
 4168SOL    HW213404   1.937   5.132   1.436
 4169SOL     OW13405   6.494   3.502   6.481
 4169SOL    HW113406   6.531   3.452   6.559
 4169SOL    HW213407   6.411   3.551   6.509
 4170SOL     OW13408   3.654   1.110   5.478
 4170SOL    HW113409   3.748   1.093   5.449
 4170SOL    HW213410   3.600   1.139   5.400
 4171SOL     OW13411   5.870   3.655   1.361
 4171SOL    HW113412   5.819   3.602   1.429
 4171SOL    HW213413   5.834   3.635   1.270
 4172SOL     OW13414   2.705   1.006   0.824
 4172SOL    HW113415   2.723   0.914   0.786
 4172SOL    HW213416   2.710   1.003   0.923
 4173SOL     OW13417   4.706   3.381   5.510
 4173SOL    HW113418   4.660   3.331   5.437
 4173SOL    HW213419   4.711   3.478   5.487
 4174SOL     OW13420   5.164   0.697   2.998
 4174SOL    HW113421   5.113   0.627   2.947
 4174SOL    HW213422   5.126   0.706   3.090
 4175SOL     OW13423   2.212   1.544   2.737
 4175SOL    HW113424   2.195   1.634   2.697
 4175SOL    HW213425   2.125   1.497   2.752
 4176SOL     OW13426   5.901   4.276   2.728
 4176SOL    HW113427   5.823   4.307   2.674
 4176SOL    HW213428   5.869   4.241   2.816
 4177SOL     OW13429   6.917   5.394   2.916
 4177SOL    HW113430   6.857   5.466   2.950
 4177SOL    HW213431   6.958   5.423   2.829
 4178SOL     OW13432   4.358   2.347   5.428
 4178SOL    HW113433   4.454   2.366   5.453
 4178SOL    HW213434   4.323   2.274   5.486
 4179SOL     OW13435   6.867   2.247   0.421
 4179SOL    HW113436   6.869   2.328   0.363
 4179SOL    HW213437   6.802   2.261   0.496
 4180SOL     OW13438   5.071   3.920   1.605
 4180SOL    HW113439   5.131   3.961   1.673
 4180SOL    HW213440   4.977   3.920   1.639
 4181SOL     OW13441   6.309   0.801   0.769
 4181SOL    HW113442   6.345   0.886   0.808
 4181SOL    HW213443   6.217   0.818   0.733
 4182SOL     OW13444   6.017   0.675   3.460
 4182SOL    HW113445   6.061   0.588   3.439
 4182SOL    HW213446   5.995   0.722   3.374
 4183SOL     OW13447   1.214   0.852   1.900
 4183SOL    HW113448   1.265   0.928   1.941
 4183SOL    HW213449   1.249   0.834   1.808
 4184SOL     OW13450   4.359   4.791   6.423
 4184SOL    HW113451   4.457   4.789   6.441
 4184SOL    HW213452   4.310   4.814   6.507
 4185SOL     OW13453   0.381   0.275   3.750
 4185SOL    HW113454   0.419   0.309   3.836
 4185SOL    HW213455   0.449   0.222   3.701
 4186SOL     OW13456   3.760   4.227   1.811
 4186SOL    HW113457   3.702   4.301   1.776
 4186SOL    HW213458   3.707   4.170   1.873
 4187SOL     OW13459   4.074   5.213   6.203
 4187SOL    HW113460   4.067   5.177   6.296
 4187SOL    HW213461   4.166   5.197   6.167
 4188SOL     OW13462   4.949   6.335   3.300
 4188SOL    HW113463   5.027   6.274   3.284
 4188SOL    HW213464   4.894   6.299   3.375
 4189SOL     OW13465   1.645   3.038   3.331
 4189SOL    HW113466   1.738   3.025   3.367
 4189SOL    HW213467   1.579   3.018   3.402
 4190SOL     OW13468   2.230   0.146   1.426
 4190SOL    HW113469   2.166   0.118   1.354
 4190SOL    HW213470   2.303   0.078   1.435
 4191SOL     OW13471   0.744   1.950   3.298
 4191SOL    HW113472   0.693   2.035   3.313
 4191SOL    HW213473   0.735   1.922   3.203
 4192SOL     OW13474   5.990   6.901   3.772
 4192SOL    HW113475   6.050   6.850   3.711
 4192SOL    HW213476   5.978   6.850   3.857
 4193SOL     OW13477   1.717   6.446   3.813
 4193SOL    HW113478   1.776   6.424   3.891
 4193SOL    HW213479   1.656   6.521   3.837
 4194SOL     OW13480   6.028   6.981   3.123
 4194SOL    HW113481   6.084   6.994   3.205
 4194SOL    HW213482   6.021   0.052   3.073
 4195SOL     OW13483   5.045   0.633   3.289
 4195SOL    HW113484   4.961   0.598   3.331
 4195SOL    HW213485   5.053   0.731   3.309
 4196SOL     OW13486   4.830   2.813   3.348
 4196SOL    HW113487   4.857   2.898   3.304
 4196SOL    HW213488   4.886   2.798   3.429
 4197SOL     OW13489   5.251   4.124   4.668
 4197SOL    HW113490   5.221   4.029   4.658
 4197SOL    HW213491   5.209   4.180   4.596
 4198SOL     OW13492   6.280   3.139   6.100
 4198SOL    HW113493   6.292   3.238   6.113
 4198SOL    HW213494   6.291   3.117   6.003
 4199SOL     OW13495   2.867   3.875   6.448
 4199SOL    HW113496   2.947   3.931   6.427
 4199SOL    HW213497   2.788   3.935   6.460
 4200SOL     OW13498   3.132   0.509   0.063
 4200SOL    HW113499   3.192   0.471   0.133
 4200SOL    HW213500   3.115   0.440   7.007
 4201SOL     OW13501   6.757   7.013   4.938
 4201SOL    HW113502   6.731   0.094   4.950
 4201SOL    HW213503   6.814   6.984   5.015
 4202SOL     OW13504   5.805   3.334   5.304
 4202SOL    HW113505   5.708   3.354   5.294
 4202SOL    HW213506   5.819   3.273   5.382
 4203SOL     OW13507   3.762   5.426   4.327
 4203SOL    HW113508   3.792   5.437   4.232
 4203SOL    HW213509   3.809   5.493   4.385
 4204SOL     OW13510   1.742   4.004   0.097
 4204SOL    HW113511   1.829   4.045   0.125
 4204SOL    HW213512   1.666   4.058   0.134
 4205SOL     OW13513   2.533   5.892   3.391
 4205SOL    HW113514   2.440   5.879   3.359
 4205SOL    HW213515   2.593   5.822   3.350
 4206SOL     OW13516   5.049   6.648   3.900
 4206SOL    HW113517   4.966   6.607   3.862
 4206SOL    HW213518   5.111   6.672   3.825
 4207SOL     OW13519   1.472   6.576   6.981
 4207SOL    HW113520   1.479   6.549   6.885
 4207SOL    HW213521   1.548   6.636   7.005
 4208SOL     OW13522   0.592   2.635   1.483
 4208SOL    HW113523   0.594   2.606   1.387
 4208SOL    HW213524   0.557   2.560   1.539
 4209SOL     OW13525   3.052   0.373   5.355
 4209SOL    HW113526   2.974   0.361   5.417
 4209SOL    HW213527   3.018   0.406   5.266
 4210SOL     OW13528   3.518   2.858   0.392
 4210SOL    HW113529   3.496   2.792   0.320
 4210SOL    HW213530   3.604   2.831   0.436
 4211SOL     OW13531   5.143   3.780   4.223
 4211SOL    HW113532   5.211   3.851   4.242
 4211SOL    HW213533   5.134   3.721   4.304
 4212SOL     OW13534   6.348   6.805   2.027
 4212SOL    HW113535   6.364   6.858   1.943
 4212SOL    HW213536   6.285   6.729   2.007
 4213SOL     OW13537   0.774   6.952   1.100
 4213SOL    HW113538   0.700   6.884   1.100
 4213SOL    HW213539   0.847   6.920   1.160
 4214SOL     OW13540   3.007   5.623   3.712
 4214SOL    HW113541   3.073   5.632   3.638
 4214SOL    HW213542   2.983   5.527   3.725
 4215SOL     OW13543   1.710   5.795   6.861
 4215SOL    HW113544   1.657   5.774   6.779
 4215SOL    HW213545   1.678   5.882   6.900
 4216SOL     OW13546   2.642   3.177   5.330
 4216SOL    HW113547   2.583   3.124   5.269
 4216SOL    HW213548   2.619   3.156   5.425
 4217SOL     OW13549   6.445   0.863   4.416
 4217SOL    HW113550   6.525   0.905   4.374
 4217SOL    HW213551   6.440   0.767   4.390
 4218SOL     OW13552   3.228   5.551   2.365
 4218SOL    HW113553   3.133   5.581   2.359
 4218SOL    HW213554   3.235   5.455   2.337
 4219SOL     OW13555   5.522   0.329   2.776
 4219SOL    HW113556   5.460   0.388   2.724
 4219SOL    HW213557   5.482   0.238   2.783
 4220SOL     OW13558   6.950   4.349   2.785
 4220SOL    HW113559   6.935   4.374   2.689
 4220SOL    HW213560   6.953   4.432   2.841
 4221SOL     OW13561   5.079   6.534   6.168
 4221SOL    HW113562   5.177   6.517   6.177
 4221SOL    HW213563   5.046   6.494   6.082
 4222SOL     OW13564   2.631   2.796   0.111
 4222SOL    HW113565   2.621   2.890   0.143
 4222SOL    HW213566   2.663   2.738   0.186
 4223SOL     OW13567   3.816   3.934   3.267
 4223SOL    HW113568   3.740   3.888   3.221
 4223SOL    HW213569   3.780   4.007   3.326
 4224SOL     OW13570   3.607   1.890   5.634
 4224SOL    HW113571   3.680   1.835   5.674
 4224SOL    HW213572   3.641   1.982   5.613
 4225SOL     OW13573   5.276   0.120   4.505
 4225SOL    HW113574   5.254   0.059   4.581
 4225SOL    HW213575   5.368   0.157   4.518
 4226SOL     OW13576   1.978   1.830   2.393
 4226SOL    HW113577   1.933   1.754   2.441
 4226SOL    HW213578   2.020   1.796   2.309
 4227SOL     OW13579   5.562   3.898   6.892
 4227SOL    HW113580   5.466   3.925   6.901
 4227SOL    HW213581   5.569   3.810   6.845
 4228SOL     OW13582   4.214   5.557   2.835
 4228SOL    HW113583   4.115   5.542   2.840
 4228SOL    HW213584   4.233   5.655   2.836
 4229SOL     OW13585   3.737   5.248   5.344
 4229SOL    HW113586   3.704   5.198   5.425
 4229SOL    HW213587   3.701   5.341   5.346
 4230SOL     OW13588   2.875   1.374   6.389
 4230SOL    HW113589   2.872   1.449   6.323
 4230SOL    HW213590   2.943   1.394   6.459
 4231SOL     OW13591   3.638   6.315   6.495
 4231SOL    HW113592   3.723   6.332   6.445
 4231SOL    HW213593   3.658   6.291   6.590
 4232SOL     OW13594   1.329   4.259   1.061
 4232SOL    HW113595   1.251   4.201   1.036
 4232SOL    HW213596   1.328   4.342   1.006
 4233SOL     OW13597   5.607   5.755   1.216
 4233SOL    HW113598   5.566   5.754   1.307
 4233SOL    HW213599   5.566   5.684   1.160
 4234SOL     OW13600   3.732   3.535   5.578
 4234SOL    HW113601   3.763   3.448   5.616
 4234SOL    HW213602   3.794   3.563   5.505
 4235SOL     OW13603   0.362   4.129   4.834
 4235SOL    HW113604   0.374   4.228   4.833
 4235SOL    HW213605   0.452   4.084   4.834
 4236SOL     OW13606   0.817   3.848   4.645
 4236SOL    HW113607   0.837   3.791   4.565
 4236SOL    HW213608   0.863   3.810   4.725
 4237SOL     OW13609   6.000   3.870   5.588
 4237SOL    HW113610   5.911   3.890   5.548
 4237SOL    HW213611   6.020   3.772   5.577
 4238SOL     OW13612   4.478   4.864   4.853
 4238SOL    HW113613   4.469   4.842   4.756
 4238SOL    HW213614   4.390   4.850   4.898
 4239SOL     OW13615   5.173   5.904   5.642
 4239SOL    HW113616   5.090   5.878   5.692
 4239SOL    HW213617   5.231   5.960   5.700
 4240SOL     OW13618   2.741   4.803   6.187
 4240SOL    HW113619   2.773   4.708   6.180
 4240SOL    HW213620   2.819   4.864   6.200
 4241SOL     OW13621   3.382   2.126   1.038
 4241SOL    HW113622   3.364   2.157   1.132
 4241SOL    HW213623   3.431   2.197   0.988
 4242SOL     OW13624   2.490   0.246   1.725
 4242SOL    HW113625   2.429   0.319   1.756
 4242SOL    HW213626   2.549   0.281   1.652
 4243SOL     OW13627   1.908   2.613   2.674
 4243SOL    HW113628   1.895   2.646   2.767
 4243SOL    HW213629   2.002   2.631   2.644
 4244SOL     OW13630   3.149   0.378   1.186
 4244SOL    HW113631   3.241   0.361   1.220
 4244SOL    HW213632   3.083   0.325   1.240
 4245SOL     OW13633   0.101   1.515   1.079
 4245SOL    HW113634   0.171   1.572   1.035
 4245SOL    HW213635   0.026   1.500   1.016
 4246SOL     OW13636   4.631   2.488   3.728
 4246SOL    HW113637   4.548   2.465   3.780
 4246SOL    HW213638   4.610   2.563   3.665
 4247SOL     OW13639   2.399   5.722   6.803
 4247SOL    HW113640   2.347   5.796   6.846
 4247SOL    HW213641   2.459   5.680   6.870
 4248SOL     OW13642   2.669   0.216   2.941
 4248SOL    HW113643   2.744   0.271   2.977
 4248SOL    HW213644   2.611   0.185   3.016
 4249SOL     OW13645   5.938   1.249   5.476
 4249SOL    HW113646   5.931   1.292   5.386
 4249SOL    HW213647   5.854   1.196   5.494
 4250SOL     OW13648   0.878   5.612   4.744
 4250SOL    HW113649   0.899   5.548   4.669
 4250SOL    HW213650   0.783   5.601   4.772
 4251SOL     OW13651   4.505   2.190   4.850
 4251SOL    HW113652   4.582   2.225   4.796
 4251SOL    HW213653   4.457   2.120   4.798
 4252SOL     OW13654   0.894   6.881   6.408
 4252SOL    HW113655   0.953   6.953   6.371
 4252SOL    HW213656   0.875   6.899   6.504
 4253SOL     OW13657   4.036   6.950   2.947
 4253SOL    HW113658   3.983   7.002   2.880
 4253SOL    HW213659   4.114   6.907   2.902
 4254SOL     OW13660   1.079   1.726   5.453
 4254SOL    HW113661   1.036   1.755   5.367
 4254SOL    HW213662   1.177   1.716   5.439
 4255SOL     OW13663   1.107   2.995   4.101
 4255SOL    HW113664   1.132   2.933   4.175
 4255SOL    HW213665   1.163   2.975   4.020
 4256SOL     OW13666   6.267   6.138   0.737
 4256SOL    HW113667   6.269   6.175   0.644
 4256SOL    HW213668   6.199   6.065   0.743
 4257SOL     OW13669   6.822   1.145   2.335
 4257SOL    HW113670   6.739   1.100   2.303
 4257SOL    HW213671   6.887   1.152   2.259
 4258SOL     OW13672   2.818   5.660   0.832
 4258SOL    HW113673   2.875   5.714   0.772
 4258SOL    HW213674   2.790   5.715   0.911
 4259SOL     OW13675   0.487   6.297   0.167
 4259SOL    HW113676   0.496   6.257   0.075
 4259SOL    HW213677   0.485   6.397   0.160
 4260SOL     OW13678   0.250   0.464   5.321
 4260SOL    HW113679   0.248   0.475   5.222
 4260SOL    HW213680   0.344   0.461   5.353
 4261SOL     OW13681   2.588   6.385   3.669
 4261SOL    HW113682   2.616   6.311   3.609
 4261SOL    HW213683   2.661   6.405   3.734
 4262SOL     OW13684   1.524   3.941   4.926
 4262SOL    HW113685   1.431   3.978   4.924
 4262SOL    HW213686   1.520   3.841   4.917
 4263SOL     OW13687   3.738   0.846   2.590
 4263SOL    HW113688   3.780   0.921   2.538
 4263SOL    HW213689   3.724   0.767   2.530
 4264SOL     OW13690   4.786   1.924   6.406
 4264SOL    HW113691   4.847   1.916   6.486
 4264SOL    HW213692   4.694   1.895   6.431
 4265SOL     OW13693   3.286   6.688   6.863
 4265SOL    HW113694   3.384   6.706   6.863
 4265SOL    HW213695   3.241   6.750   6.927
 4266SOL     OW13696   1.480   4.252   2.198
 4266SOL    HW113697   1.473   4.333   2.140
 4266SOL    HW213698   1.389   4.221   2.224
 4267SOL     OW13699   1.904   3.491   4.024
 4267SOL    HW113700   1.951   3.473   3.937
 4267SOL    HW213701   1.879   3.587   4.030
 4268SOL     OW13702   1.403   4.197   6.047
 4268SOL    HW113703   1.483   4.235   6.000
 4268SOL    HW213704   1.370   4.264   6.114
 4269SOL     OW13705   2.217   1.453   4.004
 4269SOL    HW113706   2.289   1.427   3.939
 4269SOL    HW213707   2.254   1.519   4.070
 4270SOL     OW13708   4.301   4.303   1.145
 4270SOL    HW113709   4.223   4.351   1.107
 4270SOL    HW213710   4.268   4.231   1.207
 4271SOL     OW13711   6.579   0.299   0.841
 4271SOL    HW113712   6.660   0.310   0.900
 4271SOL    HW213713   6.606   0.312   0.746
 4272SOL     OW13714   6.030   2.000   5.760
 4272SOL    HW113715   6.006   1.983   5.664
 4272SOL    HW213716   6.057   1.915   5.803
 4273SOL     OW13717   3.906   5.534   3.622
 4273SOL    HW113718   3.926   5.620   3.575
 4273SOL    HW213719   3.808   5.528   3.639
 4274SOL     OW13720   6.750   0.552   1.559
 4274SOL    HW113721   6.849   0.548   1.572
 4274SOL    HW213722   6.726   0.634   1.507
 4275SOL     OW13723   6.346   1.623   4.206
 4275SOL    HW113724   6.308   1.699   4.257
 4275SOL    HW213725   6.389   1.657   4.122
 4276SOL     OW13726   1.696   0.465   3.034
 4276SOL    HW113727   1.689   0.565   3.028
 4276SOL    HW213728   1.774   0.440   3.090
 4277SOL     OW13729   6.238   5.422   2.813
 4277SOL    HW113730   6.193   5.440   2.901
 4277SOL    HW213731   6.232   5.325   2.792
 4278SOL     OW13732   0.349   0.061   1.493
 4278SOL    HW113733   0.380   6.981   1.500
 4278SOL    HW213734   0.356   0.105   1.582
 4279SOL     OW13735   1.026   3.421   3.179
 4279SOL    HW113736   1.062   3.375   3.098
 4279SOL    HW213737   1.091   3.412   3.255
 4280SOL     OW13738   3.043   6.626   6.412
 4280SOL    HW113739   3.006   6.546   6.364
 4280SOL    HW213740   3.059   6.603   6.507
 4281SOL     OW13741   0.078   6.581   2.407
 4281SOL    HW113742   0.093   6.619   2.497
 4281SOL    HW213743   0.162   6.541   2.372
 4282SOL     OW13744   5.145   4.776   1.749
 4282SOL    HW113745   5.241   4.798   1.761
 4282SOL    HW213746   5.133   4.717   1.669
 4283SOL     OW13747   6.082   1.245   4.823
 4283SOL    HW113748   6.019   1.181   4.778
 4283SOL    HW213749   6.047   1.338   4.813
 4284SOL     OW13750   4.721   6.011   0.274
 4284SOL    HW113751   4.769   5.952   0.210
 4284SOL    HW213752   4.768   6.008   0.363
 4285SOL     OW13753   2.960   1.565   6.219
 4285SOL    HW113754   2.931   1.633   6.286
 4285SOL    HW213755   3.033   1.604   6.162
 4286SOL     OW13756   5.566   6.360   0.123
 4286SOL    HW113757   5.479   6.374   0.170
 4286SOL    HW213758   5.631   6.316   0.186
 4287SOL     OW13759   4.110   0.576   1.192
 4287SOL    HW113760   4.192   0.571   1.136
 4287SOL    HW213761   4.107   0.662   1.242
 4288SOL     OW13762   0.358   6.549   2.312
 4288SOL    HW113763   0.370   6.636   2.264
 4288SOL    HW213764   0.441   6.494   2.300
 4289SOL     OW13765   0.224   4.249   6.025
 4289SOL    HW113766   0.310   4.289   6.056
 4289SOL    HW213767   0.232   4.226   5.928
 4290SOL     OW13768   0.124   1.069   3.044
 4290SOL    HW113769   0.189   1.143   3.064
 4290SOL    HW213770   0.050   1.105   2.988
 4291SOL     OW13771   4.315   4.953   6.173
 4291SOL    HW113772   4.343   5.047   6.191
 4291SOL    HW213773   4.332   4.897   6.255
 4292SOL     OW13774   6.793   0.200   0.676
 4292SOL    HW113775   6.870   0.245   0.631
 4292SOL    HW213776   6.708   0.224   0.629
 4293SOL     OW13777   3.745   3.102   6.352
 4293SOL    HW113778   3.790   3.055   6.276
 4293SOL    HW213779   3.684   3.173   6.316
 4294SOL     OW13780   3.322   2.156   0.203
 4294SOL    HW113781   3.354   2.080   0.258
 4294SOL    HW213782   3.229   2.138   0.171
 4295SOL     OW13783   4.157   6.570   2.603
 4295SOL    HW113784   4.247   6.545   2.637
 4295SOL    HW213785   4.087   6.534   2.664
 4296SOL     OW13786   1.848   5.631   2.219
 4296SOL    HW113787   1.785   5.570   2.268
 4296SOL    HW213788   1.920   5.577   2.176
 4297SOL     OW13789   5.011   4.738   0.318
 4297SOL    HW113790   5.049   4.819   0.273
 4297SOL    HW213791   5.030   4.657   0.263
 4298SOL     OW13792   2.015   6.728   0.431
 4298SOL    HW113793   1.979   6.700   0.520
 4298SOL    HW213794   2.087   6.797   0.444
 4299SOL     OW13795   0.217   3.468   6.045
 4299SOL    HW113796   0.312   3.483   6.071
 4299SOL    HW213797   0.202   3.502   5.952
 4300SOL     OW13798   3.601   0.583   1.689
 4300SOL    HW113799   3.591   0.655   1.620
 4300SOL    HW213800   3.575   0.619   1.778
 4301SOL     OW13801   1.879   6.271   4.794
 4301SOL    HW113802   1.897   6.174   4.807
 4301SOL    HW213803   1.782   6.284   4.774
 4302SOL     OW13804   4.127   4.949   0.025
 4302SOL    HW113805   4.182   4.962   6.957
 4302SOL    HW213806   4.187   4.922   0.100
 4303SOL     OW13807   4.475   5.099   3.249
 4303SOL    HW113808   4.410   5.089   3.173
 4303SOL    HW213809   4.446   5.174   3.307
 4304SOL     OW13810   3.146   4.424   1.662
 4304SOL    HW113811   3.065   4.453   1.713
 4304SOL    HW213812   3.221   4.488   1.680
 4305SOL     OW13813   1.206   6.481   5.897
 4305SOL    HW113814   1.295   6.519   5.924
 4305SOL    HW213815   1.163   6.541   5.830
 4306SOL     OW13816   5.749   3.792   5.209
 4306SOL    HW113817   5.663   3.754   5.174
 4306SOL    HW213818   5.734   3.886   5.240
 4307SOL     OW13819   6.935   1.658   4.860
 4307SOL    HW113820   6.953   1.730   4.926
 4307SOL    HW213821   6.980   1.573   4.890
 4308SOL     OW13822   4.365   5.714   5.841
 4308SOL    HW113823   4.272   5.696   5.875
 4308SOL    HW213824   4.420   5.753   5.915
 4309SOL     OW13825   3.083   2.067   1.029
 4309SOL    HW113826   3.106   2.158   1.064
 4309SOL    HW213827   2.993   2.070   0.984
 4310SOL     OW13828   6.703   1.555   4.187
 4310SOL    HW113829   6.741   1.522   4.100
 4310SOL    HW213830   6.714   1.484   4.256
 4311SOL     OW13831   0.869   6.549   1.399
 4311SOL    HW113832   0.933   6.510   1.333
 4311SOL    HW213833   0.836   6.637   1.366
 4312SOL     OW13834   0.279   3.443   2.798
 4312SOL    HW113835   0.303   3.476   2.706
 4312SOL    HW213836   0.317   3.352   2.812
 4313SOL     OW13837   0.727   3.390   0.886
 4313SOL    HW113838   0.688   3.482   0.887
 4313SOL    HW213839   0.747   3.361   0.979
 4314SOL     OW13840   2.305   1.172   5.951
 4314SOL    HW113841   2.402   1.154   5.935
 4314SOL    HW213842   2.293   1.268   5.975
 4315SOL     OW13843   2.558   2.545   5.455
 4315SOL    HW113844   2.617   2.547   5.536
 4315SOL    HW213845   2.568   2.458   5.407
 4316SOL     OW13846   4.698   4.568   1.133
 4316SOL    HW113847   4.764   4.524   1.194
 4316SOL    HW213848   4.651   4.498   1.079
 4317SOL     OW13849   4.873   0.650   4.279
 4317SOL    HW113850   4.857   0.622   4.373
 4317SOL    HW213851   4.812   0.599   4.218
 4318SOL     OW13852   1.550   6.188   3.526
 4318SOL    HW113853   1.597   6.276   3.528
 4318SOL    HW213854   1.535   6.156   3.620
 4319SOL     OW13855   2.074   4.549   1.810
 4319SOL    HW113856   2.080   4.467   1.752
 4319SOL    HW213857   2.067   4.630   1.752
 4320SOL     OW13858   3.816   1.134   1.937
 4320SOL    HW113859   3.898   1.148   1.992
 4320SOL    HW213860   3.770   1.221   1.922
 4321SOL     OW13861   6.654   5.947   3.011
 4321SOL    HW113862   6.619   5.882   3.079
 4321SOL    HW213863   6.672   6.035   3.055
 4322SOL     OW13864   2.748   2.061   4.905
 4322SOL    HW113865   2.688   2.036   4.828
 4322SOL    HW213866   2.712   2.143   4.950
 4323SOL     OW13867   5.428   4.112   1.536
 4323SOL    HW113868   5.470   4.195   1.498
 4323SOL    HW213869   5.499   4.049   1.566
 4324SOL     OW13870   6.475   3.969   5.096
 4324SOL    HW113871   6.508   4.023   5.173
 4324SOL    HW213872   6.550   3.916   5.057
 4325SOL     OW13873   1.414   0.530   1.330
 4325SOL    HW113874   1.473   0.609   1.311
 4325SOL    HW213875   1.349   0.519   1.255
 4326SOL     OW13876   4.934   2.541   2.777
 4326SOL    HW113877   4.978   2.454   2.755
 4326SOL    HW213878   4.837   2.525   2.795
 4327SOL     OW13879   3.242   6.619   3.960
 4327SOL    HW113880   3.272   6.667   3.878
 4327SOL    HW213881   3.195   6.535   3.935
 4328SOL     OW13882   6.324   0.274   2.113
 4328SOL    HW113883   6.267   0.275   2.031
 4328SOL    HW213884   6.295   0.348   2.174
 4329SOL     OW13885   6.001   4.306   0.585
 4329SOL    HW113886   6.003   4.405   0.573
 4329SOL    HW213887   6.082   4.266   0.542
 4330SOL     OW13888   2.635   5.594   5.482
 4330SOL    HW113889   2.661   5.497   5.485
 4330SOL    HW213890   2.641   5.634   5.573
 4331SOL     OW13891   5.842   1.635   3.174
 4331SOL    HW113892   5.812   1.599   3.263
 4331SOL    HW213893   5.783   1.599   3.102
 4332SOL     OW13894   6.846   5.712   1.130
 4332SOL    HW113895   6.762   5.742   1.175
 4332SOL    HW213896   6.905   5.667   1.197
 4333SOL     OW13897   3.641   2.897   6.147
 4333SOL    HW113898   3.737   2.921   6.135
 4333SOL    HW213899   3.607   2.937   6.232
 4334SOL     OW13900   0.327   2.182   3.750
 4334SOL    HW113901   0.274   2.144   3.674
 4334SOL    HW213902   0.389   2.112   3.786
 4335SOL     OW13903   1.904   3.539   1.369
 4335SOL    HW113904   1.857   3.488   1.441
 4335SOL    HW213905   1.913   3.635   1.397
 4336SOL     OW13906   2.023   4.696   5.310
 4336SOL    HW113907   2.066   4.719   5.397
 4336SOL    HW213908   2.075   4.624   5.264
 4337SOL     OW13909   6.802   4.396   4.467
 4337SOL    HW113910   6.709   4.431   4.479
 4337SOL    HW213911   6.804   4.334   4.389
 4338SOL     OW13912   3.182   3.058   5.495
 4338SOL    HW113913   3.188   3.042   5.594
 4338SOL    HW213914   3.147   2.976   5.450
 4339SOL     OW13915   3.789   3.939   5.353
 4339SOL    HW113916   3.768   4.017   5.294
 4339SOL    HW213917   3.803   3.858   5.297
 4340SOL     OW13918   6.977   4.166   0.311
 4340SOL    HW113919   6.984   4.098   0.237
 4340SOL    HW213920   6.999   4.122   0.398
 4341SOL     OW13921   6.540   6.278   1.569
 4341SOL    HW113922   6.494   6.361   1.537
 4341SOL    HW213923   6.544   6.279   1.668
 4342SOL     OW13924   4.896   3.581   2.190
 4342SOL    HW113925   4.877   3.488   2.158
 4342SOL    HW213926   4.858   3.647   2.125
 4343SOL     OW13927   4.778   0.237   6.470
 4343SOL    HW113928   4.792   0.151   6.519
 4343SOL    HW213929   4.721   0.219   6.389
 4344SOL     OW13930   1.114   3.553   1.895
 4344SOL    HW113931   1.026   3.521   1.861
 4344SOL    HW213932   1.147   3.492   1.967
 4345SOL     OW13933   3.842   3.202   2.906
 4345SOL    HW113934   3.812   3.285   2.953
 4345SOL    HW213935   3.780   3.183   2.830
 4346SOL     OW13936   1.140   3.766   2.415
 4346SOL    HW113937   1.050   3.751   2.457
 4346SOL    HW213938   1.211   3.763   2.486
 4347SOL     OW13939   6.351   5.856   1.310
 4347SOL    HW113940   6.381   5.943   1.346
 4347SOL    HW213941   6.374   5.850   1.213
 4348SOL     OW13942   6.368   4.207   6.160
 4348SOL    HW113943   6.430   4.139   6.121
 4348SOL    HW213944   6.418   4.291   6.179
 4349SOL     OW13945   0.834   3.886   4.049
 4349SOL    HW113946   0.778   3.846   4.122
 4349SOL    HW213947   0.787   3.874   3.961
 4350SOL     OW13948   5.428   0.261   3.876
 4350SOL    HW113949   5.445   0.352   3.913
 4350SOL    HW213950   5.332   0.252   3.851
 4351SOL     OW13951   0.759   5.893   0.825
 4351SOL    HW113952   0.854   5.883   0.797
 4351SOL    HW213953   0.704   5.820   0.785
 4352SOL     OW13954   3.327   4.172   1.330
 4352SOL    HW113955   3.321   4.129   1.420
 4352SOL    HW213956   3.416   4.150   1.289
 4353SOL     OW13957   2.351   4.012   0.221
 4353SOL    HW113958   2.408   3.999   0.303
 4353SOL    HW213959   2.396   4.078   0.160
 4354SOL     OW13960   5.235   5.439   1.888
 4354SOL    HW113961   5.292   5.359   1.907
 4354SOL    HW213962   5.163   5.414   1.822
 4355SOL     OW13963   1.831   4.693   3.383
 4355SOL    HW113964   1.888   4.740   3.451
 4355SOL    HW213965   1.886   4.624   3.337
 4356SOL     OW13966   5.865   1.611   5.866
 4356SOL    HW113967   5.810   1.621   5.949
 4356SOL    HW213968   5.886   1.514   5.852
 4357SOL     OW13969   5.421   6.074   2.882
 4357SOL    HW113970   5.512   6.033   2.887
 4357SOL    HW213971   5.378   6.068   2.972
 4358SOL     OW13972   2.708   0.763   1.272
 4358SOL    HW113973   2.631   0.712   1.310
 4358SOL    HW213974   2.794   0.715   1.294
 4359SOL     OW13975   2.881   2.445   1.296
 4359SOL    HW113976   2.888   2.528   1.352
 4359SOL    HW213977   2.790   2.440   1.254
 4360SOL     OW13978   3.082   6.096   3.660
 4360SOL    HW113979   3.168   6.146   3.659
 4360SOL    HW213980   3.096   6.005   3.619
 4361SOL     OW13981   1.835   1.012   6.500
 4361SOL    HW113982   1.832   1.110   6.520
 4361SOL    HW213983   1.747   0.970   6.522
 4362SOL     OW13984   0.043   5.919   2.546
 4362SOL    HW113985   0.026   5.935   2.644
 4362SOL    HW213986   6.992   5.971   2.492
 4363SOL     OW13987   3.611   0.301   1.983
 4363SOL    HW113988   3.610   0.391   2.027
 4363SOL    HW213989   3.678   0.242   2.029
 4364SOL     OW13990   3.112   4.003   3.158
 4364SOL    HW113991   3.165   4.005   3.243
 4364SOL    HW213992   3.044   4.076   3.159
 4365SOL     OW13993   2.475   1.308   1.036
 4365SOL    HW113994   2.417   1.295   0.956
 4365SOL    HW213995   2.571   1.300   1.010
 4366SOL     OW13996   4.612   5.523   4.838
 4366SOL    HW113997   4.528   5.552   4.793
 4366SOL    HW213998   4.689   5.579   4.806
 4367SOL     OW13999   2.103   6.978   1.774
 4367SOL    HW114000   2.201   6.974   1.754
 4367SOL    HW214001   2.056   6.901   1.733
 4368SOL     OW14002   4.942   4.527   4.640
 4368SOL    HW114003   4.964   4.464   4.715
 4368SOL    HW214004   4.896   4.477   4.567
 4369SOL     OW14005   6.244   4.204   3.783
 4369SOL    HW114006   6.162   4.185   3.837
 4369SOL    HW214007   6.317   4.141   3.808
 4370SOL     OW14008   4.825   4.650   0.849
 4370SOL    HW114009   4.805   4.633   0.752
 4370SOL    HW214010   4.755   4.710   0.888
 4371SOL     OW14011   3.582   1.042   3.206
 4371SOL    HW114012   3.672   1.068   3.171
 4371SOL    HW214013   3.519   1.119   3.195
 4372SOL     OW14014   1.607   4.476   4.790
 4372SOL    HW114015   1.573   4.570   4.783
 4372SOL    HW214016   1.589   4.442   4.882
 4373SOL     OW14017   4.346   0.326   0.234
 4373SOL    HW114018   4.430   0.336   0.182
 4373SOL    HW214019   4.348   0.240   0.285
 4374SOL     OW14020   2.250   6.003   0.447
 4374SOL    HW114021   2.260   6.101   0.431
 4374SOL    HW214022   2.182   5.988   0.518
 4375SOL     OW14023   4.873   0.727   5.961
 4375SOL    HW114024   4.815   0.798   5.921
 4375SOL    HW214025   4.931   0.767   6.032
 4376SOL     OW14026   3.012   5.167   6.903
 4376SOL    HW114027   3.013   5.154   7.002
 4376SOL    HW214028   2.938   5.113   6.863
 4377SOL     OW14029   5.323   6.030   6.646
 4377SOL    HW114030   5.251   6.079   6.597
 4377SOL    HW214031   5.401   6.091   6.659
 4378SOL     OW14032   3.307   4.798   1.485
 4378SOL    HW114033   3.371   4.744   1.431
 4378SOL    HW214034   3.357   4.848   1.556
 4379SOL     OW14035   6.570   6.076   0.375
 4379SOL    HW114036   6.582   6.028   0.287
 4379SOL    HW214037   6.580   6.174   0.361
 4380SOL     OW14038   2.204   5.739   4.846
 4380SOL    HW114039   2.170   5.651   4.814
 4380SOL    HW214040   2.130   5.791   4.888
 4381SOL     OW14041   3.157   6.073   4.378
 4381SOL    HW114042   3.206   6.055   4.293
 4381SOL    HW214043   3.135   6.170   4.384
 4382SOL     OW14044   5.496   4.293   3.765
 4382SOL    HW114045   5.491   4.384   3.806
 4382SOL    HW214046   5.405   4.251   3.766
 4383SOL     OW14047   1.412   0.508   0.367
 4383SOL    HW114048   1.325   0.458   0.369
 4383SOL    HW214049   1.412   0.578   0.439
 4384SOL     OW14050   3.741   6.704   2.091
 4384SOL    HW114051   3.802   6.674   2.018
 4384SOL    HW214052   3.756   6.802   2.110
 4385SOL     OW14053   6.344   2.675   4.264
 4385SOL    HW114054   6.431   2.628   4.277
 4385SOL    HW214055   6.354   2.746   4.195
 4386SOL     OW14056   1.633   5.172   6.847
 4386SOL    HW114057   1.535   5.150   6.842
 4386SOL    HW214058   1.670   5.181   6.754
 4387SOL     OW14059   5.711   2.394   0.978
 4387SOL    HW114060   5.806   2.426   0.976
 4387SOL    HW214061   5.693   2.346   1.064
 4388SOL     OW14062   3.974   1.561   5.820
 4388SOL    HW114063   4.007   1.624   5.750
 4388SOL    HW214064   4.042   1.553   5.892
 4389SOL     OW14065   0.753   2.303   2.712
 4389SOL    HW114066   0.744   2.215   2.665
 4389SOL    HW214067   0.689   2.369   2.672
 4390SOL     OW14068   4.294   3.839   0.970
 4390SOL    HW114069   4.344   3.766   0.924
 4390SOL    HW214070   4.359   3.901   1.013
 4391SOL     OW14071   0.563   5.721   0.669
 4391SOL    HW114072   0.478   5.772   0.685
 4391SOL    HW214073   0.590   5.732   0.573
 4392SOL     OW14074   5.086   5.358   5.217
 4392SOL    HW114075   5.011   5.367   5.152
 4392SOL    HW214076   5.126   5.449   5.234
 4393SOL     OW14077   5.055   6.578   3.131
 4393SOL    HW114078   4.987   6.527   3.184
 4393SOL    HW214079   5.066   6.669   3.171
 4394SOL     OW14080   4.617   0.567   2.269
 4394SOL    HW114081   4.554   0.643   2.252
 4394SOL    HW214082   4.572   0.481   2.247
 4395SOL     OW14083   4.332   2.610   0.803
 4395SOL    HW114084   4.236   2.593   0.780
 4395SOL    HW214085   4.391   2.567   0.734
 4396SOL     OW14086   1.499   1.604   3.258
 4396SOL    HW114087   1.420   1.631   3.314
 4396SOL    HW214088   1.522   1.679   3.195
 4397SOL     OW14089   4.016   1.046   0.091
 4397SOL    HW114090   3.979   1.037   0.183
 4397SOL    HW214091   4.040   0.955   0.056
 4398SOL     OW14092   0.671   5.122   4.215
 4398SOL    HW114093   0.602   5.053   4.234
 4398SOL    HW214094   0.702   5.163   4.301
 4399SOL     OW14095   2.945   0.638   1.707
 4399SOL    HW114096   2.982   0.726   1.677
 4399SOL    HW214097   3.003   0.599   1.778
 4400SOL     OW14098   3.508   4.911   2.645
 4400SOL    HW114099   3.543   4.956   2.727
 4400SOL    HW214100   3.409   4.903   2.651
 4401SOL     OW14101   5.683   6.172   4.685
 4401SOL    HW114102   5.738   6.255   4.676
 4401SOL    HW214103   5.737   6.102   4.731
 4402SOL     OW14104   6.967   6.599   1.637
 4402SOL    HW114105   6.950   6.563   1.729
 4402SOL    HW214106   6.967   6.699   1.640
 4403SOL     OW14107   6.472   1.180   3.180
 4403SOL    HW114108   6.388   1.234   3.185
 4403SOL    HW214109   6.452   1.092   3.136
 4404SOL     OW14110   1.877   4.317   2.340
 4404SOL    HW114111   1.795   4.302   2.284
 4404SOL    HW214112   1.887   4.241   2.404
 4405SOL     OW14113   2.620   3.650   6.261
 4405SOL    HW114114   2.592   3.714   6.190
 4405SOL    HW214115   2.720   3.646   6.265
 4406SOL     OW14116   5.990   2.517   2.243
 4406SOL    HW114117   6.026   2.472   2.324
 4406SOL    HW214118   6.066   2.545   2.184
 4407SOL     OW14119   0.964   1.014   0.473
 4407SOL    HW114120   1.064   1.010   0.467
 4407SOL    HW214121   0.937   1.024   0.569
 4408SOL     OW14122   3.777   5.831   1.751
 4408SOL    HW114123   3.725   5.917   1.748
 4408SOL    HW214124   3.855   5.837   1.689
 4409SOL     OW14125   3.605   2.103   2.706
 4409SOL    HW114126   3.532   2.081   2.770
 4409SOL    HW214127   3.571   2.097   2.612
 4410SOL     OW14128   2.085   5.951   0.686
 4410SOL    HW114129   2.056   5.858   0.707
 4410SOL    HW214130   2.172   5.970   0.733
 4411SOL     OW14131   3.564   3.334   2.380
 4411SOL    HW114132   3.495   3.318   2.310
 4411SOL    HW214133   3.635   3.395   2.343
 4412SOL     OW14134   3.725   1.646   6.360
 4412SOL    HW114135   3.805   1.595   6.328
 4412SOL    HW214136   3.748   1.743   6.367
 4413SOL     OW14137   3.790   5.499   4.057
 4413SOL    HW114138   3.873   5.545   4.027
 4413SOL    HW214139   3.712   5.561   4.048
 4414SOL     OW14140   3.472   4.921   2.241
 4414SOL    HW114141   3.394   4.891   2.296
 4414SOL    HW214142   3.485   4.858   2.165
 4415SOL     OW14143   4.302   1.743   1.893
 4415SOL    HW114144   4.393   1.773   1.920
 4415SOL    HW214145   4.234   1.781   1.955
 4416SOL     OW14146   2.731   2.406   4.265
 4416SOL    HW114147   2.686   2.347   4.198
 4416SOL    HW214148   2.689   2.497   4.263
 4417SOL     OW14149   5.904   0.075   1.077
 4417SOL    HW114150   5.870   0.094   0.985
 4417SOL    HW214151   5.872   0.145   1.140
 4418SOL     OW14152   4.841   0.318   3.057
 4418SOL    HW114153   4.768   0.358   3.002
 4418SOL    HW214154   4.803   0.284   3.143
 4419SOL     OW14155   6.024   5.355   6.158
 4419SOL    HW114156   6.019   5.451   6.130
 4419SOL    HW214157   5.934   5.313   6.152
 4420SOL     OW14158   5.463   0.814   0.929
 4420SOL    HW114159   5.412   0.877   0.871
 4420SOL    HW214160   5.420   0.723   0.925
 4421SOL     OW14161   0.126   1.397   3.204
 4421SOL    HW114162   0.031   1.374   3.222
 4421SOL    HW214163   0.164   1.448   3.281
 4422SOL     OW14164   1.458   3.949   5.944
 4422SOL    HW114165   1.418   4.039   5.962
 4422SOL    HW214166   1.557   3.954   5.955
 4423SOL     OW14167   6.916   1.553   5.897
 4423SOL    HW114168   6.981   1.481   5.873
 4423SOL    HW214169   6.932   1.633   5.840
 4424SOL     OW14170   1.760   5.338   3.288
 4424SOL    HW114171   1.735   5.384   3.373
 4424SOL    HW214172   1.703   5.257   3.275
 4425SOL     OW14173   4.787   3.962   1.714
 4425SOL    HW114174   4.803   3.930   1.808
 4425SOL    HW214175   4.709   3.914   1.675
 4426SOL     OW14176   0.037   7.001   6.568
 4426SOL    HW114177   6.991   7.014   6.645
 4426SOL    HW214178   0.132   7.002   6.600
 4427SOL     OW14179   0.776   5.767   3.354
 4427SOL    HW114180   0.702   5.834   3.346
 4427SOL    HW214181   0.847   5.802   3.415
 4428SOL     OW14182   1.054   0.037   2.733
 4428SOL    HW114183   0.994   6.979   2.764
 4428SOL    HW214184   1.134   7.013   2.687
 4429SOL     OW14185   2.702   0.515   2.596
 4429SOL    HW114186   2.718   0.533   2.693
 4429SOL    HW214187   2.662   0.424   2.585
 4430SOL     OW14188   2.087   0.644   2.102
 4430SOL    HW114189   2.085   0.710   2.177
 4430SOL    HW214190   2.005   0.586   2.107
 4431SOL     OW14191   1.988   2.226   3.230
 4431SOL    HW114192   1.999   2.130   3.204
 4431SOL    HW214193   1.980   2.282   3.147
 4432SOL     OW14194   3.161   4.066   4.435
 4432SOL    HW114195   3.192   3.971   4.441
 4432SOL    HW214196   3.195   4.106   4.350
 4433SOL     OW14197   6.566   0.268   2.207
 4433SOL    HW114198   6.580   0.365   2.227
 4433SOL    HW214199   6.468   0.250   2.193
 4434SOL     OW14200   5.725   1.827   5.519
 4434SOL    HW114201   5.705   1.801   5.614
 4434SOL    HW214202   5.700   1.922   5.505
 4435SOL     OW14203   3.679   2.870   2.091
 4435SOL    HW114204   3.723   2.783   2.072
 4435SOL    HW214205   3.745   2.944   2.081
 4436SOL     OW14206   5.893   0.620   0.143
 4436SOL    HW114207   5.927   0.568   0.065
 4436SOL    HW214208   5.852   0.706   0.111
 4437SOL     OW14209   3.359   0.062   5.941
 4437SOL    HW114210   3.280   0.070   5.880
 4437SOL    HW214211   3.420   0.140   5.926
 4438SOL     OW14212   3.847   2.217   6.742
 4438SOL    HW114213   3.788   2.236   6.664
 4438SOL    HW214214   3.900   2.298   6.765
 4439SOL     OW14215   1.415   4.101   3.014
 4439SOL    HW114216   1.435   4.017   2.963
 4439SOL    HW214217   1.478   4.110   3.091
 4440SOL     OW14218   6.381   1.052   0.878
 4440SOL    HW114219   6.295   1.104   0.875
 4440SOL    HW214220   6.458   1.116   0.881
 4441SOL     OW14221   6.973   0.012   4.266
 4441SOL    HW114222   6.936   6.959   4.329
 4441SOL    HW214223   6.916   0.094   4.268
 4442SOL     OW14224   1.758   5.463   2.482
 4442SOL    HW114225   1.744   5.472   2.581
 4442SOL    HW214226   1.750   5.366   2.457
 4443SOL     OW14227   2.157   1.205   0.841
 4443SOL    HW114228   2.197   1.114   0.824
 4443SOL    HW214229   2.081   1.197   0.905
 4444SOL     OW14230   4.890   1.399   3.309
 4444SOL    HW114231   4.952   1.472   3.278
 4444SOL    HW214232   4.818   1.385   3.242
 4445SOL     OW14233   0.731   1.802   6.405
 4445SOL    HW114234   0.755   1.768   6.313
 4445SOL    HW214235   0.692   1.894   6.397
 4446SOL     OW14236   6.313   5.179   4.121
 4446SOL    HW114237   6.383   5.133   4.176
 4446SOL    HW214238   6.354   5.255   4.072
 4447SOL     OW14239   4.758   3.969   5.122
 4447SOL    HW114240   4.752   3.885   5.067
 4447SOL    HW214241   4.700   3.959   5.203
 4448SOL     OW14242   2.448   3.376   6.659
 4448SOL    HW114243   2.514   3.422   6.600
 4448SOL    HW214244   2.451   3.278   6.644
 4449SOL     OW14245   0.121   1.043   5.491
 4449SOL    HW114246   0.071   1.091   5.419
 4449SOL    HW214247   0.164   0.961   5.452
 4450SOL     OW14248   3.815   3.597   3.201
 4450SOL    HW114249   3.771   3.613   3.289
 4450SOL    HW214250   3.915   3.605   3.212
 4451SOL     OW14251   0.304   4.811   1.120
 4451SOL    HW114252   0.362   4.839   1.196
 4451SOL    HW214253   0.356   4.750   1.060
 4452SOL     OW14254   0.011   3.508   6.551
 4452SOL    HW114255   0.021   3.524   6.453
 4452SOL    HW214256   6.941   3.458   6.568
 4453SOL     OW14257   5.934   0.525   1.027
 4453SOL    HW114258   5.950   0.431   0.996
 4453SOL    HW214259   5.903   0.524   1.122
 4454SOL     OW14260   5.620   2.878   1.738
 4454SOL    HW114261   5.637   2.874   1.640
 4454SOL    HW214262   5.579   2.966   1.762
 4455SOL     OW14263   4.486   2.468   2.873
 4455SOL    HW114264   4.409   2.444   2.814
 4455SOL    HW214265   4.497   2.568   2.875
 4456SOL     OW14266   0.227   5.432   2.384
 4456SOL    HW114267   0.160   5.498   2.415
 4456SOL    HW214268   0.318   5.473   2.388
 4457SOL     OW14269   4.265   2.195   6.766
 4457SOL    HW114270   4.337   2.261   6.748
 4457SOL    HW214271   4.299   2.125   6.829
 4458SOL     OW14272   4.379   1.556   1.214
 4458SOL    HW114273   4.303   1.525   1.271
 4458SOL    HW214274   4.393   1.654   1.226
 4459SOL     OW14275   5.656   5.996   5.604
 4459SOL    HW114276   5.673   6.049   5.687
 4459SOL    HW214277   5.611   6.054   5.536
 4460SOL     OW14278   1.483   1.644   0.604
 4460SOL    HW114279   1.570   1.600   0.582
 4460SOL    HW214280   1.409   1.598   0.555
 4461SOL     OW14281   2.050   0.323   2.906
 4461SOL    HW114282   1.975   0.257   2.917
 4461SOL    HW214283   2.132   0.275   2.876
 4462SOL     OW14284   6.864   4.097   0.635
 4462SOL    HW114285   6.788   4.158   0.657
 4462SOL    HW214286   6.931   4.099   0.709
 4463SOL     OW14287   0.472   4.634   0.045
 4463SOL    HW114288   0.435   4.610   0.135
 4463SOL    HW214289   0.398   4.643   6.994
 4464SOL     OW14290   6.504   2.713   6.939
 4464SOL    HW114291   6.566   2.646   6.897
 4464SOL    HW214292   6.507   2.703   0.023
 4465SOL     OW14293   6.243   5.090   1.027
 4465SOL    HW114294   6.312   5.018   1.038
 4465SOL    HW214295   6.248   5.153   1.103
 4466SOL     OW14296   6.953   2.742   3.681
 4466SOL    HW114297   6.873   2.795   3.709
 4466SOL    HW214298   6.926   2.649   3.659
 4467SOL     OW14299   1.295   0.690   4.701
 4467SOL    HW114300   1.239   0.608   4.711
 4467SOL    HW214301   1.352   0.701   4.782
 4468SOL     OW14302   1.385   1.738   0.834
 4468SOL    HW114303   1.291   1.705   0.840
 4468SOL    HW214304   1.421   1.722   0.742
 4469SOL     OW14305   4.805   6.757   0.637
 4469SOL    HW114306   4.792   6.667   0.680
 4469SOL    HW214307   4.892   6.796   0.669
 4470SOL     OW14308   4.761   4.783   1.708
 4470SOL    HW114309   4.790   4.703   1.760
 4470SOL    HW214310   4.704   4.754   1.631
 4471SOL     OW14311   5.822   2.085   1.835
 4471SOL    HW114312   5.743   2.122   1.884
 4471SOL    HW214313   5.796   2.060   1.742
 4472SOL     OW14314   2.495   5.288   1.520
 4472SOL    HW114315   2.574   5.349   1.514
 4472SOL    HW214316   2.520   5.197   1.485
 4473SOL     OW14317   6.200   0.857   0.315
 4473SOL    HW114318   6.108   0.826   0.289
 4473SOL    HW214319   6.196   0.953   0.341
 4474SOL     OW14320   6.202   0.933   4.517
 4474SOL    HW114321   6.294   0.906   4.489
 4474SOL    HW214322   6.135   0.900   4.450
 4475SOL     OW14323   1.399   3.384   0.316
 4475SOL    HW114324   1.407   3.462   0.378
 4475SOL    HW214325   1.333   3.405   0.244
 4476SOL     OW14326   3.973   6.462   2.810
 4476SOL    HW114327   4.009   6.403   2.883
 4476SOL    HW214328   3.887   6.503   2.840
 4477SOL     OW14329   1.881   2.172   0.666
 4477SOL    HW114330   1.912   2.156   0.760
 4477SOL    HW214331   1.833   2.090   0.633
 4478SOL     OW14332   1.272   4.748   0.940
 4478SOL    HW114333   1.236   4.801   1.017
 4478SOL    HW214334   1.329   4.674   0.973
 4479SOL     OW14335   1.980   0.000   5.872
 4479SOL    HW114336   1.884   6.997   5.849
 4479SOL    HW214337   2.035   7.010   5.789
 4480SOL     OW14338   6.779   3.739   3.215
 4480SOL    HW114339   6.798   3.835   3.235
 4480SOL    HW214340   6.857   3.683   3.242
 4481SOL     OW14341   0.750   1.042   4.405
 4481SOL    HW114342   0.806   1.051   4.322
 4481SOL    HW214343   0.798   1.085   4.482
 4482SOL     OW14344   0.980   4.017   2.934
 4482SOL    HW114345   1.002   4.041   3.028
 4482SOL    HW214346   0.909   4.079   2.900
 4483SOL     OW14347   5.668   3.742   0.432
 4483SOL    HW114348   5.583   3.755   0.381
 4483SOL    HW214349   5.735   3.811   0.405
 4484SOL     OW14350   3.161   3.507   6.658
 4484SOL    HW114351   3.188   3.506   6.755
 4484SOL    HW214352   3.071   3.465   6.649
 4485SOL     OW14353   4.786   6.739   6.314
 4485SOL    HW114354   4.870   6.793   6.312
 4485SOL    HW214355   4.779   6.686   6.229
 4486SOL     OW14356   6.034   3.257   4.187
 4486SOL    HW114357   6.076   3.346   4.171
 4486SOL    HW214358   5.975   3.262   4.268
 4487SOL     OW14359   3.216   3.216   5.801
 4487SOL    HW114360   3.123   3.186   5.781
 4487SOL    HW214361   3.231   3.305   5.758
 4488SOL     OW14362   6.929   2.149   6.437
 4488SOL    HW114363   6.829   2.145   6.432
 4488SOL    HW214364   6.962   2.078   6.499
 4489SOL     OW14365   0.776   1.058   2.899
 4489SOL    HW114366   0.733   0.984   2.847
 4489SOL    HW214367   0.711   1.096   2.964
 4490SOL     OW14368   6.537   1.929   4.476
 4490SOL    HW114369   6.546   1.851   4.537
 4490SOL    HW214370   6.555   1.900   4.382
 4491SOL     OW14371   1.793   4.175   2.020
 4491SOL    HW114372   1.748   4.126   2.094
 4491SOL    HW214373   1.859   4.115   1.975
 4492SOL     OW14374   5.300   4.083   6.120
 4492SOL    HW114375   5.276   4.161   6.178
 4492SOL    HW214376   5.263   3.999   6.161
 4493SOL     OW14377   6.055   4.487   3.227
 4493SOL    HW114378   6.133   4.497   3.290
 4493SOL    HW214379   6.084   4.516   3.135
 4494SOL     OW14380   5.416   1.843   1.673
 4494SOL    HW114381   5.427   1.943   1.668
 4494SOL    HW214382   5.449   1.811   1.762
 4495SOL     OW14383   5.416   5.405   1.476
 4495SOL    HW114384   5.465   5.429   1.560
 4495SOL    HW214385   5.363   5.322   1.491
 4496SOL     OW14386   6.174   3.504   6.052
 4496SOL    HW114387   6.131   3.588   6.019
 4496SOL    HW214388   6.191   3.443   5.974
 4497SOL     OW14389   7.013   6.068   1.107
 4497SOL    HW114390   7.002   6.041   1.011
 4497SOL    HW214391   6.924   6.092   1.145
 4498SOL     OW14392   0.920   4.077   6.116
 4498SOL    HW114393   0.993   4.042   6.175
 4498SOL    HW214394   0.833   4.075   6.164
 4499SOL     OW14395   5.418   3.857   0.324
 4499SOL    HW114396   5.341   3.917   0.342
 4499SOL    HW214397   5.490   3.908   0.278
 4500SOL     OW14398   3.813   3.976   2.139
 4500SOL    HW114399   3.792   3.975   2.237
 4500SOL    HW214400   3.906   3.942   2.125
 4501SOL     OW14401   1.160   4.964   4.952
 4501SOL    HW114402   1.118   5.052   4.973
 4501SOL    HW214403   1.090   4.901   4.917
 4502SOL     OW14404   5.310   2.380   0.041
 4502SOL    HW114405   5.214   2.381   0.068
 4502SOL    HW214406   5.317   2.359   6.959
 4503SOL     OW14407   1.339   3.116   2.642
 4503SOL    HW114408   1.435   3.096   2.661
 4503SOL    HW214409   1.331   3.207   2.601
 4504SOL     OW14410   4.559   2.638   4.470
 4504SOL    HW114411   4.504   2.619   4.388
 4504SOL    HW214412   4.513   2.600   4.550
 4505SOL     OW14413   2.351   5.126   0.566
 4505SOL    HW114414   2.289   5.069   0.511
 4505SOL    HW214415   2.445   5.112   0.534
 4506SOL     OW14416   3.526   0.331   5.860
 4506SOL    HW114417   3.526   0.317   5.761
 4506SOL    HW214418   3.589   0.405   5.884
 4507SOL     OW14419   6.183   3.631   2.161
 4507SOL    HW114420   6.268   3.616   2.110
 4507SOL    HW214421   6.195   3.710   2.223
 4508SOL     OW14422   2.070   3.995   0.308
 4508SOL    HW114423   2.165   4.023   0.298
 4508SOL    HW214424   2.048   3.926   0.239
 4509SOL     OW14425   0.999   2.556   3.015
 4509SOL    HW114426   1.023   2.578   2.921
 4509SOL    HW214427   1.059   2.606   3.078
 4510SOL     OW14428   2.796   6.532   6.111
 4510SOL    HW114429   2.843   6.462   6.166
 4510SOL    HW214430   2.750   6.488   6.034
 4511SOL     OW14431   0.071   2.121   0.152
 4511SOL    HW114432   0.152   2.086   0.104
 4511SOL    HW214433   0.097   2.152   0.243
 4512SOL     OW14434   2.609   4.118   0.042
 4512SOL    HW114435   2.611   4.020   0.020
 4512SOL    HW214436   2.691   4.143   0.092
 4513SOL     OW14437   6.325   1.365   3.010
 4513SOL    HW114438   6.410   1.402   3.047
 4513SOL    HW214439   6.329   1.363   2.910
 4514SOL     OW14440   2.295   0.223   5.015
 4514SOL    HW114441   2.200   0.212   5.042
 4514SOL    HW214442   2.300   0.280   4.933
 4515SOL     OW14443   6.997   5.001   0.266
 4515SOL    HW114444   0.075   4.977   0.241
 4515SOL    HW214445   6.955   4.923   0.313
 4516SOL     OW14446   0.520   6.965   3.629
 4516SOL    HW114447   0.587   6.897   3.601
 4516SOL    HW214448   0.547   7.003   3.718
 4517SOL     OW14449   2.876   0.981   6.576
 4517SOL    HW114450   2.851   1.061   6.630
 4517SOL    HW214451   2.967   0.949   6.603
 4518SOL     OW14452   1.630   0.320   3.503
 4518SOL    HW114453   1.721   0.319   3.543
 4518SOL    HW214454   1.581   0.237   3.530
 4519SOL     OW14455   6.540   2.366   5.001
 4519SOL    HW114456   6.601   2.409   4.935
 4519SOL    HW214457   6.446   2.373   4.969
 4520SOL     OW14458   6.976   3.478   2.868
 4520SOL    HW114459   6.958   3.433   2.955
 4520SOL    HW214460   0.054   3.457   2.838
 4521SOL     OW14461   5.144   1.673   6.590
 4521SOL    HW114462   5.145   1.599   6.657
 4521SOL    HW214463   5.094   1.643   6.508
 4522SOL     OW14464   5.611   6.641   3.236
 4522SOL    HW114465   5.696   6.641   3.184
 4522SOL    HW214466   5.551   6.714   3.203
 4523SOL     OW14467   4.671   1.997   5.956
 4523SOL    HW114468   4.699   2.052   6.035
 4523SOL    HW214469   4.617   1.919   5.987
 4524SOL     OW14470   5.887   0.628   5.544
 4524SOL    HW114471   5.945   0.707   5.561
 4524SOL    HW214472   5.937   0.544   5.564
 4525SOL     OW14473   6.640   1.227   4.100
 4525SOL    HW114474   6.626   1.265   4.192
 4525SOL    HW214475   6.701   1.287   4.048
 4526SOL     OW14476   3.080   1.649   1.489
 4526SOL    HW114477   3.144   1.647   1.565
 4526SOL    HW214478   3.046   1.743   1.476
 4527SOL     OW14479   4.396   6.341   4.097
 4527SOL    HW114480   4.310   6.293   4.081
 4527SOL    HW214481   4.462   6.279   4.140
 4528SOL     OW14482   4.707   0.273   6.197
 4528SOL    HW114483   4.633   0.240   6.139
 4528SOL    HW214484   4.775   0.321   6.141
 4529SOL     OW14485   3.033   6.785   4.077
 4529SOL    HW114486   3.066   6.857   4.138
 4529SOL    HW214487   3.111   6.740   4.033
 4530SOL     OW14488   6.798   2.465   4.175
 4530SOL    HW114489   6.781   2.478   4.077
 4530SOL    HW214490   6.894   2.486   4.195
 4531SOL     OW14491   0.499   3.895   3.824
 4531SOL    HW114492   0.498   3.939   3.734
 4531SOL    HW214493   0.422   3.831   3.830
 4532SOL     OW14494   0.848   2.189   0.193
 4532SOL    HW114495   0.862   2.120   0.263
 4532SOL    HW214496   0.781   2.257   0.225
 4533SOL     OW14497   3.323   6.490   2.110
 4533SOL    HW114498   3.347   6.586   2.121
 4533SOL    HW214499   3.232   6.474   2.149
 4534SOL     OW14500   6.629   4.140   5.764
 4534SOL    HW114501   6.625   4.068   5.833
 4534SOL    HW214502   6.686   4.215   5.797
 4535SOL     OW14503   5.523   2.321   2.882
 4535SOL    HW114504   5.612   2.284   2.909
 4535SOL    HW214505   5.452   2.284   2.942
 4536SOL     OW14506   6.862   6.843   3.603
 4536SOL    HW114507   6.832   6.916   3.542
 4536SOL    HW214508   6.961   6.851   3.619
 4537SOL     OW14509   5.013   3.331   5.689
 4537SOL    HW114510   4.969   3.277   5.761
 4537SOL    HW214511   5.011   3.279   5.603
 4538SOL     OW14512   3.477   2.309   1.665
 4538SOL    HW114513   3.492   2.228   1.609
 4538SOL    HW214514   3.544   2.312   1.739
 4539SOL     OW14515   2.137   2.749   2.010
 4539SOL    HW114516   2.215   2.735   1.948
 4539SOL    HW214517   2.153   2.698   2.094
 4540SOL     OW14518   3.443   2.825   5.054
 4540SOL    HW114519   3.422   2.728   5.054
 4540SOL    HW214520   3.361   2.878   5.077
 4541SOL     OW14521   6.041   1.776   1.674
 4541SOL    HW114522   6.075   1.683   1.664
 4541SOL    HW214523   5.941   1.775   1.680
 4542SOL     OW14524   5.107   6.556   3.448
 4542SOL    HW114525   5.093   6.652   3.473
 4542SOL    HW214526   5.024   6.519   3.408
 4543SOL     OW14527   5.989   2.548   2.582
 4543SOL    HW114528   5.996   2.466   2.525
 4543SOL    HW214529   5.900   2.548   2.628
 4544SOL     OW14530   5.475   5.019   6.659
 4544SOL    HW114531   5.570   4.992   6.642
 4544SOL    HW214532   5.417   4.938   6.666
 4545SOL     OW14533   3.512   3.904   6.561
 4545SOL    HW114534   3.516   3.998   6.526
 4545SOL    HW214535   3.417   3.871   6.557
 4546SOL     OW14536   0.544   6.130   6.638
 4546SOL    HW114537   0.620   6.085   6.591
 4546SOL    HW214538   0.577   6.216   6.678
 4547SOL     OW14539   4.402   1.429   2.792
 4547SOL    HW114540   4.463   1.428   2.712
 4547SOL    HW214541   4.431   1.500   2.855
 4548SOL     OW14542   0.935   3.366   4.235
 4548SOL    HW114543   0.922   3.461   4.203
 4548SOL    HW214544   1.030   3.340   4.222
 4549SOL     OW14545   5.753   1.591   2.634
 4549SOL    HW114546   5.773   1.686   2.660
 4549SOL    HW214547   5.796   1.529   2.699
 4550SOL     OW14548   1.960   5.266   4.754
 4550SOL    HW114549   1.997   5.246   4.845
 4550SOL    HW214550   1.913   5.185   4.719
 4551SOL     OW14551   6.484   3.460   0.569
 4551SOL    HW114552   6.483   3.436   0.472
 4551SOL    HW214553   6.399   3.429   0.612
 4552SOL     OW14554   6.916   3.015   4.439
 4552SOL    HW114555   6.957   2.926   4.417
 4552SOL    HW214556   6.823   3.001   4.474
 4553SOL     OW14557   5.312   4.846   6.497
 4553SOL    HW114558   5.352   4.754   6.498
 4553SOL    HW214559   5.278   4.868   6.589
 4554SOL     OW14560   6.250   6.591   3.832
 4554SOL    HW114561   6.182   6.651   3.790
 4554SOL    HW214562   6.275   6.626   3.922
 4555SOL     OW14563   3.903   3.214   0.244
 4555SOL    HW114564   3.856   3.284   0.298
 4555SOL    HW214565   3.962   3.160   0.304
 4556SOL     OW14566   4.451   0.443   5.226
 4556SOL    HW114567   4.468   0.462   5.323
 4556SOL    HW214568   4.535   0.412   5.182
 4557SOL     OW14569   5.614   1.212   4.481
 4557SOL    HW114570   5.554   1.273   4.429
 4557SOL    HW214571   5.689   1.265   4.521
 4558SOL     OW14572   6.662   3.122   6.359
 4558SOL    HW114573   6.744   3.176   6.342
 4558SOL    HW214574   6.630   3.081   6.273
 4559SOL     OW14575   1.451   6.279   1.331
 4559SOL    HW114576   1.515   6.222   1.382
 4559SOL    HW214577   1.500   6.357   1.293
 4560SOL     OW14578   5.754   2.866   2.611
 4560SOL    HW114579   5.666   2.863   2.563
 4560SOL    HW214580   5.828   2.843   2.548
 4561SOL     OW14581   3.369   6.427   6.503
 4561SOL    HW114582   3.369   6.471   6.414
 4561SOL    HW214583   3.457   6.382   6.518
 4562SOL     OW14584   2.605   4.435   5.934
 4562SOL    HW114585   2.612   4.458   5.837
 4562SOL    HW214586   2.544   4.357   5.946
 4563SOL     OW14587   5.826   2.559   7.000
 4563SOL    HW114588   5.859   2.618   0.058
 4563SOL    HW214589   5.848   2.600   6.911
 4564SOL     OW14590   0.573   5.274   6.920
 4564SOL    HW114591   0.663   5.276   6.963
 4564SOL    HW214592   0.505   5.241   6.986
 4565SOL     OW14593   2.814   1.080   4.075
 4565SOL    HW114594   2.908   1.086   4.039
 4565SOL    HW214595   2.795   1.160   4.131
 4566SOL     OW14596   1.408   0.892   0.928
 4566SOL    HW114597   1.412   0.984   0.890
 4566SOL    HW214598   1.500   0.861   0.951
 4567SOL     OW14599   5.857   1.776   0.737
 4567SOL    HW114600   5.817   1.783   0.646
 4567SOL    HW214601   5.787   1.798   0.806
 4568SOL     OW14602   4.458   4.918   3.923
 4568SOL    HW114603   4.495   4.995   3.974
 4568SOL    HW214604   4.383   4.876   3.974
 4569SOL     OW14605   0.905   1.725   3.726
 4569SOL    HW114606   0.999   1.722   3.693
 4569SOL    HW214607   0.846   1.674   3.663
 4570SOL     OW14608   5.243   5.856   4.593
 4570SOL    HW114609   5.158   5.847   4.645
 4570SOL    HW214610   5.289   5.940   4.619
 4571SOL     OW14611   3.989   3.072   4.009
 4571SOL    HW114612   3.964   3.032   3.920
 4571SOL    HW214613   3.910   3.068   4.070
 4572SOL     OW14614   2.603   5.486   1.138
 4572SOL    HW114615   2.530   5.419   1.150
 4572SOL    HW214616   2.644   5.505   1.227
 4573SOL     OW14617   5.573   0.396   1.309
 4573SOL    HW114618   5.525   0.412   1.395
 4573SOL    HW214619   5.508   0.363   1.240
 4574SOL     OW14620   0.434   4.417   1.857
 4574SOL    HW114621   0.508   4.429   1.791
 4574SOL    HW214622   0.367   4.353   1.820
 4575SOL     OW14623   6.848   6.351   1.985
 4575SOL    HW114624   6.799   6.343   2.072
 4575SOL    HW214625   6.877   6.446   1.972
 4576SOL     OW14626   3.397   6.218   3.741
 4576SOL    HW114627   3.463   6.273   3.791
 4576SOL    HW214628   3.344   6.276   3.679
 4577SOL     OW14629   2.000   3.452   3.772
 4577SOL    HW114630   2.068   3.495   3.714
 4577SOL    HW214631   1.915   3.439   3.721
 4578SOL     OW14632   6.564   5.999   3.773
 4578SOL    HW114633   6.650   5.951   3.756
 4578SOL    HW214634   6.502   5.986   3.695
 4579SOL     OW14635   4.820   1.757   3.802
 4579SOL    HW114636   4.873   1.833   3.766
 4579SOL    HW214637   4.724   1.784   3.811
 4580SOL     OW14638   0.517   5.273   6.632
 4580SOL    HW114639   0.533   5.246   6.727
 4580SOL    HW214640   0.418   5.281   6.617
 4581SOL     OW14641   3.497   6.110   4.966
 4581SOL    HW114642   3.409   6.135   5.009
 4581SOL    HW214643   3.536   6.032   5.016
 4582SOL     OW14644   5.046   6.817   3.254
 4582SOL    HW114645   5.035   6.854   3.346
 4582SOL    HW214646   5.078   6.889   3.193
 4583SOL     OW14647   3.596   0.366   5.579
 4583SOL    HW114648   3.685   0.325   5.601
 4583SOL    HW214649   3.607   0.465   5.569
 4584SOL     OW14650   0.280   5.310   5.383
 4584SOL    HW114651   0.252   5.359   5.300
 4584SOL    HW214652   0.366   5.349   5.417
 4585SOL     OW14653   2.909   6.056   2.227
 4585SOL    HW114654   2.949   6.038   2.137
 4585SOL    HW214655   2.830   6.117   2.216
 4586SOL     OW14656   2.437   6.197   1.302
 4586SOL    HW114657   2.471   6.110   1.337
 4586SOL    HW214658   2.416   6.258   1.379
 4587SOL     OW14659   3.031   5.011   0.578
 4587SOL    HW114660   2.987   4.949   0.513
 4587SOL    HW214661   3.015   4.979   0.671
 4588SOL     OW14662   3.185   4.034   4.830
 4588SOL    HW114663   3.232   4.083   4.757
 4588SOL    HW214664   3.162   4.099   4.903
 4589SOL     OW14665   1.306   2.030   3.614
 4589SOL    HW114666   1.237   2.096   3.643
 4589SOL    HW214667   1.397   2.070   3.622
 4590SOL     OW14668   4.210   6.360   3.205
 4590SOL    HW114669   4.206   6.300   3.285
 4590SOL    HW214670   4.305   6.380   3.182
 4591SOL     OW14671   5.411   5.873   5.059
 4591SOL    HW114672   5.311   5.879   5.052
 4591SOL    HW214673   5.437   5.780   5.083
 4592SOL     OW14674   3.410   1.398   5.634
 4592SOL    HW114675   3.469   1.321   5.657
 4592SOL    HW214676   3.426   1.473   5.699
 4593SOL     OW14677   4.832   6.692   1.745
 4593SOL    HW114678   4.800   6.613   1.797
 4593SOL    HW214679   4.770   6.769   1.761
 4594SOL     OW14680   4.100   2.204   2.643
 4594SOL    HW114681   4.117   2.109   2.670
 4594SOL    HW214682   4.011   2.233   2.679
 4595SOL     OW14683   4.414   3.556   5.808
 4595SOL    HW114684   4.415   3.576   5.906
 4595SOL    HW214685   4.467   3.625   5.759
 4596SOL     OW14686   4.595   0.428   2.603
 4596SOL    HW114687   4.562   0.338   2.631
 4596SOL    HW214688   4.674   0.417   2.543
 4597SOL     OW14689   6.576   3.592   5.845
 4597SOL    HW114690   6.535   3.683   5.837
 4597SOL    HW214691   6.603   3.559   5.754
 4598SOL     OW14692   2.594   4.437   6.910
 4598SOL    HW114693   2.580   4.338   6.899
 4598SOL    HW214694   2.645   4.472   6.832
 4599SOL     OW14695   3.244   5.302   0.272
 4599SOL    HW114696   3.261   5.204   0.266
 4599SOL    HW214697   3.245   5.342   0.180
 4600SOL     OW14698   2.719   3.853   0.965
 4600SOL    HW114699   2.633   3.825   1.008
 4600SOL    HW214700   2.793   3.848   1.032
 4601SOL     OW14701   2.039   4.982   4.116
 4601SOL    HW114702   1.998   5.038   4.044
 4601SOL    HW214703   2.026   4.885   4.095
 4602SOL     OW14704   1.549   0.217   1.533
 4602SOL    HW114705   1.643   0.252   1.529
 4602SOL    HW214706   1.494   0.275   1.593
 4603SOL     OW14707   3.029   1.477   2.236
 4603SOL    HW114708   2.971   1.431   2.169
 4603SOL    HW214709   2.998   1.453   2.328
 4604SOL     OW14710   1.078   0.383   2.962
 4604SOL    HW114711   1.114   0.430   3.042
 4604SOL    HW214712   1.130   0.299   2.946
 4605SOL     OW14713   5.338   6.022   5.860
 4605SOL    HW114714   5.334   6.091   5.933
 4605SOL    HW214715   5.387   5.941   5.892
 4606SOL     OW14716   6.395   6.464   4.635
 4606SOL    HW114717   6.307   6.475   4.682
 4606SOL    HW214718   6.378   6.435   4.540
 4607SOL     OW14719   2.934   3.082   1.055
 4607SOL    HW114720   2.895   3.137   1.128
 4607SOL    HW214721   2.860   3.036   1.005
 4608SOL     OW14722   1.074   3.311   5.627
 4608SOL    HW114723   1.131   3.322   5.709
 4608SOL    HW214724   1.131   3.279   5.551
 4609SOL     OW14725   3.145   0.231   0.781
 4609SOL    HW114726   3.168   0.207   0.876
 4609SOL    HW214727   3.227   0.229   0.725
 4610SOL     OW14728   6.716   3.692   6.741
 4610SOL    HW114729   6.703   3.782   6.783
 4610SOL    HW214730   6.813   3.673   6.732
 4611SOL     OW14731   1.724   4.637   6.756
 4611SOL    HW114732   1.655   4.601   6.818
 4611SOL    HW214733   1.694   4.724   6.719
 4612SOL     OW14734   2.132   0.573   6.096
 4612SOL    HW114735   2.169   0.656   6.052
 4612SOL    HW214736   2.079   0.600   6.176
 4613SOL     OW14737   3.537   4.857   1.626
 4613SOL    HW114738   3.565   4.802   1.704
 4613SOL    HW214739   3.618   4.892   1.578
 4614SOL     OW14740   2.186   4.728   6.703
 4614SOL    HW114741   2.167   4.795   6.631
 4614SOL    HW214742   2.245   4.770   6.773
 4615SOL     OW14743   6.330   3.001   6.335
 4615SOL    HW114744   6.410   2.944   6.320
 4615SOL    HW214745   6.312   3.057   6.254
 4616SOL     OW14746   5.617   1.229   6.422
 4616SOL    HW114747   5.696   1.263   6.372
 4616SOL    HW214748   5.560   1.174   6.361
 4617SOL     OW14749   7.012   3.750   1.876
 4617SOL    HW114750   6.940   3.680   1.873
 4617SOL    HW214751   0.086   3.706   1.882
 4618SOL     OW14752   0.491   3.014   6.782
 4618SOL    HW114753   0.402   2.968   6.781
 4618SOL    HW214754   0.491   3.087   6.714
 4619SOL     OW14755   4.307   0.657   3.923
 4619SOL    HW114756   4.368   0.686   3.997
 4619SOL    HW214757   4.213   0.656   3.956
 4620SOL     OW14758   2.415   5.987   0.191
 4620SOL    HW114759   2.337   5.973   0.130
 4620SOL    HW214760   2.382   6.016   0.281
 4621SOL     OW14761   6.778   0.531   6.431
 4621SOL    HW114762   6.717   0.455   6.411
 4621SOL    HW214763   6.871   0.507   6.405
 4622SOL     OW14764   1.861   4.099   0.446
 4622SOL    HW114765   1.817   4.035   0.509
 4622SOL    HW214766   1.935   4.051   0.397
 4623SOL     OW14767   5.474   3.631   3.063
 4623SOL    HW114768   5.460   3.658   3.158
 4623SOL    HW214769   5.411   3.556   3.040
 4624SOL     OW14770   4.410   6.747   6.168
 4624SOL    HW114771   4.488   6.807   6.153
 4624SOL    HW214772   4.328   6.787   6.128
 4625SOL     OW14773   1.228   3.746   6.386
 4625SOL    HW114774   1.260   3.713   6.297
 4625SOL    HW214775   1.212   3.668   6.447
 4626SOL     OW14776   5.606   4.660   1.920
 4626SOL    HW114777   5.525   4.616   1.962
 4626SOL    HW214778   5.686   4.601   1.933
 4627SOL     OW14779   2.000   6.692   5.088
 4627SOL    HW114780   2.040   6.610   5.046
 4627SOL    HW214781   1.978   6.673   5.183
 4628SOL     OW14782   6.412   2.936   1.901
 4628SOL    HW114783   6.495   2.895   1.939
 4628SOL    HW214784   6.433   2.980   1.814
 4629SOL     OW14785   4.496   5.608   4.461
 4629SOL    HW114786   4.445   5.523   4.446
 4629SOL    HW214787   4.469   5.649   4.547
 4630SOL     OW14788   2.156   6.237   2.638
 4630SOL    HW114789   2.127   6.196   2.725
 4630SOL    HW214790   2.230   6.182   2.599
 4631SOL     OW14791   1.724   1.029   3.161
 4631SOL    HW114792   1.636   1.074   3.176
 4631SOL    HW214793   1.769   1.015   3.248
 4632SOL     OW14794   5.481   6.313   4.102
 4632SOL    HW114795   5.454   6.371   4.179
 4632SOL    HW214796   5.399   6.280   4.055
 4633SOL     OW14797   4.947   2.643   5.455
 4633SOL    HW114798   5.036   2.609   5.487
 4633SOL    HW214799   4.929   2.608   5.363
 4634SOL     OW14800   3.022   4.351   6.970
 4634SOL    HW114801   3.076   4.381   0.033
 4634SOL    HW214802   3.081   4.301   6.906
 4635SOL     OW14803   4.838   3.477   1.477
 4635SOL    HW114804   4.929   3.514   1.497
 4635SOL    HW214805   4.829   3.461   1.379
 4636SOL     OW14806   0.607   5.389   1.945
 4636SOL    HW114807   0.679   5.389   1.876
 4636SOL    HW214808   0.642   5.430   2.029
 4637SOL     OW14809   1.181   0.765   5.076
 4637SOL    HW114810   1.205   0.756   5.172
 4637SOL    HW214811   1.240   0.705   5.021
 4638SOL     OW14812   4.381   4.853   5.703
 4638SOL    HW114813   4.320   4.775   5.688
 4638SOL    HW214814   4.417   4.850   5.796
 4639SOL     OW14815   6.549   1.915   5.177
 4639SOL    HW114816   6.620   1.972   5.219
 4639SOL    HW214817   6.482   1.972   5.130
 4640SOL     OW14818   6.154   4.925   2.867
 4640SOL    HW114819   6.085   4.919   2.940
 4640SOL    HW214820   6.234   4.870   2.893
 4641SOL     OW14821   2.652   3.614   5.495
 4641SOL    HW114822   2.575   3.552   5.478
 4641SOL    HW214823   2.663   3.675   5.417
 4642SOL     OW14824   5.794   5.967   4.075
 4642SOL    HW114825   5.700   5.957   4.041
 4642SOL    HW214826   5.836   6.048   4.035
 4643SOL     OW14827   4.257   3.434   1.169
 4643SOL    HW114828   4.246   3.350   1.116
 4643SOL    HW214829   4.326   3.420   1.240
 4644SOL     OW14830   3.649   4.534   5.715
 4644SOL    HW114831   3.568   4.487   5.750
 4644SOL    HW214832   3.702   4.471   5.657
 4645SOL     OW14833   1.591   6.078   4.826
 4645SOL    HW114834   1.554   6.141   4.894
 4645SOL    HW214835   1.594   5.985   4.863
 4646SOL     OW14836   3.410   0.546   0.865
 4646SOL    HW114837   3.407   0.575   0.770
 4646SOL    HW214838   3.351   0.606   0.920
 4647SOL     OW14839   6.915   0.505   5.150
 4647SOL    HW114840   6.904   0.406   5.143
 4647SOL    HW214841   6.876   0.537   5.236
 4648SOL     OW14842   2.078   6.003   3.576
 4648SOL    HW114843   2.059   6.009   3.478
 4648SOL    HW214844   2.002   6.044   3.627
 4649SOL     OW14845   5.967   6.480   5.758
 4649SOL    HW114846   5.871   6.510   5.755
 4649SOL    HW214847   6.024   6.548   5.713
 4650SOL     OW14848   6.807   4.556   1.362
 4650SOL    HW114849   6.791   4.524   1.269
 4650SOL    HW214850   6.761   4.643   1.377
 4651SOL     OW14851   6.038   2.245   1.920
 4651SOL    HW114852   5.971   2.210   1.855
 4651SOL    HW214853   6.127   2.203   1.902
 4652SOL     OW14854   0.311   6.479   5.303
 4652SOL    HW114855   0.371   6.551   5.337
 4652SOL    HW214856   0.314   6.401   5.366
 4653SOL     OW14857   0.719   4.764   0.003
 4653SOL    HW114858   0.629   4.722   0.015
 4653SOL    HW214859   0.729   4.793   6.923
 4654SOL     OW14860   1.151   1.833   0.171
 4654SOL    HW114861   1.244   1.863   0.193
 4654SOL    HW214862   1.129   1.859   0.077
 4655SOL     OW14863   0.124   4.715   3.943
 4655SOL    HW114864   0.125   4.721   3.843
 4655SOL    HW214865   0.191   4.779   3.981
 4656SOL     OW14866   2.371   6.995   3.382
 4656SOL    HW114867   2.340   6.901   3.365
 4656SOL    HW214868   2.423   0.012   3.303
 4657SOL     OW14869   5.894   1.104   6.048
 4657SOL    HW114870   5.972   1.111   5.985
 4657SOL    HW214871   5.866   1.008   6.056
 4658SOL     OW14872   5.166   0.470   3.586
 4658SOL    HW114873   5.259   0.498   3.612
 4658SOL    HW214874   5.100   0.519   3.644
 4659SOL     OW14875   1.910   3.025   4.523
 4659SOL    HW114876   1.888   2.980   4.436
 4659SOL    HW214877   1.874   3.118   4.522
 4660SOL     OW14878   6.339   1.140   5.416
 4660SOL    HW114879   6.312   1.236   5.407
 4660SOL    HW214880   6.363   1.103   5.326
 4661SOL     OW14881   3.505   2.990   3.115
 4661SOL    HW114882   3.580   2.952   3.061
 4661SOL    HW214883   3.528   2.985   3.212
 4662SOL     OW14884   5.932   6.530   4.125
 4662SOL    HW114885   5.982   6.541   4.211
 4662SOL    HW214886   5.943   6.437   4.091
 4663SOL     OW14887   0.757   2.585   2.127
 4663SOL    HW114888   0.711   2.529   2.058
 4663SOL    HW214889   0.852   2.553   2.137
 4664SOL     OW14890   3.486   4.285   0.122
 4664SOL    HW114891   3.442   4.198   0.146
 4664SOL    HW214892   3.502   4.288   0.023
 4665SOL     OW14893   5.547   0.440   6.052
 4665SOL    HW114894   5.560   0.477   5.960
 4665SOL    HW214895   5.629   0.455   6.107
 4666SOL     OW14896   1.747   1.573   0.485
 4666SOL    HW114897   1.846   1.575   0.498
 4666SOL    HW214898   1.724   1.608   0.394
 4667SOL     OW14899   0.785   5.990   4.302
 4667SOL    HW114900   0.813   5.926   4.374
 4667SOL    HW214901   0.800   5.948   4.212
 4668SOL     OW14902   5.342   0.720   5.134
 4668SOL    HW114903   5.408   0.764   5.195
 4668SOL    HW214904   5.384   0.639   5.092
 4669SOL     OW14905   2.245   1.741   2.541
 4669SOL    HW114906   2.171   1.800   2.509
 4669SOL    HW214907   2.243   1.654   2.492
 4670SOL     OW14908   1.858   1.454   4.275
 4670SOL    HW114909   1.829   1.547   4.297
 4670SOL    HW214910   1.835   1.434   4.180
 4671SOL     OW14911   5.934   2.060   2.806
 4671SOL    HW114912   6.003   2.086   2.738
 4671SOL    HW214913   5.887   2.142   2.839
 4672SOL     OW14914   2.791   2.608   5.262
 4672SOL    HW114915   2.720   2.669   5.296
 4672SOL    HW214916   2.749   2.521   5.233
 4673SOL     OW14917   5.232   0.544   2.200
 4673SOL    HW114918   5.206   0.456   2.237
 4673SOL    HW214919   5.187   0.617   2.252
 4674SOL     OW14920   4.693   6.662   5.078
 4674SOL    HW114921   4.603   6.673   5.120
 4674SOL    HW214922   4.699   6.572   5.034
 4675SOL     OW14923   0.907   4.410   6.858
 4675SOL    HW114924   0.955   4.431   6.943
 4675SOL    HW214925   0.968   4.427   6.780
 4676SOL     OW14926   1.097   4.280   4.185
 4676SOL    HW114927   1.027   4.248   4.122
 4676SOL    HW214928   1.183   4.233   4.168
 4677SOL     OW14929   1.251   3.708   0.701
 4677SOL    HW114930   1.218   3.797   0.734
 4677SOL    HW214931   1.173   3.652   0.672
 4678SOL     OW14932   0.953   3.140   1.887
 4678SOL    HW114933   0.919   3.121   1.979
 4678SOL    HW214934   0.917   3.073   1.823
 4679SOL     OW14935   4.517   0.323   2.204
 4679SOL    HW114936   4.498   0.246   2.265
 4679SOL    HW214937   4.487   0.301   2.111
 4680SOL     OW14938   1.971   0.780   6.396
 4680SOL    HW114939   1.913   0.856   6.425
 4680SOL    HW214940   2.066   0.799   6.419
 4681SOL     OW14941   4.770   5.766   2.452
 4681SOL    HW114942   4.782   5.667   2.443
 4681SOL    HW214943   4.695   5.784   2.516
 4682SOL     OW14944   3.667   3.496   6.061
 4682SOL    HW114945   3.749   3.553   6.057
 4682SOL    HW214946   3.610   3.524   6.138
 4683SOL     OW14947   6.314   4.470   3.696
 4683SOL    HW114948   6.302   4.379   3.735
 4683SOL    HW214949   6.393   4.514   3.738
 4684SOL     OW14950   5.448   0.137   5.742
 4684SOL    HW114951   5.423   0.225   5.704
 4684SOL    HW214952   5.468   0.147   5.840
 4685SOL     OW14953   2.989   3.624   4.710
 4685SOL    HW114954   3.034   3.608   4.797
 4685SOL    HW214955   3.002   3.719   4.682
 4686SOL     OW14956   1.511   0.181   6.766
 4686SOL    HW114957   1.598   0.214   6.804
 4686SOL    HW214958   1.474   0.110   6.827
 4687SOL     OW14959   1.982   0.620   2.846
 4687SOL    HW114960   2.000   0.537   2.792
 4687SOL    HW214961   1.966   0.594   2.941
 4688SOL     OW14962   5.064   2.833   5.076
 4688SOL    HW114963   4.996   2.875   5.016
 4688SOL    HW214964   5.123   2.771   5.023
 4689SOL     OW14965   6.853   1.332   1.281
 4689SOL    HW114966   6.779   1.334   1.214
 4689SOL    HW214967   6.883   1.426   1.300
 4690SOL     OW14968   3.337   2.432   0.771
 4690SOL    HW114969   3.335   2.417   0.672
 4690SOL    HW214970   3.408   2.375   0.812
 4691SOL     OW14971   6.642   3.557   1.660
 4691SOL    HW114972   6.579   3.630   1.634
 4691SOL    HW214973   6.590   3.475   1.686
 4692SOL     OW14974   5.191   2.962   2.404
 4692SOL    HW114975   5.216   2.957   2.307
 4692SOL    HW214976   5.178   3.058   2.430
 4693SOL     OW14977   0.311   6.965   3.124
 4693SOL    HW114978   0.289   6.899   3.053
 4693SOL    HW214979   0.258   6.944   3.207
 4694SOL     OW14980   2.190   6.702   5.740
 4694SOL    HW114981   2.210   6.750   5.654
 4694SOL    HW214982   2.193   6.604   5.724
 4695SOL     OW14983   1.985   5.046   2.214
 4695SOL    HW114984   1.900   5.048   2.266
 4695SOL    HW214985   1.982   4.972   2.148
 4696SOL     OW14986   1.759   6.300   6.234
 4696SOL    HW114987   1.726   6.207   6.245
 4696SOL    HW214988   1.857   6.298   6.213
 4697SOL     OW14989   4.270   5.519   1.146
 4697SOL    HW114990   4.274   5.434   1.198
 4697SOL    HW214991   4.361   5.543   1.113
 4698SOL     OW14992   5.880   1.115   4.676
 4698SOL    HW114993   5.840   1.026   4.657
 4698SOL    HW214994   5.886   1.168   4.591
 4699SOL     OW14995   0.816   1.244   2.712
 4699SOL    HW114996   0.908   1.266   2.679
 4699SOL    HW214997   0.820   1.165   2.772
 4700SOL     OW14998   6.467   1.548   3.169
 4700SOL    HW114999   6.538   1.532   3.238
 4700SOL    HW215000   6.399   1.612   3.205
 4701SOL     OW15001   3.054   2.620   1.715
 4701SOL    HW115002   3.028   2.563   1.793
 4701SOL    HW215003   3.138   2.585   1.675
 4702SOL     OW15004   6.180   5.026   0.785
 4702SOL    HW115005   6.084   4.998   0.790
 4702SOL    HW215006   6.207   5.069   0.871
 4703SOL     OW15007   0.382   5.156   3.904
 4703SOL    HW115008   0.401   5.189   3.996
 4703SOL    HW215009   0.383   5.232   3.840
 4704SOL     OW15010   1.781   4.730   4.512
 4704SOL    HW115011   1.838   4.649   4.517
 4704SOL    HW215012   1.696   4.708   4.462
 4705SOL     OW15013   3.267   2.196   1.866
 4705SOL    HW115014   3.298   2.270   1.807
 4705SOL    HW215015   3.342   2.132   1.882
 4706SOL     OW15016   1.959   1.602   1.020
 4706SOL    HW115017   1.889   1.669   1.044
 4706SOL    HW215018   1.973   1.539   1.096
 4707SOL     OW15019   1.517   5.563   2.201
 4707SOL    HW115020   1.586   5.548   2.130
 4707SOL    HW215021   1.461   5.480   2.210
 4708SOL     OW15022   1.897   3.024   5.907
 4708SOL    HW115023   1.845   2.939   5.906
 4708SOL    HW215024   1.980   3.012   5.961
 4709SOL     OW15025   5.686   4.431   5.305
 4709SOL    HW115026   5.607   4.376   5.277
 4709SOL    HW215027   5.765   4.371   5.320
 4710SOL     OW15028   5.896   5.727   5.120
 4710SOL    HW115029   5.831   5.667   5.074
 4710SOL    HW215030   5.872   5.735   5.217
 4711SOL     OW15031   5.167   4.485   2.563
 4711SOL    HW115032   5.075   4.446   2.572
 4711SOL    HW215033   5.185   4.505   2.467
 4712SOL     OW15034   3.733   4.426   6.106
 4712SOL    HW115035   3.668   4.501   6.094
 4712SOL    HW215036   3.708   4.349   6.047
 4713SOL     OW15037   5.528   4.536   0.876
 4713SOL    HW115038   5.574   4.466   0.821
 4713SOL    HW215039   5.550   4.523   0.973
 4714SOL     OW15040   4.241   1.746   6.159
 4714SOL    HW115041   4.202   1.838   6.172
 4714SOL    HW215042   4.334   1.754   6.126
 4715SOL     OW15043   6.460   1.822   2.441
 4715SOL    HW115044   6.495   1.795   2.352
 4715SOL    HW215045   6.412   1.744   2.483
 4716SOL     OW15046   3.233   4.351   5.688
 4716SOL    HW115047   3.230   4.332   5.590
 4716SOL    HW215048   3.141   4.349   5.725
 4717SOL     OW15049   2.126   4.774   5.823
 4717SOL    HW115050   2.061   4.849   5.830
 4717SOL    HW215051   2.178   4.767   5.909
 4718SOL     OW15052   4.829   4.275   1.934
 4718SOL    HW115053   4.858   4.180   1.921
 4718SOL    HW215054   4.737   4.277   1.972
 4719SOL     OW15055   5.713   4.496   4.107
 4719SOL    HW115056   5.723   4.439   4.026
 4719SOL    HW215057   5.707   4.592   4.080
 4720SOL     OW15058   1.458   2.124   6.568
 4720SOL    HW115059   1.522   2.173   6.510
 4720SOL    HW215060   1.365   2.155   6.550
 4721SOL     OW15061   0.906   2.816   2.570
 4721SOL    HW115062   0.888   2.749   2.498
 4721SOL    HW215063   0.998   2.853   2.558
 4722SOL     OW15064   1.541   5.102   6.063
 4722SOL    HW115065   1.591   5.188   6.063
 4722SOL    HW215066   1.544   5.061   5.972
 4723SOL     OW15067   2.628   4.914   6.520
 4723SOL    HW115068   2.560   4.941   6.589
 4723SOL    HW215069   2.700   4.983   6.514
 4724SOL     OW15070   0.265   6.910   3.992
 4724SOL    HW115071   0.244   6.956   3.907
 4724SOL    HW215072   0.313   6.973   4.054
 4725SOL     OW15073   6.497   4.951   1.105
 4725SOL    HW115074   6.559   5.003   1.163
 4725SOL    HW215075   6.531   4.857   1.095
 4726SOL     OW15076   1.469   2.877   5.892
 4726SOL    HW115077   1.435   2.850   5.982
 4726SOL    HW215078   1.415   2.833   5.820
 4727SOL     OW15079   6.652   5.220   1.187
 4727SOL    HW115080   6.569   5.275   1.181
 4727SOL    HW215081   6.711   5.256   1.259
 4728SOL     OW15082   5.265   1.089   3.379
 4728SOL    HW115083   5.208   1.027   3.325
 4728SOL    HW215084   5.221   1.105   3.468
 4729SOL     OW15085   6.714   1.344   2.668
 4729SOL    HW115086   6.788   1.278   2.660
 4729SOL    HW215087   6.726   1.397   2.752
 4730SOL     OW15088   3.134   0.551   3.331
 4730SOL    HW115089   3.169   0.624   3.389
 4730SOL    HW215090   3.146   0.463   3.377
 4731SOL     OW15091   3.645   6.896   1.919
 4731SOL    HW115092   3.666   6.954   1.998
 4731SOL    HW215093   3.636   6.801   1.948
 4732SOL     OW15094   0.307   5.106   4.956
 4732SOL    HW115095   0.358   5.109   5.042
 4732SOL    HW215096   0.298   5.011   4.926
 4733SOL     OW15097   1.456   3.861   2.904
 4733SOL    HW115098   1.414   3.796   2.967
 4733SOL    HW215099   1.552   3.836   2.889
 4734SOL     OW15100   4.647   3.922   6.561
 4734SOL    HW115101   4.623   3.984   6.486
 4734SOL    HW215102   4.563   3.892   6.608
 4735SOL     OW15103   0.156   0.498   5.079
 4735SOL    HW115104   0.072   0.471   5.127
 4735SOL    HW215105   0.140   0.583   5.029
 4736SOL     OW15106   6.484   0.667   4.199
 4736SOL    HW115107   6.519   0.574   4.213
 4736SOL    HW215108   6.560   0.731   4.194
 4737SOL     OW15109   2.286   5.273   0.004
 4737SOL    HW115110   2.285   5.231   0.095
 4737SOL    HW215111   2.261   5.369   0.012
 4738SOL     OW15112   0.679   5.376   3.784
 4738SOL    HW115113   0.692   5.358   3.882
 4738SOL    HW215114   0.761   5.419   3.747
 4739SOL     OW15115   5.970   3.424   3.446
 4739SOL    HW115116   6.022   3.507   3.468
 4739SOL    HW215117   5.927   3.389   3.529
 4740SOL     OW15118   1.877   6.702   0.664
 4740SOL    HW115119   1.778   6.697   0.674
 4740SOL    HW215120   1.916   6.748   0.744
 4741SOL     OW15121   5.794   4.467   1.358
 4741SOL    HW115122   5.878   4.439   1.404
 4741SOL    HW215123   5.797   4.566   1.340
 4742SOL     OW15124   1.835   5.790   2.011
 4742SOL    HW115125   1.783   5.872   2.032
 4742SOL    HW215126   1.830   5.727   2.088
 4743SOL     OW15127   2.532   3.804   0.118
 4743SOL    HW115128   2.455   3.849   0.165
 4743SOL    HW215129   2.618   3.840   0.154
 4744SOL     OW15130   2.962   2.049   5.359
 4744SOL    HW115131   2.871   2.010   5.370
 4744SOL    HW215132   2.999   2.024   5.269
 4745SOL     OW15133   4.751   5.568   4.306
 4745SOL    HW115134   4.754   5.645   4.242
 4745SOL    HW215135   4.683   5.586   4.377
 4746SOL     OW15136   5.809   1.576   1.262
 4746SOL    HW115137   5.799   1.480   1.286
 4746SOL    HW215138   5.738   1.629   1.308
 4747SOL     OW15139   1.275   2.504   2.231
 4747SOL    HW115140   1.281   2.598   2.198
 4747SOL    HW215141   1.297   2.502   2.329
 4748SOL     OW15142   2.287   0.274   0.450
 4748SOL    HW115143   2.192   0.288   0.422
 4748SOL    HW215144   2.293   0.273   0.550
 4749SOL     OW15145   3.430   0.823   0.320
 4749SOL    HW115146   3.405   0.920   0.328
 4749SOL    HW215147   3.349   0.766   0.330
 4750SOL     OW15148   0.980   1.952   5.244
 4750SOL    HW115149   0.946   2.008   5.319
 4750SOL    HW215150   1.060   1.996   5.202
 4751SOL     OW15151   1.331   4.136   6.648
 4751SOL    HW115152   1.237   4.154   6.676
 4751SOL    HW215153   1.367   4.215   6.599
 4752SOL     OW15154   2.124   5.725   1.025
 4752SOL    HW115155   2.216   5.762   1.034
 4752SOL    HW215156   2.126   5.642   0.969
 4753SOL     OW15157   0.555   0.449   6.365
 4753SOL    HW115158   0.523   0.360   6.396
 4753SOL    HW215159   0.625   0.437   6.294
 4754SOL     OW15160   1.467   1.451   6.312
 4754SOL    HW115161   1.533   1.376   6.314
 4754SOL    HW215162   1.435   1.463   6.218
 4755SOL     OW15163   2.877   6.885   2.711
 4755SOL    HW115164   2.929   6.811   2.668
 4755SOL    HW215165   2.876   6.964   2.651
 4756SOL     OW15166   5.437   2.107   1.643
 4756SOL    HW115167   5.442   2.121   1.742
 4756SOL    HW215168   5.402   2.191   1.600
 4757SOL     OW15169   2.481   2.489   0.634
 4757SOL    HW115170   2.551   2.417   0.637
 4757SOL    HW215171   2.412   2.472   0.704
 4758SOL     OW15172   5.721   4.024   6.026
 4758SOL    HW115173   5.711   4.102   6.088
 4758SOL    HW215174   5.818   3.999   6.019
 4759SOL     OW15175   6.849   4.262   6.635
 4759SOL    HW115176   6.873   4.340   6.693
 4759SOL    HW215177   6.812   4.295   6.548
 4760SOL     OW15178   1.511   2.414   0.215
 4760SOL    HW115179   1.557   2.426   0.127
 4760SOL    HW215180   1.437   2.347   0.206
 4761SOL     OW15181   2.454   6.232   6.405
 4761SOL    HW115182   2.513   6.251   6.483
 4761SOL    HW215183   2.384   6.165   6.430
 4762SOL     OW15184   3.605   7.000   2.462
 4762SOL    HW115185   3.602   6.906   2.498
 4762SOL    HW215186   3.547   7.006   2.381
 4763SOL     OW15187   5.026   5.922   5.325
 4763SOL    HW115188   4.932   5.892   5.345
 4763SOL    HW215189   5.079   5.922   5.410
 4764SOL     OW15190   4.092   3.579   3.591
 4764SOL    HW115191   4.122   3.600   3.684
 4764SOL    HW215192   4.158   3.615   3.525
 4765SOL     OW15193   5.737   5.228   6.666
 4765SOL    HW115194   5.784   5.297   6.611
 4765SOL    HW215195   5.793   5.206   6.746
 4766SOL     OW15196   2.908   1.301   3.455
 4766SOL    HW115197   2.928   1.347   3.541
 4766SOL    HW215198   2.979   1.233   3.436
 4767SOL     OW15199   4.555   0.354   0.055
 4767SOL    HW115200   4.604   0.328   6.988
 4767SOL    HW215201   4.511   0.443   0.040
 4768SOL     OW15202   1.614   0.936   5.138
 4768SOL    HW115203   1.625   0.839   5.158
 4768SOL    HW215204   1.704   0.980   5.135
 4769SOL     OW15205   5.040   0.874   1.732
 4769SOL    HW115206   5.109   0.941   1.758
 4769SOL    HW215207   5.069   0.783   1.763
 4770SOL     OW15208   2.155   0.675   4.064
 4770SOL    HW115209   2.235   0.658   4.122
 4770SOL    HW215210   2.165   0.765   4.021
 4771SOL     OW15211   3.761   4.313   5.590
 4771SOL    HW115212   3.847   4.342   5.548
 4771SOL    HW215213   3.717   4.244   5.532
 4772SOL     OW15214   2.985   2.477   0.070
 4772SOL    HW115215   2.890   2.448   0.059
 4772SOL    HW215216   3.028   2.486   6.995
 4773SOL     OW15217   6.827   4.668   4.755
 4773SOL    HW115218   6.845   4.570   4.751
 4773SOL    HW215219   6.731   4.686   4.731
 4774SOL     OW15220   1.348   4.297   6.974
 4774SOL    HW115221   1.362   4.224   0.026
 4774SOL    HW215222   1.252   4.300   6.946
 4775SOL     OW15223   1.962   2.340   2.525
 4775SOL    HW115224   1.926   2.418   2.578
 4775SOL    HW215225   2.057   2.324   2.550
 4776SOL     OW15226   4.381   5.038   1.991
 4776SOL    HW115227   4.437   4.961   1.960
 4776SOL    HW215228   4.377   5.108   1.920
 4777SOL     OW15229   2.476   3.884   1.637
 4777SOL    HW115230   2.523   3.960   1.681
 4777SOL    HW215231   2.380   3.882   1.668
 4778SOL     OW15232   5.132   3.348   2.873
 4778SOL    HW115233   5.102   3.377   2.782
 4778SOL    HW215234   5.172   3.427   2.920
 4779SOL     OW15235   4.804   1.145   2.704
 4779SOL    HW115236   4.860   1.063   2.721
 4779SOL    HW215237   4.843   1.197   2.628
 4780SOL     OW15238   2.275   1.520   5.565
 4780SOL    HW115239   2.226   1.489   5.483
 4780SOL    HW215240   2.210   1.537   5.639
 4781SOL     OW15241   1.919   5.552   3.015
 4781SOL    HW115242   1.945   5.550   2.918
 4781SOL    HW215243   1.954   5.635   3.057
 4782SOL     OW15244   6.187   6.005   0.134
 4782SOL    HW115245   6.281   5.998   0.098
 4782SOL    HW215246   6.189   5.993   0.234
 4783SOL     OW15247   5.959   3.955   2.684
 4783SOL    HW115248   5.867   3.950   2.725
 4783SOL    HW215249   5.954   3.925   2.589
 4784SOL     OW15250   5.135   4.885   5.183
 4784SOL    HW115251   5.091   4.818   5.243
 4784SOL    HW215252   5.229   4.900   5.213
 4785SOL     OW15253   5.784   6.807   0.681
 4785SOL    HW115254   5.879   6.819   0.709
 4785SOL    HW215255   5.779   6.808   0.581
 4786SOL     OW15256   1.352   3.699   2.078
 4786SOL    HW115257   1.283   3.747   2.024
 4786SOL    HW215258   1.389   3.760   2.148
 4787SOL     OW15259   4.080   2.236   3.401
 4787SOL    HW115260   4.125   2.161   3.351
 4787SOL    HW215261   4.150   2.297   3.439
 4788SOL     OW15262   2.023   0.170   4.956
 4788SOL    HW115263   1.989   0.258   4.922
 4788SOL    HW215264   1.985   0.096   4.899
 4789SOL     OW15265   5.097   6.177   0.443
 4789SOL    HW115266   5.175   6.195   0.384
 4789SOL    HW215267   5.091   6.249   0.513
 4790SOL     OW15268   5.310   0.095   6.745
 4790SOL    HW115269   5.258   0.018   6.711
 4790SOL    HW215270   5.349   0.072   6.835
 4791SOL     OW15271   4.171   2.015   3.561
 4791SOL    HW115272   4.204   2.058   3.477
 4791SOL    HW215273   4.072   2.006   3.557
 4792SOL     OW15274   2.888   2.773   1.051
 4792SOL    HW115275   2.873   2.770   1.149
 4792SOL    HW215276   2.831   2.844   1.010
 4793SOL     OW15277   0.433   0.344   6.740
 4793SOL    HW115278   0.444   0.443   6.733
 4793SOL    HW215279   0.381   0.322   6.823
 4794SOL     OW15280   5.058   1.385   1.954
 4794SOL    HW115281   5.046   1.419   1.861
 4794SOL    HW215282   5.154   1.396   1.981
 4795SOL     OW15283   5.948   2.778   4.088
 4795SOL    HW115284   5.996   2.866   4.081
 4795SOL    HW215285   5.876   2.774   4.019
 4796SOL     OW15286   5.611   3.679   0.092
 4796SOL    HW115287   5.515   3.683   0.066
 4796SOL    HW215288   5.626   3.597   0.147
 4797SOL     OW15289   1.074   5.760   4.935
 4797SOL    HW115290   1.015   5.714   4.870
 4797SOL    HW215291   1.164   5.775   4.894
 4798SOL     OW15292   6.905   5.083   5.951
 4798SOL    HW115293   6.955   5.011   5.904
 4798SOL    HW215294   6.837   5.042   6.011
 4799SOL     OW15295   4.846   1.452   4.325
 4799SOL    HW115296   4.872   1.548   4.338
 4799SOL    HW215297   4.775   1.428   4.392
 4800SOL     OW15298   1.863   3.090   4.121
 4800SOL    HW115299   1.953   3.046   4.116
 4800SOL    HW215300   1.818   3.085   4.032
 4801SOL     OW15301   6.989   2.491   0.858
 4801SOL    HW115302   6.984   2.488   0.758
 4801SOL    HW215303   6.945   2.409   0.896
 4802SOL     OW15304   1.485   0.334   2.013
 4802SOL    HW115305   1.566   0.277   2.001
 4802SOL    HW215306   1.502   0.425   1.975
 4803SOL     OW15307   1.620   0.281   0.389
 4803SOL    HW115308   1.562   0.362   0.378
 4803SOL    HW215309   1.716   0.309   0.394
 4804SOL     OW15310   4.903   5.860   0.105
 4804SOL    HW115311   4.896   5.802   0.024
 4804SOL    HW215312   4.969   5.821   0.169
 4805SOL     OW15313   6.931   6.861   1.697
 4805SOL    HW115314   6.897   6.927   1.630
 4805SOL    HW215315   0.008   6.888   1.726
 4806SOL     OW15316   6.949   2.362   3.816
 4806SOL    HW115317   6.938   2.269   3.782
 4806SOL    HW215318   6.866   2.391   3.863
 4807SOL     OW15319   0.938   0.114   2.496
 4807SOL    HW115320   0.966   0.088   2.589
 4807SOL    HW215321   0.866   0.052   2.465
 4808SOL     OW15322   6.397   2.543   0.538
 4808SOL    HW115323   6.374   2.516   0.632
 4808SOL    HW215324   6.334   2.613   0.506
 4809SOL     OW15325   4.575   7.015   0.706
 4809SOL    HW115326   4.523   0.082   0.729
 4809SOL    HW215327   4.641   0.020   0.634
 4810SOL     OW15328   2.026   6.544   0.235
 4810SOL    HW115329   2.010   6.619   0.300
 4810SOL    HW215330   1.957   6.548   0.163
 4811SOL     OW15331   5.229   3.704   3.456
 4811SOL    HW115332   5.197   3.697   3.550
 4811SOL    HW215333   5.225   3.615   3.412
 4812SOL     OW15334   6.194   5.083   3.845
 4812SOL    HW115335   6.112   5.029   3.829
 4812SOL    HW215336   6.206   5.098   3.943
 4813SOL     OW15337   5.570   3.285   2.875
 4813SOL    HW115338   5.534   3.211   2.818
 4813SOL    HW215339   5.530   3.278   2.966
 4814SOL     OW15340   6.779   3.082   1.310
 4814SOL    HW115341   6.711   3.133   1.257
 4814SOL    HW215342   6.767   3.103   1.407
 4815SOL     OW15343   4.797   0.542   3.399
 4815SOL    HW115344   4.799   0.574   3.494
 4815SOL    HW215345   4.831   0.448   3.395
 4816SOL     OW15346   5.452   4.864   3.519
 4816SOL    HW115347   5.451   4.934   3.590
 4816SOL    HW215348   5.546   4.847   3.489
 4817SOL     OW15349   5.930   1.715   0.122
 4817SOL    HW115350   5.895   1.796   0.076
 4817SOL    HW215351   5.856   1.670   0.171
 4818SOL     OW15352   0.069   5.826   3.493
 4818SOL    HW115353   0.133   5.893   3.530
 4818SOL    HW215354   0.033   5.770   3.567
 4819SOL     OW15355   1.971   3.054   0.684
 4819SOL    HW115356   1.995   2.965   0.724
 4819SOL    HW215357   2.046   3.086   0.626
 4820SOL     OW15358   6.443   3.338   2.158
 4820SOL    HW115359   6.349   3.305   2.151
 4820SOL    HW215360   6.505   3.270   2.120
 4821SOL     OW15361   0.476   5.534   3.663
 4821SOL    HW115362   0.381   5.515   3.690
 4821SOL    HW215363   0.534   5.456   3.688
 4822SOL     OW15364   2.354   4.422   4.163
 4822SOL    HW115365   2.405   4.505   4.140
 4822SOL    HW215366   2.256   4.439   4.155
 4823SOL     OW15367   1.402   2.230   0.475
 4823SOL    HW115368   1.306   2.203   0.468
 4823SOL    HW215369   1.440   2.245   0.383
 4824SOL     OW15370   6.633   1.889   7.010
 4824SOL    HW115371   6.554   1.912   6.953
 4824SOL    HW215372   6.620   1.927   0.086
 4825SOL     OW15373   1.097   6.765   3.733
 4825SOL    HW115374   1.102   6.746   3.831
 4825SOL    HW215375   1.002   6.786   3.708
 4826SOL     OW15376   4.558   6.059   0.734
 4826SOL    HW115377   4.474   6.049   0.787
 4826SOL    HW215378   4.563   5.987   0.665
 4827SOL     OW15379   5.817   1.230   0.922
 4827SOL    HW115380   5.854   1.280   0.844
 4827SOL    HW215381   5.825   1.131   0.905
 4828SOL     OW15382   5.063   1.073   6.804
 4828SOL    HW115383   5.071   1.012   6.884
 4828SOL    HW215384   5.012   1.026   6.732
 4829SOL     OW15385   4.071   6.267   5.476
 4829SOL    HW115386   4.051   6.243   5.381
 4829SOL    HW215387   4.071   6.367   5.486
 4830SOL     OW15388   1.764   6.671   3.519
 4830SOL    HW115389   1.850   6.672   3.570
 4830SOL    HW215390   1.756   6.755   3.465
 4831SOL     OW15391   3.551   4.889   5.836
 4831SOL    HW115392   3.640   4.859   5.803
 4831SOL    HW215393   3.497   4.924   5.759
 4832SOL     OW15394   4.144   3.765   4.997
 4832SOL    HW115395   4.162   3.671   5.028
 4832SOL    HW215396   4.217   3.825   5.029
 4833SOL     OW15397   5.739   2.476   5.011
 4833SOL    HW115398   5.679   2.515   5.081
 4833SOL    HW215399   5.833   2.505   5.027
 4834SOL     OW15400   1.015   5.115   1.035
 4834SOL    HW115401   0.960   5.189   1.075
 4834SOL    HW215402   0.963   5.070   0.962
 4835SOL     OW15403   6.715   3.350   5.677
 4835SOL    HW115404   6.787   3.388   5.736
 4835SOL    HW215405   6.692   3.417   5.606
 4836SOL     OW15406   4.591   1.337   5.564
 4836SOL    HW115407   4.623   1.249   5.530
 4836SOL    HW215408   4.655   1.409   5.535
 4837SOL     OW15409   1.410   3.182   4.951
 4837SOL    HW115410   1.473   3.159   4.876
 4837SOL    HW215411   1.325   3.131   4.938
 4838SOL     OW15412   1.726   3.946   5.990
 4838SOL    HW115413   1.768   3.871   6.041
 4838SOL    HW215414   1.789   3.976   5.919
 4839SOL     OW15415   3.072   1.089   2.276
 4839SOL    HW115416   2.976   1.061   2.282
 4839SOL    HW215417   3.103   1.120   2.366
 4840SOL     OW15418   4.693   2.818   4.258
 4840SOL    HW115419   4.608   2.796   4.306
 4840SOL    HW215420   4.672   2.840   4.162
 4841SOL     OW15421   3.152   5.563   3.265
 4841SOL    HW115422   3.105   5.629   3.206
 4841SOL    HW215423   3.096   5.482   3.278
 4842SOL     OW15424   4.743   5.799   3.521
 4842SOL    HW115425   4.818   5.865   3.524
 4842SOL    HW215426   4.781   5.706   3.516
 4843SOL     OW15427   5.373   1.696   1.085
 4843SOL    HW115428   5.316   1.637   1.026
 4843SOL    HW215429   5.469   1.685   1.060
 4844SOL     OW15430   1.178   4.916   6.606
 4844SOL    HW115431   1.226   4.905   6.693
 4844SOL    HW215432   1.180   4.829   6.556
 4845SOL     OW15433   5.035   4.114   5.046
 4845SOL    HW115434   5.042   4.190   4.981
 4845SOL    HW215435   4.941   4.080   5.049
 4846SOL     OW15436   6.270   4.211   4.647
 4846SOL    HW115437   6.307   4.296   4.686
 4846SOL    HW215438   6.208   4.233   4.572
 4847SOL     OW15439   3.329   7.009   0.401
 4847SOL    HW115440   3.347   6.922   0.354
 4847SOL    HW215441   3.376   7.009   0.489
 4848SOL     OW15442   4.559   1.299   3.810
 4848SOL    HW115443   4.587   1.304   3.714
 4848SOL    HW215444   4.532   1.205   3.832
 4849SOL     OW15445   1.389   5.702   2.004
 4849SOL    HW115446   1.442   5.681   2.086
 4849SOL    HW215447   1.392   5.801   1.987
 4850SOL     OW15448   3.444   6.750   2.193
 4850SOL    HW115449   3.379   6.825   2.184
 4850SOL    HW215450   3.536   6.783   2.174
 4851SOL     OW15451   4.440   4.566   6.903
 4851SOL    HW115452   4.437   4.630   6.981
 4851SOL    HW215453   4.459   4.474   6.937
 4852SOL     OW15454   4.699   4.701   5.670
 4852SOL    HW115455   4.697   4.731   5.575
 4852SOL    HW215456   4.624   4.637   5.686
 4853SOL     OW15457   3.878   0.413   2.516
 4853SOL    HW115458   3.855   0.405   2.613
 4853SOL    HW215459   3.967   0.371   2.500
 4854SOL     OW15460   4.051   6.587   2.356
 4854SOL    HW115461   4.085   6.587   2.450
 4854SOL    HW215462   3.964   6.538   2.352
 4855SOL     OW15463   4.117   4.726   5.734
 4855SOL    HW115464   4.058   4.746   5.812
 4855SOL    HW215465   4.111   4.629   5.711
 4856SOL     OW15466   0.614   2.507   2.564
 4856SOL    HW115467   0.673   2.494   2.484
 4856SOL    HW215468   0.559   2.589   2.552
 4857SOL     OW15469   2.568   2.104   5.979
 4857SOL    HW115470   2.526   2.016   6.003
 4857SOL    HW215471   2.664   2.090   5.955
 4858SOL     OW15472   1.558   4.965   4.594
 4858SOL    HW115473   1.575   4.881   4.543
 4858SOL    HW215474   1.639   5.024   4.590
 4859SOL     OW15475   6.549   5.631   3.572
 4859SOL    HW115476   6.556   5.537   3.540
 4859SOL    HW215477   6.514   5.633   3.665
 4860SOL     OW15478   4.028   5.304   1.403
 4860SOL    HW115479   3.990   5.367   1.470
 4860SOL    HW215480   3.991   5.324   1.313
 4861SOL     OW15481   5.692   5.026   5.106
 4861SOL    HW115482   5.733   4.938   5.086
 4861SOL    HW215483   5.658   5.026   5.200
 4862SOL     OW15484   2.317   5.397   4.659
 4862SOL    HW115485   2.231   5.389   4.608
 4862SOL    HW215486   2.364   5.309   4.659
 4863SOL     OW15487   5.697   1.525   2.344
 4863SOL    HW115488   5.777   1.477   2.307
 4863SOL    HW215489   5.714   1.548   2.440
 4864SOL     OW15490   2.432   2.897   1.722
 4864SOL    HW115491   2.374   2.858   1.650
 4864SOL    HW215492   2.404   2.991   1.739
 4865SOL     OW15493   3.642   6.861   5.006
 4865SOL    HW115494   3.591   6.874   5.090
 4865SOL    HW215495   3.685   6.771   5.006
 4866SOL     OW15496   0.369   5.281   1.273
 4866SOL    HW115497   0.326   5.235   1.350
 4866SOL    HW215498   0.359   5.380   1.284
 4867SOL     OW15499   5.667   5.042   5.954
 4867SOL    HW115500   5.745   4.980   5.951
 4867SOL    HW215501   5.607   5.016   6.029
 4868SOL     OW15502   1.760   6.284   1.870
 4868SOL    HW115503   1.737   6.190   1.845
 4868SOL    HW215504   1.795   6.285   1.964
 4869SOL     OW15505   0.261   1.860   2.084
 4869SOL    HW115506   0.299   1.950   2.107
 4869SOL    HW215507   0.220   1.820   2.166
 4870SOL     OW15508   5.979   0.980   0.834
 4870SOL    HW115509   5.992   0.944   0.741
 4870SOL    HW215510   5.982   0.904   0.899
 4871SOL     OW15511   1.833   2.478   5.689
 4871SOL    HW115512   1.886   2.526   5.758
 4871SOL    HW215513   1.847   2.379   5.699
 4872SOL     OW15514   1.961   2.373   2.972
 4872SOL    HW115515   1.892   2.302   2.959
 4872SOL    HW215516   2.023   2.373   2.894
 4873SOL     OW15517   1.071   6.877   5.092
 4873SOL    HW115518   0.997   6.872   5.160
 4873SOL    HW215519   1.159   6.859   5.137
 4874SOL     OW15520   5.883   1.952   4.159
 4874SOL    HW115521   5.966   1.977   4.109
 4874SOL    HW215522   5.869   2.014   4.236
 4875SOL     OW15523   0.067   3.184   0.125
 4875SOL    HW115524   0.087   3.101   0.176
 4875SOL    HW215525   0.144   3.206   0.065
 4876SOL     OW15526   6.797   1.154   0.178
 4876SOL    HW115527   6.826   1.231   0.120
 4876SOL    HW215528   6.871   1.087   0.184
 4877SOL     OW15529   4.662   2.201   1.457
 4877SOL    HW115530   4.592   2.133   1.434
 4877SOL    HW215531   4.632   2.291   1.426
 4878SOL     OW15532   1.219   2.734   2.061
 4878SOL    HW115533   1.312   2.762   2.039
 4878SOL    HW215534   1.157   2.762   1.988
 4879SOL     OW15535   3.817   6.151   3.868
 4879SOL    HW115536   3.766   6.071   3.900
 4879SOL    HW215537   3.757   6.231   3.869
 4880SOL     OW15538   6.701   1.786   5.881
 4880SOL    HW115539   6.716   1.687   5.877
 4880SOL    HW215540   6.604   1.805   5.867
 4881SOL     OW15541   2.875   6.171   6.189
 4881SOL    HW115542   2.852   6.229   6.110
 4881SOL    HW215543   2.918   6.087   6.156
 4882SOL     OW15544   5.525   5.712   6.726
 4882SOL    HW115545   5.593   5.724   6.655
 4882SOL    HW215546   5.535   5.622   6.767
 4883SOL     OW15547   5.883   5.623   0.176
 4883SOL    HW115548   5.899   5.718   0.206
 4883SOL    HW215549   5.966   5.570   0.188
 4884SOL     OW15550   3.426   6.407   1.673
 4884SOL    HW115551   3.397   6.464   1.595
 4884SOL    HW215552   3.506   6.448   1.716
 4885SOL     OW15553   1.735   0.426   2.424
 4885SOL    HW115554   1.733   0.392   2.518
 4885SOL    HW215555   1.658   0.488   2.410
 4886SOL     OW15556   5.837   0.970   5.459
 4886SOL    HW115557   5.818   0.983   5.362
 4886SOL    HW215558   5.928   1.006   5.480
 4887SOL     OW15559   0.153   1.909   4.953
 4887SOL    HW115560   0.225   1.971   4.983
 4887SOL    HW215561   0.166   1.819   4.995
 4888SOL     OW15562   4.303   5.916   1.443
 4888SOL    HW115563   4.295   5.822   1.410
 4888SOL    HW215564   4.397   5.934   1.471
 4889SOL     OW15565   1.689   3.479   6.812
 4889SOL    HW115566   1.730   3.390   6.831
 4889SOL    HW215567   1.626   3.471   6.734
 4890SOL     OW15568   0.411   0.423   4.643
 4890SOL    HW115569   0.495   0.369   4.650
 4890SOL    HW215570   0.351   0.382   4.574
 4891SOL     OW15571   1.129   5.244   0.828
 4891SOL    HW115572   1.121   5.182   0.906
 4891SOL    HW215573   1.206   5.215   0.770
 4892SOL     OW15574   1.723   6.015   2.140
 4892SOL    HW115575   1.649   6.081   2.131
 4892SOL    HW215576   1.726   5.979   2.233
 4893SOL     OW15577   0.064   4.336   6.478
 4893SOL    HW115578   0.116   4.410   6.520
 4893SOL    HW215579   0.004   4.294   6.546
 4894SOL     OW15580   0.713   6.595   3.048
 4894SOL    HW115581   0.630   6.603   2.992
 4894SOL    HW215582   0.727   6.499   3.072
 4895SOL     OW15583   6.135   3.969   6.912
 4895SOL    HW115584   6.218   3.953   6.857
 4895SOL    HW215585   6.122   4.067   6.925
 4896SOL     OW15586   4.131   0.131   4.169
 4896SOL    HW115587   4.225   0.153   4.197
 4896SOL    HW215588   4.070   0.203   4.203
 4897SOL     OW15589   2.762   5.527   6.364
 4897SOL    HW115590   2.838   5.588   6.386
 4897SOL    HW215591   2.730   5.548   6.271
 4898SOL     OW15592   5.144   2.574   4.483
 4898SOL    HW115593   5.078   2.641   4.449
 4898SOL    HW215594   5.174   2.516   4.408
 4899SOL     OW15595   5.877   4.045   4.508
 4899SOL    HW115596   5.944   3.989   4.458
 4899SOL    HW215597   5.868   4.011   4.601
 4900SOL     OW15598   0.982   6.630   4.946
 4900SOL    HW115599   0.959   6.676   4.860
 4900SOL    HW215600   0.994   6.699   5.018
 4901SOL     OW15601   6.295   6.215   3.413
 4901SOL    HW115602   6.248   6.303   3.417
 4901SOL    HW215603   6.243   6.153   3.355
 4902SOL     OW15604   3.628   5.229   0.738
 4902SOL    HW115605   3.565   5.235   0.815
 4902SOL    HW215606   3.703   5.168   0.761
 4903SOL     OW15607   5.911   5.024   6.420
 4903SOL    HW115608   5.840   4.956   6.433
 4903SOL    HW215609   5.876   5.100   6.366
 4904SOL     OW15610   2.996   0.495   3.647
 4904SOL    HW115611   3.051   0.450   3.577
 4904SOL    HW215612   3.052   0.515   3.727
 4905SOL     OW15613   6.378   3.606   2.968
 4905SOL    HW115614   6.391   3.691   2.916
 4905SOL    HW215615   6.438   3.607   3.048
 4906SOL     OW15616   4.663   0.213   1.711
 4906SOL    HW115617   4.601   0.291   1.721
 4906SOL    HW215618   4.744   0.241   1.659
 4907SOL     OW15619   2.735   2.827   1.690
 4907SOL    HW115620   2.642   2.801   1.717
 4907SOL    HW215621   2.801   2.765   1.734
 4908SOL     OW15622   5.161   5.277   6.547
 4908SOL    HW115623   5.256   5.277   6.577
 4908SOL    HW215624   5.109   5.341   6.603
 4909SOL     OW15625   6.390   6.463   5.697
 4909SOL    HW115626   6.330   6.429   5.769
 4909SOL    HW215627   6.341   6.461   5.609
 4910SOL     OW15628   5.066   6.696   5.582
 4910SOL    HW115629   5.077   6.795   5.568
 4910SOL    HW215630   4.969   6.672   5.573
 4911SOL     OW15631   0.206   4.117   6.288
 4911SOL    HW115632   0.252   4.184   6.230
 4911SOL    HW215633   0.135   4.162   6.341
 4912SOL     OW15634   2.269   2.854   1.497
 4912SOL    HW115635   2.308   2.898   1.416
 4912SOL    HW215636   2.179   2.816   1.474
 4913SOL     OW15637   2.988   3.167   1.961
 4913SOL    HW115638   2.927   3.124   1.895
 4913SOL    HW215639   2.951   3.158   2.053
 4914SOL     OW15640   1.280   6.866   2.703
 4914SOL    HW115641   1.350   6.904   2.644
 4914SOL    HW215642   1.316   6.857   2.796
 4915SOL     OW15643   3.597   6.354   3.866
 4915SOL    HW115644   3.616   6.406   3.783
 4915SOL    HW215645   3.626   6.406   3.946
 4916SOL     OW15646   1.384   1.959   2.185
 4916SOL    HW115647   1.341   1.935   2.099
 4916SOL    HW215648   1.473   1.914   2.192
 4917SOL     OW15649   1.082   4.368   6.630
 4917SOL    HW115650   1.180   4.380   6.614
 4917SOL    HW215651   1.035   4.355   6.543
 4918SOL     OW15652   2.536   6.550   4.089
 4918SOL    HW115653   2.554   6.591   4.178
 4918SOL    HW215654   2.442   6.570   4.062
 4919SOL     OW15655   2.324   3.000   1.272
 4919SOL    HW115656   2.419   3.032   1.271
 4919SOL    HW215657   2.266   3.067   1.225
 4920SOL     OW15658   3.286   1.903   6.962
 4920SOL    HW115659   3.348   1.916   6.884
 4920SOL    HW215660   3.328   1.839   0.011
 4921SOL     OW15661   6.762   4.941   2.464
 4921SOL    HW115662   6.850   4.934   2.418
 4921SOL    HW215663   6.696   4.880   2.419
 4922SOL     OW15664   1.070   2.623   6.187
 4922SOL    HW115665   1.061   2.723   6.183
 4922SOL    HW215666   1.106   2.590   6.099
 4923SOL     OW15667   3.239   2.213   6.821
 4923SOL    HW115668   3.204   2.123   6.846
 4923SOL    HW215669   3.259   2.215   6.723
 4924SOL     OW15670   0.542   3.069   4.230
 4924SOL    HW115671   0.503   3.128   4.301
 4924SOL    HW215672   0.640   3.058   4.246
 4925SOL     OW15673   4.320   5.133   5.035
 4925SOL    HW115674   4.340   5.162   4.942
 4925SOL    HW215675   4.305   5.034   5.037
 4926SOL     OW15676   4.144   3.367   0.462
 4926SOL    HW115677   4.121   3.418   0.379
 4926SOL    HW215678   4.060   3.332   0.503
 4927SOL     OW15679   2.938   3.742   2.078
 4927SOL    HW115680   3.017   3.681   2.079
 4927SOL    HW215681   2.944   3.806   2.154
 4928SOL     OW15682   0.161   1.340   6.975
 4928SOL    HW115683   0.237   1.398   6.946
 4928SOL    HW215684   0.170   1.250   6.934
 4929SOL     OW15685   0.353   4.287   4.446
 4929SOL    HW115686   0.378   4.345   4.368
 4929SOL    HW215687   0.414   4.208   4.449
 4930SOL     OW15688   0.181   3.577   0.077
 4930SOL    HW115689   0.091   3.537   0.091
 4930SOL    HW215690   0.250   3.519   0.121
 4931SOL     OW15691   5.624   6.913   1.074
 4931SOL    HW115692   5.648   6.918   1.171
 4931SOL    HW215693   5.683   6.847   1.029
 4932SOL     OW15694   3.605   1.437   1.100
 4932SOL    HW115695   3.577   1.505   1.032
 4932SOL    HW215696   3.644   1.484   1.179
 4933SOL     OW15697   3.019   0.215   4.917
 4933SOL    HW115698   2.949   0.169   4.971
 4933SOL    HW215699   3.082   0.147   4.880
 4934SOL     OW15700   1.860   5.871   5.186
 4934SOL    HW115701   1.949   5.903   5.219
 4934SOL    HW215702   1.794   5.870   5.261
 4935SOL     OW15703   2.150   2.718   0.585
 4935SOL    HW115704   2.079   2.723   0.655
 4935SOL    HW215705   2.169   2.623   0.563
 4936SOL     OW15706   6.597   4.321   1.535
 4936SOL    HW115707   6.526   4.270   1.584
 4936SOL    HW215708   6.671   4.259   1.510
 4937SOL     OW15709   0.653   3.388   5.052
 4937SOL    HW115710   0.744   3.348   5.068
 4937SOL    HW215711   0.588   3.348   5.117
 4938SOL     OW15712   3.565   4.120   1.195
 4938SOL    HW115713   3.587   4.151   1.103
 4938SOL    HW215714   3.632   4.156   1.260
 4939SOL     OW15715   0.953   1.322   1.322
 4939SOL    HW115716   0.937   1.420   1.330
 4939SOL    HW215717   0.876   1.280   1.274
 4940SOL     OW15718   1.325   1.662   5.412
 4940SOL    HW115719   1.323   1.572   5.456
 4940SOL    HW215720   1.400   1.716   5.450
 4941SOL     OW15721   4.153   1.983   5.325
 4941SOL    HW115722   4.252   1.974   5.314
 4941SOL    HW215723   4.119   1.912   5.386
 4942SOL     OW15724   0.198   1.140   2.148
 4942SOL    HW115725   0.200   1.046   2.181
 4942SOL    HW215726   0.151   1.144   2.060
 4943SOL     OW15727   5.025   2.211   6.393
 4943SOL    HW115728   4.978   2.279   6.338
 4943SOL    HW215729   5.078   2.256   6.465
 4944SOL     OW15730   1.083   5.082   0.512
 4944SOL    HW115731   1.053   5.158   0.570
 4944SOL    HW215732   1.004   5.024   0.489
 4945SOL     OW15733   2.350   0.041   6.229
 4945SOL    HW115734   2.292   0.047   6.148
 4945SOL    HW215735   2.446   0.036   6.201
 4946SOL     OW15736   2.971   5.759   0.358
 4946SOL    HW115737   3.062   5.797   0.378
 4946SOL    HW215738   2.925   5.819   0.292
 4947SOL     OW15739   1.207   6.990   1.227
 4947SOL    HW115740   1.248   6.976   1.317
 4947SOL    HW215741   1.183   0.071   1.216
 4948SOL     OW15742   1.559   2.714   2.280
 4948SOL    HW115743   1.577   2.639   2.217
 4948SOL    HW215744   1.479   2.692   2.336
 4949SOL     OW15745   6.384   4.656   6.318
 4949SOL    HW115746   6.421   4.688   6.231
 4949SOL    HW215747   6.288   4.633   6.307
 4950SOL     OW15748   3.873   4.079   6.063
 4950SOL    HW115749   3.844   4.080   5.967
 4950SOL    HW215750   3.857   3.989   6.102
 4951SOL     OW15751   5.140   5.419   3.143
 4951SOL    HW115752   5.068   5.425   3.075
 4951SOL    HW215753   5.160   5.323   3.162
 4952SOL     OW15754   1.043   0.963   6.702
 4952SOL    HW115755   1.100   0.885   6.676
 4952SOL    HW215756   0.974   0.934   6.768
 4953SOL     OW15757   1.663   1.415   5.928
 4953SOL    HW115758   1.677   1.402   5.830
 4953SOL    HW215759   1.578   1.372   5.956
 4954SOL     OW15760   3.299   3.526   5.359
 4954SOL    HW115761   3.217   3.583   5.369
 4954SOL    HW215762   3.271   3.432   5.335
 4955SOL     OW15763   4.121   6.207   0.174
 4955SOL    HW115764   4.141   6.114   0.204
 4955SOL    HW215765   4.206   6.258   0.164
 4956SOL     OW15766   2.447   0.447   4.485
 4956SOL    HW115767   2.523   0.501   4.522
 4956SOL    HW215768   2.464   0.430   4.388
 4957SOL     OW15769   5.850   5.515   6.945
 4957SOL    HW115770   5.900   5.587   6.896
 4957SOL    HW215771   5.836   5.544   0.025
 4958SOL     OW15772   3.533   5.383   0.018
 4958SOL    HW115773   3.584   5.462   6.999
 4958SOL    HW215774   3.582   5.299   7.009
 4959SOL     OW15775   0.322   2.199   3.144
 4959SOL    HW115776   0.308   2.216   3.241
 4959SOL    HW215777   0.420   2.197   3.124
 4960SOL     OW15778   4.653   4.288   4.147
 4960SOL    HW115779   4.708   4.371   4.158
 4960SOL    HW215780   4.559   4.314   4.127
 4961SOL     OW15781   3.705   3.128   2.243
 4961SOL    HW115782   3.804   3.114   2.236
 4961SOL    HW215783   3.686   3.224   2.263
 4962SOL     OW15784   1.666   2.391   0.441
 4962SOL    HW115785   1.620   2.413   0.355
 4962SOL    HW215786   1.704   2.299   0.437
 4963SOL     OW15787   0.319   3.846   0.019
 4963SOL    HW115788   0.262   3.766   0.037
 4963SOL    HW215789   0.406   3.836   0.067
 4964SOL     OW15790   1.634   4.874   4.093
 4964SOL    HW115791   1.691   4.949   4.127
 4964SOL    HW215792   1.583   4.906   4.012
 4965SOL     OW15793   2.566   0.421   3.292
 4965SOL    HW115794   2.653   0.470   3.297
 4965SOL    HW215795   2.493   0.480   3.326
 4966SOL     OW15796   4.403   0.062   5.276
 4966SOL    HW115797   4.330   0.073   5.209
 4966SOL    HW215798   4.491   0.081   5.232
 4967SOL     OW15799   4.547   4.660   3.672
 4967SOL    HW115800   4.450   4.663   3.650
 4967SOL    HW215801   4.558   4.661   3.772
 4968SOL     OW15802   6.698   2.794   3.734
 4968SOL    HW115803   6.620   2.754   3.782
 4968SOL    HW215804   6.665   2.853   3.660
 4969SOL     OW15805   0.398   5.642   4.227
 4969SOL    HW115806   0.304   5.659   4.257
 4969SOL    HW215807   0.408   5.668   4.131
 4970SOL     OW15808   2.115   1.416   1.204
 4970SOL    HW115809   2.054   1.406   1.282
 4970SOL    HW215810   2.208   1.389   1.230
 4971SOL     OW15811   0.253   5.875   1.763
 4971SOL    HW115812   0.260   5.946   1.693
 4971SOL    HW215813   0.334   5.817   1.760
 4972SOL     OW15814   0.226   3.972   0.390
 4972SOL    HW115815   0.169   3.940   0.314
 4972SOL    HW215816   0.199   3.924   0.474
 4973SOL     OW15817   5.215   2.383   6.535
 4973SOL    HW115818   5.178   2.370   6.627
 4973SOL    HW215819   5.315   2.376   6.538
 4974SOL     OW15820   3.222   0.020   5.566
 4974SOL    HW115821   3.236   0.106   5.517
 4974SOL    HW215822   3.174   0.039   5.652
 4975SOL     OW15823   6.139   3.987   1.636
 4975SOL    HW115824   6.053   3.936   1.645
 4975SOL    HW215825   6.150   4.049   1.713
 4976SOL     OW15826   0.862   0.156   3.726
 4976SOL    HW115827   0.842   0.226   3.794
 4976SOL    HW215828   0.936   0.097   3.760
 4977SOL     OW15829   1.443   3.464   4.987
 4977SOL    HW115830   1.522   3.439   5.043
 4977SOL    HW215831   1.399   3.381   4.953
 4978SOL     OW15832   6.274   5.311   4.671
 4978SOL    HW115833   6.234   5.402   4.662
 4978SOL    HW215834   6.211   5.252   4.723
 4979SOL     OW15835   3.384   6.891   6.412
 4979SOL    HW115836   3.344   6.953   6.480
 4979SOL    HW215837   3.324   6.813   6.398
 4980SOL     OW15838   5.751   2.851   3.904
 4980SOL    HW115839   5.777   2.888   3.815
 4980SOL    HW215840   5.685   2.777   3.892
 4981SOL     OW15841   3.843   6.292   3.218
 4981SOL    HW115842   3.796   6.205   3.233
 4981SOL    HW215843   3.897   6.315   3.299
 4982SOL     OW15844   4.406   1.965   4.752
 4982SOL    HW115845   4.312   1.982   4.721
 4982SOL    HW215846   4.450   1.899   4.692
 4983SOL     OW15847   5.999   3.363   2.928
 4983SOL    HW115848   5.908   3.360   2.887
 4983SOL    HW215849   6.035   3.271   2.937
 4984SOL     OW15850   4.929   3.731   5.275
 4984SOL    HW115851   4.882   3.726   5.186
 4984SOL    HW215852   4.870   3.691   5.345
 4985SOL     OW15853   5.793   0.530   2.244
 4985SOL    HW115854   5.715   0.531   2.182
 4985SOL    HW215855   5.766   0.489   2.331
 4986SOL     OW15856   1.566   5.577   1.256
 4986SOL    HW115857   1.579   5.501   1.192
 4986SOL    HW215858   1.655   5.605   1.293
 4987SOL     OW15859   2.039   3.680   2.295
 4987SOL    HW115860   2.043   3.582   2.277
 4987SOL    HW215861   1.963   3.720   2.244
 4988SOL     OW15862   6.231   5.470   4.198
 4988SOL    HW115863   6.246   5.423   4.110
 4988SOL    HW215864   6.220   5.568   4.182
 4989SOL     OW15865   6.883   6.532   3.509
 4989SOL    HW115866   6.868   6.616   3.561
 4989SOL    HW215867   6.814   6.524   3.437
 4990SOL     OW15868   5.093   1.739   5.552
 4990SOL    HW115869   5.122   1.813   5.492
 4990SOL    HW215870   5.107   1.651   5.506
 4991SOL     OW15871   2.115   5.459   5.750
 4991SOL    HW115872   2.020   5.438   5.772
 4991SOL    HW215873   2.125   5.467   5.650
 4992SOL     OW15874   2.162   3.271   5.507
 4992SOL    HW115875   2.127   3.194   5.561
 4992SOL    HW215876   2.221   3.328   5.564
 4993SOL     OW15877   2.427   5.640   4.047
 4993SOL    HW115878   2.350   5.694   4.015
 4993SOL    HW215879   2.513   5.682   4.018
 4994SOL     OW15880   3.104   5.081   5.457
 4994SOL    HW115881   3.069   5.170   5.487
 4994SOL    HW215882   3.117   5.082   5.358
 4995SOL     OW15883   0.279   1.455   5.661
 4995SOL    HW115884   0.367   1.411   5.643
 4995SOL    HW215885   0.258   1.519   5.587
 4996SOL     OW15886   0.113   0.684   4.490
 4996SOL    HW115887   0.145   0.736   4.570
 4996SOL    HW215888   0.022   0.648   4.508
 4997SOL     OW15889   4.299   1.226   0.560
 4997SOL    HW115890   4.266   1.232   0.654
 4997SOL    HW215891   4.277   1.136   0.523
 4998SOL     OW15892   1.093   3.420   3.452
 4998SOL    HW115893   1.082   3.519   3.463
 4998SOL    HW215894   1.003   3.377   3.448
 4999SOL     OW15895   0.351   3.027   3.702
 4999SOL    HW115896   0.297   2.966   3.644
 4999SOL    HW215897   0.339   3.121   3.672
 5000SOL     OW15898   3.093   6.325   3.123
 5000SOL    HW115899   3.192   6.320   3.109
 5000SOL    HW215900   3.062   6.419   3.108
 5001SOL     OW15901   0.311   5.677   3.378
 5001SOL    HW115902   0.229   5.728   3.404
 5001SOL    HW215903   0.367   5.732   3.316
 5002SOL     OW15904   1.263   4.422   3.927
 5002SOL    HW115905   1.340   4.441   3.867
 5002SOL    HW215906   1.201   4.501   3.929
 5003SOL     OW15907   3.433   0.916   1.721
 5003SOL    HW115908   3.521   0.915   1.768
 5003SOL    HW215909   3.444   0.950   1.628
 5004SOL     OW15910   4.496   6.174   0.279
 5004SOL    HW115911   4.486   6.203   0.374
 5004SOL    HW215912   4.577   6.116   0.271
 5005SOL     OW15913   3.891   3.082   0.970
 5005SOL    HW115914   3.872   3.146   1.045
 5005SOL    HW215915   3.990   3.074   0.958
 5006SOL     OW15916   5.100   0.432   2.674
 5006SOL    HW115917   5.084   0.467   2.582
 5006SOL    HW215918   5.167   0.358   2.671
 5007SOL     OW15919   6.063   5.142   2.322
 5007SOL    HW115920   6.147   5.109   2.279
 5007SOL    HW215921   6.008   5.191   2.255
 5008SOL     OW15922   5.052   6.852   3.536
 5008SOL    HW115923   4.980   6.860   3.605
 5008SOL    HW215924   5.139   6.833   3.581
 5009SOL     OW15925   0.350   1.537   6.922
 5009SOL    HW115926   0.314   1.591   6.998
 5009SOL    HW215927   0.446   1.513   6.941
 5010SOL     OW15928   5.057   4.053   0.827
 5010SOL    HW115929   5.114   4.033   0.747
 5010SOL    HW215930   5.097   4.129   0.879
 5011SOL     OW15931   1.603   2.388   6.387
 5011SOL    HW115932   1.659   2.468   6.366
 5011SOL    HW215933   1.506   2.413   6.380
 5012SOL     OW15934   6.328   2.204   6.250
 5012SOL    HW115935   6.314   2.111   6.215
 5012SOL    HW215936   6.319   2.204   6.350
 5013SOL     OW15937   5.882   6.693   5.575
 5013SOL    HW115938   5.886   6.615   5.513
 5013SOL    HW215939   5.815   6.675   5.647
 5014SOL     OW15940   6.092   3.972   0.871
 5014SOL    HW115941   6.120   3.942   0.780
 5014SOL    HW215942   6.096   3.895   0.935
 5015SOL     OW15943   6.187   5.565   4.709
 5015SOL    HW115944   6.251   5.627   4.663
 5015SOL    HW215945   6.110   5.618   4.745
 5016SOL     OW15946   1.431   2.549   6.640
 5016SOL    HW115947   1.398   2.512   6.553
 5016SOL    HW215948   1.451   2.473   6.702
 5017SOL     OW15949   1.450   2.249   2.200
 5017SOL    HW115950   1.387   2.173   2.215
 5017SOL    HW215951   1.400   2.336   2.205
 5018SOL     OW15952   0.885   0.972   0.186
 5018SOL    HW115953   0.788   0.948   0.178
 5018SOL    HW215954   0.912   0.971   0.282
 5019SOL     OW15955   1.491   3.870   4.119
 5019SOL    HW115956   1.444   3.849   4.205
 5019SOL    HW215957   1.545   3.954   4.131
 5020SOL     OW15958   1.727   6.824   3.829
 5020SOL    HW115959   1.796   6.787   3.890
 5020SOL    HW215960   1.646   6.766   3.831
 5021SOL     OW15961   1.786   0.375   1.476
 5021SOL    HW115962   1.879   0.342   1.463
 5021SOL    HW215963   1.784   0.438   1.554
 5022SOL     OW15964   6.899   2.745   0.917
 5022SOL    HW115965   6.928   2.650   0.908
 5022SOL    HW215966   6.909   2.774   1.012
 5023SOL     OW15967   0.217   3.177   2.650
 5023SOL    HW115968   0.275   3.125   2.587
 5023SOL    HW215969   0.162   3.114   2.705
 5024SOL     OW15970   4.707   4.340   6.796
 5024SOL    HW115971   4.632   4.314   6.857
 5024SOL    HW215972   4.764   4.260   6.777
 5025SOL     OW15973   4.992   1.926   4.850
 5025SOL    HW115974   5.000   1.839   4.801
 5025SOL    HW215975   5.013   1.911   4.947
 5026SOL     OW15976   5.130   6.155   4.820
 5026SOL    HW115977   5.214   6.151   4.766
 5026SOL    HW215978   5.131   6.084   4.890
 5027SOL     OW15979   4.810   6.505   0.730
 5027SOL    HW115980   4.840   6.491   0.824
 5027SOL    HW215981   4.745   6.433   0.705
 5028SOL     OW15982   6.481   1.650   2.785
 5028SOL    HW115983   6.471   1.612   2.692
 5028SOL    HW215984   6.393   1.688   2.814
 5029SOL     OW15985   5.528   2.818   2.468
 5029SOL    HW115986   5.523   2.742   2.404
 5029SOL    HW215987   5.454   2.811   2.534
 5030SOL     OW15988   0.297   3.348   0.923
 5030SOL    HW115989   0.285   3.408   0.843
 5030SOL    HW215990   0.385   3.302   0.918
 5031SOL     OW15991   6.382   0.222   6.219
 5031SOL    HW115992   6.367   0.157   6.294
 5031SOL    HW215993   6.394   0.171   6.134
 5032SOL     OW15994   2.668   4.204   6.198
 5032SOL    HW115995   2.658   4.291   6.247
 5032SOL    HW215996   2.580   4.177   6.159
 5033SOL     OW15997   1.891   6.212   5.373
 5033SOL    HW115998   1.830   6.223   5.295
 5033SOL    HW215999   1.952   6.135   5.357
 5034SOL     OW16000   3.976   5.894   4.062
 5034SOL    HW116001   3.974   5.811   4.006
 5034SOL    HW216002   4.006   5.971   4.005
 5035SOL     OW16003   2.085   3.573   3.074
 5035SOL    HW116004   1.989   3.548   3.091
 5035SOL    HW216005   2.144   3.504   3.115
 5036SOL     OW16006   1.051   3.523   4.576
 5036SOL    HW116007   1.125   3.469   4.614
 5036SOL    HW216008   1.080   3.563   4.489
 5037SOL     OW16009   5.083   5.078   1.007
 5037SOL    HW116010   5.013   5.112   1.070
 5037SOL    HW216011   5.057   4.987   0.974
 5038SOL     OW16012   3.052   3.621   3.925
 5038SOL    HW116013   3.132   3.678   3.940
 5038SOL    HW216014   3.050   3.590   3.830
 5039SOL     OW16015   0.371   3.561   6.832
 5039SOL    HW116016   0.278   3.582   6.863
 5039SOL    HW216017   0.368   3.487   6.764
 5040SOL     OW16018   0.417   1.813   5.248
 5040SOL    HW116019   0.407   1.720   5.212
 5040SOL    HW216020   0.512   1.828   5.275
 5041SOL     OW16021   6.647   2.175   1.915
 5041SOL    HW116022   6.619   2.237   1.989
 5041SOL    HW216023   6.711   2.107   1.951
 5042SOL     OW16024   1.038   1.945   5.964
 5042SOL    HW116025   1.112   1.965   5.900
 5042SOL    HW216026   1.000   2.030   5.999
 5043SOL     OW16027   2.828   6.783   1.679
 5043SOL    HW116028   2.882   6.784   1.594
 5043SOL    HW216029   2.885   6.746   1.753
 5044SOL     OW16030   0.002   6.084   6.935
 5044SOL    HW116031   0.087   6.046   6.971
 5044SOL    HW216032   0.023   6.165   6.880
 5045SOL     OW16033   5.422   3.034   0.913
 5045SOL    HW116034   5.490   2.965   0.887
 5045SOL    HW216035   5.466   3.124   0.915
 5046SOL     OW16036   3.985   3.014   2.262
 5046SOL    HW116037   3.991   3.113   2.256
 5046SOL    HW216038   3.968   2.975   2.172
 5047SOL     OW16039   1.754   4.253   3.457
 5047SOL    HW116040   1.776   4.252   3.360
 5047SOL    HW216041   1.831   4.217   3.510
 5048SOL     OW16042   2.794   0.348   5.561
 5048SOL    HW116043   2.701   0.325   5.590
 5048SOL    HW216044   2.793   0.374   5.464
 5049SOL     OW16045   3.975   1.382   6.498
 5049SOL    HW116046   3.984   1.414   6.404
 5049SOL    HW216047   3.942   1.456   6.556
 5050SOL     OW16048   1.573   0.601   0.834
 5050SOL    HW116049   1.514   0.527   0.866
 5050SOL    HW216050   1.598   0.659   0.911
 5051SOL     OW16051   4.602   4.832   0.953
 5051SOL    HW116052   4.545   4.750   0.963
 5051SOL    HW216053   4.619   4.872   1.043
 5052SOL     OW16054   1.992   3.577   4.450
 5052SOL    HW116055   2.006   3.503   4.515
 5052SOL    HW216056   2.043   3.558   4.366
 5053SOL     OW16057   6.317   0.359   0.820
 5053SOL    HW116058   6.415   0.343   0.833
 5053SOL    HW216059   6.298   0.373   0.723
 5054SOL     OW16060   4.244   5.255   3.694
 5054SOL    HW116061   4.156   5.235   3.650
 5054SOL    HW216062   4.311   5.187   3.666
 5055SOL     OW16063   0.277   3.753   5.408
 5055SOL    HW116064   0.203   3.718   5.465
 5055SOL    HW216065   0.240   3.796   5.326
 5056SOL     OW16066   6.299   4.397   3.345
 5056SOL    HW116067   6.367   4.324   3.343
 5056SOL    HW216068   6.345   4.485   3.356
 5057SOL     OW16069   6.894   6.067   2.378
 5057SOL    HW116070   6.883   6.166   2.363
 5057SOL    HW216071   6.935   6.026   2.296
 5058SOL     OW16072   2.451   5.661   6.005
 5058SOL    HW116073   2.353   5.669   5.988
 5058SOL    HW216074   2.499   5.661   5.917
 5059SOL     OW16075   6.597   0.881   1.967
 5059SOL    HW116076   6.683   0.841   1.935
 5059SOL    HW216077   6.617   0.963   2.020
 5060SOL     OW16078   6.973   2.391   6.528
 5060SOL    HW116079   6.973   2.303   6.481
 5060SOL    HW216080   6.986   2.377   6.626
 5061SOL     OW16081   5.423   3.391   0.457
 5061SOL    HW116082   5.393   3.348   0.372
 5061SOL    HW216083   5.436   3.321   0.527
 5062SOL     OW16084   6.843   0.173   0.318
 5062SOL    HW116085   6.936   0.138   0.326
 5062SOL    HW216086   6.838   0.264   0.360
 5063SOL     OW16087   1.293   6.399   2.434
 5063SOL    HW116088   1.317   6.342   2.513
 5063SOL    HW216089   1.195   6.391   2.416
 5064SOL     OW16090   5.022   3.906   6.895
 5064SOL    HW116091   5.045   3.822   6.847
 5064SOL    HW216092   4.974   3.883   6.980
 5065SOL     OW16093   3.150   6.743   6.187
 5065SOL    HW116094   3.115   6.675   6.122
 5065SOL    HW216095   3.121   6.719   6.279
 5066SOL     OW16096   4.516   4.964   0.746
 5066SOL    HW116097   4.466   4.912   0.677
 5066SOL    HW216098   4.537   4.904   0.823
 5067SOL     OW16099   5.242   1.347   6.478
 5067SOL    HW116100   5.205   1.255   6.481
 5067SOL    HW216101   5.215   1.391   6.392
 5068SOL     OW16102   3.695   4.716   1.008
 5068SOL    HW116103   3.674   4.747   0.915
 5068SOL    HW216104   3.670   4.619   1.017
 5069SOL     OW16105   6.725   5.206   2.934
 5069SOL    HW116106   6.661   5.272   2.972
 5069SOL    HW216107   6.796   5.253   2.881
 5070SOL     OW16108   4.993   2.547   3.573
 5070SOL    HW116109   4.972   2.473   3.508
 5070SOL    HW216110   5.075   2.594   3.543
 5071SOL     OW16111   5.007   0.847   0.969
 5071SOL    HW116112   4.949   0.787   1.026
 5071SOL    HW216113   4.989   0.942   0.992
 5072SOL     OW16114   0.633   3.540   1.785
 5072SOL    HW116115   0.721   3.500   1.807
 5072SOL    HW216116   0.639   3.640   1.789
 5073SOL     OW16117   3.812   2.155   3.397
 5073SOL    HW116118   3.903   2.195   3.389
 5073SOL    HW216119   3.755   2.212   3.455
 5074SOL     OW16120   4.212   4.380   5.336
 5074SOL    HW116121   4.258   4.295   5.361
 5074SOL    HW216122   4.260   4.422   5.259
 5075SOL     OW16123   0.112   6.893   3.649
 5075SOL    HW116124   0.119   6.980   3.697
 5075SOL    HW216125   0.138   6.818   3.711
 5076SOL     OW16126   4.633   0.241   0.965
 5076SOL    HW116127   4.535   0.239   0.945
 5076SOL    HW216128   4.681   0.292   0.894
 5077SOL     OW16129   6.857   2.536   2.682
 5077SOL    HW116130   6.903   2.462   2.634
 5077SOL    HW216131   6.910   2.561   2.763
 5078SOL     OW16132   6.873   1.323   4.530
 5078SOL    HW116133   6.887   1.347   4.626
 5078SOL    HW216134   6.959   1.292   4.490
 5079SOL     OW16135   4.781   4.744   4.662
 5079SOL    HW116136   4.863   4.688   4.662
 5079SOL    HW216137   4.705   4.693   4.620
 5080SOL     OW16138   5.609   1.228   6.046
 5080SOL    HW116139   5.545   1.157   6.016
 5080SOL    HW216140   5.697   1.186   6.070
 5081SOL     OW16141   3.003   3.225   2.817
 5081SOL    HW116142   3.027   3.217   2.914
 5081SOL    HW216143   3.025   3.139   2.771
 5082SOL     OW16144   0.549   1.381   5.621
 5082SOL    HW116145   0.611   1.306   5.646
 5082SOL    HW216146   0.562   1.404   5.524
 5083SOL     OW16147   0.913   4.289   2.082
 5083SOL    HW116148   0.835   4.278   2.021
 5083SOL    HW216149   0.904   4.227   2.160
 5084SOL     OW16150   0.982   5.729   2.407
 5084SOL    HW116151   0.953   5.702   2.315
 5084SOL    HW216152   1.077   5.704   2.421
 5085SOL     OW16153   6.922   3.837   6.970
 5085SOL    HW116154   6.963   3.787   6.893
 5085SOL    HW216155   6.853   3.901   6.935
 5086SOL     OW16156   6.279   5.444   4.992
 5086SOL    HW116157   6.357   5.405   4.944
 5086SOL    HW216158   6.224   5.499   4.928
 5087SOL     OW16159   5.768   5.204   5.456
 5087SOL    HW116160   5.681   5.192   5.408
 5087SOL    HW216161   5.753   5.195   5.555
 5088SOL     OW16162   6.629   1.003   6.863
 5088SOL    HW116163   6.649   0.913   6.823
 5088SOL    HW216164   6.581   0.991   6.950
 5089SOL     OW16165   5.514   2.564   4.115
 5089SOL    HW116166   5.437   2.502   4.101
 5089SOL    HW216167   5.566   2.534   4.195
 5090SOL     OW16168   1.339   5.195   0.195
 5090SOL    HW116169   1.276   5.269   0.170
 5090SOL    HW216170   1.433   5.222   0.172
 5091SOL     OW16171   0.973   6.073   3.306
 5091SOL    HW116172   0.896   6.064   3.369
 5091SOL    HW216173   0.969   6.001   3.237
 5092SOL     OW16174   3.473   2.659   1.533
 5092SOL    HW116175   3.465   2.687   1.628
 5092SOL    HW216176   3.545   2.713   1.488
 5093SOL     OW16177   0.929   1.262   1.799
 5093SOL    HW116178   0.944   1.167   1.772
 5093SOL    HW216179   0.847   1.297   1.754
 5094SOL     OW16180   0.166   0.170   6.397
 5094SOL    HW116181   0.099   0.108   6.439
 5094SOL    HW216182   0.250   0.120   6.376
 5095SOL     OW16183   3.267   0.441   5.086
 5095SOL    HW116184   3.334   0.509   5.114
 5095SOL    HW216185   3.194   0.435   5.154
 5096SOL     OW16186   3.647   6.204   2.825
 5096SOL    HW116187   3.586   6.166   2.894
 5096SOL    HW216188   3.616   6.295   2.798
 5097SOL     OW16189   1.061   1.986   6.450
 5097SOL    HW116190   1.042   1.937   6.535
 5097SOL    HW216191   1.040   1.926   6.372
 5098SOL     OW16192   0.320   2.549   2.852
 5098SOL    HW116193   0.396   2.485   2.862
 5098SOL    HW216194   0.339   2.632   2.904
 5099SOL     OW16195   0.479   1.087   4.412
 5099SOL    HW116196   0.579   1.081   4.414
 5099SOL    HW216197   0.449   1.100   4.317
 5100SOL     OW16198   4.607   5.048   5.701
 5100SOL    HW116199   4.672   5.057   5.776
 5100SOL    HW216200   4.529   4.994   5.732
 5101SOL     OW16201   5.881   6.234   0.849
 5101SOL    HW116202   5.921   6.157   0.799
 5101SOL    HW216203   5.784   6.243   0.825
 5102SOL     OW16204   3.087   5.508   4.032
 5102SOL    HW116205   3.122   5.554   3.951
 5102SOL    HW216206   3.164   5.470   4.085
 5103SOL     OW16207   1.235   1.396   3.976
 5103SOL    HW116208   1.293   1.370   4.054
 5103SOL    HW216209   1.169   1.323   3.959
 5104SOL     OW16210   0.728   0.733   0.723
 5104SOL    HW116211   0.776   0.660   0.772
 5104SOL    HW216212   0.787   0.813   0.715
 5105SOL     OW16213   1.056   2.966   6.820
 5105SOL    HW116214   1.019   2.873   6.825
 5105SOL    HW216215   1.145   2.965   6.775
 5106SOL     OW16216   2.075   6.849   2.382
 5106SOL    HW116217   2.126   6.792   2.446
 5106SOL    HW216218   2.138   6.909   2.333
 5107SOL     OW16219   2.370   6.976   6.681
 5107SOL    HW116220   2.393   6.904   6.616
 5107SOL    HW216221   2.400   0.049   6.644
 5108SOL     OW16222   3.624   4.135   4.566
 5108SOL    HW116223   3.623   4.172   4.473
 5108SOL    HW216224   3.649   4.038   4.563
 5109SOL     OW16225   0.146   1.908   2.664
 5109SOL    HW116226   0.095   1.991   2.686
 5109SOL    HW216227   0.244   1.923   2.682
 5110SOL     OW16228   2.529   6.241   5.421
 5110SOL    HW116229   2.515   6.143   5.439
 5110SOL    HW216230   2.624   6.257   5.397
 5111SOL     OW16231   1.604   0.591   6.541
 5111SOL    HW116232   1.633   0.566   6.633
 5111SOL    HW216233   1.670   0.555   6.475
 5112SOL     OW16234   0.260   0.060   2.668
 5112SOL    HW116235   0.295   0.110   2.746
 5112SOL    HW216236   0.161   0.049   2.676
 5113SOL     OW16237   0.772   0.987   6.433
 5113SOL    HW116238   0.746   1.075   6.394
 5113SOL    HW216239   0.839   0.942   6.374
 5114SOL     OW16240   4.533   5.659   6.500
 5114SOL    HW116241   4.578   5.571   6.489
 5114SOL    HW216242   4.600   5.727   6.531
 5115SOL     OW16243   2.645   3.906   5.368
 5115SOL    HW116244   2.707   3.852   5.312
 5115SOL    HW216245   2.569   3.938   5.312
 5116SOL     OW16246   6.789   4.096   1.219
 5116SOL    HW116247   6.802   4.179   1.164
 5116SOL    HW216248   6.860   4.029   1.196
 5117SOL     OW16249   2.258   5.073   2.757
 5117SOL    HW116250   2.270   4.983   2.714
 5117SOL    HW216251   2.288   5.069   2.852
 5118SOL     OW16252   4.003   6.765   1.627
 5118SOL    HW116253   3.947   6.837   1.668
 5118SOL    HW216254   4.097   6.797   1.618
 5119SOL     OW16255   6.133   0.866   2.340
 5119SOL    HW116256   6.097   0.773   2.349
 5119SOL    HW216257   6.173   0.878   2.249
 5120SOL     OW16258   3.262   1.471   2.094
 5120SOL    HW116259   3.170   1.474   2.133
 5120SOL    HW216260   3.269   1.395   2.030
 5121SOL     OW16261   0.469   3.720   4.209
 5121SOL    HW116262   0.500   3.626   4.195
 5121SOL    HW216263   0.413   3.749   4.132
 5122SOL     OW16264   2.408   5.417   3.294
 5122SOL    HW116265   2.380   5.432   3.389
 5122SOL    HW216266   2.472   5.488   3.267
 5123SOL     OW16267   5.978   3.084   2.363
 5123SOL    HW116268   5.922   3.154   2.406
 5123SOL    HW216269   5.951   2.994   2.397
 5124SOL     OW16270   3.166   6.173   0.564
 5124SOL    HW116271   3.260   6.138   0.565
 5124SOL    HW216272   3.103   6.100   0.588
 5125SOL     OW16273   0.657   1.975   6.016
 5125SOL    HW116274   0.686   1.922   6.095
 5125SOL    HW216275   0.663   1.918   5.934
 5126SOL     OW16276   4.176   1.710   0.371
 5126SOL    HW116277   4.102   1.757   0.324
 5126SOL    HW216278   4.139   1.662   0.451
 5127SOL     OW16279   4.749   3.134   6.538
 5127SOL    HW116280   4.765   3.082   6.621
 5127SOL    HW216281   4.697   3.078   6.473
 5128SOL     OW16282   0.264   0.770   6.469
 5128SOL    HW116283   0.362   0.781   6.453
 5128SOL    HW216284   0.219   0.737   6.386
 5129SOL     OW16285   5.020   3.286   3.665
 5129SOL    HW116286   5.068   3.349   3.726
 5129SOL    HW216287   4.951   3.336   3.613
 5130SOL     OW16288   2.546   6.316   4.879
 5130SOL    HW116289   2.540   6.412   4.853
 5130SOL    HW216290   2.530   6.307   4.978
 5131SOL     OW16291   3.500   5.026   2.883
 5131SOL    HW116292   3.430   4.981   2.938
 5131SOL    HW216293   3.590   4.993   2.910
 5132SOL     OW16294   3.962   2.170   6.405
 5132SOL    HW116295   4.005   2.108   6.470
 5132SOL    HW216296   3.867   2.141   6.388
 5133SOL     OW16297   4.008   4.513   6.077
 5133SOL    HW116298   3.920   4.477   6.108
 5133SOL    HW216299   4.065   4.438   6.044
 5134SOL     OW16300   5.882   5.828   0.484
 5134SOL    HW116301   5.935   5.828   0.399
 5134SOL    HW216302   5.890   5.739   0.529
 5135SOL     OW16303   0.111   3.294   1.946
 5135SOL    HW116304   0.079   3.200   1.958
 5135SOL    HW216305   0.147   3.328   2.033
 5136SOL     OW16306   0.479   0.312   4.331
 5136SOL    HW116307   0.391   0.345   4.364
 5136SOL    HW216308   0.533   0.389   4.297
 5137SOL     OW16309   5.449   0.592   2.571
 5137SOL    HW116310   5.406   0.676   2.603
 5137SOL    HW216311   5.420   0.573   2.478
 5138SOL     OW16312   3.031   3.888   2.310
 5138SOL    HW116313   3.090   3.957   2.352
 5138SOL    HW216314   3.088   3.811   2.279
 5139SOL     OW16315   5.290   0.254   5.011
 5139SOL    HW116316   5.368   0.244   5.073
 5139SOL    HW216317   5.225   0.180   5.028
 5140SOL     OW16318   2.898   3.674   6.246
 5140SOL    HW116319   2.993   3.683   6.216
 5140SOL    HW216320   2.875   3.750   6.307
 5141SOL     OW16321   0.787   3.335   1.146
 5141SOL    HW116322   0.811   3.394   1.224
 5141SOL    HW216323   0.793   3.239   1.173
 5142SOL     OW16324   0.195   6.750   2.607
 5142SOL    HW116325   0.252   6.682   2.652
 5142SOL    HW216326   0.251   6.826   2.576
 5143SOL     OW16327   6.537   6.542   2.586
 5143SOL    HW116328   6.509   6.631   2.552
 5143SOL    HW216329   6.478   6.471   2.549
 5144SOL     OW16330   2.074   2.817   5.411
 5144SOL    HW116331   2.110   2.725   5.402
 5144SOL    HW216332   2.123   2.878   5.348
 5145SOL     OW16333   1.518   5.384   5.360
 5145SOL    HW116334   1.475   5.305   5.315
 5145SOL    HW216335   1.580   5.352   5.431
 5146SOL     OW16336   6.034   5.705   6.873
 5146SOL    HW116337   6.011   5.802   6.873
 5146SOL    HW216338   6.068   5.679   6.782
 5147SOL     OW16339   5.120   1.588   3.637
 5147SOL    HW116340   5.123   1.687   3.645
 5147SOL    HW216341   5.028   1.555   3.661
 5148SOL     OW16342   6.122   1.772   0.821
 5148SOL    HW116343   6.024   1.752   0.822
 5148SOL    HW216344   6.173   1.692   0.853
 5149SOL     OW16345   3.417   5.953   3.807
 5149SOL    HW116346   3.383   6.038   3.766
 5149SOL    HW216347   3.407   5.957   3.906
 5150SOL     OW16348   6.713   0.662   3.553
 5150SOL    HW116349   6.760   0.619   3.475
 5150SOL    HW216350   6.763   0.644   3.637
 5151SOL     OW16351   5.566   4.853   2.126
 5151SOL    HW116352   5.585   4.921   2.197
 5151SOL    HW216353   5.468   4.849   2.108
 5152SOL     OW16354   2.240   1.887   0.371
 5152SOL    HW116355   2.237   1.935   0.459
 5152SOL    HW216356   2.231   1.953   0.297
 5153SOL     OW16357   2.669   2.578   0.301
 5153SOL    HW116358   2.583   2.621   0.328
 5153SOL    HW216359   2.671   2.483   0.332
 5154SOL     OW16360   0.367   2.592   0.216
 5154SOL    HW116361   0.374   2.678   0.267
 5154SOL    HW216362   0.431   2.595   0.139
 5155SOL     OW16363   1.468   0.853   0.205
 5155SOL    HW116364   1.531   0.925   0.175
 5155SOL    HW216365   1.509   0.763   0.186
 5156SOL     OW16366   5.294   5.347   6.252
 5156SOL    HW116367   5.268   5.414   6.182
 5156SOL    HW216368   5.227   5.349   6.326
 5157SOL     OW16369   3.463   1.215   2.046
 5157SOL    HW116370   3.474   1.126   2.090
 5157SOL    HW216371   3.451   1.203   1.948
 5158SOL     OW16372   1.574   2.443   2.982
 5158SOL    HW116373   1.523   2.515   2.937
 5158SOL    HW216374   1.653   2.482   3.030
 5159SOL     OW16375   6.754   2.985   5.118
 5159SOL    HW116376   6.785   3.079   5.132
 5159SOL    HW216377   6.811   2.922   5.171
 5160SOL     OW16378   6.779   0.240   2.633
 5160SOL    HW116379   6.697   0.255   2.578
 5160SOL    HW216380   6.767   0.283   2.723
 5161SOL     OW16381   1.033   1.571   6.528
 5161SOL    HW116382   1.012   1.545   6.434
 5161SOL    HW216383   1.089   1.500   6.571
 5162SOL     OW16384   0.360   6.849   5.476
 5162SOL    HW116385   0.368   6.931   5.534
 5162SOL    HW216386   0.300   6.868   5.399
 5163SOL     OW16387   3.184   0.823   1.709
 5163SOL    HW116388   3.280   0.831   1.732
 5163SOL    HW216389   3.153   0.908   1.666
 5164SOL     OW16390   2.777   3.409   0.453
 5164SOL    HW116391   2.774   3.501   0.492
 5164SOL    HW216392   2.691   3.362   0.473
 5165SOL     OW16393   1.345   5.105   5.588
 5165SOL    HW116394   1.330   5.078   5.683
 5165SOL    HW216395   1.357   5.204   5.583
 5166SOL     OW16396   6.902   6.005   5.661
 5166SOL    HW116397   6.967   6.053   5.602
 5166SOL    HW216398   6.820   5.981   5.608
 5167SOL     OW16399   6.233   3.830   6.163
 5167SOL    HW116400   6.219   3.903   6.229
 5167SOL    HW216401   6.232   3.742   6.210
 5168SOL     OW16402   4.798   2.018   3.022
 5168SOL    HW116403   4.771   2.017   3.118
 5168SOL    HW216404   4.842   2.105   3.001
 5169SOL     OW16405   4.943   5.366   4.387
 5169SOL    HW116406   4.855   5.394   4.348
 5169SOL    HW216407   4.961   5.420   4.469
 5170SOL     OW16408   2.141   3.816   6.196
 5170SOL    HW116409   2.162   3.819   6.294
 5170SOL    HW216410   2.052   3.773   6.182
 5171SOL     OW16411   2.362   6.671   5.952
 5171SOL    HW116412   2.327   6.693   5.861
 5171SOL    HW216413   2.351   6.573   5.968
 5172SOL     OW16414   5.846   5.739   6.137
 5172SOL    HW116415   5.830   5.664   6.201
 5172SOL    HW216416   5.923   5.716   6.078
 5173SOL     OW16417   4.151   6.197   4.155
 5173SOL    HW116418   4.177   6.119   4.211
 5173SOL    HW216419   4.112   6.165   4.068
 5174SOL     OW16420   0.709   6.023   2.684
 5174SOL    HW116421   0.805   6.034   2.709
 5174SOL    HW216422   0.655   6.003   2.766
 5175SOL     OW16423   2.493   1.256   6.882
 5175SOL    HW116424   2.536   1.200   6.953
 5175SOL    HW216425   2.544   1.247   6.797
 5176SOL     OW16426   6.082   6.390   6.277
 5176SOL    HW116427   6.125   6.464   6.224
 5176SOL    HW216428   6.049   6.426   6.364
 5177SOL     OW16429   5.574   6.108   0.742
 5177SOL    HW116430   5.487   6.078   0.704
 5177SOL    HW216431   5.562   6.137   0.837
 5178SOL     OW16432   0.439   3.935   1.208
 5178SOL    HW116433   0.458   4.015   1.265
 5178SOL    HW216434   0.417   3.857   1.266
 5179SOL     OW16435   4.448   5.142   2.697
 5179SOL    HW116436   4.474   5.123   2.603
 5179SOL    HW216437   4.529   5.138   2.756
 5180SOL     OW16438   2.511   4.838   2.134
 5180SOL    HW116439   2.571   4.797   2.203
 5180SOL    HW216440   2.526   4.792   2.046
 5181SOL     OW16441   6.776   1.726   5.603
 5181SOL    HW116442   6.727   1.807   5.571
 5181SOL    HW216443   6.713   1.665   5.650
 5182SOL     OW16444   2.250   6.503   2.014
 5182SOL    HW116445   2.301   6.589   2.020
 5182SOL    HW216446   2.152   6.523   2.027
 5183SOL     OW16447   5.070   1.963   3.398
 5183SOL    HW116448   5.156   2.004   3.428
 5183SOL    HW216449   5.041   1.893   3.464
 5184SOL     OW16450   3.038   1.595   2.637
 5184SOL    HW116451   2.977   1.673   2.651
 5184SOL    HW216452   3.119   1.625   2.587
 5185SOL     OW16453   6.356   0.208   1.716
 5185SOL    HW116454   6.317   0.300   1.718
 5185SOL    HW216455   6.308   0.152   1.649
 5186SOL     OW16456   6.061   2.354   6.757
 5186SOL    HW116457   6.115   2.407   6.823
 5186SOL    HW216458   6.123   2.309   6.693
 5187SOL     OW16459   1.221   4.323   4.747
 5187SOL    HW116460   1.210   4.224   4.759
 5187SOL    HW216461   1.136   4.362   4.710
 5188SOL     OW16462   6.851   0.003   1.477
 5188SOL    HW116463   6.834   0.100   1.461
 5188SOL    HW216464   6.917   6.984   1.411
 5189SOL     OW16465   5.094   5.807   6.750
 5189SOL    HW116466   5.163   5.772   6.688
 5189SOL    HW216467   5.090   5.907   6.742
 5190SOL     OW16468   1.472   4.971   0.904
 5190SOL    HW116469   1.398   4.905   0.912
 5190SOL    HW216470   1.454   5.031   0.826
 5191SOL     OW16471   2.815   4.097   1.655
 5191SOL    HW116472   2.792   4.004   1.627
 5191SOL    HW216473   2.896   4.095   1.714
 5192SOL     OW16474   0.795   4.514   2.778
 5192SOL    HW116475   0.698   4.511   2.753
 5192SOL    HW216476   0.822   4.426   2.817
 5193SOL     OW16477   3.811   0.560   5.039
 5193SOL    HW116478   3.881   0.599   5.098
 5193SOL    HW216479   3.827   0.461   5.028
 5194SOL     OW16480   4.733   1.724   5.049
 5194SOL    HW116481   4.759   1.645   4.993
 5194SOL    HW216482   4.802   1.795   5.038
 5195SOL     OW16483   1.748   1.432   5.655
 5195SOL    HW116484   1.753   1.532   5.656
 5195SOL    HW216485   1.840   1.393   5.660
 5196SOL     OW16486   5.915   6.295   3.098
 5196SOL    HW116487   5.863   6.298   3.184
 5196SOL    HW216488   5.853   6.304   3.021
 5197SOL     OW16489   1.858   3.565   5.240
 5197SOL    HW116490   1.923   3.594   5.170
 5197SOL    HW216491   1.907   3.523   5.316
 5198SOL     OW16492   6.171   5.718   3.874
 5198SOL    HW116493   6.209   5.809   3.889
 5198SOL    HW216494   6.082   5.711   3.920
 5199SOL     OW16495   0.892   5.088   1.421
 5199SOL    HW116496   0.847   5.133   1.344
 5199SOL    HW216497   0.989   5.112   1.422
 5200SOL     OW16498   6.404   3.708   5.003
 5200SOL    HW116499   6.432   3.684   5.097
 5200SOL    HW216500   6.380   3.805   5.000
 5201SOL     OW16501   0.948   6.197   4.641
 5201SOL    HW116502   0.886   6.192   4.563
 5201SOL    HW216503   1.012   6.120   4.640
 5202SOL     OW16504   0.176   4.245   1.333
 5202SOL    HW116505   0.157   4.147   1.337
 5202SOL    HW216506   0.103   4.295   1.381
 5203SOL     OW16507   6.455   3.162   6.801
 5203SOL    HW116508   6.517   3.116   6.738
 5203SOL    HW216509   6.478   3.259   6.806
 5204SOL     OW16510   5.565   5.470   6.830
 5204SOL    HW116511   5.506   5.485   6.909
 5204SOL    HW216512   5.660   5.460   6.861
 5205SOL     OW16513   2.905   6.115   0.389
 5205SOL    HW116514   2.827   6.069   0.347
 5205SOL    HW216515   2.914   6.084   0.484
 5206SOL     OW16516   0.389   4.404   4.897
 5206SOL    HW116517   0.432   4.396   4.987
 5206SOL    HW216518   0.295   4.436   4.908
 5207SOL     OW16519   1.356   5.328   2.164
 5207SOL    HW116520   1.271   5.381   2.168
 5207SOL    HW216521   1.335   5.235   2.136
 5208SOL     OW16522   5.077   1.538   0.027
 5208SOL    HW116523   5.032   1.503   0.110
 5208SOL    HW216524   5.046   1.486   6.963
 5209SOL     OW16525   5.885   4.684   2.996
 5209SOL    HW116526   5.812   4.676   2.929
 5209SOL    HW216527   5.956   4.616   2.977
 5210SOL     OW16528   5.282   3.996   3.175
 5210SOL    HW116529   5.334   3.978   3.092
 5210SOL    HW216530   5.344   3.998   3.253
 5211SOL     OW16531   3.335   3.752   2.500
 5211SOL    HW116532   3.340   3.698   2.584
 5211SOL    HW216533   3.309   3.846   2.523
 5212SOL     OW16534   0.763   6.983   6.677
 5212SOL    HW116535   0.761   0.057   6.722
 5212SOL    HW216536   0.842   6.931   6.709
 5213SOL     OW16537   4.752   2.112   6.186
 5213SOL    HW116538   4.771   2.058   6.268
 5213SOL    HW216539   4.838   2.134   6.140
 5214SOL     OW16540   4.496   1.927   0.080
 5214SOL    HW116541   4.521   1.893   0.171
 5214SOL    HW216542   4.492   2.027   0.082
 5215SOL     OW16543   5.531   5.639   3.947
 5215SOL    HW116544   5.471   5.606   3.874
 5215SOL    HW216545   5.625   5.644   3.913
 5216SOL     OW16546   4.249   6.167   1.300
 5216SOL    HW116547   4.189   6.143   1.223
 5216SOL    HW216548   4.271   6.085   1.352
 5217SOL     OW16549   3.199   4.885   3.478
 5217SOL    HW116550   3.297   4.864   3.483
 5217SOL    HW216551   3.186   4.984   3.482
 5218SOL     OW16552   1.868   0.333   3.630
 5218SOL    HW116553   1.890   0.384   3.713
 5218SOL    HW216554   1.919   0.247   3.629
 5219SOL     OW16555   3.400   0.297   1.285
 5219SOL    HW116556   3.385   0.204   1.321
 5219SOL    HW216557   3.450   0.351   1.353
 5220SOL     OW16558   0.839   6.696   2.251
 5220SOL    HW116559   0.814   6.685   2.348
 5220SOL    HW216560   0.877   6.787   2.237
 5221SOL     OW16561   4.650   0.815   0.289
 5221SOL    HW116562   4.584   0.768   0.348
 5221SOL    HW216563   4.708   0.875   0.345
 5222SOL     OW16564   0.655   6.404   2.605
 5222SOL    HW116565   0.651   6.352   2.519
 5222SOL    HW216566   0.750   6.422   2.628
 5223SOL     OW16567   4.506   6.712   1.270
 5223SOL    HW116568   4.470   6.695   1.362
 5223SOL    HW216569   4.481   6.635   1.210
 5224SOL     OW16570   5.376   0.814   3.876
 5224SOL    HW116571   5.324   0.821   3.791
 5224SOL    HW216572   5.397   0.718   3.894
 5225SOL     OW16573   0.265   0.005   5.270
 5225SOL    HW116574   0.277   0.002   5.170
 5225SOL    HW216575   0.349   0.039   5.312
 5226SOL     OW16576   2.519   0.754   3.819
 5226SOL    HW116577   2.560   0.837   3.856
 5226SOL    HW216578   2.528   0.680   3.886
 5227SOL     OW16579   5.092   3.379   4.316
 5227SOL    HW116580   5.089   3.456   4.379
 5227SOL    HW216581   5.030   3.307   4.347
 5228SOL     OW16582   5.134   0.165   1.430
 5228SOL    HW116583   5.089   0.169   1.342
 5228SOL    HW216584   5.180   0.252   1.449
 5229SOL     OW16585   0.432   3.976   3.530
 5229SOL    HW116586   0.390   3.892   3.496
 5229SOL    HW216587   0.367   4.052   3.519
 5230SOL     OW16588   0.648   1.472   6.419
 5230SOL    HW116589   0.696   1.555   6.391
 5230SOL    HW216590   0.550   1.485   6.411
 5231SOL     OW16591   3.123   3.417   3.523
 5231SOL    HW116592   3.053   3.476   3.563
 5231SOL    HW216593   3.214   3.449   3.550
 5232SOL     OW16594   5.087   3.016   4.709
 5232SOL    HW116595   5.095   2.921   4.738
 5232SOL    HW216596   5.164   3.069   4.746
 5233SOL     OW16597   0.825   6.996   3.085
 5233SOL    HW116598   0.735   7.002   3.128
 5233SOL    HW216599   0.889   0.043   3.131
 5234SOL     OW16600   4.131   5.025   1.629
 5234SOL    HW116601   4.080   5.017   1.543
 5234SOL    HW216602   4.228   5.038   1.608
 5235SOL     OW16603   0.957   2.635   1.624
 5235SOL    HW116604   1.021   2.557   1.617
 5235SOL    HW216605   0.989   2.709   1.565
 5236SOL     OW16606   6.565   3.500   0.100
 5236SOL    HW116607   6.613   3.587   0.094
 5236SOL    HW216608   6.523   3.479   0.012
 5237SOL     OW16609   1.966   1.969   3.123
 5237SOL    HW116610   1.900   1.915   3.175
 5237SOL    HW216611   2.047   1.914   3.106
 5238SOL     OW16612   2.228   3.177   0.677
 5238SOL    HW116613   2.184   3.267   0.671
 5238SOL    HW216614   2.277   3.170   0.764
 5239SOL     OW16615   2.848   3.425   5.217
 5239SOL    HW116616   2.895   3.342   5.184
 5239SOL    HW216617   2.755   3.401   5.244
 5240SOL     OW16618   3.728   2.063   4.830
 5240SOL    HW116619   3.646   2.114   4.853
 5240SOL    HW216620   3.782   2.114   4.763
 5241SOL     OW16621   3.549   5.705   5.409
 5241SOL    HW116622   3.562   5.638   5.335
 5241SOL    HW216623   3.630   5.762   5.417
 5242SOL     OW16624   3.955   0.054   5.516
 5242SOL    HW116625   3.946   6.984   5.466
 5242SOL    HW216626   3.899   0.051   5.599
 5243SOL     OW16627   1.182   4.260   0.654
 5243SOL    HW116628   1.201   4.317   0.735
 5243SOL    HW216629   1.087   4.272   0.627
 5244SOL     OW16630   5.769   3.695   6.679
 5244SOL    HW116631   5.789   3.690   6.581
 5244SOL    HW216632   5.672   3.677   6.694
 5245SOL     OW16633   4.834   4.130   5.961
 5245SOL    HW116634   4.838   4.037   5.926
 5245SOL    HW216635   4.870   4.193   5.892
 5246SOL     OW16636   1.584   3.324   3.400
 5246SOL    HW116637   1.618   3.232   3.381
 5246SOL    HW216638   1.633   3.390   3.343
 5247SOL     OW16639   0.299   4.846   0.449
 5247SOL    HW116640   0.351   4.762   0.464
 5247SOL    HW216641   0.290   4.863   0.351
 5248SOL     OW16642   5.000   0.734   0.392
 5248SOL    HW116643   5.025   0.751   0.297
 5248SOL    HW216644   4.947   0.812   0.427
 5249SOL     OW16645   1.178   5.804   6.858
 5249SOL    HW116646   1.171   5.754   6.944
 5249SOL    HW216647   1.120   5.885   6.861
 5250SOL     OW16648   1.175   1.636   5.812
 5250SOL    HW116649   1.165   1.624   5.713
 5250SOL    HW216650   1.104   1.697   5.845
 5251SOL     OW16651   0.230   3.003   1.043
 5251SOL    HW116652   0.313   2.950   1.061
 5251SOL    HW216653   0.231   3.086   1.099
 5252SOL     OW16654   5.212   6.317   1.304
 5252SOL    HW116655   5.152   6.374   1.248
 5252SOL    HW216656   5.205   6.344   1.400
 5253SOL     OW16657   5.810   2.949   3.670
 5253SOL    HW116658   5.728   2.963   3.615
 5253SOL    HW216659   5.888   2.994   3.626
 5254SOL     OW16660   5.575   0.560   4.414
 5254SOL    HW116661   5.655   0.507   4.385
 5254SOL    HW216662   5.515   0.575   4.335
 5255SOL     OW16663   2.741   5.481   3.347
 5255SOL    HW116664   2.735   5.523   3.438
 5255SOL    HW216665   2.676   5.525   3.285
 5256SOL     OW16666   4.927   6.290   1.951
 5256SOL    HW116667   4.997   6.339   2.003
 5256SOL    HW216668   4.886   6.219   2.009
 5257SOL     OW16669   3.127   1.432   3.003
 5257SOL    HW116670   3.057   1.371   2.965
 5257SOL    HW216671   3.082   1.510   3.047
 5258SOL     OW16672   5.732   1.749   1.669
 5258SOL    HW116673   5.753   1.842   1.640
 5258SOL    HW216674   5.655   1.751   1.733
 5259SOL     OW16675   6.035   4.728   1.544
 5259SOL    HW116676   5.950   4.750   1.497
 5259SOL    HW216677   6.102   4.694   1.478
 5260SOL     OW16678   4.379   2.864   1.542
 5260SOL    HW116679   4.434   2.782   1.555
 5260SOL    HW216680   4.284   2.846   1.567
 5261SOL     OW16681   2.590   2.796   5.303
 5261SOL    HW116682   2.536   2.732   5.358
 5261SOL    HW216683   2.534   2.876   5.280
 5262SOL     OW16684   1.231   0.353   1.643
 5262SOL    HW116685   1.155   0.340   1.580
 5262SOL    HW216686   1.290   0.427   1.610
 5263SOL     OW16687   1.442   6.799   6.773
 5263SOL    HW116688   1.483   6.793   6.682
 5263SOL    HW216689   1.358   6.744   6.775
 5264SOL     OW16690   0.936   0.893   1.259
 5264SOL    HW116691   0.989   0.974   1.235
 5264SOL    HW216692   0.953   0.821   1.191
 5265SOL     OW16693   5.303   4.627   4.086
 5265SOL    HW116694   5.348   4.612   4.174
 5265SOL    HW216695   5.215   4.580   4.085
 5266SOL     OW16696   1.428   0.126   0.986
 5266SOL    HW116697   1.379   0.040   0.985
 5266SOL    HW216698   1.457   0.148   1.080
 5267SOL     OW16699   4.277   3.752   5.343
 5267SOL    HW116700   4.273   3.683   5.271
 5267SOL    HW216701   4.188   3.761   5.386
 5268SOL     OW16702   5.789   5.155   5.740
 5268SOL    HW116703   5.843   5.073   5.718
 5268SOL    HW216704   5.717   5.130   5.805
 5269SOL     OW16705   2.194   5.056   5.658
 5269SOL    HW116706   2.198   5.014   5.567
 5269SOL    HW216707   2.224   4.990   5.726
 5270SOL     OW16708   6.652   2.312   3.534
 5270SOL    HW116709   6.664   2.240   3.602
 5270SOL    HW216710   6.555   2.316   3.508
 5271SOL     OW16711   5.609   3.591   5.524
 5271SOL    HW116712   5.691   3.574   5.470
 5271SOL    HW216713   5.608   3.686   5.555
 5272SOL     OW16714   2.396   2.089   3.869
 5272SOL    HW116715   2.417   2.081   3.771
 5272SOL    HW216716   2.365   2.182   3.889
 5273SOL     OW16717   6.556   0.495   5.618
 5273SOL    HW116718   6.477   0.555   5.624
 5273SOL    HW216719   6.556   0.448   5.530
 5274SOL     OW16720   0.233   5.266   4.390
 5274SOL    HW116721   0.252   5.201   4.317
 5274SOL    HW216722   0.190   5.219   4.467
 5275SOL     OW16723   2.223   6.399   0.085
 5275SOL    HW116724   2.314   6.439   0.073
 5275SOL    HW216725   2.161   6.467   0.124
 5276SOL     OW16726   0.718   6.981   0.456
 5276SOL    HW116727   0.770   7.012   0.536
 5276SOL    HW216728   0.776   6.923   0.399
 5277SOL     OW16729   0.294   1.486   1.902
 5277SOL    HW116730   0.374   1.522   1.950
 5277SOL    HW216731   0.313   1.394   1.870
 5278SOL     OW16732   0.761   4.682   5.926
 5278SOL    HW116733   0.675   4.689   5.876
 5278SOL    HW216734   0.746   4.712   6.021
 5279SOL     OW16735   2.344   6.721   6.862
 5279SOL    HW116736   2.310   6.789   6.926
 5279SOL    HW216737   2.274   6.652   6.846
 5280SOL     OW16738   4.300   6.773   5.857
 5280SOL    HW116739   4.398   6.754   5.859
 5280SOL    HW216740   4.275   6.825   5.939
 5281SOL     OW16741   3.035   6.937   5.036
 5281SOL    HW116742   2.995   6.957   5.126
 5281SOL    HW216743   3.122   6.986   5.028
 5282SOL     OW16744   0.280   6.465   0.528
 5282SOL    HW116745   0.224   6.479   0.446
 5282SOL    HW216746   0.377   6.473   0.505
 5283SOL     OW16747   1.541   0.820   4.140
 5283SOL    HW116748   1.575   0.906   4.178
 5283SOL    HW216749   1.441   0.818   4.147
 5284SOL     OW16750   5.002   3.105   2.174
 5284SOL    HW116751   5.089   3.062   2.151
 5284SOL    HW216752   4.927   3.056   2.129
 5285SOL     OW16753   1.672   1.973   4.626
 5285SOL    HW116754   1.702   2.056   4.674
 5285SOL    HW216755   1.598   1.930   4.678
 5286SOL     OW16756   6.561   3.077   1.042
 5286SOL    HW116757   6.594   3.162   1.083
 5286SOL    HW216758   6.572   3.002   1.107
 5287SOL     OW16759   0.809   5.297   1.766
 5287SOL    HW116760   0.843   5.362   1.698
 5287SOL    HW216761   0.769   5.218   1.720
 5288SOL     OW16762   4.239   0.716   1.494
 5288SOL    HW116763   4.300   0.711   1.573
 5288SOL    HW216764   4.146   0.692   1.523
 5289SOL     OW16765   2.304   4.734   6.090
 5289SOL    HW116766   2.367   4.773   6.024
 5289SOL    HW216767   2.348   4.656   6.136
 5290SOL     OW16768   1.672   2.898   4.911
 5290SOL    HW116769   1.752   2.958   4.913
 5290SOL    HW216770   1.692   2.818   4.855
 5291SOL     OW16771   2.729   5.317   4.458
 5291SOL    HW116772   2.676   5.339   4.540
 5291SOL    HW216773   2.736   5.217   4.449
 5292SOL     OW16774   0.256   3.816   4.779
 5292SOL    HW116775   0.279   3.828   4.683
 5292SOL    HW216776   0.338   3.826   4.835
 5293SOL     OW16777   2.198   0.204   4.067
 5293SOL    HW116778   2.137   0.267   4.115
 5293SOL    HW216779   2.266   0.256   4.016
 5294SOL     OW16780   4.975   0.015   4.238
 5294SOL    HW116781   5.065   6.991   4.221
 5294SOL    HW216782   4.945   7.007   4.330
 5295SOL     OW16783   2.157   0.862   1.404
 5295SOL    HW116784   2.185   0.858   1.308
 5295SOL    HW216785   2.134   0.771   1.437
 5296SOL     OW16786   4.819   4.991   1.939
 5296SOL    HW116787   4.903   4.955   1.979
 5296SOL    HW216788   4.778   4.923   1.878
 5297SOL     OW16789   3.521   5.410   5.899
 5297SOL    HW116790   3.476   5.484   5.948
 5297SOL    HW216791   3.464   5.381   5.823
 5298SOL     OW16792   2.870   1.759   0.156
 5298SOL    HW116793   2.786   1.707   0.142
 5298SOL    HW216794   2.872   1.796   0.249
 5299SOL     OW16795   2.507   0.653   1.433
 5299SOL    HW116796   2.492   0.743   1.474
 5299SOL    HW216797   2.436   0.590   1.465
 5300SOL     OW16798   3.347   5.377   6.582
 5300SOL    HW116799   3.317   5.373   6.486
 5300SOL    HW216800   3.308   5.457   6.626
 5301SOL     OW16801   6.389   6.807   5.601
 5301SOL    HW116802   6.329   6.773   5.529
 5301SOL    HW216803   6.482   6.817   5.566
 5302SOL     OW16804   5.056   5.589   2.732
 5302SOL    HW116805   5.010   5.674   2.754
 5302SOL    HW216806   5.029   5.518   2.796
 5303SOL     OW16807   1.423   6.035   5.454
 5303SOL    HW116808   1.430   6.075   5.362
 5303SOL    HW216809   1.430   6.107   5.522
 5304SOL     OW16810   0.853   0.634   3.210
 5304SOL    HW116811   0.952   0.645   3.199
 5304SOL    HW216812   0.833   0.594   3.299
 5305SOL     OW16813   6.960   5.487   4.787
 5305SOL    HW116814   7.010   5.425   4.847
 5305SOL    HW216815   6.907   5.434   4.721
 5306SOL     OW16816   0.857   2.145   6.024
 5306SOL    HW116817   0.765   2.107   6.030
 5306SOL    HW216818   0.880   2.162   5.928
 5307SOL     OW16819   0.131   1.442   1.490
 5307SOL    HW116820   0.054   1.388   1.457
 5307SOL    HW216821   0.097   1.512   1.553
 5308SOL     OW16822   1.635   4.335   2.711
 5308SOL    HW116823   1.576   4.315   2.632
 5308SOL    HW216824   1.730   4.342   2.680
 5309SOL     OW16825   5.891   6.118   3.574
 5309SOL    HW116826   5.855   6.076   3.658
 5309SOL    HW216827   5.937   6.204   3.597
 5310SOL     OW16828   6.246   2.465   3.118
 5310SOL    HW116829   6.319   2.454   3.186
 5310SOL    HW216830   6.253   2.392   3.050
 5311SOL     OW16831   6.093   0.375   0.184
 5311SOL    HW116832   6.099   0.451   0.249
 5311SOL    HW216833   6.021   0.395   0.118
 5312SOL     OW16834   6.314   6.413   0.690
 5312SOL    HW116835   6.232   6.427   0.746
 5312SOL    HW216836   6.299   6.337   0.626
 5313SOL     OW16837   1.322   0.022   5.820
 5313SOL    HW116838   1.302   0.059   5.911
 5313SOL    HW216839   1.394   0.077   5.777
 5314SOL     OW16840   5.686   2.013   1.595
 5314SOL    HW116841   5.713   2.001   1.500
 5314SOL    HW216842   5.595   2.055   1.599
 5315SOL     OW16843   4.054   2.247   3.785
 5315SOL    HW116844   4.071   2.253   3.686
 5315SOL    HW216845   3.957   2.262   3.803
 5316SOL     OW16846   0.642   2.770   4.618
 5316SOL    HW116847   0.658   2.675   4.646
 5316SOL    HW216848   0.609   2.772   4.524
 5317SOL     OW16849   5.635   3.132   6.476
 5317SOL    HW116850   5.588   3.161   6.559
 5317SOL    HW216851   5.582   3.060   6.431
 5318SOL     OW16852   0.317   4.066   5.813
 5318SOL    HW116853   0.370   4.148   5.834
 5318SOL    HW216854   0.357   4.020   5.733
 5319SOL     OW16855   3.326   6.204   2.339
 5319SOL    HW116856   3.243   6.250   2.308
 5319SOL    HW216857   3.385   6.186   2.260
 5320SOL     OW16858   4.700   5.633   1.107
 5320SOL    HW116859   4.698   5.542   1.148
 5320SOL    HW216860   4.614   5.651   1.059
 5321SOL     OW16861   1.622   4.228   5.500
 5321SOL    HW116862   1.621   4.303   5.435
 5321SOL    HW216863   1.528   4.203   5.524
 5322SOL     OW16864   3.726   6.470   2.210
 5322SOL    HW116865   3.667   6.484   2.290
 5322SOL    HW216866   3.741   6.557   2.164
 5323SOL     OW16867   4.266   0.174   6.124
 5323SOL    HW116868   4.193   0.201   6.061
 5323SOL    HW216869   4.271   0.240   6.200
 5324SOL     OW16870   1.721   1.709   1.537
 5324SOL    HW116871   1.668   1.794   1.531
 5324SOL    HW216872   1.670   1.642   1.591
 5325SOL     OW16873   2.123   2.441   5.057
 5325SOL    HW116874   2.205   2.420   5.109
 5325SOL    HW216875   2.072   2.515   5.103
 5326SOL     OW16876   6.225   0.068   1.012
 5326SOL    HW116877   6.227   7.014   1.083
 5326SOL    HW216878   6.284   0.145   1.038
 5327SOL     OW16879   0.156   2.769   5.678
 5327SOL    HW116880   0.189   2.734   5.766
 5327SOL    HW216881   0.173   2.867   5.674
 5328SOL     OW16882   4.873   5.311   0.182
 5328SOL    HW116883   4.846   5.285   0.089
 5328SOL    HW216884   4.973   5.323   0.186
 5329SOL     OW16885   2.387   6.720   6.222
 5329SOL    HW116886   2.389   6.623   6.247
 5329SOL    HW216887   2.371   6.729   6.124
 5330SOL     OW16888   2.643   4.786   1.013
 5330SOL    HW116889   2.719   4.834   1.056
 5330SOL    HW216890   2.670   4.753   0.923
 5331SOL     OW16891   6.530   1.242   6.820
 5331SOL    HW116892   6.592   1.306   6.865
 5331SOL    HW216893   6.558   1.148   6.842
 5332SOL     OW16894   0.362   5.171   1.515
 5332SOL    HW116895   0.303   5.248   1.542
 5332SOL    HW216896   0.397   5.126   1.597
 5333SOL     OW16897   1.178   6.135   5.248
 5333SOL    HW116898   1.229   6.049   5.248
 5333SOL    HW216899   1.111   6.133   5.174
 5334SOL     OW16900   3.545   0.070   4.837
 5334SOL    HW116901   3.615   0.142   4.844
 5334SOL    HW216902   3.571   7.008   4.895
 5335SOL     OW16903   6.808   5.932   6.994
 5335SOL    HW116904   6.885   5.974   6.945
 5335SOL    HW216905   6.752   6.003   0.020
 5336SOL     OW16906   1.147   4.657   1.487
 5336SOL    HW116907   1.238   4.617   1.500
 5336SOL    HW216908   1.155   4.757   1.485
 5337SOL     OW16909   5.112   4.303   1.246
 5337SOL    HW116910   5.117   4.289   1.147
 5337SOL    HW216911   5.169   4.235   1.292
 5338SOL     OW16912   5.487   2.574   0.155
 5338SOL    HW116913   5.432   2.526   0.087
 5338SOL    HW216914   5.572   2.606   0.113
 5339SOL     OW16915   6.262   0.465   1.740
 5339SOL    HW116916   6.234   0.561   1.737
 5339SOL    HW216917   6.229   0.423   1.825
 5340SOL     OW16918   5.433   2.467   6.231
 5340SOL    HW116919   5.380   2.548   6.254
 5340SOL    HW216920   5.376   2.401   6.183
 5341SOL     OW16921   4.782   0.547   0.628
 5341SOL    HW116922   4.790   0.467   0.687
 5341SOL    HW216923   4.872   0.571   0.592
 5342SOL     OW16924   2.973   0.648   6.225
 5342SOL    HW116925   3.024   0.731   6.250
 5342SOL    HW216926   3.014   0.607   6.143
 5343SOL     OW16927   3.467   3.857   1.783
 5343SOL    HW116928   3.543   3.900   1.833
 5343SOL    HW216929   3.390   3.844   1.845
 5344SOL     OW16930   2.407   2.649   2.778
 5344SOL    HW116931   2.410   2.741   2.817
 5344SOL    HW216932   2.323   2.639   2.724
 5345SOL     OW16933   4.692   0.509   2.906
 5345SOL    HW116934   4.660   0.560   2.986
 5345SOL    HW216935   4.616   0.494   2.843
 5346SOL     OW16936   2.804   0.024   3.722
 5346SOL    HW116937   2.780   0.083   3.645
 5346SOL    HW216938   2.764   0.061   3.806
 5347SOL     OW16939   6.605   1.631   1.677
 5347SOL    HW116940   6.642   1.633   1.584
 5347SOL    HW216941   6.602   1.723   1.714
 5348SOL     OW16942   6.602   1.661   0.362
 5348SOL    HW116943   6.614   1.759   0.379
 5348SOL    HW216944   6.531   1.625   0.423
 5349SOL     OW16945   6.282   0.302   1.315
 5349SOL    HW116946   6.339   0.270   1.240
 5349SOL    HW216947   6.284   0.236   1.390
 5350SOL     OW16948   2.579   0.401   6.236
 5350SOL    HW116949   2.609   0.495   6.222
 5350SOL    HW216950   2.582   0.379   6.334
 5351SOL     OW16951   4.118   0.837   1.777
 5351SOL    HW116952   4.028   0.828   1.736
 5351SOL    HW216953   4.118   0.795   1.868
 5352SOL     OW16954   3.250   6.307   3.532
 5352SOL    HW116955   3.200   6.242   3.475
 5352SOL    HW216956   3.262   6.393   3.482
 5353SOL     OW16957   5.943   0.275   6.001
 5353SOL    HW116958   6.004   0.350   6.026
 5353SOL    HW216959   5.927   0.217   6.081
 5354SOL     OW16960   1.592   3.441   0.686
 5354SOL    HW116961   1.639   3.353   0.693
 5354SOL    HW216962   1.537   3.442   0.602
 5355SOL     OW16963   4.118   1.526   6.048
 5355SOL    HW116964   4.190   1.461   6.026
 5355SOL    HW216965   4.159   1.610   6.086
 5356SOL     OW16966   6.192   3.379   0.739
 5356SOL    HW116967   6.254   3.433   0.795
 5356SOL    HW216968   6.218   3.282   0.743
 5357SOL     OW16969   4.340   5.946   0.865
 5357SOL    HW116970   4.275   5.962   0.939
 5357SOL    HW216971   4.290   5.925   0.781
 5358SOL     OW16972   5.106   4.258   1.621
 5358SOL    HW116973   5.027   4.250   1.561
 5358SOL    HW216974   5.128   4.168   1.659
 5359SOL     OW16975   3.182   6.854   0.017
 5359SOL    HW116976   3.208   6.939   0.063
 5359SOL    HW216977   3.134   6.795   0.080
 5360SOL     OW16978   4.295   1.151   0.021
 5360SOL    HW116979   4.206   1.112   0.046
 5360SOL    HW216980   4.323   1.217   0.090
 5361SOL     OW16981   1.466   1.002   6.271
 5361SOL    HW116982   1.519   0.919   6.291
 5361SOL    HW216983   1.514   1.081   6.310
 5362SOL     OW16984   4.315   5.517   3.640
 5362SOL    HW116985   4.310   5.421   3.665
 5362SOL    HW216986   4.275   5.573   3.713
 5363SOL     OW16987   0.498   5.453   4.516
 5363SOL    HW116988   0.461   5.361   4.505
 5363SOL    HW216989   0.426   5.514   4.550
 5364SOL     OW16990   1.068   6.045   6.902
 5364SOL    HW116991   1.119   6.123   6.867
 5364SOL    HW216992   0.983   6.035   6.850
 5365SOL     OW16993   3.780   2.105   6.005
 5365SOL    HW116994   3.705   2.092   6.070
 5365SOL    HW216995   3.856   2.152   6.051
 5366SOL     OW16996   3.347   3.954   6.260
 5366SOL    HW116997   3.363   4.051   6.244
 5366SOL    HW216998   3.411   3.900   6.204
 5367SOL     OW16999   0.384   4.511   0.930
 5367SOL    HW117000   0.341   4.450   0.996
 5367SOL    HW217001   0.454   4.566   0.976
 5368SOL     OW17002   0.306   0.761   3.858
 5368SOL    HW117003   0.342   0.714   3.777
 5368SOL    HW217004   0.299   0.697   3.934
 5369SOL     OW17005   2.033   3.424   2.164
 5369SOL    HW117006   2.116   3.397   2.116
 5369SOL    HW217007   1.962   3.450   2.098
 5370SOL     OW17008   3.907   2.947   1.388
 5370SOL    HW117009   3.986   2.939   1.327
 5370SOL    HW217010   3.916   3.029   1.444
 5371SOL     OW17011   1.820   4.093   4.817
 5371SOL    HW117012   1.773   4.006   4.800
 5371SOL    HW217013   1.825   4.110   4.915
 5372SOL     OW17014   3.102   6.312   2.723
 5372SOL    HW117015   3.090   6.355   2.812
 5372SOL    HW217016   3.013   6.289   2.684
 5373SOL     OW17017   1.574   5.314   3.955
 5373SOL    HW117018   1.617   5.298   3.866
 5373SOL    HW217019   1.508   5.241   3.974
 5374SOL     OW17020   3.136   2.663   0.555
 5374SOL    HW117021   3.196   2.592   0.519
 5374SOL    HW217022   3.070   2.689   0.485
 5375SOL     OW17023   0.813   3.620   5.048
 5375SOL    HW117024   0.849   3.641   4.958
 5375SOL    HW217025   0.755   3.539   5.043
 5376SOL     OW17026   3.103   4.455   6.551
 5376SOL    HW117027   3.111   4.371   6.605
 5376SOL    HW217028   3.011   4.462   6.513
 5377SOL     OW17029   0.647   1.860   2.022
 5377SOL    HW117030   0.628   1.895   1.931
 5377SOL    HW217031   0.604   1.770   2.033
 5378SOL     OW17032   5.242   0.102   0.015
 5378SOL    HW117033   5.314   0.033   0.005
 5378SOL    HW217034   5.157   0.068   6.992
 5379SOL     OW17035   0.361   6.788   0.582
 5379SOL    HW117036   0.403   6.709   0.538
 5379SOL    HW217037   0.411   6.811   0.665
 5380SOL     OW17038   1.886   1.224   4.722
 5380SOL    HW117039   1.860   1.255   4.631
 5380SOL    HW217040   1.961   1.281   4.756
 5381SOL     OW17041   5.938   3.764   1.773
 5381SOL    HW117042   6.009   3.693   1.783
 5381SOL    HW217043   5.889   3.775   1.859
 5382SOL     OW17044   1.732   7.009   1.807
 5382SOL    HW117045   1.646   0.001   1.857
 5382SOL    HW217046   1.780   0.081   1.809
 5383SOL     OW17047   2.289   2.061   4.534
 5383SOL    HW117048   2.338   2.091   4.452
 5383SOL    HW217049   2.338   1.984   4.575
 5384SOL     OW17050   5.474   6.649   4.417
 5384SOL    HW117051   5.558   6.600   4.394
 5384SOL    HW217052   5.496   6.742   4.447
 5385SOL     OW17053   3.615   4.119   3.090
 5385SOL    HW117054   3.523   4.098   3.058
 5385SOL    HW217055   3.679   4.116   3.013
 5386SOL     OW17056   5.947   6.954   5.612
 5386SOL    HW117057   5.939   6.855   5.604
 5386SOL    HW217058   5.876   6.997   5.556
 5387SOL     OW17059   3.768   4.979   1.475
 5387SOL    HW117060   3.724   4.942   1.394
 5387SOL    HW217061   3.856   5.020   1.450
 5388SOL     OW17062   5.934   5.913   3.027
 5388SOL    HW117063   5.902   5.830   3.073
 5388SOL    HW217064   6.012   5.890   2.969
 5389SOL     OW17065   5.835   2.964   1.189
 5389SOL    HW117066   5.738   2.943   1.175
 5389SOL    HW217067   5.858   3.046   1.136
 5390SOL     OW17068   6.104   5.080   6.145
 5390SOL    HW117069   6.079   5.033   6.230
 5390SOL    HW217070   6.135   5.173   6.166
 5391SOL     OW17071   3.454   3.717   6.858
 5391SOL    HW117072   3.425   3.680   6.770
 5391SOL    HW217073   3.457   3.817   6.852
 5392SOL     OW17074   0.192   2.735   2.541
 5392SOL    HW117075   0.211   2.642   2.571
 5392SOL    HW217076   0.097   2.759   2.563
 5393SOL     OW17077   6.494   6.884   6.022
 5393SOL    HW117078   6.478   6.901   6.119
 5393SOL    HW217079   6.455   6.959   5.968
 5394SOL     OW17080   2.154   3.695   5.957
 5394SOL    HW117081   2.187   3.686   6.051
 5394SOL    HW217082   2.223   3.742   5.902
 5395SOL     OW17083   4.488   0.432   1.389
 5395SOL    HW117084   4.509   0.350   1.336
 5395SOL    HW217085   4.464   0.507   1.328
 5396SOL     OW17086   4.521   2.621   1.552
 5396SOL    HW117087   4.485   2.610   1.645
 5396SOL    HW217088   4.537   2.531   1.512
 5397SOL     OW17089   1.137   2.426   1.676
 5397SOL    HW117090   1.234   2.452   1.675
 5397SOL    HW217091   1.119   2.369   1.756
 5398SOL     OW17092   3.239   3.011   2.469
 5398SOL    HW117093   3.338   3.001   2.473
 5398SOL    HW217094   3.206   2.978   2.380
 5399SOL     OW17095   0.849   5.309   6.950
 5399SOL    HW117096   0.936   5.329   6.905
 5399SOL    HW217097   0.804   5.395   6.976
 5400SOL     OW17098   2.150   3.283   6.828
 5400SOL    HW117099   2.055   3.312   6.838
 5400SOL    HW217100   2.154   3.195   6.781
 5401SOL     OW17101   6.521   1.895   0.608
 5401SOL    HW117102   6.468   1.962   0.659
 5401SOL    HW217103   6.528   1.811   0.662
 5402SOL     OW17104   1.187   5.920   2.184
 5402SOL    HW117105   1.212   5.853   2.116
 5402SOL    HW217106   1.265   5.938   2.245
 5403SOL     OW17107   5.983   2.778   6.837
 5403SOL    HW117108   6.079   2.756   6.854
 5403SOL    HW217109   5.972   2.810   6.743
 5404SOL     OW17110   1.256   3.039   3.333
 5404SOL    HW117111   1.303   3.127   3.333
 5404SOL    HW217112   1.316   2.969   3.371
 5405SOL     OW17113   0.197   4.421   5.272
 5405SOL    HW117114   0.216   4.502   5.217
 5405SOL    HW217115   0.098   4.403   5.272
 5406SOL     OW17116   1.408   6.844   4.091
 5406SOL    HW117117   1.396   6.747   4.114
 5406SOL    HW217118   1.421   6.853   3.992
 5407SOL     OW17119   4.208   3.402   6.784
 5407SOL    HW117120   4.229   3.306   6.770
 5407SOL    HW217121   4.278   3.458   6.739
 5408SOL     OW17122   3.414   1.180   6.861
 5408SOL    HW117123   3.496   1.166   6.917
 5408SOL    HW217124   3.346   1.110   6.882
 5409SOL     OW17125   4.927   0.728   2.006
 5409SOL    HW117126   4.845   0.765   1.962
 5409SOL    HW217127   4.903   0.649   2.062
 5410SOL     OW17128   1.445   2.842   3.397
 5410SOL    HW117129   1.487   2.819   3.309
 5410SOL    HW217130   1.388   2.765   3.428
 5411SOL     OW17131   2.197   4.630   4.595
 5411SOL    HW117132   2.257   4.555   4.622
 5411SOL    HW217133   2.158   4.672   4.677
 5412SOL     OW17134   6.104   2.223   2.189
 5412SOL    HW117135   6.191   2.178   2.208
 5412SOL    HW217136   6.096   2.241   2.091
 5413SOL     OW17137   1.667   6.659   2.573
 5413SOL    HW117138   1.588   6.642   2.513
 5413SOL    HW217139   1.727   6.727   2.530
 5414SOL     OW17140   3.835   0.331   5.767
 5414SOL    HW117141   3.843   0.234   5.788
 5414SOL    HW217142   3.877   0.385   5.841
 5415SOL     OW17143   6.351   3.676   2.605
 5415SOL    HW117144   6.299   3.595   2.632
 5415SOL    HW217145   6.365   3.735   2.684
 5416SOL     OW17146   4.000   5.310   4.224
 5416SOL    HW117147   3.940   5.260   4.162
 5416SOL    HW217148   3.985   5.278   4.318
 5417SOL     OW17149   3.114   0.055   5.815
 5417SOL    HW117150   3.088   0.005   5.897
 5417SOL    HW217151   3.042   0.121   5.792
 5418SOL     OW17152   3.848   1.314   3.572
 5418SOL    HW117153   3.837   1.236   3.510
 5418SOL    HW217154   3.841   1.283   3.667
 5419SOL     OW17155   3.260   3.924   0.071
 5419SOL    HW117156   3.234   3.831   0.044
 5419SOL    HW217157   3.324   3.961   0.005
 5420SOL     OW17158   0.966   2.290   3.138
 5420SOL    HW117159   1.023   2.275   3.219
 5420SOL    HW217160   0.955   2.388   3.123
 5421SOL     OW17161   1.940   2.397   0.525
 5421SOL    HW117162   1.904   2.319   0.576
 5421SOL    HW217163   2.019   2.436   0.573
 5422SOL     OW17164   0.771   3.751   0.260
 5422SOL    HW117165   0.817   3.664   0.241
 5422SOL    HW217166   0.801   3.820   0.194
 5423SOL     OW17167   5.043   3.160   5.468
 5423SOL    HW117168   5.141   3.148   5.482
 5423SOL    HW217169   5.001   3.072   5.448
 5424SOL     OW17170   5.396   3.390   5.491
 5424SOL    HW117171   5.323   3.457   5.495
 5424SOL    HW217172   5.478   3.427   5.536
 5425SOL     OW17173   5.004   1.054   4.793
 5425SOL    HW117174   5.094   1.035   4.753
 5425SOL    HW217175   4.965   1.135   4.751
 5426SOL     OW17176   0.601   6.889   4.862
 5426SOL    HW117177   0.646   6.976   4.881
 5426SOL    HW217178   0.585   6.840   4.948
 5427SOL     OW17179   4.297   6.920   6.967
 5427SOL    HW117180   4.235   6.846   6.990
 5427SOL    HW217181   4.273   6.957   6.877
 5428SOL     OW17182   1.812   1.197   6.918
 5428SOL    HW117183   1.894   1.179   6.862
 5428SOL    HW217184   1.776   1.288   6.897
 5429SOL     OW17185   0.822   2.406   6.106
 5429SOL    HW117186   0.839   2.312   6.074
 5429SOL    HW217187   0.760   2.404   6.184
 5430SOL     OW17188   2.085   2.908   5.666
 5430SOL    HW117189   2.076   2.879   5.571
 5430SOL    HW217190   2.038   2.995   5.679
 5431SOL     OW17191   3.860   5.785   4.749
 5431SOL    HW117192   3.760   5.776   4.749
 5431SOL    HW217193   3.887   5.862   4.692
 5432SOL     OW17194   5.559   5.374   1.251
 5432SOL    HW117195   5.549   5.453   1.191
 5432SOL    HW217196   5.512   5.391   1.337
 5433SOL     OW17197   0.499   1.744   4.056
 5433SOL    HW117198   0.400   1.757   4.050
 5433SOL    HW217199   0.527   1.672   3.993
 5434SOL     OW17200   2.564   6.855   4.950
 5434SOL    HW117201   2.535   6.776   5.004
 5434SOL    HW217202   2.538   6.842   4.855
 5435SOL     OW17203   5.059   1.552   1.717
 5435SOL    HW117204   5.037   1.649   1.719
 5435SOL    HW217205   4.993   1.505   1.658
 5436SOL     OW17206   5.320   3.708   2.784
 5436SOL    HW117207   5.344   3.648   2.861
 5436SOL    HW217208   5.317   3.803   2.816
 5437SOL     OW17209   3.717   4.842   6.325
 5437SOL    HW117210   3.787   4.809   6.262
 5437SOL    HW217211   3.674   4.763   6.370
 5438SOL     OW17212   6.820   0.796   1.079
 5438SOL    HW117213   6.804   0.878   1.134
 5438SOL    HW217214   6.766   0.720   1.115
 5439SOL     OW17215   1.447   3.107   0.636
 5439SOL    HW117216   1.446   3.093   0.537
 5439SOL    HW217217   1.356   3.137   0.666
 5440SOL     OW17218   1.961   1.287   1.441
 5440SOL    HW117219   1.960   1.188   1.457
 5440SOL    HW217220   1.960   1.335   1.529
 5441SOL     OW17221   3.715   1.737   4.238
 5441SOL    HW117222   3.713   1.827   4.281
 5441SOL    HW217223   3.683   1.744   4.143
 5442SOL     OW17224   3.291   0.796   2.062
 5442SOL    HW117225   3.339   0.862   2.120
 5442SOL    HW217226   3.222   0.844   2.008
 5443SOL     OW17227   1.957   6.610   5.999
 5443SOL    HW117228   2.023   6.551   5.953
 5443SOL    HW217229   1.946   6.695   5.947
 5444SOL     OW17230   0.487   1.250   3.324
 5444SOL    HW117231   0.514   1.171   3.379
 5444SOL    HW217232   0.408   1.295   3.366
 5445SOL     OW17233   6.190   3.278   2.162
 5445SOL    HW117234   6.132   3.282   2.080
 5445SOL    HW217235   6.139   3.312   2.241
 5446SOL     OW17236   6.495   5.832   5.992
 5446SOL    HW117237   6.573   5.867   5.940
 5446SOL    HW217238   6.504   5.861   6.088
 5447SOL     OW17239   3.064   2.337   1.114
 5447SOL    HW117240   3.043   2.366   1.021
 5447SOL    HW217241   3.008   2.389   1.179
 5448SOL     OW17242   5.691   1.749   6.446
 5448SOL    HW117243   5.756   1.815   6.483
 5448SOL    HW217244   5.737   1.690   6.379
 5449SOL     OW17245   0.271   2.793   6.549
 5449SOL    HW117246   0.275   2.876   6.493
 5449SOL    HW217247   0.192   2.738   6.521
 5450SOL     OW17248   2.327   5.994   0.796
 5450SOL    HW117249   2.382   6.077   0.807
 5450SOL    HW217250   2.319   5.948   0.885
 5451SOL     OW17251   2.286   0.554   2.810
 5451SOL    HW117252   2.202   0.592   2.772
 5451SOL    HW217253   2.362   0.615   2.791
 5452SOL     OW17254   2.383   3.785   5.820
 5452SOL    HW117255   2.430   3.862   5.863
 5452SOL    HW217256   2.385   3.795   5.721
 5453SOL     OW17257   0.597   5.177   5.896
 5453SOL    HW117258   0.646   5.130   5.969
 5453SOL    HW217259   0.564   5.265   5.930
 5454SOL     OW17260   0.736   3.873   5.105
 5454SOL    HW117261   0.639   3.896   5.118
 5454SOL    HW217262   0.746   3.774   5.099
 5455SOL     OW17263   6.610   2.337   0.589
 5455SOL    HW117264   6.535   2.403   0.602
 5455SOL    HW217265   6.638   2.300   0.677
 5456SOL     OW17266   3.504   6.820   1.572
 5456SOL    HW117267   3.540   6.908   1.543
 5456SOL    HW217268   3.578   6.752   1.573
 5457SOL     OW17269   6.408   3.798   0.808
 5457SOL    HW117270   6.339   3.796   0.736
 5457SOL    HW217271   6.463   3.882   0.800
 5458SOL     OW17272   1.545   4.305   5.786
 5458SOL    HW117273   1.640   4.295   5.816
 5458SOL    HW217274   1.536   4.273   5.692
 5459SOL     OW17275   2.442   4.232   5.947
 5459SOL    HW117276   2.343   4.245   5.948
 5459SOL    HW217277   2.462   4.134   5.938
 5460SOL     OW17278   3.961   0.026   4.006
 5460SOL    HW117279   4.045   0.071   4.037
 5460SOL    HW217280   3.934   0.064   3.917
 5461SOL     OW17281   4.618   0.067   4.929
 5461SOL    HW117282   4.649   0.056   5.024
 5461SOL    HW217283   4.686   0.119   4.878
 5462SOL     OW17284   0.206   0.566   1.099
 5462SOL    HW117285   0.189   0.575   1.197
 5462SOL    HW217286   0.171   0.647   1.052
 5463SOL     OW17287   0.005   3.275   0.915
 5463SOL    HW117288   0.001   3.178   0.892
 5463SOL    HW217289   0.099   3.307   0.910
 5464SOL     OW17290   1.557   6.165   4.588
 5464SOL    HW117291   1.587   6.130   4.676
 5464SOL    HW217292   1.458   6.176   4.587
 5465SOL     OW17293   2.895   5.669   6.711
 5465SOL    HW117294   2.875   5.752   6.763
 5465SOL    HW217295   2.853   5.590   6.756
 5466SOL     OW17296   5.533   5.594   4.591
 5466SOL    HW117297   5.461   5.643   4.542
 5466SOL    HW217298   5.496   5.509   4.629
 5467SOL     OW17299   5.877   1.305   2.047
 5467SOL    HW117300   5.853   1.351   1.961
 5467SOL    HW217301   5.894   1.373   2.118
 5468SOL     OW17302   4.348   1.040   6.354
 5468SOL    HW117303   4.444   1.054   6.330
 5468SOL    HW217304   4.301   1.128   6.357
 5469SOL     OW17305   4.860   4.546   1.824
 5469SOL    HW117306   4.831   4.450   1.821
 5469SOL    HW217307   4.957   4.551   1.848
 5470SOL     OW17308   0.671   4.750   3.416
 5470SOL    HW117309   0.697   4.760   3.320
 5470SOL    HW217310   0.726   4.678   3.458
 5471SOL     OW17311   6.173   4.305   2.221
 5471SOL    HW117312   6.211   4.379   2.165
 5471SOL    HW217313   6.130   4.343   2.303
 5472SOL     OW17314   3.663   5.132   5.008
 5472SOL    HW117315   3.733   5.191   5.049
 5472SOL    HW217316   3.696   5.099   4.919
 5473SOL     OW17317   1.394   4.283   3.633
 5473SOL    HW117318   1.345   4.360   3.673
 5473SOL    HW217319   1.440   4.314   3.549
 5474SOL     OW17320   1.480   6.035   3.079
 5474SOL    HW117321   1.516   6.012   2.988
 5474SOL    HW217322   1.542   5.999   3.149
 5475SOL     OW17323   3.322   2.990   1.761
 5475SOL    HW117324   3.232   2.960   1.730
 5475SOL    HW217325   3.342   2.949   1.849
 5476SOL     OW17326   1.849   3.235   6.890
 5476SOL    HW117327   1.924   3.178   6.924
 5476SOL    HW217328   1.779   3.245   6.961
 5477SOL     OW17329   2.275   2.263   2.526
 5477SOL    HW117330   2.320   2.328   2.465
 5477SOL    HW217331   2.305   2.170   2.505
 5478SOL     OW17332   0.083   5.379   5.654
 5478SOL    HW117333   0.107   5.300   5.598
 5478SOL    HW217334   7.002   5.402   5.638
 5479SOL     OW17335   4.682   6.839   5.353
 5479SOL    HW117336   4.771   6.799   5.329
 5479SOL    HW217337   4.678   6.855   5.451
 5480SOL     OW17338   0.621   2.440   5.578
 5480SOL    HW117339   0.529   2.402   5.575
 5480SOL    HW217340   0.615   2.540   5.585
 5481SOL     OW17341   4.228   6.523   3.780
 5481SOL    HW117342   4.296   6.560   3.843
 5481SOL    HW217343   4.238   6.566   3.691
 5482SOL     OW17344   1.683   6.024   1.821
 5482SOL    HW117345   1.680   5.952   1.751
 5482SOL    HW217346   1.614   6.006   1.891
 5483SOL     OW17347   0.886   2.244   6.372
 5483SOL    HW117348   0.863   2.178   6.301
 5483SOL    HW217349   0.875   2.200   6.462
 5484SOL     OW17350   5.442   0.335   4.796
 5484SOL    HW117351   5.373   0.320   4.867
 5484SOL    HW217352   5.533   0.336   4.837
 5485SOL     OW17353   3.595   0.436   4.406
 5485SOL    HW117354   3.682   0.479   4.384
 5485SOL    HW217355   3.606   0.378   4.487
 5486SOL     OW17356   3.411   5.052   3.717
 5486SOL    HW117357   3.431   5.150   3.723
 5486SOL    HW217358   3.356   5.024   3.795
 5487SOL     OW17359   2.947   5.755   5.349
 5487SOL    HW117360   3.000   5.708   5.420
 5487SOL    HW217361   3.007   5.817   5.299
 5488SOL     OW17362   4.963   1.997   6.645
 5488SOL    HW117363   4.986   2.049   6.563
 5488SOL    HW217364   4.943   2.060   6.720
 5489SOL     OW17365   0.280   2.480   4.105
 5489SOL    HW117366   0.368   2.521   4.081
 5489SOL    HW217367   0.256   2.413   4.035
 5490SOL     OW17368   0.748   4.882   2.021
 5490SOL    HW117369   0.819   4.812   2.017
 5490SOL    HW217370   0.658   4.838   2.022
 5491SOL     OW17371   6.014   4.232   0.846
 5491SOL    HW117372   6.007   4.250   0.748
 5491SOL    HW217373   6.035   4.135   0.860
 5492SOL     OW17374   0.537   1.956   6.596
 5492SOL    HW117375   0.518   2.047   6.560
 5492SOL    HW217376   0.523   1.889   6.523
 5493SOL     OW17377   4.190   4.176   6.995
 5493SOL    HW117378   4.179   4.126   6.909
 5493SOL    HW217379   4.177   4.274   6.978
 5494SOL     OW17380   5.782   2.407   5.419
 5494SOL    HW117381   5.740   2.320   5.444
 5494SOL    HW217382   5.713   2.479   5.419
 5495SOL     OW17383   6.148   0.569   0.386
 5495SOL    HW117384   6.083   0.526   0.449
 5495SOL    HW217385   6.193   0.645   0.432
 5496SOL     OW17386   3.996   6.539   6.155
 5496SOL    HW117387   4.010   6.597   6.075
 5496SOL    HW217388   4.084   6.499   6.183
 5497SOL     OW17389   0.712   0.551   5.580
 5497SOL    HW117390   0.681   0.645   5.594
 5497SOL    HW217391   0.804   0.540   5.617
 5498SOL     OW17392   0.786   5.504   1.364
 5498SOL    HW117393   0.761   5.579   1.302
 5498SOL    HW217394   0.725   5.426   1.349
 5499SOL     OW17395   2.314   0.390   3.632
 5499SOL    HW117396   2.291   0.429   3.721
 5499SOL    HW217397   2.237   0.399   3.570
 5500SOL     OW17398   1.904   6.443   1.451
 5500SOL    HW117399   1.847   6.524   1.462
 5500SOL    HW217400   1.853   6.361   1.476
 5501SOL     OW17401   5.111   3.286   0.288
 5501SOL    HW117402   5.057   3.347   0.347
 5501SOL    HW217403   5.128   3.200   0.336
 5502SOL     OW17404   4.538   3.223   6.756
 5502SOL    HW117405   4.483   3.156   6.706
 5502SOL    HW217406   4.479   3.273   6.820
 5503SOL     OW17407   5.829   3.580   1.046
 5503SOL    HW117408   5.875   3.496   1.018
 5503SOL    HW217409   5.746   3.593   0.991
 5504SOL     OW17410   3.082   2.069   0.102
 5504SOL    HW117411   3.154   2.000   0.099
 5504SOL    HW217412   3.014   2.049   0.031
 5505SOL     OW17413   2.639   5.129   2.147
 5505SOL    HW117414   2.557   5.072   2.138
 5505SOL    HW217415   2.716   5.085   2.101
 5506SOL     OW17416   6.331   2.511   5.897
 5506SOL    HW117417   6.266   2.456   5.951
 5506SOL    HW217418   6.398   2.450   5.854
 5507SOL     OW17419   3.949   6.670   0.436
 5507SOL    HW117420   4.017   6.741   0.419
 5507SOL    HW217421   3.991   6.580   0.426
 5508SOL     OW17422   6.887   1.550   6.428
 5508SOL    HW117423   6.874   1.594   6.517
 5508SOL    HW217424   6.923   1.617   6.363
 5509SOL     OW17425   6.312   3.984   0.121
 5509SOL    HW117426   6.232   3.985   0.062
 5509SOL    HW217427   6.379   3.920   0.085
 5510SOL     OW17428   5.301   6.030   6.935
 5510SOL    HW117429   5.259   6.002   6.848
 5510SOL    HW217430   5.375   5.968   6.959
 5511SOL     OW17431   0.884   2.565   6.395
 5511SOL    HW117432   0.802   2.508   6.391
 5511SOL    HW217433   0.943   2.545   6.317
 5512SOL     OW17434   2.559   6.813   2.470
 5512SOL    HW117435   2.596   6.730   2.513
 5512SOL    HW217436   2.595   6.821   2.377
 5513SOL     OW17437   3.810   4.198   6.587
 5513SOL    HW117438   3.890   4.213   6.645
 5513SOL    HW217439   3.799   4.276   6.525
 5514SOL     OW17440   3.489   1.200   0.802
 5514SOL    HW117441   3.396   1.235   0.789
 5514SOL    HW217442   3.484   1.104   0.830
 5515SOL     OW17443   3.655   5.129   2.568
 5515SOL    HW117444   3.633   5.183   2.486
 5515SOL    HW217445   3.607   5.042   2.564
 5516SOL     OW17446   1.196   2.330   5.966
 5516SOL    HW117447   1.148   2.417   5.962
 5516SOL    HW217448   1.173   2.276   5.885
 5517SOL     OW17449   0.804   1.965   3.834
 5517SOL    HW117450   0.848   1.885   3.792
 5517SOL    HW217451   0.723   1.936   3.884
 5518SOL     OW17452   4.518   4.511   5.731
 5518SOL    HW117453   4.519   4.412   5.716
 5518SOL    HW217454   4.444   4.534   5.794
 5519SOL     OW17455   5.313   2.429   5.896
 5519SOL    HW117456   5.368   2.512   5.908
 5519SOL    HW217457   5.218   2.455   5.880
 5520SOL     OW17458   5.029   6.038   1.334
 5520SOL    HW117459   4.941   5.992   1.352
 5520SOL    HW217460   5.013   6.135   1.316
 5521SOL     OW17461   4.189   0.168   2.193
 5521SOL    HW117462   4.122   0.150   2.122
 5521SOL    HW217463   4.158   0.129   2.279
 5522SOL     OW17464   5.045   6.448   0.278
 5522SOL    HW117465   5.080   6.384   0.209
 5522SOL    HW217466   4.946   6.455   0.269
 5523SOL     OW17467   5.224   2.148   0.456
 5523SOL    HW117468   5.267   2.175   0.369
 5523SOL    HW217469   5.126   2.166   0.451
 5524SOL     OW17470   2.562   1.525   3.175
 5524SOL    HW117471   2.546   1.619   3.204
 5524SOL    HW217472   2.584   1.523   3.077
 5525SOL     OW17473   6.960   1.590   1.313
 5525SOL    HW117474   7.004   1.559   1.229
 5525SOL    HW217475   0.006   1.653   1.361
 5526SOL     OW17476   5.112   4.281   4.462
 5526SOL    HW117477   5.022   4.321   4.444
 5526SOL    HW217478   5.176   4.353   4.488
 5527SOL     OW17479   6.458   0.233   2.606
 5527SOL    HW117480   6.376   0.213   2.553
 5527SOL    HW217481   6.465   0.332   2.621
 5528SOL     OW17482   1.171   1.555   0.150
 5528SOL    HW117483   1.097   1.530   0.087
 5528SOL    HW217484   1.170   1.653   0.166
 5529SOL     OW17485   3.549   0.309   1.718
 5529SOL    HW117486   3.565   0.403   1.686
 5529SOL    HW217487   3.567   0.304   1.816
 5530SOL     OW17488   0.799   1.567   1.465
 5530SOL    HW117489   0.787   1.535   1.371
 5530SOL    HW217490   0.881   1.623   1.472
 5531SOL     OW17491   1.386   4.540   0.245
 5531SOL    HW117492   1.448   4.497   0.310
 5531SOL    HW217493   1.437   4.601   0.184
 5532SOL     OW17494   6.964   4.315   6.245
 5532SOL    HW117495   6.969   4.400   6.194
 5532SOL    HW217496   7.011   4.325   6.333
 5533SOL     OW17497   3.522   0.774   3.017
 5533SOL    HW117498   3.437   0.804   3.062
 5533SOL    HW217499   3.546   0.840   2.945
 5534SOL     OW17500   1.701   0.243   4.404
 5534SOL    HW117501   1.661   0.328   4.368
 5534SOL    HW217502   1.716   0.254   4.503
 5535SOL     OW17503   0.471   1.894   2.404
 5535SOL    HW117504   0.480   1.837   2.486
 5535SOL    HW217505   0.374   1.904   2.382
 5536SOL     OW17506   4.718   0.017   4.596
 5536SOL    HW117507   4.728   0.072   4.679
 5536SOL    HW217508   4.804   6.987   4.575
 5537SOL     OW17509   2.497   2.526   2.999
 5537SOL    HW117510   2.485   2.581   2.916
 5537SOL    HW217511   2.471   2.580   3.079
 5538SOL     OW17512   4.442   5.724   4.059
 5538SOL    HW117513   4.405   5.756   4.146
 5538SOL    HW217514   4.542   5.716   4.067
 5539SOL     OW17515   2.398   4.275   0.086
 5539SOL    HW117516   2.474   4.216   0.059
 5539SOL    HW217517   2.344   4.299   0.006
 5540SOL     OW17518   3.608   5.425   1.118
 5540SOL    HW117519   3.668   5.383   1.050
 5540SOL    HW217520   3.604   5.523   1.102
 5541SOL     OW17521   4.652   0.563   6.351
 5541SOL    HW117522   4.689   0.474   6.325
 5541SOL    HW217523   4.724   0.618   6.393
 5542SOL     OW17524   5.578   4.716   6.241
 5542SOL    HW117525   5.520   4.653   6.190
 5542SOL    HW217526   5.553   4.714   6.338
 5543SOL     OW17527   0.382   2.036   5.074
 5543SOL    HW117528   0.398   1.990   5.161
 5543SOL    HW217529   0.361   2.132   5.090
 5544SOL     OW17530   5.608   0.576   6.910
 5544SOL    HW117531   5.511   0.558   6.893
 5544SOL    HW217532   5.622   0.675   6.921
 5545SOL     OW17533   2.375   2.132   2.073
 5545SOL    HW117534   2.312   2.209   2.062
 5545SOL    HW217535   2.377   2.105   2.169
 5546SOL     OW17536   4.014   5.554   5.153
 5546SOL    HW117537   4.112   5.559   5.172
 5546SOL    HW217538   3.989   5.628   5.090
 5547SOL     OW17539   3.203   5.332   3.688
 5547SOL    HW117540   3.292   5.324   3.734
 5547SOL    HW217541   3.204   5.279   3.604
 5548SOL     OW17542   0.058   1.986   4.655
 5548SOL    HW117543   0.122   1.940   4.717
 5548SOL    HW217544   6.995   2.018   4.708
 5549SOL     OW17545   3.646   5.278   6.332
 5549SOL    HW117546   3.644   5.378   6.337
 5549SOL    HW217547   3.690   5.249   6.247
 5550SOL     OW17548   2.635   6.326   2.864
 5550SOL    HW117549   2.688   6.411   2.859
 5550SOL    HW217550   2.602   6.312   2.957
 5551SOL     OW17551   0.812   1.167   2.290
 5551SOL    HW117552   0.775   1.075   2.280
 5551SOL    HW217553   0.737   1.232   2.301
 5552SOL     OW17554   2.157   2.395   2.756
 5552SOL    HW117555   2.214   2.474   2.776
 5552SOL    HW217556   2.205   2.333   2.694
 5553SOL     OW17557   4.819   6.224   6.293
 5553SOL    HW117558   4.889   6.173   6.242
 5553SOL    HW217559   4.776   6.164   6.360
 5554SOL     OW17560   3.505   0.579   4.714
 5554SOL    HW117561   3.598   0.611   4.733
 5554SOL    HW217562   3.491   0.488   4.754
 5555SOL     OW17563   0.935   6.186   1.446
 5555SOL    HW117564   0.883   6.112   1.404
 5555SOL    HW217565   1.020   6.150   1.483
 5556SOL     OW17566   0.050   1.180   5.257
 5556SOL    HW117567   6.967   1.180   5.278
 5556SOL    HW217568   0.063   1.162   5.160
 5557SOL     OW17569   3.519   0.715   1.948
 5557SOL    HW117570   3.573   0.799   1.939
 5557SOL    HW217571   3.431   0.736   1.992
 5558SOL     OW17572   5.099   2.603   5.855
 5558SOL    HW117573   5.004   2.582   5.830
 5558SOL    HW217574   5.102   2.640   5.948
 5559SOL     OW17575   2.835   0.437   0.883
 5559SOL    HW117576   2.909   0.502   0.864
 5559SOL    HW217577   2.781   0.469   0.961
 5560SOL     OW17578   0.074   1.423   4.848
 5560SOL    HW117579   0.129   1.357   4.899
 5560SOL    HW217580   0.132   1.476   4.787
 5561SOL     OW17581   1.828   4.468   2.040
 5561SOL    HW117582   1.811   4.369   2.035
 5561SOL    HW217583   1.927   4.484   2.041
 5562SOL     OW17584   3.690   2.195   0.149
 5562SOL    HW117585   3.640   2.240   0.223
 5562SOL    HW217586   3.626   2.165   0.078
 5563SOL     OW17587   3.901   4.571   1.174
 5563SOL    HW117588   3.817   4.573   1.119
 5563SOL    HW217589   3.877   4.577   1.271
 5564SOL     OW17590   6.028   1.422   2.537
 5564SOL    HW117591   5.968   1.442   2.615
 5564SOL    HW217592   6.073   1.334   2.552
 5565SOL     OW17593   1.474   3.130   5.819
 5565SOL    HW117594   1.455   3.037   5.851
 5565SOL    HW217595   1.487   3.129   5.720
 5566SOL     OW17596   2.553   4.309   0.529
 5566SOL    HW117597   2.509   4.374   0.467
 5566SOL    HW217598   2.650   4.331   0.536
 5567SOL     OW17599   1.464   5.397   3.217
 5567SOL    HW117600   1.530   5.328   3.183
 5567SOL    HW217601   1.435   5.372   3.309
 5568SOL     OW17602   3.723   2.765   0.109
 5568SOL    HW117603   3.736   2.846   0.051
 5568SOL    HW217604   3.812   2.739   0.148
 5569SOL     OW17605   4.798   1.747   6.643
 5569SOL    HW117606   4.894   1.769   6.659
 5569SOL    HW217607   4.740   1.804   6.702
 5570SOL     OW17608   1.436   2.379   6.078
 5570SOL    HW117609   1.438   2.405   6.175
 5570SOL    HW217610   1.343   2.390   6.043
 5571SOL     OW17611   0.450   4.551   6.090
 5571SOL    HW117612   0.505   4.611   6.148
 5571SOL    HW217613   0.479   4.561   5.995
 5572SOL     OW17614   0.823   2.913   6.172
 5572SOL    HW117615   0.839   2.877   6.080
 5572SOL    HW217616   0.799   3.010   6.165
 5573SOL     OW17617   6.798   3.495   6.231
 5573SOL    HW117618   6.751   3.580   6.254
 5573SOL    HW217619   6.735   3.432   6.187
 5574SOL     OW17620   1.724   6.097   4.364
 5574SOL    HW117621   1.661   6.107   4.441
 5574SOL    HW217622   1.757   6.187   4.336
 5575SOL     OW17623   1.089   1.507   2.934
 5575SOL    HW117624   1.084   1.581   2.866
 5575SOL    HW217625   1.184   1.499   2.967
 5576SOL     OW17626   5.124   6.821   5.935
 5576SOL    HW117627   5.068   6.902   5.922
 5576SOL    HW217628   5.069   6.739   5.917
 5577SOL     OW17629   1.260   4.523   4.913
 5577SOL    HW117630   1.166   4.546   4.938
 5577SOL    HW217631   1.259   4.448   4.846
 5578SOL     OW17632   4.114   1.975   6.232
 5578SOL    HW117633   4.062   2.050   6.192
 5578SOL    HW217634   4.148   2.002   6.322
 5579SOL     OW17635   4.939   4.383   2.660
 5579SOL    HW117636   4.947   4.342   2.751
 5579SOL    HW217637   4.854   4.435   2.654
 5580SOL     OW17638   6.043   1.503   1.674
 5580SOL    HW117639   6.066   1.467   1.584
 5580SOL    HW217640   6.122   1.494   1.735
 5581SOL     OW17641   2.931   3.253   0.843
 5581SOL    HW117642   2.969   3.202   0.921
 5581SOL    HW217643   2.968   3.346   0.844
 5582SOL     OW17644   2.966   3.294   3.764
 5582SOL    HW117645   3.020   3.217   3.730
 5582SOL    HW217646   2.973   3.370   3.699
 5583SOL     OW17647   3.892   0.567   0.111
 5583SOL    HW117648   3.923   0.636   0.177
 5583SOL    HW217649   3.869   0.611   0.025
 5584SOL     OW17650   4.974   3.087   4.090
 5584SOL    HW117651   4.947   3.089   3.994
 5584SOL    HW217652   5.048   3.153   4.105
 5585SOL     OW17653   0.368   0.548   3.672
 5585SOL    HW117654   0.353   0.455   3.705
 5585SOL    HW217655   0.422   0.544   3.588
 5586SOL     OW17656   1.706   0.597   6.787
 5586SOL    HW117657   1.759   0.675   6.820
 5586SOL    HW217658   1.724   0.517   6.845
 5587SOL     OW17659   3.781   6.016   3.283
 5587SOL    HW117660   3.865   5.982   3.242
 5587SOL    HW217661   3.792   6.021   3.383
 5588SOL     OW17662   4.891   6.268   6.904
 5588SOL    HW117663   4.806   6.242   6.859
 5588SOL    HW217664   4.877   6.270   7.003
 5589SOL     OW17665   1.603   3.196   7.003
 5589SOL    HW117666   1.534   3.130   0.020
 5589SOL    HW217667   1.622   3.263   0.059
 5590SOL     OW17668   6.524   0.374   3.431
 5590SOL    HW117669   6.519   0.382   3.331
 5590SOL    HW217670   6.619   0.357   3.458
 5591SOL     OW17671   5.424   1.102   6.623
 5591SOL    HW117672   5.474   1.181   6.659
 5591SOL    HW217673   5.337   1.133   6.584
 5592SOL     OW17674   1.453   3.191   3.044
 5592SOL    HW117675   1.498   3.141   2.970
 5592SOL    HW217676   1.505   3.179   3.128
 5593SOL     OW17677   2.117   3.645   5.097
 5593SOL    HW117678   2.165   3.561   5.071
 5593SOL    HW217679   2.112   3.706   5.018
 5594SOL     OW17680   2.866   1.344   5.849
 5594SOL    HW117681   2.925   1.395   5.786
 5594SOL    HW217682   2.913   1.262   5.880
 5595SOL     OW17683   6.778   3.303   6.932
 5595SOL    HW117684   6.718   3.333   6.859
 5595SOL    HW217685   6.864   3.268   6.893
 5596SOL     OW17686   4.861   3.738   4.577
 5596SOL    HW117687   4.818   3.648   4.569
 5596SOL    HW217688   4.859   3.767   4.672
 5597SOL     OW17689   0.361   1.525   6.646
 5597SOL    HW117690   0.262   1.518   6.654
 5597SOL    HW217691   0.404   1.503   6.734
 5598SOL     OW17692   6.610   6.969   3.438
 5598SOL    HW117693   6.670   6.952   3.360
 5598SOL    HW217694   6.641   0.035   3.486
 5599SOL     OW17695   5.274   3.300   3.272
 5599SOL    HW117696   5.265   3.259   3.363
 5599SOL    HW217697   5.190   3.350   3.249
 5600SOL     OW17698   1.795   3.419   1.977
 5600SOL    HW117699   1.703   3.452   1.960
 5600SOL    HW217700   1.797   3.319   1.970
 5601SOL     OW17701   5.662   2.594   6.214
 5601SOL    HW117702   5.579   2.540   6.201
 5601SOL    HW217703   5.646   2.663   6.285
 5602SOL     OW17704   5.836   1.400   2.839
 5602SOL    HW117705   5.891   1.338   2.897
 5602SOL    HW217706   5.780   1.458   2.898
 5603SOL     OW17707   3.469   1.638   6.007
 5603SOL    HW117708   3.380   1.607   6.042
 5603SOL    HW217709   3.458   1.676   5.916
 5604SOL     OW17710   1.290   4.750   3.494
 5604SOL    HW117711   1.356   4.724   3.565
 5604SOL    HW217712   1.277   4.673   3.431
 5605SOL     OW17713   3.207   6.307   4.735
 5605SOL    HW117714   3.297   6.281   4.698
 5605SOL    HW217715   3.154   6.352   4.664
 5606SOL     OW17716   4.431   3.803   1.249
 5606SOL    HW117717   4.350   3.806   1.307
 5606SOL    HW217718   4.498   3.739   1.288
 5607SOL     OW17719   1.239   2.090   2.612
 5607SOL    HW117720   1.175   2.152   2.568
 5607SOL    HW217721   1.330   2.102   2.572
 5608SOL     OW17722   6.543   6.618   3.784
 5608SOL    HW117723   6.452   6.585   3.811
 5608SOL    HW217724   6.610   6.544   3.795
 5609SOL     OW17725   6.678   1.286   0.520
 5609SOL    HW117726   6.767   1.309   0.481
 5609SOL    HW217727   6.608   1.290   0.449
 5610SOL     OW17728   5.439   6.355   6.529
 5610SOL    HW117729   5.474   6.373   6.437
 5610SOL    HW217730   5.514   6.330   6.590
 5611SOL     OW17731   6.574   3.898   1.277
 5611SOL    HW117732   6.519   3.936   1.202
 5611SOL    HW217733   6.659   3.951   1.285
 5612SOL     OW17734   4.842   2.524   1.349
 5612SOL    HW117735   4.933   2.497   1.320
 5612SOL    HW217736   4.826   2.491   1.442
 5613SOL     OW17737   6.913   5.227   5.208
 5613SOL    HW117738   6.880   5.185   5.292
 5613SOL    HW217739   6.996   5.180   5.177
 5614SOL     OW17740   5.797   2.550   4.534
 5614SOL    HW117741   5.732   2.616   4.572
 5614SOL    HW217742   5.842   2.500   4.609
 5615SOL     OW17743   0.667   3.533   2.441
 5615SOL    HW117744   0.650   3.437   2.464
 5615SOL    HW217745   0.684   3.542   2.343
 5616SOL     OW17746   1.809   3.167   1.448
 5616SOL    HW117747   1.863   3.172   1.532
 5616SOL    HW217748   1.863   3.203   1.372
 5617SOL     OW17749   0.496   5.114   5.163
 5617SOL    HW117750   0.587   5.075   5.149
 5617SOL    HW217751   0.472   5.107   5.260
 5618SOL     OW17752   5.047   1.046   2.976
 5618SOL    HW117753   4.960   1.010   3.009
 5618SOL    HW217754   5.077   0.994   2.896
 5619SOL     OW17755   3.277   4.135   4.186
 5619SOL    HW117756   3.225   4.221   4.178
 5619SOL    HW217757   3.282   4.091   4.097
 5620SOL     OW17758   4.469   4.962   5.463
 5620SOL    HW117759   4.424   4.882   5.503
 5620SOL    HW217760   4.523   5.008   5.534
 5621SOL     OW17761   0.897   3.229   6.754
 5621SOL    HW117762   0.875   3.322   6.724
 5621SOL    HW217763   0.827   3.198   6.819
 5622SOL     OW17764   5.884   5.602   3.024
 5622SOL    HW117765   5.852   5.508   3.037
 5622SOL    HW217766   5.899   5.619   2.927
 5623SOL     OW17767   4.678   4.933   3.162
 5623SOL    HW117768   4.613   4.993   3.209
 5623SOL    HW217769   4.727   4.985   3.092
 5624SOL     OW17770   4.759   4.087   3.813
 5624SOL    HW117771   4.830   4.158   3.817
 5624SOL    HW217772   4.795   4.002   3.852
 5625SOL     OW17773   3.649   6.939   6.327
 5625SOL    HW117774   3.700   6.856   6.352
 5625SOL    HW217775   3.559   6.938   6.371
 5626SOL     OW17776   2.132   4.341   5.638
 5626SOL    HW117777   2.213   4.396   5.617
 5626SOL    HW217778   2.056   4.402   5.660
 5627SOL     OW17779   1.194   5.420   1.033
 5627SOL    HW117780   1.285   5.446   1.003
 5627SOL    HW217781   1.141   5.387   0.954
 5628SOL     OW17782   0.933   2.609   0.482
 5628SOL    HW117783   0.863   2.665   0.437
 5628SOL    HW217784   1.017   2.663   0.493
 5629SOL     OW17785   0.237   3.449   4.180
 5629SOL    HW117786   0.198   3.421   4.268
 5629SOL    HW217787   0.317   3.392   4.160
 5630SOL     OW17788   1.113   4.447   0.000
 5630SOL    HW117789   1.137   4.418   0.093
 5630SOL    HW217790   1.160   4.533   6.994
 5631SOL     OW17791   3.507   0.523   2.904
 5631SOL    HW117792   3.488   0.616   2.937
 5631SOL    HW217793   3.448   0.458   2.952
 5632SOL     OW17794   3.279   0.039   6.590
 5632SOL    HW117795   3.224   0.094   6.528
 5632SOL    HW217796   3.255   0.060   6.685
 5633SOL     OW17797   1.563   5.568   4.996
 5633SOL    HW117798   1.520   5.496   4.940
 5633SOL    HW217799   1.643   5.530   5.043
 5634SOL     OW17800   2.574   0.117   2.008
 5634SOL    HW117801   2.532   0.193   1.958
 5634SOL    HW217802   2.577   0.036   1.950
 5635SOL     OW17803   3.893   0.189   2.063
 5635SOL    HW117804   3.937   0.143   1.986
 5635SOL    HW217805   3.942   0.274   2.083
 5636SOL     OW17806   5.149   0.614   4.488
 5636SOL    HW117807   5.158   0.657   4.398
 5636SOL    HW217808   5.117   0.520   4.476
 5637SOL     OW17809   5.753   6.977   5.338
 5637SOL    HW117810   5.691   6.909   5.375
 5637SOL    HW217811   5.743   0.048   5.388
 5638SOL     OW17812   1.065   5.358   6.823
 5638SOL    HW117813   1.068   5.453   6.792
 5638SOL    HW217814   1.147   5.337   6.877
 5639SOL     OW17815   3.098   6.952   1.827
 5639SOL    HW117816   3.148   6.956   1.741
 5639SOL    HW217817   3.137   0.003   1.891
 5640SOL     OW17818   3.734   6.567   3.979
 5640SOL    HW117819   3.738   6.667   3.983
 5640SOL    HW217820   3.824   6.531   3.953
 5641SOL     OW17821   6.670   5.028   3.325
 5641SOL    HW117822   6.764   5.062   3.318
 5641SOL    HW217823   6.608   5.105   3.343
 5642SOL     OW17824   2.545   1.728   6.417
 5642SOL    HW117825   2.645   1.719   6.409
 5642SOL    HW217826   2.512   1.793   6.348
 5643SOL     OW17827   5.011   3.050   3.228
 5643SOL    HW117828   4.951   3.128   3.249
 5643SOL    HW217829   5.093   3.055   3.284
 5644SOL     OW17830   3.286   0.655   6.077
 5644SOL    HW117831   3.372   0.698   6.047
 5644SOL    HW217832   3.292   0.635   6.175
 5645SOL     OW17833   6.285   6.322   3.946
 5645SOL    HW117834   6.274   6.239   3.892
 5645SOL    HW217835   6.239   6.398   3.900
 5646SOL     OW17836   6.814   0.670   2.478
 5646SOL    HW117837   6.881   0.598   2.499
 5646SOL    HW217838   6.737   0.664   2.541
 5647SOL     OW17839   5.921   3.664   6.182
 5647SOL    HW117840   5.876   3.746   6.219
 5647SOL    HW217841   5.910   3.663   6.083
 5648SOL     OW17842   1.696   1.776   3.915
 5648SOL    HW117843   1.748   1.855   3.947
 5648SOL    HW217844   1.759   1.710   3.873
 5649SOL     OW17845   6.813   0.581   4.180
 5649SOL    HW117846   6.771   0.671   4.173
 5649SOL    HW217847   6.820   0.555   4.276
 5650SOL     OW17848   6.091   4.930   5.013
 5650SOL    HW117849   6.065   4.860   5.080
 5650SOL    HW217850   6.067   5.020   5.049
 5651SOL     OW17851   6.266   0.457   2.326
 5651SOL    HW117852   6.355   0.501   2.338
 5651SOL    HW217853   6.194   0.523   2.344
 5652SOL     OW17854   4.837   4.432   0.034
 5652SOL    HW117855   4.765   4.454   0.100
 5652SOL    HW217856   4.795   4.408   6.962
 5653SOL     OW17857   2.170   6.170   6.947
 5653SOL    HW117858   2.206   6.230   0.003
 5653SOL    HW217859   2.204   6.199   6.858
 5654SOL     OW17860   2.288   6.866   0.491
 5654SOL    HW117861   2.330   6.924   0.421
 5654SOL    HW217862   2.270   6.921   0.573
 5655SOL     OW17863   6.259   5.544   2.586
 5655SOL    HW117864   6.325   5.487   2.536
 5655SOL    HW217865   6.255   5.515   2.681
 5656SOL     OW17866   3.313   4.903   5.982
 5656SOL    HW117867   3.314   4.908   6.082
 5656SOL    HW217868   3.406   4.887   5.949
 5657SOL     OW17869   4.672   5.572   2.123
 5657SOL    HW117870   4.592   5.524   2.086
 5657SOL    HW217871   4.755   5.525   2.093
 5658SOL     OW17872   4.585   6.304   6.127
 5658SOL    HW117873   4.496   6.287   6.170
 5658SOL    HW217874   4.658   6.272   6.188
 5659SOL     OW17875   3.382   3.928   2.214
 5659SOL    HW117876   3.335   3.930   2.302
 5659SOL    HW217877   3.475   3.962   2.225
 5660SOL     OW17878   6.730   5.683   1.550
 5660SOL    HW117879   6.695   5.725   1.634
 5660SOL    HW217880   6.713   5.744   1.473
 5661SOL     OW17881   6.473   6.079   4.440
 5661SOL    HW117882   6.457   6.015   4.515
 5661SOL    HW217883   6.569   6.076   4.413
 5662SOL     OW17884   1.416   4.067   4.406
 5662SOL    HW117885   1.334   4.124   4.413
 5662SOL    HW217886   1.443   4.036   4.497
 5663SOL     OW17887   2.288   3.651   0.689
 5663SOL    HW117888   2.330   3.609   0.769
 5663SOL    HW217889   2.247   3.738   0.715
 5664SOL     OW17890   6.389   6.531   1.574
 5664SOL    HW117891   6.313   6.492   1.522
 5664SOL    HW217892   6.354   6.576   1.656
 5665SOL     OW17893   1.976   0.902   5.570
 5665SOL    HW117894   1.969   0.966   5.648
 5665SOL    HW217895   2.037   0.941   5.501
 5666SOL     OW17896   5.486   5.896   6.434
 5666SOL    HW117897   5.449   5.934   6.519
 5666SOL    HW217898   5.585   5.884   6.444
 5667SOL     OW17899   5.413   4.367   2.529
 5667SOL    HW117900   5.413   4.323   2.438
 5667SOL    HW217901   5.319   4.392   2.553
 5668SOL     OW17902   6.336   2.207   6.809
 5668SOL    HW117903   6.322   2.300   6.844
 5668SOL    HW217904   6.353   2.145   6.885
 5669SOL     OW17905   6.737   2.489   4.822
 5669SOL    HW117906   6.779   2.547   4.753
 5669SOL    HW217907   6.757   2.525   4.913
 5670SOL     OW17908   1.559   3.010   1.919
 5670SOL    HW117909   1.512   3.005   2.007
 5670SOL    HW217910   1.512   3.076   1.860
 5671SOL     OW17911   1.185   0.658   5.721
 5671SOL    HW117912   1.122   0.582   5.710
 5671SOL    HW217913   1.277   0.623   5.743
 5672SOL     OW17914   4.138   4.473   5.642
 5672SOL    HW117915   4.118   4.377   5.660
 5672SOL    HW217916   4.148   4.487   5.543
 5673SOL     OW17917   1.735   6.780   1.676
 5673SOL    HW117918   1.744   6.866   1.726
 5673SOL    HW217919   1.764   6.705   1.735
 5674SOL     OW17920   0.855   3.037   0.916
 5674SOL    HW117921   0.909   2.982   0.853
 5674SOL    HW217922   0.899   3.040   1.006
 5675SOL     OW17923   4.455   1.011   5.864
 5675SOL    HW117924   4.450   1.111   5.856
 5675SOL    HW217925   4.368   0.971   5.838
 5676SOL     OW17926   2.088   6.445   2.465
 5676SOL    HW117927   2.113   6.408   2.376
 5676SOL    HW217928   2.093   6.373   2.534
 5677SOL     OW17929   6.579   6.997   2.611
 5677SOL    HW117930   6.678   6.993   2.593
 5677SOL    HW217931   6.551   0.077   2.617
 5678SOL     OW17932   1.333   5.180   3.027
 5678SOL    HW117933   1.324   5.139   2.936
 5678SOL    HW217934   1.379   5.268   3.019
 5679SOL     OW17935   3.771   5.842   5.432
 5679SOL    HW117936   3.746   5.909   5.362
 5679SOL    HW217937   3.858   5.869   5.473
 5680SOL     OW17938   2.106   6.733   6.539
 5680SOL    HW117939   2.079   6.787   6.459
 5680SOL    HW217940   2.051   6.761   6.618
 5681SOL     OW17941   2.811   3.565   7.010
 5681SOL    HW117942   2.808   3.550   6.912
 5681SOL    HW217943   2.793   3.479   0.043
 5682SOL     OW17944   1.865   3.815   4.548
 5682SOL    HW117945   1.935   3.748   4.521
 5682SOL    HW217946   1.794   3.769   4.601
 5683SOL     OW17947   4.286   2.944   5.428
 5683SOL    HW117948   4.237   2.976   5.508
 5683SOL    HW217949   4.351   2.872   5.454
 5684SOL     OW17950   3.272   4.080   3.358
 5684SOL    HW117951   3.267   4.107   3.454
 5684SOL    HW217952   3.363   4.043   3.337
 5685SOL     OW17953   0.311   6.414   1.291
 5685SOL    HW117954   0.221   6.414   1.336
 5685SOL    HW217955   0.376   6.363   1.346
 5686SOL     OW17956   3.079   4.745   6.460
 5686SOL    HW117957   3.099   4.665   6.517
 5686SOL    HW217958   3.081   4.828   6.516
 5687SOL     OW17959   4.658   6.087   6.464
 5687SOL    HW117960   4.619   6.161   6.518
 5687SOL    HW217961   4.590   6.015   6.451
 5688SOL     OW17962   5.304   1.682   2.476
 5688SOL    HW117963   5.391   1.658   2.520
 5688SOL    HW217964   5.233   1.687   2.546
 5689SOL     OW17965   3.688   3.073   5.552
 5689SOL    HW117966   3.593   3.094   5.530
 5689SOL    HW217967   3.712   2.983   5.514
 5690SOL     OW17968   3.655   0.519   3.209
 5690SOL    HW117969   3.626   0.583   3.138
 5690SOL    HW217970   3.576   0.466   3.240
 5691SOL     OW17971   3.471   0.357   4.149
 5691SOL    HW117972   3.511   0.372   4.239
 5691SOL    HW217973   3.387   0.410   4.141
 5692SOL     OW17974   5.753   2.859   6.987
 5692SOL    HW117975   5.672   2.901   6.946
 5692SOL    HW217976   5.819   2.836   6.915
 5693SOL     OW17977   5.175   2.946   1.866
 5693SOL    HW117978   5.188   3.004   1.785
 5693SOL    HW217979   5.243   2.873   1.865
 5694SOL     OW17980   1.398   2.278   4.770
 5694SOL    HW117981   1.319   2.271   4.831
 5694SOL    HW217982   1.481   2.293   4.823
 5695SOL     OW17983   1.811   3.749   3.228
 5695SOL    HW117984   1.786   3.715   3.319
 5695SOL    HW217985   1.908   3.771   3.227
 5696SOL     OW17986   3.486   1.686   6.502
 5696SOL    HW117987   3.563   1.655   6.446
 5696SOL    HW217988   3.406   1.630   6.483
 5697SOL     OW17989   6.733   3.709   0.441
 5697SOL    HW117990   6.765   3.728   0.533
 5697SOL    HW217991   6.633   3.713   0.439
 5698SOL     OW17992   1.542   4.089   3.749
 5698SOL    HW117993   1.512   4.170   3.698
 5698SOL    HW217994   1.599   4.032   3.689
 5699SOL     OW17995   0.754   2.219   5.006
 5699SOL    HW117996   0.758   2.119   5.005
 5699SOL    HW217997   0.667   2.249   4.968
 5700SOL     OW17998   1.222   4.726   4.643
 5700SOL    HW117999   1.140   4.677   4.614
 5700SOL    HW218000   1.234   4.715   4.742
 5701SOL     OW18001   4.860   2.919   3.032
 5701SOL    HW118002   4.820   2.976   2.959
 5701SOL    HW218003   4.924   2.974   3.085
 5702SOL     OW18004   3.518   0.199   0.207
 5702SOL    HW118005   3.586   0.267   0.179
 5702SOL    HW218006   3.565   0.121   0.248
 5703SOL     OW18007   5.057   4.255   2.303
 5703SOL    HW118008   4.968   4.213   2.283
 5703SOL    HW218009   5.098   4.209   2.382
 5704SOL     OW18010   5.188   4.710   3.372
 5704SOL    HW118011   5.269   4.723   3.315
 5704SOL    HW218012   5.217   4.684   3.464
 5705SOL     OW18013   6.736   0.991   3.983
 5705SOL    HW118014   6.709   1.077   4.025
 5705SOL    HW218015   6.655   0.940   3.956
 5706SOL     OW18016   2.266   1.389   6.902
 5706SOL    HW118017   2.199   1.345   6.962
 5706SOL    HW218018   2.354   1.342   6.910
 5707SOL     OW18019   3.745   1.288   0.918
 5707SOL    HW118020   3.680   1.252   0.851
 5707SOL    HW218021   3.695   1.324   0.997
 5708SOL     OW18022   0.802   6.914   0.810
 5708SOL    HW118023   0.786   6.815   0.807
 5708SOL    HW218024   0.794   6.947   0.904
 5709SOL     OW18025   0.832   2.244   1.049
 5709SOL    HW118026   0.822   2.330   0.999
 5709SOL    HW218027   0.929   2.229   1.070
 5710SOL     OW18028   3.553   4.950   6.906
 5710SOL    HW118029   3.490   4.922   6.978
 5710SOL    HW218030   3.501   4.979   6.826
 5711SOL     OW18031   5.374   1.474   4.823
 5711SOL    HW118032   5.434   1.550   4.800
 5711SOL    HW218033   5.430   1.395   4.851
 5712SOL     OW18034   5.851   6.913   6.454
 5712SOL    HW118035   5.875   6.903   6.550
 5712SOL    HW218036   5.822   7.007   6.437
 5713SOL     OW18037   0.552   3.320   2.583
 5713SOL    HW118038   0.579   3.236   2.537
 5713SOL    HW218039   0.457   3.341   2.561
 5714SOL     OW18040   2.094   0.693   0.011
 5714SOL    HW118041   2.139   0.646   0.087
 5714SOL    HW218042   2.139   0.666   6.940
 5715SOL     OW18043   0.953   6.410   3.693
 5715SOL    HW118044   0.982   6.489   3.639
 5715SOL    HW218045   0.858   6.388   3.673
 5716SOL     OW18046   2.066   2.113   5.398
 5716SOL    HW118047   1.996   2.179   5.370
 5716SOL    HW218048   2.023   2.026   5.419
 5717SOL     OW18049   0.943   3.154   5.804
 5717SOL    HW118050   0.850   3.189   5.809
 5717SOL    HW218051   0.989   3.194   5.725
 5718SOL     OW18052   3.213   5.808   5.972
 5718SOL    HW118053   3.311   5.813   5.993
 5718SOL    HW218054   3.170   5.738   6.029
 5719SOL     OW18055   2.504   0.917   6.915
 5719SOL    HW118056   2.572   0.858   6.872
 5719SOL    HW218057   2.550   0.986   6.971
 5720SOL     OW18058   1.921   5.850   3.953
 5720SOL    HW118059   1.903   5.870   3.857
 5720SOL    HW218060   1.848   5.792   3.989
 5721SOL     OW18061   6.702   4.953   6.858
 5721SOL    HW118062   6.636   4.879   6.845
 5721SOL    HW218063   6.729   4.990   6.769
 5722SOL     OW18064   5.270   1.069   4.675
 5722SOL    HW118065   5.358   1.056   4.722
 5722SOL    HW218066   5.255   1.167   4.658
 5723SOL     OW18067   6.995   4.517   1.107
 5723SOL    HW118068   6.969   4.566   1.024
 5723SOL    HW218069   0.020   4.581   1.172
 5724SOL     OW18070   4.973   2.932   5.908
 5724SOL    HW118071   5.064   2.941   5.867
 5724SOL    HW218072   4.903   2.944   5.838
 5725SOL     OW18073   5.617   6.557   5.471
 5725SOL    HW118074   5.553   6.516   5.536
 5725SOL    HW218075   5.701   6.502   5.468
 5726SOL     OW18076   3.830   5.010   5.805
 5726SOL    HW118077   3.784   5.038   5.721
 5726SOL    HW218078   3.921   5.051   5.808
 5727SOL     OW18079   6.012   2.268   3.708
 5727SOL    HW118080   6.046   2.360   3.691
 5727SOL    HW218081   5.969   2.264   3.798
 5728SOL     OW18082   3.834   0.799   4.579
 5728SOL    HW118083   3.884   0.870   4.628
 5728SOL    HW218084   3.746   0.783   4.624
 5729SOL     OW18085   2.179   2.412   4.102
 5729SOL    HW118086   2.168   2.356   4.185
 5729SOL    HW218087   2.114   2.488   4.104
 5730SOL     OW18088   4.153   4.452   6.921
 5730SOL    HW118089   4.092   4.501   6.984
 5730SOL    HW218090   4.239   4.502   6.914
 5731SOL     OW18091   4.342   0.964   4.971
 5731SOL    HW118092   4.374   0.888   5.028
 5731SOL    HW218093   4.420   1.004   4.923
 5732SOL     OW18094   5.989   4.479   3.960
 5732SOL    HW118095   5.890   4.472   3.947
 5732SOL    HW218096   6.026   4.553   3.904
 5733SOL     OW18097   2.373   6.682   1.694
 5733SOL    HW118098   2.279   6.647   1.688
 5733SOL    HW218099   2.392   6.711   1.788
 5734SOL     OW18100   1.713   6.974   5.809
 5734SOL    HW118101   1.656   6.925   5.876
 5734SOL    HW218102   1.695   6.939   5.718
 5735SOL     OW18103   5.535   1.613   0.542
 5735SOL    HW118104   5.460   1.624   0.607
 5735SOL    HW218105   5.595   1.693   0.546
 5736SOL     OW18106   5.119   3.684   6.729
 5736SOL    HW118107   5.217   3.684   6.748
 5736SOL    HW218108   5.079   3.598   6.762
 5737SOL     OW18109   5.083   6.172   2.580
 5737SOL    HW118110   5.179   6.161   2.605
 5737SOL    HW218111   5.032   6.208   2.659
 5738SOL     OW18112   3.132   1.408   1.374
 5738SOL    HW118113   3.047   1.369   1.338
 5738SOL    HW218114   3.131   1.507   1.361
 5739SOL     OW18115   2.161   1.019   5.382
 5739SOL    HW118116   2.252   1.052   5.407
 5739SOL    HW218117   2.105   1.096   5.350
 5740SOL     OW18118   4.881   3.070   2.735
 5740SOL    HW118119   4.843   2.977   2.731
 5740SOL    HW218120   4.885   3.108   2.643
 5741SOL     OW18121   1.699   3.343   4.032
 5741SOL    HW118122   1.777   3.405   4.024
 5741SOL    HW218123   1.717   3.260   3.980
 5742SOL     OW18124   5.674   5.340   2.149
 5742SOL    HW118125   5.761   5.292   2.137
 5742SOL    HW218126   5.683   5.407   2.222
 5743SOL     OW18127   4.052   6.354   6.714
 5743SOL    HW118128   4.122   6.330   6.647
 5743SOL    HW218129   4.007   6.440   6.686
 5744SOL     OW18130   5.564   6.109   3.233
 5744SOL    HW118131   5.518   6.094   3.320
 5744SOL    HW218132   5.565   6.206   3.212
 5745SOL     OW18133   1.152   3.904   2.181
 5745SOL    HW118134   1.085   3.853   2.128
 5745SOL    HW218135   1.181   3.850   2.260
 5746SOL     OW18136   5.748   0.507   3.481
 5746SOL    HW118137   5.838   0.465   3.487
 5746SOL    HW218138   5.742   0.583   3.546
 5747SOL     OW18139   2.383   6.920   1.463
 5747SOL    HW118140   2.396   6.944   1.559
 5747SOL    HW218141   2.324   6.839   1.456
 5748SOL     OW18142   6.316   6.760   0.052
 5748SOL    HW118143   6.399   6.787   0.099
 5748SOL    HW218144   6.237   6.802   0.097
 5749SOL     OW18145   2.178   6.479   6.557
 5749SOL    HW118146   2.093   6.445   6.518
 5749SOL    HW218147   2.174   6.579   6.563
 5750SOL     OW18148   6.494   2.670   3.885
 5750SOL    HW118149   6.418   2.610   3.863
 5750SOL    HW218150   6.462   2.746   3.942
 5751SOL     OW18151   0.336   3.608   3.900
 5751SOL    HW118152   0.303   3.698   3.926
 5751SOL    HW218153   0.302   3.540   3.965
 5752SOL     OW18154   6.009   1.299   6.575
 5752SOL    HW118155   5.951   1.281   6.655
 5752SOL    HW218156   6.020   1.398   6.563
 5753SOL     OW18157   3.618   3.576   4.603
 5753SOL    HW118158   3.635   3.499   4.542
 5753SOL    HW218159   3.522   3.575   4.633
 5754SOL     OW18160   6.471   6.616   0.617
 5754SOL    HW118161   6.438   6.531   0.657
 5754SOL    HW218162   6.566   6.604   0.588
 5755SOL     OW18163   0.504   3.211   6.610
 5755SOL    HW118164   0.438   3.286   6.601
 5755SOL    HW218165   0.582   3.229   6.550
 5756SOL     OW18166   6.512   6.584   1.892
 5756SOL    HW118167   6.563   6.498   1.886
 5756SOL    HW218168   6.417   6.569   1.865
 5757SOL     OW18169   1.096   1.708   4.037
 5757SOL    HW118170   1.065   1.631   4.094
 5757SOL    HW218171   1.068   1.692   3.942
 5758SOL     OW18172   6.646   7.002   2.977
 5758SOL    HW118173   6.685   7.005   2.885
 5758SOL    HW218174   6.591   6.920   2.988
 5759SOL     OW18175   2.118   6.430   3.304
 5759SOL    HW118176   2.171   6.414   3.387
 5759SOL    HW218177   2.089   6.526   3.300
 5760SOL     OW18178   0.511   2.003   0.417
 5760SOL    HW118179   0.520   2.034   0.512
 5760SOL    HW218180   0.552   1.913   0.408
 5761SOL     OW18181   6.464   6.642   5.199
 5761SOL    HW118182   6.523   6.566   5.172
 5761SOL    HW218183   6.438   6.632   5.295
 5762SOL     OW18184   0.940   5.558   5.552
 5762SOL    HW118185   0.986   5.631   5.502
 5762SOL    HW218186   0.924   5.588   5.647
 5763SOL     OW18187   4.809   0.483   0.291
 5763SOL    HW118188   4.861   0.455   0.371
 5763SOL    HW218189   4.751   0.561   0.314
 5764SOL     OW18190   3.891   6.311   4.185
 5764SOL    HW118191   3.832   6.268   4.254
 5764SOL    HW218192   3.981   6.267   4.186
 5765SOL     OW18193   6.878   6.285   2.598
 5765SOL    HW118194   6.886   6.294   2.499
 5765SOL    HW218195   6.786   6.254   2.621
 5766SOL     OW18196   0.966   0.827   4.645
 5766SOL    HW118197   1.062   0.809   4.665
 5766SOL    HW218198   0.956   0.918   4.605
 5767SOL     OW18199   5.875   6.651   0.140
 5767SOL    HW118200   5.931   6.572   0.113
 5767SOL    HW218201   5.794   6.619   0.190
 5768SOL     OW18202   1.066   1.018   4.983
 5768SOL    HW118203   1.141   1.080   4.958
 5768SOL    HW218204   1.103   0.926   4.994
 5769SOL     OW18205   1.163   2.845   5.825
 5769SOL    HW118206   1.248   2.809   5.786
 5769SOL    HW218207   1.106   2.880   5.751
 5770SOL     OW18208   1.470   4.342   2.487
 5770SOL    HW118209   1.501   4.336   2.392
 5770SOL    HW218210   1.370   4.344   2.489
 5771SOL     OW18211   2.777   5.594   3.038
 5771SOL    HW118212   2.746   5.638   2.953
 5771SOL    HW218213   2.863   5.547   3.020
 5772SOL     OW18214   2.655   0.539   2.977
 5772SOL    HW118215   2.610   0.609   2.921
 5772SOL    HW218216   2.589   0.502   3.043
 5773SOL     OW18217   5.764   0.633   4.126
 5773SOL    HW118218   5.795   0.586   4.209
 5773SOL    HW218219   5.767   0.570   4.049
 5774SOL     OW18220   1.142   6.051   3.518
 5774SOL    HW118221   1.086   6.050   3.436
 5774SOL    HW218222   1.145   6.144   3.555
 5775SOL     OW18223   5.669   4.960   2.393
 5775SOL    HW118224   5.626   5.027   2.453
 5775SOL    HW218225   5.768   4.963   2.405
 5776SOL     OW18226   3.823   0.775   3.904
 5776SOL    HW118227   3.846   0.678   3.901
 5776SOL    HW218228   3.777   0.801   3.819
 5777SOL     OW18229   0.891   0.535   1.576
 5777SOL    HW118230   0.946   0.456   1.547
 5777SOL    HW218231   0.910   0.555   1.672
 5778SOL     OW18232   0.458   1.181   0.051
 5778SOL    HW118233   0.496   1.273   0.045
 5778SOL    HW218234   0.527   1.118   0.087
 5779SOL     OW18235   5.663   1.871   0.883
 5779SOL    HW118236   5.626   1.786   0.921
 5779SOL    HW218237   5.591   1.918   0.831
 5780SOL     OW18238   5.222   5.010   4.491
 5780SOL    HW118239   5.200   4.922   4.533
 5780SOL    HW218240   5.316   5.035   4.512
 5781SOL     OW18241   1.508   6.019   5.981
 5781SOL    HW118242   1.602   6.037   5.953
 5781SOL    HW218243   1.446   6.081   5.934
 5782SOL     OW18244   6.033   0.825   0.626
 5782SOL    HW118245   5.989   0.816   0.537
 5782SOL    HW218246   6.032   0.736   0.673
 5783SOL     OW18247   2.472   2.506   6.411
 5783SOL    HW118248   2.400   2.567   6.444
 5783SOL    HW218249   2.559   2.529   6.455
 5784SOL     OW18250   6.746   6.624   0.405
 5784SOL    HW118251   6.750   6.589   0.498
 5784SOL    HW218252   6.757   6.724   0.406
 5785SOL     OW18253   1.262   1.845   1.702
 5785SOL    HW118254   1.165   1.865   1.716
 5785SOL    HW218255   1.272   1.788   1.620
 5786SOL     OW18256   6.747   5.788   1.815
 5786SOL    HW118257   6.668   5.850   1.816
 5786SOL    HW218258   6.829   5.841   1.795
 5787SOL     OW18259   1.812   3.243   6.447
 5787SOL    HW118260   1.859   3.183   6.383
 5787SOL    HW218261   1.819   3.338   6.415
 5788SOL     OW18262   3.313   0.234   3.746
 5788SOL    HW118263   3.254   0.152   3.748
 5788SOL    HW218264   3.371   0.234   3.828
 5789SOL     OW18265   3.079   4.764   5.943
 5789SOL    HW118266   3.078   4.726   5.850
 5789SOL    HW218267   3.160   4.821   5.954
 5790SOL     OW18268   1.210   4.001   4.116
 5790SOL    HW118269   1.288   4.036   4.169
 5790SOL    HW218270   1.205   4.050   4.029
 5791SOL     OW18271   1.563   0.760   3.433
 5791SOL    HW118272   1.602   0.812   3.509
 5791SOL    HW218273   1.634   0.740   3.366
 5792SOL     OW18274   0.029   2.578   2.916
 5792SOL    HW118275   0.027   2.479   2.919
 5792SOL    HW218276   0.124   2.609   2.904
 5793SOL     OW18277   6.251   0.809   4.749
 5793SOL    HW118278   6.187   0.798   4.825
 5793SOL    HW218279   6.210   0.867   4.679
 5794SOL     OW18280   6.918   3.992   6.621
 5794SOL    HW118281   0.001   3.983   6.606
 5794SOL    HW218282   6.898   4.079   6.665
 5795SOL     OW18283   6.588   4.748   6.723
 5795SOL    HW118284   6.613   4.745   6.626
 5795SOL    HW218285   6.495   4.783   6.734
 5796SOL     OW18286   2.762   2.401   0.872
 5796SOL    HW118287   2.713   2.428   0.955
 5796SOL    HW218288   2.809   2.481   0.833
 5797SOL     OW18289   3.082   2.818   5.341
 5797SOL    HW118290   2.986   2.796   5.358
 5797SOL    HW218291   3.132   2.734   5.322
 5798SOL     OW18292   6.381   5.373   4.423
 5798SOL    HW118293   6.318   5.338   4.493
 5798SOL    HW218294   6.328   5.403   4.343
 5799SOL     OW18295   5.598   0.871   4.091
 5799SOL    HW118296   5.532   0.837   4.024
 5799SOL    HW218297   5.621   0.797   4.154
 5800SOL     OW18298   6.031   5.695   6.449
 5800SOL    HW118299   6.107   5.717   6.388
 5800SOL    HW218300   6.038   5.600   6.479
 5801SOL     OW18301   1.804   1.310   2.612
 5801SOL    HW118302   1.852   1.246   2.673
 5801SOL    HW218303   1.814   1.279   2.517
 5802SOL     OW18304   0.224   2.716   4.597
 5802SOL    HW118305   0.298   2.737   4.533
 5802SOL    HW218306   0.236   2.770   4.681
 5803SOL     OW18307   1.800   4.951   1.255
 5803SOL    HW118308   1.799   4.984   1.349
 5803SOL    HW218309   1.862   5.007   1.200
 5804SOL     OW18310   0.260   2.341   6.432
 5804SOL    HW118311   0.311   2.352   6.346
 5804SOL    HW218312   0.166   2.371   6.419
 5805SOL     OW18313   5.440   3.216   6.718
 5805SOL    HW118314   5.478   3.294   6.769
 5805SOL    HW218315   5.394   3.249   6.636
 5806SOL     OW18316   6.312   0.047   6.435
 5806SOL    HW118317   6.348   0.069   6.525
 5806SOL    HW218318   6.237   6.996   6.445
 5807SOL     OW18319   2.909   4.072   1.380
 5807SOL    HW118320   2.931   4.159   1.425
 5807SOL    HW218321   2.843   4.022   1.437
 5808SOL     OW18322   6.192   1.303   3.695
 5808SOL    HW118323   6.108   1.309   3.642
 5808SOL    HW218324   6.240   1.391   3.692
 5809SOL     OW18325   0.304   2.683   3.318
 5809SOL    HW118326   0.350   2.596   3.333
 5809SOL    HW218327   0.300   2.734   3.404
 5810SOL     OW18328   2.900   2.244   2.807
 5810SOL    HW118329   2.997   2.218   2.804
 5810SOL    HW218330   2.873   2.280   2.717
 5811SOL     OW18331   2.887   6.889   2.360
 5811SOL    HW118332   2.852   6.950   2.431
 5811SOL    HW218333   2.812   6.857   2.302
 5812SOL     OW18334   4.212   0.572   4.743
 5812SOL    HW118335   4.195   0.549   4.839
 5812SOL    HW218336   4.274   0.651   4.738
 5813SOL     OW18337   1.922   1.604   5.372
 5813SOL    HW118338   1.907   1.629   5.468
 5813SOL    HW218339   1.889   1.510   5.357
 5814SOL     OW18340   0.308   5.510   1.385
 5814SOL    HW118341   0.268   5.482   1.472
 5814SOL    HW218342   0.283   5.605   1.366
 5815SOL     OW18343   4.091   6.705   4.360
 5815SOL    HW118344   4.028   6.775   4.327
 5815SOL    HW218345   4.177   6.747   4.386
 5816SOL     OW18346   5.598   6.681   0.220
 5816SOL    HW118347   5.557   6.598   0.258
 5816SOL    HW218348   5.535   6.723   0.155
 5817SOL     OW18349   6.005   2.912   6.564
 5817SOL    HW118350   6.099   2.879   6.550
 5817SOL    HW218351   5.986   2.986   6.499
 5818SOL     OW18352   6.727   6.228   5.363
 5818SOL    HW118353   6.698   6.143   5.320
 5818SOL    HW218354   6.714   6.221   5.462
 5819SOL     OW18355   6.207   0.088   0.711
 5819SOL    HW118356   6.242   0.182   0.711
 5819SOL    HW218357   6.233   0.042   0.796
 5820SOL     OW18358   5.823   4.828   1.947
 5820SOL    HW118359   5.843   4.825   2.045
 5820SOL    HW218360   5.739   4.777   1.928
 5821SOL     OW18361   2.859   0.080   2.554
 5821SOL    HW118362   2.795   0.142   2.600
 5821SOL    HW218363   2.941   0.131   2.528
 5822SOL     OW18364   0.333   1.078   2.565
 5822SOL    HW118365   0.297   1.047   2.654
 5822SOL    HW218366   0.353   1.175   2.570
 5823SOL     OW18367   1.830   2.861   4.283
 5823SOL    HW118368   1.852   2.930   4.215
 5823SOL    HW218369   1.733   2.836   4.276
 5824SOL     OW18370   5.177   0.372   4.112
 5824SOL    HW118371   5.175   0.466   4.145
 5824SOL    HW218372   5.212   0.369   4.018
 5825SOL     OW18373   3.649   1.576   1.912
 5825SOL    HW118374   3.611   1.599   2.001
 5825SOL    HW218375   3.599   1.624   1.840
 5826SOL     OW18376   0.390   6.576   3.662
 5826SOL    HW118377   0.378   6.575   3.563
 5826SOL    HW218378   0.310   6.617   3.705
 5827SOL     OW18379   2.159   4.703   5.550
 5827SOL    HW118380   2.167   4.736   5.644
 5827SOL    HW218381   2.228   4.633   5.534
 5828SOL     OW18382   6.244   2.392   1.229
 5828SOL    HW118383   6.295   2.412   1.312
 5828SOL    HW218384   6.304   2.405   1.150
 5829SOL     OW18385   2.003   1.956   1.519
 5829SOL    HW118386   1.970   1.952   1.613
 5829SOL    HW218387   1.939   2.007   1.462
 5830SOL     OW18388   2.261   0.426   5.498
 5830SOL    HW118389   2.251   0.472   5.587
 5830SOL    HW218390   2.171   0.410   5.458
 5831SOL     OW18391   5.515   5.524   2.852
 5831SOL    HW118392   5.572   5.599   2.819
 5831SOL    HW218393   5.554   5.436   2.823
 5832SOL     OW18394   3.675   3.337   4.475
 5832SOL    HW118395   3.769   3.307   4.487
 5832SOL    HW218396   3.614   3.258   4.474
 5833SOL     OW18397   3.013   3.260   4.856
 5833SOL    HW118398   2.964   3.283   4.772
 5833SOL    HW218399   3.055   3.342   4.894
 5834SOL     OW18400   6.131   1.091   0.005
 5834SOL    HW118401   6.040   1.113   0.039
 5834SOL    HW218402   6.129   1.088   6.920
 5835SOL     OW18403   5.337   3.080   4.398
 5835SOL    HW118404   5.258   3.137   4.378
 5835SOL    HW218405   5.307   2.988   4.421
 5836SOL     OW18406   3.096   6.827   3.049
 5836SOL    HW118407   3.081   6.916   3.006
 5836SOL    HW218408   3.168   6.778   2.999
 5837SOL     OW18409   4.138   4.295   6.006
 5837SOL    HW118410   4.160   4.216   6.064
 5837SOL    HW218411   4.146   4.269   5.910
 5838SOL     OW18412   0.962   0.763   5.586
 5838SOL    HW118413   0.944   0.729   5.494
 5838SOL    HW218414   1.060   0.779   5.598
 5839SOL     OW18415   6.831   2.268   2.279
 5839SOL    HW118416   6.839   2.359   2.239
 5839SOL    HW218417   6.802   2.275   2.374
 5840SOL     OW18418   3.403   5.513   0.418
 5840SOL    HW118419   3.469   5.497   0.491
 5840SOL    HW218420   3.363   5.427   0.388
 5841SOL     OW18421   6.006   1.962   3.405
 5841SOL    HW118422   5.986   1.901   3.482
 5841SOL    HW218423   5.944   2.040   3.408
 5842SOL     OW18424   4.023   2.425   0.930
 5842SOL    HW118425   3.973   2.476   0.861
 5842SOL    HW218426   4.032   2.480   1.013
 5843SOL     OW18427   0.870   3.040   1.434
 5843SOL    HW118428   0.960   3.081   1.417
 5843SOL    HW218429   0.802   3.083   1.375
 5844SOL     OW18430   1.814   6.400   6.492
 5844SOL    HW118431   1.801   6.330   6.562
 5844SOL    HW218432   1.789   6.362   6.403
 5845SOL     OW18433   2.005   2.739   4.646
 5845SOL    HW118434   1.975   2.831   4.623
 5845SOL    HW218435   2.095   2.743   4.689
 5846SOL     OW18436   0.183   3.728   6.430
 5846SOL    HW118437   0.279   3.705   6.414
 5846SOL    HW218438   0.125   3.656   6.392
 5847SOL     OW18439   1.177   2.198   4.237
 5847SOL    HW118440   1.147   2.287   4.202
 5847SOL    HW218441   1.221   2.210   4.326
 5848SOL     OW18442   0.938   4.734   3.705
 5848SOL    HW118443   0.908   4.670   3.635
 5848SOL    HW218444   1.009   4.691   3.761
 5849SOL     OW18445   3.031   6.962   6.041
 5849SOL    HW118446   2.949   6.925   6.085
 5849SOL    HW218447   3.111   6.910   6.071
 5850SOL     OW18448   0.936   4.543   3.057
 5850SOL    HW118449   0.982   4.470   3.008
 5850SOL    HW218450   0.905   4.510   3.146
 5851SOL     OW18451   6.007   3.299   1.962
 5851SOL    HW118452   5.988   3.204   1.987
 5851SOL    HW218453   5.952   3.325   1.883
 5852SOL     OW18454   3.995   6.617   3.177
 5852SOL    HW118455   4.031   6.524   3.167
 5852SOL    HW218456   4.068   6.683   3.161
 5853SOL     OW18457   5.062   4.411   5.258
 5853SOL    HW118458   5.133   4.475   5.230
 5853SOL    HW218459   5.078   4.322   5.215
 5854SOL     OW18460   0.798   1.301   6.623
 5854SOL    HW118461   0.885   1.262   6.593
 5854SOL    HW218462   0.752   1.342   6.544
 5855SOL     OW18463   1.521   1.825   4.819
 5855SOL    HW118464   1.422   1.829   4.820
 5855SOL    HW218465   1.550   1.730   4.833
 5856SOL     OW18466   1.195   5.393   3.589
 5856SOL    HW118467   1.142   5.474   3.565
 5856SOL    HW218468   1.136   5.327   3.637
 5857SOL     OW18469   0.299   2.488   5.509
 5857SOL    HW118470   0.285   2.560   5.577
 5857SOL    HW218471   0.229   2.417   5.521
 5858SOL     OW18472   3.134   6.671   3.638
 5858SOL    HW118473   3.115   6.582   3.679
 5858SOL    HW218474   3.083   6.742   3.687
 5859SOL     OW18475   5.932   5.417   1.705
 5859SOL    HW118476   5.873   5.384   1.779
 5859SOL    HW218477   5.900   5.380   1.618
 5860SOL     OW18478   6.956   4.108   0.891
 5860SOL    HW118479   0.001   4.176   0.933
 5860SOL    HW218480   6.938   4.035   0.956
 5861SOL     OW18481   6.179   1.183   3.957
 5861SOL    HW118482   6.161   1.206   3.862
 5861SOL    HW218483   6.271   1.145   3.966
 5862SOL     OW18484   5.348   4.872   3.939
 5862SOL    HW118485   5.419   4.891   4.007
 5862SOL    HW218486   5.298   4.790   3.966
 5863SOL     OW18487   2.027   1.697   0.420
 5863SOL    HW118488   2.034   1.600   0.396
 5863SOL    HW218489   2.118   1.738   0.416
 5864SOL     OW18490   4.554   5.269   0.743
 5864SOL    HW118491   4.548   5.170   0.734
 5864SOL    HW218492   4.495   5.313   0.676
 5865SOL     OW18493   4.254   0.955   2.867
 5865SOL    HW118494   4.162   0.916   2.875
 5865SOL    HW218495   4.303   0.911   2.792
 5866SOL     OW18496   3.495   1.466   6.894
 5866SOL    HW118497   3.449   1.403   6.832
 5866SOL    HW218498   3.557   1.525   6.842
 5867SOL     OW18499   6.466   3.044   1.660
 5867SOL    HW118500   6.372   3.078   1.663
 5867SOL    HW218501   6.530   3.121   1.673
 5868SOL     OW18502   0.561   6.528   4.905
 5868SOL    HW118503   0.493   6.602   4.917
 5868SOL    HW218504   0.544   6.457   4.974
 5869SOL     OW18505   2.581   4.614   3.894
 5869SOL    HW118506   2.656   4.657   3.843
 5869SOL    HW218507   2.590   4.636   3.991
 5870SOL     OW18508   4.955   5.876   4.134
 5870SOL    HW118509   5.003   5.825   4.205
 5870SOL    HW218510   5.012   5.954   4.106
 5871SOL     OW18511   3.044   3.730   0.602
 5871SOL    HW118512   3.052   3.656   0.668
 5871SOL    HW218513   3.084   3.813   0.640
 5872SOL     OW18514   4.392   5.393   4.082
 5872SOL    HW118515   4.358   5.465   4.143
 5872SOL    HW218516   4.448   5.435   4.010
 5873SOL     OW18517   1.948   2.799   6.961
 5873SOL    HW118518   1.940   2.712   6.913
 5873SOL    HW218519   1.920   2.787   0.041
 5874SOL     OW18520   0.914   4.588   6.227
 5874SOL    HW118521   0.950   4.556   6.140
 5874SOL    HW218522   0.896   4.686   6.222
 5875SOL     OW18523   3.555   2.338   0.936
 5875SOL    HW118524   3.598   2.301   0.853
 5875SOL    HW218525   3.615   2.323   1.014
 5876SOL     OW18526   4.596   3.825   6.144
 5876SOL    HW118527   4.624   3.790   6.055
 5876SOL    HW218528   4.534   3.903   6.132
 5877SOL     OW18529   5.463   7.015   2.516
 5877SOL    HW118530   5.431   6.922   2.537
 5877SOL    HW218531   5.554   0.012   2.556
 5878SOL     OW18532   4.951   3.694   2.814
 5878SOL    HW118533   5.008   3.774   2.835
 5878SOL    HW218534   4.924   3.697   2.718
 5879SOL     OW18535   3.171   4.597   5.299
 5879SOL    HW118536   3.076   4.602   5.268
 5879SOL    HW218537   3.183   4.516   5.357
 5880SOL     OW18538   5.952   2.643   0.230
 5880SOL    HW118539   6.018   2.595   0.172
 5880SOL    HW218540   5.962   2.742   0.218
 5881SOL     OW18541   1.434   5.998   2.346
 5881SOL    HW118542   1.530   5.970   2.357
 5881SOL    HW218543   1.402   6.042   2.430
 5882SOL     OW18544   1.431   5.144   5.213
 5882SOL    HW118545   1.473   5.065   5.258
 5882SOL    HW218546   1.342   5.163   5.253
 5883SOL     OW18547   0.306   5.597   0.030
 5883SOL    HW118548   0.300   5.634   6.952
 5883SOL    HW218549   0.261   5.508   0.033
 5884SOL     OW18550   6.948   1.183   2.566
 5884SOL    HW118551   6.965   1.091   2.601
 5884SOL    HW218552   6.892   1.177   2.484
 5885SOL     OW18553   0.094   5.895   1.465
 5885SOL    HW118554   0.024   5.950   1.510
 5885SOL    HW218555   0.072   5.798   1.474
 5886SOL     OW18556   2.093   4.766   3.570
 5886SOL    HW118557   2.181   4.810   3.591
 5886SOL    HW218558   2.105   4.703   3.494
 5887SOL     OW18559   2.866   3.981   0.496
 5887SOL    HW118560   2.793   3.984   0.563
 5887SOL    HW218561   2.942   4.040   0.525
 5888SOL     OW18562   2.747   5.766   1.094
 5888SOL    HW118563   2.763   5.689   1.156
 5888SOL    HW218564   2.834   5.809   1.071
 5889SOL     OW18565   5.190   1.811   2.277
 5889SOL    HW118566   5.094   1.783   2.275
 5889SOL    HW218567   5.239   1.761   2.349
 5890SOL     OW18568   2.421   4.382   3.465
 5890SOL    HW118569   2.350   4.374   3.394
 5890SOL    HW218570   2.455   4.475   3.467
 5891SOL     OW18571   2.454   3.130   6.537
 5891SOL    HW118572   2.428   3.197   6.468
 5891SOL    HW218573   2.383   3.059   6.543
 5892SOL     OW18574   0.809   2.356   0.656
 5892SOL    HW118575   0.814   2.375   0.754
 5892SOL    HW218576   0.816   2.442   0.605
 5893SOL     OW18577   0.554   6.029   1.798
 5893SOL    HW118578   0.579   5.999   1.705
 5893SOL    HW218579   0.511   6.119   1.793
 5894SOL     OW18580   2.395   5.033   6.665
 5894SOL    HW118581   2.337   5.057   6.587
 5894SOL    HW218582   2.409   5.113   6.722
 5895SOL     OW18583   5.972   3.159   3.954
 5895SOL    HW118584   5.875   3.137   3.962
 5895SOL    HW218585   6.005   3.196   4.041
 5896SOL     OW18586   5.461   2.743   1.426
 5896SOL    HW118587   5.456   2.718   1.330
 5896SOL    HW218588   5.557   2.748   1.454
 5897SOL     OW18589   3.440   3.070   0.551
 5897SOL    HW118590   3.344   3.097   0.557
 5897SOL    HW218591   3.446   2.979   0.509
 5898SOL     OW18592   3.233   0.966   6.949
 5898SOL    HW118593   3.138   0.942   6.971
 5898SOL    HW218594   3.292   0.888   6.966
 5899SOL     OW18595   0.486   6.991   6.907
 5899SOL    HW118596   0.542   0.024   6.974
 5899SOL    HW218597   0.545   6.951   6.837
 5900SOL     OW18598   5.768   6.536   2.430
 5900SOL    HW118599   5.739   6.631   2.419
 5900SOL    HW218600   5.733   6.500   2.516
 5901SOL     OW18601   2.149   0.802   4.809
 5901SOL    HW118602   2.113   0.841   4.724
 5901SOL    HW218603   2.123   0.706   4.814
 5902SOL     OW18604   3.798   3.820   6.137
 5902SOL    HW118605   3.868   3.761   6.096
 5902SOL    HW218606   3.757   3.774   6.215
 5903SOL     OW18607   5.835   1.950   5.232
 5903SOL    HW118608   5.744   1.949   5.275
 5903SOL    HW218609   5.896   1.891   5.283
 5904SOL     OW18610   6.896   5.128   1.651
 5904SOL    HW118611   6.872   5.031   1.657
 5904SOL    HW218612   6.859   5.177   1.730
 5905SOL     OW18613   6.575   2.501   4.546
 5905SOL    HW118614   6.580   2.421   4.606
 5905SOL    HW218615   6.519   2.571   4.589
 5906SOL     OW18616   4.421   0.774   5.613
 5906SOL    HW118617   4.354   0.734   5.676
 5906SOL    HW218618   4.383   0.857   5.573
 5907SOL     OW18619   0.966   3.492   6.308
 5907SOL    HW118620   0.987   3.446   6.394
 5907SOL    HW218621   1.029   3.460   6.237
 5908SOL     OW18622   4.531   3.915   0.062
 5908SOL    HW118623   4.559   3.997   0.113
 5908SOL    HW218624   4.592   3.839   0.085
 5909SOL     OW18625   5.841   5.268   3.380
 5909SOL    HW118626   5.801   5.359   3.372
 5909SOL    HW218627   5.823   5.232   3.472
 5910SOL     OW18628   2.796   4.576   1.493
 5910SOL    HW118629   2.861   4.635   1.540
 5910SOL    HW218630   2.789   4.488   1.541
 5911SOL     OW18631   5.808   0.659   5.887
 5911SOL    HW118632   5.905   0.645   5.870
 5911SOL    HW218633   5.754   0.593   5.834
 5912SOL     OW18634   0.719   3.278   5.754
 5912SOL    HW118635   0.758   3.339   5.685
 5912SOL    HW218636   0.634   3.238   5.718
 5913SOL     OW18637   2.279   2.655   4.349
 5913SOL    HW118638   2.204   2.611   4.299
 5913SOL    HW218639   2.267   2.754   4.346
 5914SOL     OW18640   1.202   5.749   0.355
 5914SOL    HW118641   1.224   5.655   0.381
 5914SOL    HW218642   1.168   5.799   0.435
 5915SOL     OW18643   5.708   3.852   4.046
 5915SOL    HW118644   5.692   3.883   3.953
 5915SOL    HW218645   5.623   3.819   4.086
 5916SOL     OW18646   2.980   0.832   6.915
 5916SOL    HW118647   2.901   0.837   6.853
 5916SOL    HW218648   2.961   0.768   6.989
 5917SOL     OW18649   3.612   4.043   1.964
 5917SOL    HW118650   3.695   4.014   2.010
 5917SOL    HW218651   3.537   4.049   2.030
 5918SOL     OW18652   2.887   2.052   4.070
 5918SOL    HW118653   2.790   2.035   4.087
 5918SOL    HW218654   2.922   2.114   4.140
 5919SOL     OW18655   1.484   2.090   6.913
 5919SOL    HW118656   1.501   2.010   6.855
 5919SOL    HW218657   1.568   2.115   6.960
 5920SOL     OW18658   2.673   5.223   6.879
 5920SOL    HW118659   2.604   5.243   6.809
 5920SOL    HW218660   2.715   5.134   6.860
 5921SOL     OW18661   3.964   5.775   5.003
 5921SOL    HW118662   3.939   5.797   4.908
 5921SOL    HW218663   3.976   5.859   5.055
 5922SOL     OW18664   6.683   5.231   2.104
 5922SOL    HW118665   6.696   5.311   2.164
 5922SOL    HW218666   6.707   5.256   2.010
 5923SOL     OW18667   0.970   1.170   3.269
 5923SOL    HW118668   0.948   1.221   3.186
 5923SOL    HW218669   0.917   1.207   3.346
 5924SOL     OW18670   5.876   1.962   4.646
 5924SOL    HW118671   5.928   1.937   4.728
 5924SOL    HW218672   5.907   2.050   4.612
 5925SOL     OW18673   6.691   5.794   0.644
 5925SOL    HW118674   6.741   5.830   0.565
 5925SOL    HW218675   6.650   5.869   0.695
 5926SOL     OW18676   3.462   6.236   2.077
 5926SOL    HW118677   3.398   6.309   2.051
 5926SOL    HW218678   3.554   6.275   2.086
 5927SOL     OW18679   2.164   4.981   1.480
 5927SOL    HW118680   2.246   5.036   1.463
 5927SOL    HW218681   2.085   5.027   1.441
 5928SOL     OW18682   0.745   6.151   0.676
 5928SOL    HW118683   0.769   6.130   0.581
 5928SOL    HW218684   0.729   6.066   0.726
 5929SOL     OW18685   0.239   6.696   5.688
 5929SOL    HW118686   0.295   6.750   5.625
 5929SOL    HW218687   0.171   6.645   5.636
 5930SOL     OW18688   6.258   1.376   5.336
 5930SOL    HW118689   6.327   1.448   5.347
 5930SOL    HW218690   6.168   1.419   5.326
 5931SOL     OW18691   5.336   5.186   0.913
 5931SOL    HW118692   5.246   5.142   0.921
 5931SOL    HW218693   5.393   5.158   0.990
 5932SOL     OW18694   2.330   0.250   6.951
 5932SOL    HW118695   2.394   0.179   6.981
 5932SOL    HW218696   2.254   0.208   6.902
 5933SOL     OW18697   6.125   2.538   2.835
 5933SOL    HW118698   6.143   2.556   2.739
 5933SOL    HW218699   6.108   2.624   2.883
 5934SOL     OW18700   4.019   3.318   2.337
 5934SOL    HW118701   4.077   3.298   2.416
 5934SOL    HW218702   3.945   3.379   2.365
 5935SOL     OW18703   3.791   2.925   3.092
 5935SOL    HW118704   3.860   2.996   3.082
 5935SOL    HW218705   3.777   2.880   3.004
 5936SOL     OW18706   6.813   6.084   6.459
 5936SOL    HW118707   6.886   6.124   6.514
 5936SOL    HW218708   6.729   6.079   6.513
 5937SOL     OW18709   0.723   4.249   0.131
 5937SOL    HW118710   0.687   4.318   0.068
 5937SOL    HW218711   0.667   4.247   0.214
 5938SOL     OW18712   2.561   4.681   0.461
 5938SOL    HW118713   2.530   4.749   0.395
 5938SOL    HW218714   2.492   4.609   0.470
 5939SOL     OW18715   1.495   0.611   2.442
 5939SOL    HW118716   1.422   0.543   2.445
 5939SOL    HW218717   1.463   0.698   2.480
 5940SOL     OW18718   4.107   4.874   3.401
 5940SOL    HW118719   4.143   4.902   3.312
 5940SOL    HW218720   4.050   4.793   3.391
 5941SOL     OW18721   6.188   2.484   3.441
 5941SOL    HW118722   6.222   2.575   3.418
 5941SOL    HW218723   6.135   2.448   3.365
 5942SOL     OW18724   6.730   1.037   4.760
 5942SOL    HW118725   6.632   1.051   4.774
 5942SOL    HW218726   6.781   1.112   4.803
 5943SOL     OW18727   1.652   5.371   1.110
 5943SOL    HW118728   1.748   5.397   1.097
 5943SOL    HW218729   1.639   5.275   1.086
 5944SOL     OW18730   5.456   2.591   2.771
 5944SOL    HW118731   5.399   2.602   2.689
 5944SOL    HW218732   5.467   2.494   2.791
 5945SOL     OW18733   6.770   5.695   6.296
 5945SOL    HW118734   6.708   5.703   6.375
 5945SOL    HW218735   6.770   5.601   6.263
 5946SOL     OW18736   3.741   2.799   5.464
 5946SOL    HW118737   3.837   2.806   5.491
 5946SOL    HW218738   3.704   2.711   5.492
 5947SOL     OW18739   4.971   3.985   2.495
 5947SOL    HW118740   4.910   3.940   2.430
 5947SOL    HW218741   4.918   4.051   2.549
 5948SOL     OW18742   3.651   5.338   2.934
 5948SOL    HW118743   3.555   5.312   2.930
 5948SOL    HW218744   3.697   5.285   3.005
 5949SOL     OW18745   4.784   4.483   3.214
 5949SOL    HW118746   4.732   4.411   3.260
 5949SOL    HW218747   4.760   4.572   3.255
 5950SOL     OW18748   6.615   2.596   4.307
 5950SOL    HW118749   6.697   2.551   4.272
 5950SOL    HW218750   6.603   2.571   4.403
 5951SOL     OW18751   1.922   0.600   4.149
 5951SOL    HW118752   1.889   0.661   4.221
 5951SOL    HW218753   2.016   0.622   4.126
 5952SOL     OW18754   0.562   5.787   4.731
 5952SOL    HW118755   0.615   5.869   4.752
 5952SOL    HW218756   0.558   5.774   4.632
 5953SOL     OW18757   0.723   3.174   6.108
 5953SOL    HW118758   0.681   3.208   6.192
 5953SOL    HW218759   0.732   3.248   6.042
 5954SOL     OW18760   1.470   4.724   6.452
 5954SOL    HW118761   1.380   4.692   6.480
 5954SOL    HW218762   1.460   4.792   6.379
 5955SOL     OW18763   4.672   5.131   2.869
 5955SOL    HW118764   4.751   5.070   2.860
 5955SOL    HW218765   4.699   5.213   2.919
 5956SOL     OW18766   6.897   2.311   0.067
 5956SOL    HW118767   6.874   2.371   0.144
 5956SOL    HW218768   6.970   2.248   0.095
 5957SOL     OW18769   4.258   7.008   5.681
 5957SOL    HW118770   4.223   6.936   5.740
 5957SOL    HW218771   4.274   6.972   5.589
 5958SOL     OW18772   1.013   5.308   2.435
 5958SOL    HW118773   0.935   5.272   2.486
 5958SOL    HW218774   1.076   5.353   2.499
 5959SOL     OW18775   2.030   1.120   6.247
 5959SOL    HW118776   1.996   1.027   6.263
 5959SOL    HW218777   1.980   1.161   6.172
 5960SOL     OW18778   3.492   6.116   5.571
 5960SOL    HW118779   3.507   6.180   5.495
 5960SOL    HW218780   3.394   6.095   5.578
 5961SOL     OW18781   2.451   1.068   5.420
 5961SOL    HW118782   2.498   1.138   5.475
 5961SOL    HW218783   2.506   1.047   5.339
 5962SOL     OW18784   5.411   4.262   2.281
 5962SOL    HW118785   5.347   4.231   2.211
 5962SOL    HW218786   5.502   4.274   2.240
 5963SOL     OW18787   4.376   4.442   1.642
 5963SOL    HW118788   4.406   4.389   1.564
 5963SOL    HW218789   4.366   4.382   1.722
 5964SOL     OW18790   1.315   3.574   5.923
 5964SOL    HW118791   1.319   3.597   6.021
 5964SOL    HW218792   1.341   3.654   5.869
 5965SOL     OW18793   2.092   2.088   4.080
 5965SOL    HW118794   2.150   2.089   3.998
 5965SOL    HW218795   2.114   2.168   4.136
 5966SOL     OW18796   1.592   5.892   4.227
 5966SOL    HW118797   1.649   5.838   4.166
 5966SOL    HW218798   1.650   5.950   4.285
 5967SOL     OW18799   4.390   5.625   1.687
 5967SOL    HW118800   4.352   5.657   1.600
 5967SOL    HW218801   4.345   5.540   1.714
 5968SOL     OW18802   0.812   1.629   4.101
 5968SOL    HW118803   0.765   1.684   4.170
 5968SOL    HW218804   0.884   1.576   4.144
 5969SOL     OW18805   6.658   1.985   2.782
 5969SOL    HW118806   6.592   2.004   2.855
 5969SOL    HW218807   6.704   1.898   2.800
 5970SOL     OW18808   2.111   3.721   3.596
 5970SOL    HW118809   2.091   3.734   3.693
 5970SOL    HW218810   2.127   3.810   3.553
 5971SOL     OW18811   3.204   5.643   3.534
 5971SOL    HW118812   3.295   5.643   3.576
 5971SOL    HW218813   3.211   5.613   3.439
 5972SOL     OW18814   5.797   0.515   1.712
 5972SOL    HW118815   5.767   0.421   1.728
 5972SOL    HW218816   5.853   0.519   1.629
 5973SOL     OW18817   2.233   4.435   3.213
 5973SOL    HW118818   2.255   4.511   3.274
 5973SOL    HW218819   2.145   4.451   3.169
 5974SOL     OW18820   0.589   4.276   6.522
 5974SOL    HW118821   0.657   4.259   6.594
 5974SOL    HW218822   0.544   4.191   6.497
 5975SOL     OW18823   2.077   2.443   6.220
 5975SOL    HW118824   2.049   2.518   6.161
 5975SOL    HW218825   2.175   2.426   6.208
 5976SOL     OW18826   3.352   3.154   4.723
 5976SOL    HW118827   3.420   3.089   4.757
 5976SOL    HW218828   3.264   3.136   4.765
 5977SOL     OW18829   0.528   3.544   3.014
 5977SOL    HW118830   0.548   3.466   2.956
 5977SOL    HW218831   0.610   3.573   3.062
 5978SOL     OW18832   4.975   5.267   2.257
 5978SOL    HW118833   4.984   5.342   2.323
 5978SOL    HW218834   4.942   5.303   2.170
 5979SOL     OW18835   0.954   0.995   1.727
 5979SOL    HW118836   0.933   0.947   1.812
 5979SOL    HW218837   0.968   0.928   1.654
 5980SOL     OW18838   5.790   2.866   5.824
 5980SOL    HW118839   5.880   2.823   5.813
 5980SOL    HW218840   5.792   2.928   5.901
 5981SOL     OW18841   3.536   1.880   0.585
 5981SOL    HW118842   3.480   1.799   0.598
 5981SOL    HW218843   3.507   1.951   0.649
 5982SOL     OW18844   6.261   2.458   6.924
 5982SOL    HW118845   6.274   2.544   6.875
 5982SOL    HW218846   6.263   2.475   0.007
 5983SOL     OW18847   1.153   0.270   5.071
 5983SOL    HW118848   1.098   0.266   5.155
 5983SOL    HW218849   1.128   0.193   5.012
 5984SOL     OW18850   0.828   0.038   6.097
 5984SOL    HW118851   0.825   0.048   5.997
 5984SOL    HW218852   0.856   0.125   6.138
 5985SOL     OW18853   5.712   3.117   4.011
 5985SOL    HW118854   5.664   3.113   4.099
 5985SOL    HW218855   5.718   3.025   3.972
 5986SOL     OW18856   2.902   3.503   2.803
 5986SOL    HW118857   2.878   3.514   2.706
 5986SOL    HW218858   2.915   3.406   2.823
 5987SOL     OW18859   4.558   0.224   5.773
 5987SOL    HW118860   4.590   0.201   5.681
 5987SOL    HW218861   4.579   0.319   5.793
 5988SOL     OW18862   3.833   0.025   5.767
 5988SOL    HW118863   3.762   0.031   5.837
 5988SOL    HW218864   3.907   6.981   5.800
 5989SOL     OW18865   3.066   1.705   6.945
 5989SOL    HW118866   3.015   1.729   0.012
 5989SOL    HW218867   3.146   1.765   6.938
 5990SOL     OW18868   3.788   5.177   3.104
 5990SOL    HW118869   3.878   5.199   3.067
 5990SOL    HW218870   3.766   5.082   3.083
 5991SOL     OW18871   3.385   5.023   3.281
 5991SOL    HW118872   3.363   5.120   3.292
 5991SOL    HW218873   3.412   4.985   3.369
 5992SOL     OW18874   4.310   1.928   4.355
 5992SOL    HW118875   4.377   1.906   4.427
 5992SOL    HW218876   4.224   1.880   4.374
 5993SOL     OW18877   2.562   5.153   4.083
 5993SOL    HW118878   2.484   5.114   4.034
 5993SOL    HW218879   2.540   5.247   4.110
 5994SOL     OW18880   5.964   2.697   0.670
 5994SOL    HW118881   5.955   2.599   0.659
 5994SOL    HW218882   6.061   2.720   0.683
 5995SOL     OW18883   0.509   3.775   1.959
 5995SOL    HW118884   0.527   3.824   2.044
 5995SOL    HW218885   0.551   3.824   1.882
 5996SOL     OW18886   1.395   5.795   6.092
 5996SOL    HW118887   1.428   5.874   6.042
 5996SOL    HW218888   1.444   5.713   6.062
 5997SOL     OW18889   0.492   0.777   1.519
 5997SOL    HW118890   0.503   0.869   1.481
 5997SOL    HW218891   0.523   0.710   1.451
 5998SOL     OW18892   5.153   2.517   2.997
 5998SOL    HW118893   5.156   2.595   3.060
 5998SOL    HW218894   5.157   2.550   2.903
 5999SOL     OW18895   2.355   2.768   3.042
 5999SOL    HW118896   2.335   2.864   3.061
 5999SOL    HW218897   2.270   2.719   3.026
 6000SOL     OW18898   4.885   0.877   3.485
 6000SOL    HW118899   4.810   0.915   3.539
 6000SOL    HW218900   4.968   0.932   3.499
 6001SOL     OW18901   6.406   1.488   0.550
 6001SOL    HW118902   6.398   1.489   0.450
 6001SOL    HW218903   6.342   1.422   0.588
 6002SOL     OW18904   1.669   0.114   2.359
 6002SOL    HW118905   1.671   0.213   2.377
 6002SOL    HW218906   1.726   0.094   2.279
 6003SOL     OW18907   4.903   4.196   4.074
 6003SOL    HW118908   4.811   4.218   4.105
 6003SOL    HW218909   4.942   4.125   4.132
 6004SOL     OW18910   7.009   3.422   1.721
 6004SOL    HW118911   0.027   3.388   1.809
 6004SOL    HW218912   0.069   3.465   1.672
 6005SOL     OW18913   1.469   6.178   2.113
 6005SOL    HW118914   1.470   6.109   2.186
 6005SOL    HW218915   1.473   6.269   2.153
 6006SOL     OW18916   2.579   5.599   7.015
 6006SOL    HW118917   2.623   5.519   6.975
 6006SOL    HW218918   2.564   5.583   0.097
 6007SOL     OW18919   5.094   3.647   4.450
 6007SOL    HW118920   5.001   3.677   4.475
 6007SOL    HW218921   5.158   3.675   4.520
 6008SOL     OW18922   4.871   4.162   1.528
 6008SOL    HW118923   4.872   4.091   1.458
 6008SOL    HW218924   4.838   4.124   1.614
 6009SOL     OW18925   4.618   2.069   5.072
 6009SOL    HW118926   4.701   2.112   5.107
 6009SOL    HW218927   4.601   2.101   4.979
 6010SOL     OW18928   1.811   4.274   3.193
 6010SOL    HW118929   1.743   4.341   3.162
 6010SOL    HW218930   1.802   4.191   3.138
 6011SOL     OW18931   6.229   2.106   1.737
 6011SOL    HW118932   6.221   2.009   1.760
 6011SOL    HW218933   6.201   2.120   1.642
 6012SOL     OW18934   0.419   3.103   1.416
 6012SOL    HW118935   0.341   3.140   1.365
 6012SOL    HW218936   0.391   3.083   1.510
 6013SOL     OW18937   5.301   0.240   2.574
 6013SOL    HW118938   5.391   0.213   2.540
 6013SOL    HW218939   5.240   0.256   2.497
 6014SOL     OW18940   6.481   0.870   1.051
 6014SOL    HW118941   6.418   0.794   1.064
 6014SOL    HW218942   6.442   0.936   0.986
 6015SOL     OW18943   5.516   0.065   4.085
 6015SOL    HW118944   5.447   0.077   4.157
 6015SOL    HW218945   5.496   0.126   4.009
 6016SOL     OW18946   1.999   0.352   5.234
 6016SOL    HW118947   1.955   0.397   5.313
 6016SOL    HW218948   2.045   0.421   5.178
 6017SOL     OW18949   0.405   3.840   2.613
 6017SOL    HW118950   0.361   3.835   2.703
 6017SOL    HW218951   0.473   3.914   2.613
 6018SOL     OW18952   2.691   4.875   1.572
 6018SOL    HW118953   2.756   4.802   1.552
 6018SOL    HW218954   2.740   4.961   1.588
 6019SOL     OW18955   6.567   6.223   3.282
 6019SOL    HW118956   6.545   6.268   3.196
 6019SOL    HW218957   6.484   6.215   3.337
 6020SOL     OW18958   1.771   6.638   2.839
 6020SOL    HW118959   1.853   6.685   2.807
 6020SOL    HW218960   1.699   6.647   2.770
 6021SOL     OW18961   3.708   0.614   3.473
 6021SOL    HW118962   3.676   0.546   3.538
 6021SOL    HW218963   3.685   0.585   3.380
 6022SOL     OW18964   3.895   0.913   5.428
 6022SOL    HW118965   3.943   0.826   5.414
 6022SOL    HW218966   3.858   0.916   5.521
 6023SOL     OW18967   0.320   2.133   2.175
 6023SOL    HW118968   0.273   2.160   2.259
 6023SOL    HW218969   0.415   2.111   2.196
 6024SOL     OW18970   6.513   5.661   2.770
 6024SOL    HW118971   6.468   5.676   2.858
 6024SOL    HW218972   6.445   5.664   2.697
 6025SOL     OW18973   4.451   2.227   2.588
 6025SOL    HW118974   4.374   2.184   2.541
 6025SOL    HW218975   4.501   2.286   2.525
 6026SOL     OW18976   0.854   4.416   5.555
 6026SOL    HW118977   0.818   4.326   5.531
 6026SOL    HW218978   0.858   4.425   5.654
 6027SOL     OW18979   4.109   3.651   0.618
 6027SOL    HW118980   4.021   3.604   0.624
 6027SOL    HW218981   4.110   3.728   0.682
 6028SOL     OW18982   0.630   4.444   6.961
 6028SOL    HW118983   0.579   4.523   6.993
 6028SOL    HW218984   0.728   4.466   6.956
 6029SOL     OW18985   1.145   5.284   1.656
 6029SOL    HW118986   1.199   5.252   1.578
 6029SOL    HW218987   1.072   5.345   1.624
 6030SOL     OW18988   1.848   6.535   1.771
 6030SOL    HW118989   1.825   6.438   1.758
 6030SOL    HW218990   1.896   6.546   1.858
 6031SOL     OW18991   4.870   0.921   4.206
 6031SOL    HW118992   4.923   0.988   4.258
 6031SOL    HW218993   4.872   0.833   4.254
 6032SOL     OW18994   0.913   2.489   2.536
 6032SOL    HW118995   0.872   2.495   2.628
 6032SOL    HW218996   0.965   2.405   2.528
 6033SOL     OW18997   0.518   6.920   4.605
 6033SOL    HW118998   0.590   6.895   4.539
 6033SOL    HW218999   0.551   6.903   4.698
 6034SOL     OW19000   2.255   4.438   4.909
 6034SOL    HW119001   2.325   4.401   4.970
 6034SOL    HW219002   2.192   4.364   4.882
 6035SOL     OW19003   5.161   0.050   3.746
 6035SOL    HW119004   5.147   0.015   3.839
 6035SOL    HW219005   5.092   0.012   3.685
 6036SOL     OW19006   6.644   0.652   4.614
 6036SOL    HW119007   6.676   0.733   4.564
 6036SOL    HW219008   6.547   0.638   4.596
 6037SOL     OW19009   0.337   5.616   4.889
 6037SOL    HW119010   0.422   5.669   4.893
 6037SOL    HW219011   0.339   5.545   4.959
 6038SOL     OW19012   6.599   4.189   6.822
 6038SOL    HW119013   6.630   4.214   6.730
 6038SOL    HW219014   6.506   4.223   6.836
 6039SOL     OW19015   3.978   3.130   4.364
 6039SOL    HW119016   3.989   3.211   4.305
 6039SOL    HW219017   3.945   3.054   4.309
 6040SOL     OW19018   1.222   0.951   1.137
 6040SOL    HW119019   1.254   0.999   1.219
 6040SOL    HW219020   1.300   0.932   1.078
 6041SOL     OW19021   0.539   2.977   0.116
 6041SOL    HW119022   0.588   3.055   0.156
 6041SOL    HW219023   0.440   2.993   0.123
 6042SOL     OW19024   4.879   5.349   5.030
 6042SOL    HW119025   4.780   5.361   5.020
 6042SOL    HW219026   4.908   5.266   4.982
 6043SOL     OW19027   0.319   4.351   3.944
 6043SOL    HW119028   0.373   4.405   3.880
 6043SOL    HW219029   0.313   4.399   4.031
 6044SOL     OW19030   1.709   0.456   1.215
 6044SOL    HW119031   1.699   0.555   1.229
 6044SOL    HW219032   1.721   0.412   1.304
 6045SOL     OW19033   6.642   4.020   0.504
 6045SOL    HW119034   6.610   3.948   0.565
 6045SOL    HW219035   6.737   4.042   0.525
 6046SOL     OW19036   1.645   3.876   6.920
 6046SOL    HW119037   1.720   3.842   6.863
 6046SOL    HW219038   1.683   3.924   6.999
 6047SOL     OW19039   0.694   5.868   5.017
 6047SOL    HW119040   0.609   5.921   5.012
 6047SOL    HW219041   0.687   5.788   4.958
 6048SOL     OW19042   4.556   6.225   4.529
 6048SOL    HW119043   4.483   6.264   4.474
 6048SOL    HW219044   4.548   6.259   4.623
 6049SOL     OW19045   6.786   5.589   0.154
 6049SOL    HW119046   6.804   5.525   0.229
 6049SOL    HW219047   6.787   5.683   0.189
 6050SOL     OW19048   5.621   4.565   5.540
 6050SOL    HW119049   5.663   4.520   5.461
 6050SOL    HW219050   5.579   4.496   5.599
 6051SOL     OW19051   3.256   2.114   3.882
 6051SOL    HW119052   3.192   2.167   3.827
 6051SOL    HW219053   3.226   2.114   3.977
 6052SOL     OW19054   0.224   1.703   0.072
 6052SOL    HW119055   0.214   1.708   0.171
 6052SOL    HW219056   0.147   1.748   0.028
 6053SOL     OW19057   1.460   0.345   6.283
 6053SOL    HW119058   1.461   0.366   6.185
 6053SOL    HW219059   1.444   0.248   6.296
 6054SOL     OW19060   1.189   4.225   6.292
 6054SOL    HW119061   1.255   4.292   6.326
 6054SOL    HW219062   1.237   4.141   6.266
 6055SOL     OW19063   5.548   0.002   2.832
 6055SOL    HW119064   5.618   0.054   2.883
 6055SOL    HW219065   5.593   6.953   2.770
 6056SOL     OW19066   5.388   3.356   6.191
 6056SOL    HW119067   5.369   3.385   6.097
 6056SOL    HW219068   5.304   3.320   6.232
 6057SOL     OW19069   3.821   0.945   6.483
 6057SOL    HW119070   3.843   1.020   6.545
 6057SOL    HW219071   3.891   0.874   6.490
 6058SOL     OW19072   5.360   1.792   5.013
 6058SOL    HW119073   5.440   1.764   5.066
 6058SOL    HW219074   5.379   1.781   4.916
 6059SOL     OW19075   0.215   6.285   6.401
 6059SOL    HW119076   0.143   6.231   6.445
 6059SOL    HW219077   0.189   6.381   6.399
 6060SOL     OW19078   3.181   5.975   6.360
 6060SOL    HW119079   3.146   5.991   6.452
 6060SOL    HW219080   3.166   5.879   6.335
 6061SOL     OW19081   2.032   1.752   0.022
 6061SOL    HW119082   2.126   1.722   0.041
 6061SOL    HW219083   2.012   1.834   0.076
 6062SOL     OW19084   1.391   0.068   4.257
 6062SOL    HW119085   1.447   0.134   4.207
 6062SOL    HW219086   1.383   6.999   4.203
 6063SOL     OW19087   5.956   5.889   0.200
 6063SOL    HW119088   5.902   5.963   0.160
 6063SOL    HW219089   6.053   5.905   0.183
 6064SOL     OW19090   0.992   4.763   2.327
 6064SOL    HW119091   0.979   4.841   2.266
 6064SOL    HW219092   0.910   4.705   2.324
 6065SOL     OW19093   5.523   6.888   1.892
 6065SOL    HW119094   5.501   6.800   1.850
 6065SOL    HW219095   5.614   6.884   1.934
 6066SOL     OW19096   4.074   1.750   5.648
 6066SOL    HW119097   4.051   1.749   5.551
 6066SOL    HW219098   4.035   1.832   5.691
 6067SOL     OW19099   4.553   2.048   6.814
 6067SOL    HW119100   4.649   2.075   6.806
 6067SOL    HW219101   4.548   1.955   6.850
 6068SOL     OW19102   5.407   1.000   5.589
 6068SOL    HW119103   5.407   0.947   5.673
 6068SOL    HW219104   5.322   1.054   5.583
 6069SOL     OW19105   6.124   5.384   3.589
 6069SOL    HW119106   6.223   5.373   3.603
 6069SOL    HW219107   6.101   5.481   3.589
 6070SOL     OW19108   4.954   3.020   0.423
 6070SOL    HW119109   5.054   3.024   0.421
 6070SOL    HW219110   4.923   3.020   0.518
 6071SOL     OW19111   5.308   6.878   5.239
 6071SOL    HW119112   5.320   6.958   5.299
 6071SOL    HW219113   5.239   6.817   5.278
 6072SOL     OW19114   6.295   1.714   1.152
 6072SOL    HW119115   6.358   1.792   1.147
 6072SOL    HW219116   6.243   1.718   1.237
 6073SOL     OW19117   6.152   1.074   1.534
 6073SOL    HW119118   6.158   1.158   1.478
 6073SOL    HW219119   6.230   1.015   1.512
 6074SOL     OW19120   0.958   0.605   5.357
 6074SOL    HW119121   0.952   0.506   5.374
 6074SOL    HW219122   0.925   0.624   5.265
 6075SOL     OW19123   4.848   3.526   6.192
 6075SOL    HW119124   4.834   3.625   6.198
 6075SOL    HW219125   4.859   3.488   6.284
 6076SOL     OW19126   2.572   0.430   3.652
 6076SOL    HW119127   2.604   0.519   3.619
 6076SOL    HW219128   2.473   0.424   3.641
 6077SOL     OW19129   4.859   4.751   2.976
 6077SOL    HW119130   4.936   4.701   3.014
 6077SOL    HW219131   4.814   4.803   3.048
 6078SOL     OW19132   1.926   4.096   3.597
 6078SOL    HW119133   1.990   4.042   3.542
 6078SOL    HW219134   1.893   4.040   3.673
 6079SOL     OW19135   3.206   1.843   0.842
 6079SOL    HW119136   3.169   1.935   0.858
 6079SOL    HW219137   3.231   1.801   0.930
 6080SOL     OW19138   5.954   3.118   3.252
 6080SOL    HW119139   5.991   3.086   3.340
 6080SOL    HW219140   5.895   3.197   3.268
 6081SOL     OW19141   0.403   4.135   2.472
 6081SOL    HW119142   0.310   4.098   2.460
 6081SOL    HW219143   0.468   4.076   2.424
 6082SOL     OW19144   4.086   1.738   4.786
 6082SOL    HW119145   4.125   1.653   4.749
 6082SOL    HW219146   4.040   1.719   4.873
 6083SOL     OW19147   1.898   6.283   6.878
 6083SOL    HW119148   1.834   6.244   6.812
 6083SOL    HW219149   1.956   6.210   6.915
 6084SOL     OW19150   0.145   5.213   6.053
 6084SOL    HW119151   0.186   5.283   5.994
 6084SOL    HW219152   0.059   5.181   6.013
 6085SOL     OW19153   4.908   5.378   1.417
 6085SOL    HW119154   4.868   5.292   1.446
 6085SOL    HW219155   5.000   5.362   1.381
 6086SOL     OW19156   3.268   1.643   2.524
 6086SOL    HW119157   3.337   1.703   2.566
 6086SOL    HW219158   3.300   1.614   2.434
 6087SOL     OW19159   3.659   0.347   0.607
 6087SOL    HW119160   3.730   0.309   0.547
 6087SOL    HW219161   3.621   0.429   0.564
 6088SOL     OW19162   6.899   0.349   4.742
 6088SOL    HW119163   6.916   0.276   4.808
 6088SOL    HW219164   6.966   0.423   4.756
 6089SOL     OW19165   6.441   3.941   1.061
 6089SOL    HW119166   6.452   3.886   0.979
 6089SOL    HW219167   6.348   3.978   1.065
 6090SOL     OW19168   6.688   5.741   4.389
 6090SOL    HW119169   6.740   5.821   4.357
 6090SOL    HW219170   6.689   5.738   4.489
 6091SOL     OW19171   6.568   2.503   1.678
 6091SOL    HW119172   6.605   2.453   1.600
 6091SOL    HW219173   6.521   2.440   1.740
 6092SOL     OW19174   1.330   3.326   1.065
 6092SOL    HW119175   1.421   3.304   1.101
 6092SOL    HW219176   1.285   3.242   1.035
 6093SOL     OW19177   1.149   4.600   0.645
 6093SOL    HW119178   1.196   4.682   0.613
 6093SOL    HW219179   1.088   4.567   0.573
 6094SOL     OW19180   0.540   1.467   0.800
 6094SOL    HW119181   0.502   1.431   0.885
 6094SOL    HW219182   0.467   1.475   0.732
 6095SOL     OW19183   6.253   4.129   5.053
 6095SOL    HW119184   6.216   4.119   4.960
 6095SOL    HW219185   6.314   4.052   5.072
 6096SOL     OW19186   5.132   2.065   2.764
 6096SOL    HW119187   5.130   2.158   2.727
 6096SOL    HW219188   5.065   2.008   2.715
 6097SOL     OW19189   3.419   2.089   2.910
 6097SOL    HW119190   3.384   1.997   2.925
 6097SOL    HW219191   3.490   2.109   2.979
 6098SOL     OW19192   0.978   0.201   6.682
 6098SOL    HW119193   0.886   0.239   6.687
 6098SOL    HW219194   1.028   0.222   6.766
 6099SOL     OW19195   5.707   4.654   4.761
 6099SOL    HW119196   5.781   4.588   4.773
 6099SOL    HW219197   5.619   4.610   4.777
 6100SOL     OW19198   7.005   2.900   0.228
 6100SOL    HW119199   6.971   2.924   0.319
 6100SOL    HW219200   6.927   2.883   0.167
 6101SOL     OW19201   6.583   6.713   3.520
 6101SOL    HW119202   6.623   6.805   3.517
 6101SOL    HW219203   6.562   6.689   3.615
 6102SOL     OW19204   2.819   6.600   4.791
 6102SOL    HW119205   2.785   6.575   4.881
 6102SOL    HW219206   2.853   6.694   4.792
 6103SOL     OW19207   5.544   1.721   5.201
 6103SOL    HW119208   5.635   1.692   5.172
 6103SOL    HW219209   5.553   1.785   5.277
 6104SOL     OW19210   1.740   2.760   1.008
 6104SOL    HW119211   1.678   2.715   1.072
 6104SOL    HW219212   1.716   2.733   0.914
 6105SOL     OW19213   2.984   4.975   4.738
 6105SOL    HW119214   2.943   5.057   4.779
 6105SOL    HW219215   2.920   4.899   4.743
 6106SOL     OW19216   2.264   4.801   4.216
 6106SOL    HW119217   2.195   4.861   4.174
 6106SOL    HW219218   2.290   4.837   4.305
 6107SOL     OW19219   2.371   5.048   5.903
 6107SOL    HW119220   2.351   5.096   5.989
 6107SOL    HW219221   2.426   4.967   5.922
 6108SOL     OW19222   5.491   1.711   4.756
 6108SOL    HW119223   5.526   1.673   4.670
 6108SOL    HW219224   5.477   1.809   4.747
 6109SOL     OW19225   0.073   4.057   1.812
 6109SOL    HW119226   0.055   3.966   1.850
 6109SOL    HW219227   7.002   4.104   1.797
 6110SOL     OW19228   3.532   2.066   3.359
 6110SOL    HW119229   3.631   2.075   3.372
 6110SOL    HW219230   3.486   2.071   3.447
 6111SOL     OW19231   0.259   4.430   3.633
 6111SOL    HW119232   0.309   4.488   3.697
 6111SOL    HW219233   0.303   4.340   3.629
 6112SOL     OW19234   1.385   1.861   1.140
 6112SOL    HW119235   1.475   1.896   1.164
 6112SOL    HW219236   1.387   1.823   1.047
 6113SOL     OW19237   1.726   4.773   5.041
 6113SOL    HW119238   1.661   4.805   5.110
 6113SOL    HW219239   1.759   4.682   5.066
 6114SOL     OW19240   4.513   4.552   0.886
 6114SOL    HW119241   4.587   4.532   0.822
 6114SOL    HW219242   4.427   4.515   0.849
 6115SOL     OW19243   6.645   4.968   2.087
 6115SOL    HW119244   6.639   5.065   2.064
 6115SOL    HW219245   6.625   4.913   2.006
 6116SOL     OW19246   3.752   2.281   1.101
 6116SOL    HW119247   3.838   2.321   1.071
 6116SOL    HW219248   3.759   2.254   1.197
 6117SOL     OW19249   5.613   6.371   3.862
 6117SOL    HW119250   5.534   6.329   3.908
 6117SOL    HW219251   5.675   6.409   3.930
 6118SOL     OW19252   6.790   7.002   3.240
 6118SOL    HW119253   6.849   0.067   3.242
 6118SOL    HW219254   6.744   6.996   3.151
 6119SOL     OW19255   5.317   5.568   4.286
 6119SOL    HW119256   5.402   5.618   4.267
 6119SOL    HW219257   5.337   5.489   4.343
 6120SOL     OW19258   2.293   1.864   3.355
 6120SOL    HW119259   2.354   1.942   3.370
 6120SOL    HW219260   2.266   1.861   3.258
 6121SOL     OW19261   6.932   1.744   4.598
 6121SOL    HW119262   6.932   1.684   4.678
 6121SOL    HW219263   6.962   1.836   4.625
 6122SOL     OW19264   3.811   5.861   4.276
 6122SOL    HW119265   3.731   5.801   4.271
 6122SOL    HW219266   3.873   5.840   4.201
 6123SOL     OW19267   5.405   1.505   2.899
 6123SOL    HW119268   5.406   1.405   2.908
 6123SOL    HW219269   5.320   1.533   2.853
 6124SOL     OW19270   2.999   0.293   4.605
 6124SOL    HW119271   3.091   0.291   4.566
 6124SOL    HW219272   2.998   0.354   4.684
 6125SOL     OW19273   1.194   4.499   2.517
 6125SOL    HW119274   1.097   4.473   2.520
 6125SOL    HW219275   1.205   4.581   2.461
 6126SOL     OW19276   3.495   6.435   2.740
 6126SOL    HW119277   3.396   6.441   2.751
 6126SOL    HW219278   3.519   6.456   2.645
 6127SOL     OW19279   1.650   5.451   1.971
 6127SOL    HW119280   1.679   5.365   1.929
 6127SOL    HW219281   1.552   5.465   1.952
 6128SOL     OW19282   5.215   4.046   1.397
 6128SOL    HW119283   5.305   4.076   1.429
 6128SOL    HW219284   5.157   4.024   1.476
 6129SOL     OW19285   6.345   3.844   3.538
 6129SOL    HW119286   6.281   3.820   3.611
 6129SOL    HW219287   6.297   3.897   3.467
 6130SOL     OW19288   5.777   3.422   2.778
 6130SOL    HW119289   5.696   3.372   2.808
 6130SOL    HW219290   5.788   3.505   2.833
 6131SOL     OW19291   6.412   0.734   5.173
 6131SOL    HW119292   6.507   0.727   5.204
 6131SOL    HW219293   6.351   0.729   5.252
 6132SOL     OW19294   0.329   2.427   0.428
 6132SOL    HW119295   0.348   2.488   0.351
 6132SOL    HW219296   0.324   2.332   0.396
 6133SOL     OW19297   1.212   4.775   0.203
 6133SOL    HW119298   1.224   4.838   0.279
 6133SOL    HW219299   1.253   4.687   0.226
 6134SOL     OW19300   4.806   4.085   6.740
 6134SOL    HW119301   4.770   4.024   6.670
 6134SOL    HW219302   4.840   4.031   6.817
 6135SOL     OW19303   5.813   0.105   2.911
 6135SOL    HW119304   5.804   0.007   2.890
 6135SOL    HW219305   5.859   0.151   2.835
 6136SOL     OW19306   1.568   1.672   2.345
 6136SOL    HW119307   1.478   1.630   2.340
 6136SOL    HW219308   1.559   1.766   2.378
 6137SOL     OW19309   3.587   0.123   6.639
 6137SOL    HW119310   3.511   0.185   6.619
 6137SOL    HW219311   3.569   0.034   6.599
 6138SOL     OW19312   4.987   0.566   2.872
 6138SOL    HW119313   4.893   0.532   2.871
 6138SOL    HW219314   5.040   0.521   2.800
 6139SOL     OW19315   2.824   6.078   3.714
 6139SOL    HW119316   2.916   6.080   3.676
 6139SOL    HW219317   2.758   6.098   3.642
 6140SOL     OW19318   2.238   5.569   1.368
 6140SOL    HW119319   2.229   5.486   1.424
 6140SOL    HW219320   2.219   5.547   1.273
 6141SOL     OW19321   0.749   5.905   5.267
 6141SOL    HW119322   0.837   5.867   5.294
 6141SOL    HW219323   0.735   5.890   5.169
 6142SOL     OW19324   0.177   3.632   3.678
 6142SOL    HW119325   0.221   3.596   3.761
 6142SOL    HW219326   0.078   3.616   3.683
 6143SOL     OW19327   6.099   5.183   6.573
 6143SOL    HW119328   6.077   5.089   6.549
 6143SOL    HW219329   6.174   5.184   6.639
 6144SOL     OW19330   6.971   5.372   4.149
 6144SOL    HW119331   7.009   5.446   4.093
 6144SOL    HW219332   6.886   5.403   4.192
 6145SOL     OW19333   5.461   5.212   3.045
 6145SOL    HW119334   5.437   5.181   3.137
 6145SOL    HW219335   5.533   5.282   3.052
 6146SOL     OW19336   5.862   1.835   3.667
 6146SOL    HW119337   5.774   1.879   3.685
 6146SOL    HW219338   5.936   1.901   3.681
 6147SOL     OW19339   1.104   3.706   3.516
 6147SOL    HW119340   1.080   3.696   3.613
 6147SOL    HW219341   1.191   3.755   3.508
 6148SOL     OW19342   6.444   6.023   2.804
 6148SOL    HW119343   6.491   5.935   2.795
 6148SOL    HW219344   6.507   6.097   2.784
 6149SOL     OW19345   1.282   5.574   4.643
 6149SOL    HW119346   1.291   5.604   4.548
 6149SOL    HW219347   1.292   5.474   4.648
 6150SOL     OW19348   4.275   6.489   6.220
 6150SOL    HW119349   4.281   6.467   6.123
 6150SOL    HW219350   4.339   6.563   6.241
 6151SOL     OW19351   4.872   0.211   5.379
 6151SOL    HW119352   4.967   0.200   5.349
 6151SOL    HW219353   4.868   0.209   5.479
 6152SOL     OW19354   6.384   4.191   5.620
 6152SOL    HW119355   6.314   4.122   5.639
 6152SOL    HW219356   6.470   4.163   5.663
 6153SOL     OW19357   3.803   5.438   5.605
 6153SOL    HW119358   3.851   5.355   5.577
 6153SOL    HW219359   3.835   5.515   5.550
 6154SOL     OW19360   5.446   3.166   3.131
 6154SOL    HW119361   5.394   3.108   3.068
 6154SOL    HW219362   5.383   3.229   3.177
 6155SOL     OW19363   2.408   4.501   4.716
 6155SOL    HW119364   2.396   4.428   4.649
 6155SOL    HW219365   2.354   4.480   4.797
 6156SOL     OW19366   5.701   0.430   4.841
 6156SOL    HW119367   5.752   0.377   4.909
 6156SOL    HW219368   5.747   0.424   4.752
 6157SOL     OW19369   0.795   1.176   4.695
 6157SOL    HW119370   0.892   1.184   4.673
 6157SOL    HW219371   0.767   1.254   4.751
 6158SOL     OW19372   5.504   0.052   6.965
 6158SOL    HW119373   5.516   0.146   6.998
 6158SOL    HW219374   5.535   7.003   0.020
 6159SOL     OW19375   5.033   3.400   6.766
 6159SOL    HW119376   4.950   3.345   6.771
 6159SOL    HW219377   5.113   3.340   6.762
 6160SOL     OW19378   6.596   4.991   0.111
 6160SOL    HW119379   6.609   5.019   0.016
 6160SOL    HW219380   6.643   5.055   0.172
 6161SOL     OW19381   5.915   0.139   6.253
 6161SOL    HW119382   5.960   0.222   6.284
 6161SOL    HW219383   5.984   0.076   6.216
 6162SOL     OW19384   5.296   5.225   4.072
 6162SOL    HW119385   5.293   5.135   4.116
 6162SOL    HW219386   5.383   5.270   4.095
 6163SOL     OW19387   6.413   3.821   2.827
 6163SOL    HW119388   6.342   3.890   2.838
 6163SOL    HW219389   6.501   3.866   2.812
 6164SOL     OW19390   4.407   3.258   1.377
 6164SOL    HW119391   4.398   3.160   1.357
 6164SOL    HW219392   4.485   3.273   1.438
 6165SOL     OW19393   4.016   0.389   1.371
 6165SOL    HW119394   4.045   0.463   1.311
 6165SOL    HW219395   4.021   0.302   1.322
 6166SOL     OW19396   3.161   0.717   0.474
 6166SOL    HW119397   3.125   0.792   0.528
 6166SOL    HW219398   3.120   0.631   0.505
 6167SOL     OW19399   6.581   5.385   3.455
 6167SOL    HW119400   6.640   5.421   3.383
 6167SOL    HW219401   6.505   5.335   3.414
 6168SOL     OW19402   0.058   3.021   1.372
 6168SOL    HW119403   0.118   3.066   1.307
 6168SOL    HW219404   6.992   3.077   1.386
 6169SOL     OW19405   1.545   4.089   1.190
 6169SOL    HW119406   1.504   4.002   1.163
 6169SOL    HW219407   1.489   4.164   1.155
 6170SOL     OW19408   6.664   1.818   3.322
 6170SOL    HW119409   6.602   1.778   3.389
 6170SOL    HW219410   6.628   1.907   3.293
 6171SOL     OW19411   5.882   1.554   6.287
 6171SOL    HW119412   5.951   1.586   6.351
 6171SOL    HW219413   5.889   1.455   6.277
 6172SOL     OW19414   0.088   4.632   3.653
 6172SOL    HW119415   0.132   4.710   3.610
 6172SOL    HW219416   0.149   4.553   3.649
 6173SOL     OW19417   5.485   6.342   3.014
 6173SOL    HW119418   5.484   6.295   2.925
 6173SOL    HW219419   5.391   6.355   3.045
 6174SOL     OW19420   6.986   2.127   3.393
 6174SOL    HW119421   0.032   2.202   3.369
 6174SOL    HW219422   6.963   2.133   3.491
 6175SOL     OW19423   3.848   1.635   0.035
 6175SOL    HW119424   3.818   1.539   0.037
 6175SOL    HW219425   3.783   1.690   6.999
 6176SOL     OW19426   3.000   4.588   6.141
 6176SOL    HW119427   3.047   4.645   6.073
 6176SOL    HW219428   3.019   4.622   6.233
 6177SOL     OW19429   5.756   5.549   1.945
 6177SOL    HW119430   5.704   5.574   2.027
 6177SOL    HW219431   5.694   5.543   1.867
 6178SOL     OW19432   4.117   4.695   1.951
 6178SOL    HW119433   4.196   4.644   1.919
 6178SOL    HW219434   4.041   4.684   1.886
 6179SOL     OW19435   5.004   5.704   5.107
 6179SOL    HW119436   5.042   5.651   5.031
 6179SOL    HW219437   4.926   5.655   5.147
 6180SOL     OW19438   2.048   3.849   6.877
 6180SOL    HW119439   2.068   3.947   6.869
 6180SOL    HW219440   2.027   3.826   6.972
 6181SOL     OW19441   6.682   6.613   6.956
 6181SOL    HW119442   6.718   6.668   0.017
 6181SOL    HW219443   6.711   6.654   6.870
 6182SOL     OW19444   3.429   2.703   6.592
 6182SOL    HW119445   3.393   2.733   6.504
 6182SOL    HW219446   3.529   2.695   6.586
 6183SOL     OW19447   0.212   0.485   0.010
 6183SOL    HW119448   0.294   0.519   0.057
 6183SOL    HW219449   0.156   0.435   0.075
 6184SOL     OW19450   3.274   6.771   5.518
 6184SOL    HW119451   3.234   6.715   5.590
 6184SOL    HW219452   3.259   6.868   5.538
 6185SOL     OW19453   3.784   3.008   4.208
 6185SOL    HW119454   3.764   2.959   4.293
 6185SOL    HW219455   3.700   3.046   4.170
 6186SOL     OW19456   0.921   1.833   2.474
 6186SOL    HW119457   1.019   1.833   2.452
 6186SOL    HW219458   0.876   1.905   2.421
 6187SOL     OW19459   3.450   1.938   5.959
 6187SOL    HW119460   3.475   1.867   6.025
 6187SOL    HW219461   3.389   1.899   5.890
 6188SOL     OW19462   1.836   1.684   5.620
 6188SOL    HW119463   1.904   1.751   5.652
 6188SOL    HW219464   1.748   1.729   5.609
 6189SOL     OW19465   6.587   5.640   0.395
 6189SOL    HW119466   6.613   5.695   0.474
 6189SOL    HW219467   6.643   5.558   0.392
 6190SOL     OW19468   0.848   3.279   3.433
 6190SOL    HW119469   0.810   3.357   3.383
 6190SOL    HW219470   0.785   3.253   3.506
 6191SOL     OW19471   2.919   4.561   0.215
 6191SOL    HW119472   2.986   4.508   0.268
 6191SOL    HW219473   2.831   4.514   0.217
 6192SOL     OW19474   3.577   1.655   1.645
 6192SOL    HW119475   3.597   1.562   1.613
 6192SOL    HW219476   3.478   1.669   1.645
 6193SOL     OW19477   4.298   5.568   6.543
 6193SOL    HW119478   4.383   5.613   6.516
 6193SOL    HW219479   4.274   5.594   6.637
 6194SOL     OW19480   5.159   0.139   5.908
 6194SOL    HW119481   5.253   0.110   5.892
 6194SOL    HW219482   5.154   0.239   5.908
 6195SOL     OW19483   4.410   5.857   5.623
 6195SOL    HW119484   4.407   5.788   5.696
 6195SOL    HW219485   4.391   5.813   5.535
 6196SOL     OW19486   0.012   3.578   3.289
 6196SOL    HW119487   0.102   3.589   3.247
 6196SOL    HW219488   0.012   3.497   3.347
 6197SOL     OW19489   1.232   5.564   0.553
 6197SOL    HW119490   1.162   5.533   0.617
 6197SOL    HW219491   1.273   5.649   0.587
 6198SOL     OW19492   6.323   1.501   6.327
 6198SOL    HW119493   6.417   1.506   6.295
 6198SOL    HW219494   6.291   1.406   6.322
 6199SOL     OW19495   2.424   6.864   6.455
 6199SOL    HW119496   2.365   6.920   6.397
 6199SOL    HW219497   2.446   6.779   6.408
 6200SOL     OW19498   1.714   6.674   0.084
 6200SOL    HW119499   1.728   6.684   0.183
 6200SOL    HW219500   1.752   6.587   0.054
 6201SOL     OW19501   0.378   4.690   3.384
 6201SOL    HW119502   0.476   4.705   3.371
 6201SOL    HW219503   0.352   4.716   3.477
 6202SOL     OW19504   5.461   1.239   1.930
 6202SOL    HW119505   5.527   1.189   1.986
 6202SOL    HW219506   5.446   1.190   1.844
 6203SOL     OW19507   6.584   1.527   2.246
 6203SOL    HW119508   6.656   1.461   2.227
 6203SOL    HW219509   6.599   1.610   2.192
 6204SOL     OW19510   1.164   6.036   4.620
 6204SOL    HW119511   1.215   5.970   4.675
 6204SOL    HW219512   1.131   5.992   4.537
 6205SOL     OW19513   6.553   4.557   3.468
 6205SOL    HW119514   6.584   4.496   3.394
 6205SOL    HW219515   6.538   4.503   3.551
 6206SOL     OW19516   4.812   2.039   3.298
 6206SOL    HW119517   4.910   2.030   3.315
 6206SOL    HW219518   4.762   1.977   3.358
 6207SOL     OW19519   1.830   5.782   3.686
 6207SOL    HW119520   1.774   5.854   3.644
 6207SOL    HW219521   1.815   5.696   3.637
 6208SOL     OW19522   3.610   4.121   6.405
 6208SOL    HW119523   3.679   4.159   6.466
 6208SOL    HW219524   3.653   4.090   6.320
 6209SOL     OW19525   3.524   1.074   2.453
 6209SOL    HW119526   3.520   1.172   2.434
 6209SOL    HW219527   3.612   1.053   2.495
 6210SOL     OW19528   5.932   1.069   4.010
 6210SOL    HW119529   6.019   1.114   3.993
 6210SOL    HW219530   5.938   0.973   3.984
 6211SOL     OW19531   5.304   2.761   5.268
 6211SOL    HW119532   5.210   2.774   5.300
 6211SOL    HW219533   5.318   2.665   5.246
 6212SOL     OW19534   5.409   4.099   5.027
 6212SOL    HW119535   5.407   4.162   4.949
 6212SOL    HW219536   5.405   4.005   4.994
 6213SOL     OW19537   5.020   5.714   0.343
 6213SOL    HW119538   5.074   5.788   0.384
 6213SOL    HW219539   5.081   5.640   0.316
 6214SOL     OW19540   6.834   6.831   6.264
 6214SOL    HW119541   6.848   6.812   6.167
 6214SOL    HW219542   6.902   6.781   6.318
 6215SOL     OW19543   5.924   2.175   4.863
 6215SOL    HW119544   5.913   2.186   4.962
 6215SOL    HW219545   5.991   2.103   4.845
 6216SOL     OW19546   5.371   2.442   5.454
 6216SOL    HW119547   5.311   2.502   5.507
 6216SOL    HW219548   5.320   2.361   5.425
 6217SOL     OW19549   6.828   4.252   2.147
 6217SOL    HW119550   6.882   4.295   2.074
 6217SOL    HW219551   6.889   4.201   2.207
 6218SOL     OW19552   4.892   6.513   0.988
 6218SOL    HW119553   4.991   6.524   0.998
 6218SOL    HW219554   4.846   6.572   1.055
 6219SOL     OW19555   2.533   0.746   0.309
 6219SOL    HW119556   2.627   0.715   0.326
 6219SOL    HW219557   2.505   0.716   0.218
 6220SOL     OW19558   3.127   0.689   2.465
 6220SOL    HW119559   3.179   0.773   2.477
 6220SOL    HW219560   3.172   0.631   2.397
 6221SOL     OW19561   4.367   5.322   5.229
 6221SOL    HW119562   4.298   5.315   5.301
 6221SOL    HW219563   4.355   5.248   5.164
 6222SOL     OW19564   6.211   1.570   2.215
 6222SOL    HW119565   6.160   1.654   2.235
 6222SOL    HW219566   6.286   1.561   2.280
 6223SOL     OW19567   6.345   5.203   3.660
 6223SOL    HW119568   6.281   5.166   3.728
 6223SOL    HW219569   6.436   5.208   3.699
 6224SOL     OW19570   3.919   6.761   0.062
 6224SOL    HW119571   4.018   6.745   0.058
 6224SOL    HW219572   3.872   6.675   0.082
 6225SOL     OW19573   5.041   6.079   6.764
 6225SOL    HW119574   5.002   6.148   6.825
 6225SOL    HW219575   5.047   6.116   6.672
 6226SOL     OW19576   0.951   1.028   4.195
 6226SOL    HW119577   0.981   1.067   4.108
 6226SOL    HW219578   0.872   0.969   4.180
 6227SOL     OW19579   2.081   4.434   6.290
 6227SOL    HW119580   2.034   4.464   6.206
 6227SOL    HW219581   2.029   4.464   6.370
 6228SOL     OW19582   0.388   3.270   4.067
 6228SOL    HW119583   0.325   3.193   4.065
 6228SOL    HW219584   0.478   3.240   4.034
 6229SOL     OW19585   0.243   4.074   5.075
 6229SOL    HW119586   0.293   4.094   4.991
 6229SOL    HW219587   0.181   4.149   5.096
 6230SOL     OW19588   0.978   0.801   1.529
 6230SOL    HW119589   0.954   0.704   1.539
 6230SOL    HW219590   0.937   0.837   1.445
 6231SOL     OW19591   2.196   5.652   5.941
 6231SOL    HW119592   2.198   5.573   5.880
 6231SOL    HW219593   2.129   5.719   5.908
 6232SOL     OW19594   4.190   0.309   6.579
 6232SOL    HW119595   4.191   0.351   6.670
 6232SOL    HW219596   4.099   0.271   6.560
 6233SOL     OW19597   6.993   4.385   1.424
 6233SOL    HW119598   6.915   4.443   1.401
 6233SOL    HW219599   0.027   4.424   1.502
 6234SOL     OW19600   4.598   5.537   3.387
 6234SOL    HW119601   4.654   5.541   3.470
 6234SOL    HW219602   4.638   5.596   3.317
 6235SOL     OW19603   6.986   0.717   1.615
 6235SOL    HW119604   0.059   0.749   1.580
 6235SOL    HW219605   6.925   0.795   1.628
 6236SOL     OW19606   6.627   6.003   1.590
 6236SOL    HW119607   6.604   6.099   1.604
 6236SOL    HW219608   6.603   5.975   1.497
 6237SOL     OW19609   4.250   1.354   2.559
 6237SOL    HW119610   4.240   1.429   2.494
 6237SOL    HW219611   4.276   1.390   2.649
 6238SOL     OW19612   2.646   0.697   3.587
 6238SOL    HW119613   2.610   0.757   3.515
 6238SOL    HW219614   2.617   0.731   3.677
 6239SOL     OW19615   3.704   1.538   3.770
 6239SOL    HW119616   3.722   1.500   3.861
 6239SOL    HW219617   3.789   1.568   3.729
 6240SOL     OW19618   3.951   3.503   4.030
 6240SOL    HW119619   3.994   3.572   4.088
 6240SOL    HW219620   3.857   3.486   4.062
 6241SOL     OW19621   3.834   0.036   3.139
 6241SOL    HW119622   3.892   7.015   3.066
 6241SOL    HW219623   3.885   0.104   3.191
 6242SOL     OW19624   3.326   2.163   4.627
 6242SOL    HW119625   3.235   2.144   4.664
 6242SOL    HW219626   3.374   2.228   4.686
 6243SOL     OW19627   3.212   1.134   0.205
 6243SOL    HW119628   3.270   1.120   0.125
 6243SOL    HW219629   3.269   1.138   0.287
 6244SOL     OW19630   4.682   2.442   1.770
 6244SOL    HW119631   4.604   2.490   1.811
 6244SOL    HW219632   4.732   2.505   1.711
 6245SOL     OW19633   6.913   4.825   1.978
 6245SOL    HW119634   6.839   4.757   1.984
 6245SOL    HW219635   6.939   4.836   1.882
 6246SOL     OW19636   0.931   5.692   5.159
 6246SOL    HW119637   0.893   5.608   5.119
 6246SOL    HW219638   0.989   5.738   5.092
 6247SOL     OW19639   5.765   5.167   2.765
 6247SOL    HW119640   5.839   5.186   2.701
 6247SOL    HW219641   5.730   5.074   2.749
 6248SOL     OW19642   4.716   3.062   5.786
 6248SOL    HW119643   4.667   2.981   5.818
 6248SOL    HW219644   4.651   3.128   5.748
 6249SOL     OW19645   5.707   2.468   3.380
 6249SOL    HW119646   5.642   2.476   3.305
 6249SOL    HW219647   5.789   2.522   3.361
 6250SOL     OW19648   5.200   0.410   5.849
 6250SOL    HW119649   5.143   0.489   5.825
 6250SOL    HW219650   5.235   0.422   5.942
 6251SOL     OW19651   2.435   0.958   4.130
 6251SOL    HW119652   2.343   0.981   4.098
 6251SOL    HW219653   2.500   0.970   4.055
 6252SOL     OW19654   3.293   5.032   0.511
 6252SOL    HW119655   3.201   5.021   0.548
 6252SOL    HW219656   3.289   5.035   0.411
 6253SOL     OW19657   5.269   6.317   3.424
 6253SOL    HW119658   5.222   6.401   3.451
 6253SOL    HW219659   5.368   6.330   3.430
 6254SOL     OW19660   0.089   0.108   1.956
 6254SOL    HW119661   0.056   0.035   2.016
 6254SOL    HW219662   0.012   0.162   1.922
 6255SOL     OW19663   2.110   0.532   0.778
 6255SOL    HW119664   2.120   0.536   0.678
 6255SOL    HW219665   2.034   0.471   0.801
 6256SOL     OW19666   6.571   4.811   2.303
 6256SOL    HW119667   6.577   4.875   2.226
 6256SOL    HW219668   6.574   4.717   2.268
 6257SOL     OW19669   4.041   4.209   0.824
 6257SOL    HW119670   4.068   4.266   0.902
 6257SOL    HW219671   3.971   4.256   0.771
 6258SOL     OW19672   3.988   4.966   4.828
 6258SOL    HW119673   4.004   4.928   4.919
 6258SOL    HW219674   4.072   4.962   4.775
 6259SOL     OW19675   4.435   0.801   4.710
 6259SOL    HW119676   4.414   0.827   4.804
 6259SOL    HW219677   4.375   0.849   4.647
 6260SOL     OW19678   3.462   2.231   6.987
 6260SOL    HW119679   3.433   2.200   0.062
 6260SOL    HW219680   3.386   2.222   6.922
 6261SOL     OW19681   4.035   6.861   0.877
 6261SOL    HW119682   4.130   6.882   0.851
 6261SOL    HW219683   3.973   6.920   0.826
 6262SOL     OW19684   6.204   0.940   2.997
 6262SOL    HW119685   6.180   1.007   3.067
 6262SOL    HW219686   6.287   0.970   2.949
 6263SOL     OW19687   6.161   5.895   6.103
 6263SOL    HW119688   6.143   5.949   6.185
 6263SOL    HW219689   6.253   5.855   6.109
 6264SOL     OW19690   0.986   6.169   0.776
 6264SOL    HW119691   0.893   6.170   0.739
 6264SOL    HW219692   0.995   6.239   0.846
 6265SOL     OW19693   3.915   6.567   6.650
 6265SOL    HW119694   3.948   6.657   6.676
 6265SOL    HW219695   3.839   6.576   6.586
 6266SOL     OW19696   2.913   5.249   2.950
 6266SOL    HW119697   2.828   5.289   2.914
 6266SOL    HW219698   2.967   5.213   2.874
 6267SOL     OW19699   0.352   6.430   4.549
 6267SOL    HW119700   0.283   6.502   4.544
 6267SOL    HW219701   0.313   6.348   4.591
 6268SOL     OW19702   3.277   1.605   1.676
 6268SOL    HW119703   3.235   1.618   1.766
 6268SOL    HW219704   3.290   1.508   1.659
 6269SOL     OW19705   6.895   6.242   0.173
 6269SOL    HW119706   6.949   6.316   0.214
 6269SOL    HW219707   6.947   6.200   0.099
 6270SOL     OW19708   1.380   6.511   0.780
 6270SOL    HW119709   1.469   6.492   0.821
 6270SOL    HW219710   1.351   6.433   0.725
 6271SOL     OW19711   6.949   3.370   5.332
 6271SOL    HW119712   0.006   3.407   5.273
 6271SOL    HW219713   6.898   3.446   5.373
 6272SOL     OW19714   0.769   1.319   0.704
 6272SOL    HW119715   0.760   1.311   0.605
 6272SOL    HW219716   0.686   1.359   0.743
 6273SOL     OW19717   1.037   6.552   3.315
 6273SOL    HW119718   1.070   6.583   3.404
 6273SOL    HW219719   1.069   6.459   3.298
 6274SOL     OW19720   3.009   5.661   4.427
 6274SOL    HW119721   2.942   5.621   4.365
 6274SOL    HW219722   3.101   5.636   4.397
 6275SOL     OW19723   2.831   5.574   1.277
 6275SOL    HW119724   2.900   5.610   1.340
 6275SOL    HW219725   2.874   5.512   1.212
 6276SOL     OW19726   1.931   4.820   2.480
 6276SOL    HW119727   1.871   4.883   2.432
 6276SOL    HW219728   1.912   4.726   2.449
 6277SOL     OW19729   4.814   2.633   1.615
 6277SOL    HW119730   4.738   2.645   1.551
 6277SOL    HW219731   4.797   2.686   1.698
 6278SOL     OW19732   3.155   3.097   0.451
 6278SOL    HW119733   3.124   3.183   0.492
 6278SOL    HW219734   3.077   3.036   0.438
 6279SOL     OW19735   1.505   6.641   2.095
 6279SOL    HW119736   1.530   6.718   2.153
 6279SOL    HW219737   1.536   6.556   2.138
 6280SOL     OW19738   5.018   0.963   0.032
 6280SOL    HW119739   4.928   0.919   0.024
 6280SOL    HW219740   5.084   0.898   0.068
 6281SOL     OW19741   5.356   3.996   5.718
 6281SOL    HW119742   5.383   4.055   5.794
 6281SOL    HW219743   5.283   3.934   5.747
 6282SOL     OW19744   0.447   3.901   5.582
 6282SOL    HW119745   0.385   3.860   5.515
 6282SOL    HW219746   0.537   3.858   5.574
 6283SOL     OW19747   2.398   0.498   4.164
 6283SOL    HW119748   2.371   0.480   4.069
 6283SOL    HW219749   2.497   0.510   4.168
 6284SOL     OW19750   1.534   4.258   6.425
 6284SOL    HW119751   1.630   4.280   6.404
 6284SOL    HW219752   1.516   4.163   6.399
 6285SOL     OW19753   1.285   4.078   3.290
 6285SOL    HW119754   1.332   4.068   3.377
 6285SOL    HW219755   1.349   4.114   3.221
 6286SOL     OW19756   0.973   3.160   0.210
 6286SOL    HW119757   0.888   3.159   0.158
 6286SOL    HW219758   1.050   3.144   0.148
 6287SOL     OW19759   4.631   5.249   4.808
 6287SOL    HW119760   4.599   5.337   4.771
 6287SOL    HW219761   4.553   5.195   4.838
 6288SOL     OW19762   3.085   3.684   5.794
 6288SOL    HW119763   3.131   3.771   5.812
 6288SOL    HW219764   2.999   3.701   5.745
 6289SOL     OW19765   2.628   4.717   5.052
 6289SOL    HW119766   2.621   4.816   5.063
 6289SOL    HW219767   2.721   4.694   5.022
 6290SOL     OW19768   6.497   6.768   2.979
 6290SOL    HW119769   6.450   6.768   3.068
 6290SOL    HW219770   6.518   6.674   2.953
 6291SOL     OW19771   2.961   3.180   2.231
 6291SOL    HW119772   2.968   3.187   2.330
 6291SOL    HW219773   2.917   3.262   2.194
 6292SOL     OW19774   1.108   4.080   4.767
 6292SOL    HW119775   1.034   4.064   4.833
 6292SOL    HW219776   1.074   4.063   4.674
 6293SOL     OW19777   3.013   1.322   0.541
 6293SOL    HW119778   3.014   1.419   0.566
 6293SOL    HW219779   2.951   1.272   0.602
 6294SOL     OW19780   1.886   0.467   2.094
 6294SOL    HW119781   1.790   0.479   2.121
 6294SOL    HW219782   1.925   0.388   2.141
 6295SOL     OW19783   4.563   2.464   5.783
 6295SOL    HW119784   4.591   2.424   5.696
 6295SOL    HW219785   4.495   2.535   5.766
 6296SOL     OW19786   0.072   2.605   0.172
 6296SOL    HW119787   0.168   2.577   0.173
 6296SOL    HW219788   0.060   2.686   0.229
 6297SOL     OW19789   6.839   1.044   4.364
 6297SOL    HW119790   6.837   1.138   4.395
 6297SOL    HW219791   6.934   1.016   4.348
 6298SOL     OW19792   6.631   0.304   6.654
 6298SOL    HW119793   6.599   0.214   6.683
 6298SOL    HW219794   6.649   0.304   6.556
 6299SOL     OW19795   3.248   1.659   3.891
 6299SOL    HW119796   3.191   1.589   3.849
 6299SOL    HW219797   3.332   1.669   3.839
 6300SOL     OW19798   2.774   2.149   1.223
 6300SOL    HW119799   2.805   2.236   1.259
 6300SOL    HW219800   2.792   2.144   1.125
 6301SOL     OW19801   4.175   6.443   0.954
 6301SOL    HW119802   4.109   6.378   0.916
 6301SOL    HW219803   4.128   6.529   0.975
 6302SOL     OW19804   1.457   3.686   0.163
 6302SOL    HW119805   1.551   3.721   0.170
 6302SOL    HW219806   1.423   3.666   0.255
 6303SOL     OW19807   6.569   4.935   4.892
 6303SOL    HW119808   6.549   4.860   4.955
 6303SOL    HW219809   6.518   4.922   4.807
 6304SOL     OW19810   2.045   1.910   4.293
 6304SOL    HW119811   2.009   1.967   4.368
 6304SOL    HW219812   2.088   1.969   4.225
 6305SOL     OW19813   0.589   5.668   5.457
 6305SOL    HW119814   0.660   5.663   5.528
 6305SOL    HW219815   0.503   5.634   5.493
 6306SOL     OW19816   0.694   4.171   4.204
 6306SOL    HW119817   0.625   4.144   4.137
 6306SOL    HW219818   0.781   4.190   4.158
 6307SOL     OW19819   2.962   3.434   3.204
 6307SOL    HW119820   2.934   3.345   3.167
 6307SOL    HW219821   3.055   3.428   3.239
 6308SOL     OW19822   0.533   1.275   1.362
 6308SOL    HW119823   0.468   1.321   1.422
 6308SOL    HW219824   0.603   1.340   1.332
 6309SOL     OW19825   1.988   5.618   5.217
 6309SOL    HW119826   1.955   5.709   5.190
 6309SOL    HW219827   2.088   5.619   5.216
 6310SOL     OW19828   0.773   6.638   3.300
 6310SOL    HW119829   0.749   6.662   3.206
 6310SOL    HW219830   0.859   6.586   3.299
 6311SOL     OW19831   6.571   0.898   6.168
 6311SOL    HW119832   6.505   0.974   6.170
 6311SOL    HW219833   6.650   0.921   6.224
 6312SOL     OW19834   3.466   5.770   1.228
 6312SOL    HW119835   3.549   5.747   1.178
 6312SOL    HW219836   3.489   5.829   1.306
 6313SOL     OW19837   5.264   4.766   2.691
 6313SOL    HW119838   5.209   4.849   2.683
 6313SOL    HW219839   5.218   4.692   2.642
 6314SOL     OW19840   2.022   6.705   3.289
 6314SOL    HW119841   2.000   6.714   3.386
 6314SOL    HW219842   1.938   6.714   3.235
 6315SOL     OW19843   2.130   2.619   3.040
 6315SOL    HW119844   2.158   2.585   3.130
 6315SOL    HW219845   2.053   2.565   3.006
 6316SOL     OW19846   4.187   0.485   5.007
 6316SOL    HW119847   4.133   0.422   4.951
 6316SOL    HW219848   4.214   0.440   5.092
 6317SOL     OW19849   4.947   4.274   3.163
 6317SOL    HW119850   5.006   4.268   3.243
 6317SOL    HW219851   4.889   4.355   3.169
 6318SOL     OW19852   5.955   0.102   0.203
 6318SOL    HW119853   6.020   0.176   0.222
 6318SOL    HW219854   5.919   0.067   0.288
 6319SOL     OW19855   4.773   2.466   4.500
 6319SOL    HW119856   4.848   2.527   4.476
 6319SOL    HW219857   4.686   2.516   4.497
 6320SOL     OW19858   6.340   1.713   6.509
 6320SOL    HW119859   6.319   1.663   6.425
 6320SOL    HW219860   6.381   1.651   6.576
 6321SOL     OW19861   0.939   3.843   0.602
 6321SOL    HW119862   0.858   3.861   0.547
 6321SOL    HW219863   0.991   3.768   0.561
 6322SOL     OW19864   1.870   1.610   2.549
 6322SOL    HW119865   1.844   1.538   2.614
 6322SOL    HW219866   1.908   1.568   2.466
 6323SOL     OW19867   1.970   5.952   1.048
 6323SOL    HW119868   2.032   5.874   1.044
 6323SOL    HW219869   1.997   6.012   1.124
 6324SOL     OW19870   4.927   4.003   1.324
 6324SOL    HW119871   5.022   4.036   1.329
 6324SOL    HW219872   4.926   3.914   1.279
 6325SOL     OW19873   1.173   3.245   4.191
 6325SOL    HW119874   1.131   3.160   4.159
 6325SOL    HW219875   1.268   3.249   4.161
 6326SOL     OW19876   4.618   5.408   5.102
 6326SOL    HW119877   4.590   5.431   5.009
 6326SOL    HW219878   4.538   5.378   5.154
 6327SOL     OW19879   0.677   0.854   2.733
 6327SOL    HW119880   0.653   0.761   2.704
 6327SOL    HW219881   0.641   0.919   2.667
 6328SOL     OW19882   3.796   3.764   5.133
 6328SOL    HW119883   3.859   3.819   5.078
 6328SOL    HW219884   3.740   3.708   5.071
 6329SOL     OW19885   6.859   3.081   4.867
 6329SOL    HW119886   6.816   3.085   4.958
 6329SOL    HW219887   6.952   3.116   4.873
 6330SOL     OW19888   4.294   1.905   3.771
 6330SOL    HW119889   4.244   1.929   3.687
 6330SOL    HW219890   4.261   1.817   3.805
 6331SOL     OW19891   1.820   3.642   3.477
 6331SOL    HW119892   1.764   3.569   3.518
 6331SOL    HW219893   1.915   3.630   3.504
 6332SOL     OW19894   4.290   1.670   0.093
 6332SOL    HW119895   4.359   1.739   0.070
 6332SOL    HW219896   4.234   1.703   0.168
 6333SOL     OW19897   5.923   0.877   0.255
 6333SOL    HW119898   5.918   0.941   0.178
 6333SOL    HW219899   5.839   0.822   0.257
 6334SOL     OW19900   1.992   1.239   1.731
 6334SOL    HW119901   2.042   1.303   1.790
 6334SOL    HW219902   2.009   1.146   1.763
 6335SOL     OW19903   5.919   2.564   5.254
 6335SOL    HW119904   5.864   2.499   5.306
 6335SOL    HW219905   5.953   2.635   5.316
 6336SOL     OW19906   0.500   4.937   6.101
 6336SOL    HW119907   0.406   4.910   6.083
 6336SOL    HW219908   0.503   5.031   6.133
 6337SOL     OW19909   6.255   6.975   5.239
 6337SOL    HW119910   6.236   6.920   5.320
 6337SOL    HW219911   6.332   6.936   5.188
 6338SOL     OW19912   0.785   0.574   2.429
 6338SOL    HW119913   0.765   0.476   2.429
 6338SOL    HW219914   0.884   0.588   2.422
 6339SOL     OW19915   6.985   4.237   3.275
 6339SOL    HW119916   0.034   4.300   3.232
 6339SOL    HW219917   6.970   4.158   3.216
 6340SOL     OW19918   2.298   5.236   6.472
 6340SOL    HW119919   2.216   5.209   6.420
 6340SOL    HW219920   2.313   5.335   6.462
 6341SOL     OW19921   0.487   4.466   2.782
 6341SOL    HW119922   0.417   4.536   2.792
 6341SOL    HW219923   0.484   4.403   2.860
 6342SOL     OW19924   2.057   0.322   1.569
 6342SOL    HW119925   1.999   0.302   1.648
 6342SOL    HW219926   2.119   0.245   1.553
 6343SOL     OW19927   1.654   4.914   6.740
 6343SOL    HW119928   1.627   4.984   6.806
 6343SOL    HW219929   1.744   4.938   6.701
 6344SOL     OW19930   1.158   1.257   4.264
 6344SOL    HW119931   1.106   1.198   4.326
 6344SOL    HW219932   1.191   1.203   4.187
 6345SOL     OW19933   0.289   3.156   2.956
 6345SOL    HW119934   0.197   3.133   2.924
 6345SOL    HW219935   0.356   3.103   2.905
 6346SOL     OW19936   0.891   4.577   4.000
 6346SOL    HW119937   0.804   4.539   3.966
 6346SOL    HW219938   0.880   4.602   4.096
 6347SOL     OW19939   2.187   2.421   3.283
 6347SOL    HW119940   2.271   2.380   3.249
 6347SOL    HW219941   2.114   2.353   3.283
 6348SOL     OW19942   1.404   3.009   0.114
 6348SOL    HW119943   1.318   3.040   0.075
 6348SOL    HW219944   1.415   2.911   0.097
 6349SOL     OW19945   6.246   1.560   0.933
 6349SOL    HW119946   6.273   1.608   1.016
 6349SOL    HW219947   6.188   1.482   0.956
 6350SOL     OW19948   0.491   6.266   1.446
 6350SOL    HW119949   0.474   6.242   1.542
 6350SOL    HW219950   0.569   6.330   1.442
 6351SOL     OW19951   6.241   2.515   2.044
 6351SOL    HW119952   6.266   2.451   1.971
 6351SOL    HW219953   6.322   2.566   2.073
 6352SOL     OW19954   4.445   0.680   4.376
 6352SOL    HW119955   4.518   0.665   4.442
 6352SOL    HW219956   4.383   0.602   4.375
 6353SOL     OW19957   3.781   6.289   5.685
 6353SOL    HW119958   3.689   6.283   5.725
 6353SOL    HW219959   3.826   6.200   5.690
 6354SOL     OW19960   5.835   4.477   2.300
 6354SOL    HW119961   5.829   4.565   2.254
 6354SOL    HW219962   5.917   4.475   2.357
 6355SOL     OW19963   5.333   6.202   0.277
 6355SOL    HW119964   5.273   6.130   0.242
 6355SOL    HW219965   5.427   6.182   0.251
 6356SOL     OW19966   0.841   6.560   5.892
 6356SOL    HW119967   0.744   6.563   5.913
 6356SOL    HW219968   0.887   6.497   5.954
 6357SOL     OW19969   5.008   1.669   2.655
 6357SOL    HW119970   4.934   1.603   2.645
 6357SOL    HW219971   4.975   1.760   2.629
 6358SOL     OW19972   1.365   1.557   4.861
 6358SOL    HW119973   1.285   1.512   4.901
 6358SOL    HW219974   1.439   1.490   4.851
 6359SOL     OW19975   5.852   4.641   0.895
 6359SOL    HW119976   5.785   4.620   0.967
 6359SOL    HW219977   5.942   4.606   0.922
 6360SOL     OW19978   2.436   2.911   0.926
 6360SOL    HW119979   2.393   2.857   0.998
 6360SOL    HW219980   2.435   2.861   0.840
 6361SOL     OW19981   0.375   2.362   2.511
 6361SOL    HW119982   0.380   2.293   2.583
 6361SOL    HW219983   0.444   2.433   2.528
 6362SOL     OW19984   2.187   5.446   0.676
 6362SOL    HW119985   2.286   5.458   0.683
 6362SOL    HW219986   2.162   5.356   0.711
 6363SOL     OW19987   0.782   2.476   1.779
 6363SOL    HW119988   0.827   2.413   1.842
 6363SOL    HW219989   0.850   2.537   1.739
 6364SOL     OW19990   2.491   1.253   4.563
 6364SOL    HW119991   2.510   1.211   4.474
 6364SOL    HW219992   2.427   1.196   4.613
 6365SOL     OW19993   6.681   6.863   2.303
 6365SOL    HW119994   6.725   6.940   2.258
 6365SOL    HW219995   6.726   6.845   2.391
 6366SOL     OW19996   5.574   1.294   4.887
 6366SOL    HW119997   5.562   1.198   4.862
 6366SOL    HW219998   5.642   1.336   4.827
 6367SOL     OW19999   1.195   2.652   4.741
 6367SOL    HW120000   1.216   2.747   4.764
 6367SOL    HW220001   1.280   2.603   4.721
 6368SOL     OW20002   4.961   3.141   4.976
 6368SOL    HW120003   5.059   3.145   4.957
 6368SOL    HW220004   4.944   3.169   5.071
 6369SOL     OW20005   3.292   4.395   0.860
 6369SOL    HW120006   3.223   4.322   0.868
 6369SOL    HW220007   3.336   4.409   0.949
 6370SOL     OW20008   5.843   3.673   4.544
 6370SOL    HW120009   5.919   3.710   4.490
 6370SOL    HW220010   5.794   3.604   4.490
 6371SOL     OW20011   6.077   4.500   1.004
 6371SOL    HW120012   6.062   4.402   0.990
 6371SOL    HW220013   6.173   4.522   0.985
 6372SOL     OW20014   6.536   1.488   1.205
 6372SOL    HW120015   6.463   1.556   1.195
 6372SOL    HW220016   6.586   1.480   1.118
 6373SOL     OW20017   5.222   2.039   1.338
 6373SOL    HW120018   5.272   2.018   1.254
 6373SOL    HW220019   5.261   2.121   1.380
 6374SOL     OW20020   3.997   2.857   6.698
 6374SOL    HW120021   4.006   2.952   6.729
 6374SOL    HW220022   3.969   2.856   6.602
 6375SOL     OW20023   5.318   1.404   2.078
 6375SOL    HW120024   5.338   1.381   2.173
 6375SOL    HW220025   5.372   1.344   2.018
 6376SOL     OW20026   2.591   6.866   0.755
 6376SOL    HW120027   2.573   6.850   0.658
 6376SOL    HW220028   2.518   6.826   0.809
 6377SOL     OW20029   0.075   0.785   0.406
 6377SOL    HW120030   0.169   0.819   0.398
 6377SOL    HW220031   0.051   0.780   0.503
 6378SOL     OW20032   5.889   3.804   3.317
 6378SOL    HW120033   5.853   3.885   3.364
 6378SOL    HW220034   5.925   3.831   3.228
 6379SOL     OW20035   2.796   5.469   6.868
 6379SOL    HW120036   2.866   5.475   6.938
 6379SOL    HW220037   2.770   5.373   6.854
 6380SOL     OW20038   2.181   3.029   4.812
 6380SOL    HW120039   2.218   2.943   4.778
 6380SOL    HW220040   2.231   3.058   4.894
 6381SOL     OW20041   3.105   4.190   0.849
 6381SOL    HW120042   3.124   4.094   0.869
 6381SOL    HW220043   3.075   4.199   0.754
 6382SOL     OW20044   1.935   0.962   0.868
 6382SOL    HW120045   1.902   0.973   0.962
 6382SOL    HW220046   1.897   1.036   0.811
 6383SOL     OW20047   2.728   2.043   2.895
 6383SOL    HW120048   2.724   1.982   2.816
 6383SOL    HW220049   2.808   2.103   2.887
 6384SOL     OW20050   6.675   1.594   2.533
 6384SOL    HW120051   6.651   1.506   2.574
 6384SOL    HW220052   6.627   1.604   2.447
 6385SOL     OW20053   0.194   3.829   1.605
 6385SOL    HW120054   0.292   3.846   1.597
 6385SOL    HW220055   0.160   3.865   1.692
 6386SOL     OW20056   2.846   4.179   0.117
 6386SOL    HW120057   2.858   4.270   0.077
 6386SOL    HW220058   2.936   4.141   0.139
 6387SOL     OW20059   6.500   1.043   5.811
 6387SOL    HW120060   6.482   1.063   5.715
 6387SOL    HW220061   6.480   0.947   5.830
 6388SOL     OW20062   6.077   5.088   1.916
 6388SOL    HW120063   6.146   5.074   1.845
 6388SOL    HW220064   5.987   5.096   1.873
 6389SOL     OW20065   6.754   6.557   0.663
 6389SOL    HW120066   6.741   6.631   0.730
 6389SOL    HW220067   6.728   6.470   0.704
 6390SOL     OW20068   4.796   6.298   0.164
 6390SOL    HW120069   4.737   6.336   0.093
 6390SOL    HW220070   4.772   6.202   0.180
 6391SOL     OW20071   1.588   2.115   5.291
 6391SOL    HW120072   1.670   2.173   5.295
 6391SOL    HW220073   1.616   2.019   5.280
 6392SOL     OW20074   4.832   6.572   3.783
 6392SOL    HW120075   4.749   6.532   3.822
 6392SOL    HW220076   4.819   6.591   3.686
 6393SOL     OW20077   2.543   5.251   0.315
 6393SOL    HW120078   2.444   5.237   0.308
 6393SOL    HW220079   2.561   5.343   0.347
 6394SOL     OW20080   1.270   5.626   1.756
 6394SOL    HW120081   1.325   5.642   1.838
 6394SOL    HW220082   1.281   5.531   1.727
 6395SOL     OW20083   1.258   4.078   4.986
 6395SOL    HW120084   1.208   4.142   5.044
 6395SOL    HW220085   1.214   4.072   4.896
 6396SOL     OW20086   0.893   3.069   4.805
 6396SOL    HW120087   0.804   3.023   4.807
 6396SOL    HW220088   0.879   3.167   4.789
 6397SOL     OW20089   6.841   3.269   4.565
 6397SOL    HW120090   6.896   3.267   4.648
 6397SOL    HW220091   6.874   3.199   4.502
 6398SOL     OW20092   0.949   0.498   2.727
 6398SOL    HW120093   0.891   0.432   2.680
 6398SOL    HW220094   1.002   0.451   2.798
 6399SOL     OW20095   2.752   0.055   0.039
 6399SOL    HW120096   2.666   0.034   0.084
 6399SOL    HW220097   2.795   6.986   0.008
 6400SOL     OW20098   0.957   6.143   2.718
 6400SOL    HW120099   1.019   6.076   2.760
 6400SOL    HW220100   1.000   6.233   2.718
 6401SOL     OW20101   3.895   4.958   1.767
 6401SOL    HW120102   3.975   4.982   1.711
 6401SOL    HW220103   3.880   4.859   1.761
 6402SOL     OW20104   3.988   3.715   5.696
 6402SOL    HW120105   4.065   3.652   5.692
 6402SOL    HW220106   3.903   3.664   5.708
 6403SOL     OW20107   4.206   5.520   5.644
 6403SOL    HW120108   4.299   5.557   5.639
 6403SOL    HW220109   4.185   5.492   5.738
 6404SOL     OW20110   4.702   5.462   6.234
 6404SOL    HW120111   4.743   5.523   6.302
 6404SOL    HW220112   4.721   5.367   6.260
 6405SOL     OW20113   4.396   0.835   2.610
 6405SOL    HW120114   4.415   0.913   2.550
 6405SOL    HW220115   4.307   0.797   2.586
 6406SOL     OW20116   0.250   3.584   2.171
 6406SOL    HW120117   0.227   3.494   2.210
 6406SOL    HW220118   0.294   3.641   2.240
 6407SOL     OW20119   0.591   0.028   1.826
 6407SOL    HW120120   0.510   0.039   1.884
 6407SOL    HW220121   0.610   6.946   1.814
 6408SOL     OW20122   0.039   1.410   1.957
 6408SOL    HW120123   6.995   1.438   1.882
 6408SOL    HW220124   0.132   1.442   1.940
 6409SOL     OW20125   6.094   4.631   3.737
 6409SOL    HW120126   6.166   4.567   3.710
 6409SOL    HW220127   6.012   4.615   3.682
 6410SOL     OW20128   1.407   0.625   6.895
 6410SOL    HW120129   1.463   0.557   6.941
 6410SOL    HW220130   1.463   0.705   6.872
 6411SOL     OW20131   1.290   2.504   4.389
 6411SOL    HW120132   1.292   2.504   4.489
 6411SOL    HW220133   1.380   2.529   4.354
 6412SOL     OW20134   4.220   0.184   6.995
 6412SOL    HW120135   4.268   0.237   6.924
 6412SOL    HW220136   4.251   0.089   6.993
 6413SOL     OW20137   4.941   5.949   3.102
 6413SOL    HW120138   4.855   5.997   3.081
 6413SOL    HW220139   5.000   6.009   3.156
 6414SOL     OW20140   3.302   0.309   0.341
 6414SOL    HW120141   3.310   0.279   0.436
 6414SOL    HW220142   3.376   0.269   0.287
 6415SOL     OW20143   6.953   2.128   3.680
 6415SOL    HW120144   6.867   2.076   3.672
 6415SOL    HW220145   0.011   2.067   3.709
 6416SOL     OW20146   2.823   4.805   0.189
 6416SOL    HW120147   2.861   4.717   0.219
 6416SOL    HW220148   2.730   4.790   0.154
 6417SOL     OW20149   4.322   3.708   6.460
 6417SOL    HW120150   4.234   3.751   6.438
 6417SOL    HW220151   4.372   3.765   6.524
 6418SOL     OW20152   5.212   5.541   0.279
 6418SOL    HW120153   5.303   5.556   0.240
 6418SOL    HW220154   5.181   5.449   0.256
 6419SOL     OW20155   1.632   6.630   6.580
 6419SOL    HW120156   1.598   6.665   6.492
 6419SOL    HW220157   1.732   6.636   6.581
 6420SOL     OW20158   2.196   4.893   3.265
 6420SOL    HW120159   2.108   4.856   3.236
 6420SOL    HW220160   2.198   4.992   3.249
 6421SOL     OW20161   5.566   6.728   1.427
 6421SOL    HW120162   5.498   6.732   1.500
 6421SOL    HW220163   5.651   6.771   1.457
 6422SOL     OW20164   1.101   1.434   4.998
 6422SOL    HW120165   1.050   1.408   5.080
 6422SOL    HW220166   1.038   1.452   4.923
 6423SOL     OW20167   1.380   3.742   4.359
 6423SOL    HW120168   1.403   3.770   4.452
 6423SOL    HW220169   1.294   3.785   4.332
 6424SOL     OW20170   6.610   3.848   5.393
 6424SOL    HW120171   6.576   3.939   5.369
 6424SOL    HW220172   6.649   3.850   5.485
 6425SOL     OW20173   1.244   6.834   5.294
 6425SOL    HW120174   1.232   6.746   5.342
 6425SOL    HW220175   1.219   6.909   5.355
 6426SOL     OW20176   3.995   5.657   3.896
 6426SOL    HW120177   3.952   5.671   3.807
 6426SOL    HW220178   4.039   5.568   3.899
 6427SOL     OW20179   3.654   3.622   3.443
 6427SOL    HW120180   3.729   3.620   3.509
 6427SOL    HW220181   3.610   3.532   3.440
 6428SOL     OW20182   6.286   2.307   0.342
 6428SOL    HW120183   6.371   2.256   0.354
 6428SOL    HW220184   6.232   2.303   0.426
 6429SOL     OW20185   2.479   1.811   4.746
 6429SOL    HW120186   2.496   1.905   4.776
 6429SOL    HW220187   2.385   1.785   4.767
 6430SOL     OW20188   5.977   1.512   4.784
 6430SOL    HW120189   6.002   1.534   4.879
 6430SOL    HW220190   6.003   1.587   4.724
 6431SOL     OW20191   3.209   4.940   3.079
 6431SOL    HW120192   3.268   4.985   3.146
 6431SOL    HW220193   3.132   4.896   3.127
 6432SOL     OW20194   4.423   3.002   6.579
 6432SOL    HW120195   4.374   3.001   6.492
 6432SOL    HW220196   4.492   2.930   6.580
 6433SOL     OW20197   3.826   5.277   6.124
 6433SOL    HW120198   3.915   5.246   6.159
 6433SOL    HW220199   3.840   5.325   6.038
 6434SOL     OW20200   6.467   4.763   6.101
 6434SOL    HW120201   6.384   4.775   6.046
 6434SOL    HW220202   6.516   4.850   6.107
 6435SOL     OW20203   4.413   1.620   0.941
 6435SOL    HW120204   4.412   1.589   1.037
 6435SOL    HW220205   4.460   1.708   0.935
 6436SOL     OW20206   0.599   2.405   3.621
 6436SOL    HW120207   0.513   2.452   3.603
 6436SOL    HW220208   0.580   2.310   3.647
 6437SOL     OW20209   1.530   2.911   6.553
 6437SOL    HW120210   1.574   2.976   6.615
 6437SOL    HW220211   1.559   2.818   6.576
 6438SOL     OW20212   0.279   5.545   0.997
 6438SOL    HW120213   0.332   5.493   0.929
 6438SOL    HW220214   0.338   5.613   1.040
 6439SOL     OW20215   4.533   6.330   3.188
 6439SOL    HW120216   4.531   6.231   3.198
 6439SOL    HW220217   4.576   6.370   3.269
 6440SOL     OW20218   2.363   2.414   5.647
 6440SOL    HW120219   2.309   2.331   5.631
 6440SOL    HW220220   2.396   2.450   5.560
 6441SOL     OW20221   1.576   1.947   1.438
 6441SOL    HW120222   1.635   2.023   1.464
 6441SOL    HW220223   1.604   1.912   1.349
 6442SOL     OW20224   2.930   1.797   4.381
 6442SOL    HW120225   2.968   1.765   4.468
 6442SOL    HW220226   2.960   1.736   4.308
 6443SOL     OW20227   2.776   2.700   6.104
 6443SOL    HW120228   2.677   2.713   6.093
 6443SOL    HW220229   2.809   2.759   6.177
 6444SOL     OW20230   0.152   3.828   5.128
 6444SOL    HW120231   0.069   3.799   5.080
 6444SOL    HW220232   0.166   3.926   5.117
 6445SOL     OW20233   3.357   3.197   3.487
 6445SOL    HW120234   3.265   3.193   3.448
 6445SOL    HW220235   3.383   3.107   3.522
 6446SOL     OW20236   1.439   0.519   1.603
 6446SOL    HW120237   1.409   0.609   1.634
 6446SOL    HW220238   1.434   0.515   1.503
 6447SOL     OW20239   6.350   3.608   1.160
 6447SOL    HW120240   6.289   3.612   1.240
 6447SOL    HW220241   6.437   3.652   1.183
 6448SOL     OW20242   4.116   4.217   1.535
 6448SOL    HW120243   4.100   4.154   1.458
 6448SOL    HW220244   4.186   4.179   1.595
 6449SOL     OW20245   4.225   5.322   0.305
 6449SOL    HW120246   4.307   5.334   0.249
 6449SOL    HW220247   4.176   5.409   0.312
 6450SOL     OW20248   4.352   3.428   0.227
 6450SOL    HW120249   4.383   3.505   0.282
 6450SOL    HW220250   4.252   3.428   0.224
 6451SOL     OW20251   4.241   2.576   1.508
 6451SOL    HW120252   4.233   2.633   1.590
 6451SOL    HW220253   4.308   2.617   1.446
 6452SOL     OW20254   4.520   2.146   4.390
 6452SOL    HW120255   4.548   2.071   4.450
 6452SOL    HW220256   4.490   2.108   4.302
 6453SOL     OW20257   2.547   0.975   2.962
 6453SOL    HW120258   2.459   1.005   2.925
 6453SOL    HW220259   2.561   1.016   3.052
 6454SOL     OW20260   5.091   3.964   5.308
 6454SOL    HW120261   5.118   4.008   5.222
 6454SOL    HW220262   5.004   3.916   5.295
 6455SOL     OW20263   0.182   2.840   4.869
 6455SOL    HW120264   0.203   2.932   4.902
 6455SOL    HW220265   0.084   2.833   4.850
 6456SOL     OW20266   6.229   1.661   3.383
 6456SOL    HW120267   6.199   1.571   3.352
 6456SOL    HW220268   6.193   1.732   3.321
 6457SOL     OW20269   1.666   5.919   3.493
 6457SOL    HW120270   1.684   5.873   3.407
 6457SOL    HW220271   1.614   6.003   3.476
 6458SOL     OW20272   1.231   0.404   4.845
 6458SOL    HW120273   1.189   0.332   4.900
 6458SOL    HW220274   1.165   0.477   4.830
 6459SOL     OW20275   0.844   3.544   2.882
 6459SOL    HW120276   0.771   3.486   2.848
 6459SOL    HW220277   0.842   3.547   2.982
 6460SOL     OW20278   1.757   5.332   5.541
 6460SOL    HW120279   1.762   5.356   5.638
 6460SOL    HW220280   1.847   5.301   5.510
 6461SOL     OW20281   0.171   6.925   1.751
 6461SOL    HW120282   0.186   0.008   1.761
 6461SOL    HW220283   0.242   6.887   1.691
 6462SOL     OW20284   2.557   3.959   5.907
 6462SOL    HW120285   2.580   3.998   5.818
 6462SOL    HW220286   2.629   3.895   5.934
 6463SOL     OW20287   4.624   3.273   1.530
 6463SOL    HW120288   4.706   3.330   1.524
 6463SOL    HW220289   4.651   3.178   1.546
 6464SOL     OW20290   1.344   3.834   3.475
 6464SOL    HW120291   1.411   3.848   3.549
 6464SOL    HW220292   1.385   3.778   3.404
 6465SOL     OW20293   2.341   1.630   2.956
 6465SOL    HW120294   2.290   1.617   2.872
 6465SOL    HW220295   2.298   1.702   3.011
 6466SOL     OW20296   6.573   5.297   6.659
 6466SOL    HW120297   6.634   5.329   6.587
 6466SOL    HW220298   6.616   5.314   6.748
 6467SOL     OW20299   2.715   3.544   5.986
 6467SOL    HW120300   2.783   3.473   5.966
 6467SOL    HW220301   2.663   3.519   6.067
 6468SOL     OW20302   0.933   0.788   0.992
 6468SOL    HW120303   1.018   0.751   0.954
 6468SOL    HW220304   0.898   0.859   0.930
 6469SOL     OW20305   2.436   0.709   0.877
 6469SOL    HW120306   2.434   0.740   0.782
 6469SOL    HW220307   2.349   0.733   0.922
 6470SOL     OW20308   5.657   1.201   6.999
 6470SOL    HW120309   5.600   1.283   6.990
 6470SOL    HW220310   5.629   1.150   0.065
 6471SOL     OW20311   1.362   6.259   5.910
 6471SOL    HW120312   1.431   6.311   5.961
 6471SOL    HW220313   1.282   6.316   5.894
 6472SOL     OW20314   0.638   6.498   1.506
 6472SOL    HW120315   0.646   6.527   1.601
 6472SOL    HW220316   0.728   6.502   1.462
 6473SOL     OW20317   2.929   1.940   3.827
 6473SOL    HW120318   2.917   1.992   3.912
 6473SOL    HW220319   2.842   1.899   3.800
 6474SOL     OW20320   3.963   6.956   4.304
 6474SOL    HW120321   4.042   7.011   4.276
 6474SOL    HW220322   3.879   7.005   4.281
 6475SOL     OW20323   5.441   6.031   3.483
 6475SOL    HW120324   5.490   5.945   3.472
 6475SOL    HW220325   5.356   6.015   3.533
 6476SOL     OW20326   5.459   4.373   5.159
 6476SOL    HW120327   5.445   4.342   5.065
 6476SOL    HW220328   5.423   4.304   5.222
 6477SOL     OW20329   1.015   6.729   0.627
 6477SOL    HW120330   1.099   6.732   0.680
 6477SOL    HW220331   0.940   6.699   0.685
 6478SOL     OW20332   1.618   6.193   0.322
 6478SOL    HW120333   1.705   6.234   0.348
 6478SOL    HW220334   1.556   6.265   0.290
 6479SOL     OW20335   4.513   6.093   4.164
 6479SOL    HW120336   4.603   6.120   4.199
 6479SOL    HW220337   4.485   6.008   4.207
 6480SOL     OW20338   3.506   1.376   4.991
 6480SOL    HW120339   3.418   1.380   5.037
 6480SOL    HW220340   3.492   1.360   4.893
 6481SOL     OW20341   3.992   3.399   2.048
 6481SOL    HW120342   4.001   3.385   2.147
 6481SOL    HW220343   3.929   3.474   2.031
 6482SOL     OW20344   5.468   2.810   4.227
 6482SOL    HW120345   5.558   2.845   4.253
 6482SOL    HW220346   5.478   2.720   4.186
 6483SOL     OW20347   1.841   5.498   5.790
 6483SOL    HW120348   1.834   5.529   5.885
 6483SOL    HW220349   1.846   5.577   5.729
 6484SOL     OW20350   4.018   0.969   3.214
 6484SOL    HW120351   3.992   0.993   3.121
 6484SOL    HW220352   4.020   0.870   3.224
 6485SOL     OW20353   1.880   4.995   4.705
 6485SOL    HW120354   1.845   4.914   4.658
 6485SOL    HW220355   1.814   5.023   4.775
 6486SOL     OW20356   7.004   4.224   2.441
 6486SOL    HW120357   0.051   4.280   2.496
 6486SOL    HW220358   6.914   4.222   2.485
 6487SOL     OW20359   5.916   5.481   4.297
 6487SOL    HW120360   6.011   5.471   4.267
 6487SOL    HW220361   5.909   5.559   4.359
 6488SOL     OW20362   3.482   5.331   3.797
 6488SOL    HW120363   3.451   5.378   3.879
 6488SOL    HW220364   3.581   5.318   3.800
 6489SOL     OW20365   6.555   3.361   5.134
 6489SOL    HW120366   6.544   3.457   5.157
 6489SOL    HW220367   6.636   3.324   5.182
 6490SOL     OW20368   1.796   3.576   0.028
 6490SOL    HW120369   1.757   3.567   6.952
 6490SOL    HW220370   1.756   3.508   0.089
 6491SOL     OW20371   1.146   0.421   2.237
 6491SOL    HW120372   1.154   0.481   2.157
 6491SOL    HW220373   1.136   0.477   2.320
 6492SOL     OW20374   3.832   3.189   3.648
 6492SOL    HW120375   3.901   3.223   3.712
 6492SOL    HW220376   3.835   3.089   3.646
 6493SOL     OW20377   1.790   4.630   4.092
 6493SOL    HW120378   1.890   4.623   4.096
 6493SOL    HW220379   1.763   4.726   4.107
 6494SOL     OW20380   6.203   1.317   1.388
 6494SOL    HW120381   6.267   1.387   1.420
 6494SOL    HW220382   6.249   1.258   1.321
 6495SOL     OW20383   6.132   6.503   2.534
 6495SOL    HW120384   6.052   6.465   2.580
 6495SOL    HW220385   6.165   6.583   2.585
 6496SOL     OW20386   2.873   2.638   1.490
 6496SOL    HW120387   2.951   2.599   1.539
 6496SOL    HW220388   2.818   2.693   1.553
 6497SOL     OW20389   0.422   2.621   0.702
 6497SOL    HW120390   0.500   2.656   0.754
 6497SOL    HW220391   0.438   2.636   0.604
 6498SOL     OW20392   2.536   4.726   4.592
 6498SOL    HW120393   2.508   4.640   4.635
 6498SOL    HW220394   2.458   4.767   4.546
 6499SOL     OW20395   6.090   2.335   2.429
 6499SOL    HW120396   6.086   2.277   2.510
 6499SOL    HW220397   6.089   2.279   2.346
 6500SOL     OW20398   1.830   3.968   2.777
 6500SOL    HW120399   1.767   3.891   2.766
 6500SOL    HW220400   1.832   3.994   2.874
 6501SOL     OW20401   6.295   1.285   2.722
 6501SOL    HW120402   6.222   1.243   2.669
 6501SOL    HW220403   6.381   1.277   2.671
 6502SOL     OW20404   1.381   2.584   2.465
 6502SOL    HW120405   1.420   2.499   2.499
 6502SOL    HW220406   1.359   2.644   2.542
 6503SOL     OW20407   0.325   2.185   5.706
 6503SOL    HW120408   0.270   2.206   5.625
 6503SOL    HW220409   0.284   2.107   5.755
 6504SOL     OW20410   3.851   6.727   6.328
 6504SOL    HW120411   3.899   6.810   6.357
 6504SOL    HW220412   3.911   6.671   6.272
 6505SOL     OW20413   0.763   6.686   0.002
 6505SOL    HW120414   0.665   6.669   7.002
 6505SOL    HW220415   0.789   6.654   0.093
 6506SOL     OW20416   0.250   4.255   1.711
 6506SOL    HW120417   0.211   4.303   1.632
 6506SOL    HW220418   0.179   4.199   1.753
 6507SOL     OW20419   5.042   5.464   0.838
 6507SOL    HW120420   4.968   5.400   0.860
 6507SOL    HW220421   5.027   5.502   0.747
 6508SOL     OW20422   6.713   0.847   4.213
 6508SOL    HW120423   6.761   0.905   4.279
 6508SOL    HW220424   6.714   0.891   4.123
 6509SOL     OW20425   2.381   1.660   0.337
 6509SOL    HW120426   2.396   1.615   0.425
 6509SOL    HW220427   2.333   1.746   0.351
 6510SOL     OW20428   3.195   4.895   4.218
 6510SOL    HW120429   3.159   4.914   4.309
 6510SOL    HW220430   3.295   4.886   4.223
 6511SOL     OW20431   3.629   3.148   0.255
 6511SOL    HW120432   3.726   3.153   0.229
 6511SOL    HW220433   3.622   3.116   0.349
 6512SOL     OW20434   4.964   0.961   1.353
 6512SOL    HW120435   4.929   0.959   1.447
 6512SOL    HW220436   4.887   0.952   1.289
 6513SOL     OW20437   3.031   5.195   2.017
 6513SOL    HW120438   3.021   5.254   1.937
 6513SOL    HW220439   2.941   5.166   2.050
 6514SOL     OW20440   5.097   5.906   6.066
 6514SOL    HW120441   5.054   5.881   5.979
 6514SOL    HW220442   5.195   5.888   6.061
 6515SOL     OW20443   1.030   5.054   2.245
 6515SOL    HW120444   0.991   5.123   2.183
 6515SOL    HW220445   1.037   5.093   2.337
 6516SOL     OW20446   5.684   1.018   3.370
 6516SOL    HW120447   5.687   1.110   3.407
 6516SOL    HW220448   5.732   0.956   3.432
 6517SOL     OW20449   6.772   4.357   0.707
 6517SOL    HW120450   6.868   4.385   0.707
 6517SOL    HW220451   6.732   4.377   0.618
 6518SOL     OW20452   1.294   1.645   2.331
 6518SOL    HW120453   1.201   1.624   2.298
 6518SOL    HW220454   1.306   1.744   2.334
 6519SOL     OW20455   1.390   1.555   3.797
 6519SOL    HW120456   1.358   1.531   3.889
 6519SOL    HW220457   1.404   1.471   3.744
 6520SOL     OW20458   5.762   6.268   6.557
 6520SOL    HW120459   5.859   6.274   6.577
 6520SOL    HW220460   5.749   6.247   6.460
 6521SOL     OW20461   1.409   4.484   4.439
 6521SOL    HW120462   1.453   4.529   4.517
 6521SOL    HW220463   1.471   4.486   4.360
 6522SOL     OW20464   2.363   2.958   5.419
 6522SOL    HW120465   2.393   3.036   5.473
 6522SOL    HW220466   2.396   2.968   5.325
 6523SOL     OW20467   5.041   6.855   0.397
 6523SOL    HW120468   5.068   6.764   0.430
 6523SOL    HW220469   5.072   6.924   0.463
 6524SOL     OW20470   3.290   2.293   1.277
 6524SOL    HW120471   3.225   2.322   1.207
 6524SOL    HW220472   3.352   2.368   1.299
 6525SOL     OW20473   2.326   5.050   3.958
 6525SOL    HW120474   2.233   5.083   3.975
 6525SOL    HW220475   2.330   4.952   3.974
 6526SOL     OW20476   6.612   6.281   0.667
 6526SOL    HW120477   6.521   6.266   0.629
 6526SOL    HW220478   6.681   6.274   0.595
 6527SOL     OW20479   5.219   2.466   0.837
 6527SOL    HW120480   5.209   2.566   0.843
 6527SOL    HW220481   5.148   2.430   0.776
 6528SOL     OW20482   4.704   6.443   0.368
 6528SOL    HW120483   4.710   6.377   0.293
 6528SOL    HW220484   4.696   6.395   0.455
 6529SOL     OW20485   4.261   6.916   1.614
 6529SOL    HW120486   4.294   7.010   1.605
 6529SOL    HW220487   4.297   6.877   1.699
 6530SOL     OW20488   0.137   2.127   4.196
 6530SOL    HW120489   0.115   2.173   4.282
 6530SOL    HW220490   0.175   2.193   4.132
 6531SOL     OW20491   3.628   3.825   3.690
 6531SOL    HW120492   3.647   3.922   3.673
 6531SOL    HW220493   3.697   3.769   3.645
 6532SOL     OW20494   1.080   5.764   0.103
 6532SOL    HW120495   1.112   5.740   0.195
 6532SOL    HW220496   1.062   5.862   0.099
 6533SOL     OW20497   4.874   5.225   1.099
 6533SOL    HW120498   4.834   5.257   1.013
 6533SOL    HW220499   4.940   5.294   1.132
 6534SOL     OW20500   6.484   3.149   3.945
 6534SOL    HW120501   6.568   3.184   3.905
 6534SOL    HW220502   6.448   3.075   3.888
 6535SOL     OW20503   5.520   3.648   6.761
 6535SOL    HW120504   5.521   3.561   6.811
 6535SOL    HW220505   5.449   3.645   6.691
 6536SOL     OW20506   0.560   5.053   5.461
 6536SOL    HW120507   0.475   5.063   5.513
 6536SOL    HW220508   0.633   5.105   5.506
 6537SOL     OW20509   6.573   5.562   4.620
 6537SOL    HW120510   6.491   5.612   4.590
 6537SOL    HW220511   6.582   5.479   4.565
 6538SOL     OW20512   1.716   3.167   3.651
 6538SOL    HW120513   1.794   3.148   3.591
 6538SOL    HW220514   1.631   3.138   3.606
 6539SOL     OW20515   5.340   0.355   5.578
 6539SOL    HW120516   5.296   0.336   5.491
 6539SOL    HW220517   5.272   0.389   5.643
 6540SOL     OW20518   1.068   2.482   5.445
 6540SOL    HW120519   1.155   2.529   5.458
 6540SOL    HW220520   1.081   2.405   5.383
 6541SOL     OW20521   4.038   1.480   5.363
 6541SOL    HW120522   4.052   1.435   5.451
 6541SOL    HW220523   4.121   1.475   5.309
 6542SOL     OW20524   2.132   4.553   2.071
 6542SOL    HW120525   2.183   4.471   2.100
 6542SOL    HW220526   2.120   4.550   1.972
 6543SOL     OW20527   4.089   1.672   3.863
 6543SOL    HW120528   4.025   1.747   3.876
 6543SOL    HW220529   4.053   1.609   3.794
 6544SOL     OW20530   0.904   0.567   1.176
 6544SOL    HW120531   0.850   0.585   1.258
 6544SOL    HW220532   0.884   0.636   1.107
 6545SOL     OW20533   6.015   5.329   0.895
 6545SOL    HW120534   6.041   5.315   0.991
 6545SOL    HW220535   5.935   5.389   0.892
 6546SOL     OW20536   4.349   5.192   4.786
 6546SOL    HW120537   4.347   5.132   4.705
 6546SOL    HW220538   4.272   5.256   4.782
 6547SOL     OW20539   1.273   6.372   5.301
 6547SOL    HW120540   1.327   6.398   5.221
 6547SOL    HW220541   1.232   6.282   5.287
 6548SOL     OW20542   1.217   1.989   5.786
 6548SOL    HW120543   1.314   1.990   5.811
 6548SOL    HW220544   1.197   2.066   5.726
 6549SOL     OW20545   3.373   1.231   3.163
 6549SOL    HW120546   3.336   1.275   3.081
 6549SOL    HW220547   3.378   1.297   3.238
 6550SOL     OW20548   5.985   0.081   1.883
 6550SOL    HW120549   6.034   0.039   1.807
 6550SOL    HW220550   5.995   0.024   1.965
 6551SOL     OW20551   2.456   4.984   1.426
 6551SOL    HW120552   2.536   4.946   1.472
 6551SOL    HW220553   2.471   4.986   1.328
 6552SOL     OW20554   2.200   3.614   6.838
 6552SOL    HW120555   2.160   3.694   6.882
 6552SOL    HW220556   2.163   3.605   6.746
 6553SOL     OW20557   0.198   1.545   3.425
 6553SOL    HW120558   0.124   1.588   3.477
 6553SOL    HW220559   0.266   1.614   3.399
 6554SOL     OW20560   1.423   1.790   3.917
 6554SOL    HW120561   1.519   1.810   3.933
 6554SOL    HW220562   1.413   1.735   3.835
 6555SOL     OW20563   1.686   3.751   2.367
 6555SOL    HW120564   1.737   3.746   2.281
 6555SOL    HW220565   1.740   3.709   2.440
 6556SOL     OW20566   5.040   3.453   3.246
 6556SOL    HW120567   4.993   3.536   3.217
 6556SOL    HW220568   4.973   3.381   3.266
 6557SOL     OW20569   2.004   6.751   2.745
 6557SOL    HW120570   2.077   6.728   2.681
 6557SOL    HW220571   2.038   6.742   2.839
 6558SOL     OW20572   5.501   5.550   1.044
 6558SOL    HW120573   5.581   5.577   0.989
 6558SOL    HW220574   5.430   5.514   0.983
 6559SOL     OW20575   0.496   1.694   6.100
 6559SOL    HW120576   0.459   1.608   6.134
 6559SOL    HW220577   0.459   1.770   6.154
 6560SOL     OW20578   6.793   4.756   5.880
 6560SOL    HW120579   6.867   4.764   5.813
 6560SOL    HW220580   6.784   4.842   5.930
 6561SOL     OW20581   2.866   5.497   0.442
 6561SOL    HW120582   2.922   5.416   0.423
 6561SOL    HW220583   2.908   5.577   0.401
 6562SOL     OW20584   4.523   2.417   1.362
 6562SOL    HW120585   4.493   2.497   1.311
 6562SOL    HW220586   4.445   2.354   1.373
 6563SOL     OW20587   6.160   5.544   5.365
 6563SOL    HW120588   6.178   5.482   5.441
 6563SOL    HW220589   6.075   5.517   5.319
 6564SOL     OW20590   5.083   3.934   2.179
 6564SOL    HW120591   5.100   3.976   2.090
 6564SOL    HW220592   5.168   3.892   2.212
 6565SOL     OW20593   5.218   5.806   2.320
 6565SOL    HW120594   5.280   5.850   2.385
 6565SOL    HW220595   5.134   5.779   2.366
 6566SOL     OW20596   5.232   5.313   3.794
 6566SOL    HW120597   5.216   5.267   3.882
 6566SOL    HW220598   5.330   5.316   3.775
 6567SOL     OW20599   3.189   0.732   2.729
 6567SOL    HW120600   3.130   0.670   2.679
 6567SOL    HW220601   3.196   0.819   2.680
 6568SOL     OW20602   4.903   1.504   0.534
 6568SOL    HW120603   4.943   1.482   0.444
 6568SOL    HW220604   4.897   1.421   0.589
 6569SOL     OW20605   1.562   4.053   3.427
 6569SOL    HW120606   1.591   3.974   3.481
 6569SOL    HW220607   1.632   4.125   3.432
 6570SOL     OW20608   4.245   6.941   2.741
 6570SOL    HW120609   4.254   0.025   2.745
 6570SOL    HW220610   4.245   6.911   2.645
 6571SOL     OW20611   3.285   6.664   2.941
 6571SOL    HW120612   3.353   6.619   2.999
 6571SOL    HW220613   3.331   6.720   2.873
 6572SOL     OW20614   1.416   6.385   3.743
 6572SOL    HW120615   1.330   6.346   3.776
 6572SOL    HW220616   1.491   6.321   3.764
 6573SOL     OW20617   1.445   2.348   3.447
 6573SOL    HW120618   1.381   2.401   3.502
 6573SOL    HW220619   1.498   2.287   3.507
 6574SOL     OW20620   0.817   4.767   1.412
 6574SOL    HW120621   0.823   4.862   1.380
 6574SOL    HW220622   0.879   4.710   1.358
 6575SOL     OW20623   0.226   1.018   3.877
 6575SOL    HW120624   0.264   1.077   3.805
 6575SOL    HW220625   0.261   0.925   3.865
 6576SOL     OW20626   3.779   6.943   2.198
 6576SOL    HW120627   3.811   6.903   2.283
 6576SOL    HW220628   3.807   0.024   2.194
 6577SOL     OW20629   3.395   0.914   5.262
 6577SOL    HW120630   3.494   0.925   5.275
 6577SOL    HW220631   3.347   0.995   5.295
 6578SOL     OW20632   0.727   6.033   0.065
 6578SOL    HW120633   0.642   5.990   0.096
 6578SOL    HW220634   0.757   5.990   6.994
 6579SOL     OW20635   1.671   1.453   3.413
 6579SOL    HW120636   1.670   1.502   3.500
 6579SOL    HW220637   1.614   1.502   3.347
 6580SOL     OW20638   2.986   2.736   0.065
 6580SOL    HW120639   3.080   2.768   0.052
 6580SOL    HW220640   2.986   2.637   0.074
 6581SOL     OW20641   0.334   2.408   2.217
 6581SOL    HW120642   0.319   2.407   2.316
 6581SOL    HW220643   0.323   2.315   2.181
 6582SOL     OW20644   4.040   0.450   3.316
 6582SOL    HW120645   4.015   0.539   3.279
 6582SOL    HW220646   4.043   0.383   3.242
 6583SOL     OW20647   2.167   3.978   1.398
 6583SOL    HW120648   2.225   4.019   1.468
 6583SOL    HW220649   2.128   4.050   1.341
 6584SOL     OW20650   4.282   3.485   6.359
 6584SOL    HW120651   4.296   3.576   6.397
 6584SOL    HW220652   4.370   3.437   6.352
 6585SOL     OW20653   5.780   0.240   1.824
 6585SOL    HW120654   5.839   0.163   1.847
 6585SOL    HW220655   5.706   0.209   1.764
 6586SOL     OW20656   6.613   1.956   0.269
 6586SOL    HW120657   6.709   1.967   0.294
 6586SOL    HW220658   6.558   2.025   0.318
 6587SOL     OW20659   2.658   5.132   5.389
 6587SOL    HW120660   2.608   5.095   5.467
 6587SOL    HW220661   2.703   5.057   5.340
 6588SOL     OW20662   1.093   1.692   0.840
 6588SOL    HW120663   1.049   1.774   0.878
 6588SOL    HW220664   1.042   1.660   0.761
 6589SOL     OW20665   5.576   6.945   0.537
 6589SOL    HW120666   5.510   6.888   0.489
 6589SOL    HW220667   5.628   6.889   0.602
 6590SOL     OW20668   1.282   6.254   4.450
 6590SOL    HW120669   1.219   6.202   4.508
 6590SOL    HW220670   1.271   6.225   4.355
 6591SOL     OW20671   6.439   3.317   3.693
 6591SOL    HW120672   6.427   3.224   3.661
 6591SOL    HW220673   6.533   3.329   3.727
 6592SOL     OW20674   0.329   0.580   4.340
 6592SOL    HW120675   0.243   0.613   4.380
 6592SOL    HW220676   0.406   0.616   4.393
 6593SOL     OW20677   1.131   0.613   3.175
 6593SOL    HW120678   1.202   0.608   3.245
 6593SOL    HW220679   1.120   0.708   3.145
 6594SOL     OW20680   5.422   0.210   6.499
 6594SOL    HW120681   5.378   0.183   6.585
 6594SOL    HW220682   5.504   0.154   6.484
 6595SOL     OW20683   1.516   1.206   5.106
 6595SOL    HW120684   1.538   1.109   5.094
 6595SOL    HW220685   1.465   1.239   5.027
 6596SOL     OW20686   5.458   0.732   3.162
 6596SOL    HW120687   5.502   0.649   3.197
 6596SOL    HW220688   5.371   0.708   3.119
 6597SOL     OW20689   1.243   4.932   1.413
 6597SOL    HW120690   1.254   4.897   1.506
 6597SOL    HW220691   1.280   5.025   1.409
 6598SOL     OW20692   1.383   5.357   1.754
 6598SOL    HW120693   1.413   5.301   1.831
 6598SOL    HW220694   1.289   5.333   1.729
 6599SOL     OW20695   1.002   5.882   6.326
 6599SOL    HW120696   0.994   5.922   6.418
 6599SOL    HW220697   1.099   5.864   6.307
 6600SOL     OW20698   4.957   6.869   4.512
 6600SOL    HW120699   4.907   6.807   4.573
 6600SOL    HW220700   5.031   6.819   4.467
 6601SOL     OW20701   1.028   2.660   2.761
 6601SOL    HW120702   1.089   2.619   2.694
 6601SOL    HW220703   0.967   2.725   2.715
 6602SOL     OW20704   5.856   6.262   0.535
 6602SOL    HW120705   5.908   6.347   0.547
 6602SOL    HW220706   5.912   6.184   0.564
 6603SOL     OW20707   0.295   4.631   2.515
 6603SOL    HW120708   0.327   4.577   2.437
 6603SOL    HW220709   0.212   4.680   2.489
 6604SOL     OW20710   1.444   5.240   2.615
 6604SOL    HW120711   1.403   5.149   2.617
 6604SOL    HW220712   1.500   5.254   2.697
 6605SOL     OW20713   7.001   5.434   1.025
 6605SOL    HW120714   6.939   5.501   0.986
 6605SOL    HW220715   0.080   5.460   1.005
 6606SOL     OW20716   1.314   4.772   2.860
 6606SOL    HW120717   1.345   4.704   2.793
 6606SOL    HW220718   1.305   4.729   2.949
 6607SOL     OW20719   6.300   3.432   4.004
 6607SOL    HW120720   6.358   3.390   3.935
 6607SOL    HW220721   6.321   3.393   4.094
 6608SOL     OW20722   1.901   0.720   5.292
 6608SOL    HW120723   1.951   0.789   5.240
 6608SOL    HW220724   1.919   0.733   5.390
 6609SOL     OW20725   2.670   2.097   6.952
 6609SOL    HW120726   2.718   2.174   6.910
 6609SOL    HW220727   2.710   2.078   0.027
 6610SOL     OW20728   3.204   6.268   0.827
 6610SOL    HW120729   3.271   6.327   0.782
 6610SOL    HW220730   3.205   6.177   0.785
 6611SOL     OW20731   3.193   1.526   4.744
 6611SOL    HW120732   3.278   1.573   4.770
 6611SOL    HW220733   3.128   1.592   4.708
 6612SOL     OW20734   6.631   0.566   0.175
 6612SOL    HW120735   6.555   0.510   0.209
 6612SOL    HW220736   6.604   0.662   0.176
 6613SOL     OW20737   4.246   0.171   1.299
 6613SOL    HW120738   4.264   0.167   1.398
 6613SOL    HW220739   4.233   0.079   1.264
 6614SOL     OW20740   4.061   4.574   0.755
 6614SOL    HW120741   4.125   4.517   0.703
 6614SOL    HW220742   3.971   4.570   0.713
 6615SOL     OW20743   3.857   5.871   6.033
 6615SOL    HW120744   3.853   5.774   6.057
 6615SOL    HW220745   3.764   5.906   6.017
 6616SOL     OW20746   4.308   2.208   6.309
 6616SOL    HW120747   4.322   2.151   6.390
 6616SOL    HW220748   4.237   2.276   6.327
 6617SOL     OW20749   3.622   1.813   3.972
 6617SOL    HW120750   3.559   1.736   3.961
 6617SOL    HW220751   3.573   1.899   3.957
 6618SOL     OW20752   6.496   3.051   3.538
 6618SOL    HW120753   6.429   3.058   3.464
 6618SOL    HW220754   6.585   3.024   3.501
 6619SOL     OW20755   4.643   5.216   4.212
 6619SOL    HW120756   4.634   5.206   4.311
 6619SOL    HW220757   4.556   5.192   4.168
 6620SOL     OW20758   1.274   2.662   3.435
 6620SOL    HW120759   1.280   2.586   3.500
 6620SOL    HW220760   1.196   2.648   3.374
 6621SOL     OW20761   3.361   3.485   3.653
 6621SOL    HW120762   3.411   3.510   3.735
 6621SOL    HW220763   3.380   3.390   3.630
 6622SOL     OW20764   0.275   4.712   1.884
 6622SOL    HW120765   0.199   4.778   1.887
 6622SOL    HW220766   0.242   4.622   1.912
 6623SOL     OW20767   3.553   3.239   3.735
 6623SOL    HW120768   3.643   3.249   3.694
 6623SOL    HW220769   3.549   3.154   3.788
 6624SOL     OW20770   2.553   2.251   2.795
 6624SOL    HW120771   2.460   2.215   2.798
 6624SOL    HW220772   2.618   2.178   2.817
 6625SOL     OW20773   0.312   4.400   5.774
 6625SOL    HW120774   0.315   4.483   5.719
 6625SOL    HW220775   0.404   4.377   5.806
 6626SOL     OW20776   3.337   6.012   5.294
 6626SOL    HW120777   3.429   6.047   5.283
 6626SOL    HW220778   3.295   6.054   5.375
 6627SOL     OW20779   2.529   6.750   4.590
 6627SOL    HW120780   2.540   6.682   4.662
 6627SOL    HW220781   2.432   6.763   4.570
 6628SOL     OW20782   3.842   7.004   3.414
 6628SOL    HW120783   3.856   7.003   3.315
 6628SOL    HW220784   3.760   0.042   3.436
 6629SOL     OW20785   4.718   6.265   4.962
 6629SOL    HW120786   4.631   6.273   4.914
 6629SOL    HW220787   4.792   6.289   4.899
 6630SOL     OW20788   1.864   6.970   0.134
 6630SOL    HW120789   1.801   6.961   0.057
 6630SOL    HW220790   1.833   6.912   0.210
 6631SOL     OW20791   1.666   1.680   5.925
 6631SOL    HW120792   1.583   1.695   5.872
 6631SOL    HW220793   1.699   1.586   5.911
 6632SOL     OW20794   1.090   0.598   6.401
 6632SOL    HW120795   1.037   0.595   6.486
 6632SOL    HW220796   1.182   0.562   6.418
 6633SOL     OW20797   4.549   6.577   6.357
 6633SOL    HW120798   4.499   6.642   6.301
 6633SOL    HW220799   4.642   6.611   6.373
 6634SOL     OW20800   2.973   2.255   4.279
 6634SOL    HW120801   3.002   2.216   4.366
 6634SOL    HW220802   2.895   2.316   4.294
 6635SOL     OW20803   5.447   5.363   5.883
 6635SOL    HW120804   5.434   5.278   5.935
 6635SOL    HW220805   5.538   5.362   5.841
 6636SOL     OW20806   3.998   1.703   1.214
 6636SOL    HW120807   4.072   1.671   1.273
 6636SOL    HW220808   3.979   1.634   1.145
 6637SOL     OW20809   0.217   2.907   6.800
 6637SOL    HW120810   0.157   2.865   6.868
 6637SOL    HW220811   0.250   2.837   6.737
 6638SOL     OW20812   3.010   3.829   3.553
 6638SOL    HW120813   3.043   3.909   3.603
 6638SOL    HW220814   2.969   3.857   3.466
 6639SOL     OW20815   4.948   3.165   1.460
 6639SOL    HW120816   4.942   3.137   1.365
 6639SOL    HW220817   4.966   3.264   1.465
 6640SOL     OW20818   0.882   3.304   4.601
 6640SOL    HW120819   0.941   3.227   4.574
 6640SOL    HW220820   0.933   3.389   4.593
 6641SOL     OW20821   5.087   2.667   6.901
 6641SOL    HW120822   5.162   2.683   6.966
 6641SOL    HW220823   5.008   2.722   6.927
 6642SOL     OW20824   1.405   4.886   6.224
 6642SOL    HW120825   1.431   4.954   6.156
 6642SOL    HW220826   1.307   4.865   6.215
 6643SOL     OW20827   4.840   5.620   5.800
 6643SOL    HW120828   4.754   5.607   5.850
 6643SOL    HW220829   4.906   5.551   5.828
 6644SOL     OW20830   1.986   0.074   3.663
 6644SOL    HW120831   2.040   0.076   3.579
 6644SOL    HW220832   2.043   0.042   3.738
 6645SOL     OW20833   4.866   2.589   5.209
 6645SOL    HW120834   4.835   2.496   5.226
 6645SOL    HW220835   4.826   2.622   5.123
 6646SOL     OW20836   5.006   6.937   6.312
 6646SOL    HW120837   4.991   0.002   6.254
 6646SOL    HW220838   5.103   6.911   6.309
 6647SOL     OW20839   3.652   4.799   0.733
 6647SOL    HW120840   3.566   4.796   0.682
 6647SOL    HW220841   3.685   4.894   0.736
 6648SOL     OW20842   3.300   5.542   5.366
 6648SOL    HW120843   3.322   5.445   5.380
 6648SOL    HW220844   3.370   5.599   5.408
 6649SOL     OW20845   5.389   2.821   5.621
 6649SOL    HW120846   5.436   2.757   5.681
 6649SOL    HW220847   5.457   2.877   5.573
 6650SOL     OW20848   3.034   0.978   4.683
 6650SOL    HW120849   3.038   0.881   4.658
 6650SOL    HW220850   2.941   1.002   4.710
 6651SOL     OW20851   6.964   0.877   3.575
 6651SOL    HW120852   7.010   0.908   3.492
 6651SOL    HW220853   6.927   0.785   3.561
 6652SOL     OW20854   0.215   5.194   6.830
 6652SOL    HW120855   0.295   5.138   6.849
 6652SOL    HW220856   0.132   5.145   6.856
 6653SOL     OW20857   5.551   4.087   6.667
 6653SOL    HW120858   5.574   4.026   6.744
 6653SOL    HW220859   5.456   4.117   6.676
 6654SOL     OW20860   0.011   1.865   3.322
 6654SOL    HW120861   6.974   1.875   3.237
 6654SOL    HW220862   0.006   1.950   3.375
 6655SOL     OW20863   0.013   5.665   1.602
 6655SOL    HW120864   0.058   5.614   1.676
 6655SOL    HW220865   6.936   5.690   1.630
 6656SOL     OW20866   4.865   0.847   2.403
 6656SOL    HW120867   4.823   0.938   2.402
 6656SOL    HW220868   4.812   0.787   2.462
 6657SOL     OW20869   4.833   1.963   4.262
 6657SOL    HW120870   4.784   1.966   4.175
 6657SOL    HW220871   4.813   2.046   4.315
 6658SOL     OW20872   6.533   5.798   4.872
 6658SOL    HW120873   6.574   5.708   4.888
 6658SOL    HW220874   6.471   5.821   4.947
 6659SOL     OW20875   0.475   6.532   0.726
 6659SOL    HW120876   0.381   6.529   0.691
 6659SOL    HW220877   0.478   6.593   0.806
 6660SOL     OW20878   1.258   0.509   4.065
 6660SOL    HW120879   1.173   0.497   4.012
 6660SOL    HW220880   1.329   0.450   4.028
 6661SOL     OW20881   4.113   6.902   3.434
 6661SOL    HW120882   4.014   6.906   3.446
 6661SOL    HW220883   4.158   6.946   3.512
 6662SOL     OW20884   3.442   0.017   2.202
 6662SOL    HW120885   3.443   0.090   2.135
 6662SOL    HW220886   3.373   0.037   2.272
 6663SOL     OW20887   1.430   3.878   5.512
 6663SOL    HW120888   1.525   3.869   5.541
 6663SOL    HW220889   1.419   3.839   5.421
 6664SOL     OW20890   3.055   0.202   1.951
 6664SOL    HW120891   3.044   0.240   1.858
 6664SOL    HW220892   2.966   0.170   1.984
 6665SOL     OW20893   2.621   0.424   6.505
 6665SOL    HW120894   2.675   0.502   6.473
 6665SOL    HW220895   2.674   0.372   6.571
 6666SOL     OW20896   2.994   5.967   6.045
 6666SOL    HW120897   3.083   5.922   6.048
 6666SOL    HW220898   2.962   5.971   5.950
 6667SOL     OW20899   2.089   5.752   0.132
 6667SOL    HW120900   2.104   5.755   0.231
 6667SOL    HW220901   2.051   5.663   0.108
 6668SOL     OW20902   0.753   3.445   5.980
 6668SOL    HW120903   0.836   3.500   5.977
 6668SOL    HW220904   0.742   3.397   5.893
 6669SOL     OW20905   0.838   3.081   3.228
 6669SOL    HW120906   0.841   3.147   3.303
 6669SOL    HW220907   0.895   3.002   3.251
 6670SOL     OW20908   2.464   4.010   0.471
 6670SOL    HW120909   2.365   4.005   0.484
 6670SOL    HW220910   2.497   4.101   0.497
 6671SOL     OW20911   4.650   4.907   0.387
 6671SOL    HW120912   4.690   4.856   0.311
 6671SOL    HW220913   4.718   4.970   0.424
 6672SOL     OW20914   1.934   2.141   0.951
 6672SOL    HW120915   1.919   2.232   0.989
 6672SOL    HW220916   2.015   2.101   0.994
 6673SOL     OW20917   5.485   3.662   4.411
 6673SOL    HW120918   5.425   3.687   4.487
 6673SOL    HW220919   5.471   3.725   4.335
 6674SOL     OW20920   0.020   1.007   0.253
 6674SOL    HW120921   0.108   1.044   0.223
 6674SOL    HW220922   0.035   0.933   0.318
 6675SOL     OW20923   5.051   1.440   0.297
 6675SOL    HW120924   5.015   1.348   0.279
 6675SOL    HW220925   5.147   1.433   0.324
 6676SOL     OW20926   1.157   3.684   5.388
 6676SOL    HW120927   1.107   3.723   5.466
 6676SOL    HW220928   1.122   3.724   5.303
 6677SOL     OW20929   0.017   2.293   6.792
 6677SOL    HW120930   7.005   2.206   6.835
 6677SOL    HW220931   0.000   2.368   6.856
 6678SOL     OW20932   2.710   3.686   6.573
 6678SOL    HW120933   2.677   3.607   6.522
 6678SOL    HW220934   2.765   3.744   6.513
 6679SOL     OW20935   1.609   0.528   4.348
 6679SOL    HW120936   1.630   0.542   4.251
 6679SOL    HW220937   1.541   0.595   4.378
 6680SOL     OW20938   6.362   5.679   2.113
 6680SOL    HW120939   6.310   5.734   2.048
 6680SOL    HW220940   6.369   5.586   2.079
 6681SOL     OW20941   3.367   5.633   0.931
 6681SOL    HW120942   3.291   5.575   0.903
 6681SOL    HW220943   3.335   5.700   0.998
 6682SOL     OW20944   2.548   5.167   6.328
 6682SOL    HW120945   2.521   5.075   6.300
 6682SOL    HW220946   2.493   5.194   6.408
 6683SOL     OW20947   6.544   5.928   6.245
 6683SOL    HW120948   6.543   5.875   6.330
 6683SOL    HW220949   6.611   6.002   6.253
 6684SOL     OW20950   2.798   6.260   5.936
 6684SOL    HW120951   2.844   6.310   5.863
 6684SOL    HW220952   2.781   6.166   5.906
 6685SOL     OW20953   3.803   2.834   0.469
 6685SOL    HW120954   3.867   2.873   0.535
 6685SOL    HW220955   3.854   2.788   0.396
 6686SOL     OW20956   4.527   4.306   5.198
 6686SOL    HW120957   4.488   4.265   5.281
 6686SOL    HW220958   4.457   4.361   5.153
 6687SOL     OW20959   0.230   2.607   0.908
 6687SOL    HW120960   0.168   2.537   0.872
 6687SOL    HW220961   0.297   2.631   0.838
 6688SOL     OW20962   5.740   5.361   0.905
 6688SOL    HW120963   5.738   5.459   0.926
 6688SOL    HW220964   5.654   5.318   0.935
 6689SOL     OW20965   3.530   5.119   6.024
 6689SOL    HW120966   3.567   5.198   5.975
 6689SOL    HW220967   3.513   5.045   5.958
 6690SOL     OW20968   1.185   0.370   0.412
 6690SOL    HW120969   1.216   0.301   0.346
 6690SOL    HW220970   1.087   0.357   0.431
 6691SOL     OW20971   2.383   1.710   1.966
 6691SOL    HW120972   2.302   1.707   1.907
 6691SOL    HW220973   2.466   1.715   1.910
 6692SOL     OW20974   4.261   6.483   2.098
 6692SOL    HW120975   4.344   6.496   2.153
 6692SOL    HW220976   4.181   6.482   2.158
 6693SOL     OW20977   3.165   1.426   5.922
 6693SOL    HW120978   3.127   1.442   5.831
 6693SOL    HW220979   3.213   1.338   5.923
 6694SOL     OW20980   4.534   4.120   1.491
 6694SOL    HW120981   4.547   4.173   1.574
 6694SOL    HW220982   4.559   4.176   1.412
 6695SOL     OW20983   2.703   2.432   6.973
 6695SOL    HW120984   2.669   2.522   6.948
 6695SOL    HW220985   2.643   2.392   0.028
 6696SOL     OW20986   3.684   2.891   5.144
 6696SOL    HW120987   3.745   2.817   5.174
 6696SOL    HW220988   3.605   2.852   5.097
 6697SOL     OW20989   4.659   2.196   2.780
 6697SOL    HW120990   4.579   2.191   2.719
 6697SOL    HW220991   4.669   2.290   2.813
 6698SOL     OW20992   2.775   3.861   1.545
 6698SOL    HW120993   2.804   3.802   1.621
 6698SOL    HW220994   2.713   3.811   1.485
 6699SOL     OW20995   1.681   3.145   6.651
 6699SOL    HW120996   1.742   3.178   6.722
 6699SOL    HW220997   1.719   3.167   6.561
 6700SOL     OW20998   5.021   0.692   1.359
 6700SOL    HW120999   5.047   0.787   1.343
 6700SOL    HW221000   4.923   0.687   1.379
 6701SOL     OW21001   6.007   7.010   1.581
 6701SOL    HW121002   6.084   6.978   1.637
 6701SOL    HW221003   6.006   0.094   1.579
 6702SOL     OW21004   4.468   2.528   1.023
 6702SOL    HW121005   4.458   2.597   0.952
 6702SOL    HW221006   4.381   2.480   1.035
 6703SOL     OW21007   0.910   1.496   0.311
 6703SOL    HW121008   0.891   1.407   0.269
 6703SOL    HW221009   1.000   1.527   0.283
 6704SOL     OW21010   2.617   6.758   5.884
 6704SOL    HW121011   2.529   6.732   5.924
 6704SOL    HW221012   2.623   6.858   5.878
 6705SOL     OW21013   0.338   4.417   2.287
 6705SOL    HW121014   0.380   4.347   2.344
 6705SOL    HW221015   0.245   4.390   2.263
 6706SOL     OW21016   0.246   6.002   0.026
 6706SOL    HW121017   0.220   5.940   0.100
 6706SOL    HW221018   0.306   5.955   6.977
 6707SOL     OW21019   4.615   1.212   2.915
 6707SOL    HW121020   4.668   1.167   2.843
 6707SOL    HW221021   4.517   1.205   2.894
 6708SOL     OW21022   0.501   3.555   0.585
 6708SOL    HW121023   0.410   3.568   0.624
 6708SOL    HW221024   0.566   3.618   0.628
 6709SOL     OW21025   2.056   4.254   2.135
 6709SOL    HW121026   2.031   4.185   2.067
 6709SOL    HW221027   1.975   4.278   2.189
 6710SOL     OW21028   4.482   1.957   1.498
 6710SOL    HW121029   4.458   1.864   1.526
 6710SOL    HW221030   4.428   2.022   1.551
 6711SOL     OW21031   4.377   5.449   6.108
 6711SOL    HW121032   4.295   5.503   6.124
 6711SOL    HW221033   4.455   5.511   6.096
 6712SOL     OW21034   5.368   3.839   1.274
 6712SOL    HW121035   5.398   3.869   1.183
 6712SOL    HW221036   5.329   3.917   1.323
 6713SOL     OW21037   2.043   4.708   4.061
 6713SOL    HW121038   2.098   4.668   4.134
 6713SOL    HW221039   2.056   4.656   3.976
 6714SOL     OW21040   5.656   1.102   2.048
 6714SOL    HW121041   5.632   1.105   2.145
 6714SOL    HW221042   5.742   1.150   2.033
 6715SOL     OW21043   1.241   0.214   5.996
 6715SOL    HW121044   1.336   0.238   6.017
 6715SOL    HW221045   1.183   0.294   6.008
 6716SOL     OW21046   1.287   4.590   1.834
 6716SOL    HW121047   1.325   4.620   1.746
 6716SOL    HW221048   1.199   4.635   1.850
 6717SOL     OW21049   6.221   2.455   5.308
 6717SOL    HW121050   6.298   2.444   5.370
 6717SOL    HW221051   6.135   2.449   5.360
 6718SOL     OW21052   4.514   2.163   0.632
 6718SOL    HW121053   4.481   2.144   0.724
 6718SOL    HW221054   4.611   2.139   0.626
 6719SOL     OW21055   1.453   1.315   0.493
 6719SOL    HW121056   1.444   1.215   0.491
 6719SOL    HW221057   1.522   1.343   0.427
 6720SOL     OW21058   1.693   1.608   5.183
 6720SOL    HW121059   1.624   1.543   5.214
 6720SOL    HW221060   1.706   1.599   5.085
 6721SOL     OW21061   6.798   6.880   0.496
 6721SOL    HW121062   6.888   6.914   0.468
 6721SOL    HW221063   6.773   6.919   0.584
 6722SOL     OW21064   6.067   4.692   1.202
 6722SOL    HW121065   6.148   4.689   1.261
 6722SOL    HW221066   6.069   4.615   1.139
 6723SOL     OW21067   1.590   3.161   4.731
 6723SOL    HW121068   1.643   3.207   4.660
 6723SOL    HW221069   1.598   3.062   4.718
 6724SOL     OW21070   1.970   3.190   5.168
 6724SOL    HW121071   2.025   3.259   5.121
 6724SOL    HW221072   1.930   3.230   5.250
 6725SOL     OW21073   4.688   2.836   3.956
 6725SOL    HW121074   4.729   2.774   3.889
 6725SOL    HW221075   4.689   2.929   3.920
 6726SOL     OW21076   6.791   1.658   0.062
 6726SOL    HW121077   6.848   1.640   0.143
 6726SOL    HW221078   6.718   1.721   0.087
 6727SOL     OW21079   0.874   5.260   5.771
 6727SOL    HW121080   0.874   5.355   5.805
 6727SOL    HW221081   0.883   5.197   5.848
 6728SOL     OW21082   3.762   1.405   5.005
 6728SOL    HW121083   3.664   1.400   4.984
 6728SOL    HW221084   3.783   1.347   5.084
 6729SOL     OW21085   4.386   1.121   2.470
 6729SOL    HW121086   4.423   1.126   2.378
 6729SOL    HW221087   4.347   1.210   2.495
 6730SOL     OW21088   0.381   2.024   1.387
 6730SOL    HW121089   0.451   2.065   1.445
 6730SOL    HW221090   0.424   1.958   1.325
 6731SOL     OW21091   3.995   0.740   6.478
 6731SOL    HW121092   3.996   0.651   6.523
 6731SOL    HW221093   4.088   0.772   6.462
 6732SOL     OW21094   6.166   5.381   5.608
 6732SOL    HW121095   6.202   5.296   5.569
 6732SOL    HW221096   6.118   5.360   5.693
 6733SOL     OW21097   4.922   5.022   5.605
 6733SOL    HW121098   4.827   5.012   5.575
 6733SOL    HW221099   4.926   5.015   5.704
 6734SOL     OW21100   5.577   1.992   5.334
 6734SOL    HW121101   5.508   1.955   5.396
 6734SOL    HW221102   5.534   2.057   5.271
 6735SOL     OW21103   5.655   3.106   4.499
 6735SOL    HW121104   5.607   3.162   4.567
 6735SOL    HW221105   5.616   3.123   4.408
 6736SOL     OW21106   3.802   3.942   0.760
 6736SOL    HW121107   3.899   3.959   0.774
 6736SOL    HW221108   3.782   3.941   0.661
 6737SOL     OW21109   5.894   3.759   0.694
 6737SOL    HW121110   5.797   3.780   0.681
 6737SOL    HW221111   5.904   3.683   0.758
 6738SOL     OW21112   2.142   6.540   4.312
 6738SOL    HW121113   2.228   6.537   4.363
 6738SOL    HW221114   2.160   6.531   4.214
 6739SOL     OW21115   0.119   0.392   5.843
 6739SOL    HW121116   0.159   0.406   5.753
 6739SOL    HW221117   0.193   0.372   5.909
 6740SOL     OW21118   0.430   6.784   2.100
 6740SOL    HW121119   0.525   6.813   2.104
 6740SOL    HW221120   0.421   6.705   2.040
 6741SOL     OW21121   3.000   2.147   0.471
 6741SOL    HW121122   3.000   2.238   0.431
 6741SOL    HW221123   2.957   2.083   0.408
 6742SOL     OW21124   6.371   4.896   2.478
 6742SOL    HW121125   6.427   4.854   2.406
 6742SOL    HW221126   6.403   4.989   2.496
 6743SOL     OW21127   3.838   3.839   6.839
 6743SOL    HW121128   3.768   3.911   6.840
 6743SOL    HW221129   3.800   3.755   6.878
 6744SOL     OW21130   6.728   6.234   6.014
 6744SOL    HW121131   6.779   6.284   5.944
 6744SOL    HW221132   6.630   6.244   5.997
 6745SOL     OW21133   5.555   3.868   5.588
 6745SOL    HW121134   5.473   3.916   5.620
 6745SOL    HW221135   5.603   3.925   5.521
 6746SOL     OW21136   1.218   2.014   3.169
 6746SOL    HW121137   1.239   2.111   3.184
 6746SOL    HW221138   1.199   1.999   3.071
 6747SOL     OW21139   1.261   6.089   4.934
 6747SOL    HW121140   1.286   5.994   4.913
 6747SOL    HW221141   1.166   6.093   4.965
 6748SOL     OW21142   1.599   1.802   4.408
 6748SOL    HW121143   1.518   1.836   4.362
 6748SOL    HW221144   1.623   1.863   4.484
 6749SOL     OW21145   4.194   4.681   2.235
 6749SOL    HW121146   4.182   4.672   2.334
 6749SOL    HW221147   4.121   4.631   2.188
 6750SOL     OW21148   3.736   0.951   5.989
 6750SOL    HW121149   3.817   0.906   6.025
 6750SOL    HW221150   3.691   1.004   6.061
 6751SOL     OW21151   3.993   0.974   4.699
 6751SOL    HW121152   4.030   0.978   4.792
 6751SOL    HW221153   4.020   1.057   4.650
 6752SOL     OW21154   1.791   4.583   3.065
 6752SOL    HW121155   1.762   4.584   2.969
 6752SOL    HW221156   1.870   4.523   3.075
 6753SOL     OW21157   3.700   4.243   0.522
 6753SOL    HW121158   3.703   4.143   0.515
 6753SOL    HW221159   3.721   4.283   0.432
 6754SOL     OW21160   6.246   1.279   0.618
 6754SOL    HW121161   6.228   1.258   0.714
 6754SOL    HW221162   6.200   1.212   0.560
 6755SOL     OW21163   4.008   5.988   5.516
 6755SOL    HW121164   4.073   5.915   5.493
 6755SOL    HW221165   4.056   6.076   5.519
 6756SOL     OW21166   4.338   3.048   6.293
 6756SOL    HW121167   4.432   3.065   6.320
 6756SOL    HW221168   4.314   3.106   6.215
 6757SOL     OW21169   4.397   6.991   2.066
 6757SOL    HW121170   4.432   6.965   2.156
 6757SOL    HW221171   4.321   0.039   2.077
 6758SOL     OW21172   4.825   3.287   3.232
 6758SOL    HW121173   4.738   3.330   3.258
 6758SOL    HW221174   4.822   3.263   3.135
 6759SOL     OW21175   1.589   1.933   2.438
 6759SOL    HW121176   1.529   2.010   2.460
 6759SOL    HW221177   1.684   1.963   2.442
 6760SOL     OW21178   5.659   1.823   5.793
 6760SOL    HW121179   5.695   1.903   5.840
 6760SOL    HW221180   5.686   1.740   5.842
 6761SOL     OW21181   2.700   0.641   4.857
 6761SOL    HW121182   2.713   0.667   4.953
 6761SOL    HW221183   2.788   0.614   4.818
 6762SOL     OW21184   5.700   4.930   4.402
 6762SOL    HW121185   5.753   4.933   4.317
 6762SOL    HW221186   5.700   4.837   4.438
 6763SOL     OW21187   5.655   6.640   4.092
 6763SOL    HW121188   5.712   6.606   4.167
 6763SOL    HW221189   5.664   6.739   4.085
 6764SOL     OW21190   0.750   4.706   1.703
 6764SOL    HW121191   0.730   4.725   1.607
 6764SOL    HW221192   0.717   4.782   1.760
 6765SOL     OW21193   6.915   4.088   2.769
 6765SOL    HW121194   6.825   4.076   2.726
 6765SOL    HW221195   6.927   4.185   2.792
 6766SOL     OW21196   5.837   0.290   1.228
 6766SOL    HW121197   5.738   0.283   1.235
 6766SOL    HW221198   5.872   0.344   1.305
 6767SOL     OW21199   3.187   0.643   1.239
 6767SOL    HW121200   3.219   0.653   1.333
 6767SOL    HW221201   3.182   0.546   1.215
 6768SOL     OW21202   2.186   0.072   6.846
 6768SOL    HW121203   2.254   0.033   6.784
 6768SOL    HW221204   2.101   0.090   6.795
 6769SOL     OW21205   5.119   3.227   1.247
 6769SOL    HW121206   5.124   3.134   1.211
 6769SOL    HW221207   5.125   3.292   1.172
 6770SOL     OW21208   0.086   1.608   1.714
 6770SOL    HW121209   0.047   1.697   1.738
 6770SOL    HW221210   0.147   1.577   1.787
 6771SOL     OW21211   4.880   1.502   3.751
 6771SOL    HW121212   4.874   1.599   3.775
 6771SOL    HW221213   4.871   1.446   3.834
 6772SOL     OW21214   3.420   1.634   4.820
 6772SOL    HW121215   3.397   1.717   4.769
 6772SOL    HW221216   3.427   1.656   4.918
 6773SOL     OW21217   0.340   3.474   1.741
 6773SOL    HW121218   0.296   3.522   1.817
 6773SOL    HW221219   0.439   3.490   1.744
 6774SOL     OW21220   1.178   2.213   6.567
 6774SOL    HW121221   1.111   2.284   6.590
 6774SOL    HW221222   1.136   2.146   6.505
 6775SOL     OW21223   0.491   3.777   0.238
 6775SOL    HW121224   0.590   3.767   0.235
 6775SOL    HW221225   0.467   3.862   0.285
 6776SOL     OW21226   5.989   5.994   6.876
 6776SOL    HW121227   6.062   6.062   6.867
 6776SOL    HW221228   5.950   5.999   6.968
 6777SOL     OW21229   4.661   4.756   6.750
 6777SOL    HW121230   4.753   4.760   6.789
 6777SOL    HW221231   4.607   4.686   6.797
 6778SOL     OW21232   6.338   5.749   3.459
 6778SOL    HW121233   6.423   5.706   3.490
 6778SOL    HW221234   6.260   5.707   3.504
 6779SOL     OW21235   5.949   3.902   6.317
 6779SOL    HW121236   5.876   3.863   6.374
 6779SOL    HW221237   5.990   3.980   6.364
 6780SOL     OW21238   0.593   3.196   1.651
 6780SOL    HW121239   0.613   3.106   1.613
 6780SOL    HW221240   0.644   3.266   1.600
 6781SOL     OW21241   5.292   5.262   5.663
 6781SOL    HW121242   5.196   5.291   5.654
 6781SOL    HW221243   5.336   5.317   5.734
 6782SOL     OW21244   6.060   1.038   3.370
 6782SOL    HW121245   6.038   0.951   3.326
 6782SOL    HW221246   6.091   1.104   3.302
 6783SOL     OW21247   1.647   5.731   6.528
 6783SOL    HW121248   1.638   5.635   6.557
 6783SOL    HW221249   1.578   5.786   6.576
 6784SOL     OW21250   3.653   3.593   0.234
 6784SOL    HW121251   3.568   3.545   0.257
 6784SOL    HW221252   3.668   3.588   0.135
 6785SOL     OW21253   5.639   5.729   2.133
 6785SOL    HW121254   5.664   5.657   2.198
 6785SOL    HW221255   5.720   5.783   2.109
 6786SOL     OW21256   1.695   3.399   5.567
 6786SOL    HW121257   1.791   3.426   5.559
 6786SOL    HW221258   1.636   3.477   5.549
 6787SOL     OW21259   1.264   3.696   1.683
 6787SOL    HW121260   1.295   3.790   1.666
 6787SOL    HW221261   1.212   3.693   1.768
 6788SOL     OW21262   2.689   3.651   1.374
 6788SOL    HW121263   2.719   3.578   1.436
 6788SOL    HW221264   2.758   3.666   1.303
 6789SOL     OW21265   1.333   4.978   3.202
 6789SOL    HW121266   1.365   5.052   3.142
 6789SOL    HW221267   1.407   4.952   3.264
 6790SOL     OW21268   1.482   2.490   0.842
 6790SOL    HW121269   1.442   2.490   0.750
 6790SOL    HW221270   1.581   2.482   0.835
 6791SOL     OW21271   3.529   3.826   6.086
 6791SOL    HW121272   3.523   3.737   6.040
 6791SOL    HW221273   3.621   3.864   6.073
 6792SOL     OW21274   0.518   4.961   0.582
 6792SOL    HW121275   0.578   4.881   0.590
 6792SOL    HW221276   0.426   4.932   0.558
 6793SOL     OW21277   5.655   1.631   1.015
 6793SOL    HW121278   5.633   1.533   1.024
 6793SOL    HW221279   5.732   1.653   1.075
 6794SOL     OW21280   3.747   1.204   4.737
 6794SOL    HW121281   3.826   1.235   4.684
 6794SOL    HW221282   3.667   1.260   4.713
 6795SOL     OW21283   3.521   6.103   0.059
 6795SOL    HW121284   3.579   6.184   0.049
 6795SOL    HW221285   3.513   6.080   0.156
 6796SOL     OW21286   4.357   1.941   2.263
 6796SOL    HW121287   4.362   2.000   2.182
 6796SOL    HW221288   4.263   1.909   2.274
 6797SOL     OW21289   6.633   2.015   2.496
 6797SOL    HW121290   6.575   1.942   2.460
 6797SOL    HW221291   6.630   2.014   2.596
 6798SOL     OW21292   6.865   6.930   2.605
 6798SOL    HW121293   6.941   6.959   2.662
 6798SOL    HW221294   6.842   6.835   2.626
 6799SOL     OW21295   5.670   5.826   1.600
 6799SOL    HW121296   5.635   5.836   1.692
 6799SOL    HW221297   5.615   5.760   1.550
 6800SOL     OW21298   3.430   3.983   6.876
 6800SOL    HW121299   3.390   3.987   6.784
 6800SOL    HW221300   3.521   4.024   6.874
 6801SOL     OW21301   0.818   3.130   2.934
 6801SOL    HW121302   0.799   3.039   2.897
 6801SOL    HW221303   0.840   3.123   3.031
 6802SOL     OW21304   2.847   4.760   2.680
 6802SOL    HW121305   2.884   4.680   2.726
 6802SOL    HW221306   2.908   4.838   2.693
 6803SOL     OW21307   4.033   2.172   0.817
 6803SOL    HW121308   4.044   2.256   0.869
 6803SOL    HW221309   3.994   2.101   0.876
 6804SOL     OW21310   1.160   6.596   3.544
 6804SOL    HW121311   1.151   6.665   3.615
 6804SOL    HW221312   1.254   6.597   3.509
 6805SOL     OW21313   5.680   1.198   5.534
 6805SOL    HW121314   5.660   1.100   5.529
 6805SOL    HW221315   5.630   1.238   5.611
 6806SOL     OW21316   5.459   6.403   5.014
 6806SOL    HW121317   5.394   6.476   5.035
 6806SOL    HW221318   5.449   6.375   4.918
 6807SOL     OW21319   3.196   3.448   6.938
 6807SOL    HW121320   3.164   3.475   0.014
 6807SOL    HW221321   3.291   3.418   6.944
 6808SOL     OW21322   2.107   3.817   4.234
 6808SOL    HW121323   2.013   3.849   4.224
 6808SOL    HW221324   2.170   3.892   4.213
 6809SOL     OW21325   1.379   4.078   0.116
 6809SOL    HW121326   1.379   4.029   0.028
 6809SOL    HW221327   1.302   4.046   0.171
 6810SOL     OW21328   5.718   1.196   3.577
 6810SOL    HW121329   5.717   1.115   3.637
 6810SOL    HW221330   5.625   1.227   3.561
 6811SOL     OW21331   4.976   5.898   1.972
 6811SOL    HW121332   4.904   5.832   1.948
 6811SOL    HW221333   4.940   5.965   2.037
 6812SOL     OW21334   3.523   3.160   2.837
 6812SOL    HW121335   3.581   3.239   2.859
 6812SOL    HW221336   3.432   3.192   2.811
 6813SOL     OW21337   5.114   3.707   1.404
 6813SOL    HW121338   5.045   3.713   1.332
 6813SOL    HW221339   5.096   3.776   1.474
 6814SOL     OW21340   2.407   2.992   0.540
 6814SOL    HW121341   2.335   3.056   0.566
 6814SOL    HW221342   2.408   2.915   0.603
 6815SOL     OW21343   1.404   0.205   0.616
 6815SOL    HW121344   1.445   0.196   0.525
 6815SOL    HW221345   1.403   0.302   0.643
 6816SOL     OW21346   6.043   4.342   1.375
 6816SOL    HW121347   6.141   4.354   1.359
 6816SOL    HW221348   5.998   4.317   1.289
 6817SOL     OW21349   0.537   2.739   6.092
 6817SOL    HW121350   0.570   2.707   6.180
 6817SOL    HW221351   0.565   2.676   6.020
 6818SOL     OW21352   3.751   5.355   1.329
 6818SOL    HW121353   3.723   5.274   1.380
 6818SOL    HW221354   3.690   5.368   1.250
 6819SOL     OW21355   2.598   1.695   4.059
 6819SOL    HW121356   2.641   1.783   4.039
 6819SOL    HW221357   2.560   1.697   4.152
 6820SOL     OW21358   1.700   5.461   4.726
 6820SOL    HW121359   1.743   5.465   4.816
 6820SOL    HW221360   1.752   5.400   4.667
 6821SOL     OW21361   2.162   3.111   4.027
 6821SOL    HW121362   2.221   3.031   4.018
 6821SOL    HW221363   2.183   3.160   4.112
 6822SOL     OW21364   4.901   1.850   5.971
 6822SOL    HW121365   4.844   1.899   5.905
 6822SOL    HW221366   4.981   1.811   5.925
 6823SOL     OW21367   4.170   3.564   1.969
 6823SOL    HW121368   4.110   3.488   1.994
 6823SOL    HW221369   4.208   3.547   1.878
 6824SOL     OW21370   0.746   5.301   5.231
 6824SOL    HW121371   0.773   5.367   5.162
 6824SOL    HW221372   0.719   5.215   5.186
 6825SOL     OW21373   5.629   6.999   3.407
 6825SOL    HW121374   5.556   7.013   3.341
 6825SOL    HW221375   5.675   0.070   3.426
 6826SOL     OW21376   1.354   2.898   3.010
 6826SOL    HW121377   1.406   2.922   2.928
 6826SOL    HW221378   1.380   2.960   3.084
 6827SOL     OW21379   4.767   5.579   5.240
 6827SOL    HW121380   4.744   5.566   5.336
 6827SOL    HW221381   4.745   5.497   5.188
 6828SOL     OW21382   2.360   1.704   1.350
 6828SOL    HW121383   2.376   1.667   1.259
 6828SOL    HW221384   2.271   1.672   1.384
 6829SOL     OW21385   5.741   5.045   3.625
 6829SOL    HW121386   5.650   5.043   3.667
 6829SOL    HW221387   5.746   4.975   3.553
 6830SOL     OW21388   5.102   1.927   4.178
 6830SOL    HW121389   5.013   1.941   4.220
 6830SOL    HW221390   5.112   1.830   4.153
 6831SOL     OW21391   0.102   1.364   5.866
 6831SOL    HW121392   0.038   1.299   5.826
 6831SOL    HW221393   0.167   1.394   5.797
 6832SOL     OW21394   3.472   4.634   1.335
 6832SOL    HW121395   3.496   4.551   1.385
 6832SOL    HW221396   3.422   4.610   1.252
 6833SOL     OW21397   4.576   5.778   0.199
 6833SOL    HW121398   4.569   5.859   0.142
 6833SOL    HW221399   4.493   5.722   0.189
 6834SOL     OW21400   3.289   5.245   2.528
 6834SOL    HW121401   3.349   5.220   2.452
 6834SOL    HW221402   3.338   5.306   2.590
 6835SOL     OW21403   3.831   0.101   4.708
 6835SOL    HW121404   3.842   0.002   4.721
 6835SOL    HW221405   3.883   0.130   4.628
 6836SOL     OW21406   3.906   5.685   0.012
 6836SOL    HW121407   3.948   5.623   0.078
 6836SOL    HW221408   3.837   5.636   6.975
 6837SOL     OW21409   0.502   3.016   2.825
 6837SOL    HW121410   0.563   2.940   2.845
 6837SOL    HW221411   0.554   3.089   2.780
 6838SOL     OW21412   2.639   1.659   1.354
 6838SOL    HW121413   2.549   1.679   1.316
 6838SOL    HW221414   2.702   1.733   1.332
 6839SOL     OW21415   4.602   0.933   1.460
 6839SOL    HW121416   4.680   0.961   1.516
 6839SOL    HW221417   4.627   0.939   1.363
 6840SOL     OW21418   1.069   1.199   6.575
 6840SOL    HW121419   1.084   1.185   6.477
 6840SOL    HW221420   1.053   1.111   6.619
 6841SOL     OW21421   0.255   3.051   5.627
 6841SOL    HW121422   0.354   3.054   5.639
 6841SOL    HW221423   0.209   3.061   5.715
 6842SOL     OW21424   2.595   4.615   2.412
 6842SOL    HW121425   2.668   4.648   2.352
 6842SOL    HW221426   2.562   4.526   2.379
 6843SOL     OW21427   4.595   0.249   1.232
 6843SOL    HW121428   4.606   0.223   1.136
 6843SOL    HW221429   4.639   0.182   1.290
 6844SOL     OW21430   5.579   0.357   5.432
 6844SOL    HW121431   5.510   0.345   5.503
 6844SOL    HW221432   5.585   0.453   5.406
 6845SOL     OW21433   5.463   2.010   2.910
 6845SOL    HW121434   5.373   2.041   2.941
 6845SOL    HW221435   5.459   1.988   2.812
 6846SOL     OW21436   1.985   3.742   0.092
 6846SOL    HW121437   2.025   3.705   0.176
 6846SOL    HW221438   1.913   3.681   0.060
 6847SOL     OW21439   0.049   2.267   4.456
 6847SOL    HW121440   6.984   2.224   4.498
 6847SOL    HW221441   0.072   2.351   4.505
 6848SOL     OW21442   6.959   5.081   3.678
 6848SOL    HW121443   6.885   5.142   3.650
 6848SOL    HW221444   6.965   5.004   3.615
 6849SOL     OW21445   2.965   4.363   5.784
 6849SOL    HW121446   2.897   4.308   5.832
 6849SOL    HW221447   2.921   4.416   5.712
 6850SOL     OW21448   5.318   0.136   4.216
 6850SOL    HW121449   5.255   0.207   4.186
 6850SOL    HW221450   5.316   0.129   4.315
 6851SOL     OW21451   1.903   4.030   3.044
 6851SOL    HW121452   1.988   3.979   3.030
 6851SOL    HW221453   1.863   4.004   3.132
 6852SOL     OW21454   4.208   3.740   0.383
 6852SOL    HW121455   4.126   3.746   0.326
 6852SOL    HW221456   4.190   3.681   0.461
 6853SOL     OW21457   3.841   4.961   6.078
 6853SOL    HW121458   3.846   4.974   5.979
 6853SOL    HW221459   3.777   5.027   6.117
 6854SOL     OW21460   4.813   6.162   5.859
 6854SOL    HW121461   4.771   6.086   5.910
 6854SOL    HW221462   4.792   6.153   5.762
 6855SOL     OW21463   4.403   5.089   2.980
 6855SOL    HW121464   4.481   5.149   2.996
 6855SOL    HW221465   4.395   5.071   2.882
 6856SOL     OW21466   6.327   2.823   0.459
 6856SOL    HW121467   6.249   2.879   0.487
 6856SOL    HW221468   6.389   2.878   0.404
 6857SOL     OW21469   1.276   4.584   5.638
 6857SOL    HW121470   1.296   4.520   5.564
 6857SOL    HW221471   1.180   4.613   5.633
 6858SOL     OW21472   1.129   3.157   1.414
 6858SOL    HW121473   1.150   3.254   1.421
 6858SOL    HW221474   1.213   3.104   1.426
 6859SOL     OW21475   2.270   2.126   0.853
 6859SOL    HW121476   2.281   2.088   0.761
 6859SOL    HW221477   2.218   2.062   0.910
 6860SOL     OW21478   0.495   6.661   6.912
 6860SOL    HW121479   0.518   6.730   6.843
 6860SOL    HW221480   0.407   6.681   6.953
 6861SOL     OW21481   6.832   3.324   6.619
 6861SOL    HW121482   6.751   3.267   6.632
 6861SOL    HW221483   6.906   3.290   6.677
 6862SOL     OW21484   0.505   4.482   3.770
 6862SOL    HW121485   0.571   4.415   3.737
 6862SOL    HW221486   0.528   4.573   3.735
 6863SOL     OW21487   4.822   1.482   4.944
 6863SOL    HW121488   4.758   1.408   4.962
 6863SOL    HW221489   4.916   1.446   4.942
 6864SOL     OW21490   2.254   3.659   6.551
 6864SOL    HW121491   2.293   3.751   6.556
 6864SOL    HW221492   2.323   3.595   6.519
 6865SOL     OW21493   2.034   6.937   4.317
 6865SOL    HW121494   2.015   6.841   4.337
 6865SOL    HW221495   1.969   6.970   4.248
 6866SOL     OW21496   1.948   4.842   6.928
 6866SOL    HW121497   1.929   4.749   6.959
 6866SOL    HW221498   1.937   4.847   6.829
 6867SOL     OW21499   1.979   2.192   6.246
 6867SOL    HW121500   2.012   2.286   6.235
 6867SOL    HW221501   1.887   2.184   6.207
 6868SOL     OW21502   3.633   4.880   3.243
 6868SOL    HW121503   3.686   4.888   3.328
 6868SOL    HW221504   3.545   4.927   3.254
 6869SOL     OW21505   1.481   0.873   5.568
 6869SOL    HW121506   1.536   0.816   5.507
 6869SOL    HW221507   1.474   0.830   5.657
 6870SOL     OW21508   5.527   2.651   6.492
 6870SOL    HW121509   5.610   2.701   6.517
 6870SOL    HW221510   5.485   2.613   6.574
 6871SOL     OW21511   6.569   2.739   2.936
 6871SOL    HW121512   6.533   2.656   2.892
 6871SOL    HW221513   6.647   2.714   2.994
 6872SOL     OW21514   1.689   4.522   1.134
 6872SOL    HW121515   1.775   4.527   1.083
 6872SOL    HW221516   1.686   4.594   1.203
 6873SOL     OW21517   0.544   4.284   2.977
 6873SOL    HW121518   0.567   4.378   3.005
 6873SOL    HW221519   0.482   4.244   3.045
 6874SOL     OW21520   4.586   6.448   2.156
 6874SOL    HW121521   4.557   6.374   2.094
 6874SOL    HW221522   4.543   6.436   2.245
 6875SOL     OW21523   2.787   0.729   6.541
 6875SOL    HW121524   2.841   0.663   6.592
 6875SOL    HW221525   2.824   0.821   6.556
 6876SOL     OW21526   5.695   4.878   3.149
 6876SOL    HW121527   5.725   4.970   3.126
 6876SOL    HW221528   5.750   4.811   3.101
 6877SOL     OW21529   0.496   4.582   1.400
 6877SOL    HW121530   0.459   4.651   1.462
 6877SOL    HW221531   0.593   4.568   1.420
 6878SOL     OW21532   2.166   0.578   4.361
 6878SOL    HW121533   2.123   0.492   4.332
 6878SOL    HW221534   2.261   0.561   4.387
 6879SOL     OW21535   1.536   1.535   1.622
 6879SOL    HW121536   1.461   1.595   1.595
 6879SOL    HW221537   1.511   1.440   1.604
 6880SOL     OW21538   2.024   6.427   0.706
 6880SOL    HW121539   1.977   6.352   0.753
 6880SOL    HW221540   1.965   6.508   0.706
 6881SOL     OW21541   0.090   3.959   0.145
 6881SOL    HW121542   0.023   3.923   0.080
 6881SOL    HW221543   0.182   3.941   0.111
 6882SOL     OW21544   2.661   6.764   0.506
 6882SOL    HW121545   2.627   6.827   0.436
 6882SOL    HW221546   2.597   6.688   0.517
 6883SOL     OW21547   5.058   0.254   1.160
 6883SOL    HW121548   4.995   0.302   1.220
 6883SOL    HW221549   5.006   0.194   1.099
 6884SOL     OW21550   2.032   5.016   3.686
 6884SOL    HW121551   2.052   4.926   3.647
 6884SOL    HW221552   2.015   5.081   3.613
 6885SOL     OW21553   5.596   5.104   4.800
 6885SOL    HW121554   5.608   5.007   4.819
 6885SOL    HW221555   5.547   5.147   4.875
 6886SOL     OW21556   5.293   3.363   0.089
 6886SOL    HW121557   5.362   3.290   0.082
 6886SOL    HW221558   5.217   3.331   0.145
 6887SOL     OW21559   5.477   6.467   5.697
 6887SOL    HW121560   5.453   6.371   5.681
 6887SOL    HW221561   5.432   6.499   5.780
 6888SOL     OW21562   6.758   4.339   0.380
 6888SOL    HW121563   6.836   4.286   0.346
 6888SOL    HW221564   6.675   4.309   0.334
 6889SOL     OW21565   7.014   2.289   5.658
 6889SOL    HW121566   7.009   2.212   5.721
 6889SOL    HW221567   7.007   2.374   5.709
 6890SOL     OW21568   4.814   4.519   4.219
 6890SOL    HW121569   4.724   4.562   4.223
 6890SOL    HW221570   4.883   4.588   4.198
 6891SOL     OW21571   1.952   1.597   0.694
 6891SOL    HW121572   2.043   1.568   0.721
 6891SOL    HW221573   1.955   1.691   0.659
 6892SOL     OW21574   2.384   0.704   4.923
 6892SOL    HW121575   2.458   0.760   4.961
 6892SOL    HW221576   2.306   0.763   4.902
 6893SOL     OW21577   5.820   3.016   0.389
 6893SOL    HW121578   5.865   3.095   0.431
 6893SOL    HW221579   5.786   2.956   0.461
 6894SOL     OW21580   5.362   5.012   0.242
 6894SOL    HW121581   5.378   4.967   0.154
 6894SOL    HW221582   5.370   5.111   0.231
 6895SOL     OW21583   1.090   5.260   1.959
 6895SOL    HW121584   1.091   5.337   2.024
 6895SOL    HW221585   1.089   5.295   1.866
 6896SOL     OW21586   5.244   1.075   6.172
 6896SOL    HW121587   5.317   1.061   6.238
 6896SOL    HW221588   5.283   1.080   6.080
 6897SOL     OW21589   4.439   2.690   5.145
 6897SOL    HW121590   4.384   2.610   5.122
 6897SOL    HW221591   4.382   2.773   5.140
 6898SOL     OW21592   1.764   6.684   1.423
 6898SOL    HW121593   1.739   6.701   1.519
 6898SOL    HW221594   1.804   6.767   1.384
 6899SOL     OW21595   5.392   5.395   2.396
 6899SOL    HW121596   5.386   5.450   2.479
 6899SOL    HW221597   5.406   5.454   2.317
 6900SOL     OW21598   6.829   3.743   4.295
 6900SOL    HW121599   6.838   3.645   4.315
 6900SOL    HW221600   6.793   3.790   4.375
 6901SOL     OW21601   4.758   4.555   6.115
 6901SOL    HW121602   4.714   4.631   6.068
 6901SOL    HW221603   4.726   4.469   6.076
 6902SOL     OW21604   0.237   5.431   5.896
 6902SOL    HW121605   0.210   5.526   5.913
 6902SOL    HW221606   0.182   5.393   5.822
 6903SOL     OW21607   1.921   6.181   5.747
 6903SOL    HW121608   1.876   6.217   5.665
 6903SOL    HW221609   2.014   6.155   5.725
 6904SOL     OW21610   0.778   0.449   5.919
 6904SOL    HW121611   0.794   0.536   5.871
 6904SOL    HW221612   0.753   0.468   6.014
 6905SOL     OW21613   4.582   6.514   5.382
 6905SOL    HW121614   4.517   6.586   5.356
 6905SOL    HW221615   4.608   6.462   5.300
 6906SOL     OW21616   3.100   1.431   3.838
 6906SOL    HW121617   3.022   1.447   3.777
 6906SOL    HW221618   3.082   1.350   3.894
 6907SOL     OW21619   5.472   2.450   0.575
 6907SOL    HW121620   5.392   2.390   0.572
 6907SOL    HW221621   5.544   2.412   0.516
 6908SOL     OW21622   3.895   6.159   0.580
 6908SOL    HW121623   3.989   6.139   0.607
 6908SOL    HW221624   3.881   6.132   0.485
 6909SOL     OW21625   5.767   4.206   1.945
 6909SOL    HW121626   5.757   4.226   1.847
 6909SOL    HW221627   5.841   4.140   1.958
 6910SOL     OW21628   1.387   2.296   1.922
 6910SOL    HW121629   1.381   2.199   1.900
 6910SOL    HW221630   1.435   2.308   2.009
 6911SOL     OW21631   2.831   6.260   5.369
 6911SOL    HW121632   2.917   6.222   5.403
 6911SOL    HW221633   2.830   6.359   5.381
 6912SOL     OW21634   3.484   4.410   6.772
 6912SOL    HW121635   3.576   4.394   6.807
 6912SOL    HW221636   3.479   4.502   6.733
 6913SOL     OW21637   4.104   5.504   5.898
 6913SOL    HW121638   4.011   5.473   5.882
 6913SOL    HW221639   4.111   5.540   5.991
 6914SOL     OW21640   0.150   2.275   2.980
 6914SOL    HW121641   0.211   2.248   3.055
 6914SOL    HW221642   0.205   2.304   2.901
 6915SOL     OW21643   0.116   3.379   3.923
 6915SOL    HW121644   0.097   3.284   3.901
 6915SOL    HW221645   0.182   3.383   3.998
 6916SOL     OW21646   4.449   6.508   5.665
 6916SOL    HW121647   4.474   6.455   5.584
 6916SOL    HW221648   4.435   6.446   5.742
 6917SOL     OW21649   3.800   6.229   2.105
 6917SOL    HW121650   3.827   6.169   2.180
 6917SOL    HW221651   3.757   6.311   2.142
 6918SOL     OW21652   1.713   3.758   0.232
 6918SOL    HW121653   1.748   3.684   0.175
 6918SOL    HW221654   1.740   3.846   0.193
 6919SOL     OW21655   6.500   5.821   3.236
 6919SOL    HW121656   6.594   5.795   3.257
 6919SOL    HW221657   6.445   5.817   3.320
 6920SOL     OW21658   6.976   2.742   5.508
 6920SOL    HW121659   6.903   2.747   5.575
 6920SOL    HW221660   0.049   2.738   5.555
 6921SOL     OW21661   2.946   0.283   4.138
 6921SOL    HW121662   2.931   0.372   4.097
 6921SOL    HW221663   2.876   0.266   4.207
 6922SOL     OW21664   2.808   5.007   6.795
 6922SOL    HW121665   2.780   5.018   6.700
 6922SOL    HW221666   2.862   4.924   6.805
 6923SOL     OW21667   5.077   6.991   2.961
 6923SOL    HW121668   5.159   7.001   2.904
 6923SOL    HW221669   5.032   0.065   2.971
 6924SOL     OW21670   2.817   5.158   1.813
 6924SOL    HW121671   2.719   5.157   1.794
 6924SOL    HW221672   2.837   5.100   1.892
 6925SOL     OW21673   6.671   6.390   4.667
 6925SOL    HW121674   6.696   6.397   4.764
 6925SOL    HW221675   6.588   6.443   4.650
 6926SOL     OW21676   2.689   2.305   0.616
 6926SOL    HW121677   2.742   2.337   0.537
 6926SOL    HW221678   2.726   2.343   0.700
 6927SOL     OW21679   3.395   0.350   6.581
 6927SOL    HW121680   3.367   0.443   6.606
 6927SOL    HW221681   3.328   0.311   6.518
 6928SOL     OW21682   4.131   5.823   0.595
 6928SOL    HW121683   4.133   5.814   0.496
 6928SOL    HW221684   4.114   5.919   0.619
 6929SOL     OW21685   4.666   5.343   3.043
 6929SOL    HW121686   4.620   5.432   3.038
 6929SOL    HW221687   4.709   5.333   3.133
 6930SOL     OW21688   0.868   6.217   1.717
 6930SOL    HW121689   0.908   6.304   1.746
 6930SOL    HW221690   0.896   6.197   1.623
 6931SOL     OW21691   3.253   3.355   0.932
 6931SOL    HW121692   3.343   3.341   0.889
 6931SOL    HW221693   3.242   3.290   1.007
 6932SOL     OW21694   4.362   0.548   0.002
 6932SOL    HW121695   4.286   0.549   6.953
 6932SOL    HW221696   4.327   0.552   0.096
 6933SOL     OW21697   3.303   6.067   5.895
 6933SOL    HW121698   3.285   6.106   5.986
 6933SOL    HW221699   3.270   5.972   5.893
 6934SOL     OW21700   5.005   4.925   0.127
 6934SOL    HW121701   5.060   4.980   0.064
 6934SOL    HW221702   4.973   4.983   0.202
 6935SOL     OW21703   4.256   5.959   1.994
 6935SOL    HW121704   4.203   5.888   1.947
 6935SOL    HW221705   4.345   5.968   1.949
 6936SOL     OW21706   1.084   1.913   6.944
 6936SOL    HW121707   0.987   1.912   6.919
 6936SOL    HW221708   1.131   1.984   6.892
 6937SOL     OW21709   5.750   4.747   0.452
 6937SOL    HW121710   5.835   4.790   0.484
 6937SOL    HW221711   5.687   4.738   0.529
 6938SOL     OW21712   3.386   0.338   4.888
 6938SOL    HW121713   3.471   0.291   4.911
 6938SOL    HW221714   3.352   0.386   4.969
 6939SOL     OW21715   5.404   2.893   3.328
 6939SOL    HW121716   5.364   2.817   3.278
 6939SOL    HW221717   5.495   2.913   3.290
 6940SOL     OW21718   2.108   6.592   1.682
 6940SOL    HW121719   2.152   6.507   1.712
 6940SOL    HW221720   2.009   6.584   1.695
 6941SOL     OW21721   3.653   2.890   2.845
 6941SOL    HW121722   3.664   2.889   2.745
 6941SOL    HW221723   3.579   2.952   2.870
 6942SOL     OW21724   6.444   4.691   3.198
 6942SOL    HW121725   6.349   4.698   3.227
 6942SOL    HW221726   6.500   4.657   3.274
 6943SOL     OW21727   3.524   5.396   5.517
 6943SOL    HW121728   3.597   5.413   5.583
 6943SOL    HW221729   3.436   5.394   5.565
 6944SOL     OW21730   0.597   4.871   4.815
 6944SOL    HW121731   0.563   4.807   4.745
 6944SOL    HW221732   0.574   4.835   4.906
 6945SOL     OW21733   4.512   1.387   0.508
 6945SOL    HW121734   4.419   1.351   0.501
 6945SOL    HW221735   4.539   1.427   0.421
 6946SOL     OW21736   5.696   6.020   2.645
 6946SOL    HW121737   5.785   6.056   2.615
 6946SOL    HW221738   5.666   5.949   2.582
 6947SOL     OW21739   6.090   4.088   5.267
 6947SOL    HW121740   6.153   4.063   5.340
 6947SOL    HW221741   6.138   4.087   5.179
 6948SOL     OW21742   6.903   4.639   6.606
 6948SOL    HW121743   6.935   4.588   6.685
 6948SOL    HW221744   6.803   4.643   6.606
 6949SOL     OW21745   2.731   1.299   3.058
 6949SOL    HW121746   2.664   1.359   3.013
 6949SOL    HW221747   2.687   1.214   3.085
 6950SOL     OW21748   2.049   1.128   3.837
 6950SOL    HW121749   2.083   1.056   3.776
 6950SOL    HW221750   1.961   1.099   3.875
 6951SOL     OW21751   1.237   3.790   6.996
 6951SOL    HW121752   1.252   3.849   6.917
 6951SOL    HW221753   1.325   3.762   0.019
 6952SOL     OW21754   4.354   5.688   3.421
 6952SOL    HW121755   4.324   5.633   3.498
 6952SOL    HW221756   4.448   5.665   3.397
 6953SOL     OW21757   0.171   1.108   1.879
 6953SOL    HW121758   0.207   1.035   1.936
 6953SOL    HW221759   0.245   1.147   1.824
 6954SOL     OW21760   6.304   4.783   5.755
 6954SOL    HW121761   6.376   4.822   5.697
 6954SOL    HW221762   6.254   4.714   5.703
 6955SOL     OW21763   4.540   5.746   2.596
 6955SOL    HW121764   4.572   5.697   2.677
 6955SOL    HW221765   4.488   5.683   2.538
 6956SOL     OW21766   5.668   4.863   1.543
 6956SOL    HW121767   5.574   4.852   1.512
 6956SOL    HW221768   5.671   4.927   1.619
 6957SOL     OW21769   6.200   4.508   4.867
 6957SOL    HW121770   6.246   4.595   4.884
 6957SOL    HW221771   6.199   4.453   4.951
 6958SOL     OW21772   3.191   3.638   2.307
 6958SOL    HW121773   3.138   3.572   2.359
 6958SOL    HW221774   3.267   3.671   2.362
 6959SOL     OW21775   1.349   3.796   2.596
 6959SOL    HW121776   1.432   3.795   2.652
 6959SOL    HW221777   1.279   3.851   2.643
 6960SOL     OW21778   5.106   4.801   1.465
 6960SOL    HW121779   5.064   4.762   1.383
 6960SOL    HW221780   5.043   4.866   1.507
 6961SOL     OW21781   5.370   2.253   4.791
 6961SOL    HW121782   5.275   2.220   4.786
 6961SOL    HW221783   5.384   2.303   4.876
 6962SOL     OW21784   2.507   6.288   0.625
 6962SOL    HW121785   2.454   6.231   0.562
 6962SOL    HW221786   2.600   6.253   0.633
 6963SOL     OW21787   0.685   6.419   6.438
 6963SOL    HW121788   0.611   6.391   6.377
 6963SOL    HW221789   0.662   6.507   6.480
 6964SOL     OW21790   2.239   1.700   4.823
 6964SOL    HW121791   2.222   1.605   4.795
 6964SOL    HW221792   2.208   1.712   4.917
 6965SOL     OW21793   1.746   1.458   6.870
 6965SOL    HW121794   1.717   1.538   6.817
 6965SOL    HW221795   1.754   1.483   6.967
 6966SOL     OW21796   1.650   6.600   0.997
 6966SOL    HW121797   1.585   6.663   1.039
 6966SOL    HW221798   1.737   6.603   1.046
 6967SOL     OW21799   3.835   0.033   6.749
 6967SOL    HW121800   3.858   0.108   6.810
 6967SOL    HW221801   3.741   0.045   6.715
 6968SOL     OW21802   3.219   0.565   2.226
 6968SOL    HW121803   3.267   0.620   2.158
 6968SOL    HW221804   3.276   0.487   2.252
 6969SOL     OW21805   1.589   3.001   2.566
 6969SOL    HW121806   1.653   2.936   2.526
 6969SOL    HW221807   1.585   3.083   2.509
 6970SOL     OW21808   3.386   6.467   5.680
 6970SOL    HW121809   3.451   6.514   5.620
 6970SOL    HW221810   3.309   6.433   5.625
 6971SOL     OW21811   6.635   4.020   6.526
 6971SOL    HW121812   6.722   4.055   6.492
 6971SOL    HW221813   6.630   3.921   6.511
 6972SOL     OW21814   5.611   3.931   1.630
 6972SOL    HW121815   5.561   3.848   1.654
 6972SOL    HW221816   5.699   3.907   1.591
 6973SOL     OW21817   1.178   1.428   3.315
 6973SOL    HW121818   1.082   1.409   3.296
 6973SOL    HW221819   1.196   1.526   3.303
 6974SOL     OW21820   4.085   3.378   2.603
 6974SOL    HW121821   4.154   3.351   2.671
 6974SOL    HW221822   3.998   3.394   2.649
 6975SOL     OW21823   3.113   5.667   4.917
 6975SOL    HW121824   3.092   5.765   4.913
 6975SOL    HW221825   3.134   5.641   5.011
 6976SOL     OW21826   4.627   5.153   6.274
 6976SOL    HW121827   4.656   5.057   6.274
 6976SOL    HW221828   4.535   5.160   6.236
 6977SOL     OW21829   4.801   4.756   2.494
 6977SOL    HW121830   4.855   4.705   2.562
 6977SOL    HW221831   4.776   4.694   2.420
 6978SOL     OW21832   1.172   3.991   1.024
 6978SOL    HW121833   1.219   3.912   1.065
 6978SOL    HW221834   1.172   3.981   0.925
 6979SOL     OW21835   1.303   3.727   3.078
 6979SOL    HW121836   1.228   3.718   3.013
 6979SOL    HW221837   1.342   3.636   3.096
 6980SOL     OW21838   2.042   4.500   2.992
 6980SOL    HW121839   2.068   4.584   2.945
 6980SOL    HW221840   2.020   4.429   2.925
 6981SOL     OW21841   4.111   2.440   6.868
 6981SOL    HW121842   4.098   2.412   6.963
 6981SOL    HW221843   4.178   2.380   6.823
 6982SOL     OW21844   6.636   0.481   1.915
 6982SOL    HW121845   6.732   0.464   1.939
 6982SOL    HW221846   6.605   0.412   1.849
 6983SOL     OW21847   0.090   0.196   4.092
 6983SOL    HW121848   0.125   0.283   4.127
 6983SOL    HW221849   0.063   0.137   4.169
 6984SOL     OW21850   1.958   4.454   3.340
 6984SOL    HW121851   1.946   4.367   3.293
 6984SOL    HW221852   1.948   4.441   3.439
 6985SOL     OW21853   5.218   3.422   0.705
 6985SOL    HW121854   5.139   3.439   0.646
 6985SOL    HW221855   5.301   3.451   0.658
 6986SOL     OW21856   3.538   5.856   5.099
 6986SOL    HW121857   3.565   5.771   5.054
 6986SOL    HW221858   3.454   5.842   5.151
 6987SOL     OW21859   6.889   1.069   6.870
 6987SOL    HW121860   6.885   1.142   6.939
 6987SOL    HW221861   6.797   1.049   6.838
 6988SOL     OW21862   2.403   0.583   5.738
 6988SOL    HW121863   2.355   0.663   5.703
 6988SOL    HW221864   2.338   0.507   5.748
 6989SOL     OW21865   0.751   3.590   2.115
 6989SOL    HW121866   0.661   3.557   2.144
 6989SOL    HW221867   0.821   3.524   2.143
 6990SOL     OW21868   3.679   4.079   6.851
 6990SOL    HW121869   3.689   4.072   6.752
 6990SOL    HW221870   3.730   4.158   6.884
 6991SOL     OW21871   5.199   4.065   3.544
 6991SOL    HW121872   5.176   4.146   3.490
 6991SOL    HW221873   5.243   3.997   3.486
 6992SOL     OW21874   1.951   5.118   6.091
 6992SOL    HW121875   1.927   5.188   6.024
 6992SOL    HW221876   1.901   5.034   6.070
 6993SOL     OW21877   4.381   2.510   1.796
 6993SOL    HW121878   4.298   2.459   1.773
 6993SOL    HW221879   4.416   2.479   1.885
 6994SOL     OW21880   2.565   1.466   2.892
 6994SOL    HW121881   2.638   1.512   2.841
 6994SOL    HW221882   2.484   1.525   2.894
 6995SOL     OW21883   0.043   4.369   0.677
 6995SOL    HW121884   0.049   4.353   0.578
 6995SOL    HW221885   0.076   4.289   0.726
 6996SOL     OW21886   0.948   1.441   6.290
 6996SOL    HW121887   1.023   1.375   6.293
 6996SOL    HW221888   0.915   1.449   6.196
 6997SOL     OW21889   5.948   6.201   6.130
 6997SOL    HW121890   5.986   6.181   6.040
 6997SOL    HW221891   6.014   6.253   6.184
 6998SOL     OW21892   0.456   0.615   0.143
 6998SOL    HW121893   0.533   0.579   0.091
 6998SOL    HW221894   0.462   0.583   0.238
 6999SOL     OW21895   0.063   2.757   6.950
 6999SOL    HW121896   7.002   2.821   6.959
 6999SOL    HW221897   0.057   2.688   0.007
 7000SOL     OW21898   0.692   5.112   3.686
 7000SOL    HW121899   0.638   5.041   3.729
 7000SOL    HW221900   0.686   5.196   3.739
 7001SOL     OW21901   0.529   1.327   3.824
 7001SOL    HW121902   0.488   1.351   3.736
 7001SOL    HW221903   0.618   1.285   3.809
 7002SOL     OW21904   1.046   4.763   2.656
 7002SOL    HW121905   1.141   4.792   2.665
 7002SOL    HW221906   1.010   4.795   2.568
 7003SOL     OW21907   0.890   5.514   6.052
 7003SOL    HW121908   0.834   5.456   6.111
 7003SOL    HW221909   0.906   5.601   6.096
 7004SOL     OW21910   1.624   0.870   6.553
 7004SOL    HW121911   1.531   0.896   6.579
 7004SOL    HW221912   1.632   0.770   6.555
 7005SOL     OW21913   1.860   5.391   0.342
 7005SOL    HW121914   1.955   5.398   0.370
 7005SOL    HW221915   1.806   5.349   0.415
 7006SOL     OW21916   1.046   0.580   3.703
 7006SOL    HW121917   1.112   0.642   3.746
 7006SOL    HW221918   1.019   0.616   3.614
 7007SOL     OW21919   2.022   0.294   6.176
 7007SOL    HW121920   1.987   0.386   6.193
 7007SOL    HW221921   2.119   0.298   6.153
 7008SOL     OW21922   5.187   3.243   2.461
 7008SOL    HW121923   5.130   3.289   2.528
 7008SOL    HW221924   5.273   3.293   2.450
 7009SOL     OW21925   5.633   6.241   2.349
 7009SOL    HW121926   5.714   6.298   2.335
 7009SOL    HW221927   5.598   6.256   2.442
 7010SOL     OW21928   5.174   3.359   2.197
 7010SOL    HW121929   5.097   3.380   2.137
 7010SOL    HW221930   5.140   3.319   2.282
 7011SOL     OW21931   2.327   6.456   6.319
 7011SOL    HW121932   2.361   6.372   6.359
 7011SOL    HW221933   2.262   6.500   6.381
 7012SOL     OW21934   0.277   4.071   0.713
 7012SOL    HW121935   0.342   4.022   0.771
 7012SOL    HW221936   0.220   4.005   0.665
 7013SOL     OW21937   2.919   2.662   0.376
 7013SOL    HW121938   2.947   2.751   0.340
 7013SOL    HW221939   2.831   2.637   0.337
 7014SOL     OW21940   6.429   3.437   0.311
 7014SOL    HW121941   6.494   3.470   0.244
 7014SOL    HW221942   6.379   3.358   0.274
 7015SOL     OW21943   5.969   6.562   1.034
 7015SOL    HW121944   5.992   6.502   0.958
 7015SOL    HW221945   6.034   6.638   1.038
 7016SOL     OW21946   3.191   5.223   1.191
 7016SOL    HW121947   3.205   5.320   1.212
 7016SOL    HW221948   3.279   5.177   1.186
 7017SOL     OW21949   6.393   4.485   6.551
 7017SOL    HW121950   6.431   4.396   6.528
 7017SOL    HW221951   6.400   4.546   6.471
 7018SOL     OW21952   5.610   3.090   5.234
 7018SOL    HW121953   5.574   3.183   5.232
 7018SOL    HW221954   5.671   3.080   5.313
 7019SOL     OW21955   4.058   5.569   2.233
 7019SOL    HW121956   3.983   5.507   2.209
 7019SOL    HW221957   4.023   5.661   2.247
 7020SOL     OW21958   0.390   1.835   0.748
 7020SOL    HW121959   0.480   1.807   0.780
 7020SOL    HW221960   0.370   1.927   0.782
 7021SOL     OW21961   0.649   1.938   4.988
 7021SOL    HW121962   0.695   1.888   5.062
 7021SOL    HW221963   0.556   1.961   5.016
 7022SOL     OW21964   1.853   3.772   0.932
 7022SOL    HW121965   1.873   3.706   0.860
 7022SOL    HW221966   1.921   3.765   1.004
 7023SOL     OW21967   0.153   1.946   1.196
 7023SOL    HW121968   0.149   1.975   1.101
 7023SOL    HW221969   0.141   2.026   1.255
 7024SOL     OW21970   3.572   4.060   5.496
 7024SOL    HW121971   3.651   4.011   5.460
 7024SOL    HW221972   3.543   4.019   5.582
 7025SOL     OW21973   2.804   0.986   1.088
 7025SOL    HW121974   2.868   1.059   1.111
 7025SOL    HW221975   2.774   0.940   1.171
 7026SOL     OW21976   2.823   2.138   0.936
 7026SOL    HW121977   2.820   2.238   0.931
 7026SOL    HW221978   2.824   2.100   0.844
 7027SOL     OW21979   3.166   4.570   1.225
 7027SOL    HW121980   3.073   4.551   1.191
 7027SOL    HW221981   3.175   4.667   1.244
 7028SOL     OW21982   3.379   0.151   3.200
 7028SOL    HW121983   3.450   0.081   3.193
 7028SOL    HW221984   3.302   0.116   3.253
 7029SOL     OW21985   3.382   4.151   3.655
 7029SOL    HW121986   3.460   4.152   3.592
 7029SOL    HW221987   3.415   4.162   3.749
 7030SOL     OW21988   6.275   6.718   5.000
 7030SOL    HW121989   6.217   6.798   5.013
 7030SOL    HW221990   6.321   6.695   5.086
 7031SOL     OW21991   5.298   5.322   0.558
 7031SOL    HW121992   5.302   5.416   0.594
 7031SOL    HW221993   5.354   5.262   0.615
 7032SOL     OW21994   4.235   5.380   4.504
 7032SOL    HW121995   4.172   5.392   4.581
 7032SOL    HW221996   4.253   5.283   4.491
 7033SOL     OW21997   2.295   2.160   5.263
 7033SOL    HW121998   2.217   2.145   5.323
 7033SOL    HW221999   2.339   2.247   5.287
 7034SOL     OW22000   6.848   1.928   2.340
 7034SOL    HW122001   6.789   1.981   2.401
 7034SOL    HW222002   6.823   1.946   2.245
 7035SOL     OW22003   2.656   2.412   1.124
 7035SOL    HW122004   2.618   2.330   1.167
 7035SOL    HW222005   2.582   2.474   1.098
 7036SOL     OW22006   6.501   1.894   1.739
 7036SOL    HW122007   6.572   1.953   1.701
 7036SOL    HW222008   6.486   1.916   1.836
 7037SOL     OW22009   1.200   0.681   6.085
 7037SOL    HW122010   1.165   0.692   6.178
 7037SOL    HW222011   1.198   0.768   6.037
 7038SOL     OW22012   0.720   4.978   0.168
 7038SOL    HW122013   0.755   4.902   0.113
 7038SOL    HW222014   0.796   5.035   0.199
 7039SOL     OW22015   6.693   0.155   1.253
 7039SOL    HW122016   6.743   0.232   1.294
 7039SOL    HW222017   6.621   0.125   1.315
 7040SOL     OW22018   5.235   2.681   4.888
 7040SOL    HW122019   5.297   2.756   4.864
 7040SOL    HW222020   5.285   2.611   4.938
 7041SOL     OW22021   0.828   0.292   4.027
 7041SOL    HW122022   0.789   0.292   4.119
 7041SOL    HW222023   0.866   0.201   4.007
 7042SOL     OW22024   5.674   5.937   4.970
 7042SOL    HW122025   5.711   5.861   4.916
 7042SOL    HW222026   5.577   5.920   4.989
 7043SOL     OW22027   1.838   6.048   0.616
 7043SOL    HW122028   1.830   6.094   0.528
 7043SOL    HW222029   1.934   6.028   0.635
 7044SOL     OW22030   4.160   6.224   5.218
 7044SOL    HW122031   4.244   6.171   5.227
 7044SOL    HW222032   4.177   6.320   5.240
 7045SOL     OW22033   5.680   6.660   1.803
 7045SOL    HW122034   5.729   6.663   1.890
 7045SOL    HW222035   5.706   6.739   1.748
 7046SOL     OW22036   2.901   1.413   2.481
 7046SOL    HW122037   2.936   1.496   2.524
 7046SOL    HW222038   2.878   1.345   2.551
 7047SOL     OW22039   1.628   0.000   0.812
 7047SOL    HW122040   1.687   0.006   0.892
 7047SOL    HW222041   1.547   0.057   0.827
 7048SOL     OW22042   0.390   5.669   3.940
 7048SOL    HW122043   0.294   5.665   3.914
 7048SOL    HW222044   0.445   5.619   3.873
 7049SOL     OW22045   3.067   1.321   4.885
 7049SOL    HW122046   3.097   1.386   4.815
 7049SOL    HW222047   3.067   1.365   4.974
 7050SOL     OW22048   4.091   4.425   1.025
 7050SOL    HW122049   4.103   4.488   0.948
 7050SOL    HW222050   4.020   4.460   1.086
 7051SOL     OW22051   1.764   1.319   2.119
 7051SOL    HW122052   1.825   1.368   2.057
 7051SOL    HW222053   1.674   1.308   2.076
 7052SOL     OW22054   5.494   2.490   3.099
 7052SOL    HW122055   5.506   2.460   3.005
 7052SOL    HW222056   5.521   2.586   3.108
 7053SOL     OW22057   1.453   4.560   3.780
 7053SOL    HW122058   1.511   4.610   3.716
 7053SOL    HW222059   1.401   4.624   3.836
 7054SOL     OW22060   5.306   0.270   0.260
 7054SOL    HW122061   5.383   0.258   0.323
 7054SOL    HW222062   5.303   0.193   0.196
 7055SOL     OW22063   2.217   0.443   0.139
 7055SOL    HW122064   2.231   0.387   0.058
 7055SOL    HW222065   2.178   0.386   0.212
 7056SOL     OW22066   6.605   5.353   0.692
 7056SOL    HW122067   6.688   5.305   0.665
 7056SOL    HW222068   6.567   5.311   0.774
 7057SOL     OW22069   3.023   5.374   4.543
 7057SOL    HW122070   2.931   5.372   4.505
 7057SOL    HW222071   3.020   5.406   4.638
 7058SOL     OW22072   5.995   2.247   6.436
 7058SOL    HW122073   5.906   2.270   6.475
 7058SOL    HW222074   5.986   2.234   6.337
 7059SOL     OW22075   1.879   1.006   5.130
 7059SOL    HW122076   1.857   1.058   5.048
 7059SOL    HW222077   1.965   0.957   5.117
 7060SOL     OW22078   2.973   2.343   1.634
 7060SOL    HW122079   3.054   2.399   1.616
 7060SOL    HW222080   2.915   2.390   1.701
 7061SOL     OW22081   2.053   0.605   1.461
 7061SOL    HW122082   2.022   0.536   1.526
 7061SOL    HW222083   2.075   0.562   1.373
 7062SOL     OW22084   3.907   0.914   5.158
 7062SOL    HW122085   3.990   0.862   5.140
 7062SOL    HW222086   3.888   0.913   5.256
 7063SOL     OW22087   0.399   1.215   1.792
 7063SOL    HW122088   0.422   1.267   1.710
 7063SOL    HW222089   0.480   1.169   1.827
 7064SOL     OW22090   2.989   1.376   5.286
 7064SOL    HW122091   3.081   1.394   5.321
 7064SOL    HW222092   2.989   1.291   5.234
 7065SOL     OW22093   3.288   6.634   4.587
 7065SOL    HW122094   3.214   6.630   4.520
 7065SOL    HW222095   3.375   6.641   4.540
 7066SOL     OW22096   4.042   1.014   1.214
 7066SOL    HW122097   4.016   1.000   1.310
 7066SOL    HW222098   4.124   0.961   1.194
 7067SOL     OW22099   2.486   4.508   6.604
 7067SOL    HW122100   2.418   4.442   6.635
 7067SOL    HW222101   2.442   4.580   6.551
 7068SOL     OW22102   4.913   4.411   3.551
 7068SOL    HW122103   4.912   4.345   3.476
 7068SOL    HW222104   4.821   4.448   3.564
 7069SOL     OW22105   4.405   0.740   5.117
 7069SOL    HW122106   4.500   0.763   5.095
 7069SOL    HW222107   4.395   0.640   5.122
 7070SOL     OW22108   6.930   0.833   5.811
 7070SOL    HW122109   6.921   0.898   5.887
 7070SOL    HW222110   6.966   0.747   5.845
 7071SOL     OW22111   4.376   5.309   6.513
 7071SOL    HW122112   4.319   5.269   6.585
 7071SOL    HW222113   4.352   5.406   6.502
 7072SOL     OW22114   0.685   4.015   6.258
 7072SOL    HW122115   0.736   3.929   6.252
 7072SOL    HW222116   0.606   4.003   6.319
 7073SOL     OW22117   4.016   0.944   3.730
 7073SOL    HW122118   4.023   0.877   3.803
 7073SOL    HW222119   3.946   0.915   3.664
 7074SOL     OW22120   6.419   3.713   1.583
 7074SOL    HW122121   6.430   3.796   1.528
 7074SOL    HW222122   6.376   3.735   1.670
 7075SOL     OW22123   2.425   5.434   2.328
 7075SOL    HW122124   2.378   5.369   2.388
 7075SOL    HW222125   2.384   5.430   2.237
 7076SOL     OW22126   5.537   2.559   0.841
 7076SOL    HW122127   5.480   2.511   0.774
 7076SOL    HW222128   5.600   2.494   0.883
 7077SOL     OW22129   3.545   5.857   1.512
 7077SOL    HW122130   3.639   5.838   1.483
 7077SOL    HW222131   3.547   5.917   1.592
 7078SOL     OW22132   0.172   1.616   6.402
 7078SOL    HW122133   0.167   1.545   6.472
 7078SOL    HW222134   0.123   1.586   6.321
 7079SOL     OW22135   2.175   5.491   5.481
 7079SOL    HW122136   2.235   5.516   5.405
 7079SOL    HW222137   2.108   5.424   5.450
 7080SOL     OW22138   3.894   1.814   6.143
 7080SOL    HW122139   3.915   1.734   6.198
 7080SOL    HW222140   3.978   1.867   6.128
 7081SOL     OW22141   2.086   6.374   0.460
 7081SOL    HW122142   2.063   6.454   0.404
 7081SOL    HW222143   2.072   6.397   0.556
 7082SOL     OW22144   1.235   4.602   2.258
 7082SOL    HW122145   1.200   4.535   2.192
 7082SOL    HW222146   1.161   4.664   2.284
 7083SOL     OW22147   5.594   3.171   2.471
 7083SOL    HW122148   5.558   3.126   2.389
 7083SOL    HW222149   5.546   3.137   2.552
 7084SOL     OW22150   1.215   5.447   0.289
 7084SOL    HW122151   1.116   5.455   0.282
 7084SOL    HW222152   1.242   5.443   0.385
 7085SOL     OW22153   0.357   3.785   2.358
 7085SOL    HW122154   0.375   3.785   2.456
 7085SOL    HW222155   0.259   3.795   2.342
 7086SOL     OW22156   4.521   0.712   3.705
 7086SOL    HW122157   4.494   0.770   3.628
 7086SOL    HW222158   4.460   0.730   3.783
 7087SOL     OW22159   5.020   2.870   3.582
 7087SOL    HW122160   5.064   2.930   3.516
 7087SOL    HW222161   5.077   2.789   3.597
 7088SOL     OW22162   6.104   2.359   5.061
 7088SOL    HW122163   6.028   2.299   5.083
 7088SOL    HW222164   6.153   2.384   5.145
 7089SOL     OW22165   2.861   6.104   1.097
 7089SOL    HW122166   2.863   6.169   1.021
 7089SOL    HW222167   2.928   6.032   1.081
 7090SOL     OW22168   4.921   3.762   1.185
 7090SOL    HW122169   4.955   3.736   1.095
 7090SOL    HW222170   4.822   3.751   1.188
 7091SOL     OW22171   6.273   0.923   6.569
 7091SOL    HW122172   6.340   0.964   6.508
 7091SOL    HW222173   6.246   0.833   6.533
 7092SOL     OW22174   3.955   6.761   5.992
 7092SOL    HW122175   3.936   6.746   5.895
 7092SOL    HW222176   3.872   6.792   6.037
 7093SOL     OW22177   4.238   2.986   0.646
 7093SOL    HW122178   4.265   3.082   0.641
 7093SOL    HW222179   4.307   2.929   0.601
 7094SOL     OW22180   4.227   0.878   4.526
 7094SOL    HW122181   4.148   0.895   4.585
 7094SOL    HW222182   4.210   0.797   4.469
 7095SOL     OW22183   2.380   4.797   3.870
 7095SOL    HW122184   2.288   4.757   3.874
 7095SOL    HW222185   2.448   4.727   3.891
 7096SOL     OW22186   6.946   5.851   0.208
 7096SOL    HW122187   0.030   5.851   0.197
 7096SOL    HW222188   6.904   5.889   0.126
 7097SOL     OW22189   4.803   1.943   2.725
 7097SOL    HW122190   4.768   2.024   2.772
 7097SOL    HW222191   4.835   1.968   2.634
 7098SOL     OW22192   0.737   1.508   2.584
 7098SOL    HW122193   0.752   1.542   2.491
 7098SOL    HW222194   0.800   1.433   2.603
 7099SOL     OW22195   3.418   1.893   4.751
 7099SOL    HW122196   3.454   1.859   4.664
 7099SOL    HW222197   3.402   1.991   4.744
 7100SOL     OW22198   0.474   4.121   1.721
 7100SOL    HW122199   0.384   4.163   1.708
 7100SOL    HW222200   0.533   4.142   1.643
 7101SOL     OW22201   2.360   5.184   4.359
 7101SOL    HW122202   2.413   5.137   4.430
 7101SOL    HW222203   2.268   5.204   4.393
 7102SOL     OW22204   5.640   1.568   2.991
 7102SOL    HW122205   5.657   1.652   2.938
 7102SOL    HW222206   5.549   1.532   2.967
 7103SOL     OW22207   5.993   3.852   4.132
 7103SOL    HW122208   5.895   3.844   4.111
 7103SOL    HW222209   6.027   3.765   4.166
 7104SOL     OW22210   4.925   2.679   4.388
 7104SOL    HW122211   4.963   2.694   4.297
 7104SOL    HW222212   4.833   2.720   4.392
 7105SOL     OW22213   3.100   4.061   1.997
 7105SOL    HW122214   3.035   4.111   2.055
 7105SOL    HW222215   3.150   3.994   2.052
 7106SOL     OW22216   2.810   2.294   2.567
 7106SOL    HW122217   2.839   2.268   2.474
 7106SOL    HW222218   2.731   2.355   2.561
 7107SOL     OW22219   4.296   0.772   0.480
 7107SOL    HW122220   4.295   0.863   0.438
 7107SOL    HW222221   4.348   0.709   0.422
 7108SOL     OW22222   3.000   6.698   1.870
 7108SOL    HW122223   3.037   6.791   1.868
 7108SOL    HW222224   3.072   6.632   1.849
 7109SOL     OW22225   2.948   5.040   5.807
 7109SOL    HW122226   2.929   5.030   5.905
 7109SOL    HW222227   2.867   5.014   5.754
 7110SOL     OW22228   2.648   5.673   5.745
 7110SOL    HW122229   2.747   5.685   5.758
 7110SOL    HW222230   2.621   5.584   5.783
 7111SOL     OW22231   6.787   0.738   4.860
 7111SOL    HW122232   6.749   0.829   4.844
 7111SOL    HW222233   6.746   0.672   4.797
 7112SOL     OW22234   6.553   4.991   5.240
 7112SOL    HW122235   6.628   5.017   5.301
 7112SOL    HW222236   6.511   5.073   5.202
 7113SOL     OW22237   3.247   0.147   5.097
 7113SOL    HW122238   3.250   0.247   5.086
 7113SOL    HW222239   3.265   0.104   5.008
 7114SOL     OW22240   5.507   4.421   0.287
 7114SOL    HW122241   5.506   4.354   0.212
 7114SOL    HW222242   5.592   4.474   0.284
 7115SOL     OW22243   4.804   2.783   5.684
 7115SOL    HW122244   4.723   2.833   5.653
 7115SOL    HW222245   4.848   2.738   5.606
 7116SOL     OW22246   6.485   5.326   4.829
 7116SOL    HW122247   6.411   5.321   4.761
 7116SOL    HW222248   6.535   5.412   4.817
 7117SOL     OW22249   4.107   0.157   3.212
 7117SOL    HW122250   4.177   0.150   3.284
 7117SOL    HW222251   4.152   0.169   3.123
 7118SOL     OW22252   4.485   4.201   5.695
 7118SOL    HW122253   4.576   4.179   5.661
 7118SOL    HW222254   4.490   4.222   5.793
 7119SOL     OW22255   2.847   6.603   4.278
 7119SOL    HW122256   2.764   6.638   4.321
 7119SOL    HW222257   2.903   6.679   4.246
 7120SOL     OW22258   4.476   1.693   2.346
 7120SOL    HW122259   4.453   1.603   2.310
 7120SOL    HW222260   4.415   1.762   2.305
 7121SOL     OW22261   1.225   6.112   1.782
 7121SOL    HW122262   1.262   6.204   1.798
 7121SOL    HW222263   1.144   6.099   1.839
 7122SOL     OW22264   3.128   1.966   6.524
 7122SOL    HW122265   3.154   1.901   6.454
 7122SOL    HW222266   3.106   1.917   6.609
 7123SOL     OW22267   5.155   4.598   6.877
 7123SOL    HW122268   5.081   4.551   6.828
 7123SOL    HW222269   5.240   4.547   6.867
 7124SOL     OW22270   3.028   2.708   6.477
 7124SOL    HW122271   2.996   2.689   6.570
 7124SOL    HW222272   3.014   2.628   6.420
 7125SOL     OW22273   1.005   6.371   1.246
 7125SOL    HW122274   0.983   6.301   1.314
 7125SOL    HW222275   1.097   6.405   1.262
 7126SOL     OW22276   3.941   4.913   1.067
 7126SOL    HW122277   3.852   4.869   1.068
 7126SOL    HW222278   4.008   4.853   1.111
 7127SOL     OW22279   3.031   6.674   5.383
 7127SOL    HW122280   3.123   6.699   5.411
 7127SOL    HW222281   2.981   6.755   5.353
 7128SOL     OW22282   3.231   4.415   0.194
 7128SOL    HW122283   3.314   4.360   0.202
 7128SOL    HW222284   3.249   4.496   0.138
 7129SOL     OW22285   0.097   1.749   0.326
 7129SOL    HW122286   0.038   1.828   0.343
 7129SOL    HW222287   0.045   1.664   0.340
 7130SOL     OW22288   3.537   0.202   3.921
 7130SOL    HW122289   3.525   0.262   4.000
 7130SOL    HW222290   3.527   0.107   3.948
 7131SOL     OW22291   1.976   1.462   2.860
 7131SOL    HW122292   1.942   1.543   2.909
 7131SOL    HW222293   1.975   1.384   2.922
 7132SOL     OW22294   5.440   4.808   1.758
 7132SOL    HW122295   5.467   4.904   1.756
 7132SOL    HW222296   5.504   4.756   1.814
 7133SOL     OW22297   3.591   6.009   2.412
 7133SOL    HW122298   3.526   6.078   2.381
 7133SOL    HW222299   3.553   5.918   2.394
 7134SOL     OW22300   4.761   4.745   0.176
 7134SOL    HW122301   4.834   4.741   0.245
 7134SOL    HW222302   4.799   4.722   0.086
 7135SOL     OW22303   2.215   4.568   1.409
 7135SOL    HW122304   2.283   4.507   1.370
 7135SOL    HW222305   2.151   4.515   1.465
 7136SOL     OW22306   1.452   2.996   2.166
 7136SOL    HW122307   1.376   3.035   2.217
 7136SOL    HW222308   1.474   2.906   2.202
 7137SOL     OW22309   1.751   0.187   2.038
 7137SOL    HW122310   1.826   0.191   2.104
 7137SOL    HW222311   1.688   0.114   2.063
 7138SOL     OW22312   6.734   3.719   0.140
 7138SOL    HW122313   6.815   3.753   0.092
 7138SOL    HW222314   6.752   3.720   0.239
 7139SOL     OW22315   5.734   5.990   1.079
 7139SOL    HW122316   5.671   6.053   1.033
 7139SOL    HW222317   5.681   5.928   1.138
 7140SOL     OW22318   0.016   5.057   0.599
 7140SOL    HW122319   0.102   5.107   0.590
 7140SOL    HW222320   0.030   4.976   0.655
 7141SOL     OW22321   2.820   1.707   0.917
 7141SOL    HW122322   2.721   1.704   0.906
 7141SOL    HW222323   2.855   1.614   0.925
 7142SOL     OW22324   4.581   6.703   5.833
 7142SOL    HW122325   4.644   6.662   5.899
 7142SOL    HW222326   4.538   6.631   5.778
 7143SOL     OW22327   3.477   2.895   5.930
 7143SOL    HW122328   3.532   2.911   6.012
 7143SOL    HW222329   3.410   2.822   5.948
 7144SOL     OW22330   6.376   1.375   5.629
 7144SOL    HW122331   6.280   1.404   5.631
 7144SOL    HW222332   6.380   1.276   5.625
 7145SOL     OW22333   6.842   2.902   6.280
 7145SOL    HW122334   6.879   2.988   6.244
 7145SOL    HW222335   6.856   2.899   6.379
 7146SOL     OW22336   0.255   1.560   4.702
 7146SOL    HW122337   0.272   1.508   4.618
 7146SOL    HW222338   0.324   1.633   4.711
 7147SOL     OW22339   0.040   7.001   0.827
 7147SOL    HW122340   0.097   0.007   0.747
 7147SOL    HW222341   0.077   6.921   0.874
 7148SOL     OW22342   5.407   6.483   0.793
 7148SOL    HW122343   5.338   6.411   0.794
 7148SOL    HW222344   5.471   6.467   0.718
 7149SOL     OW22345   5.806   4.256   6.216
 7149SOL    HW122346   5.904   4.274   6.226
 7149SOL    HW222347   5.765   4.248   6.307
 7150SOL     OW22348   2.828   2.092   0.187
 7150SOL    HW122349   2.808   1.994   0.191
 7150SOL    HW222350   2.924   2.105   0.165
 7151SOL     OW22351   5.672   2.122   0.187
 7151SOL    HW122352   5.756   2.125   0.242
 7151SOL    HW222353   5.669   2.037   0.136
 7152SOL     OW22354   5.184   0.276   5.356
 7152SOL    HW122355   5.184   0.216   5.275
 7152SOL    HW222356   5.172   0.371   5.327
 7153SOL     OW22357   5.213   5.787   0.951
 7153SOL    HW122358   5.232   5.824   1.042
 7153SOL    HW222359   5.244   5.692   0.947
 7154SOL     OW22360   4.998   0.547   1.626
 7154SOL    HW122361   5.075   0.608   1.643
 7154SOL    HW222362   4.949   0.576   1.544
 7155SOL     OW22363   2.078   0.133   1.194
 7155SOL    HW122364   2.154   0.098   1.139
 7155SOL    HW222365   2.036   0.210   1.146
 7156SOL     OW22366   6.397   3.399   4.881
 7156SOL    HW122367   6.452   3.449   4.814
 7156SOL    HW222368   6.457   3.360   4.951
 7157SOL     OW22369   6.688   3.714   4.976
 7157SOL    HW122370   6.686   3.809   4.945
 7157SOL    HW222371   6.598   3.672   4.961
 7158SOL     OW22372   4.777   0.206   3.662
 7158SOL    HW122373   4.693   0.173   3.705
 7158SOL    HW222374   4.784   0.305   3.675
 7159SOL     OW22375   0.364   6.433   2.894
 7159SOL    HW122376   0.380   6.510   2.832
 7159SOL    HW222377   0.441   6.369   2.888
 7160SOL     OW22378   5.733   6.827   2.806
 7160SOL    HW122379   5.730   6.771   2.889
 7160SOL    HW222380   5.809   6.796   2.748
 7161SOL     OW22381   3.667   3.401   2.106
 7161SOL    HW122382   3.705   3.493   2.117
 7161SOL    HW222383   3.640   3.387   2.011
 7162SOL     OW22384   0.645   6.398   0.583
 7162SOL    HW122385   0.673   6.327   0.648
 7162SOL    HW222386   0.588   6.465   0.630
 7163SOL     OW22387   6.862   7.008   0.058
 7163SOL    HW122388   6.772   7.003   0.101
 7163SOL    HW222389   6.932   0.004   0.128
 7164SOL     OW22390   1.717   6.848   6.882
 7164SOL    HW122391   1.623   6.870   6.855
 7164SOL    HW222392   1.715   6.778   6.953
 7165SOL     OW22393   4.367   2.012   6.507
 7165SOL    HW122394   4.411   1.930   6.471
 7165SOL    HW222395   4.412   2.040   6.592
 7166SOL     OW22396   6.715   6.443   4.937
 7166SOL    HW122397   6.658   6.525   4.925
 7166SOL    HW222398   6.784   6.461   5.007
 7167SOL     OW22399   0.661   3.266   5.369
 7167SOL    HW122400   0.746   3.229   5.332
 7167SOL    HW222401   0.681   3.319   5.452
 7168SOL     OW22402   1.297   0.409   2.605
 7168SOL    HW122403   1.337   0.362   2.683
 7168SOL    HW222404   1.235   0.348   2.557
 7169SOL     OW22405   1.740   4.633   5.910
 7169SOL    HW122406   1.707   4.570   5.981
 7169SOL    HW222407   1.697   4.611   5.823
 7170SOL     OW22408   4.101   2.198   1.190
 7170SOL    HW122409   4.042   2.277   1.205
 7170SOL    HW222410   4.074   2.124   1.251
 7171SOL     OW22411   0.540   5.185   1.070
 7171SOL    HW122412   0.482   5.143   1.000
 7171SOL    HW222413   0.483   5.237   1.133
 7172SOL     OW22414   1.024   2.614   3.335
 7172SOL    HW122415   0.971   2.592   3.416
 7172SOL    HW222416   1.000   2.706   3.302
 7173SOL     OW22417   3.410   5.410   4.710
 7173SOL    HW122418   3.406   5.356   4.794
 7173SOL    HW222419   3.357   5.494   4.722
 7174SOL     OW22420   6.535   3.664   2.065
 7174SOL    HW122421   6.511   3.689   2.159
 7174SOL    HW222422   6.461   3.612   2.024
 7175SOL     OW22423   6.562   2.942   5.849
 7175SOL    HW122424   6.632   3.003   5.885
 7175SOL    HW222425   6.473   2.988   5.850
 7176SOL     OW22426   6.828   1.585   6.687
 7176SOL    HW122427   6.886   1.578   6.768
 7176SOL    HW222428   6.775   1.670   6.692
 7177SOL     OW22429   0.994   5.880   3.096
 7177SOL    HW122430   0.913   5.827   3.073
 7177SOL    HW222431   1.052   5.829   3.159
 7178SOL     OW22432   1.206   6.627   5.463
 7178SOL    HW122433   1.204   6.529   5.443
 7178SOL    HW222434   1.162   6.643   5.551
 7179SOL     OW22435   4.741   4.201   5.588
 7179SOL    HW122436   4.788   4.255   5.518
 7179SOL    HW222437   4.785   4.111   5.594
 7180SOL     OW22438   0.398   2.694   1.799
 7180SOL    HW122439   0.303   2.683   1.770
 7180SOL    HW222440   0.451   2.614   1.770
 7181SOL     OW22441   3.216   0.069   0.156
 7181SOL    HW122442   3.272   0.040   0.233
 7181SOL    HW222443   3.172   0.156   0.178
 7182SOL     OW22444   1.866   1.206   2.977
 7182SOL    HW122445   1.822   1.139   3.036
 7182SOL    HW222446   1.907   1.160   2.899
 7183SOL     OW22447   1.536   0.244   1.244
 7183SOL    HW122448   1.541   0.217   1.340
 7183SOL    HW222449   1.599   0.320   1.227
 7184SOL     OW22450   0.276   1.134   3.514
 7184SOL    HW122451   0.194   1.103   3.466
 7184SOL    HW222452   0.325   1.055   3.551
 7185SOL     OW22453   4.365   0.545   3.401
 7185SOL    HW122454   4.298   0.492   3.452
 7185SOL    HW222455   4.452   0.496   3.399
 7186SOL     OW22456   6.609   1.479   7.003
 7186SOL    HW122457   6.534   1.486   0.054
 7186SOL    HW222458   6.681   1.544   0.011
 7187SOL     OW22459   3.684   3.521   4.160
 7187SOL    HW122460   3.667   3.465   4.241
 7187SOL    HW222461   3.698   3.616   4.187
 7188SOL     OW22462   5.045   4.559   0.126
 7188SOL    HW122463   5.093   4.593   0.045
 7188SOL    HW222464   4.963   4.509   0.097
 7189SOL     OW22465   6.839   2.091   5.787
 7189SOL    HW122466   6.807   2.144   5.866
 7189SOL    HW222467   6.760   2.047   5.743
 7190SOL     OW22468   5.978   6.050   0.671
 7190SOL    HW122469   5.914   5.998   0.613
 7190SOL    HW222470   6.018   5.988   0.739
 7191SOL     OW22471   0.297   4.984   2.624
 7191SOL    HW122472   0.306   5.004   2.526
 7191SOL    HW222473   0.367   4.917   2.651
 7192SOL     OW22474   3.211   4.033   5.501
 7192SOL    HW122475   3.282   3.982   5.551
 7192SOL    HW222476   3.130   4.042   5.559
 7193SOL     OW22477   3.637   1.456   3.466
 7193SOL    HW122478   3.650   1.499   3.555
 7193SOL    HW222479   3.697   1.377   3.458
 7194SOL     OW22480   3.407   2.295   5.418
 7194SOL    HW122481   3.504   2.310   5.398
 7194SOL    HW222482   3.373   2.371   5.474
 7195SOL     OW22483   0.586   4.318   5.782
 7195SOL    HW122484   0.619   4.412   5.777
 7195SOL    HW222485   0.657   4.256   5.748
 7196SOL     OW22486   3.055   3.982   1.737
 7196SOL    HW122487   3.132   4.027   1.693
 7196SOL    HW222488   3.070   3.982   1.836
 7197SOL     OW22489   3.607   4.573   6.473
 7197SOL    HW122490   3.550   4.609   6.399
 7197SOL    HW222491   3.578   4.612   6.560
 7198SOL     OW22492   0.734   0.314   2.361
 7198SOL    HW122493   0.685   0.261   2.292
 7198SOL    HW222494   0.815   0.264   2.391
 7199SOL     OW22495   5.992   0.823   3.215
 7199SOL    HW122496   6.040   0.833   3.128
 7199SOL    HW222497   5.894   0.816   3.199
 7200SOL     OW22498   0.586   3.727   6.763
 7200SOL    HW122499   0.526   3.656   6.798
 7200SOL    HW222500   0.664   3.738   6.824
 7201SOL     OW22501   5.535   5.964   4.258
 7201SOL    HW122502   5.442   5.930   4.241
 7201SOL    HW222503   5.557   5.954   4.354
 7202SOL     OW22504   4.921   0.897   6.232
 7202SOL    HW122505   4.856   0.956   6.184
 7202SOL    HW222506   5.007   0.894   6.181
 7203SOL     OW22507   1.042   1.617   1.364
 7203SOL    HW122508   1.070   1.632   1.269
 7203SOL    HW222509   1.100   1.672   1.425
 7204SOL     OW22510   6.127   0.570   3.023
 7204SOL    HW122511   6.173   0.577   3.112
 7204SOL    HW222512   6.032   0.542   3.037
 7205SOL     OW22513   3.312   1.572   4.279
 7205SOL    HW122514   3.383   1.559   4.209
 7205SOL    HW222515   3.296   1.669   4.293
 7206SOL     OW22516   2.038   3.034   6.419
 7206SOL    HW122517   2.009   2.943   6.388
 7206SOL    HW222518   2.048   3.095   6.340
 7207SOL     OW22519   1.657   1.856   3.480
 7207SOL    HW122520   1.586   1.889   3.418
 7207SOL    HW222521   1.618   1.788   3.542
 7208SOL     OW22522   3.164   6.909   3.353
 7208SOL    HW122523   3.250   6.861   3.368
 7208SOL    HW222524   3.121   6.874   3.270
 7209SOL     OW22525   4.039   0.442   2.104
 7209SOL    HW122526   4.130   0.416   2.136
 7209SOL    HW222527   4.012   0.528   2.147
 7210SOL     OW22528   3.384   1.229   4.307
 7210SOL    HW122529   3.334   1.187   4.382
 7210SOL    HW222530   3.327   1.300   4.264
 7211SOL     OW22531   4.221   6.182   5.855
 7211SOL    HW122532   4.172   6.142   5.933
 7211SOL    HW222533   4.157   6.235   5.799
 7212SOL     OW22534   0.634   5.463   4.807
 7212SOL    HW122535   0.603   5.410   4.728
 7212SOL    HW222536   0.583   5.435   4.888
 7213SOL     OW22537   4.513   2.693   0.141
 7213SOL    HW122538   4.565   2.663   0.060
 7213SOL    HW222539   4.510   2.793   0.143
 7214SOL     OW22540   6.506   1.268   5.944
 7214SOL    HW122541   6.521   1.176   5.908
 7214SOL    HW222542   6.470   1.262   6.037
 7215SOL     OW22543   6.046   1.662   2.707
 7215SOL    HW122544   5.983   1.738   2.693
 7215SOL    HW222545   6.133   1.695   2.743
 7216SOL     OW22546   5.464   6.794   3.786
 7216SOL    HW122547   5.480   6.891   3.769
 7216SOL    HW222548   5.550   6.744   3.774
 7217SOL     OW22549   1.324   3.309   3.329
 7217SOL    HW122550   1.415   3.312   3.369
 7217SOL    HW222551   1.262   3.367   3.382
 7218SOL     OW22552   6.471   2.686   5.231
 7218SOL    HW122553   6.389   2.630   5.246
 7218SOL    HW222554   6.450   2.781   5.252
 7219SOL     OW22555   2.854   5.902   1.810
 7219SOL    HW122556   2.842   5.833   1.881
 7219SOL    HW222557   2.765   5.941   1.786
 7220SOL     OW22558   6.820   3.440   3.600
 7220SOL    HW122559   6.885   3.386   3.547
 7220SOL    HW222560   6.870   3.497   3.665
 7221SOL     OW22561   4.421   5.048   3.679
 7221SOL    HW122562   4.477   5.122   3.717
 7221SOL    HW222563   4.420   4.971   3.742
 7222SOL     OW22564   6.564   6.056   4.042
 7222SOL    HW122565   6.567   6.033   3.944
 7222SOL    HW222566   6.504   6.134   4.056
 7223SOL     OW22567   6.792   6.038   2.024
 7223SOL    HW122568   6.875   6.009   2.071
 7223SOL    HW222569   6.806   6.130   1.986
 7224SOL     OW22570   4.914   2.224   2.615
 7224SOL    HW122571   4.842   2.225   2.685
 7224SOL    HW222572   4.872   2.236   2.524
 7225SOL     OW22573   0.803   5.612   0.047
 7225SOL    HW122574   0.863   5.683   0.009
 7225SOL    HW222575   0.715   5.653   0.073
 7226SOL     OW22576   6.354   6.425   0.281
 7226SOL    HW122577   6.450   6.431   0.256
 7226SOL    HW222578   6.298   6.437   0.198
 7227SOL     OW22579   2.054   0.981   2.122
 7227SOL    HW122580   2.127   1.044   2.151
 7227SOL    HW222581   2.005   0.949   2.203
 7228SOL     OW22582   5.780   3.084   2.824
 7228SOL    HW122583   5.746   3.027   2.749
 7228SOL    HW222584   5.716   3.160   2.840
 7229SOL     OW22585   6.293   0.318   4.979
 7229SOL    HW122586   6.316   0.305   4.882
 7229SOL    HW222587   6.195   0.333   4.989
 7230SOL     OW22588   2.041   4.740   4.797
 7230SOL    HW122589   2.100   4.762   4.875
 7230SOL    HW222590   2.013   4.824   4.751
 7231SOL     OW22591   4.026   3.482   6.271
 7231SOL    HW122592   4.114   3.458   6.312
 7231SOL    HW222593   3.953   3.430   6.314
 7232SOL     OW22594   4.426   6.093   3.484
 7232SOL    HW122595   4.417   6.005   3.530
 7232SOL    HW222596   4.357   6.156   3.520
 7233SOL     OW22597   0.343   1.473   6.164
 7233SOL    HW122598   0.248   1.492   6.136
 7233SOL    HW222599   0.344   1.440   6.258
 7234SOL     OW22600   5.677   4.902   2.730
 7234SOL    HW122601   5.751   4.837   2.736
 7234SOL    HW222602   5.597   4.859   2.687
 7235SOL     OW22603   6.352   0.914   1.805
 7235SOL    HW122604   6.371   1.002   1.762
 7235SOL    HW222605   6.437   0.876   1.843
 7236SOL     OW22606   0.555   3.891   2.915
 7236SOL    HW122607   0.624   3.833   2.872
 7236SOL    HW222608   0.558   3.878   3.015
 7237SOL     OW22609   5.376   1.175   0.348
 7237SOL    HW122610   5.340   1.222   0.428
 7237SOL    HW222611   5.370   1.235   0.268
 7238SOL     OW22612   4.089   3.473   0.218
 7238SOL    HW122613   4.016   3.536   0.244
 7238SOL    HW222614   4.126   3.499   0.129
 7239SOL     OW22615   5.372   2.777   1.883
 7239SOL    HW122616   5.453   2.804   1.832
 7239SOL    HW222617   5.383   2.682   1.915
 7240SOL     OW22618   0.283   2.000   0.029
 7240SOL    HW122619   0.289   1.904   0.057
 7240SOL    HW222620   0.311   2.008   6.949
 7241SOL     OW22621   1.979   0.238   2.606
 7241SOL    HW122622   2.004   0.142   2.623
 7241SOL    HW222623   1.883   0.253   2.631
 7242SOL     OW22624   6.532   4.107   5.346
 7242SOL    HW122625   6.585   4.177   5.298
 7242SOL    HW222626   6.496   4.145   5.431
 7243SOL     OW22627   5.836   4.610   6.196
 7243SOL    HW122628   5.749   4.659   6.198
 7243SOL    HW222629   5.832   4.538   6.126
 7244SOL     OW22630   6.598   6.009   6.606
 7244SOL    HW122631   6.662   5.992   6.681
 7244SOL    HW222632   6.539   5.930   6.594
 7245SOL     OW22633   1.509   2.362   6.822
 7245SOL    HW122634   1.580   2.391   6.885
 7245SOL    HW222635   1.488   2.266   6.837
 7246SOL     OW22636   4.166   6.921   3.812
 7246SOL    HW122637   4.184   6.872   3.897
 7246SOL    HW222638   4.077   6.966   3.817
 7247SOL     OW22639   3.318   4.142   4.626
 7247SOL    HW122640   3.250   4.135   4.554
 7247SOL    HW222641   3.408   4.161   4.586
 7248SOL     OW22642   2.670   1.802   5.610
 7248SOL    HW122643   2.716   1.818   5.523
 7248SOL    HW222644   2.738   1.787   5.682
 7249SOL     OW22645   3.212   5.776   2.895
 7249SOL    HW122646   3.215   5.843   2.970
 7249SOL    HW222647   3.195   5.824   2.809
 7250SOL     OW22648   5.224   5.613   5.553
 7250SOL    HW122649   5.315   5.572   5.564
 7250SOL    HW222650   5.214   5.690   5.616
 7251SOL     OW22651   0.848   5.841   4.551
 7251SOL    HW122652   0.808   5.904   4.616
 7251SOL    HW222653   0.802   5.752   4.557
 7252SOL     OW22654   4.024   3.807   2.063
 7252SOL    HW122655   4.047   3.887   2.008
 7252SOL    HW222656   4.098   3.740   2.057
 7253SOL     OW22657   2.088   5.113   4.977
 7253SOL    HW122658   2.044   5.025   4.996
 7253SOL    HW222659   2.172   5.098   4.926
 7254SOL     OW22660   6.750   3.662   4.026
 7254SOL    HW122661   6.668   3.604   4.019
 7254SOL    HW222662   6.786   3.656   4.119
 7255SOL     OW22663   4.906   3.935   0.200
 7255SOL    HW122664   4.817   3.917   0.240
 7255SOL    HW222665   4.912   4.031   0.174
 7256SOL     OW22666   3.171   6.651   4.333
 7256SOL    HW122667   3.260   6.668   4.292
 7256SOL    HW222668   3.100   6.654   4.262
 7257SOL     OW22669   0.951   1.304   5.209
 7257SOL    HW122670   0.889   1.379   5.189
 7257SOL    HW222671   0.899   1.223   5.234
 7258SOL     OW22672   6.536   2.244   2.385
 7258SOL    HW122673   6.520   2.315   2.453
 7258SOL    HW222674   6.575   2.163   2.430
 7259SOL     OW22675   1.133   3.911   2.704
 7259SOL    HW122676   1.132   3.912   2.804
 7259SOL    HW222677   1.060   3.971   2.670
 7260SOL     OW22678   6.085   3.154   1.079
 7260SOL    HW122679   6.144   3.085   1.037
 7260SOL    HW222680   6.125   3.183   1.166
 7261SOL     OW22681   0.263   4.371   6.809
 7261SOL    HW122682   0.277   4.278   6.843
 7261SOL    HW222683   0.349   4.407   6.774
 7262SOL     OW22684   4.114   0.730   5.214
 7262SOL    HW122685   4.199   0.751   5.165
 7262SOL    HW222686   4.136   0.682   5.299
 7263SOL     OW22687   6.414   5.358   5.359
 7263SOL    HW122688   6.353   5.417   5.305
 7263SOL    HW222689   6.496   5.338   5.307
 7264SOL     OW22690   5.434   1.317   1.536
 7264SOL    HW122691   5.367   1.391   1.534
 7264SOL    HW222692   5.461   1.294   1.443
 7265SOL     OW22693   3.690   0.509   5.974
 7265SOL    HW122694   3.737   0.594   5.949
 7265SOL    HW222695   3.678   0.505   6.073
 7266SOL     OW22696   0.016   0.786   3.087
 7266SOL    HW122697   0.090   0.849   3.066
 7266SOL    HW222698   6.963   0.832   3.145
 7267SOL     OW22699   6.978   4.188   4.883
 7267SOL    HW122700   0.004   4.099   4.864
 7267SOL    HW222701   6.897   4.176   4.939
 7268SOL     OW22702   5.681   6.208   4.238
 7268SOL    HW122703   5.635   6.125   4.271
 7268SOL    HW222704   5.622   6.254   4.172
 7269SOL     OW22705   2.799   5.501   4.283
 7269SOL    HW122706   2.842   5.445   4.213
 7269SOL    HW222707   2.751   5.443   4.348
 7270SOL     OW22708   0.565   0.178   4.653
 7270SOL    HW122709   0.629   0.211   4.584
 7270SOL    HW222710   0.556   0.079   4.646
 7271SOL     OW22711   0.727   4.790   3.142
 7271SOL    HW122712   0.818   4.823   3.115
 7271SOL    HW222713   0.657   4.843   3.096
 7272SOL     OW22714   6.411   4.201   1.713
 7272SOL    HW122715   6.448   4.176   1.802
 7272SOL    HW222716   6.315   4.227   1.723
 7273SOL     OW22717   0.681   1.160   5.338
 7273SOL    HW122718   0.667   1.062   5.329
 7273SOL    HW222719   0.702   1.183   5.433
 7274SOL     OW22720   0.072   4.890   6.199
 7274SOL    HW122721   0.120   4.974   6.228
 7274SOL    HW222722   0.109   4.860   6.111
 7275SOL     OW22723   0.858   5.294   3.527
 7275SOL    HW122724   0.785   5.231   3.553
 7275SOL    HW222725   0.826   5.388   3.536
 7276SOL     OW22726   4.694   6.204   3.605
 7276SOL    HW122727   4.620   6.143   3.634
 7276SOL    HW222728   4.771   6.149   3.571
 7277SOL     OW22729   5.065   0.509   0.520
 7277SOL    HW122730   5.143   0.462   0.480
 7277SOL    HW222731   5.039   0.586   0.460
 7278SOL     OW22732   3.444   2.836   2.238
 7278SOL    HW122733   3.453   2.890   2.322
 7278SOL    HW222734   3.535   2.821   2.198
 7279SOL     OW22735   3.635   6.771   5.923
 7279SOL    HW122736   3.590   6.808   5.841
 7279SOL    HW222737   3.596   6.682   5.944
 7280SOL     OW22738   5.168   1.083   6.458
 7280SOL    HW122739   5.152   1.092   6.360
 7280SOL    HW222740   5.085   1.050   6.503
 7281SOL     OW22741   5.730   1.658   6.093
 7281SOL    HW122742   5.630   1.663   6.098
 7281SOL    HW222743   5.765   1.616   6.177
 7282SOL     OW22744   5.970   6.133   2.518
 7282SOL    HW122745   5.934   6.130   2.425
 7282SOL    HW222746   6.069   6.148   2.515
 7283SOL     OW22747   2.483   1.579   3.853
 7283SOL    HW122748   2.493   1.480   3.850
 7283SOL    HW222749   2.522   1.614   3.938
 7284SOL     OW22750   1.586   1.751   5.434
 7284SOL    HW122751   1.587   1.657   5.401
 7284SOL    HW222752   1.643   1.808   5.374
 7285SOL     OW22753   6.185   5.298   1.724
 7285SOL    HW122754   6.224   5.343   1.805
 7285SOL    HW222755   6.088   5.318   1.718
 7286SOL     OW22756   1.962   4.019   0.906
 7286SOL    HW122757   1.930   4.101   0.954
 7286SOL    HW222758   1.893   3.947   0.913
 7287SOL     OW22759   6.439   1.646   5.567
 7287SOL    HW122760   6.396   1.561   5.599
 7287SOL    HW222761   6.461   1.637   5.470
 7288SOL     OW22762   2.796   0.158   0.379
 7288SOL    HW122763   2.786   0.193   0.472
 7288SOL    HW222764   2.867   0.088   0.376
 7289SOL     OW22765   4.664   2.293   4.156
 7289SOL    HW122766   4.599   2.284   4.232
 7289SOL    HW222767   4.709   2.382   4.161
 7290SOL     OW22768   2.617   5.808   4.508
 7290SOL    HW122769   2.541   5.748   4.482
 7290SOL    HW222770   2.666   5.836   4.425
 7291SOL     OW22771   3.841   4.582   1.428
 7291SOL    HW122772   3.860   4.501   1.484
 7291SOL    HW222773   3.848   4.664   1.485
 7292SOL     OW22774   3.296   0.271   4.624
 7292SOL    HW122775   3.289   0.361   4.581
 7292SOL    HW222776   3.320   0.282   4.720
 7293SOL     OW22777   2.213   1.147   6.573
 7293SOL    HW122778   2.180   1.238   6.599
 7293SOL    HW222779   2.188   1.128   6.479
 7294SOL     OW22780   5.355   5.244   0.020
 7294SOL    HW122781   5.425   5.189   6.990
 7294SOL    HW222782   5.382   5.340   0.021
 7295SOL     OW22783   4.742   0.101   1.430
 7295SOL    HW122784   4.803   0.163   1.481
 7295SOL    HW222785   4.725   0.020   1.486
 7296SOL     OW22786   4.286   5.300   1.359
 7296SOL    HW122787   4.192   5.316   1.388
 7296SOL    HW222788   4.287   5.233   1.285
 7297SOL     OW22789   5.040   6.699   2.164
 7297SOL    HW122790   5.098   6.771   2.202
 7297SOL    HW222791   4.972   6.739   2.103
 7298SOL     OW22792   6.549   3.474   4.214
 7298SOL    HW122793   6.496   3.404   4.166
 7298SOL    HW222794   6.567   3.444   4.307
 7299SOL     OW22795   5.697   3.732   6.409
 7299SOL    HW122796   5.621   3.797   6.411
 7299SOL    HW222797   5.682   3.665   6.337
 7300SOL     OW22798   4.835   5.683   1.863
 7300SOL    HW122799   4.855   5.628   1.944
 7300SOL    HW222800   4.917   5.687   1.805
 7301SOL     OW22801   6.766   1.363   6.265
 7301SOL    HW122802   6.792   1.432   6.333
 7301SOL    HW222803   6.848   1.331   6.217
 7302SOL     OW22804   5.700   0.890   6.399
 7302SOL    HW122805   5.790   0.931   6.383
 7302SOL    HW222806   5.695   0.803   6.350
 7303SOL     OW22807   3.764   0.787   0.797
 7303SOL    HW122808   3.785   0.830   0.885
 7303SOL    HW222809   3.700   0.712   0.811
 7304SOL     OW22810   3.798   3.306   5.301
 7304SOL    HW122811   3.743   3.298   5.218
 7304SOL    HW222812   3.768   3.236   5.367
 7305SOL     OW22813   5.726   1.816   0.496
 7305SOL    HW122814   5.685   1.904   0.474
 7305SOL    HW222815   5.724   1.757   0.415
 7306SOL     OW22816   4.744   4.923   2.194
 7306SOL    HW122817   4.761   4.992   2.263
 7306SOL    HW222818   4.739   4.965   2.103
 7307SOL     OW22819   4.222   6.286   2.365
 7307SOL    HW122820   4.183   6.233   2.289
 7307SOL    HW222821   4.296   6.234   2.407
 7308SOL     OW22822   6.108   0.597   4.465
 7308SOL    HW122823   6.051   0.678   4.476
 7308SOL    HW222824   6.122   0.579   4.368
 7309SOL     OW22825   4.420   5.207   1.782
 7309SOL    HW122826   4.512   5.223   1.816
 7309SOL    HW222827   4.404   5.264   1.701
 7310SOL     OW22828   1.962   5.698   1.785
 7310SOL    HW122829   2.041   5.758   1.775
 7310SOL    HW222830   1.904   5.731   1.859
 7311SOL     OW22831   2.689   2.017   2.231
 7311SOL    HW122832   2.625   1.956   2.184
 7311SOL    HW222833   2.666   2.022   2.328
 7312SOL     OW22834   0.004   2.238   6.191
 7312SOL    HW122835   6.939   2.248   6.132
 7312SOL    HW222836   6.991   2.209   6.282
 7313SOL     OW22837   3.820   2.468   6.226
 7313SOL    HW122838   3.785   2.436   6.138
 7313SOL    HW222839   3.895   2.532   6.211
 7314SOL     OW22840   0.922   2.783   4.360
 7314SOL    HW122841   0.886   2.853   4.421
 7314SOL    HW222842   0.901   2.693   4.396
 7315SOL     OW22843   0.027   0.632   5.944
 7315SOL    HW122844   0.060   0.552   5.893
 7315SOL    HW222845   6.999   0.601   6.028
 7316SOL     OW22846   3.815   3.087   4.928
 7316SOL    HW122847   3.848   3.181   4.920
 7316SOL    HW222848   3.758   3.079   5.009
 7317SOL     OW22849   2.827   0.913   4.333
 7317SOL    HW122850   2.828   0.992   4.394
 7317SOL    HW222851   2.761   0.927   4.260
 7318SOL     OW22852   1.394   1.557   1.100
 7318SOL    HW122853   1.470   1.552   1.035
 7318SOL    HW222854   1.424   1.528   1.190
 7319SOL     OW22855   0.130   3.827   5.881
 7319SOL    HW122856   0.155   3.831   5.978
 7319SOL    HW222857   0.170   3.905   5.833
 7320SOL     OW22858   0.163   1.819   2.339
 7320SOL    HW122859   0.162   1.733   2.391
 7320SOL    HW222860   0.081   1.872   2.362
 7321SOL     OW22861   2.933   1.402   4.404
 7321SOL    HW122862   3.020   1.357   4.422
 7321SOL    HW222863   2.889   1.426   4.491
 7322SOL     OW22864   0.189   3.573   1.561
 7322SOL    HW122865   0.168   3.669   1.578
 7322SOL    HW222866   0.246   3.538   1.635
 7323SOL     OW22867   2.135   3.800   3.213
 7323SOL    HW122868   2.196   3.849   3.151
 7323SOL    HW222869   2.109   3.712   3.173
 7324SOL     OW22870   5.146   5.149   2.899
 7324SOL    HW122871   5.155   5.183   2.805
 7324SOL    HW222872   5.209   5.073   2.913
 7325SOL     OW22873   3.109   6.177   0.229
 7325SOL    HW122874   3.038   6.147   0.292
 7325SOL    HW222875   3.166   6.246   0.274
 7326SOL     OW22876   2.400   0.814   4.352
 7326SOL    HW122877   2.396   0.866   4.267
 7326SOL    HW222878   2.327   0.746   4.353
 7327SOL     OW22879   1.287   2.944   5.447
 7327SOL    HW122880   1.218   2.923   5.516
 7327SOL    HW222881   1.284   2.874   5.375
 7328SOL     OW22882   2.344   0.254   6.557
 7328SOL    HW122883   2.420   0.297   6.507
 7328SOL    HW222884   2.272   0.321   6.573
 7329SOL     OW22885   4.592   3.527   1.698
 7329SOL    HW122886   4.551   3.590   1.631
 7329SOL    HW222887   4.581   3.433   1.666
 7330SOL     OW22888   4.353   2.334   0.474
 7330SOL    HW122889   4.418   2.282   0.529
 7330SOL    HW222890   4.262   2.326   0.514
 7331SOL     OW22891   4.716   1.463   1.619
 7331SOL    HW122892   4.801   1.433   1.577
 7331SOL    HW222893   4.638   1.422   1.570
 7332SOL     OW22894   3.795   5.867   0.909
 7332SOL    HW122895   3.758   5.905   0.824
 7332SOL    HW222896   3.849   5.937   0.956
 7333SOL     OW22897   0.536   4.755   2.676
 7333SOL    HW122898   0.615   4.789   2.726
 7333SOL    HW222899   0.559   4.748   2.578
 7334SOL     OW22900   3.241   0.032   4.510
 7334SOL    HW122901   3.277   0.115   4.551
 7334SOL    HW222902   3.210   6.985   4.582
 7335SOL     OW22903   2.180   3.184   2.693
 7335SOL    HW122904   2.250   3.241   2.738
 7335SOL    HW222905   2.095   3.235   2.686
 7336SOL     OW22906   1.692   6.099   4.006
 7336SOL    HW122907   1.653   6.022   4.057
 7336SOL    HW222908   1.791   6.096   4.012
 7337SOL     OW22909   4.918   2.517   2.275
 7337SOL    HW122910   4.850   2.548   2.209
 7337SOL    HW222911   4.988   2.588   2.287
 7338SOL     OW22912   6.731   3.087   0.110
 7338SOL    HW122913   6.824   3.075   0.075
 7338SOL    HW222914   6.694   3.174   0.079
 7339SOL     OW22915   1.303   5.835   4.794
 7339SOL    HW122916   1.297   5.753   4.736
 7339SOL    HW222917   1.398   5.851   4.820
 7340SOL     OW22918   2.477   6.508   0.048
 7340SOL    HW122919   2.548   6.491   6.996
 7340SOL    HW222920   2.468   6.607   0.063
 7341SOL     OW22921   6.697   1.833   0.893
 7341SOL    HW122922   6.766   1.828   0.965
 7341SOL    HW222923   6.654   1.744   0.881
 7342SOL     OW22924   0.602   6.399   2.290
 7342SOL    HW122925   0.649   6.318   2.327
 7342SOL    HW222926   0.647   6.428   2.206
 7343SOL     OW22927   6.095   2.962   0.574
 7343SOL    HW122928   6.046   3.047   0.560
 7343SOL    HW222929   6.055   2.911   0.650
 7344SOL     OW22930   2.469   6.219   5.883
 7344SOL    HW122931   2.527   6.161   5.940
 7344SOL    HW222932   2.388   6.169   5.855
 7345SOL     OW22933   3.582   5.918   5.752
 7345SOL    HW122934   3.540   6.000   5.712
 7345SOL    HW222935   3.674   5.907   5.714
 7346SOL     OW22936   4.033   5.005   1.991
 7346SOL    HW122937   3.964   4.987   2.060
 7346SOL    HW222938   3.995   4.988   1.900
 7347SOL     OW22939   6.231   1.415   0.037
 7347SOL    HW122940   6.232   1.363   6.967
 7347SOL    HW222941   6.149   1.473   0.041
 7348SOL     OW22942   6.384   4.827   0.043
 7348SOL    HW122943   6.414   4.744   0.091
 7348SOL    HW222944   6.447   4.902   0.062
 7349SOL     OW22945   3.819   1.763   1.512
 7349SOL    HW122946   3.910   1.721   1.511
 7349SOL    HW222947   3.781   1.757   1.604
 7350SOL     OW22948   3.803   0.952   4.353
 7350SOL    HW122949   3.840   0.898   4.429
 7350SOL    HW222950   3.747   1.027   4.389
 7351SOL     OW22951   2.036   4.434   4.220
 7351SOL    HW122952   2.038   4.432   4.320
 7351SOL    HW222953   1.980   4.358   4.186
 7352SOL     OW22954   6.084   3.527   4.231
 7352SOL    HW122955   5.984   3.537   4.237
 7352SOL    HW222956   6.124   3.544   4.321
 7353SOL     OW22957   6.428   0.911   5.530
 7353SOL    HW122958   6.465   0.852   5.458
 7353SOL    HW222959   6.401   0.999   5.491
 7354SOL     OW22960   0.952   1.752   2.732
 7354SOL    HW122961   0.891   1.702   2.793
 7354SOL    HW222962   0.901   1.781   2.650
 7355SOL     OW22963   3.429   1.571   0.889
 7355SOL    HW122964   3.452   1.563   0.792
 7355SOL    HW222965   3.490   1.637   0.933
 7356SOL     OW22966   4.303   4.189   6.353
 7356SOL    HW122967   4.243   4.164   6.430
 7356SOL    HW222968   4.393   4.146   6.365
 7357SOL     OW22969   5.104   6.476   2.049
 7357SOL    HW122970   5.076   6.562   2.091
 7357SOL    HW222971   5.176   6.433   2.103
 7358SOL     OW22972   5.081   0.387   3.164
 7358SOL    HW122973   5.104   0.478   3.196
 7358SOL    HW222974   4.990   0.387   3.122
 7359SOL     OW22975   4.144   6.865   1.940
 7359SOL    HW122976   4.240   6.849   1.919
 7359SOL    HW222977   4.131   6.868   2.039
 7360SOL     OW22978   2.832   3.737   5.196
 7360SOL    HW122979   2.846   3.638   5.201
 7360SOL    HW222980   2.864   3.770   5.107
 7361SOL     OW22981   6.773   0.336   2.904
 7361SOL    HW122982   6.685   0.289   2.912
 7361SOL    HW222983   6.842   0.288   2.958
 7362SOL     OW22984   3.583   5.683   0.287
 7362SOL    HW122985   3.512   5.634   0.338
 7362SOL    HW222986   3.543   5.720   0.203
 7363SOL     OW22987   4.250   0.848   1.179
 7363SOL    HW122988   4.313   0.793   1.234
 7363SOL    HW222989   4.291   0.869   1.090
 7364SOL     OW22990   6.327   6.241   1.767
 7364SOL    HW122991   6.295   6.167   1.709
 7364SOL    HW222992   6.250   6.278   1.819
 7365SOL     OW22993   4.876   3.675   2.538
 7365SOL    HW122994   4.863   3.731   2.455
 7365SOL    HW222995   4.805   3.604   2.542
 7366SOL     OW22996   2.248   6.871   3.633
 7366SOL    HW122997   2.268   6.963   3.666
 7366SOL    HW222998   2.321   6.809   3.662
 7367SOL     OW22999   4.162   0.984   6.745
 7367SOL    HW123000   4.180   0.909   6.681
 7367SOL    HW223001   4.223   1.060   6.725
 7368SOL     OW23002   3.570   3.306   3.370
 7368SOL    HW123003   3.553   3.306   3.271
 7368SOL    HW223004   3.489   3.270   3.417
 7369SOL     OW23005   5.911   3.675   6.905
 7369SOL    HW123006   5.890   3.748   6.970
 7369SOL    HW223007   5.856   3.687   6.822
 7370SOL     OW23008   1.693   1.599   4.896
 7370SOL    HW123009   1.723   1.656   4.820
 7370SOL    HW223010   1.651   1.516   4.861
 7371SOL     OW23011   3.877   1.180   3.338
 7371SOL    HW123012   3.861   1.236   3.257
 7371SOL    HW223013   3.907   1.089   3.310
 7372SOL     OW23014   4.895   1.004   5.202
 7372SOL    HW123015   4.798   1.020   5.182
 7372SOL    HW223016   4.931   0.939   5.135
 7373SOL     OW23017   5.909   3.212   4.449
 7373SOL    HW123018   5.828   3.156   4.467
 7373SOL    HW223019   5.991   3.153   4.450
 7374SOL     OW23020   0.662   2.444   6.629
 7374SOL    HW123021   0.719   2.469   6.707
 7374SOL    HW223022   0.627   2.526   6.584
 7375SOL     OW23023   2.166   3.342   0.309
 7375SOL    HW123024   2.221   3.425   0.296
 7375SOL    HW223025   2.120   3.346   0.397
 7376SOL     OW23026   6.662   4.717   0.624
 7376SOL    HW123027   6.651   4.642   0.560
 7376SOL    HW223028   6.618   4.799   0.587
 7377SOL     OW23029   2.439   5.613   0.949
 7377SOL    HW123030   2.509   5.565   1.000
 7377SOL    HW223031   2.444   5.588   0.852
 7378SOL     OW23032   1.893   4.816   5.564
 7378SOL    HW123033   1.821   4.748   5.577
 7378SOL    HW223034   1.975   4.770   5.529
 7379SOL     OW23035   4.706   1.676   2.669
 7379SOL    HW123036   4.750   1.755   2.711
 7379SOL    HW223037   4.687   1.695   2.573
 7380SOL     OW23038   5.115   3.428   1.643
 7380SOL    HW123039   5.203   3.412   1.688
 7380SOL    HW223040   5.080   3.518   1.670
 7381SOL     OW23041   3.679   6.519   1.759
 7381SOL    HW123042   3.722   6.432   1.783
 7381SOL    HW223043   3.739   6.594   1.787
 7382SOL     OW23044   0.392   1.788   6.373
 7382SOL    HW123045   0.352   1.879   6.365
 7382SOL    HW223046   0.322   1.719   6.357
 7383SOL     OW23047   2.099   6.839   1.118
 7383SOL    HW123048   2.133   6.837   1.212
 7383SOL    HW223049   2.158   6.898   1.063
 7384SOL     OW23050   0.003   6.626   0.577
 7384SOL    HW123051   6.935   6.585   0.612
 7384SOL    HW223052   0.023   6.589   0.486
 7385SOL     OW23053   6.039   4.896   3.131
 7385SOL    HW123054   5.996   4.815   3.091
 7385SOL    HW223055   6.069   4.875   3.224
 7386SOL     OW23056   5.819   4.175   6.932
 7386SOL    HW123057   5.907   4.205   6.968
 7386SOL    HW223058   5.833   4.098   6.869
 7387SOL     OW23059   6.250   5.397   3.923
 7387SOL    HW123060   6.325   5.337   3.893
 7387SOL    HW223061   6.224   5.458   3.849
 7388SOL     OW23062   2.354   4.341   2.576
 7388SOL    HW123063   2.405   4.302   2.499
 7388SOL    HW223064   2.289   4.409   2.542
 7389SOL     OW23065   6.531   3.121   0.612
 7389SOL    HW123066   6.627   3.120   0.639
 7389SOL    HW223067   6.516   3.194   0.545
 7390SOL     OW23068   2.856   2.277   3.870
 7390SOL    HW123069   2.919   2.251   3.796
 7390SOL    HW223070   2.875   2.222   3.951
 7391SOL     OW23071   3.363   4.089   3.005
 7391SOL    HW123072   3.267   4.067   2.989
 7391SOL    HW223073   3.402   4.133   2.923
 7392SOL     OW23074   3.318   6.691   0.719
 7392SOL    HW123075   3.221   6.703   0.701
 7392SOL    HW223076   3.334   6.687   0.818
 7393SOL     OW23077   5.034   5.816   3.366
 7393SOL    HW123078   4.995   5.724   3.361
 7393SOL    HW223079   5.109   5.823   3.300
 7394SOL     OW23080   2.468   1.953   6.248
 7394SOL    HW123081   2.400   2.025   6.262
 7394SOL    HW223082   2.560   1.992   6.252
 7395SOL     OW23083   2.678   6.277   1.191
 7395SOL    HW123084   2.591   6.238   1.223
 7395SOL    HW223085   2.744   6.204   1.177
 7396SOL     OW23086   1.302   4.877   2.182
 7396SOL    HW123087   1.237   4.916   2.247
 7396SOL    HW223088   1.305   4.778   2.192
 7397SOL     OW23089   6.192   4.476   4.118
 7397SOL    HW123090   6.102   4.462   4.077
 7397SOL    HW223091   6.242   4.389   4.120
 7398SOL     OW23092   3.206   4.877   2.336
 7398SOL    HW123093   3.199   4.920   2.246
 7398SOL    HW223094   3.179   4.781   2.330
 7399SOL     OW23095   6.117   1.390   5.648
 7399SOL    HW123096   6.089   1.356   5.558
 7399SOL    HW223097   6.039   1.389   5.710
 7400SOL     OW23098   4.180   3.505   5.664
 7400SOL    HW123099   4.250   3.518   5.734
 7400SOL    HW223100   4.215   3.442   5.594
 7401SOL     OW23101   1.494   2.489   3.874
 7401SOL    HW123102   1.548   2.489   3.790
 7401SOL    HW223103   1.498   2.579   3.917
 7402SOL     OW23104   3.471   5.686   4.176
 7402SOL    HW123105   3.521   5.696   4.262
 7402SOL    HW223106   3.458   5.776   4.135
 7403SOL     OW23107   1.719   4.210   3.933
 7403SOL    HW123108   1.691   4.146   3.861
 7403SOL    HW223109   1.744   4.298   3.891
 7404SOL     OW23110   2.674   3.937   0.696
 7404SOL    HW123111   2.692   3.918   0.793
 7404SOL    HW223112   2.582   3.975   0.687
 7405SOL     OW23113   3.783   6.704   5.313
 7405SOL    HW123114   3.698   6.755   5.320
 7405SOL    HW223115   3.790   6.639   5.389
 7406SOL     OW23116   0.730   2.346   4.282
 7406SOL    HW123117   0.751   2.289   4.203
 7406SOL    HW223118   0.631   2.365   4.285
 7407SOL     OW23119   1.475   6.217   5.641
 7407SOL    HW123120   1.511   6.299   5.595
 7407SOL    HW223121   1.445   6.241   5.733
 7408SOL     OW23122   4.305   5.566   5.103
 7408SOL    HW123123   4.326   5.473   5.133
 7408SOL    HW223124   4.259   5.562   5.014
 7409SOL     OW23125   6.756   4.599   1.652
 7409SOL    HW123126   6.776   4.545   1.571
 7409SOL    HW223127   6.663   4.578   1.684
 7410SOL     OW23128   6.599   1.060   1.207
 7410SOL    HW123129   6.676   1.035   1.266
 7410SOL    HW223130   6.571   0.980   1.154
 7411SOL     OW23131   3.597   1.729   5.388
 7411SOL    HW123132   3.613   1.789   5.466
 7411SOL    HW223133   3.684   1.694   5.353
 7412SOL     OW23134   4.200   6.674   0.037
 7412SOL    HW123135   4.190   6.603   6.983
 7412SOL    HW223136   4.280   6.654   0.094
 7413SOL     OW23137   5.130   1.071   3.638
 7413SOL    HW123138   5.079   1.150   3.605
 7413SOL    HW223139   5.163   1.088   3.731
 7414SOL     OW23140   2.617   0.973   3.932
 7414SOL    HW123141   2.709   0.981   3.970
 7414SOL    HW223142   2.605   1.041   3.860
 7415SOL     OW23143   3.937   0.161   6.526
 7415SOL    HW123144   3.889   0.126   6.607
 7415SOL    HW223145   3.875   0.159   6.448
 7416SOL     OW23146   1.838   0.507   1.714
 7416SOL    HW123147   1.897   0.579   1.750
 7416SOL    HW223148   1.750   0.509   1.761
 7417SOL     OW23149   0.586   0.651   2.586
 7417SOL    HW123150   0.647   0.633   2.509
 7417SOL    HW223151   0.502   0.598   2.575
 7418SOL     OW23152   1.409   3.697   6.165
 7418SOL    HW123153   1.498   3.650   6.168
 7418SOL    HW223154   1.416   3.776   6.104
 7419SOL     OW23155   6.385   3.243   4.196
 7419SOL    HW123156   6.428   3.211   4.112
 7419SOL    HW223157   6.408   3.181   4.271
 7420SOL     OW23158   6.995   6.456   1.074
 7420SOL    HW123159   6.974   6.417   1.163
 7420SOL    HW223160   0.018   6.548   1.085
 7421SOL     OW23161   5.725   3.999   1.109
 7421SOL    HW123162   5.747   4.063   1.036
 7421SOL    HW223163   5.797   4.002   1.179
 7422SOL     OW23164   5.371   3.406   1.777
 7422SOL    HW123165   5.412   3.395   1.867
 7422SOL    HW223166   5.432   3.461   1.719
 7423SOL     OW23167   4.650   2.668   6.137
 7423SOL    HW123168   4.601   2.583   6.157
 7423SOL    HW223169   4.726   2.678   6.200
 7424SOL     OW23170   0.832   2.435   4.011
 7424SOL    HW123171   0.819   2.336   4.001
 7424SOL    HW223172   0.926   2.453   4.038
 7425SOL     OW23173   5.749   0.591   1.244
 7425SOL    HW123174   5.689   0.670   1.234
 7425SOL    HW223175   5.698   0.514   1.284
 7426SOL     OW23176   3.217   2.917   5.773
 7426SOL    HW123177   3.235   3.013   5.794
 7426SOL    HW223178   3.225   2.862   5.856
 7427SOL     OW23179   2.281   0.270   2.780
 7427SOL    HW123180   2.231   0.265   2.694
 7427SOL    HW223181   2.288   0.366   2.809
 7428SOL     OW23182   2.946   0.564   4.738
 7428SOL    HW123183   3.004   0.615   4.675
 7428SOL    HW223184   2.981   0.574   4.831
 7429SOL     OW23185   1.123   0.835   2.372
 7429SOL    HW123186   1.092   0.813   2.280
 7429SOL    HW223187   1.092   0.927   2.396
 7430SOL     OW23188   0.058   3.865   2.659
 7430SOL    HW123189   7.014   3.938   2.694
 7430SOL    HW223190   0.134   3.852   2.722
 7431SOL     OW23191   0.897   1.908   4.569
 7431SOL    HW123192   0.836   1.970   4.519
 7431SOL    HW223193   0.957   1.861   4.504
 7432SOL     OW23194   1.620   1.412   3.033
 7432SOL    HW123195   1.643   1.482   3.100
 7432SOL    HW223196   1.698   1.398   2.972
 7433SOL     OW23197   3.238   0.072   6.855
 7433SOL    HW123198   3.333   0.089   6.879
 7433SOL    HW223199   3.214   6.993   6.876
 7434SOL     OW23200   4.355   0.152   3.360
 7434SOL    HW123201   4.446   0.191   3.375
 7434SOL    HW223202   4.315   0.127   3.448
 7435SOL     OW23203   5.243   4.531   2.879
 7435SOL    HW123204   5.211   4.590   2.954
 7435SOL    HW223205   5.274   4.587   2.803
 7436SOL     OW23206   5.211   2.982   5.746
 7436SOL    HW123207   5.283   2.938   5.692
 7436SOL    HW223208   5.190   3.072   5.706
 7437SOL     OW23209   3.253   0.996   1.364
 7437SOL    HW123210   3.247   1.019   1.267
 7437SOL    HW223211   3.161   0.995   1.404
 7438SOL     OW23212   2.078   0.340   6.655
 7438SOL    HW123213   2.048   0.407   6.588
 7438SOL    HW223214   2.015   0.263   6.656
 7439SOL     OW23215   1.416   4.520   5.867
 7439SOL    HW123216   1.357   4.559   5.796
 7439SOL    HW223217   1.450   4.431   5.837
 7440SOL     OW23218   5.158   3.435   3.848
 7440SOL    HW123219   5.166   3.527   3.886
 7440SOL    HW223220   5.197   3.369   3.913
 7441SOL     OW23221   4.480   5.968   1.183
 7441SOL    HW123222   4.426   5.918   1.117
 7441SOL    HW223223   4.457   5.938   1.276
 7442SOL     OW23224   5.895   1.363   5.801
 7442SOL    HW123225   5.803   1.357   5.763
 7442SOL    HW223226   5.921   1.274   5.840
 7443SOL     OW23227   0.159   0.525   1.414
 7443SOL    HW123228   0.172   0.611   1.463
 7443SOL    HW223229   0.144   0.451   1.479
 7444SOL     OW23230   1.495   6.447   6.699
 7444SOL    HW123231   1.543   6.360   6.713
 7444SOL    HW223232   1.560   6.516   6.667
 7445SOL     OW23233   3.469   5.746   2.410
 7445SOL    HW123234   3.481   5.727   2.507
 7445SOL    HW223235   3.384   5.703   2.378
 7446SOL     OW23236   6.104   5.033   0.098
 7446SOL    HW123237   6.065   5.125   0.107
 7446SOL    HW223238   6.056   4.970   0.158
 7447SOL     OW23239   1.007   5.611   0.980
 7447SOL    HW123240   1.091   5.562   1.001
 7447SOL    HW223241   1.007   5.635   0.883
 7448SOL     OW23242   4.319   4.943   6.825
 7448SOL    HW123243   4.410   4.967   6.857
 7448SOL    HW223244   4.323   4.858   6.772
 7449SOL     OW23245   6.288   4.034   6.364
 7449SOL    HW123246   6.320   4.059   6.273
 7449SOL    HW223247   6.255   4.116   6.411
 7450SOL     OW23248   5.903   2.533   6.605
 7450SOL    HW123249   5.961   2.478   6.665
 7450SOL    HW223250   5.948   2.544   6.516
 7451SOL     OW23251   4.595   4.578   2.940
 7451SOL    HW123252   4.680   4.626   2.961
 7451SOL    HW223253   4.549   4.553   3.025
 7452SOL     OW23254   6.487   5.449   6.287
 7452SOL    HW123255   6.566   5.395   6.259
 7452SOL    HW223256   6.408   5.388   6.299
 7453SOL     OW23257   4.108   5.623   6.146
 7453SOL    HW123258   4.011   5.634   6.128
 7453SOL    HW223259   4.131   5.663   6.235
 7454SOL     OW23260   3.832   2.042   0.963
 7454SOL    HW123261   3.813   2.137   0.985
 7454SOL    HW223262   3.779   1.982   1.024
 7455SOL     OW23263   6.490   0.456   3.176
 7455SOL    HW123264   6.538   0.532   3.131
 7455SOL    HW223265   6.475   0.383   3.109
 7456SOL     OW23266   3.144   1.880   5.889
 7456SOL    HW123267   3.096   1.940   5.953
 7456SOL    HW223268   3.127   1.912   5.795
 7457SOL     OW23269   1.079   1.288   2.681
 7457SOL    HW123270   1.084   1.352   2.757
 7457SOL    HW223271   1.159   1.299   2.622
 7458SOL     OW23272   0.535   5.378   5.061
 7458SOL    HW123273   0.501   5.299   5.113
 7458SOL    HW223274   0.518   5.462   5.112
 7459SOL     OW23275   5.807   0.190   3.413
 7459SOL    HW123276   5.827   0.216   3.318
 7459SOL    HW223277   5.893   0.172   3.461
 7460SOL     OW23278   0.715   0.598   1.382
 7460SOL    HW123279   0.766   0.568   1.463
 7460SOL    HW223280   0.626   0.553   1.381
 7461SOL     OW23281   2.003   4.473   4.502
 7461SOL    HW123282   1.958   4.433   4.583
 7461SOL    HW223283   2.075   4.535   4.531
 7462SOL     OW23284   1.885   4.593   0.089
 7462SOL    HW123285   1.790   4.564   0.090
 7462SOL    HW223286   1.940   4.532   0.146
 7463SOL     OW23287   4.707   5.211   1.830
 7463SOL    HW123288   4.757   5.147   1.887
 7463SOL    HW223289   4.739   5.203   1.735
 7464SOL     OW23290   5.680   5.543   5.035
 7464SOL    HW123291   5.675   5.443   5.036
 7464SOL    HW223292   5.635   5.579   5.117
 7465SOL     OW23293   1.004   3.937   6.358
 7465SOL    HW123294   1.078   3.875   6.383
 7465SOL    HW223295   0.972   3.985   6.440
 7466SOL     OW23296   0.526   0.466   5.401
 7466SOL    HW123297   0.603   0.480   5.463
 7466SOL    HW223298   0.545   0.511   5.313
 7467SOL     OW23299   0.525   3.727   4.614
 7467SOL    HW123300   0.607   3.758   4.566
 7467SOL    HW223301   0.446   3.733   4.553
 7468SOL     OW23302   5.199   2.639   5.597
 7468SOL    HW123303   5.170   2.632   5.692
 7468SOL    HW223304   5.265   2.714   5.588
 7469SOL     OW23305   0.260   2.127   0.377
 7469SOL    HW123306   0.349   2.082   0.372
 7469SOL    HW223307   0.230   2.131   0.472
 7470SOL     OW23308   5.258   3.230   4.009
 7470SOL    HW123309   5.349   3.259   4.039
 7470SOL    HW223310   5.256   3.130   4.000
 7471SOL     OW23311   3.612   6.611   6.802
 7471SOL    HW123312   3.664   6.544   6.856
 7471SOL    HW223313   3.640   6.604   6.706
 7472SOL     OW23314   0.815   0.170   5.834
 7472SOL    HW123315   0.805   0.258   5.880
 7472SOL    HW223316   0.741   0.158   5.768
 7473SOL     OW23317   4.132   5.841   3.361
 7473SOL    HW123318   4.100   5.869   3.271
 7473SOL    HW223319   4.217   5.790   3.352
 7474SOL     OW23320   6.031   2.218   0.197
 7474SOL    HW123321   6.123   2.257   0.189
 7474SOL    HW223322   5.966   2.290   0.221
 7475SOL     OW23323   5.046   2.656   1.100
 7475SOL    HW123324   4.995   2.625   1.020
 7475SOL    HW223325   5.099   2.580   1.137
 7476SOL     OW23326   2.384   1.321   2.702
 7476SOL    HW123327   2.342   1.410   2.722
 7476SOL    HW223328   2.471   1.313   2.750
 7477SOL     OW23329   2.801   3.777   5.924
 7477SOL    HW123330   2.766   3.688   5.954
 7477SOL    HW223331   2.840   3.768   5.833
 7478SOL     OW23332   0.332   1.969   5.909
 7478SOL    HW123333   0.240   1.982   5.872
 7478SOL    HW223334   0.364   1.877   5.888
 7479SOL     OW23335   4.809   2.825   1.355
 7479SOL    HW123336   4.809   2.726   1.339
 7479SOL    HW223337   4.811   2.843   1.453
 7480SOL     OW23338   3.731   5.836   2.645
 7480SOL    HW123339   3.666   5.911   2.655
 7480SOL    HW223340   3.703   5.778   2.569
 7481SOL     OW23341   6.893   3.470   5.847
 7481SOL    HW123342   6.855   3.562   5.841
 7481SOL    HW223343   6.993   3.476   5.853
 7482SOL     OW23344   4.945   2.279   4.203
 7482SOL    HW123345   4.865   2.297   4.146
 7482SOL    HW223346   5.019   2.242   4.146
 7483SOL     OW23347   4.944   1.512   6.309
 7483SOL    HW123348   4.947   1.611   6.297
 7483SOL    HW223349   5.037   1.475   6.300
 7484SOL     OW23350   2.650   0.659   4.244
 7484SOL    HW123351   2.697   0.650   4.332
 7484SOL    HW223352   2.556   0.690   4.259
 7485SOL     OW23353   4.133   0.461   6.813
 7485SOL    HW123354   4.081   0.516   6.747
 7485SOL    HW223355   4.069   0.408   6.869
 7486SOL     OW23356   4.300   6.884   0.799
 7486SOL    HW123357   4.328   6.979   0.814
 7486SOL    HW223358   4.343   6.825   0.867
 7487SOL     OW23359   3.154   6.248   4.106
 7487SOL    HW123360   3.089   6.256   4.031
 7487SOL    HW223361   3.246   6.232   4.069
 7488SOL     OW23362   1.169   5.823   4.029
 7488SOL    HW123363   1.113   5.741   4.042
 7488SOL    HW223364   1.160   5.882   4.110
 7489SOL     OW23365   5.254   2.813   6.658
 7489SOL    HW123366   5.308   2.741   6.703
 7489SOL    HW223367   5.240   2.889   6.723
 7490SOL     OW23368   1.848   3.151   1.960
 7490SOL    HW123369   1.765   3.095   1.960
 7490SOL    HW223370   1.918   3.108   2.017
 7491SOL     OW23371   4.349   4.164   0.204
 7491SOL    HW123372   4.309   4.109   0.277
 7491SOL    HW223373   4.284   4.172   0.128
 7492SOL     OW23374   1.642   0.604   4.003
 7492SOL    HW123375   1.574   0.543   3.964
 7492SOL    HW223376   1.598   0.669   4.065
 7493SOL     OW23377   6.399   4.970   4.639
 7493SOL    HW123378   6.328   5.036   4.663
 7493SOL    HW223379   6.368   4.916   4.561
 7494SOL     OW23380   5.962   1.456   2.235
 7494SOL    HW123381   6.047   1.506   2.215
 7494SOL    HW223382   5.958   1.434   2.333
 7495SOL     OW23383   1.165   3.062   4.896
 7495SOL    HW123384   1.217   2.981   4.867
 7495SOL    HW223385   1.068   3.044   4.885
 7496SOL     OW23386   6.180   3.848   2.375
 7496SOL    HW123387   6.082   3.865   2.360
 7496SOL    HW223388   6.192   3.785   2.451
 7497SOL     OW23389   6.327   0.070   1.452
 7497SOL    HW123390   6.266   0.034   1.381
 7497SOL    HW223391   6.413   0.018   1.450
 7498SOL     OW23392   2.708   6.532   3.881
 7498SOL    HW123393   2.641   6.530   3.955
 7498SOL    HW223394   2.707   6.622   3.837
 7499SOL     OW23395   3.001   1.554   3.336
 7499SOL    HW123396   2.948   1.491   3.392
 7499SOL    HW223397   2.975   1.544   3.240
 7500SOL     OW23398   3.988   0.964   4.114
 7500SOL    HW123399   3.952   0.996   4.201
 7500SOL    HW223400   3.913   0.951   4.049
 7501SOL     OW23401   6.481   2.063   4.052
 7501SOL    HW123402   6.487   1.967   4.079
 7501SOL    HW223403   6.538   2.118   4.113
 7502SOL     OW23404   4.261   1.119   3.717
 7502SOL    HW123405   4.191   1.049   3.728
 7502SOL    HW223406   4.234   1.183   3.646
 7503SOL     OW23407   1.307   6.046   1.260
 7503SOL    HW123408   1.379   6.110   1.287
 7503SOL    HW223409   1.241   6.036   1.335
 7504SOL     OW23410   5.825   6.408   4.649
 7504SOL    HW123411   5.822   6.508   4.657
 7504SOL    HW223412   5.903   6.373   4.701
 7505SOL     OW23413   1.030   6.552   5.675
 7505SOL    HW123414   0.994   6.476   5.621
 7505SOL    HW223415   0.969   6.569   5.753
 7506SOL     OW23416   3.358   2.089   4.374
 7506SOL    HW123417   3.353   2.145   4.457
 7506SOL    HW223418   3.443   2.109   4.326
 7507SOL     OW23419   6.546   4.001   6.024
 7507SOL    HW123420   6.629   3.945   6.031
 7507SOL    HW223421   6.470   3.943   5.993
 7508SOL     OW23422   3.045   6.685   0.651
 7508SOL    HW123423   3.001   6.724   0.570
 7508SOL    HW223424   3.052   6.586   0.640
 7509SOL     OW23425   6.141   4.534   2.032
 7509SOL    HW123426   6.121   4.608   1.968
 7509SOL    HW223427   6.078   4.540   2.111
 7510SOL     OW23428   3.360   4.251   1.743
 7510SOL    HW123429   3.289   4.296   1.690
 7510SOL    HW223430   3.330   4.243   1.839
 7511SOL     OW23431   4.518   6.167   3.870
 7511SOL    HW123432   4.552   6.092   3.813
 7511SOL    HW223433   4.517   6.139   3.966
 7512SOL     OW23434   4.305   0.302   1.069
 7512SOL    HW123435   4.281   0.259   1.156
 7512SOL    HW223436   4.315   0.401   1.083
 7513SOL     OW23437   1.057   0.902   2.116
 7513SOL    HW123438   1.076   0.995   2.147
 7513SOL    HW223439   1.122   0.878   2.043
 7514SOL     OW23440   0.522   6.829   0.818
 7514SOL    HW123441   0.613   6.870   0.811
 7514SOL    HW223442   0.477   6.864   0.900
 7515SOL     OW23443   0.528   4.807   5.270
 7515SOL    HW123444   0.578   4.823   5.184
 7515SOL    HW223445   0.561   4.871   5.339
 7516SOL     OW23446   2.202   6.489   5.020
 7516SOL    HW123447   2.204   6.389   5.022
 7516SOL    HW223448   2.276   6.524   5.078
 7517SOL     OW23449   0.530   2.250   6.482
 7517SOL    HW123450   0.433   2.275   6.488
 7517SOL    HW223451   0.586   2.325   6.520
 7518SOL     OW23452   3.873   2.125   4.543
 7518SOL    HW123453   3.954   2.081   4.583
 7518SOL    HW223454   3.892   2.149   4.448
 7519SOL     OW23455   3.532   6.722   4.484
 7519SOL    HW123456   3.614   6.725   4.428
 7519SOL    HW223457   3.553   6.760   4.575
 7520SOL     OW23458   1.770   1.165   0.739
 7520SOL    HW123459   1.778   1.260   0.768
 7520SOL    HW223460   1.760   1.162   0.639
 7521SOL     OW23461   4.500   1.331   5.177
 7521SOL    HW123462   4.418   1.353   5.125
 7521SOL    HW223463   4.494   1.372   5.268
 7522SOL     OW23464   1.679   6.498   4.209
 7522SOL    HW123465   1.744   6.457   4.273
 7522SOL    HW223466   1.641   6.427   4.150
 7523SOL     OW23467   5.879   1.401   0.701
 7523SOL    HW123468   5.826   1.485   0.704
 7523SOL    HW223469   5.964   1.417   0.652
 7524SOL     OW23470   0.425   3.380   5.332
 7524SOL    HW123471   0.467   3.469   5.350
 7524SOL    HW223472   0.492   3.308   5.346
 7525SOL     OW23473   2.554   5.059   5.647
 7525SOL    HW123474   2.467   5.096   5.681
 7525SOL    HW223475   2.622   5.062   5.721
 7526SOL     OW23476   1.863   4.238   0.997
 7526SOL    HW123477   1.920   4.321   0.997
 7526SOL    HW223478   1.783   4.252   0.939
 7527SOL     OW23479   2.681   5.004   2.845
 7527SOL    HW123480   2.726   5.022   2.758
 7527SOL    HW223481   2.744   4.957   2.906
 7528SOL     OW23482   6.076   2.608   6.299
 7528SOL    HW123483   5.995   2.585   6.244
 7528SOL    HW223484   6.097   2.705   6.287
 7529SOL     OW23485   5.522   3.337   4.589
 7529SOL    HW123486   5.465   3.404   4.638
 7529SOL    HW223487   5.588   3.386   4.532
 7530SOL     OW23488   1.238   2.658   3.119
 7530SOL    HW123489   1.268   2.645   3.025
 7530SOL    HW223490   1.207   2.752   3.132
 7531SOL     OW23491   3.879   1.865   3.835
 7531SOL    HW123492   3.886   1.891   3.738
 7531SOL    HW223493   3.785   1.842   3.856
 7532SOL     OW23494   5.029   5.496   6.646
 7532SOL    HW123495   5.095   5.567   6.672
 7532SOL    HW223496   4.967   5.532   6.576
 7533SOL     OW23497   4.573   4.536   1.935
 7533SOL    HW123498   4.648   4.567   1.994
 7533SOL    HW223499   4.580   4.437   1.922
 7534SOL     OW23500   4.390   5.821   5.095
 7534SOL    HW123501   4.350   5.729   5.096
 7534SOL    HW223502   4.490   5.814   5.094
 7535SOL     OW23503   0.240   6.834   4.301
 7535SOL    HW123504   0.245   6.744   4.258
 7535SOL    HW223505   0.271   6.904   4.237
 7536SOL     OW23506   6.742   6.044   3.416
 7536SOL    HW123507   6.689   6.124   3.388
 7536SOL    HW223508   6.829   6.043   3.368
 7537SOL     OW23509   1.808   0.144   2.888
 7537SOL    HW123510   1.804   0.053   2.845
 7537SOL    HW223511   1.772   0.212   2.824
 7538SOL     OW23512   0.269   4.925   0.183
 7538SOL    HW123513   0.278   4.848   0.120
 7538SOL    HW223514   0.314   5.005   0.145
 7539SOL     OW23515   6.470   0.409   3.955
 7539SOL    HW123516   6.455   0.493   3.902
 7539SOL    HW223517   6.476   0.432   4.052
 7540SOL     OW23518   5.164   4.238   2.870
 7540SOL    HW123519   5.181   4.336   2.861
 7540SOL    HW223520   5.067   4.223   2.891
 7541SOL     OW23521   2.630   4.060   6.444
 7541SOL    HW123522   2.600   4.155   6.456
 7541SOL    HW223523   2.631   4.037   6.347
 7542SOL     OW23524   6.118   5.955   4.841
 7542SOL    HW123525   6.127   5.993   4.933
 7542SOL    HW223526   6.085   5.861   4.847
 7543SOL     OW23527   2.278   1.043   0.559
 7543SOL    HW123528   2.275   0.972   0.489
 7543SOL    HW223529   2.331   1.012   0.637
 7544SOL     OW23530   5.891   1.297   4.452
 7544SOL    HW123531   5.931   1.386   4.431
 7544SOL    HW223532   5.874   1.246   4.368
 7545SOL     OW23533   1.417   5.607   5.233
 7545SOL    HW123534   1.471   5.601   5.149
 7545SOL    HW223535   1.433   5.526   5.289
 7546SOL     OW23536   2.376   2.690   1.898
 7546SOL    HW123537   2.394   2.773   1.846
 7546SOL    HW223538   2.463   2.647   1.922
 7547SOL     OW23539   4.022   0.071   1.850
 7547SOL    HW123540   4.054   6.997   1.883
 7547SOL    HW223541   3.938   0.059   1.797
 7548SOL     OW23542   2.692   2.137   6.555
 7548SOL    HW123543   2.676   2.176   6.465
 7548SOL    HW223544   2.750   2.199   6.608
 7549SOL     OW23545   5.118   0.891   4.555
 7549SOL    HW123546   5.167   0.803   4.560
 7549SOL    HW223547   5.170   0.961   4.604
 7550SOL     OW23548   2.610   6.100   4.416
 7550SOL    HW123549   2.589   6.142   4.505
 7550SOL    HW223550   2.548   6.023   4.401
 7551SOL     OW23551   6.311   3.243   6.504
 7551SOL    HW123552   6.328   3.279   6.412
 7551SOL    HW223553   6.317   3.143   6.502
 7552SOL     OW23554   2.473   6.153   4.659
 7552SOL    HW123555   2.411   6.078   4.679
 7552SOL    HW223556   2.478   6.215   4.737
 7553SOL     OW23557   6.349   6.658   5.956
 7553SOL    HW123558   6.396   6.578   5.917
 7553SOL    HW223559   6.408   6.738   5.949
 7554SOL     OW23560   4.790   1.704   1.224
 7554SOL    HW123561   4.851   1.779   1.249
 7554SOL    HW223562   4.711   1.704   1.285
 7555SOL     OW23563   4.379   5.137   4.136
 7555SOL    HW123564   4.357   5.230   4.105
 7555SOL    HW223565   4.310   5.107   4.203
 7556SOL     OW23566   1.343   5.891   1.045
 7556SOL    HW123567   1.433   5.849   1.058
 7556SOL    HW223568   1.314   5.935   1.130
 7557SOL     OW23569   4.515   6.230   1.235
 7557SOL    HW123570   4.416   6.243   1.226
 7557SOL    HW223571   4.545   6.157   1.174
 7558SOL     OW23572   0.423   1.938   3.683
 7558SOL    HW123573   0.368   1.938   3.600
 7558SOL    HW223574   0.469   1.850   3.693
 7559SOL     OW23575   3.049   0.693   5.105
 7559SOL    HW123576   3.039   0.709   5.203
 7559SOL    HW223577   3.076   0.777   5.059
 7560SOL     OW23578   1.075   1.117   5.754
 7560SOL    HW123579   1.038   1.075   5.671
 7560SOL    HW223580   1.067   1.217   5.746
 7561SOL     OW23581   5.175   1.261   5.112
 7561SOL    HW123582   5.273   1.279   5.126
 7561SOL    HW223583   5.162   1.164   5.093
 7562SOL     OW23584   2.472   5.489   3.554
 7562SOL    HW123585   2.542   5.439   3.606
 7562SOL    HW223586   2.466   5.583   3.587
 7563SOL     OW23587   2.727   6.238   3.275
 7563SOL    HW123588   2.789   6.303   3.320
 7563SOL    HW223589   2.767   6.207   3.189
 7564SOL     OW23590   4.617   2.414   5.512
 7564SOL    HW123591   4.623   2.383   5.417
 7564SOL    HW223592   4.639   2.512   5.517
 7565SOL     OW23593   6.394   2.938   5.516
 7565SOL    HW123594   6.493   2.937   5.505
 7565SOL    HW223595   6.351   2.951   5.426
 7566SOL     OW23596   5.100   5.143   1.716
 7566SOL    HW123597   5.095   5.142   1.816
 7566SOL    HW223598   5.036   5.075   1.679
 7567SOL     OW23599   1.521   0.219   4.074
 7567SOL    HW123600   1.571   0.297   4.037
 7567SOL    HW223601   1.466   0.177   4.002
 7568SOL     OW23602   6.349   4.353   1.406
 7568SOL    HW123603   6.342   4.314   1.314
 7568SOL    HW223604   6.432   4.321   1.451
 7569SOL     OW23605   4.563   3.476   0.743
 7569SOL    HW123606   4.634   3.430   0.795
 7569SOL    HW223607   4.491   3.508   0.805
 7570SOL     OW23608   0.812   2.860   2.166
 7570SOL    HW123609   0.778   2.909   2.086
 7570SOL    HW223610   0.775   2.766   2.165
 7571SOL     OW23611   4.805   1.492   2.865
 7571SOL    HW123612   4.787   1.575   2.812
 7571SOL    HW223613   4.732   1.478   2.931
 7572SOL     OW23614   4.720   6.643   3.449
 7572SOL    HW123615   4.702   6.689   3.362
 7572SOL    HW223616   4.722   6.710   3.523
 7573SOL     OW23617   4.591   6.350   6.518
 7573SOL    HW123618   4.549   6.412   6.452
 7573SOL    HW223619   4.687   6.376   6.532
 7574SOL     OW23620   0.515   2.670   4.066
 7574SOL    HW123621   0.478   2.759   4.042
 7574SOL    HW223622   0.558   2.630   3.985
 7575SOL     OW23623   0.053   6.685   1.259
 7575SOL    HW123624   6.970   6.704   1.259
 7575SOL    HW223625   0.103   6.769   1.282
 7576SOL     OW23626   4.430   2.739   6.845
 7576SOL    HW123627   4.347   2.792   6.863
 7576SOL    HW223628   4.452   2.745   6.748
 7577SOL     OW23629   0.289   0.426   6.271
 7577SOL    HW123630   0.373   0.463   6.311
 7577SOL    HW223631   0.239   0.375   6.341
 7578SOL     OW23632   6.339   6.218   3.034
 7578SOL    HW123633   6.406   6.146   3.014
 7578SOL    HW223634   6.262   6.178   3.084
 7579SOL     OW23635   0.800   1.334   6.903
 7579SOL    HW123636   0.801   1.236   6.923
 7579SOL    HW223637   0.830   1.349   6.809
 7580SOL     OW23638   1.849   5.285   3.011
 7580SOL    HW123639   1.840   5.251   3.104
 7580SOL    HW223640   1.867   5.384   3.013
 7581SOL     OW23641   0.391   6.968   1.010
 7581SOL    HW123642   0.354   0.041   1.041
 7581SOL    HW223643   0.315   6.907   0.986
 7582SOL     OW23644   2.276   1.434   6.357
 7582SOL    HW123645   2.266   1.526   6.320
 7582SOL    HW223646   2.371   1.418   6.383
 7583SOL     OW23647   5.583   3.592   2.030
 7583SOL    HW123648   5.538   3.520   2.083
 7583SOL    HW223649   5.660   3.629   2.083
 7584SOL     OW23650   0.639   1.048   3.429
 7584SOL    HW123651   0.699   1.004   3.363
 7584SOL    HW223652   0.613   0.983   3.500
 7585SOL     OW23653   0.933   1.534   5.613
 7585SOL    HW123654   0.950   1.439   5.588
 7585SOL    HW223655   0.980   1.594   5.547
 7586SOL     OW23656   1.713   6.397   3.530
 7586SOL    HW123657   1.728   6.495   3.517
 7586SOL    HW223658   1.706   6.378   3.628
 7587SOL     OW23659   4.925   0.265   1.579
 7587SOL    HW123660   4.941   0.359   1.610
 7587SOL    HW223661   5.012   0.223   1.552
 7588SOL     OW23662   1.885   3.434   4.722
 7588SOL    HW123663   1.823   3.403   4.794
 7588SOL    HW223664   1.958   3.489   4.762
 7589SOL     OW23665   6.761   0.496   2.255
 7589SOL    HW123666   6.814   0.569   2.299
 7589SOL    HW223667   6.804   0.471   2.168
 7590SOL     OW23668   6.147   1.195   0.859
 7590SOL    HW123669   6.088   1.117   0.835
 7590SOL    HW223670   6.119   1.231   0.948
 7591SOL     OW23671   3.020   3.900   4.673
 7591SOL    HW123672   3.015   3.935   4.579
 7591SOL    HW223673   3.076   3.962   4.728
 7592SOL     OW23674   0.476   6.400   3.931
 7592SOL    HW123675   0.453   6.496   3.916
 7592SOL    HW223676   0.456   6.376   4.026
 7593SOL     OW23677   6.782   1.012   6.327
 7593SOL    HW123678   6.872   0.991   6.288
 7593SOL    HW223679   6.789   1.093   6.385
 7594SOL     OW23680   6.590   3.563   5.549
 7594SOL    HW123681   6.642   3.603   5.473
 7594SOL    HW223682   6.510   3.515   5.513
 7595SOL     OW23683   0.285   3.431   6.611
 7595SOL    HW123684   0.321   3.493   6.541
 7595SOL    HW223685   0.187   3.445   6.622
 7596SOL     OW23686   2.340   1.596   0.627
 7596SOL    HW123687   2.257   1.572   0.678
 7596SOL    HW223688   2.420   1.562   0.677
 7597SOL     OW23689   2.283   4.377   1.028
 7597SOL    HW123690   2.328   4.456   0.986
 7597SOL    HW223691   2.239   4.322   0.957
 7598SOL     OW23692   5.446   0.884   2.294
 7598SOL    HW123693   5.501   0.965   2.315
 7598SOL    HW223694   5.401   0.851   2.377
 7599SOL     OW23695   3.185   3.475   0.456
 7599SOL    HW123696   3.261   3.502   0.515
 7599SOL    HW223697   3.114   3.430   0.510
 7600SOL     OW23698   0.931   0.008   3.991
 7600SOL    HW123699   1.013   6.966   3.986
 7600SOL    HW223700   0.870   6.988   4.062
 7601SOL     OW23701   3.142   6.766   1.365
 7601SOL    HW123702   3.064   6.827   1.377
 7601SOL    HW223703   3.208   6.808   1.304
 7602SOL     OW23704   0.800   1.766   1.240
 7602SOL    HW123705   0.888   1.721   1.257
 7602SOL    HW223706   0.768   1.744   1.148
 7603SOL     OW23707   4.622   0.986   6.349
 7603SOL    HW123708   4.668   1.016   6.265
 7603SOL    HW223709   4.612   0.887   6.347
 7604SOL     OW23710   2.214   2.576   5.358
 7604SOL    HW123711   2.288   2.534   5.306
 7604SOL    HW223712   2.249   2.610   5.446
 7605SOL     OW23713   3.053   5.918   6.904
 7605SOL    HW123714   3.043   5.835   6.959
 7605SOL    HW223715   3.105   5.986   6.955
 7606SOL     OW23716   6.817   0.847   3.246
 7606SOL    HW123717   6.782   0.841   3.152
 7606SOL    HW223718   6.744   0.826   3.310
 7607SOL     OW23719   1.779   5.754   5.650
 7607SOL    HW123720   1.687   5.791   5.640
 7607SOL    HW223721   1.796   5.690   5.575
 7608SOL     OW23722   0.090   1.865   6.489
 7608SOL    HW123723   0.135   1.888   6.402
 7608SOL    HW223724   0.111   1.770   6.513
 7609SOL     OW23725   3.693   0.714   4.841
 7609SOL    HW123726   3.754   0.659   4.898
 7609SOL    HW223727   3.681   0.804   4.882
 7610SOL     OW23728   4.365   5.133   4.488
 7610SOL    HW123729   4.350   5.077   4.407
 7610SOL    HW223730   4.458   5.170   4.485
 7611SOL     OW23731   4.446   2.207   0.061
 7611SOL    HW123732   4.485   2.220   6.985
 7611SOL    HW223733   4.363   2.261   0.071
 7612SOL     OW23734   4.255   2.332   2.830
 7612SOL    HW123735   4.175   2.369   2.878
 7612SOL    HW223736   4.227   2.299   2.740
 7613SOL     OW23737   0.679   0.706   6.889
 7613SOL    HW123738   0.775   0.727   6.908
 7613SOL    HW223739   0.654   0.621   6.935
 7614SOL     OW23740   5.771   4.565   0.243
 7614SOL    HW123741   5.810   4.482   0.284
 7614SOL    HW223742   5.739   4.626   0.316
 7615SOL     OW23743   5.994   3.183   6.151
 7615SOL    HW123744   5.971   3.182   6.248
 7615SOL    HW223745   6.090   3.160   6.139
 7616SOL     OW23746   6.842   6.322   2.317
 7616SOL    HW123747   6.890   6.409   2.323
 7616SOL    HW223748   6.754   6.335   2.271
 7617SOL     OW23749   6.161   3.952   2.849
 7617SOL    HW123750   6.089   3.947   2.780
 7617SOL    HW223751   6.167   4.045   2.884
 7618SOL     OW23752   2.380   2.121   6.949
 7618SOL    HW123753   2.476   2.093   6.943
 7618SOL    HW223754   2.347   2.145   6.858
 7619SOL     OW23755   0.901   0.665   5.093
 7619SOL    HW123756   0.856   0.669   5.004
 7619SOL    HW223757   0.991   0.707   5.086
 7620SOL     OW23758   3.098   3.538   0.181
 7620SOL    HW123759   3.074   3.635   0.187
 7620SOL    HW223760   3.130   3.506   0.270
 7621SOL     OW23761   6.344   5.317   0.173
 7621SOL    HW123762   6.391   5.249   0.229
 7621SOL    HW223763   6.410   5.387   0.144
 7622SOL     OW23764   3.206   3.439   1.774
 7622SOL    HW123765   3.165   3.509   1.715
 7622SOL    HW223766   3.269   3.482   1.838
 7623SOL     OW23767   5.244   4.733   2.132
 7623SOL    HW123768   5.206   4.655   2.183
 7623SOL    HW223769   5.275   4.803   2.197
 7624SOL     OW23770   0.734   3.074   2.576
 7624SOL    HW123771   0.799   3.144   2.604
 7624SOL    HW223772   0.728   3.003   2.647
 7625SOL     OW23773   5.287   6.982   1.778
 7625SOL    HW123774   5.203   6.932   1.797
 7625SOL    HW223775   5.360   6.947   1.836
 7626SOL     OW23776   4.400   0.103   0.378
 7626SOL    HW123777   4.411   0.015   0.425
 7626SOL    HW223778   4.472   0.166   0.407
 7627SOL     OW23779   4.372   2.342   5.978
 7627SOL    HW123780   4.447   2.348   5.912
 7627SOL    HW223781   4.362   2.247   6.008
 7628SOL     OW23782   2.906   3.003   0.716
 7628SOL    HW123783   2.995   2.959   0.718
 7628SOL    HW223784   2.911   3.091   0.764
 7629SOL     OW23785   5.918   2.788   3.431
 7629SOL    HW123786   5.935   2.712   3.368
 7629SOL    HW223787   5.837   2.768   3.487
 7630SOL     OW23788   0.970   6.119   3.834
 7630SOL    HW123789   1.041   6.154   3.773
 7630SOL    HW223790   0.936   6.192   3.892
 7631SOL     OW23791   1.423   1.273   5.869
 7631SOL    HW123792   1.432   1.292   5.772
 7631SOL    HW223793   1.425   1.174   5.885
 7632SOL     OW23794   4.010   5.770   1.287
 7632SOL    HW123795   3.996   5.704   1.213
 7632SOL    HW223796   4.035   5.722   1.371
 7633SOL     OW23797   5.266   0.960   1.403
 7633SOL    HW123798   5.353   0.917   1.426
 7633SOL    HW223799   5.275   1.014   1.320
 7634SOL     OW23800   0.364   1.821   6.744
 7634SOL    HW123801   0.366   1.727   6.711
 7634SOL    HW223802   0.434   1.875   6.697
 7635SOL     OW23803   1.242   3.300   5.883
 7635SOL    HW123804   1.295   3.383   5.869
 7635SOL    HW223805   1.294   3.221   5.849
 7636SOL     OW23806   6.687   3.333   3.818
 7636SOL    HW123807   6.744   3.374   3.747
 7636SOL    HW223808   6.744   3.310   3.897
 7637SOL     OW23809   0.971   4.007   5.129
 7637SOL    HW123810   0.879   3.974   5.109
 7637SOL    HW223811   0.970   4.107   5.131
 7638SOL     OW23812   0.658   6.348   1.041
 7638SOL    HW123813   0.590   6.285   1.077
 7638SOL    HW223814   0.709   6.304   0.967
 7639SOL     OW23815   2.280   6.614   0.412
 7639SOL    HW123816   2.194   6.597   0.364
 7639SOL    HW223817   2.283   6.710   0.442
 7640SOL     OW23818   3.251   0.794   1.040
 7640SOL    HW123819   3.231   0.747   1.126
 7640SOL    HW223820   3.166   0.831   1.002
 7641SOL     OW23821   6.800   5.056   4.870
 7641SOL    HW123822   6.711   5.010   4.869
 7641SOL    HW223823   6.816   5.095   4.961
 7642SOL     OW23824   5.782   0.942   3.697
 7642SOL    HW123825   5.867   0.937   3.645
 7642SOL    HW223826   5.798   0.909   3.791
 7643SOL     OW23827   5.449   2.847   4.863
 7643SOL    HW123828   5.466   2.845   4.962
 7643SOL    HW223829   5.514   2.788   4.817
 7644SOL     OW23830   5.327   4.394   0.685
 7644SOL    HW123831   5.364   4.363   0.773
 7644SOL    HW223832   5.357   4.488   0.668
 7645SOL     OW23833   4.600   4.992   6.864
 7645SOL    HW123834   4.675   5.051   6.835
 7645SOL    HW223835   4.605   4.905   6.816
 7646SOL     OW23836   6.688   2.088   1.652
 7646SOL    HW123837   6.668   2.131   1.740
 7646SOL    HW223838   6.786   2.092   1.635
 7647SOL     OW23839   6.584   1.840   4.221
 7647SOL    HW123840   6.566   1.742   4.211
 7647SOL    HW223841   6.681   1.855   4.240
 7648SOL     OW23842   1.662   2.065   0.934
 7648SOL    HW123843   1.601   2.110   0.868
 7648SOL    HW223844   1.756   2.095   0.919
 7649SOL     OW23845   4.067   0.413   0.359
 7649SOL    HW123846   4.167   0.423   0.351
 7649SOL    HW223847   4.027   0.502   0.382
 7650SOL     OW23848   3.509   2.367   0.294
 7650SOL    HW123849   3.505   2.460   0.256
 7650SOL    HW223850   3.446   2.308   0.245
 7651SOL     OW23851   3.660   5.560   6.342
 7651SOL    HW123852   3.693   5.652   6.367
 7651SOL    HW223853   3.570   5.567   6.300
 7652SOL     OW23854   0.282   0.843   5.323
 7652SOL    HW123855   0.280   0.859   5.224
 7652SOL    HW223856   0.216   0.771   5.347
 7653SOL     OW23857   2.122   6.571   6.852
 7653SOL    HW123858   2.120   6.503   6.926
 7653SOL    HW223859   2.100   6.526   6.766
 7654SOL     OW23860   6.783   2.250   5.500
 7654SOL    HW123861   6.781   2.347   5.476
 7654SOL    HW223862   6.858   2.233   5.564
 7655SOL     OW23863   3.694   1.824   4.981
 7655SOL    HW123864   3.666   1.896   4.917
 7655SOL    HW223865   3.620   1.803   5.043
 7656SOL     OW23866   5.984   4.093   6.524
 7656SOL    HW123867   6.057   4.162   6.529
 7656SOL    HW223868   5.984   4.039   6.608
 7657SOL     OW23869   0.934   3.639   4.817
 7657SOL    HW123870   0.952   3.582   4.738
 7657SOL    HW223871   1.020   3.664   4.861
 7658SOL     OW23872   2.744   0.929   1.524
 7658SOL    HW123873   2.651   0.945   1.557
 7658SOL    HW223874   2.743   0.856   1.456
 7659SOL     OW23875   5.105   5.056   5.941
 7659SOL    HW123876   5.178   5.092   5.999
 7659SOL    HW223877   5.118   4.958   5.928
 7660SOL     OW23878   6.633   6.239   5.656
 7660SOL    HW123879   6.584   6.325   5.665
 7660SOL    HW223880   6.577   6.165   5.696
 7661SOL     OW23881   2.754   1.002   5.420
 7661SOL    HW123882   2.718   0.921   5.466
 7661SOL    HW223883   2.852   1.012   5.441
 7662SOL     OW23884   0.256   6.208   1.102
 7662SOL    HW123885   0.276   6.296   1.145
 7662SOL    HW223886   0.184   6.162   1.154
 7663SOL     OW23887   1.087   5.857   4.443
 7663SOL    HW123888   0.989   5.843   4.461
 7663SOL    HW223889   1.137   5.772   4.462
 7664SOL     OW23890   5.322   2.322   2.405
 7664SOL    HW123891   5.244   2.259   2.406
 7664SOL    HW223892   5.379   2.305   2.485
 7665SOL     OW23893   3.083   0.883   5.473
 7665SOL    HW123894   3.014   0.817   5.445
 7665SOL    HW223895   3.087   0.887   5.573
 7666SOL     OW23896   5.779   5.552   3.930
 7666SOL    HW123897   5.828   5.511   3.854
 7666SOL    HW223898   5.785   5.493   4.010
 7667SOL     OW23899   4.219   5.606   2.011
 7667SOL    HW123900   4.177   5.584   2.099
 7667SOL    HW223901   4.167   5.680   1.967
 7668SOL     OW23902   1.723   5.517   6.985
 7668SOL    HW123903   1.687   5.601   6.946
 7668SOL    HW223904   1.820   5.507   6.961
 7669SOL     OW23905   2.666   1.483   6.865
 7669SOL    HW123906   2.619   1.510   6.782
 7669SOL    HW223907   2.611   1.415   6.914
 7670SOL     OW23908   1.034   0.282   0.841
 7670SOL    HW123909   1.115   0.224   0.825
 7670SOL    HW223910   1.003   0.270   0.935
 7671SOL     OW23911   3.182   0.132   1.557
 7671SOL    HW123912   3.119   0.055   1.549
 7671SOL    HW223913   3.260   0.118   1.496
 7672SOL     OW23914   5.404   3.384   2.063
 7672SOL    HW123915   5.452   3.308   2.108
 7672SOL    HW223916   5.315   3.397   2.106
 7673SOL     OW23917   2.161   6.654   4.759
 7673SOL    HW123918   2.081   6.602   4.729
 7673SOL    HW223919   2.186   6.625   4.851
 7674SOL     OW23920   3.680   5.730   3.880
 7674SOL    HW123921   3.653   5.815   3.925
 7674SOL    HW223922   3.629   5.719   3.796
 7675SOL     OW23923   4.025   6.287   3.020
 7675SOL    HW123924   4.112   6.299   3.069
 7675SOL    HW223925   3.950   6.289   3.085
 7676SOL     OW23926   2.876   3.162   5.155
 7676SOL    HW123927   2.848   3.159   5.059
 7676SOL    HW223928   2.797   3.144   5.214
 7677SOL     OW23929   0.226   5.678   6.767
 7677SOL    HW123930   0.268   5.769   6.767
 7677SOL    HW223931   0.171   5.667   6.685
 7678SOL     OW23932   3.892   1.183   6.145
 7678SOL    HW123933   3.877   1.216   6.052
 7678SOL    HW223934   3.807   1.143   6.180
 7679SOL     OW23935   2.848   4.763   4.029
 7679SOL    HW123936   2.883   4.850   4.062
 7679SOL    HW223937   2.870   4.691   4.095
 7680SOL     OW23938   1.933   6.703   4.387
 7680SOL    HW123939   2.020   6.655   4.390
 7680SOL    HW223940   1.859   6.638   4.407
 7681SOL     OW23941   1.849   2.216   5.747
 7681SOL    HW123942   1.777   2.213   5.816
 7681SOL    HW223943   1.900   2.130   5.749
 7682SOL     OW23944   2.981   0.405   2.154
 7682SOL    HW123945   3.021   0.340   2.089
 7682SOL    HW223946   3.051   0.472   2.181
 7683SOL     OW23947   0.269   4.528   4.547
 7683SOL    HW123948   0.305   4.440   4.518
 7683SOL    HW223949   0.173   4.536   4.518
 7684SOL     OW23950   4.853   3.574   1.794
 7684SOL    HW123951   4.763   3.570   1.751
 7684SOL    HW223952   4.885   3.482   1.815
 7685SOL     OW23953   2.726   0.480   6.970
 7685SOL    HW123954   2.762   0.439   0.039
 7685SOL    HW223955   2.630   0.457   6.961
 7686SOL     OW23956   6.959   0.264   3.572
 7686SOL    HW123957   6.973   0.292   3.667
 7686SOL    HW223958   0.031   0.237   3.531
 7687SOL     OW23959   5.224   3.284   5.961
 7687SOL    HW123960   5.224   3.347   5.883
 7687SOL    HW223961   5.313   3.238   5.966
 7688SOL     OW23962   6.180   2.988   0.032
 7688SOL    HW123963   6.098   2.941   0.065
 7688SOL    HW223964   6.245   2.922   7.011
 7689SOL     OW23965   5.857   0.219   2.427
 7689SOL    HW123966   5.827   0.307   2.462
 7689SOL    HW223967   5.892   0.230   2.334
 7690SOL     OW23968   5.667   4.296   2.183
 7690SOL    HW123969   5.686   4.279   2.086
 7690SOL    HW223970   5.691   4.390   2.206
 7691SOL     OW23971   5.405   2.601   3.636
 7691SOL    HW123972   5.351   2.632   3.557
 7691SOL    HW223973   5.366   2.516   3.672
 7692SOL     OW23974   2.280   6.981   2.247
 7692SOL    HW123975   2.372   0.004   2.245
 7692SOL    HW223976   2.232   7.005   2.162
 7693SOL     OW23977   2.789   1.884   1.255
 7693SOL    HW123978   2.806   1.982   1.266
 7693SOL    HW223979   2.868   1.841   1.212
 7694SOL     OW23980   4.095   2.543   0.668
 7694SOL    HW123981   4.026   2.598   0.716
 7694SOL    HW223982   4.103   2.575   0.574
 7695SOL     OW23983   5.228   6.688   3.677
 7695SOL    HW123984   5.226   6.621   3.603
 7695SOL    HW223985   5.323   6.702   3.707
 7696SOL     OW23986   3.336   2.048   5.553
 7696SOL    HW123987   3.414   2.012   5.605
 7696SOL    HW223988   3.358   2.141   5.522
 7697SOL     OW23989   5.963   6.390   2.725
 7697SOL    HW123990   6.054   6.355   2.747
 7697SOL    HW223991   5.893   6.327   2.759
 7698SOL     OW23992   6.293   2.800   1.110
 7698SOL    HW123993   6.246   2.724   1.065
 7698SOL    HW223994   6.291   2.881   1.051
 7699SOL     OW23995   3.770   6.440   6.051
 7699SOL    HW123996   3.864   6.466   6.068
 7699SOL    HW223997   3.754   6.348   6.086
 7700SOL     OW23998   6.355   5.422   2.017
 7700SOL    HW123999   6.410   5.358   1.963
 7700SOL    HW224000   6.285   5.371   2.068
 7701SOL     OW24001   3.059   1.461   6.583
 7701SOL    HW124002   3.013   1.418   6.660
 7701SOL    HW224003   3.064   1.560   6.599
 7702SOL     OW24004   5.867   6.428   5.517
 7702SOL    HW124005   5.900   6.345   5.474
 7702SOL    HW224006   5.905   6.436   5.609
 7703SOL     OW24007   0.038   6.345   6.055
 7703SOL    HW124008   6.978   6.362   5.992
 7703SOL    HW224009   0.043   6.247   6.075
 7704SOL     OW24010   1.720   1.967   4.975
 7704SOL    HW124011   1.633   1.942   4.933
 7704SOL    HW224012   1.720   1.940   5.071
 7705SOL     OW24013   0.624   4.558   0.394
 7705SOL    HW124014   0.703   4.586   0.341
 7705SOL    HW224015   0.633   4.592   0.488
 7706SOL     OW24016   3.360   3.484   2.569
 7706SOL    HW124017   3.266   3.512   2.556
 7706SOL    HW224018   3.395   3.443   2.485
 7707SOL     OW24019   6.989   4.608   6.343
 7707SOL    HW124020   0.064   4.648   6.327
 7707SOL    HW224021   6.970   4.607   6.441
 7708SOL     OW24022   0.716   0.187   4.293
 7708SOL    HW124023   0.619   0.210   4.286
 7708SOL    HW224024   0.748   0.206   4.386
 7709SOL     OW24025   6.337   4.534   0.966
 7709SOL    HW124026   6.408   4.593   1.005
 7709SOL    HW224027   6.320   4.561   0.871
 7710SOL     OW24028   6.221   2.882   2.386
 7710SOL    HW124029   6.236   2.972   2.426
 7710SOL    HW224030   6.303   2.854   2.336
 7711SOL     OW24031   0.955   4.075   3.401
 7711SOL    HW124032   0.881   4.016   3.434
 7711SOL    HW224033   0.998   4.033   3.321
 7712SOL     OW24034   1.314   4.751   4.390
 7712SOL    HW124035   1.293   4.748   4.487
 7712SOL    HW224036   1.284   4.665   4.347
 7713SOL     OW24037   0.929   5.267   0.654
 7713SOL    HW124038   1.009   5.256   0.713
 7713SOL    HW224039   0.846   5.241   0.704
 7714SOL     OW24040   6.029   1.565   5.058
 7714SOL    HW124041   6.017   1.485   5.117
 7714SOL    HW224042   6.110   1.616   5.087
 7715SOL     OW24043   3.716   3.391   6.859
 7715SOL    HW124044   3.660   3.377   6.777
 7715SOL    HW224045   3.718   3.308   6.914
 7716SOL     OW24046   1.375   0.911   6.662
 7716SOL    HW124047   1.339   0.823   6.692
 7716SOL    HW224048   1.329   0.985   6.712
 7717SOL     OW24049   0.839   1.435   6.032
 7717SOL    HW124050   0.791   1.468   5.951
 7717SOL    HW224051   0.816   1.339   6.048
 7718SOL     OW24052   0.648   3.360   2.828
 7718SOL    HW124053   0.714   3.289   2.852
 7718SOL    HW224054   0.623   3.351   2.732
 7719SOL     OW24055   2.009   6.019   4.996
 7719SOL    HW124056   1.988   5.997   4.901
 7719SOL    HW224057   1.929   6.002   5.053
 7720SOL     OW24058   4.579   1.397   6.793
 7720SOL    HW124059   4.537   1.484   6.767
 7720SOL    HW224060   4.674   1.395   6.762
 7721SOL     OW24061   6.075   6.001   2.142
 7721SOL    HW124062   6.048   6.096   2.155
 7721SOL    HW224063   6.160   5.983   2.191
 7722SOL     OW24064   0.566   5.720   4.456
 7722SOL    HW124065   0.507   5.724   4.376
 7722SOL    HW224066   0.564   5.628   4.495
 7723SOL     OW24067   4.055   4.341   6.697
 7723SOL    HW124068   4.100   4.386   6.774
 7723SOL    HW224069   4.122   4.288   6.645
 7724SOL     OW24070   1.192   3.941   0.247
 7724SOL    HW124071   1.146   3.892   0.322
 7724SOL    HW224072   1.174   3.894   0.161
 7725SOL     OW24073   5.444   3.369   4.957
 7725SOL    HW124074   5.460   3.452   4.904
 7725SOL    HW224075   5.453   3.289   4.899
 7726SOL     OW24076   2.015   3.039   0.005
 7726SOL    HW124077   2.024   3.045   0.104
 7726SOL    HW224078   1.986   2.946   6.995
 7727SOL     OW24079   5.718   0.436   2.535
 7727SOL    HW124080   5.625   0.470   2.521
 7727SOL    HW224081   5.739   0.435   2.633
 7728SOL     OW24082   2.162   3.358   5.041
 7728SOL    HW124083   2.213   3.345   4.956
 7728SOL    HW224084   2.214   3.319   5.117
 7729SOL     OW24085   6.935   1.214   2.872
 7729SOL    HW124086   6.941   1.306   2.912
 7729SOL    HW224087   7.007   1.204   2.802
 7730SOL     OW24088   5.646   4.369   6.018
 7730SOL    HW124089   5.692   4.326   6.096
 7730SOL    HW224090   5.711   4.380   5.943
 7731SOL     OW24091   6.959   0.467   6.139
 7731SOL    HW124092   6.984   0.451   6.235
 7731SOL    HW224093   6.941   0.380   6.094
 7732SOL     OW24094   4.381   0.802   0.157
 7732SOL    HW124095   4.479   0.811   0.178
 7732SOL    HW224096   4.370   0.767   0.064
 7733SOL     OW24097   6.525   5.770   1.071
 7733SOL    HW124098   6.519   5.697   1.004
 7733SOL    HW224099   6.513   5.859   1.025
 7734SOL     OW24100   3.920   3.977   3.024
 7734SOL    HW124101   4.009   3.937   3.003
 7734SOL    HW224102   3.898   3.961   3.120
 7735SOL     OW24103   1.509   5.638   0.714
 7735SOL    HW124104   1.419   5.679   0.727
 7735SOL    HW224105   1.577   5.710   0.699
 7736SOL     OW24106   1.614   1.626   0.936
 7736SOL    HW124107   1.532   1.662   0.892
 7736SOL    HW224108   1.692   1.684   0.912
 7737SOL     OW24109   4.554   4.308   6.544
 7737SOL    HW124110   4.619   4.337   6.614
 7737SOL    HW224111   4.600   4.307   6.455
 7738SOL     OW24112   1.311   1.417   5.521
 7738SOL    HW124113   1.222   1.371   5.510
 7738SOL    HW224114   1.375   1.355   5.566
 7739SOL     OW24115   1.151   2.879   0.242
 7739SOL    HW124116   1.108   2.969   0.235
 7739SOL    HW224117   1.123   2.822   0.164
 7740SOL     OW24118   2.138   1.031   4.288
 7740SOL    HW124119   2.105   1.025   4.382
 7740SOL    HW224120   2.130   1.125   4.255
 7741SOL     OW24121   6.868   3.745   5.838
 7741SOL    HW124122   6.833   3.761   5.931
 7741SOL    HW224123   6.946   3.805   5.821
 7742SOL     OW24124   4.277   2.133   3.896
 7742SOL    HW124125   4.293   2.050   3.842
 7742SOL    HW224126   4.195   2.179   3.862
 7743SOL     OW24127   3.321   1.247   6.578
 7743SOL    HW124128   3.296   1.271   6.672
 7743SOL    HW224129   3.421   1.236   6.572
 7744SOL     OW24130   0.341   6.753   4.897
 7744SOL    HW124131   0.286   6.808   4.834
 7744SOL    HW224132   0.284   6.683   4.939
 7745SOL     OW24133   2.863   6.937   0.825
 7745SOL    HW124134   2.893   6.942   0.729
 7745SOL    HW224135   2.764   6.921   0.828
 7746SOL     OW24136   0.158   6.793   0.937
 7746SOL    HW124137   0.102   6.782   1.019
 7746SOL    HW224138   0.150   6.710   0.880
 7747SOL     OW24139   0.312   6.036   1.560
 7747SOL    HW124140   0.227   6.012   1.513
 7747SOL    HW224141   0.389   5.992   1.514
 7748SOL     OW24142   4.175   0.781   6.103
 7748SOL    HW124143   4.263   0.762   6.148
 7748SOL    HW224144   4.143   0.872   6.128
 7749SOL     OW24145   3.301   3.677   2.878
 7749SOL    HW124146   3.219   3.732   2.894
 7749SOL    HW224147   3.278   3.580   2.886
 7750SOL     OW24148   5.355   5.168   6.055
 7750SOL    HW124149   5.412   5.097   6.097
 7750SOL    HW224150   5.340   5.242   6.120
 7751SOL     OW24151   0.078   0.948   4.767
 7751SOL    HW124152   0.165   0.900   4.773
 7751SOL    HW224153   0.003   0.884   4.784
 7752SOL     OW24154   6.646   4.348   5.193
 7752SOL    HW124155   6.672   4.396   5.109
 7752SOL    HW224156   6.614   4.415   5.261
 7753SOL     OW24157   3.116   0.725   4.580
 7753SOL    HW124158   3.210   0.745   4.608
 7753SOL    HW224159   3.112   0.718   4.480
 7754SOL     OW24160   6.361   0.994   1.405
 7754SOL    HW124161   6.432   0.926   1.426
 7754SOL    HW224162   6.325   0.977   1.313
 7755SOL     OW24163   1.534   6.037   5.201
 7755SOL    HW124164   1.598   6.110   5.179
 7755SOL    HW224165   1.574   5.976   5.269
 7756SOL     OW24166   4.039   5.902   3.102
 7756SOL    HW124167   3.994   5.952   3.028
 7756SOL    HW224168   4.137   5.896   3.083
 7757SOL     OW24169   3.172   0.463   5.807
 7757SOL    HW124170   3.247   0.404   5.836
 7757SOL    HW224171   3.189   0.493   5.713
 7758SOL     OW24172   2.349   2.377   6.202
 7758SOL    HW124173   2.393   2.391   6.113
 7758SOL    HW224174   2.408   2.414   6.274
 7759SOL     OW24175   1.712   0.858   4.627
 7759SOL    HW124176   1.776   0.782   4.633
 7759SOL    HW224177   1.636   0.834   4.566
 7760SOL     OW24178   5.276   1.877   3.122
 7760SOL    HW124179   5.295   1.945   3.193
 7760SOL    HW224180   5.188   1.896   3.079
 7761SOL     OW24181   4.519   1.137   6.880
 7761SOL    HW124182   4.445   1.133   6.947
 7761SOL    HW224183   4.521   1.228   6.838
 7762SOL     OW24184   1.206   2.450   0.585
 7762SOL    HW124185   1.295   2.484   0.556
 7762SOL    HW224186   1.143   2.449   0.507
 7763SOL     OW24187   2.387   2.402   1.253
 7763SOL    HW124188   2.393   2.365   1.346
 7763SOL    HW224189   2.399   2.327   1.188
 7764SOL     OW24190   3.246   3.260   2.027
 7764SOL    HW124191   3.311   3.184   2.036
 7764SOL    HW224192   3.158   3.225   1.996
 7765SOL     OW24193   6.770   1.676   1.966
 7765SOL    HW124194   6.853   1.728   1.983
 7765SOL    HW224195   6.740   1.692   1.871
 7766SOL     OW24196   6.714   2.839   6.669
 7766SOL    HW124197   6.711   2.782   6.751
 7766SOL    HW224198   6.665   2.793   6.595
 7767SOL     OW24199   5.609   4.055   5.215
 7767SOL    HW124200   5.677   4.101   5.158
 7767SOL    HW224201   5.519   4.065   5.172
 7768SOL     OW24202   3.646   5.144   1.693
 7768SOL    HW124203   3.718   5.180   1.751
 7768SOL    HW224204   3.672   5.054   1.658
 7769SOL     OW24205   5.833   2.307   2.775
 7769SOL    HW124206   5.854   2.404   2.789
 7769SOL    HW224207   5.770   2.298   2.697
 7770SOL     OW24208   3.354   5.942   1.028
 7770SOL    HW124209   3.417   5.880   1.074
 7770SOL    HW224210   3.370   6.035   1.060
 7771SOL     OW24211   1.546   1.278   4.360
 7771SOL    HW124212   1.550   1.378   4.358
 7771SOL    HW224213   1.519   1.244   4.270
 7772SOL     OW24214   5.465   0.861   5.363
 7772SOL    HW124215   5.439   0.919   5.440
 7772SOL    HW224216   5.557   0.886   5.332
 7773SOL     OW24217   3.770   4.370   6.362
 7773SOL    HW124218   3.742   4.442   6.424
 7773SOL    HW224219   3.738   4.390   6.269
 7774SOL     OW24220   5.389   2.010   6.388
 7774SOL    HW124221   5.308   2.018   6.331
 7774SOL    HW224222   5.408   1.913   6.407
 7775SOL     OW24223   1.344   6.900   2.152
 7775SOL    HW124224   1.274   6.839   2.188
 7775SOL    HW224225   1.302   6.987   2.124
 7776SOL     OW24226   3.414   3.960   1.035
 7776SOL    HW124227   3.433   3.979   0.939
 7776SOL    HW224228   3.465   4.024   1.093
 7777SOL     OW24229   0.953   0.262   6.201
 7777SOL    HW124230   1.011   0.222   6.272
 7777SOL    HW224231   0.999   0.342   6.161
 7778SOL     OW24232   4.554   1.884   1.949
 7778SOL    HW124233   4.610   1.891   1.866
 7778SOL    HW224234   4.508   1.972   1.965
 7779SOL     OW24235   4.048   3.095   0.450
 7779SOL    HW124236   4.143   3.080   0.421
 7779SOL    HW224237   4.022   3.025   0.516
 7780SOL     OW24238   1.036   0.167   4.646
 7780SOL    HW124239   1.012   0.089   4.705
 7780SOL    HW224240   1.131   0.160   4.618
 7781SOL     OW24241   1.718   3.967   5.449
 7781SOL    HW124242   1.645   4.032   5.432
 7781SOL    HW224243   1.806   4.007   5.422
 7782SOL     OW24244   4.628   4.467   0.200
 7782SOL    HW124245   4.577   4.551   0.180
 7782SOL    HW224246   4.606   4.436   0.293
 7783SOL     OW24247   2.877   6.396   0.288
 7783SOL    HW124248   2.876   6.310   0.339
 7783SOL    HW224249   2.786   6.437   0.290
 7784SOL     OW24250   6.466   3.726   0.490
 7784SOL    HW124251   6.482   3.634   0.524
 7784SOL    HW224252   6.382   3.727   0.435
 7785SOL     OW24253   1.822   5.608   6.354
 7785SOL    HW124254   1.744   5.600   6.416
 7785SOL    HW224255   1.884   5.678   6.389
 7786SOL     OW24256   3.401   4.223   5.338
 7786SOL    HW124257   3.394   4.158   5.262
 7786SOL    HW224258   3.422   4.174   5.422
 7787SOL     OW24259   3.083   2.279   5.454
 7787SOL    HW124260   3.123   2.324   5.374
 7787SOL    HW224261   3.021   2.206   5.424
 7788SOL     OW24262   6.956   2.264   1.012
 7788SOL    HW124263   0.008   2.198   0.979
 7788SOL    HW224264   6.882   2.215   1.059
 7789SOL     OW24265   1.895   0.268   1.809
 7789SOL    HW124266   1.851   0.253   1.899
 7789SOL    HW224267   1.881   0.363   1.781
 7790SOL     OW24268   6.690   3.554   2.396
 7790SOL    HW124269   6.607   3.609   2.383
 7790SOL    HW224270   6.768   3.603   2.359
 7791SOL     OW24271   0.310   5.111   5.778
 7791SOL    HW124272   0.295   5.156   5.690
 7791SOL    HW224273   0.389   5.152   5.824
 7792SOL     OW24274   2.032   5.732   6.526
 7792SOL    HW124275   2.021   5.731   6.625
 7792SOL    HW224276   2.037   5.638   6.492
 7793SOL     OW24277   2.351   0.797   6.201
 7793SOL    HW124278   2.438   0.789   6.152
 7793SOL    HW224279   2.319   0.892   6.197
 7794SOL     OW24280   5.496   5.249   2.772
 7794SOL    HW124281   5.446   5.271   2.855
 7794SOL    HW224282   5.590   5.223   2.796
 7795SOL     OW24283   0.940   4.014   6.623
 7795SOL    HW124284   0.862   4.072   6.644
 7795SOL    HW224285   1.009   4.023   6.695
 7796SOL     OW24286   4.067   3.778   4.730
 7796SOL    HW124287   4.088   3.764   4.827
 7796SOL    HW224288   4.034   3.871   4.716
 7797SOL     OW24289   1.357   6.886   3.422
 7797SOL    HW124290   1.410   6.803   3.409
 7797SOL    HW224291   1.262   6.862   3.442
 7798SOL     OW24292   4.058   5.906   6.258
 7798SOL    HW124293   3.984   5.887   6.194
 7798SOL    HW224294   4.062   5.833   6.327
 7799SOL     OW24295   6.290   6.004   1.616
 7799SOL    HW124296   6.203   5.963   1.590
 7799SOL    HW224297   6.344   6.023   1.534
 7800SOL     OW24298   0.853   5.945   1.804
 7800SOL    HW124299   0.844   6.042   1.781
 7800SOL    HW224300   0.792   5.924   1.881
 7801SOL     OW24301   4.330   2.089   5.062
 7801SOL    HW124302   4.256   2.057   5.003
 7801SOL    HW224303   4.406   2.024   5.058
 7802SOL     OW24304   5.634   2.406   0.320
 7802SOL    HW124305   5.600   2.316   0.293
 7802SOL    HW224306   5.588   2.476   0.266
 7803SOL     OW24307   3.271   3.502   5.749
 7803SOL    HW124308   3.331   3.527   5.673
 7803SOL    HW224309   3.197   3.568   5.756
 7804SOL     OW24310   5.230   0.768   6.431
 7804SOL    HW124311   5.233   0.861   6.469
 7804SOL    HW224312   5.194   0.706   6.500
 7805SOL     OW24313   5.199   3.114   1.652
 7805SOL    HW124314   5.142   3.177   1.599
 7805SOL    HW224315   5.230   3.040   1.593
 7806SOL     OW24316   4.916   3.495   0.116
 7806SOL    HW124317   4.866   3.440   0.184
 7806SOL    HW224318   4.900   3.457   0.025
 7807SOL     OW24319   0.932   3.502   0.145
 7807SOL    HW124320   0.929   3.434   0.218
 7807SOL    HW224321   0.922   3.456   0.056
 7808SOL     OW24322   0.388   0.826   5.571
 7808SOL    HW124323   0.320   0.834   5.643
 7808SOL    HW224324   0.344   0.827   5.482
 7809SOL     OW24325   1.355   5.624   5.578
 7809SOL    HW124326   1.375   5.591   5.486
 7809SOL    HW224327   1.361   5.548   5.643
 7810SOL     OW24328   2.764   1.321   0.064
 7810SOL    HW124329   2.855   1.281   0.071
 7810SOL    HW224330   2.768   1.403   0.007
 7811SOL     OW24331   6.779   4.713   5.019
 7811SOL    HW124332   6.812   4.688   4.928
 7811SOL    HW224333   6.789   4.812   5.032
 7812SOL     OW24334   0.272   1.902   3.437
 7812SOL    HW124335   0.334   1.843   3.386
 7812SOL    HW224336   0.184   1.906   3.390
 7813SOL     OW24337   6.379   2.512   0.831
 7813SOL    HW124338   6.355   2.464   0.915
 7813SOL    HW224339   6.442   2.587   0.851
 7814SOL     OW24340   2.030   2.693   5.115
 7814SOL    HW124341   1.938   2.673   5.080
 7814SOL    HW224342   2.036   2.791   5.136
 7815SOL     OW24343   6.932   1.888   5.254
 7815SOL    HW124344   6.848   1.943   5.260
 7815SOL    HW224345   6.990   1.924   5.181
 7816SOL     OW24346   0.474   4.676   4.975
 7816SOL    HW124347   0.569   4.650   4.993
 7816SOL    HW224348   0.418   4.659   5.056
 7817SOL     OW24349   5.484   3.205   5.902
 7817SOL    HW124350   5.529   3.190   5.991
 7817SOL    HW224351   5.538   3.270   5.848
 7818SOL     OW24352   5.473   3.826   3.484
 7818SOL    HW124353   5.393   3.767   3.475
 7818SOL    HW224354   5.549   3.787   3.432
 7819SOL     OW24355   0.720   1.479   1.148
 7819SOL    HW124356   0.709   1.533   1.064
 7819SOL    HW224357   0.768   1.394   1.126
 7820SOL     OW24358   2.862   0.115   6.399
 7820SOL    HW124359   2.768   0.119   6.432
 7820SOL    HW224360   2.913   0.044   6.447
 7821SOL     OW24361   2.836   5.438   1.027
 7821SOL    HW124362   2.742   5.455   1.057
 7821SOL    HW224363   2.861   5.505   0.957
 7822SOL     OW24364   1.623   6.325   5.915
 7822SOL    HW124365   1.666   6.412   5.939
 7822SOL    HW224366   1.683   6.250   5.942
 7823SOL     OW24367   1.957   3.484   5.500
 7823SOL    HW124368   2.019   3.551   5.541
 7823SOL    HW224369   1.990   3.392   5.519
 7824SOL     OW24370   0.593   2.870   5.107
 7824SOL    HW124371   0.589   2.921   5.192
 7824SOL    HW224372   0.680   2.886   5.061
 7825SOL     OW24373   2.899   0.659   0.094
 7825SOL    HW124374   2.834   0.613   0.035
 7825SOL    HW224375   2.987   0.611   0.091
 7826SOL     OW24376   0.686   3.822   5.846
 7826SOL    HW124377   0.757   3.830   5.915
 7826SOL    HW224378   0.596   3.832   5.889
 7827SOL     OW24379   5.858   4.925   4.165
 7827SOL    HW124380   5.863   5.022   4.191
 7827SOL    HW224381   5.911   4.910   4.081
 7828SOL     OW24382   1.111   5.346   5.993
 7828SOL    HW124383   1.124   5.261   6.043
 7828SOL    HW224384   1.048   5.405   6.043
 7829SOL     OW24385   4.212   4.970   0.631
 7829SOL    HW124386   4.276   4.897   0.608
 7829SOL    HW224387   4.134   4.933   0.681
 7830SOL     OW24388   2.382   5.229   3.754
 7830SOL    HW124389   2.345   5.309   3.801
 7830SOL    HW224390   2.375   5.149   3.815
 7831SOL     OW24391   1.821   0.160   6.047
 7831SOL    HW124392   1.867   0.226   6.106
 7831SOL    HW224393   1.887   0.092   6.016
 7832SOL     OW24394   6.643   1.361   5.534
 7832SOL    HW124395   6.676   1.272   5.564
 7832SOL    HW224396   6.551   1.377   5.571
 7833SOL     OW24397   0.841   0.388   3.071
 7833SOL    HW124398   0.928   0.380   3.023
 7833SOL    HW224399   0.842   0.468   3.130
 7834SOL     OW24400   6.549   3.560   4.718
 7834SOL    HW124401   6.614   3.569   4.643
 7834SOL    HW224402   6.480   3.633   4.711
 7835SOL     OW24403   3.670   2.151   5.616
 7835SOL    HW124404   3.675   2.202   5.530
 7835SOL    HW224405   3.632   2.210   5.688
 7836SOL     OW24406   2.881   3.871   4.955
 7836SOL    HW124407   2.903   3.959   4.997
 7836SOL    HW224408   2.878   3.881   4.855
 7837SOL     OW24409   1.139   5.381   6.516
 7837SOL    HW124410   1.107   5.469   6.551
 7837SOL    HW224411   1.074   5.309   6.542
 7838SOL     OW24412   4.108   5.212   1.830
 7838SOL    HW124413   4.137   5.156   1.907
 7838SOL    HW224414   4.125   5.162   1.745
 7839SOL     OW24415   6.013   4.269   4.493
 7839SOL    HW124416   6.008   4.342   4.562
 7839SOL    HW224417   5.959   4.191   4.524
 7840SOL     OW24418   2.101   2.687   3.704
 7840SOL    HW124419   2.171   2.755   3.728
 7840SOL    HW224420   2.054   2.716   3.620
 7841SOL     OW24421   4.353   1.737   5.669
 7841SOL    HW124422   4.265   1.694   5.685
 7841SOL    HW224423   4.363   1.761   5.572
 7842SOL     OW24424   1.208   0.541   1.138
 7842SOL    HW124425   1.214   0.588   1.050
 7842SOL    HW224426   1.123   0.569   1.184
 7843SOL     OW24427   6.939   6.597   1.926
 7843SOL    HW124428   0.008   6.646   1.950
 7843SOL    HW224429   6.860   6.652   1.954
 7844SOL     OW24430   4.157   0.068   2.437
 7844SOL    HW124431   4.189   6.989   2.447
 7844SOL    HW224432   4.057   0.070   2.437
 7845SOL     OW24433   6.068   3.042   1.431
 7845SOL    HW124434   6.143   2.976   1.433
 7845SOL    HW224435   5.998   3.010   1.368
 7846SOL     OW24436   0.921   1.600   0.649
 7846SOL    HW124437   0.927   1.605   0.550
 7846SOL    HW224438   0.927   1.505   0.679
 7847SOL     OW24439   5.347   4.470   6.075
 7847SOL    HW124440   5.261   4.435   6.036
 7847SOL    HW224441   5.418   4.400   6.065
 7848SOL     OW24442   4.120   4.769   0.276
 7848SOL    HW124443   4.124   4.862   0.314
 7848SOL    HW224444   4.191   4.713   0.318
 7849SOL     OW24445   4.234   5.187   6.721
 7849SOL    HW124446   4.246   5.105   6.777
 7849SOL    HW224447   4.136   5.210   6.717
 7850SOL     OW24448   0.193   0.526   3.348
 7850SOL    HW124449   0.154   0.509   3.258
 7850SOL    HW224450   0.124   0.568   3.407
 7851SOL     OW24451   0.826   4.980   0.527
 7851SOL    HW124452   0.819   4.981   0.627
 7851SOL    HW224453   0.734   4.976   0.488
 7852SOL     OW24454   1.183   3.444   6.144
 7852SOL    HW124455   1.208   3.412   6.053
 7852SOL    HW224456   1.242   3.401   6.212
 7853SOL     OW24457   4.175   3.083   1.813
 7853SOL    HW124458   4.175   3.099   1.912
 7853SOL    HW224459   4.266   3.104   1.776
 7854SOL     OW24460   3.999   1.014   1.495
 7854SOL    HW124461   4.092   1.040   1.520
 7854SOL    HW224462   3.964   0.948   1.562
 7855SOL     OW24463   5.260   6.450   3.865
 7855SOL    HW124464   5.253   6.543   3.900
 7855SOL    HW224465   5.339   6.443   3.804
 7856SOL     OW24466   2.080   6.423   5.837
 7856SOL    HW124467   2.157   6.392   5.893
 7856SOL    HW224468   2.012   6.351   5.831
 7857SOL     OW24469   6.585   4.863   0.412
 7857SOL    HW124470   6.486   4.862   0.394
 7857SOL    HW224471   6.635   4.841   0.328
 7858SOL     OW24472   0.471   3.573   6.098
 7858SOL    HW124473   0.556   3.536   6.059
 7858SOL    HW224474   0.481   3.672   6.111
 7859SOL     OW24475   4.799   2.126   0.687
 7859SOL    HW124476   4.773   2.218   0.720
 7859SOL    HW224477   4.886   2.100   0.728
 7860SOL     OW24478   2.110   1.755   3.507
 7860SOL    HW124479   2.183   1.787   3.446
 7860SOL    HW224480   2.150   1.709   3.586
 7861SOL     OW24481   1.771   5.789   0.939
 7861SOL    HW124482   1.812   5.704   0.974
 7861SOL    HW224483   1.828   5.866   0.967
 7862SOL     OW24484   1.427   7.009   6.935
 7862SOL    HW124485   1.412   6.929   6.877
 7862SOL    HW224486   1.360   7.009   7.009
 7863SOL     OW24487   0.832   3.827   3.763
 7863SOL    HW124488   0.918   3.778   3.772
 7863SOL    HW224489   0.771   3.776   3.702
 7864SOL     OW24490   3.111   5.560   5.179
 7864SOL    HW124491   3.169   5.591   5.254
 7864SOL    HW224492   3.015   5.567   5.205
 7865SOL     OW24493   6.000   4.886   3.953
 7865SOL    HW124494   6.069   4.817   3.969
 7865SOL    HW224495   5.971   4.884   3.858
 7866SOL     OW24496   1.224   0.928   5.495
 7866SOL    HW124497   1.211   1.004   5.431
 7866SOL    HW224498   1.309   0.940   5.545
 7867SOL     OW24499   3.818   5.117   3.618
 7867SOL    HW124500   3.824   5.141   3.521
 7867SOL    HW224501   3.756   5.181   3.664
 7868SOL     OW24502   3.403   6.138   1.659
 7868SOL    HW124503   3.400   6.111   1.563
 7868SOL    HW224504   3.432   6.233   1.666
 7869SOL     OW24505   5.476   4.775   0.090
 7869SOL    HW124506   5.517   4.686   0.074
 7869SOL    HW224507   5.534   4.828   0.152
 7870SOL     OW24508   6.808   6.951   3.866
 7870SOL    HW124509   6.874   6.911   3.929
 7870SOL    HW224510   6.801   6.895   3.783
 7871SOL     OW24511   4.702   1.192   0.607
 7871SOL    HW124512   4.640   1.267   0.584
 7871SOL    HW224513   4.706   1.181   0.706
 7872SOL     OW24514   0.107   4.678   3.278
 7872SOL    HW124515   0.007   4.674   3.276
 7872SOL    HW224516   0.140   4.632   3.360
 7873SOL     OW24517   4.440   2.583   6.434
 7873SOL    HW124518   4.392   2.502   6.469
 7873SOL    HW224519   4.500   2.556   6.359
 7874SOL     OW24520   6.251   2.746   6.810
 7874SOL    HW124521   6.346   2.745   6.843
 7874SOL    HW224522   6.251   2.774   6.714
 7875SOL     OW24523   6.687   4.500   6.830
 7875SOL    HW124524   6.627   4.571   6.792
 7875SOL    HW224525   6.634   4.418   6.849
 7876SOL     OW24526   1.442   6.581   3.129
 7876SOL    HW124527   1.349   6.616   3.135
 7876SOL    HW224528   1.444   6.487   3.163
 7877SOL     OW24529   0.622   2.936   2.334
 7877SOL    HW124530   0.685   2.980   2.398
 7877SOL    HW224531   0.673   2.902   2.255
 7878SOL     OW24532   3.877   0.121   2.429
 7878SOL    HW124533   3.805   0.052   2.434
 7878SOL    HW224534   3.836   0.212   2.425
 7879SOL     OW24535   2.897   5.916   2.919
 7879SOL    HW124536   2.877   5.902   2.822
 7879SOL    HW224537   2.817   5.954   2.965
 7880SOL     OW24538   0.744   4.388   2.333
 7880SOL    HW124539   0.725   4.355   2.241
 7880SOL    HW224540   0.669   4.363   2.394
 7881SOL     OW24541   4.805   2.734   3.725
 7881SOL    HW124542   4.844   2.787   3.649
 7881SOL    HW224543   4.776   2.645   3.692
 7882SOL     OW24544   6.951   2.877   6.533
 7882SOL    HW124545   6.989   2.790   6.500
 7882SOL    HW224546   6.872   2.857   6.591
 7883SOL     OW24547   0.652   6.664   4.198
 7883SOL    HW124548   0.567   6.693   4.153
 7883SOL    HW224549   0.630   6.608   4.278
 7884SOL     OW24550   1.583   2.798   4.245
 7884SOL    HW124551   1.566   2.786   4.147
 7884SOL    HW224552   1.575   2.709   4.291
 7885SOL     OW24553   0.036   6.300   6.779
 7885SOL    HW124554   6.955   6.282   6.763
 7885SOL    HW224555   0.046   6.374   6.845
 7886SOL     OW24556   4.857   3.763   0.636
 7886SOL    HW124557   4.936   3.759   0.574
 7886SOL    HW224558   4.779   3.717   0.593
 7887SOL     OW24559   4.549   2.421   6.178
 7887SOL    HW124560   4.608   2.343   6.159
 7887SOL    HW224561   4.454   2.392   6.176
 7888SOL     OW24562   4.088   5.720   4.524
 7888SOL    HW124563   4.047   5.810   4.542
 7888SOL    HW224564   4.016   5.651   4.524
 7889SOL     OW24565   6.423   5.166   3.370
 7889SOL    HW124566   6.377   5.133   3.453
 7889SOL    HW224567   6.392   5.113   3.291
 7890SOL     OW24568   1.833   3.606   2.567
 7890SOL    HW124569   1.930   3.604   2.545
 7890SOL    HW224570   1.792   3.517   2.545
 7891SOL     OW24571   0.901   4.425   3.320
 7891SOL    HW124572   0.998   4.401   3.323
 7891SOL    HW224573   0.849   4.349   3.280
 7892SOL     OW24574   2.220   2.111   4.973
 7892SOL    HW124575   2.139   2.054   4.987
 7892SOL    HW224576   2.261   2.132   5.062
 7893SOL     OW24577   5.190   6.663   0.826
 7893SOL    HW124578   5.272   6.611   0.801
 7893SOL    HW224579   5.174   6.733   0.756
 7894SOL     OW24580   2.741   0.503   1.572
 7894SOL    HW124581   2.659   0.550   1.537
 7894SOL    HW224582   2.799   0.569   1.619
 7895SOL     OW24583   0.197   1.739   4.036
 7895SOL    HW124584   0.109   1.771   4.070
 7895SOL    HW224585   0.182   1.663   3.973
 7896SOL     OW24586   3.677   2.138   6.324
 7896SOL    HW124587   3.660   2.204   6.397
 7896SOL    HW224588   3.614   2.154   6.249
 7897SOL     OW24589   2.941   3.402   6.565
 7897SOL    HW124590   2.903   3.309   6.573
 7897SOL    HW224591   2.955   3.424   6.469
 7898SOL     OW24592   5.412   1.336   4.351
 7898SOL    HW124593   5.320   1.321   4.314
 7898SOL    HW224594   5.452   1.417   4.308
 7899SOL     OW24595   4.489   1.064   2.187
 7899SOL    HW124596   4.423   1.067   2.113
 7899SOL    HW224597   4.582   1.070   2.150
 7900SOL     OW24598   0.582   5.932   1.545
 7900SOL    HW124599   0.674   5.929   1.506
 7900SOL    HW224600   0.543   5.840   1.547
 7901SOL     OW24601   5.898   4.890   1.132
 7901SOL    HW124602   5.942   4.943   1.060
 7901SOL    HW224603   5.955   4.811   1.155
 7902SOL     OW24604   4.968   4.616   5.695
 7902SOL    HW124605   4.993   4.682   5.765
 7902SOL    HW224606   4.875   4.634   5.664
 7903SOL     OW24607   0.093   2.877   1.642
 7903SOL    HW124608   0.158   2.926   1.699
 7903SOL    HW224609   0.069   2.932   1.563
 7904SOL     OW24610   5.922   2.551   3.274
 7904SOL    HW124611   5.900   2.466   3.227
 7904SOL    HW224612   5.984   2.605   3.217
 7905SOL     OW24613   1.806   1.643   2.190
 7905SOL    HW124614   1.737   1.639   2.263
 7905SOL    HW224615   1.830   1.550   2.163
 7906SOL     OW24616   0.782   4.786   6.746
 7906SOL    HW124617   0.863   4.826   6.789
 7906SOL    HW224618   0.804   4.694   6.714
 7907SOL     OW24619   0.508   2.747   2.500
 7907SOL    HW124620   0.424   2.799   2.513
 7907SOL    HW224621   0.578   2.806   2.459
 7908SOL     OW24622   0.507   1.743   2.632
 7908SOL    HW124623   0.450   1.676   2.680
 7908SOL    HW224624   0.519   1.824   2.689
 7909SOL     OW24625   4.440   6.840   4.937
 7909SOL    HW124626   4.473   6.931   4.909
 7909SOL    HW224627   4.451   6.829   5.035
 7910SOL     OW24628   6.670   2.672   5.517
 7910SOL    HW124629   6.614   2.682   5.599
 7910SOL    HW224630   6.669   2.758   5.465
 7911SOL     OW24631   0.389   5.487   6.314
 7911SOL    HW124632   0.463   5.554   6.307
 7911SOL    HW224633   0.404   5.428   6.393
 7912SOL     OW24634   0.029   5.659   5.195
 7912SOL    HW124635   0.067   5.710   5.118
 7912SOL    HW224636   6.975   5.714   5.240
 7913SOL     OW24637   1.415   6.150   6.670
 7913SOL    HW124638   1.344   6.084   6.647
 7913SOL    HW224639   1.437   6.205   6.589
 7914SOL     OW24640   6.260   4.606   0.719
 7914SOL    HW124641   6.166   4.578   0.696
 7914SOL    HW224642   6.277   4.697   0.682
 7915SOL     OW24643   2.677   1.025   2.713
 7915SOL    HW124644   2.631   1.009   2.800
 7915SOL    HW224645   2.666   0.945   2.653
 7916SOL     OW24646   4.473   3.758   5.541
 7916SOL    HW124647   4.429   3.809   5.616
 7916SOL    HW224648   4.406   3.742   5.469
 7917SOL     OW24649   4.045   3.819   3.372
 7917SOL    HW124650   4.083   3.739   3.325
 7917SOL    HW224651   3.986   3.869   3.308
 7918SOL     OW24652   5.545   1.783   1.896
 7918SOL    HW124653   5.549   1.856   1.964
 7918SOL    HW224654   5.557   1.695   1.941
 7919SOL     OW24655   5.350   3.905   2.262
 7919SOL    HW124656   5.387   3.831   2.319
 7919SOL    HW224657   5.424   3.945   2.209
 7920SOL     OW24658   0.440   6.655   1.362
 7920SOL    HW124659   0.389   6.587   1.309
 7920SOL    HW224660   0.516   6.612   1.409
 7921SOL     OW24661   3.106   5.749   1.947
 7921SOL    HW124662   3.063   5.692   1.877
 7921SOL    HW224663   3.200   5.718   1.961
 7922SOL     OW24664   0.741   4.660   4.997
 7922SOL    HW124665   0.724   4.561   4.998
 7922SOL    HW224666   0.791   4.686   5.079
 7923SOL     OW24667   1.155   1.804   3.567
 7923SOL    HW124668   1.216   1.880   3.588
 7923SOL    HW224669   1.075   1.837   3.517
 7924SOL     OW24670   2.384   1.150   3.508
 7924SOL    HW124671   2.341   1.159   3.418
 7924SOL    HW224672   2.351   1.223   3.568
 7925SOL     OW24673   0.895   1.101   6.965
 7925SOL    HW124674   0.896   1.056   0.038
 7925SOL    HW224675   0.863   1.037   6.895
 7926SOL     OW24676   3.142   0.546   1.876
 7926SOL    HW124677   3.197   0.627   1.895
 7926SOL    HW224678   3.189   0.487   1.811
 7927SOL     OW24679   4.650   5.145   4.487
 7927SOL    HW124680   4.645   5.045   4.477
 7927SOL    HW224681   4.744   5.171   4.510
 7928SOL     OW24682   0.602   4.051   6.950
 7928SOL    HW124683   0.532   4.106   6.995
 7928SOL    HW224684   0.573   4.028   6.857
 7929SOL     OW24685   3.540   4.121   4.819
 7929SOL    HW124686   3.448   4.152   4.796
 7929SOL    HW224687   3.598   4.125   4.738
 7930SOL     OW24688   4.265   6.838   2.469
 7930SOL    HW124689   4.221   6.754   2.499
 7930SOL    HW224690   4.316   6.821   2.384
 7931SOL     OW24691   2.999   3.215   6.125
 7931SOL    HW124692   2.943   3.238   6.045
 7931SOL    HW224693   3.012   3.116   6.129
 7932SOL     OW24694   2.966   1.087   0.394
 7932SOL    HW124695   3.048   1.082   0.338
 7932SOL    HW224696   2.963   1.175   0.441
 7933SOL     OW24697   2.033   1.340   6.423
 7933SOL    HW124698   2.118   1.392   6.425
 7933SOL    HW224699   2.039   1.269   6.353
 7934SOL     OW24700   4.266   1.972   5.826
 7934SOL    HW124701   4.304   1.882   5.802
 7934SOL    HW224702   4.292   1.994   5.921
 7935SOL     OW24703   5.050   5.589   2.050
 7935SOL    HW124704   5.114   5.532   1.998
 7935SOL    HW224705   5.098   5.632   2.126
 7936SOL     OW24706   3.805   6.285   1.825
 7936SOL    HW124707   3.802   6.255   1.920
 7936SOL    HW224708   3.884   6.345   1.811
 7937SOL     OW24709   6.200   1.652   6.138
 7937SOL    HW124710   6.207   1.611   6.229
 7937SOL    HW224711   6.282   1.628   6.085
 7938SOL     OW24712   6.506   4.576   3.863
 7938SOL    HW124713   6.544   4.487   3.887
 7938SOL    HW224714   6.516   4.639   3.940
 7939SOL     OW24715   0.378   6.272   3.665
 7939SOL    HW124716   0.444   6.256   3.592
 7939SOL    HW224717   0.424   6.316   3.742
 7940SOL     OW24718   1.575   6.323   0.607
 7940SOL    HW124719   1.630   6.402   0.579
 7940SOL    HW224720   1.583   6.310   0.706
 7941SOL     OW24721   0.450   0.839   0.761
 7941SOL    HW124722   0.542   0.799   0.752
 7941SOL    HW224723   0.387   0.768   0.793
 7942SOL     OW24724   0.935   0.599   1.853
 7942SOL    HW124725   0.972   0.525   1.909
 7942SOL    HW224726   0.932   0.684   1.905
 7943SOL     OW24727   6.062   1.928   0.576
 7943SOL    HW124728   6.054   1.894   0.669
 7943SOL    HW224729   6.027   1.860   0.512
 7944SOL     OW24730   6.543   4.186   1.950
 7944SOL    HW124731   6.618   4.251   1.963
 7944SOL    HW224732   6.568   4.098   1.989
 7945SOL     OW24733   5.758   0.255   0.849
 7945SOL    HW124734   5.761   0.353   0.830
 7945SOL    HW224735   5.688   0.236   0.918
 7946SOL     OW24736   2.497   1.363   5.590
 7946SOL    HW124737   2.581   1.409   5.562
 7946SOL    HW224738   2.418   1.418   5.564
 7947SOL     OW24739   4.353   5.206   6.259
 7947SOL    HW124740   4.350   5.291   6.207
 7947SOL    HW224741   4.369   5.226   6.356
 7948SOL     OW24742   1.184   5.290   5.736
 7948SOL    HW124743   1.112   5.308   5.669
 7948SOL    HW224744   1.151   5.313   5.828
 7949SOL     OW24745   6.892   3.467   4.299
 7949SOL    HW124746   6.815   3.433   4.245
 7949SOL    HW224747   6.951   3.391   4.325
 7950SOL     OW24748   3.255   4.975   3.942
 7950SOL    HW124749   3.256   4.900   4.009
 7950SOL    HW224750   3.217   5.057   3.984
 7951SOL     OW24751   2.101   3.443   0.689
 7951SOL    HW124752   2.010   3.484   0.693
 7951SOL    HW224753   2.169   3.515   0.682
 7952SOL     OW24754   5.668   4.731   0.734
 7952SOL    HW124755   5.600   4.657   0.731
 7952SOL    HW224756   5.737   4.709   0.802
 7953SOL     OW24757   1.835   3.763   2.143
 7953SOL    HW124758   1.860   3.844   2.090
 7953SOL    HW224759   1.760   3.715   2.097
 7954SOL     OW24760   5.528   4.994   4.109
 7954SOL    HW124761   5.572   4.991   4.198
 7954SOL    HW224762   5.558   5.076   4.060
 7955SOL     OW24763   2.043   6.247   6.195
 7955SOL    HW124764   2.064   6.344   6.198
 7955SOL    HW224765   2.057   6.207   6.286
 7956SOL     OW24766   5.683   5.992   2.912
 7956SOL    HW124767   5.695   5.979   2.814
 7956SOL    HW224768   5.771   5.980   2.958
 7957SOL     OW24769   1.739   2.448   0.827
 7957SOL    HW124770   1.760   2.378   0.759
 7957SOL    HW224771   1.804   2.441   0.903
 7958SOL     OW24772   2.788   5.698   3.532
 7958SOL    HW124773   2.868   5.667   3.583
 7958SOL    HW224774   2.806   5.789   3.495
 7959SOL     OW24775   4.965   5.384   1.710
 7959SOL    HW124776   4.924   5.412   1.623
 7959SOL    HW224777   5.018   5.300   1.696
 7960SOL     OW24778   1.773   2.429   1.238
 7960SOL    HW124779   1.752   2.524   1.262
 7960SOL    HW224780   1.696   2.370   1.262
 7961SOL     OW24781   0.618   5.759   0.405
 7961SOL    HW124782   0.601   5.673   0.356
 7961SOL    HW224783   0.607   5.835   0.342
 7962SOL     OW24784   1.546   0.020   2.739
 7962SOL    HW124785   1.507   6.953   2.780
 7962SOL    HW224786   1.521   0.024   2.642
 7963SOL     OW24787   0.671   6.587   5.593
 7963SOL    HW124788   0.670   6.502   5.646
 7963SOL    HW224789   0.702   6.662   5.651
 7964SOL     OW24790   6.366   5.497   3.245
 7964SOL    HW124791   6.367   5.574   3.308
 7964SOL    HW224792   6.272   5.479   3.215
 7965SOL     OW24793   4.072   1.392   0.423
 7965SOL    HW124794   4.066   1.399   0.323
 7965SOL    HW224795   4.146   1.329   0.447
 7966SOL     OW24796   0.017   0.615   3.536
 7966SOL    HW124797   6.990   0.608   3.626
 7966SOL    HW224798   0.108   0.656   3.545
 7967SOL     OW24799   3.203   0.339   3.528
 7967SOL    HW124800   3.245   0.309   3.613
 7967SOL    HW224801   3.181   0.259   3.472
 7968SOL     OW24802   2.262   0.732   1.188
 7968SOL    HW124803   2.276   0.640   1.224
 7968SOL    HW224804   2.210   0.726   1.103
 7969SOL     OW24805   3.393   1.384   3.376
 7969SOL    HW124806   3.489   1.401   3.399
 7969SOL    HW224807   3.340   1.374   3.461
 7970SOL     OW24808   0.815   4.550   3.533
 7970SOL    HW124809   0.775   4.471   3.578
 7970SOL    HW224810   0.849   4.524   3.443
 7971SOL     OW24811   3.147   1.973   2.265
 7971SOL    HW124812   3.091   1.892   2.286
 7971SOL    HW224813   3.103   2.024   2.191
 7972SOL     OW24814   5.825   6.025   1.678
 7972SOL    HW124815   5.851   5.967   1.756
 7972SOL    HW224816   5.762   5.976   1.619
 7973SOL     OW24817   5.002   1.822   3.029
 7973SOL    HW124818   4.992   1.857   2.936
 7973SOL    HW224819   4.958   1.885   3.093
 7974SOL     OW24820   5.283   6.226   4.587
 7974SOL    HW124821   5.206   6.264   4.637
 7974SOL    HW224822   5.306   6.286   4.510
 7975SOL     OW24823   1.525   1.909   2.820
 7975SOL    HW124824   1.486   1.998   2.842
 7975SOL    HW224825   1.476   1.870   2.742
 7976SOL     OW24826   1.832   0.160   6.351
 7976SOL    HW124827   1.913   0.177   6.295
 7976SOL    HW224828   1.843   0.075   6.403
 7977SOL     OW24829   5.514   6.455   1.281
 7977SOL    HW124830   5.533   6.482   1.187
 7977SOL    HW224831   5.592   6.404   1.318
 7978SOL     OW24832   3.409   1.743   5.763
 7978SOL    HW124833   3.331   1.740   5.701
 7978SOL    HW224834   3.484   1.792   5.719
 7979SOL     OW24835   4.951   5.785   4.498
 7979SOL    HW124836   4.912   5.875   4.477
 7979SOL    HW224837   4.996   5.749   4.416
 7980SOL     OW24838   2.723   0.373   2.207
 7980SOL    HW124839   2.688   0.391   2.115
 7980SOL    HW224840   2.823   0.383   2.206
 7981SOL     OW24841   0.984   6.107   2.167
 7981SOL    HW124842   0.898   6.069   2.198
 7981SOL    HW224843   1.056   6.037   2.172
 7982SOL     OW24844   0.188   3.117   0.602
 7982SOL    HW124845   0.139   3.070   0.675
 7982SOL    HW224846   0.278   3.077   0.590
 7983SOL     OW24847   5.028   2.346   1.568
 7983SOL    HW124848   5.059   2.342   1.473
 7983SOL    HW224849   5.030   2.441   1.600
 7984SOL     OW24850   6.694   0.771   0.814
 7984SOL    HW124851   6.728   0.678   0.799
 7984SOL    HW224852   6.696   0.792   0.912
 7985SOL     OW24853   1.012   1.145   1.062
 7985SOL    HW124854   1.072   1.218   1.030
 7985SOL    HW224855   1.060   1.058   1.058
 7986SOL     OW24856   4.662   3.561   0.486
 7986SOL    HW124857   4.633   3.535   0.578
 7986SOL    HW224858   4.583   3.592   0.433
 7987SOL     OW24859   0.648   2.939   4.843
 7987SOL    HW124860   0.645   2.859   4.783
 7987SOL    HW224861   0.590   2.923   4.923
 7988SOL     OW24862   3.045   1.402   5.652
 7988SOL    HW124863   2.978   1.444   5.592
 7988SOL    HW224864   3.110   1.348   5.598
 7989SOL     OW24865   3.439   3.550   6.616
 7989SOL    HW124866   3.468   3.617   6.548
 7989SOL    HW224867   3.354   3.508   6.586
 7990SOL     OW24868   2.239   2.742   4.765
 7990SOL    HW124869   2.328   2.712   4.730
 7990SOL    HW224870   2.242   2.744   4.865
 7991SOL     OW24871   2.423   3.071   6.166
 7991SOL    HW124872   2.451   2.990   6.218
 7991SOL    HW224873   2.475   3.150   6.199
 7992SOL     OW24874   3.035   1.517   0.858
 7992SOL    HW124875   3.057   1.599   0.806
 7992SOL    HW224876   3.111   1.453   0.856
 7993SOL     OW24877   2.678   5.586   6.112
 7993SOL    HW124878   2.724   5.522   6.050
 7993SOL    HW224879   2.597   5.623   6.067
 7994SOL     OW24880   5.812   0.455   4.351
 7994SOL    HW124881   5.845   0.432   4.442
 7994SOL    HW224882   5.849   0.391   4.284
 7995SOL     OW24883   4.681   5.368   2.600
 7995SOL    HW124884   4.616   5.391   2.528
 7995SOL    HW224885   4.657   5.280   2.641
 7996SOL     OW24886   4.232   1.245   5.640
 7996SOL    HW124887   4.257   1.312   5.570
 7996SOL    HW224888   4.136   1.257   5.664
 7997SOL     OW24889   5.096   3.339   0.945
 7997SOL    HW124890   5.139   3.250   0.935
 7997SOL    HW224891   5.122   3.398   0.869
 7998SOL     OW24892   6.210   4.875   6.000
 7998SOL    HW124893   6.204   4.973   6.018
 7998SOL    HW224894   6.232   4.860   5.904
 7999SOL     OW24895   2.738   2.552   5.668
 7999SOL    HW124896   2.799   2.530   5.592
 7999SOL    HW224897   2.786   2.610   5.734
 8000SOL     OW24898   4.878   0.441   6.057
 8000SOL    HW124899   4.869   0.528   6.010
 8000SOL    HW224900   4.959   0.443   6.116
 8001SOL     OW24901   2.252   5.211   0.280
 8001SOL    HW124902   2.184   5.221   0.352
 8001SOL    HW224903   2.285   5.117   0.279
 8002SOL     OW24904   4.837   2.125   5.690
 8002SOL    HW124905   4.845   2.036   5.645
 8002SOL    HW224906   4.742   2.138   5.720
 8003SOL     OW24907   4.849   5.272   3.304
 8003SOL    HW124908   4.826   5.232   3.393
 8003SOL    HW224909   4.916   5.215   3.258
 8004SOL     OW24910   1.140   4.295   3.385
 8004SOL    HW124911   1.055   4.281   3.436
 8004SOL    HW224912   1.194   4.211   3.386
 8005SOL     OW24913   2.228   0.833   2.611
 8005SOL    HW124914   2.137   0.847   2.572
 8005SOL    HW224915   2.268   0.750   2.572
 8006SOL     OW24916   4.139   6.147   2.148
 8006SOL    HW124917   4.086   6.214   2.096
 8006SOL    HW224918   4.190   6.088   2.084
 8007SOL     OW24919   0.355   1.112   4.153
 8007SOL    HW124920   0.282   1.121   4.221
 8007SOL    HW224921   0.315   1.085   4.066
 8008SOL     OW24922   5.991   5.484   1.315
 8008SOL    HW124923   5.946   5.431   1.387
 8008SOL    HW224924   5.958   5.578   1.317
 8009SOL     OW24925   6.996   6.821   3.236
 8009SOL    HW124926   0.060   6.862   3.279
 8009SOL    HW224927   6.917   6.881   3.246
 8010SOL     OW24928   2.045   2.085   6.847
 8010SOL    HW124929   2.033   1.987   6.854
 8010SOL    HW224930   1.999   2.119   6.765
 8011SOL     OW24931   2.308   3.021   0.038
 8011SOL    HW124932   2.351   3.012   6.964
 8011SOL    HW224933   2.209   3.031   0.028
 8012SOL     OW24934   2.468   6.560   3.184
 8012SOL    HW124935   2.507   6.635   3.131
 8012SOL    HW224936   2.439   6.595   3.273
 8013SOL     OW24937   6.507   5.157   5.026
 8013SOL    HW124938   6.495   5.216   4.946
 8013SOL    HW224939   6.516   5.062   4.996
 8014SOL     OW24940   2.602   6.801   6.867
 8014SOL    HW124941   2.612   6.870   6.795
 8014SOL    HW224942   2.515   6.754   6.856
 8015SOL     OW24943   1.335   2.237   0.132
 8015SOL    HW124944   1.384   2.173   0.072
 8015SOL    HW224945   1.237   2.224   0.122
 8016SOL     OW24946   4.067   6.422   1.856
 8016SOL    HW124947   4.144   6.408   1.919
 8016SOL    HW224948   4.094   6.390   1.765
 8017SOL     OW24949   6.355   3.461   5.467
 8017SOL    HW124950   6.303   3.376   5.456
 8017SOL    HW224951   6.307   3.535   5.419
 8018SOL     OW24952   5.542   2.938   3.564
 8018SOL    HW124953   5.480   2.893   3.499
 8018SOL    HW224954   5.493   2.957   3.648
 8019SOL     OW24955   3.470   5.050   1.231
 8019SOL    HW124956   3.510   5.122   1.288
 8019SOL    HW224957   3.525   4.966   1.240
 8020SOL     OW24958   5.783   0.275   6.561
 8020SOL    HW124959   5.728   0.223   6.496
 8020SOL    HW224960   5.754   0.371   6.559
 8021SOL     OW24961   6.716   1.466   1.002
 8021SOL    HW124962   6.664   1.400   0.949
 8021SOL    HW224963   6.799   1.491   0.952
 8022SOL     OW24964   4.833   5.016   3.488
 8022SOL    HW124965   4.792   4.926   3.505
 8022SOL    HW224966   4.766   5.087   3.507
 8023SOL     OW24967   0.261   6.025   3.554
 8023SOL    HW124968   0.265   6.083   3.473
 8023SOL    HW224969   0.316   6.065   3.627
 8024SOL     OW24970   4.362   5.672   4.662
 8024SOL    HW124971   4.324   5.654   4.753
 8024SOL    HW224972   4.289   5.669   4.594
 8025SOL     OW24973   3.550   5.880   0.498
 8025SOL    HW124974   3.595   5.812   0.439
 8025SOL    HW224975   3.468   5.840   0.539
 8026SOL     OW24976   2.209   1.697   6.297
 8026SOL    HW124977   2.111   1.720   6.302
 8026SOL    HW224978   2.245   1.725   6.208
 8027SOL     OW24979   4.485   3.190   5.387
 8027SOL    HW124980   4.410   3.124   5.397
 8027SOL    HW224981   4.517   3.190   5.292
 8028SOL     OW24982   5.914   4.933   0.623
 8028SOL    HW124983   5.908   5.006   0.555
 8028SOL    HW224984   5.851   4.951   0.698
 8029SOL     OW24985   3.282   4.435   6.307
 8029SOL    HW124986   3.243   4.435   6.399
 8029SOL    HW224987   3.326   4.523   6.289
 8030SOL     OW24988   6.324   3.548   0.895
 8030SOL    HW124989   6.348   3.560   0.991
 8030SOL    HW224990   6.337   3.635   0.846
 8031SOL     OW24991   3.701   6.082   1.236
 8031SOL    HW124992   3.613   6.094   1.190
 8031SOL    HW224993   3.698   6.124   1.326
 8032SOL     OW24994   4.640   3.760   5.870
 8032SOL    HW124995   4.685   3.705   5.800
 8032SOL    HW224996   4.566   3.813   5.828
 8033SOL     OW24997   6.360   1.836   1.517
 8033SOL    HW124998   6.406   1.854   1.604
 8033SOL    HW224999   6.271   1.882   1.515
 8034SOL     OW25000   6.581   1.887   5.519
 8034SOL    HW125001   6.548   1.965   5.573
 8034SOL    HW225002   6.525   1.807   5.538
 8035SOL     OW25003   5.563   6.150   6.277
 8035SOL    HW125004   5.529   6.067   6.322
 8035SOL    HW225005   5.651   6.131   6.235
 8036SOL     OW25006   1.677   4.612   1.865
 8036SOL    HW125007   1.745   4.577   1.930
 8036SOL    HW225008   1.661   4.709   1.881
 8037SOL     OW25009   2.154   3.199   1.902
 8037SOL    HW125010   2.185   3.289   1.934
 8037SOL    HW225011   2.212   3.170   1.825
 8038SOL     OW25012   5.683   1.201   3.992
 8038SOL    HW125013   5.771   1.154   3.997
 8038SOL    HW225014   5.620   1.149   3.934
 8039SOL     OW25015   2.250   5.809   3.903
 8039SOL    HW125016   2.237   5.848   3.812
 8039SOL    HW225017   2.162   5.783   3.942
 8040SOL     OW25018   5.790   6.089   0.082
 8040SOL    HW125019   5.808   6.162   0.148
 8040SOL    HW225020   5.735   6.124   0.007
 8041SOL     OW25021   3.294   1.997   1.411
 8041SOL    HW125022   3.243   2.073   1.372
 8041SOL    HW225023   3.242   1.958   1.488
 8042SOL     OW25024   2.106   5.270   6.703
 8042SOL    HW125025   2.198   5.298   6.676
 8042SOL    HW225026   2.113   5.192   6.766
 8043SOL     OW25027   2.938   0.640   1.349
 8043SOL    HW125028   2.977   0.638   1.441
 8043SOL    HW225029   3.012   0.639   1.282
 8044SOL     OW25030   3.101   2.947   2.255
 8044SOL    HW125031   3.046   3.021   2.215
 8044SOL    HW225032   3.042   2.868   2.271
 8045SOL     OW25033   6.594   2.625   3.326
 8045SOL    HW125034   6.693   2.625   3.318
 8045SOL    HW225035   6.567   2.633   3.422
 8046SOL     OW25036   0.137   5.324   4.964
 8046SOL    HW125037   0.165   5.373   5.046
 8046SOL    HW225038   0.181   5.234   4.961
 8047SOL     OW25039   2.421   0.165   4.565
 8047SOL    HW125040   2.417   0.263   4.586
 8047SOL    HW225041   2.424   0.113   4.651
 8048SOL     OW25042   5.616   0.528   5.735
 8048SOL    HW125043   5.539   0.577   5.694
 8048SOL    HW225044   5.639   0.448   5.679
 8049SOL     OW25045   1.571   0.203   0.104
 8049SOL    HW125046   1.544   0.129   0.042
 8049SOL    HW225047   1.610   0.164   0.187
 8050SOL     OW25048   0.255   2.941   1.859
 8050SOL    HW125049   0.305   3.027   1.853
 8050SOL    HW225050   0.319   2.866   1.869
 8051SOL     OW25051   2.811   1.529   3.923
 8051SOL    HW125052   2.727   1.581   3.939
 8051SOL    HW225053   2.872   1.540   4.001
 8052SOL     OW25054   3.632   1.761   2.916
 8052SOL    HW125055   3.670   1.750   3.007
 8052SOL    HW225056   3.680   1.835   2.868
 8053SOL     OW25057   4.260   3.561   1.685
 8053SOL    HW125058   4.164   3.580   1.661
 8053SOL    HW225059   4.279   3.464   1.671
 8054SOL     OW25060   4.854   6.340   4.479
 8054SOL    HW125061   4.934   6.347   4.419
 8054SOL    HW225062   4.778   6.299   4.429
 8055SOL     OW25063   1.032   0.102   5.692
 8055SOL    HW125064   1.108   0.052   5.736
 8055SOL    HW225065   0.961   0.120   5.760
 8056SOL     OW25066   4.698   1.318   2.354
 8056SOL    HW125067   4.691   1.374   2.436
 8056SOL    HW225068   4.732   1.227   2.377
 8057SOL     OW25069   3.212   6.982   3.664
 8057SOL    HW125070   3.212   6.937   3.574
 8057SOL    HW225071   3.133   6.951   3.717
 8058SOL     OW25072   1.911   0.253   3.175
 8058SOL    HW125073   1.857   0.169   3.166
 8058SOL    HW225074   2.008   0.230   3.173
 8059SOL     OW25075   1.788   1.153   4.011
 8059SOL    HW125076   1.868   1.201   4.048
 8059SOL    HW225077   1.718   1.220   3.988
 8060SOL     OW25078   0.450   2.491   5.248
 8060SOL    HW125079   0.549   2.487   5.233
 8060SOL    HW225080   0.432   2.542   5.333
 8061SOL     OW25081   6.246   6.602   3.042
 8061SOL    HW125082   6.173   6.621   3.108
 8061SOL    HW225083   6.218   6.526   2.983
 8062SOL     OW25084   1.332   2.967   1.486
 8062SOL    HW125085   1.383   3.047   1.454
 8062SOL    HW225086   1.396   2.898   1.520
 8063SOL     OW25087   2.558   3.041   5.922
 8063SOL    HW125088   2.521   3.046   6.014
 8063SOL    HW225089   2.502   2.979   5.867
 8064SOL     OW25090   6.406   2.509   5.550
 8064SOL    HW125091   6.467   2.568   5.497
 8064SOL    HW225092   6.460   2.451   5.611
 8065SOL     OW25093   4.602   6.858   6.463
 8065SOL    HW125094   4.663   6.815   6.397
 8065SOL    HW225095   4.565   6.942   6.424
 8066SOL     OW25096   1.886   6.984   1.558
 8066SOL    HW125097   1.932   0.026   1.626
 8066SOL    HW225098   1.825   6.920   1.604
 8067SOL     OW25099   4.793   2.254   2.386
 8067SOL    HW125100   4.850   2.308   2.326
 8067SOL    HW225101   4.767   2.169   2.341
 8068SOL     OW25102   6.600   5.017   4.247
 8068SOL    HW125103   6.643   4.927   4.245
 8068SOL    HW225104   6.600   5.052   4.341
 8069SOL     OW25105   0.942   6.528   2.059
 8069SOL    HW125106   0.917   6.565   2.149
 8069SOL    HW225107   1.004   6.451   2.072
 8070SOL     OW25108   3.401   0.365   2.254
 8070SOL    HW125109   3.490   0.399   2.224
 8070SOL    HW225110   3.363   0.306   2.183
 8071SOL     OW25111   5.164   5.060   6.961
 8071SOL    HW125112   5.214   4.998   6.901
 8071SOL    HW225113   5.223   5.137   6.987
 8072SOL     OW25114   4.091   0.656   2.968
 8072SOL    HW125115   4.086   0.609   2.879
 8072SOL    HW225116   3.999   0.665   3.005
 8073SOL     OW25117   5.022   0.364   6.417
 8073SOL    HW125118   4.937   0.319   6.442
 8073SOL    HW225119   5.090   0.352   6.490
 8074SOL     OW25120   2.989   3.963   6.845
 8074SOL    HW125121   2.989   4.002   6.937
 8074SOL    HW225122   3.008   3.865   6.850
 8075SOL     OW25123   6.073   1.998   3.713
 8075SOL    HW125124   6.057   2.096   3.698
 8075SOL    HW225125   6.129   1.986   3.795
 8076SOL     OW25126   4.911   3.220   6.346
 8076SOL    HW125127   4.922   3.151   6.274
 8076SOL    HW225128   4.854   3.183   6.419
 8077SOL     OW25129   0.832   0.255   0.182
 8077SOL    HW125130   0.912   0.284   0.128
 8077SOL    HW225131   0.843   0.285   0.277
 8078SOL     OW25132   5.768   3.277   1.037
 8078SOL    HW125133   5.850   3.294   0.982
 8078SOL    HW225134   5.779   3.320   1.127
 8079SOL     OW25135   1.399   2.269   1.009
 8079SOL    HW125136   1.414   2.353   0.958
 8079SOL    HW225137   1.413   2.190   0.948
 8080SOL     OW25138   3.921   5.275   6.761
 8080SOL    HW125139   3.909   5.291   6.860
 8080SOL    HW225140   3.833   5.285   6.715
 8081SOL     OW25141   5.887   2.417   4.738
 8081SOL    HW125142   5.920   2.325   4.757
 8081SOL    HW225143   5.823   2.445   4.810
 8082SOL     OW25144   6.160   3.753   4.891
 8082SOL    HW125145   6.208   3.693   4.956
 8082SOL    HW225146   6.061   3.740   4.900
 8083SOL     OW25147   5.797   1.718   5.016
 8083SOL    HW125148   5.741   1.648   4.972
 8083SOL    HW225149   5.883   1.677   5.047
 8084SOL     OW25150   6.345   0.207   0.223
 8084SOL    HW125151   6.273   0.224   0.156
 8084SOL    HW225152   6.306   0.171   0.307
 8085SOL     OW25153   4.809   2.511   0.500
 8085SOL    HW125154   4.749   2.480   0.426
 8085SOL    HW225155   4.786   2.605   0.525
 8086SOL     OW25156   2.378   5.269   5.712
 8086SOL    HW125157   2.307   5.276   5.641
 8086SOL    HW225158   2.339   5.225   5.793
 8087SOL     OW25159   2.435   3.781   1.002
 8087SOL    HW125160   2.381   3.783   1.085
 8087SOL    HW225161   2.429   3.690   0.961
 8088SOL     OW25162   4.624   0.860   3.309
 8088SOL    HW125163   4.698   0.860   3.376
 8088SOL    HW225164   4.537   0.842   3.354
 8089SOL     OW25165   6.617   2.672   0.888
 8089SOL    HW125166   6.550   2.720   0.832
 8089SOL    HW225167   6.709   2.706   0.867
 8090SOL     OW25168   4.415   1.766   5.020
 8090SOL    HW125169   4.501   1.719   5.037
 8090SOL    HW225170   4.426   1.827   4.941
 8091SOL     OW25171   1.791   3.755   5.629
 8091SOL    HW125172   1.887   3.727   5.626
 8091SOL    HW225173   1.768   3.806   5.547
 8092SOL     OW25174   6.192   1.831   4.340
 8092SOL    HW125175   6.113   1.772   4.326
 8092SOL    HW225176   6.163   1.917   4.382
 8093SOL     OW25177   5.746   5.390   0.639
 8093SOL    HW125178   5.807   5.465   0.610
 8093SOL    HW225179   5.775   5.357   0.728
 8094SOL     OW25180   0.556   3.486   4.115
 8094SOL    HW125181   0.513   3.399   4.136
 8094SOL    HW225182   0.628   3.473   4.047
 8095SOL     OW25183   6.359   3.294   4.528
 8095SOL    HW125184   6.345   3.250   4.617
 8095SOL    HW225185   6.321   3.235   4.456
 8096SOL     OW25186   4.384   0.170   0.820
 8096SOL    HW125187   4.320   0.150   0.746
 8096SOL    HW225188   4.333   0.196   0.902
 8097SOL     OW25189   4.631   1.759   4.372
 8097SOL    HW125190   4.606   1.785   4.278
 8097SOL    HW225191   4.729   1.743   4.377
 8098SOL     OW25192   2.081   1.594   4.454
 8098SOL    HW125193   2.063   1.683   4.496
 8098SOL    HW225194   1.999   1.560   4.409
 8099SOL     OW25195   3.641   6.512   4.230
 8099SOL    HW125196   3.671   6.421   4.260
 8099SOL    HW225197   3.685   6.534   4.143
 8100SOL     OW25198   6.740   6.146   1.234
 8100SOL    HW125199   6.661   6.204   1.218
 8100SOL    HW225200   6.806   6.194   1.293
 8101SOL     OW25201   0.522   4.994   1.674
 8101SOL    HW125202   0.619   4.995   1.648
 8101SOL    HW225203   0.508   5.056   1.751
 8102SOL     OW25204   6.631   0.069   5.457
 8102SOL    HW125205   6.676   0.090   5.543
 8102SOL    HW225206   6.610   6.986   5.453
 8103SOL     OW25207   2.427   2.433   2.359
 8103SOL    HW125208   2.493   2.455   2.430
 8103SOL    HW225209   2.474   2.395   2.280
 8104SOL     OW25210   2.596   0.037   6.076
 8104SOL    HW125211   2.677   0.015   6.130
 8104SOL    HW225212   2.620   0.036   5.978
 8105SOL     OW25213   1.807   2.767   3.317
 8105SOL    HW125214   1.752   2.786   3.235
 8105SOL    HW225215   1.746   2.749   3.394
 8106SOL     OW25216   0.510   4.164   5.506
 8106SOL    HW125217   0.436   4.231   5.501
 8106SOL    HW225218   0.477   4.081   5.550
 8107SOL     OW25219   1.027   5.121   6.490
 8107SOL    HW125220   1.091   5.047   6.513
 8107SOL    HW225221   0.951   5.122   6.554
 8108SOL     OW25222   2.161   2.943   5.980
 8108SOL    HW125223   2.166   3.012   6.052
 8108SOL    HW225224   2.221   2.969   5.904
 8109SOL     OW25225   0.520   5.364   5.670
 8109SOL    HW125226   0.612   5.364   5.709
 8109SOL    HW225227   0.526   5.354   5.570
 8110SOL     OW25228   1.257   4.981   0.350
 8110SOL    HW125229   1.171   5.019   0.385
 8110SOL    HW225230   1.296   5.044   0.283
 8111SOL     OW25231   3.260   5.724   3.912
 8111SOL    HW125232   3.182   5.763   3.960
 8111SOL    HW225233   3.295   5.788   3.844
 8112SOL     OW25234   3.899   1.209   3.820
 8112SOL    HW125235   3.951   1.132   3.782
 8112SOL    HW225236   3.952   1.253   3.892
 8113SOL     OW25237   3.098   2.588   5.687
 8113SOL    HW125238   3.039   2.616   5.763
 8113SOL    HW225239   3.047   2.594   5.601
 8114SOL     OW25240   3.071   3.579   1.587
 8114SOL    HW125241   3.104   3.648   1.522
 8114SOL    HW225242   2.975   3.557   1.566
 8115SOL     OW25243   3.769   2.824   1.007
 8115SOL    HW125244   3.687   2.838   0.952
 8115SOL    HW225245   3.817   2.912   1.018
 8116SOL     OW25246   5.418   1.672   5.784
 8116SOL    HW125247   5.486   1.742   5.803
 8116SOL    HW225248   5.423   1.645   5.688
 8117SOL     OW25249   3.293   2.691   5.954
 8117SOL    HW125250   3.363   2.623   5.932
 8117SOL    HW225251   3.234   2.655   6.026
 8118SOL     OW25252   1.230   2.271   3.790
 8118SOL    HW125253   1.135   2.253   3.815
 8118SOL    HW225254   1.289   2.253   3.869
 8119SOL     OW25255   1.469   6.601   2.391
 8119SOL    HW125256   1.423   6.689   2.398
 8119SOL    HW225257   1.406   6.528   2.419
 8120SOL     OW25258   4.652   4.351   2.473
 8120SOL    HW125259   4.640   4.400   2.559
 8120SOL    HW225260   4.576   4.373   2.411
 8121SOL     OW25261   6.962   6.001   2.787
 8121SOL    HW125262   6.873   5.960   2.769
 8121SOL    HW225263   6.950   6.085   2.839
 8122SOL     OW25264   0.043   5.466   1.825
 8122SOL    HW125265   7.012   5.533   1.882
 8122SOL    HW225266   0.122   5.429   1.874
 8123SOL     OW25267   1.346   5.097   6.901
 8123SOL    HW125268   1.348   5.197   6.894
 8123SOL    HW225269   1.289   5.070   6.978
 8124SOL     OW25270   1.591   6.431   2.795
 8124SOL    HW125271   1.648   6.487   2.855
 8124SOL    HW225272   1.644   6.400   2.717
 8125SOL     OW25273   5.350   4.932   2.957
 8125SOL    HW125274   5.413   5.005   2.984
 8125SOL    HW225275   5.388   4.883   2.878
 8126SOL     OW25276   0.120   4.950   1.866
 8126SOL    HW125277   0.061   4.942   1.786
 8126SOL    HW225278   0.146   5.046   1.878
 8127SOL     OW25279   3.970   5.194   1.129
 8127SOL    HW125280   3.962   5.100   1.097
 8127SOL    HW225281   3.918   5.255   1.069
 8128SOL     OW25282   3.905   2.058   5.712
 8128SOL    HW125283   3.881   1.978   5.767
 8128SOL    HW225284   3.822   2.100   5.677
 8129SOL     OW25285   4.718   5.858   6.626
 8129SOL    HW125286   4.773   5.846   6.708
 8129SOL    HW225287   4.726   5.953   6.595
 8130SOL     OW25288   0.597   0.064   6.293
 8130SOL    HW125289   0.608   0.130   6.368
 8130SOL    HW225290   0.687   0.028   6.268
 8131SOL     OW25291   2.456   1.925   1.240
 8131SOL    HW125292   2.484   1.982   1.317
 8131SOL    HW225293   2.399   1.850   1.273
 8132SOL     OW25294   5.646   4.625   2.876
 8132SOL    HW125295   5.610   4.542   2.918
 8132SOL    HW225296   5.597   4.644   2.791
 8133SOL     OW25297   0.401   5.630   2.047
 8133SOL    HW125298   0.404   5.675   1.958
 8133SOL    HW225299   0.488   5.585   2.064
 8134SOL     OW25300   2.281   2.459   1.778
 8134SOL    HW125301   2.375   2.426   1.770
 8134SOL    HW225302   2.280   2.549   1.821
 8135SOL     OW25303   3.837   6.365   2.612
 8135SOL    HW125304   3.880   6.411   2.689
 8135SOL    HW225305   3.902   6.300   2.571
 8136SOL     OW25306   2.174   6.124   1.857
 8136SOL    HW125307   2.267   6.118   1.893
 8136SOL    HW225308   2.159   6.050   1.791
 8137SOL     OW25309   3.067   3.708   5.362
 8137SOL    HW125310   3.054   3.764   5.444
 8137SOL    HW225311   2.994   3.727   5.296
 8138SOL     OW25312   4.682   1.277   3.553
 8138SOL    HW125313   4.780   1.297   3.552
 8138SOL    HW225314   4.657   1.230   3.469
 8139SOL     OW25315   1.434   3.070   6.306
 8139SOL    HW125316   1.432   3.010   6.226
 8139SOL    HW225317   1.498   3.034   6.374
 8140SOL     OW25318   5.080   1.563   0.933
 8140SOL    HW125319   5.116   1.506   1.007
 8140SOL    HW225320   4.981   1.566   0.938
 8141SOL     OW25321   6.036   0.878   5.215
 8141SOL    HW125322   5.942   0.862   5.186
 8141SOL    HW225323   6.053   0.977   5.218
 8142SOL     OW25324   3.575   5.610   0.610
 8142SOL    HW125325   3.561   5.577   0.703
 8142SOL    HW225326   3.672   5.615   0.590
 8143SOL     OW25327   5.771   4.894   6.940
 8143SOL    HW125328   5.784   4.883   0.023
 8143SOL    HW225329   5.788   4.807   6.894
 8144SOL     OW25330   1.644   5.468   6.571
 8144SOL    HW125331   1.563   5.424   6.535
 8144SOL    HW225332   1.701   5.401   6.619
 8145SOL     OW25333   5.598   5.751   5.929
 8145SOL    HW125334   5.688   5.750   5.972
 8145SOL    HW225335   5.604   5.710   5.839
 8146SOL     OW25336   0.037   6.348   4.618
 8146SOL    HW125337   0.054   6.353   4.520
 8146SOL    HW225338   0.005   6.257   4.642
 8147SOL     OW25339   2.403   0.047   4.837
 8147SOL    HW125340   2.355   0.119   4.887
 8147SOL    HW225341   2.437   6.994   4.902
 8148SOL     OW25342   5.256   4.523   0.353
 8148SOL    HW125343   5.347   4.482   0.342
 8148SOL    HW225344   5.230   4.567   0.267
 8149SOL     OW25345   1.925   6.713   5.380
 8149SOL    HW125346   2.012   6.689   5.422
 8149SOL    HW225347   1.904   6.809   5.400
 8150SOL     OW25348   0.386   4.302   0.585
 8150SOL    HW125349   0.362   4.221   0.639
 8150SOL    HW225350   0.366   4.285   0.489
 8151SOL     OW25351   6.363   4.436   1.947
 8151SOL    HW125352   6.403   4.345   1.940
 8151SOL    HW225353   6.265   4.428   1.964
 8152SOL     OW25354   5.087   2.167   3.768
 8152SOL    HW125355   4.996   2.202   3.788
 8152SOL    HW225356   5.146   2.242   3.738
 8153SOL     OW25357   0.101   1.770   1.424
 8153SOL    HW125358   0.101   1.844   1.356
 8153SOL    HW225359   0.024   1.782   1.486
 8154SOL     OW25360   0.861   0.825   3.694
 8154SOL    HW125361   0.861   0.798   3.597
 8154SOL    HW225362   0.800   0.765   3.745
 8155SOL     OW25363   1.017   4.612   4.483
 8155SOL    HW125364   1.077   4.597   4.404
 8155SOL    HW225365   1.008   4.526   4.533
 8156SOL     OW25366   1.384   3.953   0.487
 8156SOL    HW125367   1.344   3.944   0.396
 8156SOL    HW225368   1.311   3.950   0.556
 8157SOL     OW25369   6.038   4.636   4.495
 8157SOL    HW125370   6.064   4.728   4.465
 8157SOL    HW225371   6.002   4.584   4.417
 8158SOL     OW25372   6.322   5.037   6.415
 8158SOL    HW125373   6.347   5.047   6.511
 8158SOL    HW225374   6.260   4.959   6.404
 8159SOL     OW25375   2.829   6.878   5.265
 8159SOL    HW125376   2.833   6.905   5.169
 8159SOL    HW225377   2.789   6.952   5.319
 8160SOL     OW25378   5.561   2.837   2.881
 8160SOL    HW125379   5.519   2.760   2.834
 8160SOL    HW225380   5.653   2.813   2.910
 8161SOL     OW25381   0.045   2.379   2.150
 8161SOL    HW125382   6.985   2.445   2.149
 8161SOL    HW225383   0.076   2.367   2.244
 8162SOL     OW25384   0.700   6.073   5.549
 8162SOL    HW125385   0.786   6.082   5.498
 8162SOL    HW225386   0.635   6.021   5.495
 8163SOL     OW25387   3.370   4.966   5.628
 8163SOL    HW125388   3.295   4.920   5.582
 8163SOL    HW225389   3.344   5.060   5.649
 8164SOL     OW25390   5.418   1.802   0.187
 8164SOL    HW125391   5.448   1.854   0.267
 8164SOL    HW225392   5.415   1.862   0.107
 8165SOL     OW25393   0.634   2.452   6.294
 8165SOL    HW125394   0.578   2.369   6.294
 8165SOL    HW225395   0.584   2.525   6.340
 8166SOL     OW25396   2.705   2.151   4.547
 8166SOL    HW125397   2.738   2.056   4.551
 8166SOL    HW225398   2.633   2.159   4.478
 8167SOL     OW25399   1.659   2.481   3.337
 8167SOL    HW125400   1.564   2.471   3.366
 8167SOL    HW225401   1.715   2.509   3.414
 8168SOL     OW25402   1.398   6.254   2.631
 8168SOL    HW125403   1.426   6.327   2.694
 8168SOL    HW225404   1.383   6.170   2.683
 8169SOL     OW25405   4.761   4.025   0.482
 8169SOL    HW125406   4.773   3.933   0.519
 8169SOL    HW225407   4.818   4.089   0.533
 8170SOL     OW25408   0.040   4.553   3.034
 8170SOL    HW125409   0.075   4.614   3.105
 8170SOL    HW225410   6.970   4.511   3.064
 8171SOL     OW25411   1.898   1.683   1.714
 8171SOL    HW125412   1.897   1.773   1.758
 8171SOL    HW225413   1.856   1.690   1.623
 8172SOL     OW25414   1.297   4.861   0.589
 8172SOL    HW125415   1.260   4.902   0.506
 8172SOL    HW225416   1.321   4.933   0.654
 8173SOL     OW25417   5.738   6.882   1.622
 8173SOL    HW125418   5.826   6.926   1.604
 8173SOL    HW225419   5.670   6.952   1.643
 8174SOL     OW25420   2.999   6.464   3.781
 8174SOL    HW125421   2.938   6.537   3.812
 8174SOL    HW225422   2.979   6.381   3.832
 8175SOL     OW25423   0.427   1.853   5.592
 8175SOL    HW125424   0.359   1.921   5.565
 8175SOL    HW225425   0.386   1.789   5.656
 8176SOL     OW25426   2.966   5.066   0.169
 8176SOL    HW125427   2.913   4.981   0.174
 8176SOL    HW225428   2.907   5.144   0.190
 8177SOL     OW25429   3.262   0.922   2.523
 8177SOL    HW125430   3.203   1.000   2.544
 8177SOL    HW225431   3.357   0.953   2.513
 8178SOL     OW25432   2.538   5.883   1.298
 8178SOL    HW125433   2.514   5.793   1.336
 8178SOL    HW225434   2.626   5.877   1.251
 8179SOL     OW25435   6.540   6.833   3.947
 8179SOL    HW125436   6.531   6.766   3.874
 8179SOL    HW225437   6.621   6.890   3.931
 8180SOL     OW25438   4.797   4.992   0.647
 8180SOL    HW125439   4.825   5.085   0.620
 8180SOL    HW225440   4.711   4.997   0.699
 8181SOL     OW25441   6.327   0.616   6.456
 8181SOL    HW125442   6.384   0.550   6.506
 8181SOL    HW225443   6.362   0.626   6.362
 8182SOL     OW25444   3.568   3.720   3.046
 8182SOL    HW125445   3.517   3.773   3.114
 8182SOL    HW225446   3.658   3.762   3.032
 8183SOL     OW25447   0.169   0.365   5.557
 8183SOL    HW125448   0.217   0.416   5.484
 8183SOL    HW225449   0.154   0.271   5.527
 8184SOL     OW25450   0.211   6.173   5.056
 8184SOL    HW125451   0.145   6.242   5.027
 8184SOL    HW225452   0.233   6.113   4.980
 8185SOL     OW25453   0.381   5.894   5.077
 8185SOL    HW125454   0.283   5.890   5.063
 8185SOL    HW225455   0.418   5.976   5.033
 8186SOL     OW25456   1.597   5.554   0.391
 8186SOL    HW125457   1.670   5.621   0.380
 8186SOL    HW225458   1.546   5.573   0.475
 8187SOL     OW25459   1.170   6.621   4.588
 8187SOL    HW125460   1.248   6.578   4.543
 8187SOL    HW225461   1.140   6.564   4.664
 8188SOL     OW25462   1.326   2.619   2.858
 8188SOL    HW125463   1.356   2.681   2.786
 8188SOL    HW225464   1.260   2.553   2.820
 8189SOL     OW25465   6.632   5.326   4.452
 8189SOL    HW125466   6.653   5.230   4.473
 8189SOL    HW225467   6.536   5.334   4.427
 8190SOL     OW25468   5.673   3.494   2.512
 8190SOL    HW125469   5.708   3.439   2.587
 8190SOL    HW225470   5.654   3.587   2.544
 8191SOL     OW25471   4.801   5.321   0.845
 8191SOL    HW125472   4.701   5.323   0.842
 8191SOL    HW225473   4.835   5.289   0.756
 8192SOL     OW25474   0.320   5.956   3.245
 8192SOL    HW125475   0.294   6.047   3.278
 8192SOL    HW225476   0.259   5.929   3.171
 8193SOL     OW25477   0.008   4.733   4.196
 8193SOL    HW125478   7.008   4.827   4.166
 8193SOL    HW225479   0.034   4.677   4.117
 8194SOL     OW25480   5.512   0.319   1.926
 8194SOL    HW125481   5.536   0.408   1.965
 8194SOL    HW225482   5.595   0.264   1.916
 8195SOL     OW25483   6.701   6.473   3.317
 8195SOL    HW125484   6.689   6.374   3.326
 8195SOL    HW225485   6.616   6.514   3.284
 8196SOL     OW25486   5.006   0.083   2.293
 8196SOL    HW125487   4.994   0.060   2.196
 8196SOL    HW225488   4.925   0.054   2.344
 8197SOL     OW25489   3.940   1.737   3.343
 8197SOL    HW125490   3.935   1.772   3.250
 8197SOL    HW225491   4.036   1.730   3.371
 8198SOL     OW25492   2.062   5.669   0.685
 8198SOL    HW125493   1.965   5.644   0.694
 8198SOL    HW225494   2.118   5.587   0.695
 8199SOL     OW25495   5.908   2.424   0.370
 8199SOL    HW125496   5.944   2.514   0.348
 8199SOL    HW225497   5.808   2.424   0.361
 8200SOL     OW25498   5.893   4.316   0.309
 8200SOL    HW125499   5.827   4.281   0.375
 8200SOL    HW225500   5.986   4.293   0.338
 8201SOL     OW25501   5.642   0.634   5.367
 8201SOL    HW125502   5.588   0.716   5.383
 8201SOL    HW225503   5.724   0.636   5.424
 8202SOL     OW25504   0.863   5.703   1.677
 8202SOL    HW125505   0.777   5.689   1.629
 8202SOL    HW225506   0.867   5.797   1.713
 8203SOL     OW25507   1.618   2.980   0.320
 8203SOL    HW125508   1.673   3.063   0.321
 8203SOL    HW225509   1.549   2.986   0.248
 8204SOL     OW25510   1.426   3.614   0.453
 8204SOL    HW125511   1.521   3.636   0.478
 8204SOL    HW225512   1.364   3.679   0.497
 8205SOL     OW25513   0.147   3.583   5.804
 8205SOL    HW125514   0.142   3.679   5.832
 8205SOL    HW225515   0.179   3.577   5.710
 8206SOL     OW25516   3.492   1.051   1.492
 8206SOL    HW125517   3.537   1.129   1.450
 8206SOL    HW225518   3.415   1.022   1.434
 8207SOL     OW25519   4.074   3.728   4.135
 8207SOL    HW125520   4.048   3.815   4.095
 8207SOL    HW225521   4.125   3.744   4.219
 8208SOL     OW25522   2.733   0.335   6.728
 8208SOL    HW125523   2.717   0.237   6.739
 8208SOL    HW225524   2.762   0.374   6.816
 8209SOL     OW25525   5.973   2.246   3.986
 8209SOL    HW125526   6.063   2.223   4.023
 8209SOL    HW225527   5.930   2.316   4.043
 8210SOL     OW25528   2.145   2.697   6.116
 8210SOL    HW125529   2.132   2.780   6.062
 8210SOL    HW225530   2.089   2.702   6.199
 8211SOL     OW25531   4.364   4.584   1.165
 8211SOL    HW125532   4.340   4.494   1.202
 8211SOL    HW225533   4.457   4.581   1.129
 8212SOL     OW25534   1.953   3.067   3.049
 8212SOL    HW125535   1.890   3.100   2.979
 8212SOL    HW225536   1.931   2.972   3.072
 8213SOL     OW25537   6.314   4.852   0.623
 8213SOL    HW125538   6.329   4.902   0.538
 8213SOL    HW225539   6.298   4.917   0.698
 8214SOL     OW25540   4.898   3.640   3.103
 8214SOL    HW125541   4.886   3.639   3.004
 8214SOL    HW225542   4.847   3.717   3.142
 8215SOL     OW25543   3.627   5.267   2.103
 8215SOL    HW125544   3.636   5.336   2.031
 8215SOL    HW225545   3.651   5.177   2.067
 8216SOL     OW25546   5.651   3.561   3.671
 8216SOL    HW125547   5.596   3.492   3.625
 8216SOL    HW225548   5.592   3.621   3.726
 8217SOL     OW25549   2.115   5.748   0.401
 8217SOL    HW125550   2.163   5.835   0.413
 8217SOL    HW225551   2.083   5.715   0.490
 8218SOL     OW25552   4.809   2.128   6.868
 8218SOL    HW125553   4.849   2.185   6.940
 8218SOL    HW225554   4.805   2.033   6.899
 8219SOL     OW25555   5.138   2.028   0.097
 8219SOL    HW125556   5.230   2.045   0.131
 8219SOL    HW225557   5.103   1.944   0.137
 8220SOL     OW25558   3.996   3.640   1.551
 8220SOL    HW125559   3.929   3.586   1.501
 8220SOL    HW225560   3.952   3.683   1.630
 8221SOL     OW25561   6.018   4.108   3.366
 8221SOL    HW125562   6.058   4.171   3.433
 8221SOL    HW225563   5.951   4.049   3.411
 8222SOL     OW25564   6.450   0.769   3.096
 8222SOL    HW125565   6.360   0.762   3.052
 8222SOL    HW225566   6.444   0.830   3.175
 8223SOL     OW25567   0.418   4.977   6.854
 8223SOL    HW125568   0.494   4.991   6.791
 8223SOL    HW225569   0.450   4.988   6.948
 8224SOL     OW25570   0.936   4.087   2.290
 8224SOL    HW125571   1.003   4.015   2.269
 8224SOL    HW225572   0.946   4.114   2.386
 8225SOL     OW25573   4.855   1.409   1.219
 8225SOL    HW125574   4.841   1.508   1.226
 8225SOL    HW225575   4.767   1.362   1.231
 8226SOL     OW25576   3.914   0.303   6.918
 8226SOL    HW125577   3.815   0.305   6.901
 8226SOL    HW225578   3.930   0.279   7.014
 8227SOL     OW25579   6.132   4.293   3.538
 8227SOL    HW125580   6.189   4.249   3.608
 8227SOL    HW225581   6.191   4.335   3.469
 8228SOL     OW25582   0.026   1.392   3.837
 8228SOL    HW125583   0.119   1.386   3.874
 8228SOL    HW225584   0.004   1.308   3.788
 8229SOL     OW25585   5.337   5.614   0.629
 8229SOL    HW125586   5.390   5.654   0.704
 8229SOL    HW225587   5.240   5.610   0.657
 8230SOL     OW25588   5.457   6.869   3.123
 8230SOL    HW125589   5.443   6.953   3.176
 8230SOL    HW225590   5.405   6.874   3.038
 8231SOL     OW25591   3.830   5.487   1.581
 8231SOL    HW125592   3.834   5.415   1.651
 8231SOL    HW225593   3.805   5.447   1.493
 8232SOL     OW25594   2.649   1.547   0.367
 8232SOL    HW125595   2.579   1.604   0.322
 8232SOL    HW225596   2.619   1.452   0.367
 8233SOL     OW25597   0.632   5.654   5.891
 8233SOL    HW125598   0.724   5.672   5.856
 8233SOL    HW225599   0.602   5.732   5.946
 8234SOL     OW25600   2.532   3.035   6.841
 8234SOL    HW125601   2.622   3.049   6.883
 8234SOL    HW225602   2.540   2.968   6.767
 8235SOL     OW25603   4.731   2.431   6.430
 8235SOL    HW125604   4.711   2.357   6.494
 8235SOL    HW225605   4.787   2.396   6.355
 8236SOL     OW25606   5.916   2.703   1.197
 8236SOL    HW125607   5.913   2.803   1.204
 8236SOL    HW225608   5.991   2.668   1.253
 8237SOL     OW25609   3.761   6.527   5.557
 8237SOL    HW125610   3.667   6.561   5.553
 8237SOL    HW225611   3.762   6.433   5.592
 8238SOL     OW25612   1.232   0.958   6.404
 8238SOL    HW125613   1.284   0.924   6.482
 8238SOL    HW225614   1.291   0.963   6.324
 8239SOL     OW25615   5.884   1.122   0.109
 8239SOL    HW125616   5.842   1.159   0.192
 8239SOL    HW225617   5.840   1.161   0.028
 8240SOL     OW25618   4.011   3.149   3.108
 8240SOL    HW125619   3.955   3.190   3.180
 8240SOL    HW225620   3.957   3.141   3.024
 8241SOL     OW25621   4.824   6.063   1.670
 8241SOL    HW125622   4.755   6.113   1.723
 8241SOL    HW225623   4.805   6.073   1.573
 8242SOL     OW25624   1.359   4.152   5.547
 8242SOL    HW125625   1.387   4.061   5.516
 8242SOL    HW225626   1.323   4.146   5.640
 8243SOL     OW25627   0.430   3.047   4.643
 8243SOL    HW125628   0.394   3.080   4.730
 8243SOL    HW225629   0.513   3.098   4.619
 8244SOL     OW25630   2.448   5.367   5.130
 8244SOL    HW125631   2.422   5.406   5.042
 8244SOL    HW225632   2.547   5.359   5.135
 8245SOL     OW25633   4.453   3.566   0.985
 8245SOL    HW125634   4.527   3.534   1.045
 8245SOL    HW225635   4.365   3.540   1.025
 8246SOL     OW25636   5.490   3.676   5.116
 8246SOL    HW125637   5.478   3.587   5.160
 8246SOL    HW225638   5.404   3.726   5.118
 8247SOL     OW25639   1.030   6.494   7.008
 8247SOL    HW125640   1.093   6.465   0.065
 8247SOL    HW225641   0.939   6.509   0.032
 8248SOL     OW25642   0.256   4.364   3.250
 8248SOL    HW125643   0.338   4.380   3.306
 8248SOL    HW225644   0.252   4.432   3.178
 8249SOL     OW25645   0.898   5.294   3.031
 8249SOL    HW125646   0.993   5.263   3.026
 8249SOL    HW225647   0.876   5.347   2.949
 8250SOL     OW25648   3.247   3.539   2.040
 8250SOL    HW125649   3.240   3.440   2.027
 8250SOL    HW225650   3.265   3.559   2.136
 8251SOL     OW25651   6.286   1.137   4.659
 8251SOL    HW125652   6.258   1.076   4.585
 8251SOL    HW225653   6.207   1.162   4.714
 8252SOL     OW25654   1.037   3.629   4.316
 8252SOL    HW125655   1.036   3.729   4.313
 8252SOL    HW225656   0.943   3.595   4.322
 8253SOL     OW25657   2.929   3.226   5.728
 8253SOL    HW125658   2.831   3.236   5.743
 8253SOL    HW225659   2.949   3.232   5.630
 8254SOL     OW25660   4.765   5.689   3.193
 8254SOL    HW125661   4.825   5.626   3.242
 8254SOL    HW225662   4.793   5.783   3.210
 8255SOL     OW25663   4.042   4.961   3.655
 8255SOL    HW125664   3.951   5.001   3.649
 8255SOL    HW225665   4.079   4.947   3.564
 8256SOL     OW25666   5.749   2.585   3.668
 8256SOL    HW125667   5.659   2.605   3.706
 8256SOL    HW225668   5.743   2.505   3.608
 8257SOL     OW25669   6.200   4.722   3.989
 8257SOL    HW125670   6.211   4.645   4.051
 8257SOL    HW225671   6.226   4.694   3.896
 8258SOL     OW25672   5.389   1.940   6.992
 8258SOL    HW125673   5.302   1.911   6.952
 8258SOL    HW225674   5.458   1.948   6.920
 8259SOL     OW25675   4.731   1.158   0.901
 8259SOL    HW125676   4.659   1.090   0.920
 8259SOL    HW225677   4.694   1.250   0.914
 8260SOL     OW25678   3.374   5.798   6.791
 8260SOL    HW125679   3.458   5.845   6.820
 8260SOL    HW225680   3.306   5.865   6.763
 8261SOL     OW25681   4.952   1.352   1.511
 8261SOL    HW125682   5.015   1.414   1.466
 8261SOL    HW225683   4.999   1.267   1.536
 8262SOL     OW25684   6.729   2.426   1.434
 8262SOL    HW125685   6.808   2.441   1.493
 8262SOL    HW225686   6.716   2.506   1.375
 8263SOL     OW25687   5.316   1.592   0.774
 8263SOL    HW125688   5.222   1.576   0.805
 8263SOL    HW225689   5.370   1.510   0.789
 8264SOL     OW25690   1.834   4.316   1.546
 8264SOL    HW125691   1.761   4.320   1.615
 8264SOL    HW225692   1.793   4.315   1.455
 8265SOL     OW25693   1.679   0.279   2.686
 8265SOL    HW125694   1.615   0.351   2.712
 8265SOL    HW225695   1.632   0.191   2.686
 8266SOL     OW25696   3.454   0.386   3.322
 8266SOL    HW125697   3.436   0.293   3.288
 8266SOL    HW225698   3.368   0.437   3.326
 8267SOL     OW25699   6.881   3.777   0.666
 8267SOL    HW125700   6.891   3.876   0.665
 8267SOL    HW225701   6.840   3.748   0.753
 8268SOL     OW25702   3.220   5.599   6.847
 8268SOL    HW125703   3.282   5.675   6.825
 8268SOL    HW225704   3.133   5.612   6.798
 8269SOL     OW25705   5.953   2.374   0.630
 8269SOL    HW125706   5.946   2.401   0.534
 8269SOL    HW225707   6.049   2.355   0.652
 8270SOL     OW25708   2.718   6.306   4.238
 8270SOL    HW125709   2.703   6.304   4.140
 8270SOL    HW225710   2.687   6.220   4.279
 8271SOL     OW25711   6.497   2.365   3.239
 8271SOL    HW125712   6.532   2.445   3.289
 8271SOL    HW225713   6.569   2.330   3.179
 8272SOL     OW25714   3.669   1.211   4.246
 8272SOL    HW125715   3.575   1.189   4.273
 8272SOL    HW225716   3.687   1.308   4.262
 8273SOL     OW25717   1.983   6.563   2.029
 8273SOL    HW125718   1.944   6.647   2.066
 8273SOL    HW225719   1.930   6.485   2.062
 8274SOL     OW25720   5.591   4.253   3.527
 8274SOL    HW125721   5.546   4.279   3.612
 8274SOL    HW225722   5.544   4.294   3.450
 8275SOL     OW25723   5.357   2.170   0.210
 8275SOL    HW125724   5.350   2.260   0.165
 8275SOL    HW225725   5.451   2.137   0.203
 8276SOL     OW25726   0.503   1.918   2.845
 8276SOL    HW125727   0.554   1.862   2.910
 8276SOL    HW225728   0.414   1.942   2.885
 8277SOL     OW25729   6.989   1.578   6.884
 8277SOL    HW125730   0.005   1.672   6.894
 8277SOL    HW225731   0.035   1.516   6.933
 8278SOL     OW25732   1.128   2.609   0.815
 8278SOL    HW125733   1.108   2.549   0.738
 8278SOL    HW225734   1.227   2.625   0.820
 8279SOL     OW25735   0.630   6.204   3.792
 8279SOL    HW125736   0.561   6.258   3.841
 8279SOL    HW225737   0.693   6.266   3.744
 8280SOL     OW25738   3.724   2.397   5.994
 8280SOL    HW125739   3.674   2.312   6.013
 8280SOL    HW225740   3.802   2.377   5.936
 8281SOL     OW25741   4.897   5.512   2.504
 8281SOL    HW125742   4.830   5.453   2.547
 8281SOL    HW225743   4.934   5.577   2.571
 8282SOL     OW25744   6.034   2.746   5.925
 8282SOL    HW125745   6.122   2.716   5.963
 8282SOL    HW225746   5.960   2.695   5.969
 8283SOL     OW25747   1.804   2.768   5.957
 8283SOL    HW125748   1.883   2.723   5.915
 8283SOL    HW225749   1.721   2.745   5.905
 8284SOL     OW25750   6.488   4.542   1.713
 8284SOL    HW125751   6.436   4.525   1.797
 8284SOL    HW225752   6.433   4.515   1.634
 8285SOL     OW25753   4.041   3.272   3.832
 8285SOL    HW125754   4.034   3.208   3.908
 8285SOL    HW225755   4.021   3.365   3.864
 8286SOL     OW25756   0.286   2.302   6.693
 8286SOL    HW125757   0.271   2.310   6.595
 8286SOL    HW225758   0.201   2.275   6.738
 8287SOL     OW25759   1.517   6.297   4.072
 8287SOL    HW125760   1.568   6.213   4.054
 8287SOL    HW225761   1.419   6.276   4.072
 8288SOL     OW25762   3.214   1.792   3.210
 8288SOL    HW125763   3.223   1.891   3.210
 8288SOL    HW225764   3.133   1.766   3.263
 8289SOL     OW25765   0.327   5.919   6.610
 8289SOL    HW125766   0.296   5.870   6.529
 8289SOL    HW225767   0.423   5.945   6.597
 8290SOL     OW25768   5.982   2.361   0.998
 8290SOL    HW125769   5.988   2.277   0.943
 8290SOL    HW225770   5.989   2.338   1.095
 8291SOL     OW25771   4.034   0.663   0.427
 8291SOL    HW125772   4.130   0.689   0.420
 8291SOL    HW225773   4.002   0.682   0.520
 8292SOL     OW25774   3.027   0.461   6.040
 8292SOL    HW125775   3.099   0.452   5.971
 8292SOL    HW225776   3.009   0.372   6.082
 8293SOL     OW25777   5.940   5.146   5.039
 8293SOL    HW125778   5.865   5.097   5.083
 8293SOL    HW225779   5.905   5.198   4.961
 8294SOL     OW25780   6.180   3.191   6.863
 8294SOL    HW125781   6.274   3.175   6.833
 8294SOL    HW225782   6.156   3.126   6.935
 8295SOL     OW25783   4.827   3.291   6.952
 8295SOL    HW125784   4.741   3.251   6.921
 8295SOL    HW225785   4.867   3.233   0.007
 8296SOL     OW25786   1.348   4.974   5.876
 8296SOL    HW125787   1.250   4.954   5.873
 8296SOL    HW225788   1.370   5.018   5.963
 8297SOL     OW25789   1.483   2.791   4.006
 8297SOL    HW125790   1.472   2.890   3.998
 8297SOL    HW225791   1.394   2.750   4.028
 8298SOL     OW25792   4.684   1.745   1.701
 8298SOL    HW125793   4.701   1.800   1.619
 8298SOL    HW225794   4.691   1.648   1.678
 8299SOL     OW25795   6.024   2.274   1.301
 8299SOL    HW125796   6.116   2.306   1.281
 8299SOL    HW225797   6.012   2.267   1.400
 8300SOL     OW25798   1.199   5.422   3.169
 8300SOL    HW125799   1.149   5.372   3.239
 8300SOL    HW225800   1.297   5.408   3.181
 8301SOL     OW25801   2.524   1.949   6.748
 8301SOL    HW125802   2.582   2.016   6.793
 8301SOL    HW225803   2.490   1.987   6.661
 8302SOL     OW25804   5.789   5.683   5.390
 8302SOL    HW125805   5.775   5.587   5.364
 8302SOL    HW225806   5.702   5.732   5.384
 8303SOL     OW25807   0.012   0.417   6.392
 8303SOL    HW125808   0.078   0.462   6.452
 8303SOL    HW225809   0.034   0.319   6.386
 8304SOL     OW25810   0.247   3.511   0.709
 8304SOL    HW125811   0.176   3.495   0.641
 8304SOL    HW225812   0.222   3.590   0.765
 8305SOL     OW25813   3.963   5.446   3.257
 8305SOL    HW125814   3.977   5.400   3.170
 8305SOL    HW225815   3.924   5.537   3.241
 8306SOL     OW25816   1.601   3.054   4.303
 8306SOL    HW125817   1.589   2.958   4.278
 8306SOL    HW225818   1.684   3.089   4.259
 8307SOL     OW25819   4.018   5.641   1.054
 8307SOL    HW125820   4.114   5.613   1.059
 8307SOL    HW225821   3.998   5.674   0.962
 8308SOL     OW25822   3.037   0.267   2.413
 8308SOL    HW125823   3.107   0.335   2.435
 8308SOL    HW225824   2.995   0.290   2.325
 8309SOL     OW25825   5.791   6.643   2.056
 8309SOL    HW125826   5.714   6.607   2.108
 8309SOL    HW225827   5.799   6.741   2.071
 8310SOL     OW25828   6.268   4.525   6.811
 8310SOL    HW125829   6.276   4.561   6.718
 8310SOL    HW225830   6.204   4.582   6.863
 8311SOL     OW25831   6.134   0.332   6.276
 8311SOL    HW125832   6.221   0.286   6.257
 8311SOL    HW225833   6.142   0.384   6.361
 8312SOL     OW25834   5.191   6.411   1.557
 8312SOL    HW125835   5.175   6.330   1.613
 8312SOL    HW225836   5.107   6.465   1.553
 8313SOL     OW25837   3.918   1.399   2.531
 8313SOL    HW125838   3.942   1.402   2.628
 8313SOL    HW225839   3.828   1.438   2.517
 8314SOL     OW25840   0.237   6.230   3.286
 8314SOL    HW125841   0.195   6.277   3.208
 8314SOL    HW225842   0.181   6.243   3.367
 8315SOL     OW25843   4.826   4.595   6.366
 8315SOL    HW125844   4.779   4.544   6.294
 8315SOL    HW225845   4.912   4.631   6.331
 8316SOL     OW25846   2.932   5.722   6.447
 8316SOL    HW125847   2.868   5.793   6.417
 8316SOL    HW225848   2.921   5.706   6.545
 8317SOL     OW25849   2.128   4.025   1.675
 8317SOL    HW125850   2.175   3.937   1.679
 8317SOL    HW225851   2.179   4.093   1.728
 8318SOL     OW25852   3.351   1.207   5.998
 8318SOL    HW125853   3.414   1.284   5.993
 8318SOL    HW225854   3.390   1.129   5.949
 8319SOL     OW25855   3.447   0.633   5.380
 8319SOL    HW125856   3.407   0.714   5.337
 8319SOL    HW225857   3.503   0.661   5.458
 8320SOL     OW25858   4.323   4.892   1.291
 8320SOL    HW125859   4.333   4.950   1.371
 8320SOL    HW225860   4.253   4.823   1.308
 8321SOL     OW25861   6.810   1.034   0.818
 8321SOL    HW125862   6.868   1.045   0.899
 8321SOL    HW225863   6.797   0.936   0.800
 8322SOL     OW25864   5.604   6.926   6.726
 8322SOL    HW125865   5.555   6.990   6.785
 8322SOL    HW225866   5.693   6.906   6.765
 8323SOL     OW25867   1.706   0.791   1.771
 8323SOL    HW125868   1.656   0.871   1.806
 8323SOL    HW225869   1.769   0.758   1.841
 8324SOL     OW25870   6.464   1.307   2.501
 8324SOL    HW125871   6.553   1.330   2.541
 8324SOL    HW225872   6.479   1.264   2.412
 8325SOL     OW25873   3.922   4.048   4.667
 8325SOL    HW125874   3.861   4.043   4.746
 8325SOL    HW225875   3.928   4.143   4.636
 8326SOL     OW25876   4.206   2.449   6.539
 8326SOL    HW125877   4.115   2.449   6.581
 8326SOL    HW225878   4.206   2.508   6.459
 8327SOL     OW25879   5.491   2.294   6.444
 8327SOL    HW125880   5.461   2.212   6.396
 8327SOL    HW225881   5.491   2.371   6.380
 8328SOL     OW25882   2.296   2.825   4.077
 8328SOL    HW125883   2.317   2.727   4.083
 8328SOL    HW225884   2.295   2.864   4.170
 8329SOL     OW25885   0.705   2.154   4.642
 8329SOL    HW125886   0.707   2.244   4.599
 8329SOL    HW225887   0.676   2.164   4.738
 8330SOL     OW25888   2.193   0.015   0.685
 8330SOL    HW125889   2.098   0.046   0.682
 8330SOL    HW225890   2.239   0.059   0.763
 8331SOL     OW25891   2.903   6.725   1.089
 8331SOL    HW125892   2.853   6.668   1.024
 8331SOL    HW225893   2.981   6.673   1.125
 8332SOL     OW25894   4.915   6.036   3.483
 8332SOL    HW125895   5.000   6.063   3.528
 8332SOL    HW225896   4.933   5.961   3.420
 8333SOL     OW25897   1.613   5.032   5.658
 8333SOL    HW125898   1.613   4.939   5.693
 8333SOL    HW225899   1.539   5.043   5.591
 8334SOL     OW25900   6.587   6.989   4.244
 8334SOL    HW125901   6.613   0.019   4.158
 8334SOL    HW225902   6.532   0.037   4.300
 8335SOL     OW25903   6.458   6.024   5.712
 8335SOL    HW125904   6.425   6.042   5.620
 8335SOL    HW225905   6.408   6.081   5.777
 8336SOL     OW25906   0.979   1.914   3.002
 8336SOL    HW125907   0.933   1.833   2.964
 8336SOL    HW225908   0.918   1.993   2.993
 8337SOL     OW25909   0.400   6.132   2.376
 8337SOL    HW125910   0.446   6.200   2.319
 8337SOL    HW225911   0.397   6.044   2.328
 8338SOL     OW25912   1.787   4.727   0.725
 8338SOL    HW125913   1.764   4.781   0.806
 8338SOL    HW225914   1.868   4.767   0.682
 8339SOL     OW25915   5.711   0.836   3.196
 8339SOL    HW125916   5.711   0.921   3.249
 8339SOL    HW225917   5.622   0.792   3.203
 8340SOL     OW25918   4.621   3.661   1.408
 8340SOL    HW125919   4.624   3.737   1.473
 8340SOL    HW225920   4.681   3.588   1.440
 8341SOL     OW25921   2.451   0.167   0.858
 8341SOL    HW125922   2.407   0.248   0.820
 8341SOL    HW225923   2.546   0.189   0.883
 8342SOL     OW25924   5.277   6.925   1.249
 8342SOL    HW125925   5.271   6.896   1.344
 8342SOL    HW225926   5.303   6.847   1.192
 8343SOL     OW25927   0.582   4.934   5.762
 8343SOL    HW125928   0.599   5.020   5.809
 8343SOL    HW225929   0.654   4.917   5.695
 8344SOL     OW25930   3.855   0.157   5.042
 8344SOL    HW125931   3.872   0.059   5.038
 8344SOL    HW225932   3.882   0.192   5.132
 8345SOL     OW25933   6.135   1.188   3.142
 8345SOL    HW125934   6.039   1.209   3.125
 8345SOL    HW225935   6.192   1.265   3.115
 8346SOL     OW25936   3.372   5.424   1.888
 8346SOL    HW125937   3.398   5.362   1.962
 8346SOL    HW225938   3.361   5.517   1.925
 8347SOL     OW25939   3.391   5.223   4.241
 8347SOL    HW125940   3.349   5.261   4.324
 8347SOL    HW225941   3.320   5.207   4.172
 8348SOL     OW25942   1.743   0.591   0.631
 8348SOL    HW125943   1.813   0.660   0.647
 8348SOL    HW225944   1.670   0.602   0.700
 8349SOL     OW25945   6.276   5.590   1.676
 8349SOL    HW125946   6.273   5.491   1.663
 8349SOL    HW225947   6.241   5.636   1.595
 8350SOL     OW25948   6.637   0.333   4.690
 8350SOL    HW125949   6.737   0.334   4.693
 8350SOL    HW225950   6.603   0.427   4.694
 8351SOL     OW25951   2.835   6.272   2.001
 8351SOL    HW125952   2.819   6.309   1.910
 8351SOL    HW225953   2.922   6.222   2.003
 8352SOL     OW25954   6.436   6.208   2.038
 8352SOL    HW125955   6.480   6.121   2.061
 8352SOL    HW225956   6.370   6.193   1.965
 8353SOL     OW25957   1.268   3.447   2.099
 8353SOL    HW125958   1.315   3.535   2.107
 8353SOL    HW225959   1.244   3.413   2.190
 8354SOL     OW25960   2.720   0.538   0.362
 8354SOL    HW125961   2.670   0.454   0.383
 8354SOL    HW225962   2.789   0.519   0.291
 8355SOL     OW25963   3.233   1.189   0.659
 8355SOL    HW125964   3.154   1.246   0.634
 8355SOL    HW225965   3.212   1.137   0.741
 8356SOL     OW25966   2.732   5.450   0.669
 8356SOL    HW125967   2.737   5.527   0.733
 8356SOL    HW225968   2.796   5.466   0.594
 8357SOL     OW25969   4.593   6.408   3.469
 8357SOL    HW125970   4.662   6.481   3.469
 8357SOL    HW225971   4.613   6.343   3.542
 8358SOL     OW25972   2.856   2.298   5.227
 8358SOL    HW125973   2.868   2.199   5.218
 8358SOL    HW225974   2.933   2.344   5.182
 8359SOL     OW25975   4.157   4.720   3.796
 8359SOL    HW125976   4.228   4.714   3.726
 8359SOL    HW225977   4.094   4.794   3.774
 8360SOL     OW25978   4.135   0.489   2.740
 8360SOL    HW125979   4.199   0.456   2.809
 8360SOL    HW225980   4.132   0.425   2.663
 8361SOL     OW25981   1.410   0.276   2.825
 8361SOL    HW125982   1.380   0.293   2.919
 8361SOL    HW225983   1.430   0.179   2.814
 8362SOL     OW25984   2.043   3.071   0.284
 8362SOL    HW125985   2.112   2.999   0.294
 8362SOL    HW225986   2.088   3.160   0.275
 8363SOL     OW25987   0.430   3.674   1.310
 8363SOL    HW125988   0.487   3.637   1.383
 8363SOL    HW225989   0.342   3.626   1.310
 8364SOL     OW25990   6.714   4.443   4.956
 8364SOL    HW125991   6.770   4.397   4.887
 8364SOL    HW225992   6.713   4.541   4.938
 8365SOL     OW25993   0.809   3.747   6.334
 8365SOL    HW125994   0.894   3.800   6.336
 8365SOL    HW225995   0.830   3.651   6.315
 8366SOL     OW25996   2.259   0.021   2.951
 8366SOL    HW125997   2.296   0.105   2.912
 8366SOL    HW225998   2.320   6.960   2.928
 8367SOL     OW25999   4.771   5.512   3.625
 8367SOL    HW126000   4.824   5.427   3.638
 8367SOL    HW226001   4.740   5.546   3.714
 8368SOL     OW26002   3.508   5.722   5.929
 8368SOL    HW126003   3.499   5.789   5.856
 8368SOL    HW226004   3.586   5.746   5.987
 8369SOL     OW26005   2.584   1.434   1.515
 8369SOL    HW126006   2.486   1.442   1.536
 8369SOL    HW226007   2.610   1.507   1.451
 8370SOL     OW26008   1.665   1.631   0.219
 8370SOL    HW126009   1.627   1.539   0.227
 8370SOL    HW226010   1.658   1.662   0.124
 8371SOL     OW26011   2.029   2.375   6.992
 8371SOL    HW126012   2.045   2.459   6.941
 8371SOL    HW226013   2.054   2.297   6.935
 8372SOL     OW26014   6.627   0.588   1.134
 8372SOL    HW126015   6.616   0.504   1.188
 8372SOL    HW226016   6.557   0.591   1.063
 8373SOL     OW26017   1.422   6.481   4.586
 8373SOL    HW126018   1.397   6.441   4.498
 8373SOL    HW226019   1.412   6.412   4.658
 8374SOL     OW26020   6.739   0.417   5.816
 8374SOL    HW126021   6.814   0.374   5.765
 8374SOL    HW226022   6.665   0.439   5.753
 8375SOL     OW26023   4.120   0.514   6.192
 8375SOL    HW126024   4.130   0.614   6.184
 8375SOL    HW226025   4.152   0.485   6.282
 8376SOL     OW26026   4.485   0.318   4.534
 8376SOL    HW126027   4.566   0.265   4.509
 8376SOL    HW226028   4.514   0.407   4.571
 8377SOL     OW26029   5.646   4.885   1.076
 8377SOL    HW126030   5.743   4.874   1.096
 8377SOL    HW226031   5.634   4.924   0.985
 8378SOL     OW26032   4.910   3.060   3.816
 8378SOL    HW126033   4.981   3.123   3.783
 8378SOL    HW226034   4.903   2.982   3.752
 8379SOL     OW26035   5.140   2.703   2.331
 8379SOL    HW126036   5.130   2.800   2.353
 8379SOL    HW226037   5.230   2.687   2.291
 8380SOL     OW26038   5.562   1.695   3.631
 8380SOL    HW126039   5.537   1.609   3.587
 8380SOL    HW226040   5.616   1.751   3.568
 8381SOL     OW26041   1.794   5.433   4.095
 8381SOL    HW126042   1.845   5.423   4.010
 8381SOL    HW226043   1.707   5.385   4.088
 8382SOL     OW26044   0.750   4.661   2.336
 8382SOL    HW126045   0.728   4.564   2.324
 8382SOL    HW226046   0.666   4.715   2.327
 8383SOL     OW26047   3.568   1.184   5.229
 8383SOL    HW126048   3.495   1.150   5.170
 8383SOL    HW226049   3.543   1.275   5.263
 8384SOL     OW26050   0.951   6.681   1.706
 8384SOL    HW126051   1.035   6.698   1.655
 8384SOL    HW226052   0.941   6.583   1.724
 8385SOL     OW26053   4.513   2.163   0.923
 8385SOL    HW126054   4.417   2.170   0.950
 8385SOL    HW226055   4.560   2.249   0.943
 8386SOL     OW26056   0.700   4.002   2.597
 8386SOL    HW126057   0.694   3.918   2.651
 8386SOL    HW226058   0.721   3.979   2.502
 8387SOL     OW26059   1.072   1.881   1.488
 8387SOL    HW126060   1.143   1.935   1.535
 8387SOL    HW226061   0.993   1.940   1.470
 8388SOL     OW26062   1.040   6.861   2.974
 8388SOL    HW126063   0.976   6.925   3.014
 8388SOL    HW226064   0.992   6.777   2.947
 8389SOL     OW26065   6.133   2.923   3.371
 8389SOL    HW126066   6.197   2.846   3.377
 8389SOL    HW226067   6.040   2.891   3.389
 8390SOL     OW26068   6.021   1.582   6.537
 8390SOL    HW126069   5.991   1.675   6.516
 8390SOL    HW226070   6.106   1.585   6.589
 8391SOL     OW26071   6.881   6.995   1.167
 8391SOL    HW126072   6.807   0.031   1.212
 8391SOL    HW226073   6.858   6.897   1.169
 8392SOL     OW26074   3.446   3.182   5.531
 8392SOL    HW126075   3.464   3.280   5.537
 8392SOL    HW226076   3.373   3.166   5.464
 8393SOL     OW26077   5.642   0.064   1.338
 8393SOL    HW126078   5.577   0.134   1.307
 8393SOL    HW226079   5.716   0.108   1.389
 8394SOL     OW26080   5.784   2.693   2.264
 8394SOL    HW126081   5.862   2.634   2.242
 8394SOL    HW226082   5.793   2.727   2.357
 8395SOL     OW26083   2.321   1.015   5.043
 8395SOL    HW126084   2.236   0.977   5.080
 8395SOL    HW226085   2.300   1.097   4.990
 8396SOL     OW26086   5.079   5.408   4.129
 8396SOL    HW126087   5.048   5.387   4.222
 8396SOL    HW226088   5.150   5.343   4.102
 8397SOL     OW26089   0.004   0.100   2.716
 8397SOL    HW126090   0.017   0.151   2.801
 8397SOL    HW226091   6.927   0.117   2.682
 8398SOL     OW26092   5.918   1.904   6.498
 8398SOL    HW126093   5.972   1.966   6.443
 8398SOL    HW226094   5.925   1.929   6.595
 8399SOL     OW26095   0.167   4.477   1.981
 8399SOL    HW126096   0.135   4.426   2.061
 8399SOL    HW226097   0.239   4.425   1.935
 8400SOL     OW26098   1.248   1.209   4.943
 8400SOL    HW126099   1.268   1.224   4.846
 8400SOL    HW226100   1.184   1.279   4.975
 8401SOL     OW26101   1.984   0.254   5.735
 8401SOL    HW126102   1.913   0.230   5.802
 8401SOL    HW226103   2.041   0.173   5.717
 8402SOL     OW26104   3.260   0.586   6.633
 8402SOL    HW126105   3.168   0.625   6.633
 8402SOL    HW226106   3.323   0.651   6.677
 8403SOL     OW26107   5.408   4.802   5.275
 8403SOL    HW126108   5.419   4.717   5.327
 8403SOL    HW226109   5.474   4.805   5.200
 8404SOL     OW26110   1.021   1.508   6.953
 8404SOL    HW126111   0.930   1.467   6.943
 8404SOL    HW226112   1.079   1.481   6.877
 8405SOL     OW26113   3.977   6.878   5.348
 8405SOL    HW126114   3.991   6.890   5.249
 8405SOL    HW226115   3.904   6.811   5.363
 8406SOL     OW26116   5.495   0.184   6.006
 8406SOL    HW126117   5.424   0.158   6.072
 8406SOL    HW226118   5.536   0.271   6.034
 8407SOL     OW26119   4.215   0.508   4.315
 8407SOL    HW126120   4.180   0.587   4.265
 8407SOL    HW226121   4.149   0.480   4.384
 8408SOL     OW26122   3.962   1.962   1.325
 8408SOL    HW126123   3.889   1.919   1.378
 8408SOL    HW226124   4.007   1.894   1.267
 8409SOL     OW26125   4.529   2.427   2.045
 8409SOL    HW126126   4.473   2.386   2.117
 8409SOL    HW226127   4.569   2.354   1.989
 8410SOL     OW26128   6.933   1.850   1.673
 8410SOL    HW126129   6.990   1.928   1.700
 8410SOL    HW226130   6.874   1.877   1.597
 8411SOL     OW26131   1.034   6.350   0.979
 8411SOL    HW126132   1.127   6.358   1.014
 8411SOL    HW226133   0.970   6.340   1.055
 8412SOL     OW26134   2.700   2.803   6.648
 8412SOL    HW126135   2.773   2.845   6.701
 8412SOL    HW226136   2.737   2.725   6.596
 8413SOL     OW26137   3.871   5.549   4.592
 8413SOL    HW126138   3.803   5.483   4.623
 8413SOL    HW226139   3.884   5.620   4.663
 8414SOL     OW26140   1.723   0.088   0.550
 8414SOL    HW126141   1.674   0.148   0.487
 8414SOL    HW226142   1.658   0.051   0.617
 8415SOL     OW26143   3.239   1.862   6.262
 8415SOL    HW126144   3.202   1.795   6.196
 8415SOL    HW226145   3.339   1.865   6.254
 8416SOL     OW26146   0.307   2.309   5.088
 8416SOL    HW126147   0.358   2.388   5.122
 8416SOL    HW226148   0.233   2.341   5.029
 8417SOL     OW26149   1.750   3.344   6.106
 8417SOL    HW126150   1.740   3.254   6.149
 8417SOL    HW226151   1.710   3.343   6.015
 8418SOL     OW26152   0.504   5.904   2.246
 8418SOL    HW126153   0.526   5.889   2.343
 8418SOL    HW226154   0.416   5.862   2.225
 8419SOL     OW26155   3.693   1.961   4.409
 8419SOL    HW126156   3.622   1.911   4.458
 8419SOL    HW226157   3.762   1.992   4.474
 8420SOL     OW26158   3.480   0.917   2.240
 8420SOL    HW126159   3.566   0.866   2.237
 8420SOL    HW226160   3.485   0.986   2.313
 8421SOL     OW26161   4.603   6.679   6.690
 8421SOL    HW126162   4.593   6.748   6.617
 8421SOL    HW226163   4.638   6.594   6.651
 8422SOL     OW26164   5.291   2.407   4.043
 8422SOL    HW126165   5.248   2.448   3.962
 8422SOL    HW226166   5.272   2.309   4.044
 8423SOL     OW26167   6.633   5.865   0.186
 8423SOL    HW126168   6.614   5.792   0.252
 8423SOL    HW226169   6.641   5.826   0.094
 8424SOL     OW26170   3.477   0.647   5.088
 8424SOL    HW126171   3.500   0.636   5.184
 8424SOL    HW226172   3.560   0.650   5.033
 8425SOL     OW26173   3.818   3.501   2.388
 8425SOL    HW126174   3.830   3.489   2.486
 8425SOL    HW226175   3.765   3.584   2.371
 8426SOL     OW26176   3.643   3.407   1.797
 8426SOL    HW126177   3.594   3.320   1.809
 8426SOL    HW226178   3.577   3.480   1.780
 8427SOL     OW26179   4.125   3.358   3.230
 8427SOL    HW126180   4.100   3.330   3.323
 8427SOL    HW226181   4.087   3.292   3.165
 8428SOL     OW26182   5.931   0.283   2.170
 8428SOL    HW126183   5.973   0.267   2.080
 8428SOL    HW226184   5.875   0.366   2.166
 8429SOL     OW26185   2.743   5.865   5.534
 8429SOL    HW126186   2.806   5.835   5.463
 8429SOL    HW226187   2.698   5.785   5.574
 8430SOL     OW26188   4.905   6.717   5.240
 8430SOL    HW126189   4.956   6.632   5.246
 8430SOL    HW226190   4.842   6.713   5.162
 8431SOL     OW26191   2.043   3.411   5.848
 8431SOL    HW126192   2.040   3.499   5.800
 8431SOL    HW226193   2.039   3.426   5.946
 8432SOL     OW26194   6.525   5.366   5.962
 8432SOL    HW126195   6.595   5.385   6.031
 8432SOL    HW226196   6.474   5.450   5.942
 8433SOL     OW26197   5.038   2.335   1.265
 8433SOL    HW126198   5.037   2.266   1.192
 8433SOL    HW226199   5.121   2.390   1.258
 8434SOL     OW26200   2.700   5.990   5.092
 8434SOL    HW126201   2.724   5.957   5.000
 8434SOL    HW226202   2.652   5.918   5.142
 8435SOL     OW26203   6.066   1.448   3.370
 8435SOL    HW126204   6.025   1.425   3.281
 8435SOL    HW226205   6.042   1.377   3.436
 8436SOL     OW26206   1.970   5.862   2.314
 8436SOL    HW126207   1.904   5.790   2.290
 8436SOL    HW226208   2.050   5.855   2.255
 8437SOL     OW26209   1.108   5.936   0.843
 8437SOL    HW126210   1.061   6.023   0.830
 8437SOL    HW226211   1.174   5.945   0.917
 8438SOL     OW26212   1.206   4.164   2.193
 8438SOL    HW126213   1.141   4.209   2.254
 8438SOL    HW226214   1.184   4.066   2.188
 8439SOL     OW26215   6.364   4.443   2.614
 8439SOL    HW126216   6.317   4.373   2.560
 8439SOL    HW226217   6.334   4.533   2.585
 8440SOL     OW26218   1.831   2.049   2.469
 8440SOL    HW126219   1.890   1.987   2.418
 8440SOL    HW226220   1.845   2.143   2.436
 8441SOL     OW26221   6.795   2.283   6.023
 8441SOL    HW126222   6.733   2.275   6.101
 8441SOL    HW226223   6.793   2.376   5.987
 8442SOL     OW26224   3.913   2.261   0.003
 8442SOL    HW126225   3.831   2.262   0.060
 8442SOL    HW226226   3.894   2.211   6.934
 8443SOL     OW26227   1.997   4.268   2.860
 8443SOL    HW126228   2.087   4.253   2.821
 8443SOL    HW226229   1.978   4.198   2.928
 8444SOL     OW26230   5.426   5.349   4.688
 8444SOL    HW126231   5.388   5.364   4.779
 8444SOL    HW226232   5.352   5.351   4.621
 8445SOL     OW26233   4.656   6.710   7.012
 8445SOL    HW126234   4.643   6.786   0.060
 8445SOL    HW226235   4.623   6.736   6.921
 8446SOL     OW26236   6.982   5.765   4.789
 8446SOL    HW126237   6.890   5.793   4.762
 8446SOL    HW226238   6.985   5.665   4.799
 8447SOL     OW26239   3.733   1.447   4.037
 8447SOL    HW126240   3.701   1.475   4.128
 8447SOL    HW226241   3.828   1.475   4.026
 8448SOL     OW26242   3.709   5.722   2.899
 8448SOL    HW126243   3.630   5.763   2.944
 8448SOL    HW226244   3.729   5.772   2.815
 8449SOL     OW26245   1.420   2.371   4.114
 8449SOL    HW126246   1.347   2.303   4.111
 8449SOL    HW226247   1.432   2.410   4.023
 8450SOL     OW26248   6.771   1.026   0.462
 8450SOL    HW126249   6.745   1.101   0.522
 8450SOL    HW226250   6.796   1.062   0.372
 8451SOL     OW26251   3.866   2.669   1.382
 8451SOL    HW126252   3.876   2.766   1.400
 8451SOL    HW226253   3.828   2.656   1.290
 8452SOL     OW26254   5.134   1.778   5.816
 8452SOL    HW126255   5.229   1.754   5.838
 8452SOL    HW226256   5.115   1.758   5.720
 8453SOL     OW26257   6.609   0.555   6.905
 8453SOL    HW126258   6.624   0.532   7.002
 8453SOL    HW226259   6.638   0.478   6.848
 8454SOL     OW26260   6.325   5.417   6.566
 8454SOL    HW126261   6.307   5.376   6.476
 8454SOL    HW226262   6.398   5.365   6.612
 8455SOL     OW26263   6.491   1.016   2.610
 8455SOL    HW126264   6.509   1.019   2.512
 8455SOL    HW226265   6.394   1.000   2.625
 8456SOL     OW26266   6.842   0.765   1.885
 8456SOL    HW126267   6.801   0.675   1.872
 8456SOL    HW226268   6.909   0.761   1.959
 8457SOL     OW26269   0.101   0.198   5.114
 8457SOL    HW126270   0.168   0.149   5.171
 8457SOL    HW226271   0.143   0.281   5.078
 8458SOL     OW26272   1.164   6.711   6.876
 8458SOL    HW126273   1.121   6.639   6.930
 8458SOL    HW226274   1.100   6.743   6.806
 8459SOL     OW26275   1.138   5.957   2.879
 8459SOL    HW126276   1.076   5.954   2.958
 8459SOL    HW226277   1.122   5.877   2.821
 8460SOL     OW26278   4.095   3.700   2.808
 8460SOL    HW126279   4.135   3.709   2.717
 8460SOL    HW226280   4.094   3.603   2.835
 8461SOL     OW26281   6.199   3.498   3.626
 8461SOL    HW126282   6.119   3.519   3.682
 8461SOL    HW226283   6.235   3.409   3.651
 8462SOL     OW26284   2.670   2.543   1.812
 8462SOL    HW126285   2.741   2.506   1.871
 8462SOL    HW226286   2.629   2.470   1.757
 8463SOL     OW26287   6.003   0.572   1.883
 8463SOL    HW126288   5.921   0.533   1.842
 8463SOL    HW226289   6.050   0.629   1.816
 8464SOL     OW26290   6.641   1.341   4.369
 8464SOL    HW126291   6.581   1.380   4.440
 8464SOL    HW226292   6.722   1.301   4.412
 8465SOL     OW26293   1.473   1.908   0.511
 8465SOL    HW126294   1.436   1.971   0.579
 8465SOL    HW226295   1.474   1.815   0.549
 8466SOL     OW26296   0.738   6.941   4.151
 8466SOL    HW126297   0.709   6.847   4.171
 8466SOL    HW226298   0.737   6.995   4.235
 8467SOL     OW26299   4.428   5.358   0.514
 8467SOL    HW126300   4.353   5.364   0.449
 8467SOL    HW226301   4.515   5.355   0.464
 8468SOL     OW26302   3.492   2.636   0.198
 8468SOL    HW126303   3.427   2.629   0.122
 8468SOL    HW226304   3.584   2.651   0.161
 8469SOL     OW26305   4.258   2.127   5.560
 8469SOL    HW126306   4.171   2.133   5.510
 8469SOL    HW226307   4.243   2.079   5.646
 8470SOL     OW26308   1.707   2.919   6.877
 8470SOL    HW126309   1.690   3.015   6.899
 8470SOL    HW226310   1.795   2.891   6.915
 8471SOL     OW26311   4.433   1.767   4.552
 8471SOL    HW126312   4.505   1.775   4.483
 8471SOL    HW226313   4.395   1.674   4.549
 8472SOL     OW26314   1.181   6.617   2.691
 8472SOL    HW126315   1.222   6.708   2.696
 8472SOL    HW226316   1.230   6.554   2.751
 8473SOL     OW26317   6.310   5.698   6.273
 8473SOL    HW126318   6.350   5.786   6.299
 8473SOL    HW226319   6.382   5.632   6.255
 8474SOL     OW26320   4.037   5.586   0.254
 8474SOL    HW126321   3.947   5.544   0.263
 8474SOL    HW226322   4.042   5.669   0.309
 8475SOL     OW26323   4.407   2.170   3.061
 8475SOL    HW126324   4.457   2.178   3.147
 8475SOL    HW226325   4.426   2.250   3.004
 8476SOL     OW26326   4.350   0.513   2.522
 8476SOL    HW126327   4.437   0.466   2.536
 8476SOL    HW226328   4.363   0.612   2.530
 8477SOL     OW26329   2.952   0.157   3.176
 8477SOL    HW126330   2.997   0.110   3.099
 8477SOL    HW226331   2.907   0.239   3.142
 8478SOL     OW26332   1.378   0.486   6.052
 8478SOL    HW126333   1.315   0.558   6.082
 8478SOL    HW226334   1.468   0.527   6.032
 8479SOL     OW26335   5.094   0.677   2.449
 8479SOL    HW126336   5.156   0.713   2.519
 8479SOL    HW226337   5.020   0.742   2.433
 8480SOL     OW26338   1.960   1.287   1.002
 8480SOL    HW126339   1.899   1.346   0.950
 8480SOL    HW226340   2.008   1.340   1.071
 8481SOL     OW26341   4.229   0.214   5.814
 8481SOL    HW126342   4.217   0.148   5.740
 8481SOL    HW226343   4.326   0.221   5.838
 8482SOL     OW26344   0.104   0.346   1.609
 8482SOL    HW126345   0.077   0.414   1.677
 8482SOL    HW226346   0.151   0.270   1.655
 8483SOL     OW26347   5.520   6.187   1.739
 8483SOL    HW126348   5.459   6.111   1.715
 8483SOL    HW226349   5.561   6.169   1.828
 8484SOL     OW26350   6.902   4.566   5.551
 8484SOL    HW126351   6.915   4.523   5.462
 8484SOL    HW226352   6.970   4.530   5.616
 8485SOL     OW26353   2.109   3.548   6.346
 8485SOL    HW126354   2.011   3.542   6.362
 8485SOL    HW226355   2.152   3.599   6.421
 8486SOL     OW26356   4.107   0.746   2.595
 8486SOL    HW126357   4.086   0.731   2.498
 8486SOL    HW226358   4.134   0.660   2.637
 8487SOL     OW26359   4.501   0.981   0.645
 8487SOL    HW126360   4.556   1.064   0.636
 8487SOL    HW226361   4.434   0.978   0.571
 8488SOL     OW26362   5.892   3.731   4.923
 8488SOL    HW126363   5.831   3.788   4.869
 8488SOL    HW226364   5.857   3.723   5.016
 8489SOL     OW26365   3.238   6.479   2.523
 8489SOL    HW126366   3.179   6.426   2.583
 8489SOL    HW226367   3.224   6.577   2.539
 8490SOL     OW26368   4.038   5.258   2.536
 8490SOL    HW126369   3.952   5.298   2.568
 8490SOL    HW226370   4.109   5.270   2.605
 8491SOL     OW26371   1.135   1.222   1.487
 8491SOL    HW126372   1.085   1.270   1.415
 8491SOL    HW226373   1.081   1.145   1.520
 8492SOL     OW26374   5.665   4.318   4.636
 8492SOL    HW126375   5.592   4.350   4.575
 8492SOL    HW226376   5.729   4.262   4.584
 8493SOL     OW26377   3.772   2.589   1.126
 8493SOL    HW126378   3.772   2.687   1.107
 8493SOL    HW226379   3.678   2.557   1.140
 8494SOL     OW26380   3.600   5.931   6.853
 8494SOL    HW126381   3.582   6.006   6.918
 8494SOL    HW226382   3.696   5.935   6.825
 8495SOL     OW26383   0.601   2.533   0.010
 8495SOL    HW126384   0.566   2.612   6.976
 8495SOL    HW226385   0.545   2.453   7.004
 8496SOL     OW26386   0.747   1.724   3.443
 8496SOL    HW126387   0.671   1.739   3.507
 8496SOL    HW226388   0.761   1.807   3.389
 8497SOL     OW26389   5.683   4.371   3.037
 8497SOL    HW126390   5.774   4.370   3.080
 8497SOL    HW226391   5.614   4.345   3.105
 8498SOL     OW26392   6.422   1.152   1.666
 8498SOL    HW126393   6.360   1.139   1.588
 8498SOL    HW226394   6.461   1.244   1.661
 8499SOL     OW26395   0.452   3.968   6.671
 8499SOL    HW126396   0.482   3.980   6.576
 8499SOL    HW226397   0.496   3.887   6.709
 8500SOL     OW26398   2.966   0.614   5.585
 8500SOL    HW126399   2.975   0.704   5.628
 8500SOL    HW226400   2.919   0.551   5.646
 8501SOL     OW26401   2.772   4.178   5.911
 8501SOL    HW126402   2.759   4.170   6.010
 8501SOL    HW226403   2.688   4.215   5.869
 8502SOL     OW26404   0.720   6.800   1.455
 8502SOL    HW126405   0.733   6.864   1.379
 8502SOL    HW226406   0.806   6.790   1.505
 8503SOL     OW26407   3.601   5.836   3.611
 8503SOL    HW126408   3.511   5.863   3.645
 8503SOL    HW226409   3.595   5.745   3.570
 8504SOL     OW26410   1.603   5.132   3.188
 8504SOL    HW126411   1.624   5.054   3.248
 8504SOL    HW226412   1.611   5.104   3.092
 8505SOL     OW26413   4.412   2.236   3.647
 8505SOL    HW126414   4.505   2.198   3.643
 8505SOL    HW226415   4.358   2.186   3.715
 8506SOL     OW26416   1.210   6.295   6.849
 8506SOL    HW126417   1.186   6.375   6.903
 8506SOL    HW226418   1.254   6.323   6.764
 8507SOL     OW26419   1.714   0.212   4.697
 8507SOL    HW126420   1.747   0.120   4.718
 8507SOL    HW226421   1.614   0.211   4.694
 8508SOL     OW26422   0.187   3.003   5.351
 8508SOL    HW126423   0.206   2.986   5.447
 8508SOL    HW226424   0.207   2.920   5.298
 8509SOL     OW26425   6.008   1.891   4.898
 8509SOL    HW126426   5.956   1.819   4.945
 8509SOL    HW226427   6.105   1.870   4.902
 8510SOL     OW26428   5.362   0.190   2.120
 8510SOL    HW126429   5.267   0.211   2.094
 8510SOL    HW226430   5.425   0.242   2.062
 8511SOL     OW26431   6.579   5.571   1.830
 8511SOL    HW126432   6.629   5.656   1.816
 8511SOL    HW226433   6.487   5.580   1.791
 8512SOL     OW26434   3.557   2.865   0.850
 8512SOL    HW126435   3.510   2.953   0.851
 8512SOL    HW226436   3.489   2.791   0.853
 8513SOL     OW26437   0.952   3.361   0.763
 8513SOL    HW126438   0.863   3.354   0.808
 8513SOL    HW226439   1.019   3.394   0.829
 8514SOL     OW26440   2.297   2.742   5.038
 8514SOL    HW126441   2.203   2.723   5.067
 8514SOL    HW226442   2.312   2.841   5.038
 8515SOL     OW26443   3.008   0.478   0.512
 8515SOL    HW126444   3.004   0.386   0.552
 8515SOL    HW226445   2.916   0.517   0.510
 8516SOL     OW26446   6.015   3.425   4.610
 8516SOL    HW126447   5.972   3.349   4.561
 8516SOL    HW226448   5.947   3.468   4.670
 8517SOL     OW26449   1.819   1.875   6.010
 8517SOL    HW126450   1.752   1.812   5.972
 8517SOL    HW226451   1.802   1.887   6.108
 8518SOL     OW26452   5.315   4.814   6.786
 8518SOL    HW126453   5.216   4.829   6.791
 8518SOL    HW226454   5.349   4.785   6.876
 8519SOL     OW26455   0.495   3.996   0.416
 8519SOL    HW126456   0.521   4.078   0.468
 8519SOL    HW226457   0.395   3.991   0.409
 8520SOL     OW26458   3.314   3.872   5.894
 8520SOL    HW126459   3.256   3.941   5.940
 8520SOL    HW226460   3.366   3.822   5.963
 8521SOL     OW26461   1.952   6.493   4.667
 8521SOL    HW126462   1.915   6.411   4.711
 8521SOL    HW226463   1.880   6.540   4.616
 8522SOL     OW26464   0.717   0.239   6.776
 8522SOL    HW126465   0.758   0.207   6.861
 8522SOL    HW226466   0.652   0.312   6.796
 8523SOL     OW26467   3.931   1.494   1.012
 8523SOL    HW126468   3.881   1.439   0.945
 8523SOL    HW226469   4.002   1.547   0.966
 8524SOL     OW26470   2.502   5.971   5.456
 8524SOL    HW126471   2.599   5.952   5.473
 8524SOL    HW226472   2.448   5.939   5.533
 8525SOL     OW26473   6.480   2.877   2.273
 8525SOL    HW126474   6.427   2.944   2.221
 8525SOL    HW226475   6.552   2.924   2.324
 8526SOL     OW26476   0.016   4.455   6.762
 8526SOL    HW126477   0.107   4.415   6.771
 8526SOL    HW226478   6.977   4.433   6.844
 8527SOL     OW26479   3.065   0.763   5.955
 8527SOL    HW126480   3.136   0.696   5.975
 8527SOL    HW226481   3.081   0.846   6.009
 8528SOL     OW26482   5.644   0.979   1.006
 8528SOL    HW126483   5.590   0.925   0.941
 8528SOL    HW226484   5.736   0.942   1.013
 8529SOL     OW26485   0.966   6.232   6.172
 8529SOL    HW126486   0.975   6.327   6.143
 8529SOL    HW226487   0.950   6.174   6.092
 8530SOL     OW26488   3.750   3.775   2.560
 8530SOL    HW126489   3.816   3.702   2.579
 8530SOL    HW226490   3.680   3.776   2.631
 8531SOL     OW26491   6.712   5.553   3.036
 8531SOL    HW126492   6.688   5.650   3.035
 8531SOL    HW226493   6.629   5.498   3.021
 8532SOL     OW26494   3.253   5.420   0.026
 8532SOL    HW126495   3.352   5.413   0.035
 8532SOL    HW226496   3.230   5.480   6.965
 8533SOL     OW26497   2.203   6.212   4.996
 8533SOL    HW126498   2.123   6.153   4.982
 8533SOL    HW226499   2.265   6.170   5.061
 8534SOL     OW26500   1.999   2.679   2.395
 8534SOL    HW126501   1.986   2.624   2.312
 8534SOL    HW226502   2.010   2.775   2.371
 8535SOL     OW26503   6.042   0.599   2.377
 8535SOL    HW126504   5.960   0.563   2.332
 8535SOL    HW226505   6.023   0.615   2.474
 8536SOL     OW26506   1.679   0.933   3.893
 8536SOL    HW126507   1.635   0.875   3.962
 8536SOL    HW226508   1.717   1.015   3.938
 8537SOL     OW26509   6.048   0.915   3.609
 8537SOL    HW126510   6.066   0.983   3.538
 8537SOL    HW226511   6.049   0.823   3.568
 8538SOL     OW26512   0.701   2.616   0.285
 8538SOL    HW126513   0.711   2.582   0.192
 8538SOL    HW226514   0.660   2.546   0.343
 8539SOL     OW26515   4.917   3.272   1.801
 8539SOL    HW126516   4.990   3.260   1.734
 8539SOL    HW226517   4.868   3.186   1.813
 8540SOL     OW26518   4.515   0.430   1.657
 8540SOL    HW126519   4.461   0.509   1.686
 8540SOL    HW226520   4.494   0.408   1.562
 8541SOL     OW26521   2.170   3.070   3.505
 8541SOL    HW126522   2.205   2.978   3.521
 8541SOL    HW226523   2.178   3.124   3.589
 8542SOL     OW26524   3.095   4.948   6.636
 8542SOL    HW126525   3.150   5.023   6.674
 8542SOL    HW226526   3.083   4.877   6.705
 8543SOL     OW26527   3.656   1.805   6.965
 8543SOL    HW126528   3.585   1.761   0.004
 8543SOL    HW226529   3.617   1.885   6.918
 8544SOL     OW26530   6.373   1.805   4.887
 8544SOL    HW126531   6.468   1.774   4.883
 8544SOL    HW226532   6.344   1.836   4.797
 8545SOL     OW26533   4.194   6.695   5.589
 8545SOL    HW126534   4.267   6.706   5.656
 8545SOL    HW226535   4.223   6.732   5.501
 8546SOL     OW26536   4.046   2.069   6.645
 8546SOL    HW126537   4.126   2.110   6.689
 8546SOL    HW226538   3.963   2.116   6.676
 8547SOL     OW26539   1.851   4.788   2.121
 8547SOL    HW126540   1.767   4.736   2.103
 8547SOL    HW226541   1.902   4.743   2.195
 8548SOL     OW26542   6.186   2.329   5.605
 8548SOL    HW126543   6.222   2.260   5.668
 8548SOL    HW226544   6.243   2.411   5.608
 8549SOL     OW26545   5.117   3.353   5.272
 8549SOL    HW126546   5.074   3.293   5.339
 8549SOL    HW226547   5.155   3.297   5.198
 8550SOL     OW26548   1.577   4.504   5.343
 8550SOL    HW126549   1.501   4.502   5.278
 8550SOL    HW226550   1.663   4.510   5.293
 8551SOL     OW26551   2.419   4.311   1.261
 8551SOL    HW126552   2.355   4.336   1.189
 8551SOL    HW226553   2.512   4.324   1.229
 8552SOL     OW26554   2.964   6.564   4.560
 8552SOL    HW126555   2.920   6.583   4.647
 8552SOL    HW226556   2.970   6.648   4.506
 8553SOL     OW26557   6.192   5.457   6.947
 8553SOL    HW126558   6.128   5.512   7.001
 8553SOL    HW226559   6.236   5.390   7.005
 8554SOL     OW26560   5.990   3.744   0.241
 8554SOL    HW126561   5.954   3.814   0.181
 8554SOL    HW226562   5.942   3.658   0.225
 8555SOL     OW26563   1.909   6.347   4.318
 8555SOL    HW126564   1.961   6.431   4.305
 8555SOL    HW226565   1.972   6.269   4.320
 8556SOL     OW26566   5.933   6.861   4.402
 8556SOL    HW126567   5.880   6.870   4.317
 8556SOL    HW226568   6.030   6.862   4.380
 8557SOL     OW26569   0.046   1.964   0.695
 8557SOL    HW126570   0.069   2.056   0.662
 8557SOL    HW226571   6.995   1.921   0.634
 8558SOL     OW26572   1.571   4.760   2.152
 8558SOL    HW126573   1.532   4.668   2.156
 8558SOL    HW226574   1.501   4.825   2.122
 8559SOL     OW26575   0.620   1.461   5.384
 8559SOL    HW126576   0.612   1.554   5.419
 8559SOL    HW226577   0.689   1.459   5.311
 8560SOL     OW26578   6.421   2.495   6.577
 8560SOL    HW126579   6.459   2.558   6.510
 8560SOL    HW226580   6.328   2.469   6.549
 8561SOL     OW26581   4.488   6.012   5.885
 8561SOL    HW126582   4.500   6.109   5.866
 8561SOL    HW226583   4.434   5.970   5.812
 8562SOL     OW26584   3.634   0.237   4.595
 8562SOL    HW126585   3.726   0.211   4.624
 8562SOL    HW226586   3.567   0.176   4.637
 8563SOL     OW26587   2.912   2.553   6.712
 8563SOL    HW126588   2.904   2.622   6.783
 8563SOL    HW226589   3.000   2.506   6.721
 8564SOL     OW26590   1.123   6.293   3.237
 8564SOL    HW126591   1.056   6.223   3.260
 8564SOL    HW226592   1.173   6.265   3.155
 8565SOL     OW26593   3.617   0.790   1.500
 8565SOL    HW126594   3.663   0.734   1.431
 8565SOL    HW226595   3.578   0.871   1.457
 8566SOL     OW26596   1.761   3.734   4.072
 8566SOL    HW126597   1.661   3.730   4.079
 8566SOL    HW226598   1.793   3.826   4.096
 8567SOL     OW26599   5.046   6.115   6.222
 8567SOL    HW126600   5.140   6.145   6.236
 8567SOL    HW226601   5.045   6.032   6.167
 8568SOL     OW26602   5.598   0.183   0.365
 8568SOL    HW126603   5.654   0.263   0.346
 8568SOL    HW226604   5.583   0.175   0.463
 8569SOL     OW26605   3.758   0.848   5.718
 8569SOL    HW126606   3.737   0.865   5.815
 8569SOL    HW226607   3.814   0.766   5.711
 8570SOL     OW26608   6.365   3.378   6.271
 8570SOL    HW126609   6.398   3.425   6.353
 8570SOL    HW226610   6.426   3.399   6.194
 8571SOL     OW26611   0.280   4.617   5.590
 8571SOL    HW126612   0.210   4.626   5.519
 8571SOL    HW226613   0.323   4.706   5.605
 8572SOL     OW26614   2.887   5.310   5.735
 8572SOL    HW126615   2.911   5.240   5.802
 8572SOL    HW226616   2.789   5.306   5.717
 8573SOL     OW26617   3.593   5.744   4.395
 8573SOL    HW126618   3.610   5.678   4.468
 8573SOL    HW226619   3.571   5.833   4.435
 8574SOL     OW26620   0.495   4.046   4.049
 8574SOL    HW126621   0.508   4.000   3.961
 8574SOL    HW226622   0.397   4.059   4.066
 8575SOL     OW26623   2.909   3.401   6.294
 8575SOL    HW126624   2.900   3.489   6.248
 8575SOL    HW226625   2.944   3.333   6.229
 8576SOL     OW26626   2.047   0.239   0.335
 8576SOL    HW126627   2.051   0.141   0.356
 8576SOL    HW226628   1.960   0.276   0.365
 8577SOL     OW26629   6.353   5.699   4.517
 8577SOL    HW126630   6.339   5.789   4.558
 8577SOL    HW226631   6.354   5.707   4.417
 8578SOL     OW26632   4.557   0.696   3.066
 8578SOL    HW126633   4.485   0.627   3.064
 8578SOL    HW226634   4.563   0.736   3.158
 8579SOL     OW26635   0.545   4.842   2.402
 8579SOL    HW126636   0.464   4.828   2.344
 8579SOL    HW226637   0.580   4.935   2.388
 8580SOL     OW26638   2.540   5.452   5.828
 8580SOL    HW126639   2.536   5.408   5.918
 8580SOL    HW226640   2.473   5.409   5.767
 8581SOL     OW26641   2.988   3.293   0.578
 8581SOL    HW126642   2.913   3.336   0.528
 8581SOL    HW226643   2.956   3.265   0.668
 8582SOL     OW26644   3.934   5.071   0.170
 8582SOL    HW126645   4.007   5.014   0.132
 8582SOL    HW226646   3.948   5.166   0.143
 8583SOL     OW26647   5.558   6.790   5.391
 8583SOL    HW126648   5.476   6.783   5.334
 8583SOL    HW226649   5.578   6.701   5.431
 8584SOL     OW26650   0.588   5.667   6.321
 8584SOL    HW126651   0.614   5.710   6.408
 8584SOL    HW226652   0.666   5.668   6.259
 8585SOL     OW26653   1.659   1.902   1.178
 8585SOL    HW126654   1.715   1.818   1.182
 8585SOL    HW226655   1.674   1.947   1.090
 8586SOL     OW26656   3.905   5.105   4.050
 8586SOL    HW126657   3.980   5.076   3.990
 8586SOL    HW226658   3.906   5.051   4.134
 8587SOL     OW26659   6.589   1.952   1.315
 8587SOL    HW126660   6.576   1.939   1.217
 8587SOL    HW226661   6.514   1.909   1.364
 8588SOL     OW26662   3.577   2.592   6.200
 8588SOL    HW126663   3.666   2.549   6.182
 8588SOL    HW226664   3.571   2.678   6.149
 8589SOL     OW26665   2.627   1.457   4.460
 8589SOL    HW126666   2.695   1.498   4.522
 8589SOL    HW226667   2.588   1.376   4.503
 8590SOL     OW26668   5.589   4.905   5.615
 8590SOL    HW126669   5.502   4.940   5.648
 8590SOL    HW226670   5.611   4.819   5.662
 8591SOL     OW26671   0.321   2.782   0.486
 8591SOL    HW126672   0.268   2.745   0.562
 8591SOL    HW226673   0.379   2.856   0.519
 8592SOL     OW26674   6.153   6.209   6.928
 8592SOL    HW126675   6.231   6.190   6.868
 8592SOL    HW226676   6.173   6.178   0.005
 8593SOL     OW26677   0.547   5.580   3.231
 8593SOL    HW126678   0.482   5.548   3.162
 8593SOL    HW226679   0.639   5.579   3.194
 8594SOL     OW26680   3.777   4.105   2.834
 8594SOL    HW126681   3.792   4.203   2.841
 8594SOL    HW226682   3.844   4.056   2.890
 8595SOL     OW26683   1.455   2.756   1.620
 8595SOL    HW126684   1.419   2.662   1.627
 8595SOL    HW226685   1.441   2.803   1.707
 8596SOL     OW26686   6.618   4.241   2.325
 8596SOL    HW126687   6.684   4.236   2.250
 8596SOL    HW226688   6.616   4.335   2.361
 8597SOL     OW26689   2.198   1.500   0.837
 8597SOL    HW126690   2.182   1.403   0.819
 8597SOL    HW226691   2.134   1.532   0.907
 8598SOL     OW26692   6.189   3.121   1.685
 8598SOL    HW126693   6.187   3.055   1.760
 8598SOL    HW226694   6.129   3.088   1.611
 8599SOL     OW26695   0.693   3.194   0.727
 8599SOL    HW126696   0.689   3.269   0.792
 8599SOL    HW226697   0.766   3.131   0.753
 8600SOL     OW26698   6.602   2.265   6.226
 8600SOL    HW126699   6.504   2.266   6.204
 8600SOL    HW226700   6.622   2.187   6.285
 8601SOL     OW26701   0.773   0.090   4.947
 8601SOL    HW126702   0.867   0.074   4.919
 8601SOL    HW226703   0.746   0.183   4.923
 8602SOL     OW26704   1.492   6.540   1.837
 8602SOL    HW126705   1.590   6.527   1.821
 8602SOL    HW226706   1.478   6.578   1.929
 8603SOL     OW26707   4.795   3.370   1.219
 8603SOL    HW126708   4.812   3.413   1.130
 8603SOL    HW226709   4.764   3.276   1.204
 8604SOL     OW26710   6.042   3.044   2.999
 8604SOL    HW126711   5.970   3.060   2.932
 8604SOL    HW226712   6.012   3.078   3.088
 8605SOL     OW26713   2.902   5.219   1.562
 8605SOL    HW126714   2.866   5.212   1.655
 8605SOL    HW226715   2.989   5.170   1.556
 8606SOL     OW26716   4.071   5.322   4.767
 8606SOL    HW126717   4.061   5.294   4.862
 8606SOL    HW226718   3.993   5.289   4.714
 8607SOL     OW26719   2.644   6.489   1.039
 8607SOL    HW126720   2.599   6.549   1.105
 8607SOL    HW226721   2.671   6.404   1.083
 8608SOL     OW26722   5.890   6.768   2.587
 8608SOL    HW126723   5.988   6.775   2.605
 8608SOL    HW226724   5.870   6.685   2.536
 8609SOL     OW26725   5.007   0.132   6.166
 8609SOL    HW126726   5.063   0.103   6.089
 8609SOL    HW226727   5.038   0.222   6.198
 8610SOL     OW26728   6.633   6.576   5.682
 8610SOL    HW126729   6.651   6.664   5.727
 8610SOL    HW226730   6.534   6.565   5.671
 8611SOL     OW26731   1.507   1.980   3.300
 8611SOL    HW126732   1.408   1.980   3.288
 8611SOL    HW226733   1.542   2.073   3.289
 8612SOL     OW26734   4.863   3.190   4.337
 8612SOL    HW126735   4.829   3.141   4.418
 8612SOL    HW226736   4.896   3.124   4.270
 8613SOL     OW26737   1.485   0.713   0.568
 8613SOL    HW126738   1.579   0.690   0.595
 8613SOL    HW226739   1.431   0.733   0.650
 8614SOL     OW26740   1.568   2.139   3.620
 8614SOL    HW126741   1.576   2.153   3.718
 8614SOL    HW226742   1.645   2.084   3.587
 8615SOL     OW26743   4.632   1.725   5.695
 8615SOL    HW126744   4.699   1.787   5.654
 8615SOL    HW226745   4.540   1.764   5.686
 8616SOL     OW26746   0.990   3.356   0.402
 8616SOL    HW126747   0.994   3.271   0.351
 8616SOL    HW226748   0.912   3.354   0.465
 8617SOL     OW26749   5.570   2.849   0.815
 8617SOL    HW126750   5.575   2.750   0.829
 8617SOL    HW226751   5.654   2.881   0.772
 8618SOL     OW26752   3.885   1.453   3.087
 8618SOL    HW126753   3.969   1.506   3.075
 8618SOL    HW226754   3.814   1.511   3.126
 8619SOL     OW26755   3.940   6.574   0.708
 8619SOL    HW126756   3.983   6.607   0.624
 8619SOL    HW226757   3.896   6.650   0.755
 8620SOL     OW26758   6.236   6.076   3.827
 8620SOL    HW126759   6.276   6.054   3.738
 8620SOL    HW226760   6.275   6.017   3.897
 8621SOL     OW26761   5.216   0.971   4.283
 8621SOL    HW126762   5.215   0.946   4.380
 8621SOL    HW226763   5.297   1.027   4.264
 8622SOL     OW26764   4.799   5.188   6.475
 8622SOL    HW126765   4.728   5.148   6.417
 8622SOL    HW226766   4.889   5.161   6.441
 8623SOL     OW26767   6.182   1.878   3.940
 8623SOL    HW126768   6.181   1.946   4.014
 8623SOL    HW226769   6.113   1.808   3.958
 8624SOL     OW26770   6.174   3.256   3.784
 8624SOL    HW126771   6.130   3.220   3.866
 8624SOL    HW226772   6.271   3.234   3.785
 8625SOL     OW26773   3.608   1.292   6.530
 8625SOL    HW126774   3.694   1.340   6.547
 8625SOL    HW226775   3.590   1.289   6.432
 8626SOL     OW26776   2.870   3.551   2.508
 8626SOL    HW126777   2.789   3.563   2.451
 8626SOL    HW226778   2.913   3.640   2.525
 8627SOL     OW26779   2.780   0.325   0.169
 8627SOL    HW126780   2.792   0.244   0.111
 8627SOL    HW226781   2.775   0.297   0.264
 8628SOL     OW26782   6.005   1.781   1.245
 8628SOL    HW126783   5.960   1.815   1.163
 8628SOL    HW226784   5.967   1.691   1.268
 8629SOL     OW26785   1.666   5.882   3.194
 8629SOL    HW126786   1.765   5.898   3.186
 8629SOL    HW226787   1.648   5.784   3.187
 8630SOL     OW26788   5.148   5.017   4.217
 8630SOL    HW126789   5.184   5.035   4.308
 8630SOL    HW226790   5.164   4.921   4.193
 8631SOL     OW26791   4.261   6.207   3.751
 8631SOL    HW126792   4.353   6.197   3.788
 8631SOL    HW226793   4.235   6.304   3.750
 8632SOL     OW26794   3.042   0.930   3.089
 8632SOL    HW126795   3.116   0.955   3.152
 8632SOL    HW226796   2.959   0.912   3.142
 8633SOL     OW26797   6.806   6.652   2.592
 8633SOL    HW126798   6.862   6.598   2.529
 8633SOL    HW226799   6.720   6.604   2.611
 8634SOL     OW26800   6.462   5.877   1.834
 8634SOL    HW126801   6.378   5.825   1.848
 8634SOL    HW226802   6.453   5.932   1.751
 8635SOL     OW26803   6.283   3.315   5.745
 8635SOL    HW126804   6.357   3.356   5.691
 8635SOL    HW226805   6.206   3.293   5.685
 8636SOL     OW26806   5.674   5.002   0.760
 8636SOL    HW126807   5.599   5.048   0.713
 8636SOL    HW226808   5.672   4.904   0.739
 8637SOL     OW26809   1.382   0.806   1.637
 8637SOL    HW126810   1.463   0.864   1.624
 8637SOL    HW226811   1.320   0.820   1.560
 8638SOL     OW26812   5.655   4.543   1.140
 8638SOL    HW126813   5.591   4.587   1.203
 8638SOL    HW226814   5.716   4.483   1.192
 8639SOL     OW26815   5.844   2.095   2.129
 8639SOL    HW126816   5.843   2.145   2.042
 8639SOL    HW226817   5.929   2.112   2.177
 8640SOL     OW26818   5.085   6.149   1.736
 8640SOL    HW126819   5.016   6.085   1.702
 8640SOL    HW226820   5.044   6.207   1.807
 8641SOL     OW26821   5.019   4.638   3.705
 8641SOL    HW126822   5.117   4.637   3.689
 8641SOL    HW226823   4.979   4.553   3.670
 8642SOL     OW26824   4.281   1.382   1.943
 8642SOL    HW126825   4.301   1.374   2.040
 8642SOL    HW226826   4.310   1.472   1.910
 8643SOL     OW26827   4.667   0.174   0.263
 8643SOL    HW126828   4.643   0.261   0.220
 8643SOL    HW226829   4.760   0.149   0.237
 8644SOL     OW26830   6.760   3.368   4.888
 8644SOL    HW126831   6.845   3.396   4.844
 8644SOL    HW226832   6.704   3.449   4.906
 8645SOL     OW26833   6.519   4.006   1.567
 8645SOL    HW126834   6.590   3.961   1.622
 8645SOL    HW226835   6.488   4.089   1.615
 8646SOL     OW26836   4.953   5.929   0.881
 8646SOL    HW126837   4.907   5.857   0.829
 8646SOL    HW226838   5.045   5.898   0.907
 8647SOL     OW26839   4.455   4.760   2.103
 8647SOL    HW126840   4.549   4.726   2.103
 8647SOL    HW226841   4.418   4.753   2.195
 8648SOL     OW26842   5.949   0.614   3.739
 8648SOL    HW126843   6.002   0.536   3.771
 8648SOL    HW226844   5.979   0.640   3.647
 8649SOL     OW26845   6.450   4.458   5.603
 8649SOL    HW126846   6.532   4.474   5.658
 8649SOL    HW226847   6.419   4.364   5.615
 8650SOL     OW26848   0.535   5.680   1.468
 8650SOL    HW126849   0.521   5.584   1.492
 8650SOL    HW226850   0.479   5.703   1.389
 8651SOL     OW26851   4.161   3.071   0.963
 8651SOL    HW126852   4.188   2.994   0.906
 8651SOL    HW226853   4.223   3.148   0.948
 8652SOL     OW26854   0.820   2.983   4.508
 8652SOL    HW126855   0.905   3.003   4.556
 8652SOL    HW226856   0.755   2.942   4.571
 8653SOL     OW26857   5.322   2.751   6.289
 8653SOL    HW126858   5.252   2.706   6.345
 8653SOL    HW226859   5.364   2.825   6.342
 8654SOL     OW26860   1.574   5.103   1.598
 8654SOL    HW126861   1.537   5.191   1.568
 8654SOL    HW226862   1.584   5.104   1.698
 8655SOL     OW26863   6.097   6.355   1.862
 8655SOL    HW126864   6.040   6.386   1.939
 8655SOL    HW226865   6.041   6.349   1.780
 8656SOL     OW26866   6.408   2.294   1.806
 8656SOL    HW126867   6.336   2.228   1.782
 8656SOL    HW226868   6.475   2.249   1.865
 8657SOL     OW26869   2.821   4.627   0.787
 8657SOL    HW126870   2.759   4.565   0.835
 8657SOL    HW226871   2.833   4.596   0.693
 8658SOL     OW26872   1.361   5.372   6.209
 8658SOL    HW126873   1.392   5.363   6.303
 8658SOL    HW226874   1.388   5.291   6.157
 8659SOL     OW26875   4.234   6.996   4.554
 8659SOL    HW126876   4.173   0.054   4.524
 8659SOL    HW226877   4.184   6.933   4.613
 8660SOL     OW26878   5.390   4.423   6.828
 8660SOL    HW126879   5.489   4.420   6.842
 8660SOL    HW226880   5.371   4.427   6.730
 8661SOL     OW26881   6.295   3.369   1.721
 8661SOL    HW126882   6.355   3.391   1.645
 8661SOL    HW226883   6.232   3.296   1.695
 8662SOL     OW26884   0.617   0.472   6.998
 8662SOL    HW126885   0.572   0.402   0.037
 8662SOL    HW226886   0.713   0.447   6.985
 8663SOL     OW26887   2.501   5.226   1.216
 8663SOL    HW126888   2.516   5.179   1.128
 8663SOL    HW226889   2.576   5.205   1.278
 8664SOL     OW26890   4.410   5.020   1.562
 8664SOL    HW126891   4.451   4.948   1.618
 8664SOL    HW226892   4.443   5.109   1.592
 8665SOL     OW26893   5.071   4.996   4.757
 8665SOL    HW126894   5.059   5.051   4.675
 8665SOL    HW226895   4.982   4.973   4.796
 8666SOL     OW26896   6.613   4.323   3.960
 8666SOL    HW126897   6.579   4.235   3.927
 8666SOL    HW226898   6.713   4.323   3.959
 8667SOL     OW26899   5.818   2.210   3.359
 8667SOL    HW126900   5.777   2.287   3.409
 8667SOL    HW226901   5.859   2.244   3.275
 8668SOL     OW26902   3.422   0.826   4.662
 8668SOL    HW126903   3.430   0.883   4.744
 8668SOL    HW226904   3.436   0.730   4.687
 8669SOL     OW26905   4.192   6.886   6.062
 8669SOL    HW126906   4.182   6.964   6.123
 8669SOL    HW226907   4.104   6.839   6.053
 8670SOL     OW26908   4.382   4.602   2.739
 8670SOL    HW126909   4.414   4.593   2.644
 8670SOL    HW226910   4.453   4.569   2.801
 8671SOL     OW26911   6.240   6.053   2.593
 8671SOL    HW126912   6.320   6.058   2.653
 8671SOL    HW226913   6.258   5.991   2.517
 8672SOL     OW26914   3.532   5.603   4.974
 8672SOL    HW126915   3.439   5.580   5.001
 8672SOL    HW226916   3.537   5.610   4.874
 8673SOL     OW26917   4.929   2.205   0.093
 8673SOL    HW126918   5.001   2.136   0.099
 8673SOL    HW226919   4.887   2.217   0.183
 8674SOL     OW26920   0.687   0.114   2.874
 8674SOL    HW126921   0.754   0.094   2.946
 8674SOL    HW226922   0.725   0.182   2.811
 8675SOL     OW26923   2.501   2.053   3.045
 8675SOL    HW126924   2.588   2.084   3.007
 8675SOL    HW226925   2.432   2.124   3.032
 8676SOL     OW26926   4.413   1.008   4.343
 8676SOL    HW126927   4.350   1.078   4.311
 8676SOL    HW226928   4.376   0.918   4.323
 8677SOL     OW26929   2.060   3.665   5.684
 8677SOL    HW126930   2.089   3.743   5.628
 8677SOL    HW226931   2.087   3.682   5.779
 8678SOL     OW26932   1.516   0.793   5.859
 8678SOL    HW126933   1.472   0.724   5.803
 8678SOL    HW226934   1.579   0.749   5.924
 8679SOL     OW26935   6.049   1.746   4.641
 8679SOL    HW126936   6.014   1.813   4.576
 8679SOL    HW226937   6.147   1.735   4.629
 8680SOL     OW26938   0.453   3.884   0.818
 8680SOL    HW126939   0.533   3.915   0.871
 8680SOL    HW226940   0.483   3.858   0.726
 8681SOL     OW26941   4.172   3.814   1.383
 8681SOL    HW126942   4.125   3.767   1.308
 8681SOL    HW226943   4.150   3.768   1.470
 8682SOL     OW26944   1.353   5.685   2.617
 8682SOL    HW126945   1.352   5.783   2.638
 8682SOL    HW226946   1.433   5.665   2.559
 8683SOL     OW26947   4.875   2.746   6.260
 8683SOL    HW126948   4.958   2.763   6.208
 8683SOL    HW226949   4.892   2.761   6.358
 8684SOL     OW26950   6.356   2.971   3.765
 8684SOL    HW126951   6.291   2.897   3.744
 8684SOL    HW226952   6.402   2.999   3.682
 8685SOL     OW26953   6.992   1.152   5.712
 8685SOL    HW126954   0.029   1.090   5.654
 8685SOL    HW226955   6.895   1.145   5.691
 8686SOL     OW26956   6.394   1.708   3.928
 8686SOL    HW126957   6.364   1.646   3.855
 8686SOL    HW226958   6.324   1.777   3.944
 8687SOL     OW26959   3.821   1.090   2.500
 8687SOL    HW126960   3.918   1.110   2.486
 8687SOL    HW226961   3.792   1.126   2.588
 8688SOL     OW26962   1.234   6.963   1.795
 8688SOL    HW126963   1.319   6.916   1.818
 8688SOL    HW226964   1.242   0.045   1.819
 8689SOL     OW26965   5.062   4.819   0.886
 8689SOL    HW126966   5.156   4.784   0.877
 8689SOL    HW226967   4.998   4.743   0.882
 8690SOL     OW26968   1.768   0.897   2.595
 8690SOL    HW126969   1.691   0.946   2.635
 8690SOL    HW226970   1.759   0.799   2.613
 8691SOL     OW26971   6.028   1.563   0.552
 8691SOL    HW126972   6.122   1.548   0.579
 8691SOL    HW226973   6.023   1.639   0.486
 8692SOL     OW26974   1.607   1.317   3.775
 8692SOL    HW126975   1.521   1.298   3.728
 8692SOL    HW226976   1.684   1.292   3.716
 8693SOL     OW26977   5.172   2.221   6.874
 8693SOL    HW126978   5.233   2.184   6.804
 8693SOL    HW226979   5.166   2.156   6.950
 8694SOL     OW26980   3.610   6.841   6.924
 8694SOL    HW126981   3.615   6.746   6.895
 8694SOL    HW226982   3.691   6.863   6.978
 8695SOL     OW26983   4.419   4.201   5.430
 8695SOL    HW126984   4.443   4.223   5.525
 8695SOL    HW226985   4.333   4.150   5.428
 8696SOL     OW26986   2.179   5.179   0.765
 8696SOL    HW126987   2.253   5.149   0.704
 8696SOL    HW226988   2.177   5.119   0.845
 8697SOL     OW26989   5.030   4.884   6.652
 8697SOL    HW126990   5.012   4.790   6.621
 8697SOL    HW226991   5.042   4.943   6.572
 8698SOL     OW26992   5.827   6.164   5.075
 8698SOL    HW126993   5.782   6.242   5.031
 8698SOL    HW226994   5.790   6.079   5.038
 8699SOL     OW26995   1.363   1.783   5.174
 8699SOL    HW126996   1.455   1.766   5.139
 8699SOL    HW226997   1.344   1.721   5.250
 8700SOL     OW26998   2.906   2.279   6.134
 8700SOL    HW126999   2.900   2.298   6.036
 8700SOL    HW227000   2.818   2.246   6.167
 8701SOL     OW27001   1.129   1.059   3.479
 8701SOL    HW127002   1.068   1.063   3.399
 8701SOL    HW227003   1.223   1.049   3.449
 8702SOL     OW27004   5.317   6.292   6.959
 8702SOL    HW127005   5.410   6.309   6.992
 8702SOL    HW227006   5.299   6.193   6.960
 8703SOL     OW27007   1.295   5.269   1.427
 8703SOL    HW127008   1.298   5.258   1.328
 8703SOL    HW227009   1.325   5.362   1.451
 8704SOL     OW27010   1.139   4.435   2.081
 8704SOL    HW127011   1.193   4.386   2.012
 8704SOL    HW227012   1.044   4.407   2.075
 8705SOL     OW27013   5.090   6.700   4.194
 8705SOL    HW127014   5.153   6.753   4.251
 8705SOL    HW227015   5.133   6.680   4.106
 8706SOL     OW27016   4.950   1.313   5.599
 8706SOL    HW127017   4.891   1.392   5.582
 8706SOL    HW227018   4.992   1.283   5.513
 8707SOL     OW27019   4.439   1.968   5.411
 8707SOL    HW127020   4.538   1.984   5.412
 8707SOL    HW227021   4.395   2.030   5.476
 8708SOL     OW27022   4.048   1.595   0.588
 8708SOL    HW127023   4.054   1.507   0.541
 8708SOL    HW227024   3.989   1.587   0.668
 8709SOL     OW27025   5.849   3.544   0.362
 8709SOL    HW127026   5.923   3.541   0.429
 8709SOL    HW227027   5.782   3.613   0.389
 8710SOL     OW27028   6.154   2.997   4.146
 8710SOL    HW127029   6.177   3.006   4.243
 8710SOL    HW227030   6.098   3.075   4.118
 8711SOL     OW27031   1.038   1.181   4.565
 8711SOL    HW127032   1.086   1.266   4.549
 8711SOL    HW227033   1.099   1.116   4.612
 8712SOL     OW27034   3.637   0.272   6.866
 8712SOL    HW127035   3.653   0.281   6.768
 8712SOL    HW227036   3.562   0.208   6.883
 8713SOL     OW27037   6.225   4.659   2.505
 8713SOL    HW127038   6.178   4.678   2.419
 8713SOL    HW227039   6.279   4.738   2.533
 8714SOL     OW27040   1.568   1.544   4.315
 8714SOL    HW127041   1.481   1.572   4.275
 8714SOL    HW227042   1.604   1.619   4.371
 8715SOL     OW27043   5.841   1.067   2.748
 8715SOL    HW127044   5.894   1.144   2.711
 8715SOL    HW227045   5.797   1.018   2.673
 8716SOL     OW27046   0.508   1.161   2.142
 8716SOL    HW127047   0.409   1.161   2.125
 8716SOL    HW227048   0.528   1.219   2.220
 8717SOL     OW27049   4.241   3.438   0.739
 8717SOL    HW127050   4.248   3.383   0.656
 8717SOL    HW227051   4.195   3.524   0.720
 8718SOL     OW27052   0.018   2.528   5.766
 8718SOL    HW127053   0.099   2.528   5.826
 8718SOL    HW227054   7.013   2.621   5.738
 8719SOL     OW27055   6.118   1.133   5.882
 8719SOL    HW127056   6.217   1.150   5.885
 8719SOL    HW227057   6.096   1.081   5.799
 8720SOL     OW27058   4.746   3.549   5.716
 8720SOL    HW127059   4.832   3.581   5.675
 8720SOL    HW227060   4.720   3.462   5.674
 8721SOL     OW27061   6.756   0.879   5.158
 8721SOL    HW127062   6.727   0.823   5.236
 8721SOL    HW227063   6.784   0.820   5.083
 8722SOL     OW27064   3.210   3.121   1.085
 8722SOL    HW127065   3.239   3.060   1.158
 8722SOL    HW227066   3.117   3.096   1.055
 8723SOL     OW27067   0.336   5.556   0.463
 8723SOL    HW127068   0.334   5.653   0.489
 8723SOL    HW227069   0.409   5.541   0.397
 8724SOL     OW27070   5.020   6.525   6.803
 8724SOL    HW127071   4.985   6.435   6.827
 8724SOL    HW227072   5.119   6.527   6.816
 8725SOL     OW27073   2.007   6.258   1.149
 8725SOL    HW127074   2.077   6.273   1.219
 8725SOL    HW227075   1.969   6.346   1.121
 8726SOL     OW27076   6.840   0.978   1.323
 8726SOL    HW127077   6.831   0.940   1.415
 8726SOL    HW227078   6.922   1.034   1.318
 8727SOL     OW27079   6.049   6.821   1.038
 8727SOL    HW127080   6.002   6.897   1.084
 8727SOL    HW227081   6.051   6.839   0.940
 8728SOL     OW27082   2.068   5.977   5.347
 8728SOL    HW127083   2.160   5.961   5.310
 8728SOL    HW227084   2.053   5.918   5.426
 8729SOL     OW27085   4.997   5.827   4.772
 8729SOL    HW127086   4.922   5.835   4.836
 8729SOL    HW227087   4.962   5.798   4.683
 8730SOL     OW27088   0.040   5.976   0.564
 8730SOL    HW127089   0.044   6.073   0.538
 8730SOL    HW227090   6.995   5.927   0.501
 8731SOL     OW27091   0.594   1.348   2.313
 8731SOL    HW127092   0.569   1.350   2.409
 8731SOL    HW227093   0.656   1.424   2.292
 8732SOL     OW27094   6.553   5.731   2.311
 8732SOL    HW127095   6.486   5.744   2.238
 8732SOL    HW227096   6.589   5.820   2.339
 8733SOL     OW27097   6.960   0.177   0.985
 8733SOL    HW127098   6.992   0.109   0.918
 8733SOL    HW227099   6.932   0.130   1.069
 8734SOL     OW27100   0.082   6.260   0.597
 8734SOL    HW127101   0.163   6.313   0.568
 8734SOL    HW227102   0.078   6.258   0.697
 8735SOL     OW27103   0.302   2.873   6.202
 8735SOL    HW127104   0.399   2.857   6.185
 8735SOL    HW227105   0.291   2.915   6.292
 8736SOL     OW27106   0.168   4.667   5.860
 8736SOL    HW127107   0.263   4.651   5.835
 8736SOL    HW227108   0.151   4.631   5.952
 8737SOL     OW27109   4.122   6.099   6.863
 8737SOL    HW127110   4.094   6.177   6.808
 8737SOL    HW227111   4.173   6.034   6.806
 8738SOL     OW27112   0.697   3.810   5.590
 8738SOL    HW127113   0.689   3.814   5.689
 8738SOL    HW227114   0.722   3.717   5.563
 8739SOL     OW27115   0.991   3.832   5.558
 8739SOL    HW127116   0.893   3.831   5.539
 8739SOL    HW227117   1.006   3.863   5.652
 8740SOL     OW27118   1.261   6.736   0.714
 8740SOL    HW127119   1.324   6.798   0.668
 8740SOL    HW227120   1.310   6.656   0.748
 8741SOL     OW27121   1.617   3.689   1.995
 8741SOL    HW127122   1.517   3.688   1.997
 8741SOL    HW227123   1.648   3.680   1.901
 8742SOL     OW27124   4.722   5.850   2.209
 8742SOL    HW127125   4.757   5.821   2.298
 8742SOL    HW227126   4.699   5.770   2.154
 8743SOL     OW27127   2.309   4.780   2.646
 8743SOL    HW127128   2.408   4.771   2.645
 8743SOL    HW227129   2.269   4.717   2.579
 8744SOL     OW27130   2.993   3.337   5.468
 8744SOL    HW127131   2.943   3.397   5.405
 8744SOL    HW227132   3.083   3.316   5.430
 8745SOL     OW27133   6.023   1.718   6.890
 8745SOL    HW127134   5.981   1.682   6.973
 8745SOL    HW227135   6.079   1.646   6.847
 8746SOL     OW27136   5.136   3.516   4.743
 8746SOL    HW127137   5.056   3.465   4.711
 8746SOL    HW227138   5.128   3.533   4.841
 8747SOL     OW27139   0.549   1.987   3.955
 8747SOL    HW127140   0.527   2.052   4.026
 8747SOL    HW227141   0.539   1.894   3.990
 8748SOL     OW27142   2.920   6.774   0.426
 8748SOL    HW127143   2.962   6.718   0.354
 8748SOL    HW227144   2.821   6.765   0.422
 8749SOL     OW27145   3.897   1.922   3.560
 8749SOL    HW127146   3.905   1.839   3.504
 8749SOL    HW227147   3.829   1.983   3.520
 8750SOL     OW27148   1.824   0.607   5.047
 8750SOL    HW127149   1.909   0.645   5.083
 8750SOL    HW227150   1.783   0.547   5.116
 8751SOL     OW27151   2.086   6.309   3.065
 8751SOL    HW127152   2.085   6.347   3.158
 8751SOL    HW227153   1.997   6.267   3.046
 8752SOL     OW27154   2.586   1.215   5.827
 8752SOL    HW127155   2.665   1.276   5.823
 8752SOL    HW227156   2.515   1.249   5.766
 8753SOL     OW27157   5.421   1.379   5.165
 8753SOL    HW127158   5.438   1.448   5.095
 8753SOL    HW227159   5.444   1.416   5.255
 8754SOL     OW27160   1.977   1.295   5.625
 8754SOL    HW127161   1.996   1.213   5.679
 8754SOL    HW227162   2.002   1.279   5.529
 8755SOL     OW27163   2.370   2.305   0.433
 8755SOL    HW127164   2.442   2.351   0.484
 8755SOL    HW227165   2.395   2.302   0.336
 8756SOL     OW27166   1.785   4.278   4.433
 8756SOL    HW127167   1.869   4.224   4.422
 8756SOL    HW227168   1.801   4.351   4.500
 8757SOL     OW27169   3.414   5.453   4.060
 8757SOL    HW127170   3.428   5.374   4.119
 8757SOL    HW227171   3.458   5.533   4.102
 8758SOL     OW27172   5.080   6.515   2.404
 8758SOL    HW127173   4.983   6.491   2.397
 8758SOL    HW227174   5.110   6.561   2.320
 8759SOL     OW27175   5.146   0.822   6.122
 8759SOL    HW127176   5.233   0.868   6.135
 8759SOL    HW227177   5.148   0.732   6.166
 8760SOL     OW27178   2.170   3.194   3.738
 8760SOL    HW127179   2.103   3.266   3.720
 8760SOL    HW227180   2.178   3.181   3.837
 8761SOL     OW27181   5.353   5.997   1.687
 8761SOL    HW127182   5.288   6.053   1.738
 8761SOL    HW227183   5.316   5.977   1.596
 8762SOL     OW27184   0.917   4.696   0.809
 8762SOL    HW127185   1.014   4.709   0.792
 8762SOL    HW227186   0.904   4.625   0.879
 8763SOL     OW27187   0.338   6.073   6.273
 8763SOL    HW127188   0.336   6.160   6.323
 8763SOL    HW227189   0.303   6.000   6.332
 8764SOL     OW27190   3.436   2.067   6.549
 8764SOL    HW127191   3.446   2.166   6.532
 8764SOL    HW227192   3.354   2.034   6.504
 8765SOL     OW27193   6.885   0.539   4.489
 8765SOL    HW127194   6.874   0.441   4.471
 8765SOL    HW227195   6.795   0.583   4.489
 8766SOL     OW27196   1.985   4.592   2.309
 8766SOL    HW127197   2.031   4.570   2.223
 8766SOL    HW227198   1.943   4.509   2.346
 8767SOL     OW27199   5.093   0.808   5.621
 8767SOL    HW127200   5.166   0.758   5.574
 8767SOL    HW227201   5.071   0.891   5.570
 8768SOL     OW27202   0.824   3.917   0.051
 8768SOL    HW127203   0.737   3.946   0.011
 8768SOL    HW227204   0.878   3.997   0.077
 8769SOL     OW27205   1.752   1.090   5.895
 8769SOL    HW127206   1.686   1.070   5.967
 8769SOL    HW227207   1.727   1.040   5.812
 8770SOL     OW27208   5.466   1.175   3.121
 8770SOL    HW127209   5.522   1.175   3.203
 8770SOL    HW227210   5.372   1.201   3.145
 8771SOL     OW27211   2.532   3.068   5.604
 8771SOL    HW127212   2.570   3.147   5.653
 8771SOL    HW227213   2.473   3.016   5.666
 8772SOL     OW27214   6.397   6.803   6.557
 8772SOL    HW127215   6.396   6.827   6.654
 8772SOL    HW227216   6.331   6.860   6.508
 8773SOL     OW27217   2.921   1.946   3.211
 8773SOL    HW127218   2.914   2.046   3.199
 8773SOL    HW227219   2.890   1.901   3.128
 8774SOL     OW27220   1.151   0.620   0.013
 8774SOL    HW127221   1.229   0.640   6.970
 8774SOL    HW227222   1.159   0.672   0.099
 8775SOL     OW27223   6.346   6.311   4.366
 8775SOL    HW127224   6.393   6.248   4.428
 8775SOL    HW227225   6.250   6.319   4.393
 8776SOL     OW27226   3.302   3.996   5.226
 8776SOL    HW127227   3.357   3.917   5.199
 8776SOL    HW227228   3.298   4.000   5.326
 8777SOL     OW27229   6.133   5.835   2.845
 8777SOL    HW127230   6.193   5.875   2.776
 8777SOL    HW227231   6.183   5.825   2.931
 8778SOL     OW27232   1.381   2.796   2.642
 8778SOL    HW127233   1.293   2.842   2.628
 8778SOL    HW227234   1.454   2.854   2.605
 8779SOL     OW27235   1.653   4.720   1.306
 8779SOL    HW127236   1.708   4.801   1.286
 8779SOL    HW227237   1.596   4.737   1.386
 8780SOL     OW27238   2.054   5.513   4.835
 8780SOL    HW127239   2.007   5.501   4.922
 8780SOL    HW227240   2.029   5.439   4.773
 8781SOL     OW27241   0.843   2.155   2.935
 8781SOL    HW127242   0.878   2.201   3.017
 8781SOL    HW227243   0.833   2.222   2.861
 8782SOL     OW27244   5.192   1.093   3.913
 8782SOL    HW127245   5.254   1.167   3.940
 8782SOL    HW227246   5.177   1.032   3.991
 8783SOL     OW27247   5.958   2.706   5.504
 8783SOL    HW127248   6.054   2.705   5.535
 8783SOL    HW227249   5.907   2.635   5.553
 8784SOL     OW27250   6.089   4.239   5.860
 8784SOL    HW127251   6.064   4.194   5.946
 8784SOL    HW227252   6.172   4.292   5.872
 8785SOL     OW27253   5.115   3.973   5.568
 8785SOL    HW127254   5.111   3.981   5.468
 8785SOL    HW227255   5.208   3.993   5.599
 8786SOL     OW27256   1.823   6.437   0.065
 8786SOL    HW127257   1.863   6.385   7.005
 8786SOL    HW227258   1.753   6.382   0.111
 8787SOL     OW27259   1.110   2.674   0.040
 8787SOL    HW127260   1.185   2.610   0.025
 8787SOL    HW227261   1.023   2.626   0.030
 8788SOL     OW27262   1.546   2.087   5.592
 8788SOL    HW127263   1.500   2.023   5.531
 8788SOL    HW227264   1.522   2.181   5.566
 8789SOL     OW27265   0.484   1.329   0.391
 8789SOL    HW127266   0.426   1.332   0.472
 8789SOL    HW227267   0.574   1.292   0.416
 8790SOL     OW27268   3.907   1.484   6.232
 8790SOL    HW127269   3.859   1.397   6.222
 8790SOL    HW227270   3.955   1.506   6.148
 8791SOL     OW27271   5.167   6.590   5.336
 8791SOL    HW127272   5.127   6.621   5.422
 8791SOL    HW227273   5.219   6.506   5.352
 8792SOL     OW27274   5.388   6.742   2.527
 8792SOL    HW127275   5.486   6.723   2.525
 8792SOL    HW227276   5.344   6.682   2.594
 8793SOL     OW27277   1.320   4.517   3.342
 8793SOL    HW127278   1.420   4.511   3.345
 8793SOL    HW227279   1.281   4.425   3.331
 8794SOL     OW27280   2.645   5.683   2.808
 8794SOL    HW127281   2.622   5.776   2.778
 8794SOL    HW227282   2.569   5.622   2.786
 8795SOL     OW27283   3.068   5.933   4.885
 8795SOL    HW127284   3.079   6.029   4.908
 8795SOL    HW227285   3.064   5.923   4.785
 8796SOL     OW27286   4.863   2.149   5.123
 8796SOL    HW127287   4.866   2.200   5.037
 8796SOL    HW227288   4.948   2.164   5.173
 8797SOL     OW27289   0.837   6.063   6.771
 8797SOL    HW127290   0.808   6.046   6.677
 8797SOL    HW227291   0.824   6.160   6.793
 8798SOL     OW27292   3.199   3.268   5.304
 8798SOL    HW127293   3.188   3.198   5.375
 8798SOL    HW227294   3.200   3.224   5.214
 8799SOL     OW27295   2.862   0.638   2.379
 8799SOL    HW127296   2.814   0.567   2.431
 8799SOL    HW227297   2.953   0.652   2.419
 8800SOL     OW27298   3.864   4.352   0.701
 8800SOL    HW127299   3.854   4.451   0.691
 8800SOL    HW227300   3.805   4.306   0.635
 8801SOL     OW27301   3.037   6.630   5.743
 8801SOL    HW127302   2.957   6.666   5.790
 8801SOL    HW227303   3.117   6.639   5.802
 8802SOL     OW27304   2.386   6.335   1.520
 8802SOL    HW127305   2.341   6.357   1.607
 8802SOL    HW227306   2.480   6.368   1.523
 8803SOL     OW27307   3.938   5.806   2.254
 8803SOL    HW127308   3.898   5.852   2.174
 8803SOL    HW227309   3.867   5.751   2.299
 8804SOL     OW27310   2.848   0.984   1.792
 8804SOL    HW127311   2.846   0.921   1.869
 8804SOL    HW227312   2.812   0.939   1.711
 8805SOL     OW27313   0.725   0.499   3.435
 8805SOL    HW127314   0.765   0.411   3.460
 8805SOL    HW227315   0.648   0.485   3.372
 8806SOL     OW27316   1.630   5.012   0.302
 8806SOL    HW127317   1.721   5.013   0.344
 8806SOL    HW227318   1.573   4.944   0.349
 8807SOL     OW27319   2.361   5.499   6.412
 8807SOL    HW127320   2.307   5.566   6.362
 8807SOL    HW227321   2.458   5.515   6.395
 8808SOL     OW27322   5.345   2.232   0.935
 8808SOL    HW127323   5.291   2.295   0.879
 8808SOL    HW227324   5.372   2.278   1.020
 8809SOL     OW27325   5.980   4.828   0.243
 8809SOL    HW127326   5.992   4.787   0.333
 8809SOL    HW227327   5.882   4.837   0.224
 8810SOL     OW27328   5.068   1.679   4.050
 8810SOL    HW127329   5.119   1.692   3.965
 8810SOL    HW227330   5.014   1.595   4.045
 8811SOL     OW27331   1.379   0.930   3.302
 8811SOL    HW127332   1.464   0.888   3.332
 8811SOL    HW227333   1.385   1.029   3.312
 8812SOL     OW27334   2.656   1.031   0.098
 8812SOL    HW127335   2.690   0.972   0.171
 8812SOL    HW227336   2.680   1.126   0.117
 8813SOL     OW27337   1.361   5.536   1.433
 8813SOL    HW127338   1.417   5.567   1.357
 8813SOL    HW227339   1.306   5.612   1.468
 8814SOL     OW27340   5.702   6.593   5.793
 8814SOL    HW127341   5.676   6.662   5.860
 8814SOL    HW227342   5.623   6.572   5.734
 8815SOL     OW27343   6.131   5.461   3.060
 8815SOL    HW127344   6.048   5.517   3.055
 8815SOL    HW227345   6.116   5.386   3.125
 8816SOL     OW27346   0.528   5.120   1.908
 8816SOL    HW127347   0.527   5.220   1.920
 8816SOL    HW227348   0.572   5.078   1.987
 8817SOL     OW27349   2.240   3.833   5.290
 8817SOL    HW127350   2.321   3.886   5.266
 8817SOL    HW227351   2.209   3.780   5.211
 8818SOL     OW27352   0.207   4.635   5.060
 8818SOL    HW127353   0.113   4.605   5.043
 8818SOL    HW227354   0.239   4.690   4.983
 8819SOL     OW27355   6.790   0.449   3.932
 8819SOL    HW127356   6.774   0.486   4.024
 8819SOL    HW227357   6.831   0.358   3.940
 8820SOL     OW27358   1.126   2.346   3.357
 8820SOL    HW127359   1.214   2.319   3.319
 8820SOL    HW227360   1.109   2.442   3.338
 8821SOL     OW27361   1.820   6.956   6.510
 8821SOL    HW127362   1.870   6.912   6.585
 8821SOL    HW227363   1.840   6.908   6.424
 8822SOL     OW27364   1.250   2.711   4.065
 8822SOL    HW127365   1.257   2.744   4.159
 8822SOL    HW227366   1.154   2.696   4.041
 8823SOL     OW27367   2.184   5.326   1.510
 8823SOL    HW127368   2.275   5.285   1.507
 8823SOL    HW227369   2.123   5.276   1.448
 8824SOL     OW27370   4.637   4.281   0.971
 8824SOL    HW127371   4.550   4.253   0.929
 8824SOL    HW227372   4.672   4.206   1.028
 8825SOL     OW27373   2.418   2.354   0.139
 8825SOL    HW127374   2.379   2.272   0.097
 8825SOL    HW227375   2.403   2.433   0.081
 8826SOL     OW27376   5.916   0.507   1.448
 8826SOL    HW127377   6.016   0.517   1.450
 8826SOL    HW227378   5.877   0.581   1.394
 8827SOL     OW27379   6.471   1.763   3.548
 8827SOL    HW127380   6.403   1.689   3.548
 8827SOL    HW227381   6.545   1.739   3.611
 8828SOL     OW27382   1.374   6.050   3.358
 8828SOL    HW127383   1.434   6.110   3.411
 8828SOL    HW227384   1.294   6.026   3.412
 8829SOL     OW27385   1.594   0.725   1.279
 8829SOL    HW127386   1.674   0.735   1.339
 8829SOL    HW227387   1.564   0.816   1.250
 8830SOL     OW27388   1.367   1.338   0.746
 8830SOL    HW127389   1.335   1.433   0.755
 8830SOL    HW227390   1.394   1.322   0.651
 8831SOL     OW27391   6.555   1.352   1.917
 8831SOL    HW127392   6.560   1.313   1.825
 8831SOL    HW227393   6.579   1.449   1.914
 8832SOL     OW27394   6.094   1.154   2.548
 8832SOL    HW127395   6.027   1.162   2.473
 8832SOL    HW227396   6.148   1.071   2.535
 8833SOL     OW27397   1.118   5.459   2.215
 8833SOL    HW127398   1.055   5.514   2.160
 8833SOL    HW227399   1.071   5.428   2.298
 8834SOL     OW27400   5.908   4.144   3.792
 8834SOL    HW127401   5.900   4.229   3.739
 8834SOL    HW227402   5.881   4.161   3.886
 8835SOL     OW27403   0.772   1.255   0.447
 8835SOL    HW127404   0.839   1.321   0.412
 8835SOL    HW227405   0.806   1.162   0.431
 8836SOL     OW27406   4.875   1.812   2.007
 8836SOL    HW127407   4.872   1.909   1.984
 8836SOL    HW227408   4.822   1.761   1.939
 8837SOL     OW27409   0.020   2.242   1.910
 8837SOL    HW127410   0.042   2.276   2.002
 8837SOL    HW227411   6.964   2.298   1.870
 8838SOL     OW27412   1.500   6.122   3.799
 8838SOL    HW127413   1.428   6.056   3.819
 8838SOL    HW227414   1.573   6.114   3.867
 8839SOL     OW27415   5.305   5.837   4.323
 8839SOL    HW127416   5.298   5.738   4.308
 8839SOL    HW227417   5.277   5.858   4.417
 8840SOL     OW27418   4.186   0.692   2.027
 8840SOL    HW127419   4.098   0.705   2.073
 8840SOL    HW227420   4.246   0.638   2.086
 8841SOL     OW27421   3.754   0.328   3.790
 8841SOL    HW127422   3.711   0.254   3.841
 8841SOL    HW227423   3.684   0.380   3.741
 8842SOL     OW27424   1.418   2.460   1.682
 8842SOL    HW127425   1.451   2.383   1.627
 8842SOL    HW227426   1.425   2.436   1.779
 8843SOL     OW27427   0.209   2.863   4.224
 8843SOL    HW127428   0.301   2.872   4.262
 8843SOL    HW227429   0.142   2.864   4.298
 8844SOL     OW27430   5.640   1.704   6.902
 8844SOL    HW127431   5.621   1.649   6.984
 8844SOL    HW227432   5.660   1.643   6.826
 8845SOL     OW27433   4.878   2.823   0.001
 8845SOL    HW127434   4.805   2.778   6.965
 8845SOL    HW227435   4.860   2.812   0.099
 8846SOL     OW27436   3.461   4.889   3.521
 8846SOL    HW127437   3.445   4.946   3.602
 8846SOL    HW227438   3.555   4.855   3.523
 8847SOL     OW27439   0.920   1.384   3.105
 8847SOL    HW127440   0.999   1.405   3.048
 8847SOL    HW227441   0.928   1.432   3.193
 8848SOL     OW27442   0.788   1.296   3.500
 8848SOL    HW127443   0.805   1.264   3.593
 8848SOL    HW227444   0.723   1.234   3.455
 8849SOL     OW27445   2.960   6.981   1.427
 8849SOL    HW127446   2.898   6.972   1.349
 8849SOL    HW227447   2.923   0.033   1.492
 8850SOL     OW27448   3.134   2.467   6.854
 8850SOL    HW127449   3.218   2.522   6.857
 8850SOL    HW227450   3.157   2.371   6.871
 8851SOL     OW27451   2.145   3.742   1.946
 8851SOL    HW127452   2.166   3.804   2.022
 8851SOL    HW227453   2.119   3.652   1.982
 8852SOL     OW27454   0.347   2.313   4.555
 8852SOL    HW127455   0.291   2.336   4.634
 8852SOL    HW227456   0.335   2.216   4.532
 8853SOL     OW27457   4.765   0.685   1.686
 8853SOL    HW127458   4.784   0.589   1.706
 8853SOL    HW227459   4.749   0.734   1.772
 8854SOL     OW27460   6.901   2.826   4.906
 8854SOL    HW127461   6.836   2.803   4.978
 8854SOL    HW227462   6.888   2.921   4.877
 8855SOL     OW27463   5.015   4.651   1.231
 8855SOL    HW127464   4.981   4.661   1.138
 8855SOL    HW227465   4.962   4.581   1.278
 8856SOL     OW27466   5.810   0.860   6.090
 8856SOL    HW127467   5.793   0.802   6.010
 8856SOL    HW227468   5.877   0.816   6.150
 8857SOL     OW27469   6.658   2.134   6.456
 8857SOL    HW127470   6.566   2.154   6.489
 8857SOL    HW227471   6.680   2.038   6.474
 8858SOL     OW27472   6.710   5.600   4.875
 8858SOL    HW127473   6.794   5.547   4.887
 8858SOL    HW227474   6.695   5.616   4.778
 8859SOL     OW27475   0.816   5.770   2.894
 8859SOL    HW127476   0.834   5.740   2.800
 8859SOL    HW227477   0.825   5.691   2.956
 8860SOL     OW27478   6.501   2.605   2.137
 8860SOL    HW127479   6.555   2.663   2.077
 8860SOL    HW227480   6.484   2.653   2.224
 8861SOL     OW27481   3.215   2.593   1.391
 8861SOL    HW127482   3.304   2.628   1.419
 8861SOL    HW227483   3.194   2.626   1.299
 8862SOL     OW27484   4.302   4.679   4.699
 8862SOL    HW127485   4.310   4.647   4.793
 8862SOL    HW227486   4.234   4.624   4.650
 8863SOL     OW27487   1.446   3.507   1.656
 8863SOL    HW127488   1.429   3.410   1.677
 8863SOL    HW227489   1.368   3.561   1.688
 8864SOL     OW27490   6.245   1.692   5.132
 8864SOL    HW127491   6.298   1.722   5.052
 8864SOL    HW227492   6.306   1.681   5.210
 8865SOL     OW27493   3.279   1.354   0.957
 8865SOL    HW127494   3.273   1.306   1.044
 8865SOL    HW227495   3.354   1.421   0.961
 8866SOL     OW27496   6.186   6.915   1.759
 8866SOL    HW127497   6.173   6.816   1.762
 8866SOL    HW227498   6.282   6.937   1.776
 8867SOL     OW27499   6.142   2.837   2.840
 8867SOL    HW127500   6.229   2.821   2.794
 8867SOL    HW227501   6.155   2.901   2.916
 8868SOL     OW27502   0.302   3.024   3.423
 8868SOL    HW127503   0.401   3.011   3.419
 8868SOL    HW227504   0.282   3.117   3.456
 8869SOL     OW27505   4.837   0.223   3.348
 8869SOL    HW127506   4.787   0.137   3.343
 8869SOL    HW227507   4.910   0.216   3.416
 8870SOL     OW27508   0.842   0.889   1.976
 8870SOL    HW127509   0.910   0.892   2.050
 8870SOL    HW227510   0.751   0.878   2.015
 8871SOL     OW27511   0.135   6.967   1.327
 8871SOL    HW127512   0.106   0.034   1.280
 8871SOL    HW227513   0.201   6.990   1.398
 8872SOL     OW27514   6.878   4.465   3.668
 8872SOL    HW127515   6.958   4.526   3.664
 8872SOL    HW227516   6.797   4.518   3.691
 8873SOL     OW27517   1.960   1.551   3.367
 8873SOL    HW127518   2.033   1.609   3.403
 8873SOL    HW227519   1.901   1.521   3.442
 8874SOL     OW27520   2.800   5.784   0.587
 8874SOL    HW127521   2.862   5.761   0.512
 8874SOL    HW227522   2.711   5.741   0.572
 8875SOL     OW27523   6.120   3.013   4.437
 8875SOL    HW127524   6.197   2.970   4.486
 8875SOL    HW227525   6.044   2.948   4.431
 8876SOL     OW27526   4.244   0.687   0.727
 8876SOL    HW127527   4.149   0.656   0.729
 8876SOL    HW227528   4.265   0.726   0.637
 8877SOL     OW27529   0.586   4.635   1.067
 8877SOL    HW127530   0.680   4.604   1.055
 8877SOL    HW227531   0.561   4.632   1.163
 8878SOL     OW27532   4.890   3.822   1.920
 8878SOL    HW127533   4.982   3.795   1.949
 8878SOL    HW227534   4.848   3.748   1.868
 8879SOL     OW27535   6.510   4.072   3.877
 8879SOL    HW127536   6.532   4.032   3.788
 8879SOL    HW227537   6.528   4.005   3.949
 8880SOL     OW27538   4.132   2.143   3.050
 8880SOL    HW127539   4.138   2.062   3.108
 8880SOL    HW227540   4.220   2.190   3.048
 8881SOL     OW27541   3.800   5.301   2.723
 8881SOL    HW127542   3.757   5.250   2.648
 8881SOL    HW227543   3.738   5.302   2.801
 8882SOL     OW27544   3.931   1.196   0.548
 8882SOL    HW127545   3.957   1.286   0.514
 8882SOL    HW227546   3.951   1.190   0.646
 8883SOL     OW27547   0.989   6.350   2.924
 8883SOL    HW127548   1.081   6.375   2.953
 8883SOL    HW227549   0.925   6.369   2.998
 8884SOL     OW27550   4.648   2.825   5.922
 8884SOL    HW127551   4.715   2.780   5.864
 8884SOL    HW227552   4.629   2.766   6.001
 8885SOL     OW27553   5.901   5.057   0.890
 8885SOL    HW127554   5.943   5.148   0.894
 8885SOL    HW227555   5.814   5.063   0.841
 8886SOL     OW27556   5.123   6.616   0.484
 8886SOL    HW127557   5.118   6.556   0.564
 8886SOL    HW227558   5.086   6.569   0.404
 8887SOL     OW27559   3.601   0.097   1.537
 8887SOL    HW127560   3.568   0.167   1.601
 8887SOL    HW227561   3.674   0.135   1.481
 8888SOL     OW27562   3.847   2.148   2.240
 8888SOL    HW127563   3.917   2.218   2.250
 8888SOL    HW227564   3.796   2.163   2.155
 8889SOL     OW27565   1.468   4.509   6.858
 8889SOL    HW127566   1.391   4.550   6.907
 8889SOL    HW227567   1.465   4.410   6.869
 8890SOL     OW27568   1.510   5.779   0.132
 8890SOL    HW127569   1.457   5.843   0.076
 8890SOL    HW227570   1.600   5.817   0.150
 8891SOL     OW27571   6.207   3.479   5.066
 8891SOL    HW127572   6.277   3.438   5.008
 8891SOL    HW227573   6.127   3.420   5.069
 8892SOL     OW27574   2.409   5.103   4.641
 8892SOL    HW127575   2.336   5.054   4.690
 8892SOL    HW227576   2.498   5.062   4.665
 8893SOL     OW27577   0.560   4.544   5.329
 8893SOL    HW127578   0.541   4.639   5.304
 8893SOL    HW227579   0.596   4.541   5.422
 8894SOL     OW27580   4.986   2.671   1.952
 8894SOL    HW127581   4.942   2.732   2.018
 8894SOL    HW227582   5.069   2.632   1.992
 8895SOL     OW27583   6.729   3.657   1.300
 8895SOL    HW127584   6.664   3.733   1.297
 8895SOL    HW227585   6.810   3.681   1.247
 8896SOL     OW27586   0.760   1.188   3.821
 8896SOL    HW127587   0.735   1.216   3.914
 8896SOL    HW227588   0.828   1.115   3.825
 8897SOL     OW27589   1.542   5.499   4.442
 8897SOL    HW127590   1.582   5.549   4.520
 8897SOL    HW227591   1.615   5.450   4.394
 8898SOL     OW27592   5.549   4.736   2.430
 8898SOL    HW127593   5.634   4.784   2.409
 8898SOL    HW227594   5.473   4.785   2.387
 8899SOL     OW27595   1.955   3.981   1.947
 8899SOL    HW127596   2.035   3.921   1.938
 8899SOL    HW227597   1.881   3.948   1.889
 8900SOL     OW27598   3.945   1.630   4.320
 8900SOL    HW127599   3.873   1.682   4.272
 8900SOL    HW227600   3.917   1.615   4.414
 8901SOL     OW27601   1.417   5.126   4.927
 8901SOL    HW127602   1.395   5.109   5.023
 8901SOL    HW227603   1.349   5.083   4.868
 8902SOL     OW27604   0.560   5.098   6.393
 8902SOL    HW127605   0.518   5.152   6.466
 8902SOL    HW227606   0.525   5.128   6.304
 8903SOL     OW27607   0.698   0.482   4.639
 8903SOL    HW127608   0.633   0.550   4.606
 8903SOL    HW227609   0.750   0.519   4.716
 8904SOL     OW27610   0.327   1.259   3.090
 8904SOL    HW127611   0.255   1.321   3.122
 8904SOL    HW227612   0.388   1.237   3.166
 8905SOL     OW27613   1.895   4.648   1.563
 8905SOL    HW127614   1.908   4.663   1.465
 8905SOL    HW227615   1.866   4.553   1.578
 8906SOL     OW27616   5.980   0.646   6.772
 8906SOL    HW127617   5.998   0.686   6.683
 8906SOL    HW227618   6.039   0.689   6.841
 8907SOL     OW27619   2.490   3.395   5.397
 8907SOL    HW127620   2.403   3.385   5.349
 8907SOL    HW227621   2.550   3.318   5.375
 8908SOL     OW27622   1.731   5.307   6.072
 8908SOL    HW127623   1.723   5.303   5.972
 8908SOL    HW227624   1.761   5.399   6.099
 8909SOL     OW27625   2.415   6.080   1.956
 8909SOL    HW127626   2.431   6.149   2.026
 8909SOL    HW227627   2.467   5.997   1.979
 8910SOL     OW27628   1.323   1.046   3.834
 8910SOL    HW127629   1.343   0.971   3.771
 8910SOL    HW227630   1.323   1.133   3.784
 8911SOL     OW27631   5.345   2.809   4.462
 8911SOL    HW127632   5.400   2.806   4.379
 8911SOL    HW227633   5.268   2.746   4.454
 8912SOL     OW27634   3.453   2.933   3.504
 8912SOL    HW127635   3.538   2.923   3.452
 8912SOL    HW227636   3.381   2.878   3.462
 8913SOL     OW27637   4.946   5.539   1.117
 8913SOL    HW127638   4.866   5.597   1.102
 8913SOL    HW227639   4.998   5.531   1.031
 8914SOL     OW27640   4.803   5.843   5.435
 8914SOL    HW127641   4.789   5.750   5.469
 8914SOL    HW227642   4.772   5.909   5.503
 8915SOL     OW27643   2.583   1.148   3.708
 8915SOL    HW127644   2.504   1.126   3.652
 8915SOL    HW227645   2.663   1.160   3.650
 8916SOL     OW27646   5.789   0.897   2.525
 8916SOL    HW127647   5.816   0.918   2.431
 8916SOL    HW227648   5.795   0.799   2.540
 8917SOL     OW27649   5.672   2.114   0.546
 8917SOL    HW127650   5.745   2.103   0.479
 8917SOL    HW227651   5.699   2.183   0.613
 8918SOL     OW27652   1.390   3.398   2.614
 8918SOL    HW127653   1.442   3.408   2.699
 8918SOL    HW227654   1.437   3.446   2.540
 8919SOL     OW27655   6.572   2.670   2.565
 8919SOL    HW127656   6.649   2.638   2.620
 8919SOL    HW227657   6.499   2.602   2.568
 8920SOL     OW27658   1.007   1.899   0.970
 8920SOL    HW127659   1.006   1.889   1.070
 8920SOL    HW227660   0.945   1.973   0.943
 8921SOL     OW27661   1.088   2.821   1.409
 8921SOL    HW127662   1.138   2.893   1.457
 8921SOL    HW227663   1.065   2.852   1.317
 8922SOL     OW27664   3.014   4.839   3.278
 8922SOL    HW127665   3.073   4.828   3.358
 8922SOL    HW227666   2.926   4.794   3.294
 8923SOL     OW27667   2.866   1.443   3.686
 8923SOL    HW127668   2.836   1.481   3.774
 8923SOL    HW227669   2.789   1.442   3.622
 8924SOL     OW27670   6.110   5.091   4.779
 8924SOL    HW127671   6.172   5.030   4.829
 8924SOL    HW227672   6.019   5.087   4.819
 8925SOL     OW27673   0.435   6.686   4.036
 8925SOL    HW127674   0.386   6.769   4.007
 8925SOL    HW227675   0.393   6.649   4.118
 8926SOL     OW27676   5.775   1.920   7.010
 8926SOL    HW127677   5.801   1.988   6.942
 8926SOL    HW227678   5.748   1.835   6.964
 8927SOL     OW27679   1.573   1.631   6.487
 8927SOL    HW127680   1.521   1.577   6.421
 8927SOL    HW227681   1.535   1.724   6.491
 8928SOL     OW27682   1.630   6.912   5.577
 8928SOL    HW127683   1.647   6.937   5.481
 8928SOL    HW227684   1.535   6.881   5.586
 8929SOL     OW27685   6.930   1.693   3.515
 8929SOL    HW127686   6.965   1.753   3.443
 8929SOL    HW227687   6.833   1.675   3.499
 8930SOL     OW27688   2.406   5.371   3.010
 8930SOL    HW127689   2.399   5.272   2.995
 8930SOL    HW227690   2.409   5.389   3.109
 8931SOL     OW27691   4.275   3.137   6.769
 8931SOL    HW127692   4.333   3.094   6.699
 8931SOL    HW227693   4.179   3.128   6.742
 8932SOL     OW27694   0.327   4.098   2.995
 8932SOL    HW127695   0.251   4.150   2.956
 8932SOL    HW227696   0.395   4.080   2.925
 8933SOL     OW27697   4.937   1.788   6.217
 8933SOL    HW127698   4.882   1.838   6.284
 8933SOL    HW227699   4.910   1.816   6.125
 8934SOL     OW27700   2.573   5.935   2.773
 8934SOL    HW127701   2.492   5.990   2.789
 8934SOL    HW227702   2.636   5.984   2.713
 8935SOL     OW27703   6.873   5.504   6.923
 8935SOL    HW127704   6.959   5.549   6.898
 8935SOL    HW227705   6.841   5.540   7.011
 8936SOL     OW27706   4.106   2.939   1.212
 8936SOL    HW127707   4.110   2.840   1.202
 8936SOL    HW227708   4.124   2.983   1.124
 8937SOL     OW27709   0.677   1.221   6.328
 8937SOL    HW127710   0.676   1.310   6.374
 8937SOL    HW227711   0.728   1.229   6.242
 8938SOL     OW27712   4.493   6.003   1.869
 8938SOL    HW127713   4.542   5.924   1.833
 8938SOL    HW227714   4.431   6.039   1.799
 8939SOL     OW27715   5.868   2.155   4.322
 8939SOL    HW127716   5.801   2.161   4.396
 8939SOL    HW227717   5.862   2.236   4.264
 8940SOL     OW27718   5.733   6.992   2.472
 8940SOL    HW127719   5.788   0.057   2.452
 8940SOL    HW227720   5.789   6.924   2.520
 8941SOL     OW27721   3.728   1.387   0.042
 8941SOL    HW127722   3.743   1.300   7.010
 8941SOL    HW227723   3.636   1.420   0.022
 8942SOL     OW27724   1.163   2.201   5.629
 8942SOL    HW127725   1.152   2.145   5.547
 8942SOL    HW227726   1.188   2.294   5.603
 8943SOL     OW27727   5.327   3.808   0.684
 8943SOL    HW127728   5.307   3.763   0.597
 8943SOL    HW227729   5.337   3.907   0.669
 8944SOL     OW27730   4.036   5.679   1.578
 8944SOL    HW127731   3.956   5.623   1.558
 8944SOL    HW227732   4.094   5.633   1.644
 8945SOL     OW27733   2.177   0.936   4.007
 8945SOL    HW127734   2.154   0.957   4.102
 8945SOL    HW227735   2.144   1.009   3.948
 8946SOL     OW27736   4.033   0.618   4.508
 8946SOL    HW127737   3.960   0.675   4.544
 8946SOL    HW227738   4.096   0.593   4.582
 8947SOL     OW27739   3.889   4.139   5.136
 8947SOL    HW127740   3.987   4.127   5.150
 8947SOL    HW227741   3.863   4.104   5.046
 8948SOL     OW27742   5.716   4.852   3.423
 8948SOL    HW127743   5.794   4.790   3.437
 8948SOL    HW227744   5.701   4.863   3.324
 8949SOL     OW27745   1.426   5.434   5.768
 8949SOL    HW127746   1.339   5.386   5.777
 8949SOL    HW227747   1.442   5.492   5.848
 8950SOL     OW27748   4.738   2.803   4.635
 8950SOL    HW127749   4.679   2.801   4.554
 8950SOL    HW227750   4.743   2.711   4.674
 8951SOL     OW27751   2.920   2.507   5.466
 8951SOL    HW127752   2.978   2.426   5.461
 8951SOL    HW227753   2.915   2.550   5.375
 8952SOL     OW27754   6.331   6.672   3.399
 8952SOL    HW127755   6.331   6.611   3.319
 8952SOL    HW227756   6.426   6.688   3.427
 8953SOL     OW27757   1.628   5.257   5.827
 8953SOL    HW127758   1.617   5.181   5.763
 8953SOL    HW227759   1.579   5.337   5.792
 8954SOL     OW27760   2.605   6.094   6.154
 8954SOL    HW127761   2.703   6.104   6.172
 8954SOL    HW227762   2.553   6.130   6.232
 8955SOL     OW27763   6.631   3.807   4.520
 8955SOL    HW127764   6.584   3.777   4.438
 8955SOL    HW227765   6.611   3.903   4.537
 8956SOL     OW27766   1.072   0.549   4.664
 8956SOL    HW127767   1.078   0.453   4.639
 8956SOL    HW227768   1.040   0.603   4.586
 8957SOL     OW27769   3.012   5.996   1.598
 8957SOL    HW127770   2.961   5.948   1.670
 8957SOL    HW227771   3.033   6.089   1.627
 8958SOL     OW27772   2.891   0.500   4.432
 8958SOL    HW127773   2.796   0.510   4.462
 8958SOL    HW227774   2.934   0.424   4.481
 8959SOL     OW27775   3.862   5.365   0.008
 8959SOL    HW127776   3.867   5.423   0.089
 8959SOL    HW227777   3.786   5.301   0.018
 8960SOL     OW27778   4.146   5.950   1.058
 8960SOL    HW127779   4.072   6.016   1.049
 8960SOL    HW227780   4.129   5.891   1.137
 8961SOL     OW27781   0.758   2.941   4.034
 8961SOL    HW127782   0.797   2.990   4.113
 8961SOL    HW227783   0.671   2.900   4.060
 8962SOL     OW27784   4.791   0.487   3.732
 8962SOL    HW127785   4.863   0.550   3.762
 8962SOL    HW227786   4.702   0.522   3.762
 8963SOL     OW27787   0.623   1.129   4.063
 8963SOL    HW127788   0.527   1.111   4.045
 8963SOL    HW227789   0.632   1.184   4.146
 8964SOL     OW27790   6.751   3.437   2.717
 8964SOL    HW127791   6.829   3.479   2.764
 8964SOL    HW227792   6.710   3.503   2.654
 8965SOL     OW27793   1.815   5.046   1.501
 8965SOL    HW127794   1.731   5.094   1.528
 8965SOL    HW227795   1.860   5.009   1.582
 8966SOL     OW27796   3.955   1.891   4.982
 8966SOL    HW127797   3.976   1.988   4.966
 8966SOL    HW227798   3.857   1.876   4.973
 8967SOL     OW27799   5.267   6.259   0.810
 8967SOL    HW127800   5.205   6.264   0.888
 8967SOL    HW227801   5.291   6.163   0.792
 8968SOL     OW27802   5.780   4.040   3.472
 8968SOL    HW127803   5.788   3.983   3.553
 8968SOL    HW227804   5.704   4.105   3.484
 8969SOL     OW27805   6.790   0.253   4.233
 8969SOL    HW127806   6.700   0.210   4.235
 8969SOL    HW227807   6.802   0.308   4.315
 8970SOL     OW27808   3.105   2.841   1.411
 8970SOL    HW127809   3.108   2.887   1.500
 8970SOL    HW227810   3.154   2.754   1.417
 8971SOL     OW27811   3.880   6.076   2.912
 8971SOL    HW127812   3.808   6.122   2.860
 8971SOL    HW227813   3.939   6.145   2.954
 8972SOL     OW27814   5.004   0.363   4.740
 8972SOL    HW127815   5.057   0.422   4.802
 8972SOL    HW227816   5.055   0.349   4.655
 8973SOL     OW27817   2.090   4.785   6.268
 8973SOL    HW127818   2.010   4.756   6.215
 8973SOL    HW227819   2.173   4.763   6.218
 8974SOL     OW27820   0.453   2.927   3.959
 8974SOL    HW127821   0.439   2.954   3.864
 8974SOL    HW227822   0.491   3.005   4.010
 8975SOL     OW27823   3.654   1.067   6.216
 8975SOL    HW127824   3.571   1.121   6.222
 8975SOL    HW227825   3.675   1.028   6.305
 8976SOL     OW27826   1.501   5.650   3.850
 8976SOL    HW127827   1.435   5.582   3.883
 8976SOL    HW227828   1.518   5.636   3.753
 8977SOL     OW27829   5.363   1.372   0.146
 8977SOL    HW127830   5.410   1.447   0.099
 8977SOL    HW227831   5.330   1.306   0.079
 8978SOL     OW27832   5.835   5.307   1.465
 8978SOL    HW127833   5.749   5.335   1.422
 8978SOL    HW227834   5.869   5.223   1.421
 8979SOL     OW27835   0.933   4.346   4.689
 8979SOL    HW127836   0.927   4.264   4.632
 8979SOL    HW227837   0.842   4.383   4.704
 8980SOL     OW27838   3.685   3.007   4.459
 8980SOL    HW127839   3.710   2.988   4.554
 8980SOL    HW227840   3.586   3.003   4.449
 8981SOL     OW27841   2.824   1.776   5.380
 8981SOL    HW127842   2.914   1.784   5.337
 8981SOL    HW227843   2.780   1.691   5.351
 8982SOL     OW27844   3.561   4.700   0.234
 8982SOL    HW127845   3.583   4.787   0.277
 8982SOL    HW227846   3.519   4.639   0.301
 8983SOL     OW27847   4.873   4.415   0.921
 8983SOL    HW127848   4.854   4.508   0.890
 8983SOL    HW227849   4.788   4.372   0.952
 8984SOL     OW27850   1.432   6.642   3.443
 8984SOL    HW127851   1.427   6.611   3.348
 8984SOL    HW227852   1.527   6.663   3.467
 8985SOL     OW27853   3.260   3.307   6.067
 8985SOL    HW127854   3.160   3.304   6.068
 8985SOL    HW227855   3.293   3.268   5.981
 8986SOL     OW27856   2.645   6.113   2.176
 8986SOL    HW127857   2.669   6.184   2.109
 8986SOL    HW227858   2.642   6.024   2.130
 8987SOL     OW27859   5.373   6.751   2.109
 8987SOL    HW127860   5.455   6.801   2.082
 8987SOL    HW227861   5.316   6.810   2.167
 8988SOL     OW27862   0.422   4.668   4.703
 8988SOL    HW127863   0.408   4.627   4.793
 8988SOL    HW227864   0.362   4.623   4.636
 8989SOL     OW27865   2.473   2.261   6.724
 8989SOL    HW127866   2.415   2.198   6.673
 8989SOL    HW227867   2.562   2.269   6.679
 8990SOL     OW27868   6.979   4.926   3.455
 8990SOL    HW127869   6.992   4.829   3.430
 8990SOL    HW227870   6.967   4.980   3.372
 8991SOL     OW27871   1.423   2.328   5.151
 8991SOL    HW127872   1.330   2.331   5.116
 8991SOL    HW227873   1.452   2.233   5.160
 8992SOL     OW27874   6.003   2.322   1.605
 8992SOL    HW127875   6.040   2.401   1.655
 8992SOL    HW227876   5.998   2.243   1.666
 8993SOL     OW27877   4.109   2.283   0.585
 8993SOL    HW127878   4.097   2.237   0.673
 8993SOL    HW227879   4.111   2.382   0.600
 8994SOL     OW27880   1.713   5.544   2.735
 8994SOL    HW127881   1.620   5.518   2.759
 8994SOL    HW227882   1.723   5.643   2.743
 8995SOL     OW27883   0.350   0.191   1.738
 8995SOL    HW127884   0.411   0.256   1.694
 8995SOL    HW227885   0.334   0.220   1.832
 8996SOL     OW27886   4.034   6.356   5.765
 8996SOL    HW127887   4.037   6.332   5.668
 8996SOL    HW227888   3.939   6.352   5.797
 8997SOL     OW27889   6.472   0.154   4.816
 8997SOL    HW127890   6.531   0.151   4.897
 8997SOL    HW227891   6.505   0.224   4.753
 8998SOL     OW27892   7.006   4.038   4.455
 8998SOL    HW127893   0.051   4.083   4.521
 8998SOL    HW227894   0.023   3.945   4.437
 8999SOL     OW27895   4.091   6.091   6.068
 8999SOL    HW127896   4.100   6.015   6.132
 8999SOL    HW227897   3.995   6.100   6.040
 9000SOL     OW27898   0.914   3.733   1.612
 9000SOL    HW127899   0.937   3.806   1.549
 9000SOL    HW227900   0.971   3.653   1.593
 9001SOL     OW27901   1.580   5.801   1.121
 9001SOL    HW127902   1.585   5.713   1.168
 9001SOL    HW227903   1.660   5.813   1.063
 9002SOL     OW27904   6.910   4.877   6.399
 9002SOL    HW127905   6.971   4.886   6.320
 9002SOL    HW227906   6.915   4.785   6.435
 9003SOL     OW27907   5.291   6.921   0.666
 9003SOL    HW127908   5.357   6.919   0.742
 9003SOL    HW227909   5.336   6.890   0.582
 9004SOL     OW27910   5.983   5.106   1.366
 9004SOL    HW127911   6.024   5.081   1.453
 9004SOL    HW227912   5.933   5.028   1.328
 9005SOL     OW27913   5.146   0.548   5.291
 9005SOL    HW127914   5.055   0.590   5.302
 9005SOL    HW227915   5.191   0.587   5.211
 9006SOL     OW27916   4.285   5.990   0.217
 9006SOL    HW127917   4.359   6.055   0.232
 9006SOL    HW227918   4.317   5.917   0.156
 9007SOL     OW27919   1.311   1.152   2.975
 9007SOL    HW127920   1.212   1.142   2.987
 9007SOL    HW227921   1.332   1.245   2.945
 9008SOL     OW27922   0.406   5.205   2.392
 9008SOL    HW127923   0.404   5.150   2.308
 9008SOL    HW227924   0.329   5.268   2.392
 9009SOL     OW27925   2.791   6.443   2.206
 9009SOL    HW127926   2.796   6.378   2.130
 9009SOL    HW227927   2.710   6.425   2.260
 9010SOL     OW27928   1.517   5.721   4.644
 9010SOL    HW127929   1.469   5.640   4.679
 9010SOL    HW227930   1.454   5.776   4.590
 9011SOL     OW27931   2.001   2.213   2.269
 9011SOL    HW127932   1.971   2.285   2.332
 9011SOL    HW227933   2.082   2.244   2.219
 9012SOL     OW27934   2.620   5.884   7.012
 9012SOL    HW127935   2.536   5.920   0.037
 9012SOL    HW227936   2.605   5.790   6.981
 9013SOL     OW27937   1.957   0.303   4.620
 9013SOL    HW127938   2.014   0.229   4.586
 9013SOL    HW227939   1.872   0.266   4.656
 9014SOL     OW27940   5.194   3.024   3.427
 9014SOL    HW127941   5.278   2.976   3.401
 9014SOL    HW227942   5.217   3.106   3.478
 9015SOL     OW27943   4.506   0.048   6.311
 9015SOL    HW127944   4.577   0.061   6.242
 9015SOL    HW227945   4.435   0.117   6.300
 9016SOL     OW27946   4.737   4.780   5.926
 9016SOL    HW127947   4.711   4.740   5.839
 9016SOL    HW227948   4.797   4.859   5.910
 9017SOL     OW27949   3.461   0.248   5.253
 9017SOL    HW127950   3.402   0.176   5.215
 9017SOL    HW227951   3.432   0.269   5.346
 9018SOL     OW27952   3.603   4.913   0.391
 9018SOL    HW127953   3.546   4.891   0.470
 9018SOL    HW227954   3.578   5.003   0.356
 9019SOL     OW27955   0.512   3.429   3.488
 9019SOL    HW127956   0.474   3.519   3.468
 9019SOL    HW227957   0.508   3.412   3.587
 9020SOL     OW27958   5.488   4.533   3.355
 9020SOL    HW127959   5.505   4.609   3.292
 9020SOL    HW227960   5.479   4.449   3.302
 9021SOL     OW27961   0.278   1.404   3.962
 9021SOL    HW127962   0.277   1.358   4.051
 9021SOL    HW227963   0.369   1.393   3.920
 9022SOL     OW27964   4.466   3.556   6.748
 9022SOL    HW127965   4.505   3.522   6.662
 9022SOL    HW227966   4.531   3.541   6.822
 9023SOL     OW27967   6.941   4.825   0.463
 9023SOL    HW127968   7.001   4.826   0.543
 9023SOL    HW227969   6.864   4.763   0.479
 9024SOL     OW27970   2.353   4.986   6.207
 9024SOL    HW127971   2.320   4.897   6.177
 9024SOL    HW227972   2.279   5.054   6.198
 9025SOL     OW27973   0.695   5.923   1.088
 9025SOL    HW127974   0.711   5.923   0.989
 9025SOL    HW227975   0.637   6.001   1.111
 9026SOL     OW27976   5.298   0.924   0.419
 9026SOL    HW127977   5.308   1.016   0.382
 9026SOL    HW227978   5.262   0.929   0.512
 9027SOL     OW27979   0.422   3.692   3.515
 9027SOL    HW127980   0.361   3.671   3.592
 9027SOL    HW227981   0.367   3.699   3.431
 9028SOL     OW27982   3.227   4.897   6.259
 9028SOL    HW127983   3.185   4.842   6.332
 9028SOL    HW227984   3.276   4.974   6.300
 9029SOL     OW27985   4.546   6.620   4.811
 9029SOL    HW127986   4.504   6.698   4.856
 9029SOL    HW227987   4.534   6.627   4.712
 9030SOL     OW27988   2.878   2.233   2.323
 9030SOL    HW127989   2.879   2.304   2.253
 9030SOL    HW227990   2.830   2.153   2.288
 9031SOL     OW27991   4.951   0.008   4.818
 9031SOL    HW127992   4.926   0.103   4.798
 9031SOL    HW227993   5.031   6.998   4.763
 9032SOL     OW27994   5.244   2.472   1.119
 9032SOL    HW127995   5.220   2.473   1.022
 9032SOL    HW227996   5.320   2.535   1.135
 9033SOL     OW27997   1.294   6.430   2.884
 9033SOL    HW127998   1.283   6.347   2.938
 9033SOL    HW227999   1.390   6.457   2.883
 9034SOL     OW28000   4.801   6.732   4.274
 9034SOL    HW128001   4.885   6.717   4.222
 9034SOL    HW228002   4.804   6.679   4.359
 9035SOL     OW28003   3.205   5.120   5.878
 9035SOL    HW128004   3.248   5.037   5.914
 9035SOL    HW228005   3.115   5.097   5.840
 9036SOL     OW28006   0.864   4.766   5.223
 9036SOL    HW128007   0.960   4.746   5.204
 9036SOL    HW228008   0.846   4.754   5.320
 9037SOL     OW28009   0.032   0.731   2.070
 9037SOL    HW128010   0.068   0.670   2.141
 9037SOL    HW228011   0.101   0.799   2.046
 9038SOL     OW28012   3.953   3.455   5.814
 9038SOL    HW128013   4.038   3.475   5.765
 9038SOL    HW228014   3.898   3.392   5.760
 9039SOL     OW28015   4.636   6.205   6.789
 9039SOL    HW128016   4.615   6.264   6.710
 9039SOL    HW228017   4.585   6.120   6.781
 9040SOL     OW28018   2.059   2.244   1.427
 9040SOL    HW128019   2.082   2.189   1.346
 9040SOL    HW228020   2.097   2.200   1.509
 9041SOL     OW28021   6.212   2.077   3.036
 9041SOL    HW128022   6.180   2.165   3.001
 9041SOL    HW228023   6.141   2.036   3.092
 9042SOL     OW28024   5.139   5.666   6.994
 9042SOL    HW128025   5.059   5.607   7.002
 9042SOL    HW228026   5.127   5.728   6.916
 9043SOL     OW28027   2.836   3.060   1.763
 9043SOL    HW128028   2.772   3.136   1.773
 9043SOL    HW228029   2.790   2.985   1.715
 9044SOL     OW28030   1.205   0.512   0.641
 9044SOL    HW128031   1.205   0.500   0.542
 9044SOL    HW228032   1.153   0.438   0.683
 9045SOL     OW28033   4.061   0.680   4.087
 9045SOL    HW128034   3.988   0.739   4.123
 9045SOL    HW228035   4.024   0.623   4.014
 9046SOL     OW28036   3.784   2.881   2.450
 9046SOL    HW128037   3.764   2.791   2.412
 9046SOL    HW228038   3.851   2.928   2.392
 9047SOL     OW28039   0.861   4.458   5.815
 9047SOL    HW128040   0.941   4.429   5.868
 9047SOL    HW228041   0.834   4.550   5.843
 9048SOL     OW28042   7.013   1.810   5.511
 9048SOL    HW128043   6.933   1.767   5.552
 9048SOL    HW228044   6.987   1.855   5.426
 9049SOL     OW28045   2.453   6.612   5.090
 9049SOL    HW128046   2.428   6.685   5.154
 9049SOL    HW228047   2.524   6.555   5.131
 9050SOL     OW28048   0.671   4.651   0.667
 9050SOL    HW128049   0.651   4.558   0.696
 9050SOL    HW228050   0.754   4.683   0.712
 9051SOL     OW28051   2.275   0.706   1.707
 9051SOL    HW128052   2.185   0.705   1.750
 9051SOL    HW228053   2.283   0.785   1.646
 9052SOL     OW28054   2.068   3.874   6.475
 9052SOL    HW128055   2.009   3.833   6.544
 9052SOL    HW228056   2.157   3.897   6.515
 9053SOL     OW28057   0.598   0.961   6.930
 9053SOL    HW128058   0.625   0.867   6.910
 9053SOL    HW228059   0.603   1.016   6.847
 9054SOL     OW28060   1.428   5.527   2.835
 9054SOL    HW128061   1.401   5.584   2.757
 9054SOL    HW228062   1.358   5.532   2.906
 9055SOL     OW28063   0.600   2.497   5.967
 9055SOL    HW128064   0.689   2.469   6.002
 9055SOL    HW228065   0.555   2.419   5.925
 9056SOL     OW28066   5.540   1.676   3.903
 9056SOL    HW128067   5.552   1.680   3.804
 9056SOL    HW228068   5.581   1.758   3.944
 9057SOL     OW28069   4.581   1.918   3.845
 9057SOL    HW128070   4.487   1.952   3.843
 9057SOL    HW228071   4.636   1.973   3.908
 9058SOL     OW28072   2.363   0.072   5.638
 9058SOL    HW128073   2.372   0.077   5.738
 9058SOL    HW228074   2.408   0.152   5.597
 9059SOL     OW28075   0.980   2.484   3.737
 9059SOL    HW128076   1.076   2.504   3.756
 9059SOL    HW228077   0.959   2.391   3.766
 9060SOL     OW28078   5.236   3.213   5.064
 9060SOL    HW128079   5.308   3.261   5.014
 9060SOL    HW228080   5.277   3.137   5.116
 9061SOL     OW28081   1.536   4.711   3.141
 9061SOL    HW128082   1.612   4.723   3.076
 9061SOL    HW228083   1.450   4.731   3.095
 9062SOL     OW28084   1.744   6.219   1.501
 9062SOL    HW128085   1.672   6.198   1.568
 9062SOL    HW228086   1.818   6.152   1.509
 9063SOL     OW28087   2.917   1.815   2.503
 9063SOL    HW128088   2.913   1.812   2.403
 9063SOL    HW228089   2.984   1.884   2.532
 9064SOL     OW28090   5.178   4.135   6.985
 9064SOL    HW128091   5.143   4.048   6.951
 9064SOL    HW228092   5.107   4.181   0.024
 9065SOL     OW28093   3.002   1.033   1.492
 9065SOL    HW128094   3.012   1.113   1.551
 9065SOL    HW228095   2.908   1.000   1.495
 9066SOL     OW28096   5.400   6.786   0.080
 9066SOL    HW128097   5.304   6.761   0.093
 9066SOL    HW228098   5.427   6.765   7.002
 9067SOL     OW28099   1.028   0.306   1.466
 9067SOL    HW128100   0.993   0.230   1.520
 9067SOL    HW228101   1.023   0.284   1.369
 9068SOL     OW28102   1.580   6.106   6.271
 9068SOL    HW128103   1.523   6.180   6.307
 9068SOL    HW228104   1.556   6.089   6.176
 9069SOL     OW28105   1.125   2.324   6.279
 9069SOL    HW128106   1.036   2.283   6.301
 9069SOL    HW228107   1.137   2.326   6.180
 9070SOL     OW28108   1.770   4.467   3.853
 9070SOL    HW128109   1.800   4.510   3.939
 9070SOL    HW228110   1.681   4.504   3.827
 9071SOL     OW28111   4.825   5.762   6.857
 9071SOL    HW128112   4.821   5.667   6.888
 9071SOL    HW228113   4.917   5.781   6.820
 9072SOL     OW28114   4.733   4.479   0.647
 9072SOL    HW128115   4.725   4.380   0.639
 9072SOL    HW228116   4.827   4.506   0.624
 9073SOL     OW28117   2.311   0.334   1.180
 9073SOL    HW128118   2.290   0.296   1.271
 9073SOL    HW228119   2.398   0.296   1.148
 9074SOL     OW28120   0.440   0.607   2.163
 9074SOL    HW128121   0.530   0.568   2.145
 9074SOL    HW228122   0.445   0.706   2.160
 9075SOL     OW28123   6.861   0.278   1.470
 9075SOL    HW128124   6.807   0.361   1.483
 9075SOL    HW228125   6.939   0.279   1.533
 9076SOL     OW28126   0.920   2.129   5.479
 9076SOL    HW128127   0.835   2.162   5.436
 9076SOL    HW228128   0.899   2.056   5.544
 9077SOL     OW28129   5.837   6.380   1.994
 9077SOL    HW128130   5.744   6.343   1.990
 9077SOL    HW228131   5.834   6.479   1.979
 9078SOL     OW28132   4.517   3.267   5.700
 9078SOL    HW128133   4.482   3.341   5.757
 9078SOL    HW228134   4.574   3.304   5.627
 9079SOL     OW28135   3.239   0.531   5.541
 9079SOL    HW128136   3.306   0.539   5.467
 9079SOL    HW228137   3.156   0.580   5.516
 9080SOL     OW28138   4.740   1.126   0.041
 9080SOL    HW128139   4.671   1.159   6.992
 9080SOL    HW228140   4.734   1.027   0.049
 9081SOL     OW28141   5.414   0.076   3.284
 9081SOL    HW128142   5.356   0.080   3.365
 9081SOL    HW228143   5.400   0.159   3.229
 9082SOL     OW28144   2.373   0.714   2.128
 9082SOL    HW128145   2.378   0.781   2.203
 9082SOL    HW228146   2.281   0.675   2.125
 9083SOL     OW28147   4.611   4.679   3.958
 9083SOL    HW128148   4.710   4.689   3.972
 9083SOL    HW228149   4.569   4.769   3.955
 9084SOL     OW28150   4.120   3.707   2.510
 9084SOL    HW128151   4.100   3.619   2.467
 9084SOL    HW228152   4.184   3.759   2.453
 9085SOL     OW28153   0.797   2.502   0.895
 9085SOL    HW128154   0.754   2.573   0.839
 9085SOL    HW228155   0.870   2.543   0.950
 9086SOL     OW28156   6.713   3.944   6.816
 9086SOL    HW128157   6.685   4.035   6.846
 9086SOL    HW228158   6.733   3.946   6.718
 9087SOL     OW28159   5.147   3.630   1.987
 9087SOL    HW128160   5.052   3.603   2.001
 9087SOL    HW228161   5.191   3.644   2.075
 9088SOL     OW28162   5.569   5.081   1.687
 9088SOL    HW128163   5.602   5.174   1.698
 9088SOL    HW228164   5.483   5.082   1.636
 9089SOL     OW28165   4.202   0.978   5.805
 9089SOL    HW128166   4.137   1.039   5.759
 9089SOL    HW228167   4.189   0.982   5.904
 9090SOL     OW28168   6.267   1.620   3.674
 9090SOL    HW128169   6.261   1.638   3.576
 9090SOL    HW228170   6.176   1.629   3.714
 9091SOL     OW28171   3.847   2.492   5.711
 9091SOL    HW128172   3.894   2.568   5.756
 9091SOL    HW228173   3.886   2.405   5.742
 9092SOL     OW28174   6.776   3.091   5.947
 9092SOL    HW128175   6.819   3.050   6.028
 9092SOL    HW228176   6.730   3.175   5.974
 9093SOL     OW28177   2.163   6.341   4.706
 9093SOL    HW128178   2.179   6.294   4.793
 9093SOL    HW228179   2.081   6.398   4.714
 9094SOL     OW28180   1.681   3.720   0.505
 9094SOL    HW128181   1.689   3.815   0.535
 9094SOL    HW228182   1.698   3.714   0.407
 9095SOL     OW28183   0.335   6.973   6.269
 9095SOL    HW128184   0.431   6.997   6.276
 9095SOL    HW228185   0.317   6.932   6.180
 9096SOL     OW28186   5.974   5.389   3.836
 9096SOL    HW128187   6.044   5.375   3.766
 9096SOL    HW228188   6.003   5.346   3.921
 9097SOL     OW28189   1.030   3.317   6.507
 9097SOL    HW128190   1.036   3.259   6.588
 9097SOL    HW228191   1.064   3.268   6.427
 9098SOL     OW28192   2.127   4.541   3.819
 9098SOL    HW128193   2.174   4.453   3.821
 9098SOL    HW228194   2.084   4.554   3.729
 9099SOL     OW28195   2.458   1.526   6.693
 9099SOL    HW128196   2.480   1.500   6.599
 9099SOL    HW228197   2.359   1.520   6.706
 9100SOL     OW28198   1.572   4.781   4.363
 9100SOL    HW128199   1.592   4.830   4.278
 9100SOL    HW228200   1.473   4.777   4.376
 9101SOL     OW28201   0.375   2.172   0.911
 9101SOL    HW128202   0.392   2.213   0.822
 9101SOL    HW228203   0.382   2.242   0.982
 9102SOL     OW28204   3.724   1.237   3.073
 9102SOL    HW128205   3.804   1.297   3.074
 9102SOL    HW228206   3.644   1.287   3.039
 9103SOL     OW28207   6.560   0.394   1.318
 9103SOL    HW128208   6.550   0.422   1.413
 9103SOL    HW228209   6.470   0.373   1.280
 9104SOL     OW28210   5.929   2.198   6.176
 9104SOL    HW128211   5.903   2.102   6.187
 9104SOL    HW228212   5.879   2.237   6.099
 9105SOL     OW28213   2.945   0.554   6.686
 9105SOL    HW128214   2.951   0.496   6.768
 9105SOL    HW228215   2.961   0.498   6.605
 9106SOL     OW28216   2.526   2.846   6.274
 9106SOL    HW128217   2.620   2.836   6.306
 9106SOL    HW228218   2.495   2.761   6.233
 9107SOL     OW28219   3.510   0.908   1.207
 9107SOL    HW128220   3.411   0.899   1.191
 9107SOL    HW228221   3.532   1.005   1.224
 9108SOL     OW28222   6.457   6.275   6.005
 9108SOL    HW128223   6.358   6.282   5.991
 9108SOL    HW228224   6.478   6.285   6.102
 9109SOL     OW28225   5.485   4.275   3.225
 9109SOL    HW128226   5.523   4.187   3.199
 9109SOL    HW228227   5.393   4.284   3.187
 9110SOL     OW28228   1.208   6.768   2.426
 9110SOL    HW128229   1.235   6.728   2.514
 9110SOL    HW228230   1.108   6.772   2.420
 9111SOL     OW28231   4.182   3.000   5.664
 9111SOL    HW128232   4.120   3.076   5.683
 9111SOL    HW228233   4.254   2.998   5.733
 9112SOL     OW28234   0.562   4.412   2.115
 9112SOL    HW128235   0.551   4.381   2.020
 9112SOL    HW228236   0.475   4.405   2.163
 9113SOL     OW28237   5.798   0.121   4.626
 9113SOL    HW128238   5.750   0.143   4.540
 9113SOL    HW228239   5.870   0.054   4.608
 9114SOL     OW28240   1.173   1.267   6.311
 9114SOL    HW128241   1.263   1.308   6.325
 9114SOL    HW228242   1.168   1.229   6.219
 9115SOL     OW28243   4.862   3.412   4.519
 9115SOL    HW128244   4.863   3.377   4.613
 9115SOL    HW228245   4.824   3.342   4.458
 9116SOL     OW28246   1.143   5.076   3.837
 9116SOL    HW128247   1.092   5.162   3.838
 9116SOL    HW228248   1.084   5.002   3.807
 9117SOL     OW28249   2.147   6.939   0.065
 9117SOL    HW128250   2.051   6.928   0.090
 9117SOL    HW228251   2.155   6.999   7.001
 9118SOL     OW28252   6.763   4.972   1.247
 9118SOL    HW128253   6.723   5.063   1.233
 9118SOL    HW228254   6.857   4.982   1.281
 9119SOL     OW28255   3.557   1.203   1.238
 9119SOL    HW128256   3.574   1.278   1.174
 9119SOL    HW228257   3.643   1.176   1.282
 9120SOL     OW28258   6.762   4.071   4.517
 9120SOL    HW128259   6.860   4.060   4.502
 9120SOL    HW228260   6.746   4.096   4.613
 9121SOL     OW28261   3.979   1.304   4.304
 9121SOL    HW128262   3.891   1.338   4.272
 9121SOL    HW228263   4.052   1.347   4.251
 9122SOL     OW28264   0.148   1.963   1.845
 9122SOL    HW128265   0.146   2.063   1.852
 9122SOL    HW228266   0.156   1.924   1.937
 9123SOL     OW28267   0.590   6.536   4.432
 9123SOL    HW128268   0.500   6.516   4.468
 9123SOL    HW228269   0.657   6.537   4.507
 9124SOL     OW28270   3.851   5.626   0.611
 9124SOL    HW128271   3.907   5.706   0.633
 9124SOL    HW228272   3.907   5.544   0.617
 9125SOL     OW28273   5.365   6.732   1.610
 9125SOL    HW128274   5.356   6.716   1.708
 9125SOL    HW228275   5.275   6.753   1.571
 9126SOL     OW28276   3.778   5.323   0.497
 9126SOL    HW128277   3.737   5.331   0.588
 9126SOL    HW228278   3.761   5.232   0.461
 9127SOL     OW28279   6.904   4.323   5.385
 9127SOL    HW128280   6.824   4.327   5.326
 9127SOL    HW228281   6.892   4.250   5.452
 9128SOL     OW28282   5.408   3.921   6.420
 9128SOL    HW128283   5.437   3.903   6.326
 9128SOL    HW228284   5.310   3.940   6.421
 9129SOL     OW28285   0.074   2.981   0.835
 9129SOL    HW128286   0.027   2.894   0.815
 9129SOL    HW228287   0.131   2.969   0.917
 9130SOL     OW28288   3.275   3.031   6.198
 9130SOL    HW128289   3.201   2.995   6.141
 9130SOL    HW228290   3.273   3.131   6.196
 9131SOL     OW28291   6.292   3.120   0.723
 9131SOL    HW128292   6.382   3.125   0.680
 9131SOL    HW228293   6.230   3.067   0.666
 9132SOL     OW28294   1.169   4.134   3.795
 9132SOL    HW128295   1.142   4.227   3.818
 9132SOL    HW228296   1.258   4.135   3.750
 9133SOL     OW28297   5.388   6.969   0.940
 9133SOL    HW128298   5.323   6.910   0.987
 9133SOL    HW228299   5.477   6.963   0.985
 9134SOL     OW28300   4.953   4.596   6.632
 9134SOL    HW128301   4.890   4.598   6.554
 9134SOL    HW228302   4.937   4.514   6.686
 9135SOL     OW28303   6.473   5.496   2.397
 9135SOL    HW128304   6.518   5.585   2.406
 9135SOL    HW228305   6.477   5.466   2.302
 9136SOL     OW28306   0.758   5.393   6.551
 9136SOL    HW128307   0.804   5.308   6.576
 9136SOL    HW228308   0.660   5.383   6.566
 9137SOL     OW28309   5.775   5.542   6.339
 9137SOL    HW128310   5.822   5.495   6.413
 9137SOL    HW228311   5.676   5.526   6.346
 9138SOL     OW28312   1.427   4.401   6.225
 9138SOL    HW128313   1.475   4.357   6.301
 9138SOL    HW228314   1.481   4.478   6.191
 9139SOL     OW28315   0.183   0.231   1.265
 9139SOL    HW128316   0.142   0.321   1.282
 9139SOL    HW228317   0.253   0.213   1.334
 9140SOL     OW28318   1.223   4.227   2.869
 9140SOL    HW128319   1.234   4.171   2.787
 9140SOL    HW228320   1.278   4.189   2.943
 9141SOL     OW28321   0.223   5.907   4.724
 9141SOL    HW128322   0.144   5.857   4.758
 9141SOL    HW228323   0.307   5.864   4.758
 9142SOL     OW28324   1.377   5.260   3.445
 9142SOL    HW128325   1.299   5.308   3.486
 9142SOL    HW228326   1.356   5.162   3.441
 9143SOL     OW28327   5.319   3.663   2.494
 9143SOL    HW128328   5.288   3.661   2.589
 9143SOL    HW228329   5.240   3.667   2.433
 9144SOL     OW28330   2.664   4.283   5.478
 9144SOL    HW128331   2.604   4.257   5.402
 9144SOL    HW228332   2.756   4.299   5.442
 9145SOL     OW28333   2.901   6.862   6.460
 9145SOL    HW128334   2.808   6.827   6.476
 9145SOL    HW228335   2.955   6.793   6.412
 9146SOL     OW28336   5.715   1.890   4.453
 9146SOL    HW128337   5.772   1.907   4.534
 9146SOL    HW228338   5.648   1.964   4.443
 9147SOL     OW28339   4.354   0.335   6.354
 9147SOL    HW128340   4.291   0.337   6.432
 9147SOL    HW228341   4.430   0.398   6.372
 9148SOL     OW28342   3.851   5.393   2.238
 9148SOL    HW128343   3.906   5.313   2.262
 9148SOL    HW228344   3.775   5.365   2.180
 9149SOL     OW28345   0.666   4.137   1.526
 9149SOL    HW128346   0.756   4.177   1.546
 9149SOL    HW228347   0.678   4.044   1.493
 9150SOL     OW28348   3.383   3.295   0.075
 9150SOL    HW128349   3.421   3.330   0.161
 9150SOL    HW228350   3.307   3.232   0.095
 9151SOL     OW28351   2.145   3.535   4.236
 9151SOL    HW128352   2.150   3.634   4.243
 9151SOL    HW228353   2.096   3.510   4.152
 9152SOL     OW28354   2.045   5.425   1.857
 9152SOL    HW128355   2.037   5.385   1.948
 9152SOL    HW228356   1.954   5.451   1.824
 9153SOL     OW28357   0.707   3.826   0.497
 9153SOL    HW128358   0.621   3.866   0.465
 9153SOL    HW228359   0.763   3.802   0.418
 9154SOL     OW28360   4.476   5.597   3.043
 9154SOL    HW128361   4.570   5.620   3.071
 9154SOL    HW228362   4.472   5.587   2.944
 9155SOL     OW28363   1.019   6.352   2.396
 9155SOL    HW128364   0.969   6.391   2.473
 9155SOL    HW228365   0.954   6.331   2.322
 9156SOL     OW28366   0.039   4.461   5.736
 9156SOL    HW128367   0.060   4.552   5.773
 9156SOL    HW228368   0.109   4.396   5.765
 9157SOL     OW28369   1.918   4.542   4.984
 9157SOL    HW128370   1.925   4.449   4.948
 9157SOL    HW228371   1.937   4.607   4.911
 9158SOL     OW28372   6.551   2.251   3.820
 9158SOL    HW128373   6.506   2.240   3.908
 9158SOL    HW228374   6.554   2.163   3.773
 9159SOL     OW28375   2.100   0.885   3.692
 9159SOL    HW128376   2.096   0.898   3.593
 9159SOL    HW228377   2.013   0.847   3.724
 9160SOL     OW28378   0.599   3.787   6.496
 9160SOL    HW128379   0.684   3.781   6.442
 9160SOL    HW228380   0.621   3.775   6.593
 9161SOL     OW28381   5.850   3.247   2.560
 9161SOL    HW128382   5.832   3.291   2.648
 9161SOL    HW228383   5.764   3.226   2.514
 9162SOL     OW28384   4.935   1.740   2.261
 9162SOL    HW128385   4.849   1.709   2.302
 9162SOL    HW228386   4.921   1.757   2.163
 9163SOL     OW28387   2.097   3.502   3.449
 9163SOL    HW128388   2.183   3.483   3.402
 9163SOL    HW228389   2.108   3.583   3.506
 9164SOL     OW28390   3.382   0.221   0.608
 9164SOL    HW128391   3.434   0.139   0.632
 9164SOL    HW228392   3.437   0.302   0.628
 9165SOL     OW28393   5.981   0.833   6.568
 9165SOL    HW128394   5.994   0.784   6.482
 9165SOL    HW228395   5.974   0.931   6.551
 9166SOL     OW28396   3.949   5.978   1.556
 9166SOL    HW128397   4.043   5.963   1.527
 9166SOL    HW228398   3.887   5.924   1.499
 9167SOL     OW28399   1.113   2.752   5.083
 9167SOL    HW128400   1.204   2.772   5.120
 9167SOL    HW228401   1.124   2.707   4.994
 9168SOL     OW28402   6.344   5.908   4.694
 9168SOL    HW128403   6.415   5.859   4.744
 9168SOL    HW228404   6.273   5.937   4.758
 9169SOL     OW28405   6.300   5.686   0.365
 9169SOL    HW128406   6.397   5.661   0.361
 9169SOL    HW228407   6.248   5.624   0.306
 9170SOL     OW28408   1.819   0.655   5.601
 9170SOL    HW128409   1.858   0.745   5.580
 9170SOL    HW228410   1.772   0.658   5.689
 9171SOL     OW28411   4.327   5.745   0.041
 9171SOL    HW128412   4.256   5.675   0.030
 9171SOL    HW228413   4.385   5.747   6.975
 9172SOL     OW28414   5.083   0.947   5.854
 9172SOL    HW128415   5.085   0.906   5.763
 9172SOL    HW228416   5.156   0.908   5.910
 9173SOL     OW28417   5.930   4.464   5.958
 9173SOL    HW128418   6.001   4.407   5.917
 9173SOL    HW228419   5.890   4.524   5.888
 9174SOL     OW28420   5.874   4.669   6.814
 9174SOL    HW128421   5.955   4.703   6.765
 9174SOL    HW228422   5.903   4.606   6.886
 9175SOL     OW28423   1.945   1.007   1.482
 9175SOL    HW128424   2.017   0.955   1.435
 9175SOL    HW228425   1.959   1.002   1.581
 9176SOL     OW28426   1.197   0.130   2.423
 9176SOL    HW128427   1.211   0.153   2.327
 9176SOL    HW228428   1.099   0.128   2.443
 9177SOL     OW28429   0.550   5.795   3.625
 9177SOL    HW128430   0.547   5.832   3.717
 9177SOL    HW228431   0.543   5.695   3.628
 9178SOL     OW28432   1.160   3.481   0.913
 9178SOL    HW128433   1.205   3.527   0.836
 9178SOL    HW228434   1.230   3.440   0.972
 9179SOL     OW28435   4.077   5.275   3.051
 9179SOL    HW128436   4.067   5.288   2.952
 9179SOL    HW228437   4.152   5.332   3.085
 9180SOL     OW28438   0.230   0.926   5.081
 9180SOL    HW128439   0.282   0.947   4.998
 9180SOL    HW228440   0.137   0.961   5.071
 9181SOL     OW28441   2.919   2.263   3.415
 9181SOL    HW128442   2.965   2.208   3.346
 9181SOL    HW228443   2.986   2.314   3.468
 9182SOL     OW28444   6.726   1.456   3.014
 9182SOL    HW128445   6.819   1.485   3.037
 9182SOL    HW228446   6.660   1.520   3.053
 9183SOL     OW28447   3.069   1.973   5.613
 9183SOL    HW128448   3.027   1.987   5.523
 9183SOL    HW228449   3.158   2.018   5.615
 9184SOL     OW28450   2.894   4.926   1.087
 9184SOL    HW128451   2.972   4.879   1.127
 9184SOL    HW228452   2.908   5.025   1.092
 9185SOL     OW28453   0.625   0.660   5.231
 9185SOL    HW128454   0.615   0.725   5.306
 9185SOL    HW228455   0.720   0.660   5.199
 9186SOL     OW28456   5.671   6.792   5.976
 9186SOL    HW128457   5.683   6.761   6.070
 9186SOL    HW228458   5.582   6.836   5.966
 9187SOL     OW28459   5.270   3.587   1.020
 9187SOL    HW128460   5.214   3.516   0.977
 9187SOL    HW228461   5.229   3.677   1.003
 9188SOL     OW28462   0.919   0.761   2.652
 9188SOL    HW128463   0.831   0.787   2.692
 9188SOL    HW228464   0.935   0.664   2.668
 9189SOL     OW28465   3.083   0.837   6.379
 9189SOL    HW128466   3.084   0.826   6.478
 9189SOL    HW228467   3.162   0.892   6.351
 9190SOL     OW28468   4.126   1.057   6.134
 9190SOL    HW128469   4.037   1.102   6.139
 9190SOL    HW228470   4.196   1.115   6.177
 9191SOL     OW28471   5.580   0.097   1.681
 9191SOL    HW128472   5.506   0.050   1.730
 9191SOL    HW228473   5.542   0.165   1.619
 9192SOL     OW28474   4.568   4.707   4.261
 9192SOL    HW128475   4.487   4.694   4.317
 9192SOL    HW228476   4.623   4.782   4.299
 9193SOL     OW28477   3.639   3.304   2.634
 9193SOL    HW128478   3.602   3.214   2.656
 9193SOL    HW228479   3.617   3.326   2.539
 9194SOL     OW28480   2.910   5.083   3.207
 9194SOL    HW128481   2.948   4.994   3.234
 9194SOL    HW228482   2.867   5.075   3.118
 9195SOL     OW28483   0.619   3.215   3.937
 9195SOL    HW128484   0.699   3.179   3.986
 9195SOL    HW228485   0.638   3.216   3.839
 9196SOL     OW28486   5.392   5.715   3.404
 9196SOL    HW128487   5.393   5.759   3.314
 9196SOL    HW228488   5.307   5.664   3.415
 9197SOL     OW28489   4.420   2.409   6.726
 9197SOL    HW128490   4.360   2.450   6.658
 9197SOL    HW228491   4.501   2.467   6.739
 9198SOL     OW28492   6.016   2.896   5.058
 9198SOL    HW128493   6.048   2.953   4.982
 9198SOL    HW228494   5.917   2.886   5.052
 9199SOL     OW28495   0.909   3.734   6.612
 9199SOL    HW128496   0.931   3.825   6.577
 9199SOL    HW228497   0.895   3.739   6.711
 9200SOL     OW28498   4.586   6.224   1.998
 9200SOL    HW128499   4.538   6.140   1.972
 9200SOL    HW228500   4.676   6.200   2.036
 9201SOL     OW28501   6.935   3.087   2.383
 9201SOL    HW128502   6.977   3.160   2.438
 9201SOL    HW228503   6.871   3.036   2.439
 9202SOL     OW28504   1.921   5.644   3.419
 9202SOL    HW128505   1.994   5.710   3.401
 9202SOL    HW228506   1.894   5.600   3.334
 9203SOL     OW28507   5.086   2.151   0.797
 9203SOL    HW128508   5.181   2.128   0.818
 9203SOL    HW228509   5.038   2.172   0.882
 9204SOL     OW28510   5.011   4.458   2.074
 9204SOL    HW128511   4.955   4.509   2.140
 9204SOL    HW228512   4.951   4.405   2.014
 9205SOL     OW28513   4.282   2.311   1.022
 9205SOL    HW128514   4.214   2.339   0.954
 9205SOL    HW228515   4.238   2.250   1.089
 9206SOL     OW28516   6.936   6.938   5.486
 9206SOL    HW128517   6.973   6.848   5.461
 9206SOL    HW228518   6.868   6.926   5.559
 9207SOL     OW28519   5.798   6.748   0.393
 9207SOL    HW128520   5.803   6.847   0.396
 9207SOL    HW228521   5.716   6.720   0.342
 9208SOL     OW28522   5.389   4.842   1.505
 9208SOL    HW128523   5.380   4.813   1.600
 9208SOL    HW228524   5.299   4.840   1.461
 9209SOL     OW28525   5.065   0.298   4.460
 9209SOL    HW128526   5.159   0.263   4.460
 9209SOL    HW228527   5.025   0.283   4.370
 9210SOL     OW28528   1.161   0.010   0.075
 9210SOL    HW128529   1.213   6.940   0.089
 9210SOL    HW228530   1.063   7.005   0.079
 9211SOL     OW28531   5.222   1.715   6.133
 9211SOL    HW128532   5.123   1.700   6.129
 9211SOL    HW228533   5.240   1.804   6.176
 9212SOL     OW28534   6.131   3.537   6.322
 9212SOL    HW128535   6.200   3.479   6.278
 9212SOL    HW228536   6.050   3.542   6.264
 9213SOL     OW28537   0.135   5.294   2.999
 9213SOL    HW128538   0.148   5.258   3.091
 9213SOL    HW228539   0.039   5.319   2.986
 9214SOL     OW28540   2.021   1.084   5.809
 9214SOL    HW128541   1.945   1.079   5.874
 9214SOL    HW228542   2.103   1.118   5.855
 9215SOL     OW28543   6.804   3.951   3.497
 9215SOL    HW128544   6.792   4.050   3.494
 9215SOL    HW228545   6.899   3.929   3.473
 9216SOL     OW28546   1.950   6.634   3.812
 9216SOL    HW128547   1.980   6.675   3.898
 9216SOL    HW228548   1.916   6.542   3.828
 9217SOL     OW28549   3.037   2.409   0.334
 9217SOL    HW128550   2.984   2.481   0.379
 9217SOL    HW228551   3.034   2.422   0.235
 9218SOL     OW28552   4.389   6.134   5.586
 9218SOL    HW128553   4.361   6.170   5.675
 9218SOL    HW228554   4.373   6.035   5.584
 9219SOL     OW28555   3.801   3.189   6.596
 9219SOL    HW128556   3.703   3.205   6.610
 9219SOL    HW228557   3.817   3.160   6.502
 9220SOL     OW28558   0.829   6.832   3.645
 9220SOL    HW128559   0.806   6.903   3.579
 9220SOL    HW228560   0.767   6.755   3.633
 9221SOL     OW28561   2.388   1.531   2.347
 9221SOL    HW128562   2.464   1.477   2.311
 9221SOL    HW228563   2.307   1.518   2.290
 9222SOL     OW28564   2.199   5.537   3.663
 9222SOL    HW128565   2.208   5.636   3.655
 9222SOL    HW228566   2.278   5.493   3.620
 9223SOL     OW28567   6.262   2.307   4.540
 9223SOL    HW128568   6.233   2.401   4.561
 9223SOL    HW228569   6.342   2.284   4.596
 9224SOL     OW28570   1.749   5.800   2.907
 9224SOL    HW128571   1.805   5.875   2.943
 9224SOL    HW228572   1.755   5.722   2.968
 9225SOL     OW28573   0.356   5.570   5.558
 9225SOL    HW128574   0.354   5.495   5.624
 9225SOL    HW228575   0.263   5.592   5.529
 9226SOL     OW28576   0.859   6.830   4.749
 9226SOL    HW128577   0.768   6.832   4.790
 9226SOL    HW228578   0.854   6.866   4.656
 9227SOL     OW28579   3.898   3.333   0.596
 9227SOL    HW128580   3.862   3.247   0.559
 9227SOL    HW228581   3.887   3.335   0.695
 9228SOL     OW28582   3.883   3.402   4.802
 9228SOL    HW128583   3.806   3.402   4.739
 9228SOL    HW228584   3.960   3.353   4.762
 9229SOL     OW28585   0.142   5.819   1.082
 9229SOL    HW128586   0.102   5.733   1.050
 9229SOL    HW228587   0.072   5.872   1.131
 9230SOL     OW28588   3.358   0.102   6.228
 9230SOL    HW128589   3.352   0.010   6.266
 9230SOL    HW228590   3.350   0.098   6.129
 9231SOL     OW28591   6.129   6.513   1.441
 9231SOL    HW128592   6.128   6.414   1.456
 9231SOL    HW228593   6.043   6.541   1.398
 9232SOL     OW28594   0.961   5.042   1.851
 9232SOL    HW128595   0.881   5.013   1.904
 9232SOL    HW228596   0.991   5.132   1.882
 9233SOL     OW28597   1.504   0.157   6.052
 9233SOL    HW128598   1.603   0.166   6.041
 9233SOL    HW228599   1.484   0.115   6.140
 9234SOL     OW28600   3.187   4.052   6.685
 9234SOL    HW128601   3.108   4.016   6.735
 9234SOL    HW228602   3.178   4.029   6.588
 9235SOL     OW28603   2.281   2.403   3.553
 9235SOL    HW128604   2.362   2.452   3.523
 9235SOL    HW228605   2.207   2.417   3.487
 9236SOL     OW28606   1.785   4.308   6.370
 9236SOL    HW128607   1.835   4.225   6.346
 9236SOL    HW228608   1.849   4.374   6.411
 9237SOL     OW28609   6.725   5.233   3.651
 9237SOL    HW128610   6.699   5.275   3.738
 9237SOL    HW228611   6.668   5.270   3.578
 9238SOL     OW28612   1.580   2.340   5.536
 9238SOL    HW128613   1.620   2.313   5.448
 9238SOL    HW228614   1.653   2.352   5.604
 9239SOL     OW28615   1.986   6.071   6.432
 9239SOL    HW128616   1.909   6.012   6.408
 9239SOL    HW228617   1.990   6.083   6.531
 9240SOL     OW28618   3.773   1.599   4.833
 9240SOL    HW128619   3.777   1.521   4.895
 9240SOL    HW228620   3.766   1.684   4.886
 9241SOL     OW28621   5.952   6.526   0.479
 9241SOL    HW128622   6.045   6.563   0.479
 9241SOL    HW228623   5.887   6.602   0.472
 9242SOL     OW28624   2.378   2.499   6.883
 9242SOL    HW128625   2.402   2.411   6.842
 9242SOL    HW228626   2.448   2.567   6.859
 9243SOL     OW28627   2.393   0.667   0.091
 9243SOL    HW128628   2.347   0.593   0.141
 9243SOL    HW228629   2.424   0.632   0.002
 9244SOL     OW28630   2.593   6.455   0.329
 9244SOL    HW128631   2.535   6.487   0.404
 9244SOL    HW228632   2.553   6.484   0.242
 9245SOL     OW28633   0.761   4.201   2.809
 9245SOL    HW128634   0.728   4.139   2.738
 9245SOL    HW228635   0.683   4.234   2.863
 9246SOL     OW28636   5.200   0.377   6.932
 9246SOL    HW128637   5.220   0.282   6.958
 9246SOL    HW228638   5.142   0.419   7.002
 9247SOL     OW28639   3.030   6.551   2.879
 9247SOL    HW128640   3.000   6.608   2.803
 9247SOL    HW228641   3.124   6.574   2.903
 9248SOL     OW28642   2.691   0.076   6.795
 9248SOL    HW128643   2.779   0.027   6.795
 9248SOL    HW228644   2.663   0.095   6.888
 9249SOL     OW28645   3.942   1.068   0.796
 9249SOL    HW128646   3.880   1.129   0.846
 9249SOL    HW228647   3.902   0.977   0.790
 9250SOL     OW28648   0.585   3.240   2.168
 9250SOL    HW128649   0.546   3.326   2.136
 9250SOL    HW228650   0.514   3.169   2.164
 9251SOL     OW28651   4.117   1.637   0.887
 9251SOL    HW128652   4.125   1.720   0.832
 9251SOL    HW228653   4.207   1.594   0.894
 9252SOL     OW28654   5.623   1.628   4.517
 9252SOL    HW128655   5.667   1.717   4.513
 9252SOL    HW228656   5.594   1.600   4.425
 9253SOL     OW28657   2.650   4.976   3.752
 9253SOL    HW128658   2.621   4.967   3.847
 9253SOL    HW228659   2.685   4.888   3.719
 9254SOL     OW28660   6.578   6.259   2.729
 9254SOL    HW128661   6.602   6.323   2.801
 9254SOL    HW228662   6.523   6.306   2.660
 9255SOL     OW28663   6.645   3.304   1.122
 9255SOL    HW128664   6.680   3.348   1.205
 9255SOL    HW228665   6.694   3.340   1.043
 9256SOL     OW28666   2.137   6.315   1.381
 9256SOL    HW128667   2.061   6.368   1.420
 9256SOL    HW228668   2.223   6.345   1.422
 9257SOL     OW28669   6.097   6.115   5.122
 9257SOL    HW128670   6.101   6.060   5.206
 9257SOL    HW228671   6.007   6.158   5.114
 9258SOL     OW28672   5.090   3.928   2.773
 9258SOL    HW128673   5.132   3.996   2.833
 9258SOL    HW228674   5.117   3.947   2.678
 9259SOL     OW28675   0.862   2.738   6.819
 9259SOL    HW128676   0.890   2.671   6.888
 9259SOL    HW228677   0.764   2.755   6.826
 9260SOL     OW28678   4.927   4.479   4.984
 9260SOL    HW128679   4.940   4.412   4.910
 9260SOL    HW228680   4.877   4.435   5.059
 9261SOL     OW28681   1.860   3.238   1.156
 9261SOL    HW128682   1.913   3.186   1.089
 9261SOL    HW228683   1.801   3.304   1.108
 9262SOL     OW28684   0.381   6.487   5.770
 9262SOL    HW128685   0.356   6.583   5.754
 9262SOL    HW228686   0.480   6.478   5.772
 9263SOL     OW28687   2.471   4.638   2.903
 9263SOL    HW128688   2.379   4.671   2.881
 9263SOL    HW228689   2.529   4.643   2.821
 9264SOL     OW28690   4.999   3.597   5.604
 9264SOL    HW128691   5.022   3.500   5.596
 9264SOL    HW228692   5.053   3.650   5.538
 9265SOL     OW28693   4.835   0.508   2.116
 9265SOL    HW128694   4.821   0.417   2.154
 9265SOL    HW228695   4.768   0.571   2.155
 9266SOL     OW28696   0.271   4.482   1.224
 9266SOL    HW128697   0.237   4.398   1.267
 9266SOL    HW228698   0.343   4.521   1.281
 9267SOL     OW28699   0.068   1.046   3.337
 9267SOL    HW128700   0.001   1.113   3.306
 9267SOL    HW228701   0.108   0.999   3.258
 9268SOL     OW28702   0.234   0.344   0.903
 9268SOL    HW128703   0.150   0.292   0.886
 9268SOL    HW228704   0.225   0.395   0.988
 9269SOL     OW28705   2.879   6.271   0.853
 9269SOL    HW128706   2.862   6.368   0.865
 9269SOL    HW228707   2.976   6.252   0.867
 9270SOL     OW28708   2.308   1.276   4.960
 9270SOL    HW128709   2.400   1.290   4.922
 9270SOL    HW228710   2.240   1.311   4.895
 9271SOL     OW28711   1.592   4.899   5.239
 9271SOL    HW128712   1.506   4.896   5.290
 9271SOL    HW228713   1.667   4.924   5.300
 9272SOL     OW28714   6.707   6.802   5.854
 9272SOL    HW128715   6.632   6.819   5.919
 9272SOL    HW228716   6.787   6.768   5.904
 9273SOL     OW28717   6.566   3.527   3.513
 9273SOL    HW128718   6.505   3.463   3.561
 9273SOL    HW228719   6.660   3.513   3.544
 9274SOL     OW28720   6.794   3.145   0.632
 9274SOL    HW128721   6.807   3.095   0.717
 9274SOL    HW228722   6.788   3.243   0.652
 9275SOL     OW28723   4.659   1.656   0.729
 9275SOL    HW128724   4.588   1.706   0.679
 9275SOL    HW228725   4.728   1.622   0.664
 9276SOL     OW28726   1.758   4.281   0.259
 9276SOL    HW128727   1.755   4.201   0.318
 9276SOL    HW228728   1.853   4.302   0.236
 9277SOL     OW28729   3.234   5.879   2.610
 9277SOL    HW128730   3.157   5.883   2.547
 9277SOL    HW228731   3.288   5.963   2.602
 9278SOL     OW28732   1.625   6.687   5.207
 9278SOL    HW128733   1.674   6.735   5.134
 9278SOL    HW228734   1.620   6.745   5.288
 9279SOL     OW28735   3.318   6.052   1.921
 9279SOL    HW128736   3.353   6.074   1.829
 9279SOL    HW228737   3.348   6.123   1.985
 9280SOL     OW28738   1.601   4.828   1.585
 9280SOL    HW128739   1.563   4.920   1.579
 9280SOL    HW228740   1.691   4.832   1.628
 9281SOL     OW28741   1.470   5.414   0.896
 9281SOL    HW128742   1.524   5.413   0.980
 9281SOL    HW228743   1.505   5.485   0.835
 9282SOL     OW28744   2.022   0.350   4.215
 9282SOL    HW128745   1.985   0.266   4.254
 9282SOL    HW228746   1.951   0.420   4.214
 9283SOL     OW28747   5.430   5.304   6.625
 9283SOL    HW128748   5.446   5.352   6.711
 9283SOL    HW228749   5.475   5.215   6.627
 9284SOL     OW28750   4.422   6.494   1.129
 9284SOL    HW128751   4.336   6.471   1.082
 9284SOL    HW228752   4.478   6.411   1.138
 9285SOL     OW28753   6.998   5.800   3.232
 9285SOL    HW128754   0.019   5.795   3.325
 9285SOL    HW228755   0.059   5.797   3.167
 9286SOL     OW28756   5.299   6.021   1.429
 9286SOL    HW128757   5.351   6.051   1.349
 9286SOL    HW228758   5.201   6.026   1.409
 9287SOL     OW28759   4.298   4.557   0.439
 9287SOL    HW128760   4.369   4.489   0.424
 9287SOL    HW228761   4.215   4.512   0.472
 9288SOL     OW28762   4.197   1.041   3.389
 9288SOL    HW128763   4.175   1.135   3.415
 9288SOL    HW228764   4.127   1.007   3.326
 9289SOL     OW28765   4.402   6.017   2.500
 9289SOL    HW128766   4.320   5.967   2.529
 9289SOL    HW228767   4.430   5.985   2.410
 9290SOL     OW28768   5.220   0.813   3.631
 9290SOL    HW128769   5.169   0.900   3.626
 9290SOL    HW228770   5.289   0.812   3.559
 9291SOL     OW28771   0.633   4.592   5.585
 9291SOL    HW128772   0.720   4.543   5.595
 9291SOL    HW228773   0.651   4.688   5.567
 9292SOL     OW28774   2.086   1.812   6.758
 9292SOL    HW128775   2.034   1.775   6.836
 9292SOL    HW228776   2.180   1.830   6.787
 9293SOL     OW28777   4.225   0.686   5.797
 9293SOL    HW128778   4.188   0.767   5.840
 9293SOL    HW228779   4.176   0.605   5.829
 9294SOL     OW28780   5.067   6.326   5.925
 9294SOL    HW128781   5.139   6.280   5.976
 9294SOL    HW228782   5.011   6.258   5.877
 9295SOL     OW28783   6.504   0.305   2.927
 9295SOL    HW128784   6.435   0.233   2.920
 9295SOL    HW228785   6.479   0.381   2.867
 9296SOL     OW28786   2.319   3.425   5.635
 9296SOL    HW128787   2.354   3.481   5.560
 9296SOL    HW228788   2.347   3.465   5.723
 9297SOL     OW28789   6.941   5.671   1.973
 9297SOL    HW128790   6.900   5.731   1.904
 9297SOL    HW228791   6.870   5.638   2.035
 9298SOL     OW28792   0.037   4.801   6.799
 9298SOL    HW128793   0.009   4.890   6.835
 9298SOL    HW228794   6.985   4.769   6.733
 9299SOL     OW28795   3.194   2.147   4.131
 9299SOL    HW128796   3.129   2.216   4.161
 9299SOL    HW228797   3.259   2.128   4.205
 9300SOL     OW28798   2.823   5.823   6.205
 9300SOL    HW128799   2.780   5.743   6.163
 9300SOL    HW228800   2.881   5.869   6.138
 9301SOL     OW28801   0.285   3.435   4.477
 9301SOL    HW128802   0.371   3.485   4.474
 9301SOL    HW228803   0.209   3.500   4.489
 9302SOL     OW28804   2.812   5.813   3.821
 9302SOL    HW128805   2.794   5.898   3.771
 9302SOL    HW228806   2.883   5.761   3.774
 9303SOL     OW28807   2.694   4.682   6.664
 9303SOL    HW128808   2.627   4.618   6.627
 9303SOL    HW228809   2.664   4.776   6.645
 9304SOL     OW28810   6.012   5.829   5.832
 9304SOL    HW128811   6.078   5.766   5.791
 9304SOL    HW228812   5.927   5.780   5.851
 9305SOL     OW28813   2.121   1.952   0.992
 9305SOL    HW128814   2.159   1.869   1.033
 9305SOL    HW228815   2.058   1.927   0.918
 9306SOL     OW28816   6.816   6.195   4.121
 9306SOL    HW128817   6.726   6.153   4.109
 9306SOL    HW228818   6.810   6.293   4.105
 9307SOL     OW28819   2.073   4.177   1.249
 9307SOL    HW128820   1.986   4.217   1.219
 9307SOL    HW228821   2.147   4.208   1.189
 9308SOL     OW28822   2.281   3.545   1.165
 9308SOL    HW128823   2.308   3.588   1.251
 9308SOL    HW228824   2.221   3.468   1.183
 9309SOL     OW28825   3.649   5.064   5.518
 9309SOL    HW128826   3.707   4.983   5.511
 9309SOL    HW228827   3.555   5.035   5.535
 9310SOL     OW28828   6.896   6.702   6.043
 9310SOL    HW128829   6.846   6.615   6.040
 9310SOL    HW228830   6.990   6.688   6.011
 9311SOL     OW28831   5.632   4.588   0.015
 9311SOL    HW128832   5.698   4.577   0.090
 9311SOL    HW228833   5.640   4.511   6.967
 9312SOL     OW28834   5.901   3.322   3.703
 9312SOL    HW128835   5.957   3.339   3.785
 9312SOL    HW228836   5.899   3.224   3.683
 9313SOL     OW28837   0.284   0.868   1.975
 9313SOL    HW128838   0.359   0.890   2.038
 9313SOL    HW228839   0.322   0.823   1.894
 9314SOL     OW28840   4.705   5.075   1.303
 9314SOL    HW128841   4.758   5.086   1.219
 9314SOL    HW228842   4.636   5.004   1.289
 9315SOL     OW28843   5.856   5.570   5.648
 9315SOL    HW128844   5.804   5.615   5.576
 9315SOL    HW228845   5.947   5.612   5.655
 9316SOL     OW28846   5.230   5.939   0.468
 9316SOL    HW128847   5.315   5.955   0.417
 9316SOL    HW228848   5.174   6.021   0.466
 9317SOL     OW28849   3.054   6.604   3.220
 9317SOL    HW128850   3.074   6.676   3.154
 9317SOL    HW228851   3.134   6.590   3.279
 9318SOL     OW28852   3.128   0.153   3.366
 9318SOL    HW128853   3.042   0.162   3.315
 9318SOL    HW228854   3.154   0.057   3.371
 9319SOL     OW28855   3.761   2.462   0.690
 9319SOL    HW128856   3.732   2.369   0.713
 9319SOL    HW228857   3.681   2.516   0.663
 9320SOL     OW28858   6.498   0.176   6.936
 9320SOL    HW128859   6.556   0.151   7.014
 9320SOL    HW228860   6.428   0.240   6.967
 9321SOL     OW28861   0.925   2.116   4.360
 9321SOL    HW128862   1.010   2.167   4.348
 9321SOL    HW228863   0.847   2.179   4.360
 9322SOL     OW28864   5.465   3.165   0.173
 9322SOL    HW128865   5.546   3.224   0.183
 9322SOL    HW228866   5.493   3.069   0.181
 9323SOL     OW28867   0.782   2.617   4.944
 9323SOL    HW128868   0.826   2.689   4.998
 9323SOL    HW228869   0.683   2.621   4.959
 9324SOL     OW28870   0.448   4.214   1.312
 9324SOL    HW128871   0.503   4.248   1.389
 9324SOL    HW228872   0.352   4.234   1.328
 9325SOL     OW28873   0.721   4.198   3.257
 9325SOL    HW128874   0.709   4.170   3.162
 9325SOL    HW228875   0.742   4.118   3.313
 9326SOL     OW28876   4.595   4.828   1.235
 9326SOL    HW128877   4.626   4.733   1.232
 9326SOL    HW228878   4.495   4.831   1.231
 9327SOL     OW28879   1.940   1.278   3.269
 9327SOL    HW128880   1.857   1.250   3.220
 9327SOL    HW228881   1.941   1.377   3.279
 9328SOL     OW28882   1.458   0.027   3.611
 9328SOL    HW128883   1.553   7.012   3.623
 9328SOL    HW228884   1.416   6.991   3.536
 9329SOL     OW28885   1.686   4.910   5.920
 9329SOL    HW128886   1.784   4.915   5.900
 9329SOL    HW228887   1.660   4.815   5.937
 9330SOL     OW28888   0.804   6.613   0.781
 9330SOL    HW128889   0.767   6.624   0.873
 9330SOL    HW228890   0.774   6.526   0.743
 9331SOL     OW28891   1.695   5.016   4.898
 9331SOL    HW128892   1.617   5.060   4.942
 9331SOL    HW228893   1.712   4.927   4.941
 9332SOL     OW28894   6.160   5.409   0.536
 9332SOL    HW128895   6.120   5.320   0.515
 9332SOL    HW228896   6.213   5.403   0.621
 9333SOL     OW28897   1.844   5.083   0.686
 9333SOL    HW128898   1.911   5.015   0.657
 9333SOL    HW228899   1.758   5.037   0.709
 9334SOL     OW28900   6.794   5.414   0.357
 9334SOL    HW128901   6.759   5.335   0.306
 9334SOL    HW228902   6.850   5.383   0.433
 9335SOL     OW28903   6.921   3.885   1.055
 9335SOL    HW128904   6.870   3.809   1.015
 9335SOL    HW228905   0.003   3.867   1.048
 9336SOL     OW28906   4.207   5.320   5.447
 9336SOL    HW128907   4.194   5.388   5.519
 9336SOL    HW228908   4.146   5.242   5.463
 9337SOL     OW28909   3.462   1.772   4.521
 9337SOL    HW128910   3.487   1.677   4.541
 9337SOL    HW228911   3.413   1.776   4.434
 9338SOL     OW28912   4.750   6.762   1.160
 9338SOL    HW128913   4.667   6.742   1.213
 9338SOL    HW228914   4.726   6.823   1.084
 9339SOL     OW28915   6.919   3.659   5.103
 9339SOL    HW128916   6.835   3.672   5.051
 9339SOL    HW228917   6.992   3.628   5.042
 9340SOL     OW28918   2.309   4.704   2.263
 9340SOL    HW128919   2.390   4.742   2.218
 9340SOL    HW228920   2.244   4.674   2.193
 9341SOL     OW28921   6.237   5.646   0.884
 9341SOL    HW128922   6.314   5.640   0.948
 9341SOL    HW228923   6.235   5.564   0.827
 9342SOL     OW28924   2.558   0.388   4.750
 9342SOL    HW128925   2.610   0.451   4.806
 9342SOL    HW228926   2.461   0.395   4.772
 9343SOL     OW28927   5.463   3.642   1.554
 9343SOL    HW128928   5.416   3.671   1.638
 9343SOL    HW228929   5.552   3.602   1.577
 9344SOL     OW28930   5.723   6.761   4.872
 9344SOL    HW128931   5.685   6.842   4.914
 9344SOL    HW228932   5.652   6.713   4.820
 9345SOL     OW28933   6.726   4.374   6.401
 9345SOL    HW128934   6.774   4.333   6.324
 9345SOL    HW228935   6.706   4.470   6.381
 9346SOL     OW28936   5.290   0.585   1.677
 9346SOL    HW128937   5.249   0.594   1.768
 9346SOL    HW228938   5.386   0.611   1.681
 9347SOL     OW28939   4.805   6.839   2.043
 9347SOL    HW128940   4.762   6.893   2.115
 9347SOL    HW228941   4.812   6.894   1.959
 9348SOL     OW28942   2.251   5.603   1.891
 9348SOL    HW128943   2.182   5.540   1.856
 9348SOL    HW228944   2.308   5.635   1.815
 9349SOL     OW28945   6.745   5.407   1.492
 9349SOL    HW128946   6.830   5.389   1.443
 9349SOL    HW228947   6.744   5.501   1.524
 9350SOL     OW28948   6.318   0.567   6.907
 9350SOL    HW128949   6.266   0.645   6.942
 9350SOL    HW228950   6.415   0.587   6.910
 9351SOL     OW28951   4.843   3.820   6.277
 9351SOL    HW128952   4.763   3.816   6.217
 9351SOL    HW228953   4.812   3.834   6.372
 9352SOL     OW28954   2.615   1.725   0.124
 9352SOL    HW128955   2.586   1.807   0.172
 9352SOL    HW228956   2.573   1.722   0.034
 9353SOL     OW28957   1.076   2.890   2.265
 9353SOL    HW128958   0.985   2.864   2.231
 9353SOL    HW228959   1.146   2.850   2.206
 9354SOL     OW28960   5.711   2.289   2.539
 9354SOL    HW128961   5.617   2.254   2.538
 9354SOL    HW228962   5.732   2.329   2.450
 9355SOL     OW28963   0.004   1.555   2.207
 9355SOL    HW128964   6.968   1.583   2.288
 9355SOL    HW228965   0.069   1.483   2.233
 9356SOL     OW28966   4.604   2.624   2.203
 9356SOL    HW128967   4.588   2.549   2.139
 9356SOL    HW228968   4.528   2.689   2.197
 9357SOL     OW28969   2.456   4.716   6.439
 9357SOL    HW128970   2.538   4.768   6.461
 9357SOL    HW228971   2.475   4.654   6.363
 9358SOL     OW28972   5.215   4.134   2.480
 9358SOL    HW128973   5.276   4.127   2.401
 9358SOL    HW228974   5.148   4.061   2.477
 9359SOL     OW28975   4.745   5.219   6.036
 9359SOL    HW128976   4.719   5.209   6.132
 9359SOL    HW228977   4.679   5.279   5.990
 9360SOL     OW28978   1.266   1.130   5.303
 9360SOL    HW128979   1.356   1.120   5.345
 9360SOL    HW228980   1.272   1.194   5.226
 9361SOL     OW28981   1.837   1.219   2.362
 9361SOL    HW128982   1.803   1.260   2.278
 9361SOL    HW228983   1.937   1.220   2.362
 9362SOL     OW28984   1.382   1.390   2.900
 9362SOL    HW128985   1.345   1.476   2.864
 9362SOL    HW228986   1.466   1.408   2.952
 9363SOL     OW28987   1.286   6.374   1.828
 9363SOL    HW128988   1.257   6.395   1.921
 9363SOL    HW228989   1.373   6.420   1.809
 9364SOL     OW28990   5.501   4.139   1.202
 9364SOL    HW128991   5.499   4.196   1.285
 9364SOL    HW228992   5.584   4.084   1.202
 9365SOL     OW28993   2.030   1.380   3.766
 9365SOL    HW128994   2.036   1.281   3.778
 9365SOL    HW228995   2.123   1.418   3.755
 9366SOL     OW28996   2.846   1.760   1.686
 9366SOL    HW128997   2.792   1.837   1.651
 9366SOL    HW228998   2.925   1.745   1.627
 9367SOL     OW28999   5.453   6.472   3.644
 9367SOL    HW129000   5.533   6.431   3.689
 9367SOL    HW229001   5.475   6.490   3.548
 9368SOL     OW29002   5.460   3.163   0.626
 9368SOL    HW129003   5.408   3.174   0.711
 9368SOL    HW229004   5.484   3.067   0.614
 9369SOL     OW29005   0.083   1.670   5.094
 9369SOL    HW129006   0.173   1.627   5.089
 9369SOL    HW229007   0.046   1.659   5.186
 9370SOL     OW29008   5.738   5.394   2.507
 9370SOL    HW129009   5.671   5.361   2.573
 9370SOL    HW229010   5.830   5.368   2.537
 9371SOL     OW29011   1.725   6.843   0.364
 9371SOL    HW129012   1.743   6.918   0.429
 9371SOL    HW229013   1.701   6.761   0.415
 9372SOL     OW29014   5.591   5.621   0.170
 9372SOL    HW129015   5.593   5.578   0.261
 9372SOL    HW229016   5.683   5.652   0.146
 9373SOL     OW29017   5.308   2.919   4.033
 9373SOL    HW129018   5.218   2.879   4.053
 9373SOL    HW229019   5.373   2.894   4.104
 9374SOL     OW29020   5.311   4.180   6.719
 9374SOL    HW129021   5.250   4.104   6.699
 9374SOL    HW229022   5.279   4.228   6.801
 9375SOL     OW29023   6.487   0.405   4.287
 9375SOL    HW129024   6.527   0.331   4.341
 9375SOL    HW229025   6.388   0.395   4.286
 9376SOL     OW29026   2.670   3.284   1.781
 9376SOL    HW129027   2.750   3.322   1.829
 9376SOL    HW229028   2.587   3.328   1.815
 9377SOL     OW29029   6.267   4.660   3.454
 9377SOL    HW129030   6.281   4.579   3.510
 9377SOL    HW229031   6.320   4.737   3.492
 9378SOL     OW29032   3.920   6.107   1.040
 9378SOL    HW129033   3.915   6.202   1.010
 9378SOL    HW229034   3.847   6.089   1.106
 9379SOL     OW29035   4.840   5.272   5.516
 9379SOL    HW129036   4.877   5.189   5.558
 9379SOL    HW229037   4.807   5.250   5.424
 9380SOL     OW29038   6.406   5.731   5.681
 9380SOL    HW129039   6.396   5.733   5.581
 9380SOL    HW229040   6.446   5.817   5.712
 9381SOL     OW29041   0.959   0.799   6.948
 9381SOL    HW129042   1.025   0.730   6.979
 9381SOL    HW229043   0.932   0.856   0.011
 9382SOL     OW29044   5.286   1.420   3.202
 9382SOL    HW129045   5.192   1.450   3.187
 9382SOL    HW229046   5.345   1.461   3.132
 9383SOL     OW29047   6.476   5.057   6.183
 9383SOL    HW129048   6.458   5.146   6.141
 9383SOL    HW229049   6.416   5.044   6.262
 9384SOL     OW29050   3.762   6.857   2.847
 9384SOL    HW129051   3.692   6.928   2.843
 9384SOL    HW229052   3.720   6.770   2.873
 9385SOL     OW29053   3.895   0.091   3.750
 9385SOL    HW129054   3.845   0.176   3.759
 9385SOL    HW229055   3.886   0.055   3.658
 9386SOL     OW29056   3.899   0.247   5.301
 9386SOL    HW129057   3.938   0.182   5.366
 9386SOL    HW229058   3.963   0.322   5.285
 9387SOL     OW29059   4.891   5.275   0.583
 9387SOL    HW129060   4.838   5.334   0.522
 9387SOL    HW229061   4.982   5.259   0.543
 9388SOL     OW29062   6.643   0.246   1.671
 9388SOL    HW129063   6.665   0.179   1.601
 9388SOL    HW229064   6.549   0.233   1.701
 9389SOL     OW29065   2.806   1.186   0.668
 9389SOL    HW129066   2.766   1.122   0.733
 9389SOL    HW229067   2.743   1.200   0.592
 9390SOL     OW29068   3.421   5.311   0.900
 9390SOL    HW129069   3.471   5.295   0.985
 9390SOL    HW229070   3.358   5.388   0.913
 9391SOL     OW29071   6.251   0.775   3.828
 9391SOL    HW129072   6.183   0.797   3.758
 9391SOL    HW229073   6.330   0.731   3.785
 9392SOL     OW29074   0.717   6.500   4.692
 9392SOL    HW129075   0.654   6.526   4.765
 9392SOL    HW229076   0.761   6.413   4.715
 9393SOL     OW29077   4.309   1.468   5.513
 9393SOL    HW129078   4.316   1.536   5.440
 9393SOL    HW229079   4.400   1.454   5.554
 9394SOL     OW29080   5.804   1.834   2.315
 9394SOL    HW129081   5.838   1.912   2.263
 9394SOL    HW229082   5.762   1.768   2.253
 9395SOL     OW29083   1.960   2.772   6.400
 9395SOL    HW129084   1.941   2.787   6.497
 9395SOL    HW229085   1.874   2.770   6.349
 9396SOL     OW29086   0.031   0.950   6.270
 9396SOL    HW129087   0.062   1.021   6.334
 9396SOL    HW229088   0.101   0.880   6.262
 9397SOL     OW29089   1.951   2.016   0.135
 9397SOL    HW129090   1.911   1.963   0.209
 9397SOL    HW229091   1.997   2.096   0.173
 9398SOL     OW29092   2.418   1.733   1.623
 9398SOL    HW129093   2.417   1.731   1.523
 9398SOL    HW229094   2.326   1.750   1.658
 9399SOL     OW29095   0.324   0.314   6.010
 9399SOL    HW129096   0.306   0.342   6.104
 9399SOL    HW229097   0.383   0.234   6.009
 9400SOL     OW29098   3.477   1.672   3.759
 9400SOL    HW129099   3.453   1.716   3.672
 9400SOL    HW229100   3.566   1.629   3.751
 9401SOL     OW29101   4.701   6.419   4.171
 9401SOL    HW129102   4.667   6.440   4.079
 9401SOL    HW229103   4.739   6.503   4.212
 9402SOL     OW29104   2.880   5.040   6.518
 9402SOL    HW129105   2.979   5.036   6.533
 9402SOL    HW229106   2.859   5.114   6.455
 9403SOL     OW29107   5.861   6.904   4.122
 9403SOL    HW129108   5.947   6.864   4.090
 9403SOL    HW229109   5.812   6.943   4.044
 9404SOL     OW29110   1.388   3.773   5.760
 9404SOL    HW129111   1.377   3.830   5.679
 9404SOL    HW229112   1.409   3.830   5.839
 9405SOL     OW29113   0.467   0.490   1.351
 9405SOL    HW129114   0.374   0.512   1.324
 9405SOL    HW229115   0.485   0.393   1.336
 9406SOL     OW29116   6.780   1.108   5.297
 9406SOL    HW129117   6.721   1.182   5.265
 9406SOL    HW229118   6.788   1.039   5.226
 9407SOL     OW29119   3.943   5.519   2.786
 9407SOL    HW129120   3.883   5.589   2.825
 9407SOL    HW229121   3.889   5.439   2.759
 9408SOL     OW29122   4.112   1.820   6.729
 9408SOL    HW129123   4.087   1.909   6.690
 9408SOL    HW229124   4.156   1.834   6.818
 9409SOL     OW29125   6.127   3.673   3.335
 9409SOL    HW129126   6.037   3.716   3.336
 9409SOL    HW229127   6.137   3.616   3.254
 9410SOL     OW29128   4.464   6.721   1.544
 9410SOL    HW129129   4.477   6.817   1.518
 9410SOL    HW229130   4.373   6.709   1.584
 9411SOL     OW29131   4.853   5.398   2.040
 9411SOL    HW129132   4.946   5.425   2.016
 9411SOL    HW229133   4.808   5.357   1.960
 9412SOL     OW29134   6.075   2.681   3.103
 9412SOL    HW129135   6.134   2.751   3.144
 9412SOL    HW229136   6.125   2.594   3.097
 9413SOL     OW29137   4.056   5.345   3.483
 9413SOL    HW129138   4.027   5.386   3.396
 9413SOL    HW229139   4.027   5.405   3.558
 9414SOL     OW29140   2.328   0.335   2.290
 9414SOL    HW129141   2.375   0.254   2.327
 9414SOL    HW229142   2.395   0.408   2.275
 9415SOL     OW29143   1.500   0.683   2.138
 9415SOL    HW129144   1.483   0.695   2.236
 9415SOL    HW229145   1.597   0.696   2.119
 9416SOL     OW29146   1.572   2.235   1.276
 9416SOL    HW129147   1.633   2.159   1.298
 9416SOL    HW229148   1.510   2.207   1.202
 9417SOL     OW29149   1.441   0.221   4.736
 9417SOL    HW129150   1.405   0.286   4.803
 9417SOL    HW229151   1.387   0.227   4.652
 9418SOL     OW29152   4.463   4.067   1.021
 9418SOL    HW129153   4.541   4.030   1.071
 9418SOL    HW229154   4.416   4.135   1.077
 9419SOL     OW29155   2.861   5.178   3.615
 9419SOL    HW129156   2.823   5.106   3.672
 9419SOL    HW229157   2.810   5.184   3.529
 9420SOL     OW29158   1.909   0.409   3.873
 9420SOL    HW129159   2.000   0.450   3.883
 9420SOL    HW229160   1.844   0.456   3.932
 9421SOL     OW29161   1.850   5.237   5.129
 9421SOL    HW129162   1.772   5.185   5.163
 9421SOL    HW229163   1.923   5.173   5.103
 9422SOL     OW29164   4.222   1.323   3.042
 9422SOL    HW129165   4.185   1.295   2.953
 9422SOL    HW229166   4.275   1.248   3.081
 9423SOL     OW29167   4.232   0.348   4.606
 9423SOL    HW129168   4.326   0.342   4.573
 9423SOL    HW229169   4.223   0.426   4.667
 9424SOL     OW29170   3.788   6.029   3.552
 9424SOL    HW129171   3.704   5.994   3.593
 9424SOL    HW229172   3.841   6.077   3.622
 9425SOL     OW29173   0.621   5.237   3.037
 9425SOL    HW129174   0.573   5.250   3.124
 9425SOL    HW229175   0.717   5.265   3.048
 9426SOL     OW29176   3.857   5.386   0.980
 9426SOL    HW129177   3.900   5.469   1.016
 9426SOL    HW229178   3.853   5.390   0.880
 9427SOL     OW29179   2.931   5.011   4.151
 9427SOL    HW129180   2.888   5.100   4.154
 9427SOL    HW229181   3.029   5.021   4.170
 9428SOL     OW29182   4.806   6.358   2.602
 9428SOL    HW129183   4.749   6.285   2.640
 9428SOL    HW229184   4.786   6.369   2.504
 9429SOL     OW29185   0.740   3.716   2.686
 9429SOL    HW129186   0.799   3.667   2.749
 9429SOL    HW229187   0.702   3.653   2.619
 9430SOL     OW29188   6.461   6.754   1.336
 9430SOL    HW129189   6.452   6.685   1.408
 9430SOL    HW229190   6.407   6.727   1.256
 9431SOL     OW29191   6.465   4.441   6.999
 9431SOL    HW129192   6.481   4.514   0.050
 9431SOL    HW229193   6.385   4.464   6.943
 9432SOL     OW29194   6.706   6.738   4.270
 9432SOL    HW129195   6.630   6.676   4.288
 9432SOL    HW229196   6.670   6.830   4.253
 9433SOL     OW29197   2.733   5.780   4.231
 9433SOL    HW129198   2.806   5.759   4.166
 9433SOL    HW229199   2.689   5.695   4.260
 9434SOL     OW29200   5.896   4.354   3.623
 9434SOL    HW129201   5.837   4.374   3.545
 9434SOL    HW229202   5.987   4.329   3.590
 9435SOL     OW29203   2.430   2.415   5.216
 9435SOL    HW129204   2.454   2.469   5.135
 9435SOL    HW229205   2.512   2.375   5.255
 9436SOL     OW29206   3.283   1.824   5.400
 9436SOL    HW129207   3.277   1.912   5.447
 9436SOL    HW229208   3.379   1.797   5.391
 9437SOL     OW29209   0.318   5.630   4.616
 9437SOL    HW129210   0.334   5.636   4.714
 9437SOL    HW229211   0.244   5.692   4.591
 9438SOL     OW29212   0.666   6.547   2.036
 9438SOL    HW129213   0.679   6.484   1.959
 9438SOL    HW229214   0.756   6.577   2.070
 9439SOL     OW29215   1.658   3.377   0.961
 9439SOL    HW129216   1.636   3.395   0.865
 9439SOL    HW229217   1.635   3.458   1.015
 9440SOL     OW29218   3.291   5.364   4.479
 9440SOL    HW129219   3.195   5.379   4.503
 9440SOL    HW229220   3.348   5.380   4.559
 9441SOL     OW29221   1.767   5.601   5.411
 9441SOL    HW129222   1.839   5.596   5.342
 9441SOL    HW229223   1.726   5.510   5.423
 9442SOL     OW29224   0.791   3.709   1.188
 9442SOL    HW129225   0.718   3.662   1.138
 9442SOL    HW229226   0.830   3.647   1.255
 9443SOL     OW29227   1.184   2.570   1.335
 9443SOL    HW129228   1.282   2.554   1.348
 9443SOL    HW229229   1.161   2.663   1.363
 9444SOL     OW29230   1.280   4.122   5.790
 9444SOL    HW129231   1.337   4.161   5.862
 9444SOL    HW229232   1.200   4.077   5.831
 9445SOL     OW29233   6.042   2.589   1.792
 9445SOL    HW129234   6.124   2.579   1.848
 9445SOL    HW229235   5.975   2.644   1.841
 9446SOL     OW29236   5.925   3.961   6.766
 9446SOL    HW129237   6.005   3.942   6.822
 9446SOL    HW229238   5.878   3.875   6.744
 9447SOL     OW29239   5.532   1.500   1.806
 9447SOL    HW129240   5.513   1.414   1.853
 9447SOL    HW229241   5.469   1.511   1.729
 9448SOL     OW29242   6.320   5.965   0.357
 9448SOL    HW129243   6.414   5.984   0.386
 9448SOL    HW229244   6.299   5.869   0.374
 9449SOL     OW29245   5.888   5.430   5.262
 9449SOL    HW129246   5.870   5.370   5.340
 9449SOL    HW229247   5.850   5.389   5.179
 9450SOL     OW29248   2.137   5.981   4.088
 9450SOL    HW129249   2.056   5.926   4.069
 9450SOL    HW229250   2.216   5.941   4.041
 9451SOL     OW29251   3.882   3.566   5.351
 9451SOL    HW129252   3.880   3.629   5.274
 9451SOL    HW229253   3.842   3.478   5.324
 9452SOL     OW29254   3.190   3.876   0.834
 9452SOL    HW129255   3.153   3.839   0.920
 9452SOL    HW229256   3.289   3.862   0.833
 9453SOL     OW29257   3.307   5.454   1.284
 9453SOL    HW129258   3.402   5.460   1.256
 9453SOL    HW229259   3.302   5.437   1.383
 9454SOL     OW29260   2.199   2.484   5.897
 9454SOL    HW129261   2.296   2.466   5.911
 9454SOL    HW229262   2.157   2.407   5.848
 9455SOL     OW29263   1.800   2.162   2.982
 9455SOL    HW129264   1.863   2.119   3.047
 9455SOL    HW229265   1.798   2.110   2.897
 9456SOL     OW29266   1.178   3.181   0.709
 9456SOL    HW129267   1.154   3.120   0.634
 9456SOL    HW229268   1.098   3.238   0.731
 9457SOL     OW29269   6.508   3.831   0.036
 9457SOL    HW129270   6.551   3.853   6.965
 9457SOL    HW229271   6.575   3.790   0.098
 9458SOL     OW29272   1.150   6.007   4.227
 9458SOL    HW129273   1.131   5.952   4.309
 9458SOL    HW229274   1.111   6.099   4.239
 9459SOL     OW29275   4.770   5.902   1.321
 9459SOL    HW129276   4.710   5.934   1.247
 9459SOL    HW229277   4.773   5.802   1.321
 9460SOL     OW29278   1.062   3.759   5.843
 9460SOL    HW129279   1.136   3.700   5.810
 9460SOL    HW229280   1.014   3.713   5.918
 9461SOL     OW29281   1.580   0.526   2.791
 9461SOL    HW129282   1.627   0.487   2.870
 9461SOL    HW229283   1.490   0.560   2.820
 9462SOL     OW29284   0.564   3.016   3.149
 9462SOL    HW129285   0.526   3.024   3.056
 9462SOL    HW229286   0.659   3.047   3.148
 9463SOL     OW29287   5.727   2.116   6.785
 9463SOL    HW129288   5.740   2.143   6.690
 9463SOL    HW229289   5.738   2.196   6.845
 9464SOL     OW29290   4.204   6.512   5.930
 9464SOL    HW129291   4.158   6.458   5.859
 9464SOL    HW229292   4.212   6.607   5.900
 9465SOL     OW29293   5.355   6.416   4.359
 9465SOL    HW129294   5.257   6.410   4.341
 9465SOL    HW229295   5.377   6.508   4.390
 9466SOL     OW29296   3.440   1.676   0.052
 9466SOL    HW129297   3.439   1.591   7.015
 9466SOL    HW229298   3.403   1.660   0.144
 9467SOL     OW29299   1.616   3.160   2.334
 9467SOL    HW129300   1.627   3.246   2.283
 9467SOL    HW229301   1.555   3.099   2.283
 9468SOL     OW29302   0.860   2.215   5.770
 9468SOL    HW129303   0.926   2.248   5.702
 9468SOL    HW229304   0.769   2.250   5.748
 9469SOL     OW29305   6.704   4.127   2.567
 9469SOL    HW129306   6.687   4.148   2.470
 9469SOL    HW229307   6.622   4.148   2.620
 9470SOL     OW29308   6.775   3.393   0.909
 9470SOL    HW129309   6.754   3.412   0.813
 9470SOL    HW229310   6.864   3.347   0.914
 9471SOL     OW29311   0.382   2.392   6.167
 9471SOL    HW129312   0.461   2.441   6.130
 9471SOL    HW229313   0.298   2.441   6.142
 9472SOL     OW29314   6.563   2.396   5.312
 9472SOL    HW129315   6.565   2.371   5.215
 9472SOL    HW229316   6.651   2.437   5.338
 9473SOL     OW29317   3.321   5.412   5.063
 9473SOL    HW129318   3.242   5.455   5.107
 9473SOL    HW229319   3.370   5.355   5.130
 9474SOL     OW29320   3.561   5.452   3.413
 9474SOL    HW129321   3.595   5.477   3.323
 9474SOL    HW229322   3.615   5.377   3.450
 9475SOL     OW29323   2.277   3.118   1.664
 9475SOL    HW129324   2.255   3.036   1.611
 9475SOL    HW229325   2.323   3.184   1.605
 9476SOL     OW29326   2.387   3.734   5.534
 9476SOL    HW129327   2.311   3.745   5.471
 9476SOL    HW229328   2.470   3.772   5.494
 9477SOL     OW29329   0.609   2.314   0.342
 9477SOL    HW129330   0.533   2.307   0.276
 9477SOL    HW229331   0.600   2.241   0.410
 9478SOL     OW29332   5.437   4.180   5.899
 9478SOL    HW129333   5.531   4.209   5.918
 9478SOL    HW229334   5.398   4.140   5.982
 9479SOL     OW29335   5.615   5.291   5.090
 9479SOL    HW129336   5.519   5.279   5.114
 9479SOL    HW229337   5.660   5.201   5.087
 9480SOL     OW29338   6.631   3.701   6.318
 9480SOL    HW129339   6.593   3.739   6.402
 9480SOL    HW229340   6.558   3.657   6.266
 9481SOL     OW29341   0.033   3.083   2.860
 9481SOL    HW129342   6.987   3.004   2.866
 9481SOL    HW229343   6.995   3.167   2.867
 9482SOL     OW29344   4.434   0.102   2.417
 9482SOL    HW129345   4.338   0.099   2.446
 9482SOL    HW229346   4.492   0.128   2.494
 9483SOL     OW29347   1.176   1.337   0.956
 9483SOL    HW129348   1.247   1.321   0.887
 9483SOL    HW229349   1.210   1.402   1.024
 9484SOL     OW29350   6.155   0.196   3.315
 9484SOL    HW129351   6.148   0.240   3.226
 9484SOL    HW229352   6.244   0.151   3.322
 9485SOL     OW29353   0.760   6.980   2.109
 9485SOL    HW129354   0.710   0.051   2.117
 9485SOL    HW229355   0.828   6.987   2.036
 9486SOL     OW29356   2.378   6.718   2.232
 9486SOL    HW129357   2.344   6.809   2.256
 9486SOL    HW229358   2.371   6.658   2.311
 9487SOL     OW29359   3.509   3.476   3.891
 9487SOL    HW129360   3.533   3.457   3.986
 9487SOL    HW229361   3.529   3.395   3.835
 9488SOL     OW29362   1.676   1.095   1.486
 9488SOL    HW129363   1.691   1.147   1.570
 9488SOL    HW229364   1.757   1.040   1.466
 9489SOL     OW29365   2.832   4.268   0.408
 9489SOL    HW129366   2.894   4.198   0.441
 9489SOL    HW229367   2.803   4.247   0.315
 9490SOL     OW29368   4.994   1.337   6.877
 9490SOL    HW129369   4.940   1.369   6.799
 9490SOL    HW229370   4.996   1.237   6.878
 9491SOL     OW29371   6.387   5.583   5.947
 9491SOL    HW129372   6.347   5.591   6.038
 9491SOL    HW229373   6.433   5.668   5.923
 9492SOL     OW29374   2.276   4.750   1.578
 9492SOL    HW129375   2.228   4.828   1.538
 9492SOL    HW229376   2.257   4.668   1.525
 9493SOL     OW29377   5.368   6.529   2.713
 9493SOL    HW129378   5.441   6.557   2.775
 9493SOL    HW229379   5.280   6.551   2.753
 9494SOL     OW29380   3.557   3.298   6.642
 9494SOL    HW129381   3.501   3.378   6.623
 9494SOL    HW229382   3.502   3.215   6.633
 9495SOL     OW29383   5.239   2.397   4.310
 9495SOL    HW129384   5.233   2.419   4.213
 9495SOL    HW229385   5.232   2.298   4.323
 9496SOL     OW29386   6.165   4.182   0.392
 9496SOL    HW129387   6.143   4.091   0.356
 9496SOL    HW229388   6.262   4.187   0.414
 9497SOL     OW29389   1.017   6.071   5.951
 9497SOL    HW129390   1.083   6.000   5.975
 9497SOL    HW229391   0.943   6.030   5.897
 9498SOL     OW29392   3.954   6.821   6.787
 9498SOL    HW129393   3.956   6.784   6.880
 9498SOL    HW229394   3.907   6.909   6.787
 9499SOL     OW29395   4.399   3.904   5.787
 9499SOL    HW129396   4.429   3.999   5.779
 9499SOL    HW229397   4.315   3.900   5.840
 9500SOL     OW29398   4.836   5.641   1.432
 9500SOL    HW129399   4.880   5.675   1.515
 9500SOL    HW229400   4.875   5.552   1.407
 9501SOL     OW29401   3.458   2.113   4.923
 9501SOL    HW129402   3.404   2.029   4.918
 9501SOL    HW229403   3.400   2.190   4.948
 9502SOL     OW29404   3.532   3.157   5.829
 9502SOL    HW129405   3.489   3.074   5.863
 9502SOL    HW229406   3.489   3.185   5.744
 9503SOL     OW29407   1.274   6.709   1.449
 9503SOL    HW129408   1.223   6.795   1.447
 9503SOL    HW229409   1.368   6.726   1.480
 9504SOL     OW29410   0.592   3.162   0.332
 9504SOL    HW129411   0.508   3.210   0.357
 9504SOL    HW229412   0.671   3.217   0.357
 9505SOL     OW29413   5.150   3.074   2.825
 9505SOL    HW129414   5.053   3.050   2.817
 9505SOL    HW229415   5.159   3.172   2.839
 9506SOL     OW29416   6.756   2.125   1.114
 9506SOL    HW129417   6.747   2.026   1.102
 9506SOL    HW229418   6.684   2.159   1.174
 9507SOL     OW29419   1.505   2.578   5.245
 9507SOL    HW129420   1.495   2.493   5.194
 9507SOL    HW229421   1.601   2.604   5.250
 9508SOL     OW29422   4.806   1.381   6.003
 9508SOL    HW129423   4.868   1.315   6.046
 9508SOL    HW229424   4.814   1.470   6.049
 9509SOL     OW29425   3.657   0.210   6.196
 9509SOL    HW129426   3.614   0.190   6.108
 9509SOL    HW229427   3.658   0.128   6.253
 9510SOL     OW29428   6.173   4.232   2.832
 9510SOL    HW129429   6.083   4.263   2.801
 9510SOL    HW229430   6.228   4.206   2.753
 9511SOL     OW29431   2.352   1.254   1.294
 9511SOL    HW129432   2.350   1.155   1.278
 9511SOL    HW229433   2.389   1.300   1.213
 9512SOL     OW29434   1.374   3.559   5.510
 9512SOL    HW129435   1.294   3.593   5.460
 9512SOL    HW229436   1.387   3.614   5.593
 9513SOL     OW29437   2.328   4.351   4.508
 9513SOL    HW129438   2.369   4.398   4.430
 9513SOL    HW229439   2.267   4.279   4.475
 9514SOL     OW29440   3.145   2.643   6.175
 9514SOL    HW129441   3.224   2.669   6.230
 9514SOL    HW229442   3.092   2.573   6.224
 9515SOL     OW29443   2.212   5.256   6.103
 9515SOL    HW129444   2.201   5.350   6.134
 9515SOL    HW229445   2.129   5.204   6.124
 9516SOL     OW29446   5.824   4.604   5.130
 9516SOL    HW129447   5.757   4.561   5.190
 9516SOL    HW229448   5.827   4.555   5.042
 9517SOL     OW29449   0.714   5.463   2.643
 9517SOL    HW129450   0.697   5.562   2.645
 9517SOL    HW229451   0.652   5.417   2.706
 9518SOL     OW29452   0.532   3.101   5.657
 9518SOL    HW129453   0.553   3.053   5.571
 9518SOL    HW229454   0.579   3.055   5.732
 9519SOL     OW29455   3.068   3.178   3.074
 9519SOL    HW129456   3.134   3.248   3.099
 9519SOL    HW229457   3.115   3.091   3.057
 9520SOL     OW29458   5.492   0.895   0.042
 9520SOL    HW129459   5.435   0.976   0.054
 9520SOL    HW229460   5.437   0.821   0.003
 9521SOL     OW29461   3.775   1.158   1.397
 9521SOL    HW129462   3.848   1.111   1.448
 9521SOL    HW229463   3.764   1.250   1.433
 9522SOL     OW29464   3.509   6.178   1.057
 9522SOL    HW129465   3.548   6.201   0.968
 9522SOL    HW229466   3.450   6.252   1.088
 9523SOL     OW29467   2.117   5.033   4.563
 9523SOL    HW129468   2.048   5.008   4.631
 9523SOL    HW229469   2.099   5.126   4.530
 9524SOL     OW29470   2.036   4.394   0.217
 9524SOL    HW129471   2.102   4.445   0.273
 9524SOL    HW229472   2.079   4.310   0.184
 9525SOL     OW29473   2.317   3.340   6.333
 9525SOL    HW129474   2.317   3.360   6.235
 9525SOL    HW229475   2.245   3.394   6.378
 9526SOL     OW29476   5.539   5.519   6.477
 9526SOL    HW129477   5.517   5.453   6.549
 9526SOL    HW229478   5.455   5.546   6.429
 9527SOL     OW29479   3.789   6.832   4.474
 9527SOL    HW129480   3.833   6.822   4.563
 9527SOL    HW229481   3.850   6.881   4.412
 9528SOL     OW29482   5.028   2.396   0.664
 9528SOL    HW129483   5.037   2.297   0.669
 9528SOL    HW229484   4.966   2.420   0.590
 9529SOL     OW29485   5.470   1.087   1.680
 9529SOL    HW129486   5.516   1.018   1.625
 9529SOL    HW229487   5.459   1.171   1.627
 9530SOL     OW29488   0.835   5.806   3.746
 9530SOL    HW129489   0.760   5.807   3.680
 9530SOL    HW229490   0.907   5.867   3.715
 9531SOL     OW29491   3.213   5.025   2.088
 9531SOL    HW129492   3.139   5.087   2.062
 9531SOL    HW229493   3.261   4.994   2.006
 9532SOL     OW29494   6.844   4.621   3.971
 9532SOL    HW129495   6.901   4.541   3.952
 9532SOL    HW229496   6.824   4.670   3.886
 9533SOL     OW29497   1.617   3.821   3.574
 9533SOL    HW129498   1.696   3.769   3.543
 9533SOL    HW229499   1.587   3.788   3.663
 9534SOL     OW29500   4.528   5.870   4.345
 9534SOL    HW129501   4.547   5.772   4.349
 9534SOL    HW229502   4.607   5.921   4.378
 9535SOL     OW29503   0.121   1.090   4.532
 9535SOL    HW129504   0.209   1.134   4.549
 9535SOL    HW229505   0.084   1.055   4.618
 9536SOL     OW29506   3.478   3.593   5.569
 9536SOL    HW129507   3.425   3.603   5.485
 9536SOL    HW229508   3.576   3.597   5.547
 9537SOL     OW29509   6.964   0.842   3.886
 9537SOL    HW129510   6.888   0.906   3.901
 9537SOL    HW229511   0.028   0.892   3.851
 9538SOL     OW29512   5.474   0.326   4.540
 9538SOL    HW129513   5.474   0.319   4.639
 9538SOL    HW229514   5.479   0.422   4.513
 9539SOL     OW29515   3.704   4.090   2.580
 9539SOL    HW129516   3.720   4.093   2.679
 9539SOL    HW229517   3.791   4.096   2.532
 9540SOL     OW29518   4.310   4.778   3.575
 9540SOL    HW129519   4.388   4.841   3.577
 9540SOL    HW229520   4.238   4.816   3.517
 9541SOL     OW29521   1.527   5.834   5.622
 9541SOL    HW129522   1.462   5.759   5.630
 9541SOL    HW229523   1.483   5.912   5.578
 9542SOL     OW29524   6.105   4.118   3.088
 9542SOL    HW129525   6.043   4.161   3.022
 9542SOL    HW229526   6.068   4.126   3.180
 9543SOL     OW29527   2.574   0.301   5.720
 9543SOL    HW129528   2.511   0.378   5.704
 9543SOL    HW229529   2.637   0.325   5.794
 9544SOL     OW29530   6.220   3.573   4.505
 9544SOL    HW129531   6.161   3.532   4.574
 9544SOL    HW229532   6.304   3.520   4.497
 9545SOL     OW29533   6.456   4.588   2.148
 9545SOL    HW129534   6.384   4.618   2.210
 9545SOL    HW229535   6.416   4.555   2.063
 9546SOL     OW29536   2.827   2.828   1.307
 9546SOL    HW129537   2.840   2.744   1.361
 9546SOL    HW229538   2.893   2.897   1.337
 9547SOL     OW29539   4.567   0.317   3.427
 9547SOL    HW129540   4.566   0.349   3.522
 9547SOL    HW229541   4.662   0.307   3.396
 9548SOL     OW29542   0.754   5.144   6.124
 9548SOL    HW129543   0.764   5.066   6.187
 9548SOL    HW229544   0.769   5.229   6.174
 9549SOL     OW29545   4.025   1.693   1.707
 9549SOL    HW129546   4.081   1.773   1.687
 9549SOL    HW229547   4.038   1.665   1.802
 9550SOL     OW29548   5.991   2.691   1.507
 9550SOL    HW129549   6.075   2.737   1.477
 9550SOL    HW229550   5.998   2.670   1.605
 9551SOL     OW29551   5.772   2.747   6.532
 9551SOL    HW129552   5.796   2.654   6.559
 9551SOL    HW229553   5.855   2.800   6.517
 9552SOL     OW29554   2.775   1.840   0.395
 9552SOL    HW129555   2.710   1.908   0.430
 9552SOL    HW229556   2.725   1.759   0.363
 9553SOL     OW29557   5.881   1.358   0.271
 9553SOL    HW129558   5.803   1.354   0.334
 9553SOL    HW229559   5.965   1.365   0.324
 9554SOL     OW29560   3.087   1.101   4.286
 9554SOL    HW129561   3.153   1.100   4.361
 9554SOL    HW229562   3.016   1.033   4.303
 9555SOL     OW29563   0.704   6.425   3.593
 9555SOL    HW129564   0.650   6.506   3.617
 9555SOL    HW229565   0.645   6.357   3.550
 9556SOL     OW29566   2.466   4.524   6.246
 9556SOL    HW129567   2.397   4.455   6.271
 9556SOL    HW229568   2.545   4.479   6.206
 9557SOL     OW29569   5.918   0.817   1.078
 9557SOL    HW129570   5.931   0.840   1.174
 9557SOL    HW229571   5.938   0.721   1.063
 9558SOL     OW29572   4.917   6.461   6.384
 9558SOL    HW129573   4.870   6.379   6.353
 9558SOL    HW229574   4.924   6.527   6.309
 9559SOL     OW29575   2.136   5.032   6.876
 9559SOL    HW129576   2.093   4.944   6.897
 9559SOL    HW229577   2.236   5.023   6.883
 9560SOL     OW29578   2.640   0.233   2.644
 9560SOL    HW129579   2.660   0.249   2.741
 9560SOL    HW229580   2.591   0.146   2.634
 9561SOL     OW29581   0.105   0.261   6.859
 9561SOL    HW129582   0.027   0.293   6.806
 9561SOL    HW229583   0.144   0.337   6.912
 9562SOL     OW29584   2.401   5.857   3.031
 9562SOL    HW129585   2.357   5.907   3.105
 9562SOL    HW229586   2.348   5.776   3.009
 9563SOL     OW29587   1.263   5.927   6.289
 9563SOL    HW129588   1.240   6.013   6.243
 9563SOL    HW229589   1.327   5.875   6.232
 9564SOL     OW29590   1.516   1.127   0.833
 9564SOL    HW129591   1.441   1.183   0.798
 9564SOL    HW229592   1.593   1.132   0.770
 9565SOL     OW29593   2.509   1.645   4.316
 9565SOL    HW129594   2.412   1.627   4.301
 9565SOL    HW229595   2.549   1.571   4.369
 9566SOL     OW29596   3.036   0.017   0.441
 9566SOL    HW129597   2.990   6.944   0.438
 9566SOL    HW229598   3.135   0.003   0.452
 9567SOL     OW29599   0.073   3.979   1.350
 9567SOL    HW129600   0.101   3.911   1.418
 9567SOL    HW229601   0.078   3.939   1.259
 9568SOL     OW29602   4.502   1.795   6.075
 9568SOL    HW129603   4.511   1.759   6.168
 9568SOL    HW229604   4.548   1.733   6.010
 9569SOL     OW29605   6.113   0.317   1.930
 9569SOL    HW129606   6.073   0.408   1.920
 9569SOL    HW229607   6.065   0.253   1.869
 9570SOL     OW29608   0.399   3.180   1.852
 9570SOL    HW129609   0.351   3.264   1.828
 9570SOL    HW229610   0.468   3.159   1.782
 9571SOL     OW29611   1.439   1.251   0.058
 9571SOL    HW129612   1.429   1.348   0.038
 9571SOL    HW229613   1.350   1.206   0.053
 9572SOL     OW29614   2.307   4.868   4.468
 9572SOL    HW129615   2.247   4.946   4.485
 9572SOL    HW229616   2.271   4.788   4.517
 9573SOL     OW29617   5.825   0.169   4.209
 9573SOL    HW129618   5.862   0.084   4.173
 9573SOL    HW229619   5.879   0.246   4.174
 9574SOL     OW29620   4.350   3.190   0.447
 9574SOL    HW129621   4.415   3.218   0.377
 9574SOL    HW229622   4.274   3.255   0.451
 9575SOL     OW29623   5.527   0.017   2.231
 9575SOL    HW129624   5.534   0.047   2.325
 9575SOL    HW229625   5.460   0.073   2.182
 9576SOL     OW29626   1.140   1.398   6.738
 9576SOL    HW129627   1.238   1.375   6.742
 9576SOL    HW229628   1.091   1.327   6.689
 9577SOL     OW29629   6.351   5.023   3.161
 9577SOL    HW129630   6.252   5.011   3.168
 9577SOL    HW229631   6.390   4.952   3.102
 9578SOL     OW29632   1.634   3.479   2.193
 9578SOL    HW129633   1.582   3.415   2.136
 9578SOL    HW229634   1.652   3.562   2.141
 9579SOL     OW29635   6.017   5.702   2.245
 9579SOL    HW129636   6.080   5.704   2.322
 9579SOL    HW229637   6.013   5.792   2.201
 9580SOL     OW29638   4.718   4.232   3.399
 9580SOL    HW129639   4.665   4.299   3.450
 9580SOL    HW229640   4.730   4.150   3.455
 9581SOL     OW29641   5.325   2.088   6.676
 9581SOL    HW129642   5.385   2.017   6.712
 9581SOL    HW229643   5.334   2.092   6.576
 9582SOL     OW29644   5.267   6.665   4.750
 9582SOL    HW129645   5.363   6.638   4.745
 9582SOL    HW229646   5.225   6.623   4.830
 9583SOL     OW29647   3.719   4.985   2.041
 9583SOL    HW129648   3.645   4.919   2.034
 9583SOL    HW229649   3.764   4.995   1.952
 9584SOL     OW29650   2.560   4.947   4.283
 9584SOL    HW129651   2.472   4.938   4.329
 9584SOL    HW229652   2.563   5.034   4.234
 9585SOL     OW29653   4.325   6.263   0.806
 9585SOL    HW129654   4.276   6.326   0.866
 9585SOL    HW229655   4.423   6.264   0.828
 9586SOL     OW29656   3.470   5.391   2.661
 9586SOL    HW129657   3.502   5.422   2.571
 9586SOL    HW229658   3.549   5.383   2.723
 9587SOL     OW29659   3.432   6.151   0.684
 9587SOL    HW129660   3.435   6.250   0.700
 9587SOL    HW229661   3.507   6.107   0.733
 9588SOL     OW29662   6.433   6.001   7.004
 9588SOL    HW129663   6.444   6.058   6.923
 9588SOL    HW229664   6.487   6.039   0.064
 9589SOL     OW29665   1.704   2.220   6.225
 9589SOL    HW129666   1.665   2.278   6.297
 9589SOL    HW229667   1.634   2.159   6.189
 9590SOL     OW29668   6.456   0.216   1.107
 9590SOL    HW129669   6.536   0.199   1.163
 9590SOL    HW229670   6.482   0.269   1.026
 9591SOL     OW29671   5.216   0.899   0.681
 9591SOL    HW129672   5.121   0.875   0.660
 9591SOL    HW229673   5.220   0.955   0.763
 9592SOL     OW29674   2.178   6.201   5.573
 9592SOL    HW129675   2.233   6.251   5.506
 9592SOL    HW229676   2.091   6.174   5.531
 9593SOL     OW29677   2.031   2.648   4.193
 9593SOL    HW129678   2.014   2.696   4.107
 9593SOL    HW229679   1.961   2.673   4.259
 9594SOL     OW29680   0.519   6.320   3.418
 9594SOL    HW129681   0.483   6.413   3.417
 9594SOL    HW229682   0.524   6.285   3.325
 9595SOL     OW29683   0.380   3.401   3.258
 9595SOL    HW129684   0.443   3.396   3.180
 9595SOL    HW229685   0.432   3.398   3.343
 9596SOL     OW29686   1.203   6.698   0.386
 9596SOL    HW129687   1.164   6.735   0.470
 9596SOL    HW229688   1.238   6.606   0.403
 9597SOL     OW29689   1.211   3.060   1.852
 9597SOL    HW129690   1.134   3.119   1.875
 9597SOL    HW229691   1.178   2.965   1.845
 9598SOL     OW29692   2.197   4.053   4.127
 9598SOL    HW129693   2.114   4.100   4.097
 9598SOL    HW229694   2.275   4.085   4.074
 9599SOL     OW29695   4.621   6.926   4.349
 9599SOL    HW129696   4.639   6.956   4.442
 9599SOL    HW229697   4.696   6.867   4.318
 9600SOL     OW29698   3.926   1.418   1.435
 9600SOL    HW129699   3.926   1.402   1.534
 9600SOL    HW229700   3.978   1.346   1.389
 9601SOL     OW29701   0.933   3.725   0.941
 9601SOL    HW129702   0.894   3.744   1.031
 9601SOL    HW229703   0.992   3.644   0.946
 9602SOL     OW29704   4.237   4.768   5.328
 9602SOL    HW129705   4.142   4.739   5.313
 9602SOL    HW229706   4.280   4.706   5.393
 9603SOL     OW29707   5.106   6.980   5.549
 9603SOL    HW129708   5.205   6.974   5.553
 9603SOL    HW229709   5.075   0.043   5.603
 9604SOL     OW29710   4.677   6.919   0.929
 9604SOL    HW129711   4.635   6.952   0.844
 9604SOL    HW229712   4.741   6.987   0.963
 9605SOL     OW29713   5.480   5.535   1.802
 9605SOL    HW129714   5.496   5.633   1.805
 9605SOL    HW229715   5.390   5.514   1.841
 9606SOL     OW29716   1.212   1.118   7.005
 9606SOL    HW129717   1.126   1.130   6.957
 9606SOL    HW229718   1.222   1.023   0.019
 9607SOL     OW29719   1.851   2.093   6.489
 9607SOL    HW129720   1.847   2.141   6.576
 9607SOL    HW229721   1.895   2.151   6.421
 9608SOL     OW29722   5.967   2.749   4.415
 9608SOL    HW129723   6.032   2.709   4.350
 9608SOL    HW229724   5.906   2.678   4.449
 9609SOL     OW29725   4.603   2.997   6.897
 9609SOL    HW129726   4.558   2.958   6.977
 9609SOL    HW229727   4.548   3.073   6.862
 9610SOL     OW29728   0.761   4.870   2.825
 9610SOL    HW129729   0.766   4.937   2.751
 9610SOL    HW229730   0.680   4.887   2.881
 9611SOL     OW29731   2.295   0.894   0.292
 9611SOL    HW129732   2.390   0.865   0.296
 9611SOL    HW229733   2.272   0.921   0.198
 9612SOL     OW29734   0.032   1.969   4.002
 9612SOL    HW129735   0.096   1.951   3.927
 9612SOL    HW229736   0.076   2.030   4.069
 9613SOL     OW29737   6.122   4.851   3.377
 9613SOL    HW129738   6.132   4.929   3.438
 9613SOL    HW229739   6.192   4.783   3.399
 9614SOL     OW29740   4.511   2.495   3.310
 9614SOL    HW129741   4.543   2.406   3.279
 9614SOL    HW229742   4.533   2.564   3.240
 9615SOL     OW29743   1.592   4.400   1.687
 9615SOL    HW129744   1.564   4.324   1.746
 9615SOL    HW229745   1.645   4.466   1.740
 9616SOL     OW29746   3.945   3.480   6.657
 9616SOL    HW129747   3.861   3.442   6.696
 9616SOL    HW229748   4.020   3.469   6.721
 9617SOL     OW29749   2.175   2.690   2.617
 9617SOL    HW129750   2.142   2.664   2.527
 9617SOL    HW229751   2.180   2.790   2.623
 9618SOL     OW29752   2.572   1.979   0.875
 9618SOL    HW129753   2.588   2.049   0.944
 9618SOL    HW229754   2.655   1.924   0.863
 9619SOL     OW29755   2.425   0.555   6.682
 9619SOL    HW129756   2.464   0.497   6.611
 9619SOL    HW229757   2.445   0.651   6.661
 9620SOL     OW29758   5.233   0.968   5.079
 9620SOL    HW129759   5.159   0.945   5.016
 9620SOL    HW229760   5.280   0.885   5.107
 9621SOL     OW29761   1.722   3.434   3.172
 9621SOL    HW129762   1.745   3.493   3.094
 9621SOL    HW229763   1.796   3.368   3.185
 9622SOL     OW29764   4.946   0.194   0.587
 9622SOL    HW129765   4.998   0.220   0.506
 9622SOL    HW229766   4.872   0.132   0.561
 9623SOL     OW29767   2.364   4.230   6.596
 9623SOL    HW129768   2.379   4.257   6.501
 9623SOL    HW229769   2.266   4.228   6.615
 9624SOL     OW29770   6.432   2.880   4.073
 9624SOL    HW129771   6.341   2.922   4.077
 9624SOL    HW229772   6.500   2.947   4.102
 9625SOL     OW29773   5.852   5.744   1.329
 9625SOL    HW129774   5.838   5.753   1.428
 9625SOL    HW229775   5.764   5.745   1.283
 9626SOL     OW29776   3.711   6.511   0.426
 9626SOL    HW129777   3.641   6.578   0.399
 9626SOL    HW229778   3.786   6.557   0.472
 9627SOL     OW29779   0.989   6.860   6.709
 9627SOL    HW129780   1.057   6.915   6.661
 9627SOL    HW229781   0.992   6.766   6.675
 9628SOL     OW29782   2.807   6.690   2.071
 9628SOL    HW129783   2.818   6.602   2.117
 9628SOL    HW229784   2.884   6.704   2.009
 9629SOL     OW29785   2.588   0.196   1.175
 9629SOL    HW129786   2.645   0.212   1.094
 9629SOL    HW229787   2.591   0.099   1.200
 9630SOL     OW29788   6.711   1.872   6.457
 9630SOL    HW129789   6.670   1.811   6.524
 9630SOL    HW229790   6.775   1.821   6.400
 9631SOL     OW29791   6.642   6.187   0.078
 9631SOL    HW129792   6.735   6.183   0.115
 9631SOL    HW229793   6.598   6.272   0.108
 9632SOL     OW29794   0.827   5.263   2.120
 9632SOL    HW129795   0.765   5.337   2.143
 9632SOL    HW229796   0.806   5.229   2.028
 9633SOL     OW29797   6.743   4.952   6.117
 9633SOL    HW129798   6.650   4.986   6.130
 9633SOL    HW229799   6.759   4.875   6.179
 9634SOL     OW29800   1.235   6.163   6.152
 9634SOL    HW129801   1.142   6.198   6.152
 9634SOL    HW229802   1.267   6.154   6.057
 9635SOL     OW29803   0.253   6.057   5.304
 9635SOL    HW129804   0.231   6.095   5.214
 9635SOL    HW229805   0.346   6.019   5.302
 9636SOL     OW29806   4.000   1.381   0.181
 9636SOL    HW129807   3.901   1.372   0.167
 9636SOL    HW229808   4.042   1.420   0.099
 9637SOL     OW29809   2.487   1.185   6.556
 9637SOL    HW129810   2.508   1.133   6.474
 9637SOL    HW229811   2.389   1.179   6.576
 9638SOL     OW29812   6.681   2.486   6.669
 9638SOL    HW129813   6.583   2.463   6.667
 9638SOL    HW229814   6.723   2.459   6.583
 9639SOL     OW29815   3.673   0.566   2.450
 9639SOL    HW129816   3.744   0.499   2.472
 9639SOL    HW229817   3.623   0.591   2.533
 9640SOL     OW29818   1.145   1.599   2.597
 9640SOL    HW129819   1.068   1.657   2.624
 9640SOL    HW229820   1.228   1.654   2.590
 9641SOL     OW29821   5.703   5.906   6.858
 9641SOL    HW129822   5.646   5.843   6.805
 9641SOL    HW229823   5.796   5.907   6.820
 9642SOL     OW29824   3.596   0.136   3.517
 9642SOL    HW129825   3.507   0.124   3.473
 9642SOL    HW229826   3.582   0.157   3.614
 9643SOL     OW29827   4.205   4.733   2.896
 9643SOL    HW129828   4.268   4.754   2.971
 9643SOL    HW229829   4.252   4.677   2.827
 9644SOL     OW29830   3.013   1.598   0.579
 9644SOL    HW129831   2.915   1.598   0.596
 9644SOL    HW229832   3.037   1.680   0.526
 9645SOL     OW29833   2.666   5.616   5.017
 9645SOL    HW129834   2.588   5.594   4.960
 9645SOL    HW229835   2.735   5.665   4.963
 9646SOL     OW29836   3.744   5.302   3.825
 9646SOL    HW129837   3.743   5.217   3.878
 9646SOL    HW229838   3.808   5.367   3.867
 9647SOL     OW29839   6.521   2.677   5.739
 9647SOL    HW129840   6.437   2.631   5.769
 9647SOL    HW229841   6.530   2.764   5.787
 9648SOL     OW29842   4.088   3.934   0.804
 9648SOL    HW129843   4.065   4.023   0.844
 9648SOL    HW229844   4.171   3.899   0.847
 9649SOL     OW29845   2.329   5.413   2.072
 9649SOL    HW129846   2.304   5.316   2.061
 9649SOL    HW229847   2.298   5.464   1.992
 9650SOL     OW29848   1.012   0.314   1.139
 9650SOL    HW129849   0.979   0.407   1.147
 9650SOL    HW229850   1.104   0.307   1.180
 9651SOL     OW29851   0.811   1.924   6.826
 9651SOL    HW129852   0.850   1.862   6.758
 9651SOL    HW229853   0.711   1.922   6.820
 9652SOL     OW29854   1.024   4.694   1.800
 9652SOL    HW129855   0.979   4.682   1.888
 9652SOL    HW229856   0.955   4.718   1.731
 9653SOL     OW29857   6.103   6.334   4.520
 9653SOL    HW129858   6.097   6.299   4.613
 9653SOL    HW229859   6.044   6.280   4.459
 9654SOL     OW29860   2.129   2.974   2.567
 9654SOL    HW129861   2.152   3.061   2.611
 9654SOL    HW229862   2.080   2.991   2.482
 9655SOL     OW29863   5.979   1.965   6.757
 9655SOL    HW129864   5.951   1.888   6.814
 9655SOL    HW229865   5.942   2.050   6.794
 9656SOL     OW29866   2.614   1.777   3.289
 9656SOL    HW129867   2.696   1.776   3.346
 9656SOL    HW229868   2.559   1.857   3.312
 9657SOL     OW29869   6.996   0.138   4.869
 9657SOL    HW129870   6.922   0.072   4.880
 9657SOL    HW229871   0.025   0.154   4.957
 9658SOL     OW29872   5.872   1.934   3.037
 9658SOL    HW129873   5.913   1.848   3.067
 9658SOL    HW229874   5.908   1.959   2.946
 9659SOL     OW29875   0.989   4.924   6.838
 9659SOL    HW129876   1.025   4.919   6.930
 9659SOL    HW229877   1.064   4.928   6.772
 9660SOL     OW29878   0.941   5.174   0.151
 9660SOL    HW129879   0.949   5.235   0.230
 9660SOL    HW229880   0.912   5.227   0.072
 9661SOL     OW29881   4.058   0.372   0.684
 9661SOL    HW129882   3.997   0.397   0.609
 9661SOL    HW229883   4.019   0.402   0.770
 9662SOL     OW29884   5.550   1.565   4.274
 9662SOL    HW129885   5.488   1.639   4.248
 9662SOL    HW229886   5.600   1.534   4.193
 9663SOL     OW29887   2.221   5.823   3.341
 9663SOL    HW129888   2.218   5.816   3.440
 9663SOL    HW229889   2.190   5.914   3.313
 9664SOL     OW29890   2.198   5.879   1.714
 9664SOL    HW129891   2.284   5.845   1.751
 9664SOL    HW229892   2.189   5.849   1.619
 9665SOL     OW29893   5.232   4.177   3.784
 9665SOL    HW129894   5.147   4.231   3.789
 9665SOL    HW229895   5.240   4.136   3.693
 9666SOL     OW29896   5.309   5.124   4.901
 9666SOL    HW129897   5.260   5.171   4.828
 9666SOL    HW229898   5.302   5.025   4.888
 9667SOL     OW29899   3.309   2.974   3.748
 9667SOL    HW129900   3.380   2.956   3.680
 9667SOL    HW229901   3.221   2.986   3.702
 9668SOL     OW29902   0.363   1.108   5.307
 9668SOL    HW129903   0.337   1.024   5.260
 9668SOL    HW229904   0.287   1.139   5.365
 9669SOL     OW29905   1.527   6.035   6.899
 9669SOL    HW129906   1.516   6.084   6.813
 9669SOL    HW229907   1.459   6.066   6.965
 9670SOL     OW29908   5.836   4.662   6.466
 9670SOL    HW129909   5.802   4.588   6.524
 9670SOL    HW229910   5.809   4.644   6.372
 9671SOL     OW29911   6.906   0.613   0.302
 9671SOL    HW129912   6.835   0.630   0.234
 9671SOL    HW229913   6.942   0.699   0.336
 9672SOL     OW29914   1.698   6.286   5.172
 9672SOL    HW129915   1.769   6.314   5.107
 9672SOL    HW229916   1.614   6.337   5.154
 9673SOL     OW29917   2.294   2.923   6.440
 9673SOL    HW129918   2.366   2.889   6.379
 9673SOL    HW229919   2.246   2.998   6.395
 9674SOL     OW29920   2.346   6.534   2.465
 9674SOL    HW129921   2.392   6.505   2.549
 9674SOL    HW229922   2.251   6.502   2.466
 9675SOL     OW29923   0.128   2.439   2.590
 9675SOL    HW129924   0.215   2.402   2.558
 9675SOL    HW229925   0.075   2.472   2.512
 9676SOL     OW29926   0.082   2.508   4.617
 9676SOL    HW129927   0.151   2.580   4.612
 9676SOL    HW229928   7.006   2.549   4.625
 9677SOL     OW29929   1.672   3.342   5.845
 9677SOL    HW129930   1.713   3.350   5.754
 9677SOL    HW229931   1.605   3.267   5.845
 9678SOL     OW29932   3.456   3.315   3.091
 9678SOL    HW129933   3.483   3.233   3.042
 9678SOL    HW229934   3.414   3.380   3.027
 9679SOL     OW29935   0.618   3.975   1.008
 9679SOL    HW129936   0.709   3.965   1.048
 9679SOL    HW229937   0.549   3.957   1.078
 9680SOL     OW29938   4.978   5.382   2.908
 9680SOL    HW129939   5.018   5.292   2.927
 9680SOL    HW229940   4.878   5.375   2.912
 9681SOL     OW29941   1.290   0.435   4.395
 9681SOL    HW129942   1.224   0.499   4.433
 9681SOL    HW229943   1.306   0.456   4.299
 9682SOL     OW29944   0.609   4.528   3.098
 9682SOL    HW129945   0.514   4.557   3.090
 9682SOL    HW229946   0.669   4.607   3.090
 9683SOL     OW29947   4.792   0.074   5.957
 9683SOL    HW129948   4.850   0.112   6.030
 9683SOL    HW229949   4.698   0.067   5.991
 9684SOL     OW29950   0.904   4.093   3.766
 9684SOL    HW129951   1.003   4.084   3.778
 9684SOL    HW229952   0.863   4.003   3.759
 9685SOL     OW29953   2.166   1.458   6.650
 9685SOL    HW129954   2.078   1.457   6.603
 9685SOL    HW229955   2.153   1.439   6.748
 9686SOL     OW29956   5.497   2.559   1.979
 9686SOL    HW129957   5.533   2.547   1.886
 9686SOL    HW229958   5.527   2.483   2.036
 9687SOL     OW29959   3.488   1.263   4.669
 9687SOL    HW129960   3.408   1.226   4.717
 9687SOL    HW229961   3.515   1.200   4.596
 9688SOL     OW29962   5.974   1.732   4.048
 9688SOL    HW129963   5.979   1.665   4.122
 9688SOL    HW229964   5.924   1.813   4.079
 9689SOL     OW29965   2.133   4.994   5.385
 9689SOL    HW129966   2.168   5.073   5.336
 9689SOL    HW229967   2.135   4.914   5.325
 9690SOL     OW29968   6.192   3.894   0.350
 9690SOL    HW129969   6.244   3.927   0.271
 9690SOL    HW229970   6.143   3.811   0.324
 9691SOL     OW29971   1.595   4.433   0.424
 9691SOL    HW129972   1.676   4.396   0.378
 9691SOL    HW229973   1.544   4.358   0.465
 9692SOL     OW29974   3.290   5.792   0.638
 9692SOL    HW129975   3.268   5.755   0.547
 9692SOL    HW229976   3.280   5.720   0.706
 9693SOL     OW29977   6.047   5.937   1.526
 9693SOL    HW129978   5.966   5.955   1.581
 9693SOL    HW229979   6.061   5.838   1.517
 9694SOL     OW29980   1.116   1.616   1.109
 9694SOL    HW129981   1.072   1.623   1.019
 9694SOL    HW229982   1.214   1.598   1.097
 9695SOL     OW29983   6.483   4.615   0.236
 9695SOL    HW129984   6.583   4.614   0.243
 9695SOL    HW229985   6.443   4.584   0.323
 9696SOL     OW29986   3.813   4.568   0.350
 9696SOL    HW129987   3.742   4.622   0.304
 9696SOL    HW229988   3.903   4.599   0.321
 9697SOL     OW29989   0.616   5.866   6.034
 9697SOL    HW129990   0.593   5.926   6.111
 9697SOL    HW229991   0.539   5.863   5.970
 9698SOL     OW29992   4.629   1.067   5.200
 9698SOL    HW129993   4.628   1.151   5.254
 9698SOL    HW229994   4.550   1.011   5.223
 9699SOL     OW29995   1.767   2.260   6.688
 9699SOL    HW129996   1.676   2.273   6.648
 9699SOL    HW229997   1.808   2.349   6.707
 9700SOL     OW29998   4.100   3.619   3.154
 9700SOL    HW129999   4.107   3.524   3.185
 9700SOL    HW230000   4.136   3.626   3.061
 9701SOL     OW30001   4.327   4.662   4.403
 9701SOL    HW130002   4.267   4.588   4.373
 9701SOL    HW230003   4.281   4.750   4.389
 9702SOL     OW30004   5.664   0.465   0.607
 9702SOL    HW130005   5.594   0.395   0.623
 9702SOL    HW230006   5.686   0.511   0.694
 9703SOL     OW30007   2.595   5.992   4.160
 9703SOL    HW130008   2.516   6.017   4.216
 9703SOL    HW230009   2.626   5.901   4.185
 9704SOL     OW30010   2.368   1.400   3.619
 9704SOL    HW130011   2.304   1.477   3.613
 9704SOL    HW230012   2.455   1.426   3.577
 9705SOL     OW30013   3.625   4.191   0.929
 9705SOL    HW130014   3.716   4.197   0.887
 9705SOL    HW230015   3.563   4.144   0.867
 9706SOL     OW30016   6.877   2.472   3.568
 9706SOL    HW130017   6.928   2.430   3.642
 9706SOL    HW230018   6.798   2.415   3.545
 9707SOL     OW30019   2.803   5.080   2.590
 9707SOL    HW130020   2.735   5.037   2.529
 9707SOL    HW230021   2.887   5.098   2.539
 9708SOL     OW30022   1.930   2.019   2.064
 9708SOL    HW130023   1.979   2.086   2.120
 9708SOL    HW230024   1.835   2.048   2.053
 9709SOL     OW30025   1.367   5.789   3.249
 9709SOL    HW130026   1.381   5.831   3.339
 9709SOL    HW230027   1.392   5.855   3.178
 9710SOL     OW30028   1.023   0.476   3.966
 9710SOL    HW130029   1.005   0.520   3.878
 9710SOL    HW230030   0.951   0.409   3.986
 9711SOL     OW30031   1.276   2.961   6.656
 9711SOL    HW130032   1.196   2.940   6.599
 9711SOL    HW230033   1.357   2.968   6.599
 9712SOL     OW30034   4.912   3.799   4.838
 9712SOL    HW130035   4.870   3.732   4.899
 9712SOL    HW230036   4.988   3.844   4.886
 9713SOL     OW30037   6.925   5.006   3.024
 9713SOL    HW130038   6.860   5.073   2.988
 9713SOL    HW230039   6.967   4.956   2.948
 9714SOL     OW30040   2.293   2.143   2.868
 9714SOL    HW130041   2.218   2.201   2.837
 9714SOL    HW230042   2.284   2.051   2.828
 9715SOL     OW30043   6.036   5.282   5.854
 9715SOL    HW130044   6.054   5.261   5.950
 9715SOL    HW230045   5.941   5.260   5.832
 9716SOL     OW30046   3.534   1.351   6.275
 9716SOL    HW130047   3.535   1.369   6.177
 9716SOL    HW230048   3.475   1.418   6.321
 9717SOL     OW30049   5.433   5.388   3.406
 9717SOL    HW130050   5.406   5.295   3.382
 9717SOL    HW230051   5.483   5.429   3.330
 9718SOL     OW30052   4.762   3.018   1.589
 9718SOL    HW130053   4.785   3.007   1.686
 9718SOL    HW230054   4.839   3.059   1.540
 9719SOL     OW30055   0.287   1.120   0.261
 9719SOL    HW130056   0.344   1.135   0.180
 9719SOL    HW230057   0.270   1.208   0.306
 9720SOL     OW30058   0.699   0.429   0.578
 9720SOL    HW130059   0.652   0.356   0.628
 9720SOL    HW230060   0.727   0.501   0.642
 9721SOL     OW30061   0.309   2.747   3.060
 9721SOL    HW130062   0.297   2.710   3.152
 9721SOL    HW230063   0.238   2.814   3.041
 9722SOL     OW30064   0.240   0.291   4.465
 9722SOL    HW130065   0.275   0.198   4.470
 9722SOL    HW230066   0.140   0.289   4.455
 9723SOL     OW30067   6.872   0.188   3.925
 9723SOL    HW130068   6.876   0.092   3.895
 9723SOL    HW230069   6.944   0.204   3.992
 9724SOL     OW30070   3.921   2.516   1.607
 9724SOL    HW130071   3.843   2.554   1.657
 9724SOL    HW230072   3.940   2.573   1.527
 9725SOL     OW30073   3.770   3.285   5.735
 9725SOL    HW130074   3.690   3.292   5.793
 9725SOL    HW230075   3.755   3.215   5.665
 9726SOL     OW30076   5.580   5.942   4.517
 9726SOL    HW130077   5.616   6.035   4.519
 9726SOL    HW230078   5.554   5.914   4.610
 9727SOL     OW30079   1.285   0.309   6.661
 9727SOL    HW130080   1.301   0.373   6.587
 9727SOL    HW230081   1.372   0.283   6.703
 9728SOL     OW30082   3.451   5.986   6.321
 9728SOL    HW130083   3.351   5.981   6.324
 9728SOL    HW230084   3.486   6.010   6.411
 9729SOL     OW30085   3.045   5.331   2.269
 9729SOL    HW130086   3.015   5.267   2.340
 9729SOL    HW230087   3.065   5.281   2.185
 9730SOL     OW30088   5.796   3.450   3.246
 9730SOL    HW130089   5.726   3.380   3.258
 9730SOL    HW230090   5.874   3.430   3.305
 9731SOL     OW30091   5.154   5.350   1.343
 9731SOL    HW130092   5.196   5.269   1.385
 9731SOL    HW230093   5.200   5.369   1.256
 9732SOL     OW30094   5.129   6.465   4.599
 9732SOL    HW130095   5.131   6.554   4.644
 9732SOL    HW230096   5.080   6.472   4.512
 9733SOL     OW30097   5.114   4.770   5.883
 9733SOL    HW130098   5.095   4.692   5.942
 9733SOL    HW230099   5.207   4.763   5.847
 9734SOL     OW30100   6.070   1.756   5.880
 9734SOL    HW130101   5.985   1.704   5.869
 9734SOL    HW230102   6.112   1.733   5.968
 9735SOL     OW30103   3.252   4.654   0.744
 9735SOL    HW130104   3.247   4.563   0.786
 9735SOL    HW230105   3.188   4.716   0.790
 9736SOL     OW30106   2.987   1.866   1.934
 9736SOL    HW130107   3.024   1.945   1.984
 9736SOL    HW230108   2.922   1.898   1.865
 9737SOL     OW30109   4.345   2.336   4.460
 9737SOL    HW130110   4.427   2.282   4.442
 9737SOL    HW230111   4.304   2.305   4.546
 9738SOL     OW30112   2.352   1.076   1.756
 9738SOL    HW130113   2.359   1.174   1.776
 9738SOL    HW230114   2.408   1.025   1.821
 9739SOL     OW30115   5.736   4.304   1.670
 9739SOL    HW130116   5.648   4.341   1.700
 9739SOL    HW230117   5.723   4.251   1.586
 9740SOL     OW30118   6.701   2.928   2.469
 9740SOL    HW130119   6.635   2.998   2.498
 9740SOL    HW230120   6.658   2.838   2.473
 9741SOL     OW30121   3.929   1.741   2.465
 9741SOL    HW130122   3.874   1.659   2.450
 9741SOL    HW230123   3.885   1.797   2.536
 9742SOL     OW30124   3.939   1.576   3.610
 9742SOL    HW130125   3.986   1.625   3.537
 9742SOL    HW230126   3.921   1.482   3.581
 9743SOL     OW30127   1.513   1.413   5.290
 9743SOL    HW130128   1.514   1.332   5.231
 9743SOL    HW230129   1.449   1.399   5.365
 9744SOL     OW30130   2.658   0.278   1.458
 9744SOL    HW130131   2.670   0.364   1.507
 9744SOL    HW230132   2.578   0.285   1.398
 9745SOL     OW30133   0.507   0.684   4.609
 9745SOL    HW130134   0.512   0.747   4.687
 9745SOL    HW230135   0.439   0.613   4.629
 9746SOL     OW30136   6.191   0.548   4.186
 9746SOL    HW130137   6.162   0.643   4.174
 9746SOL    HW230138   6.286   0.538   4.157
 9747SOL     OW30139   0.477   0.086   6.010
 9747SOL    HW130140   0.510   0.041   5.927
 9747SOL    HW230141   0.539   0.065   6.086
 9748SOL     OW30142   1.029   3.900   4.289
 9748SOL    HW130143   0.938   3.907   4.247
 9748SOL    HW230144   1.097   3.939   4.228
 9749SOL     OW30145   0.467   4.949   4.269
 9749SOL    HW130146   0.370   4.962   4.248
 9749SOL    HW230147   0.508   4.886   4.203
 9750SOL     OW30148   2.885   5.512   2.718
 9750SOL    HW130149   2.839   5.599   2.736
 9750SOL    HW230150   2.817   5.438   2.716
 9751SOL     OW30151   1.469   2.536   0.577
 9751SOL    HW130152   1.427   2.598   0.512
 9751SOL    HW230153   1.543   2.485   0.532
 9752SOL     OW30154   3.918   0.339   6.258
 9752SOL    HW130155   3.958   0.428   6.235
 9752SOL    HW230156   3.821   0.339   6.234
 9753SOL     OW30157   6.946   6.714   0.052
 9753SOL    HW130158   6.906   6.794   0.007
 9753SOL    HW230159   7.015   6.745   0.118
 9754SOL     OW30160   0.093   3.205   6.082
 9754SOL    HW130161   0.030   3.201   6.160
 9754SOL    HW230162   0.123   3.299   6.068
 9755SOL     OW30163   3.597   5.499   5.241
 9755SOL    HW130164   3.555   5.409   5.235
 9755SOL    HW230165   3.634   5.525   5.152
 9756SOL     OW30166   5.105   2.737   6.096
 9756SOL    HW130167   5.056   2.799   6.035
 9756SOL    HW230168   5.190   2.780   6.126
 9757SOL     OW30169   6.538   0.812   3.933
 9757SOL    HW130170   6.541   0.734   3.996
 9757SOL    HW230171   6.444   0.828   3.903
 9758SOL     OW30172   3.409   0.610   0.580
 9758SOL    HW130173   3.320   0.651   0.558
 9758SOL    HW230174   3.466   0.608   0.497
 9759SOL     OW30175   2.982   5.706   1.477
 9759SOL    HW130176   2.967   5.659   1.564
 9759SOL    HW230177   2.992   5.804   1.494
 9760SOL     OW30178   5.537   4.656   5.867
 9760SOL    HW130179   5.501   4.568   5.838
 9760SOL    HW230180   5.636   4.657   5.857
 9761SOL     OW30181   5.434   5.139   2.523
 9761SOL    HW130182   5.469   5.159   2.615
 9761SOL    HW230183   5.402   5.224   2.481
 9762SOL     OW30184   3.275   0.392   2.496
 9762SOL    HW130185   3.331   0.363   2.418
 9762SOL    HW230186   3.318   0.471   2.540
 9763SOL     OW30187   2.288   2.016   1.752
 9763SOL    HW130188   2.234   1.987   1.831
 9763SOL    HW230189   2.381   2.038   1.782
 9764SOL     OW30190   0.724   2.623   3.198
 9764SOL    HW130191   0.807   2.593   3.151
 9764SOL    HW230192   0.677   2.691   3.142
 9765SOL     OW30193   0.407   0.581   5.922
 9765SOL    HW130194   0.385   0.488   5.950
 9765SOL    HW230195   0.455   0.628   5.996
 9766SOL     OW30196   2.205   0.952   3.130
 9766SOL    HW130197   2.185   1.032   3.188
 9766SOL    HW230198   2.282   0.902   3.169
 9767SOL     OW30199   4.812   0.528   5.500
 9767SOL    HW130200   4.713   0.541   5.496
 9767SOL    HW230201   4.851   0.533   5.408
 9768SOL     OW30202   4.399   2.434   3.833
 9768SOL    HW130203   4.359   2.417   3.923
 9768SOL    HW230204   4.328   2.426   3.763
 9769SOL     OW30205   0.525   1.954   1.008
 9769SOL    HW130206   0.500   1.919   1.099
 9769SOL    HW230207   0.457   2.021   0.979
 9770SOL     OW30208   0.609   2.913   5.859
 9770SOL    HW130209   0.579   2.940   5.950
 9770SOL    HW230210   0.709   2.904   5.857
 9771SOL     OW30211   2.491   6.001   3.864
 9771SOL    HW130212   2.518   5.990   3.960
 9771SOL    HW230213   2.500   5.913   3.817
 9772SOL     OW30214   6.043   6.859   0.706
 9772SOL    HW130215   6.077   6.800   0.633
 9772SOL    HW230216   6.087   6.949   0.698
 9773SOL     OW30217   4.844   5.579   3.891
 9773SOL    HW130218   4.944   5.578   3.892
 9773SOL    HW230219   4.809   5.494   3.931
 9774SOL     OW30220   6.876   4.930   4.395
 9774SOL    HW130221   6.912   4.983   4.318
 9774SOL    HW230222   6.952   4.891   4.447
 9775SOL     OW30223   2.952   2.019   5.084
 9775SOL    HW130224   3.040   2.050   5.048
 9775SOL    HW230225   2.880   2.037   5.017
 9776SOL     OW30226   0.014   4.541   4.448
 9776SOL    HW130227   0.022   4.592   4.362
 9776SOL    HW230228   6.949   4.482   4.444
 9777SOL     OW30229   5.044   5.707   6.247
 9777SOL    HW130230   5.127   5.670   6.289
 9777SOL    HW230231   5.069   5.778   6.180
 9778SOL     OW30232   3.856   0.540   4.326
 9778SOL    HW130233   3.830   0.620   4.272
 9778SOL    HW230234   3.912   0.570   4.404
 9779SOL     OW30235   3.516   2.391   6.761
 9779SOL    HW130236   3.495   2.327   6.836
 9779SOL    HW230237   3.563   2.471   6.799
 9780SOL     OW30238   2.077   3.722   1.099
 9780SOL    HW130239   2.156   3.661   1.102
 9780SOL    HW230240   2.054   3.751   1.191
 9781SOL     OW30241   0.882   6.628   4.505
 9781SOL    HW130242   0.842   6.600   4.592
 9781SOL    HW230243   0.980   6.644   4.517
 9782SOL     OW30244   5.917   0.141   0.653
 9782SOL    HW130245   5.867   0.186   0.727
 9782SOL    HW230246   6.007   0.112   0.686
 9783SOL     OW30247   6.024   0.115   3.607
 9783SOL    HW130248   6.001   0.062   3.690
 9783SOL    HW230249   6.122   0.131   3.604
 9784SOL     OW30250   5.617   0.151   4.396
 9784SOL    HW130251   5.667   0.170   4.311
 9784SOL    HW230252   5.579   0.235   4.432
 9785SOL     OW30253   1.041   2.332   1.334
 9785SOL    HW130254   1.079   2.271   1.265
 9785SOL    HW230255   1.078   2.424   1.321
 9786SOL     OW30256   2.315   6.938   4.227
 9786SOL    HW130257   2.287   0.001   4.172
 9786SOL    HW230258   2.235   6.893   4.265
 9787SOL     OW30259   5.538   4.338   1.387
 9787SOL    HW130260   5.455   4.392   1.398
 9787SOL    HW230261   5.617   4.399   1.384
 9788SOL     OW30262   6.685   0.542   6.065
 9788SOL    HW130263   6.762   0.548   6.127
 9788SOL    HW230264   6.714   0.496   5.980
 9789SOL     OW30265   1.531   4.735   4.809
 9789SOL    HW130266   1.498   4.812   4.755
 9789SOL    HW230267   1.579   4.769   4.890
 9790SOL     OW30268   6.961   1.153   3.712
 9790SOL    HW130269   6.980   1.156   3.614
 9790SOL    HW230270   6.960   1.058   3.744
 9791SOL     OW30271   1.474   2.644   1.098
 9791SOL    HW130272   1.444   2.630   1.193
 9791SOL    HW230273   1.466   2.557   1.048
 9792SOL     OW30274   3.640   5.719   2.144
 9792SOL    HW130275   3.575   5.724   2.221
 9792SOL    HW230276   3.677   5.810   2.125
 9793SOL     OW30277   5.334   6.436   2.463
 9793SOL    HW130278   5.382   6.459   2.548
 9793SOL    HW230279   5.237   6.456   2.473
 9794SOL     OW30280   3.627   3.151   6.998
 9794SOL    HW130281   3.553   3.217   6.988
 9794SOL    HW230282   3.644   3.135   0.080
 9795SOL     OW30283   1.781   5.025   2.963
 9795SOL    HW130284   1.808   5.121   2.961
 9795SOL    HW230285   1.824   4.976   2.887
 9796SOL     OW30286   3.591   5.283   6.653
 9796SOL    HW130287   3.496   5.311   6.638
 9796SOL    HW230288   3.612   5.204   6.596
 9797SOL     OW30289   5.786   3.101   5.460
 9797SOL    HW130290   5.845   3.027   5.427
 9797SOL    HW230291   5.718   3.064   5.522
 9798SOL     OW30292   2.581   1.598   1.792
 9798SOL    HW130293   2.679   1.617   1.786
 9798SOL    HW230294   2.536   1.622   1.706
 9799SOL     OW30295   3.809   3.775   2.864
 9799SOL    HW130296   3.834   3.871   2.860
 9799SOL    HW230297   3.890   3.718   2.852
 9800SOL     OW30298   4.059   5.844   0.312
 9800SOL    HW130299   4.122   5.892   0.251
 9800SOL    HW230300   3.966   5.854   0.277
 9801SOL     OW30301   5.232   5.065   1.286
 9801SOL    HW130302   5.172   5.085   1.208
 9801SOL    HW230303   5.327   5.078   1.260
 9802SOL     OW30304   0.887   5.696   2.113
 9802SOL    HW130305   0.936   5.660   2.034
 9802SOL    HW230306   0.845   5.783   2.088
 9803SOL     OW30307   5.263   6.822   6.516
 9803SOL    HW130308   5.217   6.738   6.487
 9803SOL    HW230309   5.204   6.872   6.579
 9804SOL     OW30310   4.959   5.079   5.049
 9804SOL    HW130311   5.033   5.017   5.078
 9804SOL    HW230312   4.907   5.035   4.976
 9805SOL     OW30313   3.630   3.796   0.925
 9805SOL    HW130314   3.634   3.833   1.019
 9805SOL    HW230315   3.692   3.849   0.867
 9806SOL     OW30316   6.925   1.683   2.404
 9806SOL    HW130317   6.857   1.649   2.469
 9806SOL    HW230318   6.894   1.770   2.366
 9807SOL     OW30319   2.150   3.127   1.080
 9807SOL    HW130320   2.073   3.096   1.024
 9807SOL    HW230321   2.235   3.117   1.029
 9808SOL     OW30322   2.056   1.850   3.821
 9808SOL    HW130323   2.010   1.890   3.742
 9808SOL    HW230324   2.042   1.910   3.900
 9809SOL     OW30325   0.719   0.873   4.148
 9809SOL    HW130326   0.663   0.949   4.114
 9809SOL    HW230327   0.669   0.825   4.221
 9810SOL     OW30328   4.335   1.804   2.626
 9810SOL    HW130329   4.370   1.869   2.694
 9810SOL    HW230330   4.407   1.785   2.559
 9811SOL     OW30331   1.323   0.639   3.378
 9811SOL    HW130332   1.394   0.699   3.416
 9811SOL    HW230333   1.329   0.549   3.421
 9812SOL     OW30334   5.776   3.372   6.101
 9812SOL    HW130335   5.790   3.273   6.105
 9812SOL    HW230336   5.864   3.418   6.091
 9813SOL     OW30337   6.490   4.510   0.539
 9813SOL    HW130338   6.421   4.543   0.604
 9813SOL    HW230339   6.486   4.410   0.534
 9814SOL     OW30340   6.334   0.728   5.736
 9814SOL    HW130341   6.330   0.800   5.666
 9814SOL    HW230342   6.421   0.734   5.784
 9815SOL     OW30343   0.094   4.706   2.123
 9815SOL    HW130344   0.101   4.627   2.062
 9815SOL    HW230345   0.012   4.758   2.101
 9816SOL     OW30346   6.497   1.644   5.277
 9816SOL    HW130347   6.512   1.712   5.205
 9816SOL    HW230348   6.585   1.602   5.302
 9817SOL     OW30349   2.421   1.016   0.826
 9817SOL    HW130350   2.506   1.049   0.785
 9817SOL    HW230351   2.441   0.937   0.884
 9818SOL     OW30352   0.593   0.217   2.143
 9818SOL    HW130353   0.584   0.241   2.046
 9818SOL    HW230354   0.514   0.254   2.193
 9819SOL     OW30355   5.940   1.711   4.335
 9819SOL    HW130356   5.895   1.628   4.303
 9819SOL    HW230357   5.872   1.776   4.369
 9820SOL     OW30358   3.757   0.755   6.950
 9820SOL    HW130359   3.748   0.802   6.863
 9820SOL    HW230360   3.709   0.807   0.006
 9821SOL     OW30361   4.637   3.660   0.099
 9821SOL    HW130362   4.582   3.610   0.032
 9821SOL    HW230363   4.713   3.603   0.131
 9822SOL     OW30364   3.159   5.178   4.089
 9822SOL    HW130365   3.132   5.158   4.183
 9822SOL    HW230366   3.087   5.233   4.045
 9823SOL     OW30367   4.828   6.359   3.034
 9823SOL    HW130368   4.870   6.369   3.125
 9823SOL    HW230369   4.783   6.444   3.009
 9824SOL     OW30370   1.174   5.840   5.690
 9824SOL    HW130371   1.229   5.766   5.649
 9824SOL    HW230372   1.098   5.863   5.630
 9825SOL     OW30373   1.063   6.408   4.767
 9825SOL    HW130374   1.007   6.436   4.844
 9825SOL    HW230375   1.012   6.343   4.710
 9826SOL     OW30376   2.107   5.810   6.268
 9826SOL    HW130377   2.199   5.777   6.289
 9826SOL    HW230378   2.055   5.818   6.353
 9827SOL     OW30379   2.193   5.156   1.738
 9827SOL    HW130380   2.171   5.070   1.692
 9827SOL    HW230381   2.171   5.233   1.677
 9828SOL     OW30382   4.415   2.021   4.102
 9828SOL    HW130383   4.356   1.983   4.174
 9828SOL    HW230384   4.358   2.056   4.028
 9829SOL     OW30385   5.378   4.834   5.960
 9829SOL    HW130386   5.420   4.849   6.050
 9829SOL    HW230387   5.432   4.767   5.909
 9830SOL     OW30388   6.455   1.053   2.949
 9830SOL    HW130389   6.538   1.023   2.901
 9830SOL    HW230390   6.433   1.146   2.920
 9831SOL     OW30391   0.778   5.024   1.654
 9831SOL    HW130392   0.819   5.026   1.563
 9831SOL    HW230393   0.850   5.022   1.723
 9832SOL     OW30394   4.760   6.381   5.202
 9832SOL    HW130395   4.754   6.324   5.120
 9832SOL    HW230396   4.812   6.333   5.272
 9833SOL     OW30397   4.029   3.203   4.616
 9833SOL    HW130398   4.002   3.165   4.527
 9833SOL    HW230399   4.080   3.135   4.667
 9834SOL     OW30400   3.617   5.973   6.068
 9834SOL    HW130401   3.549   5.942   6.134
 9834SOL    HW230402   3.572   5.999   5.983
 9835SOL     OW30403   3.806   3.634   3.660
 9835SOL    HW130404   3.898   3.608   3.631
 9835SOL    HW230405   3.796   3.614   3.758
 9836SOL     OW30406   6.123   2.905   5.742
 9836SOL    HW130407   6.144   2.841   5.668
 9836SOL    HW230408   6.096   2.855   5.824
 9837SOL     OW30409   6.892   0.633   3.762
 9837SOL    HW130410   6.869   0.560   3.826
 9837SOL    HW230411   6.926   0.712   3.813
 9838SOL     OW30412   0.344   5.972   0.941
 9838SOL    HW130413   0.277   5.923   0.997
 9838SOL    HW230414   0.338   6.070   0.959
 9839SOL     OW30415   3.847   6.524   3.444
 9839SOL    HW130416   3.873   6.552   3.351
 9839SOL    HW230417   3.907   6.449   3.474
 9840SOL     OW30418   6.376   2.166   6.538
 9840SOL    HW130419   6.357   2.068   6.542
 9840SOL    HW230420   6.337   2.211   6.618
 9841SOL     OW30421   0.288   5.746   2.292
 9841SOL    HW130422   0.301   5.683   2.216
 9841SOL    HW230423   0.217   5.711   2.353
 9842SOL     OW30424   3.871   0.234   0.457
 9842SOL    HW130425   3.946   0.291   0.424
 9842SOL    HW230426   3.907   0.165   0.521
 9843SOL     OW30427   0.471   6.906   0.368
 9843SOL    HW130428   0.569   6.914   0.383
 9843SOL    HW230429   0.423   6.906   0.455
 9844SOL     OW30430   4.795   0.680   4.859
 9844SOL    HW130431   4.798   0.722   4.768
 9844SOL    HW230432   4.837   0.590   4.855
 9845SOL     OW30433   0.928   3.409   2.185
 9845SOL    HW130434   0.917   3.310   2.173
 9845SOL    HW230435   1.014   3.427   2.233
 9846SOL     OW30436   5.545   2.016   2.081
 9846SOL    HW130437   5.612   2.062   2.140
 9846SOL    HW230438   5.454   2.023   2.122
 9847SOL     OW30439   3.819   4.307   6.897
 9847SOL    HW130440   3.902   4.335   6.850
 9847SOL    HW230441   3.821   4.342   6.991
 9848SOL     OW30442   2.599   4.050   5.633
 9848SOL    HW130443   2.603   4.145   5.603
 9848SOL    HW230444   2.638   3.991   5.562
 9849SOL     OW30445   1.771   2.039   2.737
 9849SOL    HW130446   1.795   2.053   2.641
 9849SOL    HW230447   1.676   2.008   2.743
 9850SOL     OW30448   1.820   0.087   4.168
 9850SOL    HW130449   1.759   0.123   4.096
 9850SOL    HW230450   1.794   0.127   4.256
 9851SOL     OW30451   3.791   5.206   3.376
 9851SOL    HW130452   3.748   5.191   3.287
 9851SOL    HW230453   3.882   5.245   3.363
 9852SOL     OW30454   2.680   0.158   0.634
 9852SOL    HW130455   2.636   0.104   0.705
 9852SOL    HW230456   2.779   0.157   0.647
 9853SOL     OW30457   0.092   4.129   3.781
 9853SOL    HW130458   0.122   4.176   3.864
 9853SOL    HW230459   0.032   4.053   3.806
 9854SOL     OW30460   6.367   3.890   6.750
 9854SOL    HW130461   6.429   3.947   6.803
 9854SOL    HW230462   6.404   3.878   6.657
 9855SOL     OW30463   1.292   5.790   0.684
 9855SOL    HW130464   1.206   5.824   0.722
 9855SOL    HW230465   1.342   5.866   0.642
 9856SOL     OW30466   5.129   4.283   3.366
 9856SOL    HW130467   5.191   4.306   3.291
 9856SOL    HW230468   5.141   4.347   3.441
 9857SOL     OW30469   5.280   0.388   6.110
 9857SOL    HW130470   5.281   0.300   6.156
 9857SOL    HW230471   5.374   0.416   6.089
 9858SOL     OW30472   0.069   5.239   2.546
 9858SOL    HW130473   0.140   5.282   2.601
 9858SOL    HW230474   0.026   5.308   2.487
 9859SOL     OW30475   0.688   5.066   2.292
 9859SOL    HW130476   0.730   5.107   2.211
 9859SOL    HW230477   0.663   5.139   2.356
 9860SOL     OW30478   1.731   3.436   3.659
 9860SOL    HW130479   1.650   3.494   3.669
 9860SOL    HW230480   1.712   3.345   3.696
 9861SOL     OW30481   3.588   2.136   4.246
 9861SOL    HW130482   3.613   2.067   4.314
 9861SOL    HW230483   3.666   2.196   4.230
 9862SOL     OW30484   1.923   2.838   6.648
 9862SOL    HW130485   1.833   2.831   6.691
 9862SOL    HW230486   1.967   2.922   6.678
 9863SOL     OW30487   3.660   6.068   1.743
 9863SOL    HW130488   3.721   6.147   1.740
 9863SOL    HW230489   3.568   6.095   1.714
 9864SOL     OW30490   3.085   5.954   5.229
 9864SOL    HW130491   3.045   6.011   5.158
 9864SOL    HW230492   3.183   5.973   5.236
 9865SOL     OW30493   2.317   6.408   6.032
 9865SOL    HW130494   2.339   6.400   6.129
 9865SOL    HW230495   2.383   6.355   5.978
 9866SOL     OW30496   6.893   5.425   6.030
 9866SOL    HW130497   6.916   5.502   5.970
 9866SOL    HW230498   6.975   5.395   6.079
 9867SOL     OW30499   4.665   1.071   2.489
 9867SOL    HW130500   4.692   1.076   2.585
 9867SOL    HW230501   4.565   1.064   2.483
 9868SOL     OW30502   2.386   4.364   3.004
 9868SOL    HW130503   2.413   4.450   2.962
 9868SOL    HW230504   2.299   4.377   3.053
 9869SOL     OW30505   5.851   2.331   3.114
 9869SOL    HW130506   5.929   2.319   3.052
 9869SOL    HW230507   5.772   2.283   3.077
 9870SOL     OW30508   1.941   2.798   2.924
 9870SOL    HW130509   2.019   2.769   2.979
 9870SOL    HW230510   1.969   2.870   2.861
 9871SOL     OW30511   5.552   5.493   3.174
 9871SOL    HW130512   5.499   5.544   3.107
 9871SOL    HW230513   5.639   5.539   3.190
 9872SOL     OW30514   0.906   6.458   5.175
 9872SOL    HW130515   0.957   6.480   5.092
 9872SOL    HW230516   0.969   6.423   5.244
 9873SOL     OW30517   0.410   0.411   4.956
 9873SOL    HW130518   0.451   0.496   4.923
 9873SOL    HW230519   0.313   0.425   4.973
 9874SOL     OW30520   6.620   1.748   3.793
 9874SOL    HW130521   6.543   1.725   3.852
 9874SOL    HW230522   6.699   1.774   3.848
 9875SOL     OW30523   6.409   6.004   0.926
 9875SOL    HW130524   6.381   6.080   0.867
 9875SOL    HW230525   6.339   5.932   0.923
 9876SOL     OW30526   0.413   0.090   3.438
 9876SOL    HW130527   0.490   0.095   3.374
 9876SOL    HW230528   0.440   0.039   3.519
 9877SOL     OW30529   1.520   5.857   4.979
 9877SOL    HW130530   1.538   5.759   4.978
 9877SOL    HW230531   1.549   5.896   5.066
 9878SOL     OW30532   4.419   3.251   0.036
 9878SOL    HW130533   4.390   3.321   0.101
 9878SOL    HW230534   4.341   3.193   0.013
 9879SOL     OW30535   5.187   5.331   4.558
 9879SOL    HW130536   5.160   5.262   4.491
 9879SOL    HW230537   5.108   5.357   4.613
 9880SOL     OW30538   2.730   1.392   0.924
 9880SOL    HW130539   2.792   1.430   0.992
 9880SOL    HW230540   2.783   1.346   0.853
 9881SOL     OW30541   6.965   6.892   2.982
 9881SOL    HW130542   6.982   6.850   3.071
 9881SOL    HW230543   6.996   6.831   2.909
 9882SOL     OW30544   3.198   3.772   4.423
 9882SOL    HW130545   3.171   3.686   4.467
 9882SOL    HW230546   3.182   3.764   4.324
 9883SOL     OW30547   1.811   6.159   2.651
 9883SOL    HW130548   1.882   6.116   2.595
 9883SOL    HW230549   1.804   6.255   2.627
 9884SOL     OW30550   3.229   2.577   5.317
 9884SOL    HW130551   3.286   2.581   5.399
 9884SOL    HW230552   3.201   2.482   5.301
 9885SOL     OW30553   5.104   2.201   5.209
 9885SOL    HW130554   5.182   2.146   5.178
 9885SOL    HW230555   5.119   2.228   5.304
 9886SOL     OW30556   2.644   6.396   1.461
 9886SOL    HW130557   2.700   6.376   1.381
 9886SOL    HW230558   2.652   6.493   1.484
 9887SOL     OW30559   3.896   1.056   0.321
 9887SOL    HW130560   3.920   1.101   0.407
 9887SOL    HW230561   3.864   0.963   0.339
 9888SOL     OW30562   6.316   6.717   4.341
 9888SOL    HW130563   6.235   6.663   4.363
 9888SOL    HW230564   6.353   6.759   4.424
 9889SOL     OW30565   6.542   5.966   2.107
 9889SOL    HW130566   6.510   5.940   2.016
 9889SOL    HW230567   6.637   5.997   2.102
 9890SOL     OW30568   1.661   2.787   2.945
 9890SOL    HW130569   1.608   2.742   3.016
 9890SOL    HW230570   1.758   2.764   2.954
 9891SOL     OW30571   3.937   6.645   1.879
 9891SOL    HW130572   3.982   6.724   1.837
 9891SOL    HW230573   4.000   6.568   1.882
 9892SOL     OW30574   2.133   6.034   3.216
 9892SOL    HW130575   2.145   6.120   3.167
 9892SOL    HW230576   2.037   6.025   3.245
 9893SOL     OW30577   5.940   4.825   5.200
 9893SOL    HW130578   5.890   4.741   5.180
 9893SOL    HW230579   5.886   4.883   5.261
 9894SOL     OW30580   4.173   3.876   5.929
 9894SOL    HW130581   4.144   3.813   6.002
 9894SOL    HW230582   4.095   3.898   5.872
 9895SOL     OW30583   5.153   1.983   5.432
 9895SOL    HW130584   5.113   1.953   5.345
 9895SOL    HW230585   5.253   1.985   5.424
 9896SOL     OW30586   4.187   4.013   0.435
 9896SOL    HW130587   4.200   3.916   0.456
 9896SOL    HW230588   4.095   4.026   0.397
 9897SOL     OW30589   1.301   1.378   2.507
 9897SOL    HW130590   1.228   1.446   2.514
 9897SOL    HW230591   1.387   1.419   2.536
 9898SOL     OW30592   0.553   5.658   0.101
 9898SOL    HW130593   0.463   5.646   0.058
 9898SOL    HW230594   0.578   5.573   0.149
 9899SOL     OW30595   4.345   5.651   1.385
 9899SOL    HW130596   4.441   5.633   1.408
 9899SOL    HW230597   4.318   5.591   1.309
 9900SOL     OW30598   2.025   5.176   3.402
 9900SOL    HW130599   2.112   5.156   3.356
 9900SOL    HW230600   1.959   5.207   3.334
 9901SOL     OW30601   3.167   1.659   6.058
 9901SOL    HW130602   3.178   1.733   5.991
 9901SOL    HW230603   3.156   1.572   6.010
 9902SOL     OW30604   3.943   4.069   0.301
 9902SOL    HW130605   3.951   4.006   0.224
 9902SOL    HW230606   3.893   4.151   0.272
 9903SOL     OW30607   2.414   0.955   1.263
 9903SOL    HW130608   2.369   0.867   1.247
 9903SOL    HW230609   2.510   0.948   1.235
 9904SOL     OW30610   6.631   6.389   2.153
 9904SOL    HW130611   6.597   6.478   2.184
 9904SOL    HW230612   6.554   6.334   2.121
 9905SOL     OW30613   2.470   0.035   0.002
 9905SOL    HW130614   2.407   0.014   0.077
 9905SOL    HW230615   2.468   6.976   6.951
 9906SOL     OW30616   3.679   3.957   5.846
 9906SOL    HW130617   3.725   3.872   5.820
 9906SOL    HW230618   3.580   3.948   5.833
 9907SOL     OW30619   0.933   6.452   2.668
 9907SOL    HW130620   0.931   6.403   2.755
 9907SOL    HW230621   1.014   6.511   2.666
 9908SOL     OW30622   6.693   2.965   4.619
 9908SOL    HW130623   6.721   2.984   4.713
 9908SOL    HW230624   6.613   3.021   4.595
 9909SOL     OW30625   2.686   5.985   3.107
 9909SOL    HW130626   2.590   5.978   3.079
 9909SOL    HW230627   2.693   5.972   3.206
 9910SOL     OW30628   0.657   5.545   0.839
 9910SOL    HW130629   0.602   5.602   0.779
 9910SOL    HW230630   0.662   5.587   0.930
 9911SOL     OW30631   3.939   5.061   2.795
 9911SOL    HW130632   3.901   5.151   2.775
 9911SOL    HW230633   3.930   5.002   2.715
 9912SOL     OW30634   5.855   6.638   6.792
 9912SOL    HW130635   5.805   6.703   6.849
 9912SOL    HW230636   5.950   6.669   6.782
 9913SOL     OW30637   5.496   1.733   3.174
 9913SOL    HW130638   5.428   1.802   3.150
 9913SOL    HW230639   5.535   1.693   3.091
 9914SOL     OW30640   1.789   5.115   4.056
 9914SOL    HW130641   1.711   5.169   4.026
 9914SOL    HW230642   1.868   5.136   3.999
 9915SOL     OW30643   6.093   4.909   4.396
 9915SOL    HW130644   6.040   4.897   4.313
 9915SOL    HW230645   6.058   4.987   4.448
 9916SOL     OW30646   1.807   3.192   0.363
 9916SOL    HW130647   1.902   3.161   0.348
 9916SOL    HW230648   1.791   3.201   0.461
 9917SOL     OW30649   1.682   3.635   4.648
 9917SOL    HW130650   1.618   3.627   4.572
 9917SOL    HW230651   1.741   3.555   4.651
 9918SOL     OW30652   1.844   1.753   4.743
 9918SOL    HW130653   1.805   1.843   4.727
 9918SOL    HW230654   1.940   1.752   4.713
 9919SOL     OW30655   0.781   5.668   1.108
 9919SOL    HW130656   0.862   5.623   1.070
 9919SOL    HW230657   0.793   5.767   1.101
 9920SOL     OW30658   3.069   0.534   3.061
 9920SOL    HW130659   3.085   0.525   3.160
 9920SOL    HW230660   3.133   0.601   3.024
 9921SOL     OW30661   5.012   0.919   2.180
 9921SOL    HW130662   4.987   0.861   2.103
 9921SOL    HW230663   4.952   0.898   2.258
 9922SOL     OW30664   5.960   3.062   2.071
 9922SOL    HW130665   6.002   3.069   2.161
 9922SOL    HW230666   5.882   2.999   2.075
 9923SOL     OW30667   5.657   0.098   6.371
 9923SOL    HW130668   5.623   0.007   6.398
 9923SOL    HW230669   5.732   0.087   6.306
 9924SOL     OW30670   5.478   0.495   3.631
 9924SOL    HW130671   5.476   0.399   3.604
 9924SOL    HW230672   5.546   0.544   3.575
 9925SOL     OW30673   4.017   2.150   4.970
 9925SOL    HW130674   4.056   2.234   4.932
 9925SOL    HW230675   3.966   2.172   5.053
 9926SOL     OW30676   2.239   0.771   5.617
 9926SOL    HW130677   2.140   0.787   5.619
 9926SOL    HW230678   2.287   0.858   5.610
 9927SOL     OW30679   1.491   3.579   3.671
 9927SOL    HW130680   1.401   3.535   3.675
 9927SOL    HW230681   1.508   3.629   3.756
 9928SOL     OW30682   6.844   2.875   2.166
 9928SOL    HW130683   6.795   2.917   2.242
 9928SOL    HW230684   6.936   2.914   2.160
 9929SOL     OW30685   0.849   5.131   4.858
 9929SOL    HW130686   0.916   5.153   4.788
 9929SOL    HW230687   0.758   5.125   4.816
 9930SOL     OW30688   0.140   5.351   6.334
 9930SOL    HW130689   0.214   5.415   6.316
 9930SOL    HW230690   0.122   5.297   6.252
 9931SOL     OW30691   2.000   4.124   0.033
 9931SOL    HW130692   2.085   4.114   6.996
 9931SOL    HW230693   1.935   4.179   6.996
 9932SOL     OW30694   2.140   2.082   1.238
 9932SOL    HW130695   2.206   2.046   1.304
 9932SOL    HW230696   2.157   2.040   1.148
 9933SOL     OW30697   1.043   1.196   3.690
 9933SOL    HW130698   1.088   1.136   3.624
 9933SOL    HW230699   1.029   1.287   3.650
 9934SOL     OW30700   5.091   0.540   6.214
 9934SOL    HW130701   5.058   0.489   6.294
 9934SOL    HW230702   5.166   0.488   6.171
 9935SOL     OW30703   2.776   3.180   0.205
 9935SOL    HW130704   2.677   3.174   0.209
 9935SOL    HW230705   2.807   3.263   0.251
 9936SOL     OW30706   4.582   5.926   6.983
 9936SOL    HW130707   4.551   5.986   6.909
 9936SOL    HW230708   4.649   5.861   6.947
 9937SOL     OW30709   1.497   6.741   4.409
 9937SOL    HW130710   1.537   6.675   4.346
 9937SOL    HW230711   1.398   6.744   4.397
 9938SOL     OW30712   0.439   1.610   3.018
 9938SOL    HW130713   0.450   1.518   3.057
 9938SOL    HW230714   0.406   1.602   2.924
 9939SOL     OW30715   2.899   3.747   1.192
 9939SOL    HW130716   2.968   3.716   1.126
 9939SOL    HW230717   2.914   3.844   1.212
 9940SOL     OW30718   0.519   0.944   3.104
 9940SOL    HW130719   0.495   1.001   3.182
 9940SOL    HW230720   0.568   0.863   3.136
 9941SOL     OW30721   6.143   3.355   0.351
 9941SOL    HW130722   6.097   3.354   0.262
 9941SOL    HW230723   6.129   3.444   0.394
 9942SOL     OW30724   5.972   5.648   2.740
 9942SOL    HW130725   6.020   5.728   2.778
 9942SOL    HW230726   6.039   5.586   2.699
 9943SOL     OW30727   0.935   4.833   4.850
 9943SOL    HW130728   0.870   4.782   4.906
 9943SOL    HW230729   0.888   4.910   4.808
 9944SOL     OW30730   2.511   5.862   6.490
 9944SOL    HW130731   2.526   5.804   6.570
 9944SOL    HW230732   2.590   5.923   6.478
 9945SOL     OW30733   6.339   3.073   5.837
 9945SOL    HW130734   6.316   3.165   5.804
 9945SOL    HW230735   6.294   3.005   5.780
 9946SOL     OW30736   5.798   2.216   1.176
 9946SOL    HW130737   5.870   2.235   1.242
 9946SOL    HW230738   5.814   2.126   1.134
 9947SOL     OW30739   0.583   0.281   3.161
 9947SOL    HW130740   0.677   0.301   3.134
 9947SOL    HW230741   0.539   0.365   3.192
 9948SOL     OW30742   5.300   0.681   5.491
 9948SOL    HW130743   5.237   0.635   5.429
 9948SOL    HW230744   5.360   0.742   5.438
 9949SOL     OW30745   6.757   3.128   2.722
 9949SOL    HW130746   6.682   3.147   2.785
 9949SOL    HW230747   6.773   3.208   2.664
 9950SOL     OW30748   5.118   5.029   6.421
 9950SOL    HW130749   5.119   5.123   6.455
 9950SOL    HW230750   5.203   4.984   6.447
 9951SOL     OW30751   0.068   2.249   2.381
 9951SOL    HW130752   7.009   2.262   2.315
 9951SOL    HW230753   0.035   2.271   2.473
 9952SOL     OW30754   1.475   4.901   1.887
 9952SOL    HW130755   1.433   4.897   1.796
 9952SOL    HW230756   1.434   4.976   1.939
 9953SOL     OW30757   5.810   4.871   4.877
 9953SOL    HW130758   5.906   4.860   4.900
 9953SOL    HW230759   5.777   4.788   4.832
 9954SOL     OW30760   4.374   1.698   1.628
 9954SOL    HW130761   4.468   1.663   1.637
 9954SOL    HW230762   4.337   1.716   1.719
 9955SOL     OW30763   6.368   5.118   1.570
 9955SOL    HW130764   6.312   5.193   1.603
 9955SOL    HW230765   6.462   5.149   1.557
 9956SOL     OW30766   1.670   3.981   3.200
 9956SOL    HW130767   1.631   4.018   3.284
 9956SOL    HW230768   1.683   3.883   3.209
 9957SOL     OW30769   5.772   6.843   6.956
 9957SOL    HW130770   5.817   6.775   7.015
 9957SOL    HW230771   5.715   6.903   7.012
 9958SOL     OW30772   6.691   5.902   5.552
 9958SOL    HW130773   6.686   5.808   5.587
 9958SOL    HW230774   6.604   5.948   5.571
 9959SOL     OW30775   6.114   5.527   6.685
 9959SOL    HW130776   6.134   5.486   6.775
 9959SOL    HW230777   6.180   5.493   6.618
 9960SOL     OW30778   6.740   0.134   6.152
 9960SOL    HW130779   6.708   0.059   6.210
 9960SOL    HW230780   6.677   0.146   6.076
 9961SOL     OW30781   3.411   6.338   0.440
 9961SOL    HW130782   3.330   6.371   0.488
 9961SOL    HW230783   3.491   6.391   0.470
 9962SOL     OW30784   3.490   0.531   1.400
 9962SOL    HW130785   3.544   0.585   1.336
 9962SOL    HW230786   3.442   0.593   1.463
 9963SOL     OW30787   1.242   7.004   6.618
 9963SOL    HW130788   1.234   0.087   6.632
 9963SOL    HW230789   1.338   6.979   6.610
 9964SOL     OW30790   4.488   5.284   5.578
 9964SOL    HW130791   4.514   5.207   5.636
 9964SOL    HW230792   4.407   5.260   5.524
 9965SOL     OW30793   1.803   5.366   4.491
 9965SOL    HW130794   1.855   5.427   4.432
 9965SOL    HW230795   1.824   5.271   4.467
 9966SOL     OW30796   2.384   5.146   1.945
 9966SOL    HW130797   2.340   5.097   2.021
 9966SOL    HW230798   2.315   5.172   1.878
 9967SOL     OW30799   0.064   0.696   2.397
 9967SOL    HW130800   0.118   0.749   2.462
 9967SOL    HW230801   6.982   0.708   2.416
 9968SOL     OW30802   4.859   6.053   0.494
 9968SOL    HW130803   4.938   6.098   0.453
 9968SOL    HW230804   4.839   6.094   0.583
 9969SOL     OW30805   0.485   6.187   3.148
 9969SOL    HW130806   0.398   6.214   3.188
 9969SOL    HW230807   0.477   6.094   3.111
 9970SOL     OW30808   6.833   3.276   1.588
 9970SOL    HW130809   6.851   3.182   1.615
 9970SOL    HW230810   6.894   3.338   1.639
 9971SOL     OW30811   6.669   5.144   5.808
 9971SOL    HW130812   6.746   5.164   5.869
 9971SOL    HW230813   6.593   5.206   5.830
 9972SOL     OW30814   2.886   4.574   5.622
 9972SOL    HW130815   2.973   4.620   5.636
 9972SOL    HW230816   2.852   4.594   5.530
 9973SOL     OW30817   2.745   2.381   3.013
 9973SOL    HW130818   2.788   2.354   2.927
 9973SOL    HW230819   2.653   2.415   2.995
 9974SOL     OW30820   1.036   2.889   3.194
 9974SOL    HW130821   1.105   2.936   3.249
 9974SOL    HW230822   1.046   2.915   3.098
 9975SOL     OW30823   1.152   4.383   0.265
 9975SOL    HW130824   1.075   4.398   0.327
 9975SOL    HW230825   1.222   4.453   0.281
 9976SOL     OW30826   4.383   6.069   5.202
 9976SOL    HW130827   4.381   5.973   5.173
 9976SOL    HW230828   4.447   6.080   5.278
 9977SOL     OW30829   4.566   0.215   5.467
 9977SOL    HW130830   4.510   0.152   5.413
 9977SOL    HW230831   4.661   0.211   5.435
 9978SOL     OW30832   6.689   2.632   0.435
 9978SOL    HW130833   6.766   2.668   0.487
 9978SOL    HW230834   6.608   2.630   0.494
 9979SOL     OW30835   3.937   3.923   3.602
 9979SOL    HW130836   3.958   3.878   3.515
 9979SOL    HW230837   3.993   3.883   3.675
 9980SOL     OW30838   0.228   0.021   6.777
 9980SOL    HW130839   0.167   0.095   6.805
 9980SOL    HW230840   0.312   0.026   6.830
 9981SOL     OW30841   5.618   1.366   1.036
 9981SOL    HW130842   5.690   1.316   0.988
 9981SOL    HW230843   5.582   1.310   1.111
 9982SOL     OW30844   2.636   2.312   5.356
 9982SOL    HW130845   2.651   2.258   5.438
 9982SOL    HW230846   2.720   2.316   5.302
 9983SOL     OW30847   0.187   2.989   2.390
 9983SOL    HW130848   0.199   2.912   2.452
 9983SOL    HW230849   0.089   3.005   2.376
 9984SOL     OW30850   0.840   4.296   1.238
 9984SOL    HW130851   0.880   4.291   1.329
 9984SOL    HW230852   0.868   4.216   1.185
 9985SOL     OW30853   4.659   4.126   6.314
 9985SOL    HW130854   4.733   4.189   6.291
 9985SOL    HW230855   4.633   4.073   6.233
 9986SOL     OW30856   5.786   4.428   6.587
 9986SOL    HW130857   5.868   4.409   6.641
 9986SOL    HW230858   5.754   4.343   6.544
 9987SOL     OW30859   4.926   2.536   0.879
 9987SOL    HW130860   4.870   2.463   0.917
 9987SOL    HW230861   4.962   2.508   0.789
 9988SOL     OW30862   5.759   6.398   3.573
 9988SOL    HW130863   5.805   6.315   3.542
 9988SOL    HW230864   5.767   6.406   3.672
 9989SOL     OW30865   5.865   5.810   1.847
 9989SOL    HW130866   5.848   5.877   1.920
 9989SOL    HW230867   5.843   5.719   1.880
 9990SOL     OW30868   0.433   5.743   2.854
 9990SOL    HW130869   0.435   5.659   2.908
 9990SOL    HW230870   0.372   5.731   2.776
 9991SOL     OW30871   2.009   3.502   1.813
 9991SOL    HW130872   1.935   3.480   1.876
 9991SOL    HW230873   2.096   3.498   1.861
 9992SOL     OW30874   2.027   4.788   0.271
 9992SOL    HW130875   1.978   4.771   0.185
 9992SOL    HW230876   2.112   4.736   0.271
 9993SOL     OW30877   3.450   6.943   4.353
 9993SOL    HW130878   3.467   6.857   4.401
 9993SOL    HW230879   3.366   6.985   4.389
 9994SOL     OW30880   5.594   4.992   5.355
 9994SOL    HW130881   5.525   4.922   5.337
 9994SOL    HW230882   5.607   5.002   5.454
 9995SOL     OW30883   4.448   1.299   6.289
 9995SOL    HW130884   4.425   1.324   6.195
 9995SOL    HW230885   4.384   1.343   6.352
 9996SOL     OW30886   2.425   4.607   0.901
 9996SOL    HW130887   2.492   4.545   0.941
 9996SOL    HW230888   2.464   4.699   0.893
 9997SOL     OW30889   6.206   0.487   2.771
 9997SOL    HW130890   6.125   0.484   2.713
 9997SOL    HW230891   6.187   0.542   2.852
 9998SOL     OW30892   5.147   3.623   2.279
 9998SOL    HW130893   5.058   3.614   2.235
 9998SOL    HW230894   5.202   3.542   2.261
 9999SOL     OW30895   0.708   6.747   5.183
 9999SOL    HW130896   0.654   6.712   5.259
 9999SOL    HW230897   0.759   6.672   5.141
10000SOL     OW30898   4.572   2.990   1.087
10000SOL    HW130899   4.496   3.010   1.150
10000SOL    HW230900   4.540   2.927   1.016
10001SOL     OW30901   3.810   6.474   1.399
10001SOL    HW130902   3.769   6.548   1.453
10001SOL    HW230903   3.907   6.493   1.383
10002SOL     OW30904   1.808   6.420   2.546
10002SOL    HW130905   1.753   6.503   2.562
10002SOL    HW230906   1.905   6.443   2.546
10003SOL     OW30907   0.630   1.096   2.568
10003SOL    HW130908   0.659   1.191   2.581
10003SOL    HW230909   0.533   1.094   2.541
10004SOL     OW30910   0.201   2.971   3.181
10004SOL    HW130911   0.232   3.046   3.122
10004SOL    HW230912   0.244   2.979   3.270
10005SOL     OW30913   2.198   5.815   2.686
10005SOL    HW130914   2.229   5.790   2.594
10005SOL    HW230915   2.243   5.900   2.714
10006SOL     OW30916   5.419   2.109   5.748
10006SOL    HW130917   5.445   2.191   5.698
10006SOL    HW230918   5.492   2.084   5.811
10007SOL     OW30919   1.364   5.041   3.673
10007SOL    HW130920   1.305   5.102   3.725
10007SOL    HW230921   1.309   4.995   3.603
10008SOL     OW30922   3.890   0.736   5.989
10008SOL    HW130923   3.875   0.727   6.087
10008SOL    HW230924   3.986   0.760   5.972
10009SOL     OW30925   1.297   5.094   2.003
10009SOL    HW130926   1.284   5.010   2.057
10009SOL    HW230927   1.210   5.141   1.994
10010SOL     OW30928   1.950   4.497   1.020
10010SOL    HW130929   1.959   4.566   0.948
10010SOL    HW230930   2.006   4.524   1.098
10011SOL     OW30931   3.322   4.031   0.523
10011SOL    HW130932   3.317   3.931   0.522
10011SOL    HW230933   3.360   4.063   0.436
10012SOL     OW30934   5.340   1.996   3.457
10012SOL    HW130935   5.340   1.979   3.555
10012SOL    HW230936   5.434   2.005   3.424
10013SOL     OW30937   0.685   6.428   5.311
10013SOL    HW130938   0.674   6.491   5.387
10013SOL    HW230939   0.770   6.449   5.263
10014SOL     OW30940   1.492   0.902   2.896
10014SOL    HW130941   1.515   0.942   2.807
10014SOL    HW230942   1.430   0.962   2.945
10015SOL     OW30943   4.372   0.164   6.753
10015SOL    HW130944   4.333   0.222   6.681
10015SOL    HW230945   4.324   0.076   6.754
10016SOL     OW30946   3.212   1.111   4.514
10016SOL    HW130947   3.212   1.209   4.533
10016SOL    HW230948   3.169   1.062   4.590
10017SOL     OW30949   2.865   1.207   2.693
10017SOL    HW130950   2.790   1.142   2.684
10017SOL    HW230951   2.893   1.213   2.789
10018SOL     OW30952   0.025   4.877   5.456
10018SOL    HW130953   0.098   4.846   5.394
10018SOL    HW230954   6.953   4.840   5.425
10019SOL     OW30955   6.748   1.708   2.771
10019SOL    HW130956   6.670   1.670   2.819
10019SOL    HW230957   6.740   1.689   2.673
10020SOL     OW30958   6.568   0.730   2.576
10020SOL    HW130959   6.543   0.827   2.585
10020SOL    HW230960   6.536   0.695   2.488
10021SOL     OW30961   1.431   3.218   1.743
10021SOL    HW130962   1.351   3.173   1.783
10021SOL    HW230963   1.433   3.201   1.645
10022SOL     OW30964   1.435   6.609   6.006
10022SOL    HW130965   1.528   6.586   6.035
10022SOL    HW230966   1.432   6.618   5.906
10023SOL     OW30967   0.908   1.875   5.600
10023SOL    HW130968   0.889   1.838   5.691
10023SOL    HW230969   0.982   1.822   5.558
10024SOL     OW30970   2.268   4.139   3.475
10024SOL    HW130971   2.331   4.214   3.497
10024SOL    HW230972   2.235   4.150   3.382
10025SOL     OW30973   0.511   2.831   0.858
10025SOL    HW130974   0.463   2.843   0.945
10025SOL    HW230975   0.608   2.812   0.876
10026SOL     OW30976   6.431   1.077   5.181
10026SOL    HW130977   6.487   1.157   5.158
10026SOL    HW230978   6.479   0.994   5.152
10027SOL     OW30979   3.565   1.166   5.740
10027SOL    HW130980   3.600   1.160   5.646
10027SOL    HW230981   3.516   1.081   5.762
10028SOL     OW30982   3.851   6.806   2.419
10028SOL    HW130983   3.892   6.820   2.509
10028SOL    HW230984   3.757   6.774   2.430
10029SOL     OW30985   6.518   4.753   4.063
10029SOL    HW130986   6.478   4.841   4.038
10029SOL    HW230987   6.614   4.767   4.090
10030SOL     OW30988   2.746   6.840   4.028
10030SOL    HW130989   2.676   6.770   4.040
10030SOL    HW230990   2.836   6.801   4.048
10031SOL     OW30991   1.884   6.376   4.013
10031SOL    HW130992   1.976   6.358   3.976
10031SOL    HW230993   1.878   6.341   4.106
10032SOL     OW30994   2.933   5.743   4.054
10032SOL    HW130995   2.887   5.755   3.966
10032SOL    HW230996   2.981   5.655   4.055
10033SOL     OW30997   2.786   1.261   4.822
10033SOL    HW130998   2.767   1.167   4.794
10033SOL    HW230999   2.878   1.266   4.863
10034SOL     OW31000   2.104   1.001   1.819
10034SOL    HW131001   2.203   1.001   1.807
10034SOL    HW231002   2.082   1.019   1.915
10035SOL     OW31003   0.191   3.323   2.261
10035SOL    HW131004   0.255   3.245   2.258
10035SOL    HW231005   0.123   3.308   2.333
10036SOL     OW31006   0.272   1.135   6.869
10036SOL    HW131007   0.290   1.045   6.829
10036SOL    HW231008   0.335   1.150   6.945
10037SOL     OW31009   6.207   0.559   6.107
10037SOL    HW131010   6.299   0.576   6.142
10037SOL    HW231011   6.159   0.496   6.170
10038SOL     OW31012   5.447   6.712   6.830
10038SOL    HW131013   5.405   6.631   6.789
10038SOL    HW231014   5.516   6.749   6.768
10039SOL     OW31015   0.273   5.388   1.946
10039SOL    HW131016   0.342   5.452   1.979
10039SOL    HW231017   0.220   5.352   2.023
10040SOL     OW31018   2.324   0.054   0.288
10040SOL    HW131019   2.243   0.066   0.230
10040SOL    HW231020   2.329   0.128   0.354
10041SOL     OW31021   5.326   5.268   5.165
10041SOL    HW131022   5.236   5.302   5.192
10041SOL    HW231023   5.316   5.210   5.084
10042SOL     OW31024   6.235   0.732   5.379
10042SOL    HW131025   6.194   0.642   5.387
10042SOL    HW231026   6.171   0.794   5.333
10043SOL     OW31027   0.671   0.557   2.871
10043SOL    HW131028   0.680   0.534   2.774
10043SOL    HW231029   0.715   0.486   2.926
10044SOL     OW31030   2.847   2.257   6.767
10044SOL    HW131031   2.827   2.351   6.797
10044SOL    HW231032   2.928   2.258   6.707
10045SOL     OW31033   4.195   6.858   4.090
10045SOL    HW131034   4.126   6.930   4.097
10045SOL    HW231035   4.154   6.770   4.109
10046SOL     OW31036   6.942   2.128   1.637
10046SOL    HW131037   7.012   2.161   1.574
10046SOL    HW231038   6.961   2.163   1.729
10047SOL     OW31039   1.525   2.700   3.190
10047SOL    HW131040   1.432   2.676   3.162
10047SOL    HW231041   1.582   2.618   3.189
10048SOL     OW31042   3.695   2.623   1.736
10048SOL    HW131043   3.618   2.672   1.777
10048SOL    HW231044   3.688   2.525   1.759
10049SOL     OW31045   1.797   5.777   4.611
10049SOL    HW131046   1.830   5.701   4.667
10049SOL    HW231047   1.701   5.760   4.586
10050SOL     OW31048   5.716   1.437   4.720
10050SOL    HW131049   5.701   1.511   4.655
10050SOL    HW231050   5.814   1.419   4.727
10051SOL     OW31051   6.370   2.082   0.761
10051SOL    HW131052   6.300   2.038   0.817
10051SOL    HW231053   6.420   2.149   0.817
10052SOL     OW31054   1.987   5.106   1.093
10052SOL    HW131055   2.081   5.098   1.058
10052SOL    HW231056   1.927   5.134   1.018
10053SOL     OW31057   3.006   6.174   3.370
10053SOL    HW131058   2.987   6.248   3.434
10053SOL    HW231059   3.037   6.213   3.283
10054SOL     OW31060   4.579   5.237   3.781
10054SOL    HW131061   4.566   5.331   3.814
10054SOL    HW231062   4.649   5.192   3.836
10055SOL     OW31063   5.452   2.773   6.947
10055SOL    HW131064   5.431   2.808   0.023
10055SOL    HW231065   5.500   2.844   6.895
10056SOL     OW31066   5.375   4.114   2.716
10056SOL    HW131067   5.293   4.130   2.771
10056SOL    HW231068   5.355   4.134   2.620
10057SOL     OW31069   2.449   2.727   3.305
10057SOL    HW131070   2.374   2.774   3.352
10057SOL    HW231071   2.449   2.752   3.209
10058SOL     OW31072   0.594   4.809   4.066
10058SOL    HW131073   0.586   4.709   4.059
10058SOL    HW231074   0.691   4.834   4.070
10059SOL     OW31075   5.130   6.908   1.537
10059SOL    HW131076   5.125   6.887   1.634
10059SOL    HW231077   5.139   7.007   1.525
10060SOL     OW31078   2.263   2.602   2.219
10060SOL    HW131079   2.306   2.524   2.264
10060SOL    HW231080   2.284   2.685   2.269
10061SOL     OW31081   6.118   1.847   5.422
10061SOL    HW131082   6.187   1.839   5.350
10061SOL    HW231083   6.106   1.943   5.446
10062SOL     OW31084   5.736   6.283   2.896
10062SOL    HW131085   5.670   6.328   2.956
10062SOL    HW231086   5.725   6.184   2.903
10063SOL     OW31087   1.019   2.459   2.098
10063SOL    HW131088   1.025   2.374   2.046
10063SOL    HW231089   1.109   2.500   2.107
10064SOL     OW31090   4.762   5.573   5.516
10064SOL    HW131091   4.676   5.526   5.534
10064SOL    HW231092   4.824   5.560   5.593
10065SOL     OW31093   0.689   6.848   2.757
10065SOL    HW131094   0.613   6.911   2.742
10065SOL    HW231095   0.751   6.887   2.825
10066SOL     OW31096   0.402   0.908   3.593
10066SOL    HW131097   0.459   0.842   3.545
10066SOL    HW231098   0.446   0.935   3.679
10067SOL     OW31099   4.672   6.807   3.693
10067SOL    HW131100   4.752   6.864   3.716
10067SOL    HW231101   4.621   6.786   3.776
10068SOL     OW31102   5.185   3.585   5.399
10068SOL    HW131103   5.151   3.502   5.355
10068SOL    HW231104   5.216   3.649   5.329
10069SOL     OW31105   5.313   1.508   4.095
10069SOL    HW131106   5.354   1.464   4.015
10069SOL    HW231107   5.217   1.527   4.077
10070SOL     OW31108   1.037   0.059   4.326
10070SOL    HW131109   0.999   0.151   4.318
10070SOL    HW231110   1.077   0.047   4.417
10071SOL     OW31111   5.173   4.878   5.542
10071SOL    HW131112   5.263   4.915   5.565
10071SOL    HW231113   5.102   4.944   5.566
10072SOL     OW31114   1.163   6.513   4.294
10072SOL    HW131115   1.067   6.539   4.284
10072SOL    HW231116   1.172   6.447   4.368
10073SOL     OW31117   6.934   5.797   6.492
10073SOL    HW131118   6.920   5.896   6.496
10073SOL    HW231119   6.888   5.760   6.411
10074SOL     OW31120   2.751   0.015   5.050
10074SOL    HW131121   2.679   6.966   5.025
10074SOL    HW231122   2.756   0.088   4.982
10075SOL     OW31123   1.563   2.511   4.302
10075SOL    HW131124   1.616   2.450   4.361
10075SOL    HW231125   1.521   2.458   4.229
10076SOL     OW31126   5.750   6.730   3.719
10076SOL    HW131127   5.687   6.715   3.643
10076SOL    HW231128   5.824   6.791   3.690
10077SOL     OW31129   2.938   1.483   6.818
10077SOL    HW131130   2.845   1.515   6.837
10077SOL    HW231131   3.004   1.542   6.862
10078SOL     OW31132   5.346   6.019   5.431
10078SOL    HW131133   5.261   6.029   5.483
10078SOL    HW231134   5.349   6.087   5.357
10079SOL     OW31135   0.027   2.501   6.210
10079SOL    HW131136   0.041   2.405   6.184
10079SOL    HW231137   6.972   2.541   6.152
10080SOL     OW31138   0.862   2.680   5.420
10080SOL    HW131139   0.926   2.604   5.428
10080SOL    HW231140   0.793   2.674   5.493
10081SOL     OW31141   0.231   1.382   0.228
10081SOL    HW131142   0.187   1.387   0.138
10081SOL    HW231143   0.320   1.426   0.224
10082SOL     OW31144   6.909   0.520   0.744
10082SOL    HW131145   6.871   0.474   0.824
10082SOL    HW231146   6.965   0.455   0.692
10083SOL     OW31147   5.704   1.468   4.058
10083SOL    HW131148   5.680   1.375   4.029
10083SOL    HW231149   5.665   1.533   3.993
10084SOL     OW31150   2.522   0.798   6.600
10084SOL    HW131151   2.487   0.890   6.583
10084SOL    HW231152   2.616   0.791   6.567
10085SOL     OW31153   1.008   5.086   2.643
10085SOL    HW131154   1.044   5.041   2.725
10085SOL    HW231155   0.929   5.036   2.609
10086SOL     OW31156   6.781   3.350   1.940
10086SOL    HW131157   6.822   3.406   1.869
10086SOL    HW231158   6.790   3.396   2.028
10087SOL     OW31159   1.966   0.520   3.194
10087SOL    HW131160   1.955   0.424   3.168
10087SOL    HW231161   2.054   0.554   3.160
10088SOL     OW31162   6.302   0.286   4.529
10088SOL    HW131163   6.337   0.380   4.530
10088SOL    HW231164   6.222   0.281   4.589
10089SOL     OW31165   2.222   2.349   2.057
10089SOL    HW131166   2.295   2.414   2.079
10089SOL    HW231167   2.152   2.394   2.003
10090SOL     OW31168   6.946   5.387   2.315
10090SOL    HW131169   6.904   5.467   2.271
10090SOL    HW231170   0.026   5.379   2.284
10091SOL     OW31171   0.146   1.939   3.760
10091SOL    HW131172   0.092   1.858   3.784
10091SOL    HW231173   0.243   1.914   3.754
10092SOL     OW31174   1.724   2.975   5.290
10092SOL    HW131175   1.789   3.042   5.325
10092SOL    HW231176   1.650   3.022   5.243
10093SOL     OW31177   0.088   6.080   6.124
10093SOL    HW131178   0.150   6.134   6.181
10093SOL    HW231179   0.061   5.998   6.173
10094SOL     OW31180   1.743   0.824   2.134
10094SOL    HW131181   1.786   0.831   2.224
10094SOL    HW231182   1.757   0.909   2.084
10095SOL     OW31183   6.915   2.264   5.165
10095SOL    HW131184   6.973   2.344   5.182
10095SOL    HW231185   6.853   2.252   5.243
10096SOL     OW31186   0.091   5.672   2.453
10096SOL    HW131187   0.098   5.758   2.505
10096SOL    HW231188   7.013   5.664   2.416
10097SOL     OW31189   1.022   2.528   5.907
10097SOL    HW131190   0.980   2.514   5.817
10097SOL    HW231191   0.962   2.489   5.977
10098SOL     OW31192   3.662   5.066   6.490
10098SOL    HW131193   3.656   5.143   6.426
10098SOL    HW231194   3.693   4.984   6.441
10099SOL     OW31195   7.008   4.908   4.760
10099SOL    HW131196   6.956   4.829   4.791
10099SOL    HW231197   6.957   4.992   4.782
10100SOL     OW31198   5.024   0.594   5.788
10100SOL    HW131199   5.045   0.661   5.716
10100SOL    HW231200   4.979   0.641   5.864
10101SOL     OW31201   6.874   4.526   2.563
10101SOL    HW131202   6.865   4.601   2.629
10101SOL    HW231203   6.945   4.549   2.496
10102SOL     OW31204   3.687   0.141   4.271
10102SOL    HW131205   3.612   0.110   4.212
10102SOL    HW231206   3.650   0.178   4.356
10103SOL     OW31207   1.158   2.183   0.682
10103SOL    HW131208   1.169   2.195   0.780
10103SOL    HW231209   1.182   2.268   0.635
10104SOL     OW31210   2.248   6.073   5.805
10104SOL    HW131211   2.222   6.103   5.713
10104SOL    HW231212   2.176   6.017   5.844
10105SOL     OW31213   3.299   0.575   0.297
10105SOL    HW131214   3.230   0.631   0.343
10105SOL    HW231215   3.301   0.484   0.339
10106SOL     OW31216   4.701   5.191   1.542
10106SOL    HW131217   4.618   5.246   1.546
10106SOL    HW231218   4.706   5.146   1.453
10107SOL     OW31219   5.626   1.357   5.781
10107SOL    HW131220   5.528   1.367   5.763
10107SOL    HW231221   5.641   1.346   5.879
10108SOL     OW31222   6.058   6.291   6.627
10108SOL    HW131223   6.079   6.195   6.609
10108SOL    HW231224   6.141   6.337   6.659
10109SOL     OW31225   4.608   5.963   3.700
10109SOL    HW131226   4.513   5.949   3.675
10109SOL    HW231227   4.668   5.915   3.636
10110SOL     OW31228   3.271   1.360   5.116
10110SOL    HW131229   3.216   1.318   5.188
10110SOL    HW231230   3.216   1.427   5.067
10111SOL     OW31231   7.002   2.565   2.385
10111SOL    HW131232   6.976   2.649   2.433
10111SOL    HW231233   6.958   2.563   2.296
10112SOL     OW31234   4.271   3.259   6.110
10112SOL    HW131235   4.296   3.315   6.189
10112SOL    HW231236   4.332   3.281   6.034
10113SOL     OW31237   4.133   6.848   0.523
10113SOL    HW131238   4.124   6.926   0.461
10113SOL    HW231239   4.229   6.835   0.546
10114SOL     OW31240   4.625   1.332   1.878
10114SOL    HW131241   4.654   1.362   1.787
10114SOL    HW231242   4.569   1.402   1.921
10115SOL     OW31243   1.222   1.660   4.386
10115SOL    HW131244   1.157   1.734   4.367
10115SOL    HW231245   1.274   1.639   4.303
10116SOL     OW31246   0.506   0.493   0.392
10116SOL    HW131247   0.579   0.455   0.449
10116SOL    HW231248   0.437   0.534   0.450
10117SOL     OW31249   4.528   0.474   5.496
10117SOL    HW131250   4.482   0.486   5.584
10117SOL    HW231251   4.552   0.378   5.483
10118SOL     OW31252   6.061   5.507   2.055
10118SOL    HW131253   6.074   5.560   1.971
10118SOL    HW231254   6.035   5.568   2.129
10119SOL     OW31255   2.387   0.176   5.910
10119SOL    HW131256   2.369   0.264   5.954
10119SOL    HW231257   2.460   0.129   5.960
10120SOL     OW31258   5.655   2.950   3.234
10120SOL    HW131259   5.728   2.916   3.293
10120SOL    HW231260   5.689   3.025   3.178
10121SOL     OW31261   5.800   4.783   3.750
10121SOL    HW131262   5.777   4.873   3.712
10121SOL    HW231263   5.761   4.711   3.693
10122SOL     OW31264   5.198   3.045   6.804
10122SOL    HW131265   5.268   3.111   6.778
10122SOL    HW231266   5.205   3.027   6.902
10123SOL     OW31267   0.149   6.768   0.247
10123SOL    HW131268   0.238   6.780   0.203
10123SOL    HW231269   0.143   6.827   0.327
10124SOL     OW31270   3.335   4.379   1.144
10124SOL    HW131271   3.272   4.444   1.186
10124SOL    HW231272   3.339   4.296   1.199
10125SOL     OW31273   2.135   0.582   0.478
10125SOL    HW131274   2.091   0.672   0.477
10125SOL    HW231275   2.197   0.575   0.399
10126SOL     OW31276   5.483   5.008   6.932
10126SOL    HW131277   5.562   4.947   6.939
10126SOL    HW231278   5.466   5.030   6.836
10127SOL     OW31279   3.471   5.029   5.191
10127SOL    HW131280   3.407   4.956   5.166
10127SOL    HW231281   3.543   5.035   5.122
10128SOL     OW31282   0.331   1.660   1.333
10128SOL    HW131283   0.313   1.562   1.349
10128SOL    HW231284   0.246   1.711   1.345
10129SOL     OW31285   5.334   2.473   3.320
10129SOL    HW131286   5.364   2.511   3.233
10129SOL    HW231287   5.404   2.411   3.355
10130SOL     OW31288   6.421   6.107   1.396
10130SOL    HW131289   6.460   6.170   1.463
10130SOL    HW231290   6.402   6.156   1.311
10131SOL     OW31291   0.309   0.209   0.293
10131SOL    HW131292   0.267   0.261   0.367
10131SOL    HW231293   0.396   0.170   0.324
10132SOL     OW31294   2.530   7.013   2.631
10132SOL    HW131295   2.475   6.971   2.704
10132SOL    HW231296   2.543   6.947   2.557
10133SOL     OW31297   6.127   4.754   2.251
10133SOL    HW131298   6.187   4.833   2.236
10133SOL    HW231299   6.032   4.782   2.244
10134SOL     OW31300   0.520   1.593   1.735
10134SOL    HW131301   0.450   1.661   1.714
10134SOL    HW231302   0.534   1.589   1.834
10135SOL     OW31303   3.092   6.095   2.983
10135SOL    HW131304   3.021   6.031   2.953
10135SOL    HW231305   3.053   6.162   3.046
10136SOL     OW31306   6.410   6.881   2.289
10136SOL    HW131307   6.509   6.894   2.291
10136SOL    HW231308   6.380   6.870   2.194
10137SOL     OW31309   5.526   5.096   4.529
10137SOL    HW131310   5.602   5.049   4.483
10137SOL    HW231311   5.548   5.110   4.625
10138SOL     OW31312   5.530   2.078   6.045
10138SOL    HW131313   5.560   2.102   6.138
10138SOL    HW231314   5.436   2.107   6.032
10139SOL     OW31315   3.702   2.967   3.374
10139SOL    HW131316   3.744   2.922   3.295
10139SOL    HW231317   3.760   3.044   3.401
10140SOL     OW31318   1.190   5.351   4.187
10140SOL    HW131319   1.283   5.387   4.182
10140SOL    HW231320   1.155   5.335   4.095
10141SOL     OW31321   2.171   0.558   3.815
10141SOL    HW131322   2.223   0.617   3.753
10141SOL    HW231323   2.163   0.603   3.904
10142SOL     OW31324   5.209   5.992   4.101
10142SOL    HW131325   5.229   5.946   4.187
10142SOL    HW231326   5.225   5.930   4.025
10143SOL     OW31327   4.574   5.906   1.511
10143SOL    HW131328   4.642   5.899   1.438
10143SOL    HW231329   4.617   5.882   1.599
10144SOL     OW31330   2.818   4.871   3.028
10144SOL    HW131331   2.727   4.830   3.037
10144SOL    HW231332   2.884   4.818   3.080
10145SOL     OW31333   2.791   6.937   6.205
10145SOL    HW131334   2.817   7.004   6.274
10145SOL    HW231335   2.733   6.867   6.246
10146SOL     OW31336   4.987   4.769   4.195
10146SOL    HW131337   4.924   4.846   4.211
10146SOL    HW231338   5.029   4.743   4.282
10147SOL     OW31339   5.070   5.677   4.272
10147SOL    HW131340   5.160   5.635   4.284
10147SOL    HW231341   5.001   5.605   4.266
10148SOL     OW31342   6.247   5.130   0.548
10148SOL    HW131343   6.240   5.109   0.646
10148SOL    HW231344   6.161   5.108   0.503
10149SOL     OW31345   4.349   3.260   0.935
10149SOL    HW131346   4.444   3.237   0.912
10149SOL    HW231347   4.313   3.323   0.868
10150SOL     OW31348   5.361   4.090   0.711
10150SOL    HW131349   5.363   4.190   0.712
10150SOL    HW231350   5.440   4.054   0.760
10151SOL     OW31351   0.927   6.249   5.710
10151SOL    HW131352   1.015   6.256   5.757
10151SOL    HW231353   0.880   6.165   5.738
10152SOL     OW31354   0.142   5.531   4.435
10152SOL    HW131355   0.167   5.439   4.404
10152SOL    HW231356   0.207   5.562   4.504
10153SOL     OW31357   5.268   5.804   3.905
10153SOL    HW131358   5.230   5.711   3.906
10153SOL    HW231359   5.238   5.851   3.823
10154SOL     OW31360   6.780   5.975   5.927
10154SOL    HW131361   6.824   5.994   5.840
10154SOL    HW231362   6.778   6.058   5.983
10155SOL     OW31363   3.516   1.853   6.246
10155SOL    HW131364   3.541   1.847   6.342
10155SOL    HW231365   3.578   1.796   6.191
10156SOL     OW31366   5.955   0.007   2.172
10156SOL    HW131367   6.052   0.004   2.197
10156SOL    HW231368   5.918   0.098   2.190
10157SOL     OW31369   4.731   0.490   4.465
10157SOL    HW131370   4.670   0.484   4.544
10157SOL    HW231371   4.717   0.411   4.406
10158SOL     OW31372   5.104   3.529   6.108
10158SOL    HW131373   5.130   3.541   6.012
10158SOL    HW231374   5.005   3.536   6.117
10159SOL     OW31375   1.619   1.207   6.342
10159SOL    HW131376   1.685   1.233   6.412
10159SOL    HW231377   1.665   1.203   6.253
10160SOL     OW31378   0.546   5.940   3.404
10160SOL    HW131379   0.476   5.939   3.332
10160SOL    HW231380   0.517   5.882   3.480
10161SOL     OW31381   2.165   5.740   5.658
10161SOL    HW131382   2.165   5.657   5.603
10161SOL    HW231383   2.257   5.779   5.659
10162SOL     OW31384   3.366   2.687   6.927
10162SOL    HW131385   3.445   2.707   6.870
10162SOL    HW231386   3.283   2.726   6.885
10163SOL     OW31387   0.113   3.087   5.857
10163SOL    HW131388   0.129   3.133   5.944
10163SOL    HW231389   0.026   3.117   5.819
10164SOL     OW31390   1.332   2.532   5.472
10164SOL    HW131391   1.382   2.453   5.507
10164SOL    HW231392   1.377   2.564   5.388
10165SOL     OW31393   0.259   1.994   2.953
10165SOL    HW131394   0.255   2.044   3.040
10165SOL    HW231395   0.200   1.914   2.959
10166SOL     OW31396   0.732   1.445   2.030
10166SOL    HW131397   0.700   1.363   2.079
10166SOL    HW231398   0.830   1.438   2.014
10167SOL     OW31399   5.070   0.517   0.793
10167SOL    HW131400   5.062   0.535   0.695
10167SOL    HW231401   5.118   0.592   0.838
10168SOL     OW31402   6.543   4.677   4.683
10168SOL    HW131403   6.469   4.695   4.748
10168SOL    HW231404   6.516   4.707   4.592
10169SOL     OW31405   6.552   4.131   4.351
10169SOL    HW131406   6.617   4.084   4.411
10169SOL    HW231407   6.552   4.229   4.373
10170SOL     OW31408   1.339   3.762   4.649
10170SOL    HW131409   1.360   3.854   4.681
10170SOL    HW231410   1.306   3.706   4.725
10171SOL     OW31411   5.923   3.166   6.453
10171SOL    HW131412   5.827   3.144   6.473
10171SOL    HW231413   5.960   3.224   6.525
10172SOL     OW31414   4.604   0.970   4.128
10172SOL    HW131415   4.559   1.018   4.202
10172SOL    HW231416   4.703   0.987   4.132
10173SOL     OW31417   2.439   2.296   3.171
10173SOL    HW131418   2.525   2.280   3.219
10173SOL    HW231419   2.457   2.344   3.085
10174SOL     OW31420   5.977   4.203   1.119
10174SOL    HW131421   6.042   4.128   1.128
10174SOL    HW231422   5.980   4.239   1.026
10175SOL     OW31423   5.894   2.349   5.938
10175SOL    HW131424   5.905   2.389   5.847
10175SOL    HW231425   5.844   2.263   5.931
10176SOL     OW31426   2.116   3.665   0.317
10176SOL    HW131427   2.213   3.644   0.323
10176SOL    HW231428   2.068   3.626   0.396
10177SOL     OW31429   2.099   0.003   5.624
10177SOL    HW131430   2.196   0.022   5.641
10177SOL    HW231431   2.078   0.022   5.528
10178SOL     OW31432   5.311   3.135   5.491
10178SOL    HW131433   5.350   3.226   5.507
10178SOL    HW231434   5.330   3.107   5.397
10179SOL     OW31435   0.034   3.556   6.273
10179SOL    HW131436   6.963   3.585   6.231
10179SOL    HW231437   0.097   3.525   6.203
10180SOL     OW31438   2.262   6.464   5.610
10180SOL    HW131439   2.352   6.426   5.634
10180SOL    HW231440   2.191   6.414   5.659
10181SOL     OW31441   5.885   3.234   1.588
10181SOL    HW131442   5.929   3.275   1.508
10181SOL    HW231443   5.955   3.189   1.644
10182SOL     OW31444   4.408   1.290   0.220
10182SOL    HW131445   4.404   1.387   0.195
10182SOL    HW231446   4.502   1.266   0.244
10183SOL     OW31447   1.772   1.273   6.560
10183SOL    HW131448   1.723   1.330   6.626
10183SOL    HW231449   1.857   1.318   6.534
10184SOL     OW31450   4.765   0.233   6.898
10184SOL    HW131451   4.755   0.288   6.815
10184SOL    HW231452   4.703   0.154   6.893
10185SOL     OW31453   4.959   1.199   0.186
10185SOL    HW131454   5.031   1.131   0.175
10185SOL    HW231455   4.890   1.188   0.115
10186SOL     OW31456   4.909   2.274   2.972
10186SOL    HW131457   4.843   2.348   2.986
10186SOL    HW231458   4.994   2.311   2.935
10187SOL     OW31459   0.939   2.246   1.901
10187SOL    HW131460   0.967   2.202   1.986
10187SOL    HW231461   0.938   2.178   1.827
10188SOL     OW31462   3.813   5.018   0.697
10188SOL    HW131463   3.820   5.021   0.597
10188SOL    HW231464   3.903   4.999   0.736
10189SOL     OW31465   1.360   6.888   5.600
10189SOL    HW131466   1.328   6.931   5.684
10189SOL    HW231467   1.361   6.789   5.612
10190SOL     OW31468   4.699   2.649   6.873
10190SOL    HW131469   4.612   2.671   6.829
10190SOL    HW231470   4.765   2.618   6.805
10191SOL     OW31471   6.872   5.050   6.617
10191SOL    HW131472   6.891   5.145   6.591
10191SOL    HW231473   6.890   4.989   6.540
10192SOL     OW31474   3.435   1.433   0.377
10192SOL    HW131475   3.500   1.364   0.345
10192SOL    HW231476   3.342   1.403   0.353
10193SOL     OW31477   4.127   4.375   0.552
10193SOL    HW131478   4.212   4.323   0.556
10193SOL    HW231479   4.051   4.318   0.583
10194SOL     OW31480   4.926   2.895   5.352
10194SOL    HW131481   4.950   2.859   5.262
10194SOL    HW231482   4.945   2.826   5.422
10195SOL     OW31483   6.143   4.181   1.819
10195SOL    HW131484   6.095   4.238   1.752
10195SOL    HW231485   6.077   4.145   1.885
10196SOL     OW31486   0.415   1.796   4.641
10196SOL    HW131487   0.360   1.874   4.611
10196SOL    HW231488   0.511   1.825   4.649
10197SOL     OW31489   5.507   0.833   6.721
10197SOL    HW131490   5.448   0.758   6.691
10197SOL    HW231491   5.465   0.921   6.696
10198SOL     OW31492   4.261   6.680   3.547
10198SOL    HW131493   4.189   6.734   3.505
10198SOL    HW231494   4.350   6.722   3.529
10199SOL     OW31495   0.452   2.175   5.305
10199SOL    HW131496   0.406   2.238   5.242
10199SOL    HW231497   0.383   2.126   5.359
10200SOL     OW31498   5.008   1.839   1.686
10200SOL    HW131499   4.920   1.879   1.659
10200SOL    HW231500   5.071   1.841   1.608
10201SOL     OW31501   1.117   4.007   0.751
10201SOL    HW131502   1.134   4.092   0.700
10201SOL    HW231503   1.045   3.955   0.705
10202SOL     OW31504   5.117   0.687   4.220
10202SOL    HW131505   5.020   0.668   4.207
10202SOL    HW231506   5.130   0.785   4.236
10203SOL     OW31507   0.003   2.758   4.408
10203SOL    HW131508   0.048   2.752   4.497
10203SOL    HW231509   0.029   2.679   4.353
10204SOL     OW31510   5.720   4.885   6.575
10204SOL    HW131511   5.757   4.832   6.499
10204SOL    HW231512   5.702   4.824   6.652
10205SOL     OW31513   0.384   1.393   6.417
10205SOL    HW131514   0.429   1.309   6.446
10205SOL    HW231515   0.357   1.446   6.497
10206SOL     OW31516   1.979   1.561   4.945
10206SOL    HW131517   1.880   1.571   4.941
10206SOL    HW231518   2.015   1.615   5.021
10207SOL     OW31519   2.490   2.641   5.794
10207SOL    HW131520   2.577   2.594   5.779
10207SOL    HW231521   2.415   2.583   5.760
10208SOL     OW31522   0.123   6.495   5.546
10208SOL    HW131523   0.085   6.471   5.457
10208SOL    HW231524   0.131   6.413   5.602
10209SOL     OW31525   6.900   6.358   5.812
10209SOL    HW131526   6.829   6.331   5.747
10209SOL    HW231527   6.990   6.338   5.774
10210SOL     OW31528   3.833   0.439   1.818
10210SOL    HW131529   3.770   0.452   1.742
10210SOL    HW231530   3.796   0.482   1.900
10211SOL     OW31531   5.233   5.519   6.015
10211SOL    HW131532   5.150   5.468   5.994
10211SOL    HW231533   5.308   5.486   5.957
10212SOL     OW31534   0.911   0.580   6.722
10212SOL    HW131535   0.844   0.522   6.676
10212SOL    HW231536   0.935   0.539   6.811
10213SOL     OW31537   6.742   2.448   0.980
10213SOL    HW131538   6.699   2.532   0.947
10213SOL    HW231539   6.772   2.461   1.074
10214SOL     OW31540   1.558   2.734   0.087
10214SOL    HW131541   1.535   2.654   0.143
10214SOL    HW231542   1.638   2.779   0.126
10215SOL     OW31543   3.118   4.024   2.688
10215SOL    HW131544   3.163   3.973   2.762
10215SOL    HW231545   3.034   4.065   2.722
10216SOL     OW31546   0.680   5.911   2.026
10216SOL    HW131547   0.633   5.960   1.952
10216SOL    HW231548   0.628   5.921   2.111
10217SOL     OW31549   4.152   1.680   5.157
10217SOL    HW131550   4.064   1.716   5.126
10217SOL    HW231551   4.226   1.724   5.106
10218SOL     OW31552   1.117   3.429   2.725
10218SOL    HW131553   1.204   3.427   2.675
10218SOL    HW231554   1.135   3.435   2.823
10219SOL     OW31555   0.181   5.939   2.989
10219SOL    HW131556   0.256   5.953   2.925
10219SOL    HW231557   0.094   5.960   2.944
10220SOL     OW31558   3.296   3.062   0.213
10220SOL    HW131559   3.247   3.084   0.298
10220SOL    HW231560   3.388   3.030   0.235
10221SOL     OW31561   1.051   5.257   3.334
10221SOL    HW131562   1.096   5.182   3.383
10221SOL    HW231563   0.967   5.282   3.382
10222SOL     OW31564   3.362   3.813   3.728
10222SOL    HW131565   3.455   3.824   3.691
10222SOL    HW231566   3.327   3.724   3.700
10223SOL     OW31567   2.483   6.641   1.301
10223SOL    HW131568   2.515   6.656   1.394
10223SOL    HW231569   2.405   6.579   1.302
10224SOL     OW31570   6.679   3.319   2.957
10224SOL    HW131571   6.766   3.319   3.006
10224SOL    HW231572   6.692   3.356   2.865
10225SOL     OW31573   1.874   3.715   6.054
10225SOL    HW131574   1.805   3.672   5.996
10225SOL    HW231575   1.964   3.701   6.014
10226SOL     OW31576   5.009   4.235   0.141
10226SOL    HW131577   4.960   4.321   0.128
10226SOL    HW231578   5.085   4.249   0.204
10227SOL     OW31579   5.862   3.859   1.546
10227SOL    HW131580   5.852   3.791   1.473
10227SOL    HW231581   5.889   3.813   1.630
10228SOL     OW31582   5.272   0.142   0.794
10228SOL    HW131583   5.240   0.069   0.732
10228SOL    HW231584   5.301   0.101   0.880
10229SOL     OW31585   0.224   2.597   4.995
10229SOL    HW131586   0.232   2.672   4.929
10229SOL    HW231587   0.278   2.519   4.963
10230SOL     OW31588   6.629   6.480   1.307
10230SOL    HW131589   6.652   6.548   1.377
10230SOL    HW231590   6.623   6.526   1.218
10231SOL     OW31591   0.177   4.375   2.588
10231SOL    HW131592   0.241   4.343   2.658
10231SOL    HW231593   0.217   4.452   2.539
10232SOL     OW31594   4.945   4.652   2.693
10232SOL    HW131595   4.988   4.562   2.703
10232SOL    HW231596   4.911   4.683   2.782
10233SOL     OW31597   2.483   4.197   5.309
10233SOL    HW131598   2.419   4.202   5.385
10233SOL    HW231599   2.457   4.121   5.248
10234SOL     OW31600   0.603   0.893   2.093
10234SOL    HW131601   0.609   0.991   2.074
10234SOL    HW231602   0.621   0.877   2.190
10235SOL     OW31603   1.386   1.246   3.415
10235SOL    HW131604   1.445   1.238   3.334
10235SOL    HW231605   1.304   1.299   3.391
10236SOL     OW31606   0.764   0.298   2.674
10236SOL    HW131607   0.669   0.323   2.655
10236SOL    HW231608   0.797   0.237   2.602
10237SOL     OW31609   0.004   3.354   4.804
10237SOL    HW131610   0.093   3.319   4.775
10237SOL    HW231611   0.017   3.436   4.860
10238SOL     OW31612   2.853   6.649   1.409
10238SOL    HW131613   2.774   6.648   1.470
10238SOL    HW231614   2.823   6.675   1.317
10239SOL     OW31615   0.929   2.380   4.892
10239SOL    HW131616   0.883   2.306   4.941
10239SOL    HW231617   0.877   2.464   4.903
10240SOL     OW31618   2.210   6.034   1.223
10240SOL    HW131619   2.142   6.105   1.205
10240SOL    HW231620   2.230   5.985   1.138
10241SOL     OW31621   4.567   3.886   1.585
10241SOL    HW131622   4.482   3.863   1.632
10241SOL    HW231623   4.563   3.980   1.552
10242SOL     OW31624   6.725   3.422   0.630
10242SOL    HW131625   6.627   3.444   0.621
10242SOL    HW231626   6.774   3.458   0.550
10243SOL     OW31627   2.843   5.773   2.074
10243SOL    HW131628   2.835   5.689   2.126
10243SOL    HW231629   2.922   5.767   2.012
10244SOL     OW31630   2.822   4.976   2.020
10244SOL    HW131631   2.897   4.919   2.054
10244SOL    HW231632   2.750   4.918   1.983
10245SOL     OW31633   5.410   4.267   0.976
10245SOL    HW131634   5.471   4.188   0.986
10245SOL    HW231635   5.352   4.275   1.057
10246SOL     OW31636   3.517   3.103   4.178
10246SOL    HW131637   3.449   3.040   4.214
10246SOL    HW231638   3.479   3.196   4.175
10247SOL     OW31639   0.822   2.543   4.450
10247SOL    HW131640   0.905   2.521   4.503
10247SOL    HW231641   0.805   2.469   4.384
10248SOL     OW31642   0.454   1.334   5.212
10248SOL    HW131643   0.430   1.243   5.247
10248SOL    HW231644   0.521   1.377   5.273
10249SOL     OW31645   2.757   4.471   6.183
10249SOL    HW131646   2.709   4.440   6.101
10249SOL    HW231647   2.844   4.513   6.156
10250SOL     OW31648   3.068   2.332   0.835
10250SOL    HW131649   3.019   2.418   0.823
10250SOL    HW231650   3.165   2.346   0.815
10251SOL     OW31651   1.683   1.073   4.813
10251SOL    HW131652   1.763   1.130   4.793
10251SOL    HW231653   1.677   0.999   4.746
10252SOL     OW31654   4.287   4.482   5.863
10252SOL    HW131655   4.250   4.424   5.935
10252SOL    HW231656   4.229   4.475   5.781
10253SOL     OW31657   3.767   6.266   6.746
10253SOL    HW131658   3.737   6.295   6.837
10253SOL    HW231659   3.863   6.291   6.733
10254SOL     OW31660   6.632   1.501   5.897
10254SOL    HW131661   6.729   1.486   5.880
10254SOL    HW231662   6.585   1.413   5.908
10255SOL     OW31663   3.899   4.404   1.643
10255SOL    HW131664   3.975   4.356   1.599
10255SOL    HW231665   3.859   4.346   1.714
10256SOL     OW31666   3.225   1.399   4.482
10256SOL    HW131667   3.214   1.440   4.573
10256SOL    HW231668   3.247   1.471   4.416
10257SOL     OW31669   3.889   5.676   3.116
10257SOL    HW131670   3.946   5.757   3.126
10257SOL    HW231671   3.834   5.684   3.033
10258SOL     OW31672   2.502   1.689   2.624
10258SOL    HW131673   2.424   1.737   2.583
10258SOL    HW231674   2.509   1.597   2.585
10259SOL     OW31675   1.180   3.510   4.097
10259SOL    HW131676   1.257   3.451   4.120
10259SOL    HW231677   1.151   3.560   4.179
10260SOL     OW31678   0.567   6.952   3.220
10260SOL    HW131679   0.482   6.970   3.172
10260SOL    HW231680   0.566   6.859   3.257
10261SOL     OW31681   0.110   4.288   1.019
10261SOL    HW131682   0.206   4.280   1.044
10261SOL    HW231683   0.078   4.381   1.036
10262SOL     OW31684   3.541   0.524   6.969
10262SOL    HW131685   3.606   0.571   0.013
10262SOL    HW231686   3.572   0.430   6.953
10263SOL     OW31687   5.717   0.497   2.812
10263SOL    HW131688   5.636   0.443   2.792
10263SOL    HW231689   5.738   0.490   2.910
10264SOL     OW31690   6.631   0.306   6.367
10264SOL    HW131691   6.684   0.246   6.308
10264SOL    HW231692   6.540   0.319   6.327
10265SOL     OW31693   2.149   1.791   2.197
10265SOL    HW131694   2.092   1.856   2.146
10265SOL    HW231695   2.242   1.827   2.204
10266SOL     OW31696   2.804   3.487   1.569
10266SOL    HW131697   2.731   3.515   1.632
10266SOL    HW231698   2.857   3.413   1.610
10267SOL     OW31699   6.566   0.290   0.541
10267SOL    HW131700   6.468   0.308   0.530
10267SOL    HW231701   6.618   0.349   0.479
10268SOL     OW31702   3.251   5.605   2.635
10268SOL    HW131703   3.221   5.700   2.636
10268SOL    HW231704   3.249   5.570   2.541
10269SOL     OW31705   2.022   1.427   0.364
10269SOL    HW131706   1.985   1.441   0.273
10269SOL    HW231707   1.962   1.367   0.416
10270SOL     OW31708   2.802   0.290   3.560
10270SOL    HW131709   2.709   0.326   3.557
10270SOL    HW231710   2.864   0.360   3.596
10271SOL     OW31711   2.067   1.085   6.845
10271SOL    HW131712   2.117   1.039   6.917
10271SOL    HW231713   2.122   1.087   6.762
10272SOL     OW31714   6.196   6.595   4.775
10272SOL    HW131715   6.235   6.664   4.837
10272SOL    HW231716   6.103   6.621   4.751
10273SOL     OW31717   1.990   5.166   3.905
10273SOL    HW131718   2.009   5.100   3.832
10273SOL    HW231719   2.000   5.259   3.870
10274SOL     OW31720   1.061   3.754   5.082
10274SOL    HW131721   0.971   3.712   5.099
10274SOL    HW231722   1.060   3.849   5.113
10275SOL     OW31723   6.594   1.805   2.170
10275SOL    HW131724   6.656   1.770   2.100
10275SOL    HW231725   6.512   1.842   2.126
10276SOL     OW31726   2.821   5.539   5.228
10276SOL    HW131727   2.841   5.613   5.292
10276SOL    HW231728   2.771   5.576   5.149
10277SOL     OW31729   1.273   5.461   3.899
10277SOL    HW131730   1.265   5.439   3.802
10277SOL    HW231731   1.186   5.494   3.934
10278SOL     OW31732   6.543   0.190   4.425
10278SOL    HW131733   6.597   0.146   4.498
10278SOL    HW231734   6.462   0.233   4.465
10279SOL     OW31735   1.104   4.911   4.052
10279SOL    HW131736   1.151   4.935   4.137
10279SOL    HW231737   1.140   4.967   3.977
10280SOL     OW31738   6.336   4.929   0.337
10280SOL    HW131739   6.377   5.020   0.329
10280SOL    HW231740   6.266   4.918   0.267
10281SOL     OW31741   6.484   0.622   3.711
10281SOL    HW131742   6.441   0.547   3.661
10281SOL    HW231743   6.562   0.656   3.659
10282SOL     OW31744   5.133   2.767   3.209
10282SOL    HW131745   5.037   2.793   3.209
10282SOL    HW231746   5.185   2.831   3.152
10283SOL     OW31747   0.546   2.605   1.159
10283SOL    HW131748   0.576   2.511   1.173
10283SOL    HW231749   0.607   2.650   1.094
10284SOL     OW31750   0.314   4.468   4.206
10284SOL    HW131751   0.220   4.433   4.203
10284SOL    HW231752   0.320   4.541   4.273
10285SOL     OW31753   0.203   6.537   6.119
10285SOL    HW131754   0.153   6.454   6.094
10285SOL    HW231755   0.185   6.608   6.051
10286SOL     OW31756   2.806   1.567   2.813
10286SOL    HW131757   2.877   1.531   2.752
10286SOL    HW231758   2.845   1.583   2.904
10287SOL     OW31759   1.157   5.320   2.715
10287SOL    HW131760   1.250   5.349   2.691
10287SOL    HW231761   1.140   5.229   2.678
10288SOL     OW31762   3.730   6.231   4.640
10288SOL    HW131763   3.683   6.317   4.660
10288SOL    HW231764   3.811   6.250   4.585
10289SOL     OW31765   4.377   6.294   0.044
10289SOL    HW131766   4.382   6.197   0.068
10289SOL    HW231767   4.470   6.333   0.044
10290SOL     OW31768   2.839   3.427   2.192
10290SOL    HW131769   2.740   3.425   2.202
10290SOL    HW231770   2.862   3.476   2.108
10291SOL     OW31771   2.418   2.053   2.334
10291SOL    HW131772   2.502   2.087   2.376
10291SOL    HW231773   2.429   1.956   2.310
10292SOL     OW31774   0.148   6.728   5.968
10292SOL    HW131775   0.156   6.823   5.996
10292SOL    HW231776   0.160   6.720   5.869
10293SOL     OW31777   1.261   3.649   4.914
10293SOL    HW131778   1.331   3.579   4.929
10293SOL    HW231779   1.239   3.693   5.002
10294SOL     OW31780   2.838   0.111   2.071
10294SOL    HW131781   2.746   0.130   2.039
10294SOL    HW231782   2.834   0.067   2.160
10295SOL     OW31783   1.254   1.552   0.500
10295SOL    HW131784   1.210   1.634   0.463
10295SOL    HW231785   1.203   1.471   0.472
10296SOL     OW31786   6.436   1.849   5.907
10296SOL    HW131787   6.395   1.913   5.972
10296SOL    HW231788   6.363   1.797   5.861
10297SOL     OW31789   4.317   0.911   0.914
10297SOL    HW131790   4.316   0.994   0.858
10297SOL    HW231791   4.309   0.831   0.855
10298SOL     OW31792   0.968   2.033   2.093
10298SOL    HW131793   0.908   2.009   2.169
10298SOL    HW231794   0.968   1.959   2.026
10299SOL     OW31795   4.515   0.173   2.678
10299SOL    HW131796   4.577   0.126   2.740
10299SOL    HW231797   4.421   0.164   2.711
10300SOL     OW31798   1.189   3.104   0.972
10300SOL    HW131799   1.237   3.016   0.983
10300SOL    HW231800   1.183   3.127   0.875
10301SOL     OW31801   3.793   0.800   0.414
10301SOL    HW131802   3.886   0.763   0.413
10301SOL    HW231803   3.728   0.725   0.402
10302SOL     OW31804   3.279   6.664   5.084
10302SOL    HW131805   3.302   6.749   5.132
10302SOL    HW231806   3.180   6.661   5.068
10303SOL     OW31807   0.111   4.828   4.517
10303SOL    HW131808   0.072   4.839   4.608
10303SOL    HW231809   0.122   4.731   4.497
10304SOL     OW31810   5.548   6.501   1.012
10304SOL    HW131811   5.620   6.567   0.993
10304SOL    HW231812   5.490   6.490   0.931
10305SOL     OW31813   2.933   3.938   5.481
10305SOL    HW131814   2.946   3.993   5.564
10305SOL    HW231815   2.846   3.962   5.438
10306SOL     OW31816   3.972   0.679   0.692
10306SOL    HW131817   3.979   0.622   0.773
10306SOL    HW231818   3.886   0.731   0.695
10307SOL     OW31819   1.791   0.186   5.137
10307SOL    HW131820   1.841   0.243   5.202
10307SOL    HW231821   1.848   0.167   5.058
10308SOL     OW31822   2.931   4.711   1.675
10308SOL    HW131823   2.997   4.775   1.715
10308SOL    HW231824   2.944   4.620   1.714
10309SOL     OW31825   0.257   0.784   5.803
10309SOL    HW131826   0.189   0.787   5.877
10309SOL    HW231827   0.310   0.699   5.809
10310SOL     OW31828   2.985   4.059   5.714
10310SOL    HW131829   2.897   4.090   5.750
10310SOL    HW231830   3.058   4.094   5.772
10311SOL     OW31831   5.520   5.898   0.039
10311SOL    HW131832   5.585   5.896   6.978
10311SOL    HW231833   5.536   5.819   0.098
10312SOL     OW31834   3.205   6.770   2.516
10312SOL    HW131835   3.285   6.812   2.559
10312SOL    HW231836   3.197   6.803   2.422
10313SOL     OW31837   4.834   6.926   2.464
10313SOL    HW131838   4.889   6.851   2.428
10313SOL    HW231839   4.854   6.938   2.561
10314SOL     OW31840   0.656   0.373   0.986
10314SOL    HW131841   0.689   0.296   1.040
10314SOL    HW231842   0.662   0.457   1.041
10315SOL     OW31843   5.410   5.116   3.296
10315SOL    HW131844   5.466   5.067   3.363
10315SOL    HW231845   5.313   5.095   3.311
10316SOL     OW31846   0.670   1.630   0.215
10316SOL    HW131847   0.744   1.590   0.270
10316SOL    HW231848   0.701   1.716   0.175
10317SOL     OW31849   3.721   6.029   5.230
10317SOL    HW131850   3.678   5.979   5.155
10317SOL    HW231851   3.820   6.031   5.216
10318SOL     OW31852   6.403   0.635   0.582
10318SOL    HW131853   6.377   0.688   0.663
10318SOL    HW231854   6.494   0.663   0.552
10319SOL     OW31855   0.588   4.549   4.038
10319SOL    HW131856   0.554   4.497   4.117
10319SOL    HW231857   0.556   4.505   3.954
10320SOL     OW31858   6.959   0.149   3.012
10320SOL    HW131859   6.948   0.052   2.991
10320SOL    HW231860   6.984   0.160   3.108
10321SOL     OW31861   5.963   2.761   2.442
10321SOL    HW131862   6.049   2.809   2.423
10321SOL    HW231863   5.983   2.676   2.492
10322SOL     OW31864   4.624   4.590   4.934
10322SOL    HW131865   4.665   4.531   4.865
10322SOL    HW231866   4.526   4.599   4.917
10323SOL     OW31867   1.039   4.025   5.863
10323SOL    HW131868   1.053   3.928   5.844
10323SOL    HW231869   0.994   4.036   5.952
10324SOL     OW31870   2.997   3.192   2.517
10324SOL    HW131871   2.963   3.217   2.608
10324SOL    HW231872   3.053   3.110   2.524
10325SOL     OW31873   5.879   5.966   4.724
10325SOL    HW131874   5.854   5.880   4.680
10325SOL    HW231875   5.971   5.959   4.763
10326SOL     OW31876   5.291   3.354   6.535
10326SOL    HW131877   5.281   3.454   6.543
10326SOL    HW231878   5.261   3.325   6.444
10327SOL     OW31879   2.308   5.513   6.696
10327SOL    HW131880   2.325   5.521   6.597
10327SOL    HW231881   2.337   5.598   6.741
10328SOL     OW31882   5.520   2.416   2.211
10328SOL    HW131883   5.610   2.385   2.240
10328SOL    HW231884   5.450   2.379   2.273
10329SOL     OW31885   3.410   1.934   2.254
10329SOL    HW131886   3.311   1.938   2.246
10329SOL    HW231887   3.452   1.986   2.179
10330SOL     OW31888   5.572   0.675   1.693
10330SOL    HW131889   5.566   0.713   1.786
10330SOL    HW231890   5.657   0.623   1.684
10331SOL     OW31891   5.731   6.132   5.854
10331SOL    HW131892   5.704   6.051   5.907
10331SOL    HW231893   5.683   6.212   5.890
10332SOL     OW31894   1.489   1.905   6.384
10332SOL    HW131895   1.444   1.859   6.308
10332SOL    HW231896   1.420   1.945   6.445
10333SOL     OW31897   1.274   3.358   4.637
10333SOL    HW131898   1.252   3.261   4.649
10333SOL    HW231899   1.349   3.367   4.570
10334SOL     OW31900   3.269   1.817   4.300
10334SOL    HW131901   3.228   1.840   4.211
10334SOL    HW231902   3.284   1.900   4.352
10335SOL     OW31903   1.753   2.694   5.249
10335SOL    HW131904   1.807   2.650   5.320
10335SOL    HW231905   1.751   2.793   5.265
10336SOL     OW31906   5.873   6.717   3.028
10336SOL    HW131907   5.921   6.793   3.072
10336SOL    HW231908   5.933   6.637   3.023
10337SOL     OW31909   6.418   5.659   6.700
10337SOL    HW131910   6.395   5.576   6.650
10337SOL    HW231911   6.410   5.642   6.799
10338SOL     OW31912   1.240   6.479   1.280
10338SOL    HW131913   1.272   6.552   1.340
10338SOL    HW231914   1.290   6.394   1.301
10339SOL     OW31915   5.855   2.595   6.035
10339SOL    HW131916   5.786   2.596   6.107
10339SOL    HW231917   5.854   2.507   5.988
10340SOL     OW31918   2.191   4.099   6.163
10340SOL    HW131919   2.174   4.001   6.148
10340SOL    HW231920   2.172   4.149   6.079
10341SOL     OW31921   2.438   4.390   3.759
10341SOL    HW131922   2.432   4.406   3.660
10341SOL    HW231923   2.505   4.453   3.799
10342SOL     OW31924   0.552   0.965   3.801
10342SOL    HW131925   0.590   1.057   3.806
10342SOL    HW231926   0.621   0.899   3.830
10343SOL     OW31927   3.850   5.284   1.815
10343SOL    HW131928   3.937   5.235   1.824
10343SOL    HW231929   3.832   5.336   1.899
10344SOL     OW31930   4.934   6.769   6.962
10344SOL    HW131931   4.850   6.731   7.000
10344SOL    HW231932   4.963   6.714   6.883
10345SOL     OW31933   1.659   4.083   4.162
10345SOL    HW131934   1.610   4.109   4.246
10345SOL    HW231935   1.670   4.163   4.104
10346SOL     OW31936   0.186   6.263   0.181
10346SOL    HW131937   0.275   6.308   0.175
10346SOL    HW231938   0.194   6.168   0.150
10347SOL     OW31939   5.695   2.003   4.897
10347SOL    HW131940   5.765   2.066   4.862
10347SOL    HW231941   5.740   1.921   4.933
10348SOL     OW31942   6.931   5.288   1.318
10348SOL    HW131943   6.956   5.344   1.239
10348SOL    HW231944   6.987   5.205   1.319
10349SOL     OW31945   0.565   6.699   5.883
10349SOL    HW131946   0.517   6.779   5.849
10349SOL    HW231947   0.629   6.726   5.955
10350SOL     OW31948   3.264   0.577   6.340
10350SOL    HW131949   3.169   0.576   6.370
10350SOL    HW231950   3.317   0.637   6.401
10351SOL     OW31951   4.259   5.271   5.907
10351SOL    HW131952   4.214   5.359   5.891
10351SOL    HW231953   4.358   5.285   5.914
10352SOL     OW31954   4.125   3.880   6.411
10352SOL    HW131955   4.057   3.853   6.480
10352SOL    HW231956   4.161   3.970   6.434
10353SOL     OW31957   0.213   2.816   5.169
10353SOL    HW131958   0.245   2.882   5.101
10353SOL    HW231959   0.201   2.727   5.125
10354SOL     OW31960   5.381   1.964   1.141
10354SOL    HW131961   5.368   1.867   1.119
10354SOL    HW231962   5.374   2.019   1.057
10355SOL     OW31963   1.237   4.695   3.123
10355SOL    HW131964   1.251   4.787   3.157
10355SOL    HW231965   1.274   4.628   3.188
10356SOL     OW31966   0.223   2.359   4.814
10356SOL    HW131967   0.160   2.288   4.845
10356SOL    HW231968   0.172   2.429   4.764
10357SOL     OW31969   3.451   3.040   6.727
10357SOL    HW131970   3.452   3.048   6.826
10357SOL    HW231971   3.539   3.002   6.696
10358SOL     OW31972   0.133   1.353   2.378
10358SOL    HW131973   0.043   1.329   2.413
10358SOL    HW231974   0.170   1.276   2.326
10359SOL     OW31975   0.462   1.435   1.073
10359SOL    HW131976   0.538   1.472   1.126
10359SOL    HW231977   0.408   1.375   1.132
10360SOL     OW31978   0.343   4.587   3.077
10360SOL    HW131979   0.265   4.607   3.018
10360SOL    HW231980   0.331   4.633   3.165
10361SOL     OW31981   2.245   5.048   1.009
10361SOL    HW131982   2.334   5.094   1.002
10361SOL    HW231983   2.238   5.002   1.097
10362SOL     OW31984   1.110   4.605   5.212
10362SOL    HW131985   1.188   4.550   5.240
10362SOL    HW231986   1.048   4.550   5.157
10363SOL     OW31987   5.580   6.726   3.498
10363SOL    HW131988   5.580   6.673   3.414
10363SOL    HW231989   5.562   6.822   3.478
10364SOL     OW31990   1.656   4.211   0.804
10364SOL    HW131991   1.558   4.195   0.812
10364SOL    HW231992   1.672   4.304   0.771
10365SOL     OW31993   4.923   5.243   6.940
10365SOL    HW131994   5.010   5.193   6.943
10365SOL    HW231995   4.859   5.195   6.880
10366SOL     OW31996   3.686   6.545   3.656
10366SOL    HW131997   3.745   6.546   3.575
10366SOL    HW231998   3.741   6.565   3.737
10367SOL     OW31999   6.630   1.477   3.352
10367SOL    HW132000   6.660   1.523   3.435
10367SOL    HW232001   6.680   1.391   3.342
10368SOL     OW32002   2.333   0.477   1.560
10368SOL    HW132003   2.298   0.547   1.622
10368SOL    HW232004   2.271   0.398   1.562
10369SOL     OW32005   4.125   2.724   6.905
10369SOL    HW132006   4.063   2.757   6.834
10369SOL    HW232007   4.139   2.626   6.894
10370SOL     OW32008   3.979   1.161   5.461
10370SOL    HW132009   4.064   1.184   5.413
10370SOL    HW232010   3.967   1.062   5.462
10371SOL     OW32011   5.031   6.576   5.844
10371SOL    HW132012   5.045   6.485   5.882
10371SOL    HW232013   5.060   6.578   5.748
10372SOL     OW32014   1.289   0.712   3.848
10372SOL    HW132015   1.293   0.742   3.752
10372SOL    HW232016   1.360   0.643   3.865
10373SOL     OW32017   1.050   5.227   5.005
10373SOL    HW132018   0.969   5.214   4.948
10373SOL    HW232019   1.098   5.310   4.978
10374SOL     OW32020   3.098   1.800   4.073
10374SOL    HW132021   3.052   1.876   4.027
10374SOL    HW232022   3.146   1.744   4.006
10375SOL     OW32023   0.116   2.071   0.958
10375SOL    HW132024   0.196   2.118   0.921
10375SOL    HW232025   0.075   2.014   0.887
10376SOL     OW32026   6.416   0.077   3.284
10376SOL    HW132027   6.486   0.120   3.227
10376SOL    HW232028   6.460   0.011   3.346
10377SOL     OW32029   0.295   6.567   4.240
10377SOL    HW132030   0.198   6.546   4.233
10377SOL    HW232031   0.349   6.484   4.225
10378SOL     OW32032   6.189   6.345   5.861
10378SOL    HW132033   6.171   6.248   5.849
10378SOL    HW232034   6.109   6.398   5.832
10379SOL     OW32035   4.562   1.788   4.095
10379SOL    HW132036   4.524   1.879   4.082
10379SOL    HW232037   4.563   1.739   4.008
10380SOL     OW32038   3.796   0.863   3.579
10380SOL    HW132039   3.736   0.944   3.573
10380SOL    HW232040   3.751   0.786   3.532
10381SOL     OW32041   3.719   5.350   4.684
10381SOL    HW132042   3.625   5.377   4.706
10381SOL    HW232043   3.731   5.253   4.704
10382SOL     OW32044   0.512   5.919   0.180
10382SOL    HW132045   0.503   5.823   0.153
10382SOL    HW232046   0.463   5.976   0.115
10383SOL     OW32047   5.620   2.700   0.454
10383SOL    HW132048   5.670   2.615   0.438
10383SOL    HW232049   5.538   2.681   0.509
10384SOL     OW32050   5.809   1.168   6.798
10384SOL    HW132051   5.791   1.077   6.759
10384SOL    HW232052   5.753   1.180   6.880
10385SOL     OW32053   0.050   2.653   6.449
10385SOL    HW132054   0.095   2.644   6.360
10385SOL    HW232055   0.020   2.563   6.480
10386SOL     OW32056   6.894   1.777   6.233
10386SOL    HW132057   6.984   1.806   6.200
10386SOL    HW232058   6.830   1.772   6.156
10387SOL     OW32059   1.701   3.713   2.766
10387SOL    HW132060   1.766   3.668   2.705
10387SOL    HW232061   1.621   3.654   2.778
10388SOL     OW32062   1.657   4.030   2.204
10388SOL    HW132063   1.625   3.957   2.263
10388SOL    HW232064   1.596   4.109   2.213
10389SOL     OW32065   0.927   5.532   3.747
10389SOL    HW132066   0.987   5.548   3.668
10389SOL    HW232067   0.911   5.618   3.795
10390SOL     OW32068   2.091   3.939   3.443
10390SOL    HW132069   2.160   4.012   3.442
10390SOL    HW232070   2.093   3.891   3.356
10391SOL     OW32071   3.908   5.958   4.532
10391SOL    HW132072   3.902   6.058   4.544
10391SOL    HW232073   3.863   5.932   4.447
10392SOL     OW32074   6.260   5.306   6.328
10392SOL    HW132075   6.253   5.224   6.384
10392SOL    HW232076   6.179   5.314   6.269
10393SOL     OW32077   0.374   0.974   4.791
10393SOL    HW132078   0.357   1.051   4.730
10393SOL    HW232079   0.466   0.937   4.774
10394SOL     OW32080   3.375   0.022   0.994
10394SOL    HW132081   3.393   0.118   1.014
10394SOL    HW232082   3.276   0.005   0.995
10395SOL     OW32083   1.328   0.997   4.375
10395SOL    HW132084   1.362   1.073   4.319
10395SOL    HW232085   1.246   0.959   4.332
10396SOL     OW32086   0.342   7.001   5.013
10396SOL    HW132087   0.362   6.914   4.968
10396SOL    HW232088   0.344   0.060   4.946
10397SOL     OW32089   4.395   2.313   2.242
10397SOL    HW132090   4.459   2.371   2.293
10397SOL    HW232091   4.331   2.271   2.305
10398SOL     OW32092   0.053   3.034   2.139
10398SOL    HW132093   0.151   3.049   2.150
10398SOL    HW232094   0.005   3.071   2.218
10399SOL     OW32095   6.571   3.155   5.573
10399SOL    HW132096   6.632   3.226   5.610
10399SOL    HW232097   6.553   3.087   5.644
10400SOL     OW32098   1.752   4.964   1.947
10400SOL    HW132099   1.669   4.916   1.918
10400SOL    HW232100   1.789   4.922   2.029
10401SOL     OW32101   1.306   5.214   1.165
10401SOL    HW132102   1.355   5.197   1.079
10401SOL    HW232103   1.217   5.254   1.146
10402SOL     OW32104   1.054   2.127   4.636
10402SOL    HW132105   0.998   2.192   4.688
10402SOL    HW232106   0.997   2.052   4.604
10403SOL     OW32107   5.269   0.816   2.591
10403SOL    HW132108   5.242   0.897   2.539
10403SOL    HW232109   5.267   0.837   2.689
10404SOL     OW32110   0.278   0.564   4.050
10404SOL    HW132111   0.308   0.558   4.146
10404SOL    HW232112   0.179   0.576   4.048
10405SOL     OW32113   3.073   6.640   0.166
10405SOL    HW132114   3.023   6.668   0.083
10405SOL    HW232115   3.072   6.541   0.173
10406SOL     OW32116   1.672   5.869   5.374
10406SOL    HW132117   1.715   5.780   5.388
10406SOL    HW232118   1.622   5.896   5.456
10407SOL     OW32119   2.568   1.050   6.320
10407SOL    HW132120   2.630   1.007   6.255
10407SOL    HW232121   2.475   1.051   6.281
10408SOL     OW32122   3.539   0.039   2.911
10408SOL    HW132123   3.523   7.004   2.996
10408SOL    HW232124   3.580   0.128   2.932
10409SOL     OW32125   0.069   4.725   2.393
10409SOL    HW132126   0.077   4.736   2.294
10409SOL    HW232127   0.067   4.816   2.436
10410SOL     OW32128   5.191   5.840   1.209
10410SOL    HW132129   5.142   5.916   1.252
10410SOL    HW232130   5.205   5.767   1.276
10411SOL     OW32131   2.227   4.974   2.436
10411SOL    HW132132   2.129   4.975   2.455
10411SOL    HW232133   2.266   4.885   2.463
10412SOL     OW32134   0.561   2.784   6.912
10412SOL    HW132135   0.561   2.832   6.999
10412SOL    HW232136   0.542   2.849   6.838
10413SOL     OW32137   6.650   1.736   4.961
10413SOL    HW132138   6.735   1.728   4.908
10413SOL    HW232139   6.657   1.813   5.025
10414SOL     OW32140   5.411   6.148   5.181
10414SOL    HW132141   5.433   6.061   5.137
10414SOL    HW232142   5.407   6.220   5.111
10415SOL     OW32143   6.928   5.170   3.269
10415SOL    HW132144   0.001   5.206   3.298
10415SOL    HW232145   6.940   5.116   3.186
10416SOL     OW32146   5.335   0.526   0.208
10416SOL    HW132147   5.393   0.555   0.284
10416SOL    HW232148   5.346   0.428   0.195
10417SOL     OW32149   4.864   4.371   4.445
10417SOL    HW132150   4.865   4.432   4.366
10417SOL    HW232151   4.790   4.305   4.435
10418SOL     OW32152   6.027   3.295   0.098
10418SOL    HW132153   5.970   3.362   0.052
10418SOL    HW232154   6.084   3.247   0.031
10419SOL     OW32155   1.275   0.163   4.478
10419SOL    HW132156   1.299   0.116   4.393
10419SOL    HW232157   1.288   0.261   4.466
10420SOL     OW32158   6.263   3.819   4.191
10420SOL    HW132159   6.303   3.762   4.119
10420SOL    HW232160   6.217   3.898   4.150
10421SOL     OW32161   0.008   3.545   4.537
10421SOL    HW132162   6.961   3.476   4.499
10421SOL    HW232163   6.972   3.605   4.598
10422SOL     OW32164   5.613   3.031   5.672
10422SOL    HW132165   5.682   2.976   5.719
10422SOL    HW232166   5.549   3.070   5.739
10423SOL     OW32167   2.518   5.620   2.496
10423SOL    HW132168   2.512   5.581   2.588
10423SOL    HW232169   2.474   5.559   2.431
10424SOL     OW32170   4.478   0.781   2.195
10424SOL    HW132171   4.444   0.779   2.102
10424SOL    HW232172   4.487   0.876   2.226
10425SOL     OW32173   0.941   4.229   0.470
10425SOL    HW132174   0.987   4.146   0.440
10425SOL    HW232175   0.843   4.212   0.479
10426SOL     OW32176   6.531   2.139   0.432
10426SOL    HW132177   6.550   2.233   0.461
10426SOL    HW232178   6.512   2.082   0.512
10427SOL     OW32179   6.251   0.245   3.910
10427SOL    HW132180   6.293   0.157   3.934
10427SOL    HW232181   6.322   0.315   3.900
10428SOL     OW32182   1.705   6.592   4.544
10428SOL    HW132183   1.683   6.670   4.602
10428SOL    HW232184   1.620   6.549   4.512
10429SOL     OW32185   2.296   4.171   2.244
10429SOL    HW132186   2.213   4.204   2.198
10429SOL    HW232187   2.365   4.243   2.244
10430SOL     OW32188   3.333   0.767   3.771
10430SOL    HW132189   3.406   0.824   3.807
10430SOL    HW232190   3.245   0.801   3.803
10431SOL     OW32191   4.315   2.326   4.074
10431SOL    HW132192   4.261   2.287   4.149
10431SOL    HW232193   4.335   2.255   4.007
10432SOL     OW32194   0.686   4.886   1.034
10432SOL    HW132195   0.644   4.795   1.026
10432SOL    HW232196   0.663   4.925   1.123
10433SOL     OW32197   3.452   6.403   4.480
10433SOL    HW132198   3.505   6.447   4.552
10433SOL    HW232199   3.442   6.465   4.402
10434SOL     OW32200   4.139   1.491   6.932
10434SOL    HW132201   4.180   1.571   6.975
10434SOL    HW232202   4.077   1.520   6.859
10435SOL     OW32203   2.378   1.358   1.793
10435SOL    HW132204   2.446   1.428   1.813
10435SOL    HW232205   2.344   1.368   1.700
10436SOL     OW32206   0.803   3.618   5.365
10436SOL    HW132207   0.833   3.596   5.272
10436SOL    HW232208   0.703   3.619   5.368
10437SOL     OW32209   6.888   6.707   4.928
10437SOL    HW132210   6.789   6.697   4.917
10437SOL    HW232211   6.933   6.676   4.844
10438SOL     OW32212   6.784   5.810   6.741
10438SOL    HW132213   6.865   5.807   6.683
10438SOL    HW232214   6.811   5.812   6.838
10439SOL     OW32215   6.003   5.697   4.851
10439SOL    HW132216   5.905   5.679   4.840
10439SOL    HW232217   6.034   5.663   4.940
10440SOL     OW32218   6.106   2.606   1.015
10440SOL    HW132219   6.025   2.652   1.051
10440SOL    HW232220   6.079   2.518   0.975
10441SOL     OW32221   4.676   1.565   6.393
10441SOL    HW132222   4.764   1.527   6.366
10441SOL    HW232223   4.618   1.492   6.429
10442SOL     OW32224   2.269   0.759   5.266
10442SOL    HW132225   2.346   0.713   5.309
10442SOL    HW232226   2.246   0.842   5.317
10443SOL     OW32227   0.608   0.890   0.209
10443SOL    HW132228   0.521   0.879   0.162
10443SOL    HW232229   0.610   0.834   0.292
10444SOL     OW32230   4.541   5.507   3.837
10444SOL    HW132231   4.474   5.537   3.769
10444SOL    HW232232   4.591   5.587   3.872
10445SOL     OW32233   1.025   3.406   3.883
10445SOL    HW132234   1.031   3.427   3.981
10445SOL    HW232235   0.982   3.316   3.872
10446SOL     OW32236   2.382   4.718   4.892
10446SOL    HW132237   2.471   4.706   4.936
10446SOL    HW232238   2.361   4.638   4.836
10447SOL     OW32239   1.496   2.169   2.907
10447SOL    HW132240   1.439   2.251   2.900
10447SOL    HW232241   1.572   2.186   2.969
10448SOL     OW32242   0.527   5.354   2.802
10448SOL    HW132243   0.434   5.325   2.782
10448SOL    HW232244   0.563   5.301   2.879
10449SOL     OW32245   3.896   4.885   4.564
10449SOL    HW132246   3.958   4.901   4.640
10449SOL    HW232247   3.841   4.803   4.583
10450SOL     OW32248   0.445   2.127   4.187
10450SOL    HW132249   0.360   2.080   4.165
10450SOL    HW232250   0.428   2.197   4.256
10451SOL     OW32251   2.728   1.724   4.793
10451SOL    HW132252   2.631   1.737   4.773
10451SOL    HW232253   2.759   1.795   4.857
10452SOL     OW32254   6.667   2.860   4.291
10452SOL    HW132255   6.765   2.862   4.309
10452SOL    HW232256   6.636   2.765   4.283
10453SOL     OW32257   2.846   5.266   4.120
10453SOL    HW132258   2.887   5.301   4.036
10453SOL    HW232259   2.753   5.235   4.101
10454SOL     OW32260   6.841   1.320   6.970
10454SOL    HW132261   6.752   1.364   6.962
10454SOL    HW232262   6.913   1.384   6.942
10455SOL     OW32263   0.512   5.801   2.516
10455SOL    HW132264   0.582   5.783   2.585
10455SOL    HW232265   0.425   5.821   2.561
10456SOL     OW32266   1.806   5.259   6.634
10456SOL    HW132267   1.898   5.264   6.673
10456SOL    HW232268   1.812   5.239   6.536
10457SOL     OW32269   4.218   1.163   0.815
10457SOL    HW132270   4.221   1.161   0.915
10457SOL    HW232271   4.128   1.136   0.783
10458SOL     OW32272   1.531   6.410   0.222
10458SOL    HW132273   1.464   6.435   0.293
10458SOL    HW232274   1.495   6.434   0.132
10459SOL     OW32275   5.556   6.218   0.996
10459SOL    HW132276   5.555   6.317   0.990
10459SOL    HW232277   5.496   6.188   1.070
10460SOL     OW32278   6.440   1.135   6.232
10460SOL    HW132279   6.468   1.083   6.313
10460SOL    HW232280   6.343   1.156   6.238
10461SOL     OW32281   6.875   3.947   5.251
10461SOL    HW132282   6.835   3.862   5.216
10461SOL    HW232283   6.836   3.967   5.341
10462SOL     OW32284   4.279   3.810   0.009
10462SOL    HW132285   4.199   3.856   0.049
10462SOL    HW232286   4.359   3.869   0.019
10463SOL     OW32287   4.711   2.335   5.235
10463SOL    HW132288   4.624   2.335   5.185
10463SOL    HW232289   4.764   2.254   5.210
10464SOL     OW32290   6.549   4.846   1.863
10464SOL    HW132291   6.558   4.759   1.814
10464SOL    HW232292   6.457   4.883   1.849
10465SOL     OW32293   5.319   4.478   1.386
10465SOL    HW132294   5.241   4.428   1.347
10465SOL    HW232295   5.335   4.561   1.333
10466SOL     OW32296   5.832   4.135   5.075
10466SOL    HW132297   5.885   4.114   5.158
10466SOL    HW232298   5.867   4.218   5.033
10467SOL     OW32299   0.286   3.034   6.428
10467SOL    HW132300   0.201   3.081   6.453
10467SOL    HW232301   0.361   3.073   6.481
10468SOL     OW32302   1.499   3.811   3.820
10468SOL    HW132303   1.424   3.777   3.876
10468SOL    HW232304   1.500   3.910   3.821
10469SOL     OW32305   1.367   1.122   4.103
10469SOL    HW132306   1.441   1.184   4.078
10469SOL    HW232307   1.346   1.062   4.026
10470SOL     OW32308   2.239   3.776   1.685
10470SOL    HW132309   2.229   3.694   1.629
10470SOL    HW232310   2.222   3.754   1.781
10471SOL     OW32311   2.718   4.780   5.780
10471SOL    HW132312   2.725   4.833   5.695
10471SOL    HW232313   2.792   4.712   5.782
10472SOL     OW32314   4.585   5.353   5.853
10472SOL    HW132315   4.583   5.444   5.893
10472SOL    HW232316   4.569   5.359   5.755
10473SOL     OW32317   6.136   5.469   0.266
10473SOL    HW132318   6.205   5.413   0.220
10473SOL    HW232319   6.145   5.459   0.365
10474SOL     OW32320   6.185   5.922   5.332
10474SOL    HW132321   6.099   5.907   5.381
10474SOL    HW232322   6.235   5.836   5.326
10475SOL     OW32323   0.498   5.706   1.077
10475SOL    HW132324   0.597   5.692   1.089
10475SOL    HW232325   0.477   5.803   1.094
10476SOL     OW32326   5.241   6.646   1.320
10476SOL    HW132327   5.277   6.664   1.228
10476SOL    HW232328   5.145   6.672   1.324
10477SOL     OW32329   7.000   5.610   3.717
10477SOL    HW132330   6.919   5.615   3.774
10477SOL    HW232331   6.990   5.535   3.651
10478SOL     OW32332   6.981   0.559   6.727
10478SOL    HW132333   0.041   0.537   6.664
10478SOL    HW232334   6.919   0.481   6.733
10479SOL     OW32335   0.132   3.960   2.418
10479SOL    HW132336   0.087   4.049   2.409
10479SOL    HW232337   0.104   3.917   2.504
10480SOL     OW32338   2.393   0.788   3.233
10480SOL    HW132339   2.464   0.839   3.282
10480SOL    HW232340   2.366   0.708   3.287
10481SOL     OW32341   6.401   1.229   1.178
10481SOL    HW132342   6.471   1.160   1.198
10481SOL    HW232343   6.444   1.319   1.171
10482SOL     OW32344   5.457   4.055   3.948
10482SOL    HW132345   5.483   4.124   4.015
10482SOL    HW232346   5.366   4.076   3.913
10483SOL     OW32347   6.125   1.057   6.750
10483SOL    HW132348   6.168   1.006   6.676
10483SOL    HW232349   6.061   1.124   6.713
10484SOL     OW32350   6.047   1.062   1.963
10484SOL    HW132351   6.043   1.053   1.864
10484SOL    HW232352   6.007   1.150   1.990
10485SOL     OW32353   5.911   3.410   5.811
10485SOL    HW132354   5.812   3.407   5.816
10485SOL    HW232355   5.945   3.327   5.765
10486SOL     OW32356   5.751   2.899   2.073
10486SOL    HW132357   5.784   2.807   2.095
10486SOL    HW232358   5.714   2.900   1.980
10487SOL     OW32359   4.084   6.843   2.253
10487SOL    HW132360   4.111   6.748   2.237
10487SOL    HW232361   4.008   6.846   2.318
10488SOL     OW32362   4.119   3.904   6.781
10488SOL    HW132363   4.025   3.870   6.776
10488SOL    HW232364   4.164   3.865   6.862
10489SOL     OW32365   1.798   5.039   5.439
10489SOL    HW132366   1.731   5.061   5.510
10489SOL    HW232367   1.858   4.966   5.471
10490SOL     OW32368   6.233   0.008   4.789
10490SOL    HW132369   6.267   6.978   4.707
10490SOL    HW232370   6.303   0.072   4.822
10491SOL     OW32371   6.377   5.699   5.357
10491SOL    HW132372   6.309   5.627   5.372
10491SOL    HW232373   6.459   5.659   5.315
10492SOL     OW32374   5.213   4.417   5.610
10492SOL    HW132375   5.113   4.420   5.613
10492SOL    HW232376   5.247   4.474   5.536
10493SOL     OW32377   3.179   1.588   1.122
10493SOL    HW132378   3.202   1.578   1.026
10493SOL    HW232379   3.181   1.685   1.148
10494SOL     OW32380   5.582   1.427   5.420
10494SOL    HW132381   5.600   1.334   5.452
10494SOL    HW232382   5.669   1.473   5.400
10495SOL     OW32383   2.019   6.888   6.325
10495SOL    HW132384   2.028   6.972   6.379
10495SOL    HW232385   2.075   6.895   6.242
10496SOL     OW32386   6.583   6.815   5.413
10496SOL    HW132387   6.554   6.805   5.318
10496SOL    HW232388   6.662   6.757   5.430
10497SOL     OW32389   1.842   1.604   6.541
10497SOL    HW132390   1.746   1.624   6.558
10497SOL    HW232391   1.883   1.679   6.488
10498SOL     OW32392   3.317   5.376   5.692
10498SOL    HW132393   3.298   5.471   5.715
10498SOL    HW232394   3.246   5.317   5.731
10499SOL     OW32395   2.969   5.774   3.153
10499SOL    HW132396   2.899   5.706   3.130
10499SOL    HW232397   2.980   5.838   3.076
10500SOL     OW32398   2.323   2.075   6.571
10500SOL    HW132399   2.285   2.111   6.486
10500SOL    HW232400   2.324   1.975   6.568
10501SOL     OW32401   2.073   3.810   2.863
10501SOL    HW132402   2.005   3.831   2.793
10501SOL    HW232403   2.059   3.716   2.896
10502SOL     OW32404   3.247   5.598   4.324
10502SOL    HW132405   3.286   5.512   4.355
10502SOL    HW232406   3.307   5.640   4.256
10503SOL     OW32407   2.148   3.147   6.143
10503SOL    HW132408   2.120   3.234   6.103
10503SOL    HW232409   2.238   3.159   6.187
10504SOL     OW32410   2.098   3.372   1.260
10504SOL    HW132411   2.052   3.291   1.225
10504SOL    HW232412   2.031   3.444   1.279
10505SOL     OW32413   1.184   6.370   0.232
10505SOL    HW132414   1.093   6.385   0.271
10505SOL    HW232415   1.185   6.283   0.183
10506SOL     OW32416   6.740   4.799   5.529
10506SOL    HW132417   6.799   4.734   5.576
10506SOL    HW232418   6.651   4.757   5.512
10507SOL     OW32419   2.380   0.103   3.635
10507SOL    HW132420   2.391   0.062   3.544
10507SOL    HW232421   2.366   0.201   3.626
10508SOL     OW32422   5.856   4.176   2.959
10508SOL    HW132423   5.865   4.096   3.018
10508SOL    HW232424   5.768   4.220   2.975
10509SOL     OW32425   2.096   0.852   5.077
10509SOL    HW132426   2.148   0.796   5.142
10509SOL    HW232427   2.102   0.810   4.986
10510SOL     OW32428   5.769   0.908   6.738
10510SOL    HW132429   5.673   0.879   6.736
10510SOL    HW232430   5.823   0.847   6.680
10511SOL     OW32431   6.646   2.786   1.959
10511SOL    HW132432   6.711   2.737   1.901
10511SOL    HW232433   6.695   2.856   2.011
10512SOL     OW32434   2.350   0.387   6.071
10512SOL    HW132435   2.431   0.419   6.121
10512SOL    HW232436   2.284   0.461   6.063
10513SOL     OW32437   0.452   2.263   0.667
10513SOL    HW132438   0.534   2.206   0.669
10513SOL    HW232439   0.469   2.345   0.612
10514SOL     OW32440   1.078   2.824   1.851
10514SOL    HW132441   1.127   2.768   1.785
10514SOL    HW232442   0.994   2.860   1.809
10515SOL     OW32443   0.209   3.090   4.949
10515SOL    HW132444   0.185   3.161   5.016
10515SOL    HW232445   0.195   3.125   4.857
10516SOL     OW32446   2.291   0.051   1.041
10516SOL    HW132447   2.351   0.011   1.110
10516SOL    HW232448   2.346   0.089   0.967
10517SOL     OW32449   0.585   2.718   2.981
10517SOL    HW132450   0.580   2.618   2.974
10517SOL    HW232451   0.496   2.753   3.012
10518SOL     OW32452   0.595   5.940   2.937
10518SOL    HW132453   0.685   5.909   2.969
10518SOL    HW232454   0.534   5.862   2.925
10519SOL     OW32455   4.413   3.038   5.806
10519SOL    HW132456   4.440   3.040   5.902
10519SOL    HW232457   4.444   3.122   5.761
10520SOL     OW32458   2.974   4.960   6.115
10520SOL    HW132459   2.990   4.887   6.049
10520SOL    HW232460   3.051   4.965   6.179
10521SOL     OW32461   6.692   5.576   2.114
10521SOL    HW132462   6.633   5.573   2.033
10521SOL    HW232463   6.646   5.628   2.186
10522SOL     OW32464   6.958   0.108   2.298
10522SOL    HW132465   6.865   0.090   2.267
10522SOL    HW232466   6.987   0.035   2.361
10523SOL     OW32467   6.382   6.601   6.389
10523SOL    HW132468   6.384   6.686   6.442
10523SOL    HW232469   6.306   6.603   6.325
10524SOL     OW32470   4.586   1.072   4.543
10524SOL    HW132471   4.655   1.001   4.551
10524SOL    HW232472   4.522   1.050   4.469
10525SOL     OW32473   2.915   6.855   4.816
10525SOL    HW132474   2.842   6.913   4.782
10525SOL    HW232475   2.937   6.880   4.910
10526SOL     OW32476   4.466   6.510   2.646
10526SOL    HW132477   4.558   6.541   2.624
10526SOL    HW232478   4.471   6.433   2.710
10527SOL     OW32479   1.741   2.679   4.731
10527SOL    HW132480   1.731   2.609   4.802
10527SOL    HW232481   1.834   2.676   4.695
10528SOL     OW32482   5.912   4.932   5.985
10528SOL    HW132483   5.969   4.860   5.944
10528SOL    HW232484   5.970   5.004   6.021
10529SOL     OW32485   0.274   6.176   4.649
10529SOL    HW132486   0.228   6.101   4.697
10529SOL    HW232487   0.326   6.138   4.571
10530SOL     OW32488   1.828   2.298   5.313
10530SOL    HW132489   1.862   2.310   5.219
10530SOL    HW232490   1.869   2.368   5.372
10531SOL     OW32491   1.908   2.264   5.053
10531SOL    HW132492   1.904   2.191   4.984
10531SOL    HW232493   1.999   2.305   5.053
10532SOL     OW32494   3.178   3.489   4.904
10532SOL    HW132495   3.161   3.585   4.927
10532SOL    HW232496   3.274   3.477   4.879
10533SOL     OW32497   3.169   1.139   6.367
10533SOL    HW132498   3.071   1.139   6.347
10533SOL    HW232499   3.187   1.197   6.447
10534SOL     OW32500   6.038   4.984   1.603
10534SOL    HW132501   6.047   4.888   1.577
10534SOL    HW232502   5.965   4.993   1.671
10535SOL     OW32503   6.847   0.957   1.609
10535SOL    HW132504   6.771   1.011   1.643
10535SOL    HW232505   6.922   1.018   1.582
10536SOL     OW32506   5.630   5.845   3.153
10536SOL    HW132507   5.615   5.944   3.159
10536SOL    HW232508   5.633   5.817   3.057
10537SOL     OW32509   6.223   5.648   1.431
10537SOL    HW132510   6.275   5.722   1.389
10537SOL    HW232511   6.166   5.604   1.361
10538SOL     OW32512   4.139   3.555   6.991
10538SOL    HW132513   4.189   3.641   6.998
10538SOL    HW232514   4.168   3.506   6.909
10539SOL     OW32515   0.840   3.066   5.260
10539SOL    HW132516   0.903   3.134   5.224
10539SOL    HW232517   0.866   2.975   5.228
10540SOL     OW32518   3.598   0.594   0.358
10540SOL    HW132519   3.502   0.605   0.328
10540SOL    HW232520   3.629   0.502   0.334
10541SOL     OW32521   3.826   2.871   1.774
10541SOL    HW132522   3.778   2.785   1.758
10541SOL    HW232523   3.768   2.947   1.744
10542SOL     OW32524   1.732   1.956   0.560
10542SOL    HW132525   1.640   1.929   0.531
10542SOL    HW232526   1.797   1.939   0.485
10543SOL     OW32527   2.093   0.073   4.553
10543SOL    HW132528   2.179   0.123   4.541
10543SOL    HW232529   2.083   0.005   4.481
10544SOL     OW32530   6.818   2.408   1.856
10544SOL    HW132531   6.734   2.364   1.826
10544SOL    HW232532   6.825   2.499   1.815
10545SOL     OW32533   4.533   1.597   3.009
10545SOL    HW132534   4.579   1.675   2.966
10545SOL    HW232535   4.514   1.618   3.105
10546SOL     OW32536   4.492   1.297   5.808
10546SOL    HW132537   4.559   1.315   5.736
10546SOL    HW232538   4.404   1.274   5.765
10547SOL     OW32539   4.710   6.398   1.812
10547SOL    HW132540   4.793   6.352   1.844
10547SOL    HW232541   4.630   6.354   1.853
10548SOL     OW32542   4.163   4.101   5.391
10548SOL    HW132543   4.105   4.144   5.322
10548SOL    HW232544   4.112   4.026   5.434
10549SOL     OW32545   1.236   1.715   1.939
10549SOL    HW132546   1.283   1.745   1.857
10549SOL    HW232547   1.249   1.616   1.951
10550SOL     OW32548   5.209   6.929   4.695
10550SOL    HW132549   5.201   6.831   4.711
10550SOL    HW232550   5.289   6.964   4.743
10551SOL     OW32551   1.004   2.802   6.433
10551SOL    HW132552   0.939   2.726   6.427
10551SOL    HW232553   0.969   2.870   6.498
10552SOL     OW32554   3.482   1.658   5.112
10552SOL    HW132555   3.486   1.670   5.211
10552SOL    HW232556   3.478   1.561   5.091
10553SOL     OW32557   2.884   5.215   6.109
10553SOL    HW132558   2.930   5.126   6.111
10553SOL    HW232559   2.867   5.245   6.203
10554SOL     OW32560   6.367   3.817   5.901
10554SOL    HW132561   6.294   3.811   5.968
10554SOL    HW232562   6.330   3.846   5.813
10555SOL     OW32563   3.677   3.099   1.701
10555SOL    HW132564   3.737   3.175   1.675
10555SOL    HW232565   3.588   3.135   1.730
10556SOL     OW32566   1.051   3.667   3.766
10556SOL    HW132567   1.132   3.691   3.820
10556SOL    HW232568   1.015   3.580   3.798
10557SOL     OW32569   5.313   1.406   3.669
10557SOL    HW132570   5.226   1.456   3.659
10557SOL    HW232571   5.343   1.375   3.580
10558SOL     OW32572   5.091   6.148   5.177
10558SOL    HW132573   5.065   6.058   5.210
10558SOL    HW232574   5.190   6.151   5.161
10559SOL     OW32575   4.191   2.749   0.466
10559SOL    HW132576   4.289   2.727   0.469
10559SOL    HW232577   4.159   2.743   0.371
10560SOL     OW32578   6.662   2.229   4.177
10560SOL    HW132579   6.669   2.195   4.271
10560SOL    HW232580   6.725   2.306   4.165
10561SOL     OW32581   2.073   4.148   6.647
10561SOL    HW132582   1.989   4.113   6.690
10561SOL    HW232583   2.057   4.160   6.549
10562SOL     OW32584   3.649   1.659   0.365
10562SOL    HW132585   3.557   1.623   0.350
10562SOL    HW232586   3.716   1.585   0.357
10563SOL     OW32587   1.188   2.046   2.884
10563SOL    HW132588   1.117   1.977   2.898
10563SOL    HW232589   1.208   2.054   2.787
10564SOL     OW32590   6.818   2.242   2.587
10564SOL    HW132591   6.746   2.174   2.597
10564SOL    HW232592   6.889   2.227   2.656
10565SOL     OW32593   5.105   1.720   5.042
10565SOL    HW132594   5.094   1.622   5.055
10565SOL    HW232595   5.202   1.742   5.031
10566SOL     OW32596   4.818   5.086   6.718
10566SOL    HW132597   4.803   5.145   6.639
10566SOL    HW232598   4.883   5.013   6.694
10567SOL     OW32599   2.629   5.363   4.713
10567SOL    HW132600   2.565   5.407   4.777
10567SOL    HW232601   2.699   5.314   4.765
10568SOL     OW32602   3.539   1.438   2.971
10568SOL    HW132603   3.460   1.399   2.923
10568SOL    HW232604   3.514   1.528   3.008
10569SOL     OW32605   6.367   2.290   3.517
10569SOL    HW132606   6.331   2.196   3.520
10569SOL    HW232607   6.306   2.347   3.462
10570SOL     OW32608   1.317   4.441   0.854
10570SOL    HW132609   1.260   4.500   0.798
10570SOL    HW232610   1.406   4.484   0.870
10571SOL     OW32611   6.581   6.864   4.709
10571SOL    HW132612   6.645   6.817   4.649
10571SOL    HW232613   6.627   6.942   4.753
10572SOL     OW32614   6.702   3.892   1.733
10572SOL    HW132615   6.747   3.860   1.649
10572SOL    HW232616   6.725   3.831   1.808
10573SOL     OW32617   6.354   5.170   5.575
10573SOL    HW132618   6.393   5.121   5.654
10573SOL    HW232619   6.420   5.238   5.542
10574SOL     OW32620   0.621   2.443   2.954
10574SOL    HW132621   0.605   2.377   3.027
10574SOL    HW232622   0.670   2.399   2.879
10575SOL     OW32623   0.998   6.601   6.662
10575SOL    HW132624   1.087   6.555   6.657
10575SOL    HW232625   0.925   6.534   6.648
10576SOL     OW32626   1.139   5.674   3.287
10576SOL    HW132627   1.233   5.698   3.263
10576SOL    HW232628   1.110   5.595   3.234
10577SOL     OW32629   0.572   2.239   5.863
10577SOL    HW132630   0.488   2.235   5.810
10577SOL    HW232631   0.581   2.156   5.918
10578SOL     OW32632   5.115   0.977   5.394
10578SOL    HW132633   5.038   0.983   5.331
10578SOL    HW232634   5.189   0.924   5.352
10579SOL     OW32635   5.346   6.827   0.405
10579SOL    HW132636   5.312   6.883   0.329
10579SOL    HW232637   5.282   6.753   0.424
10580SOL     OW32638   0.453   5.530   6.678
10580SOL    HW132639   0.357   5.535   6.703
10580SOL    HW232640   0.481   5.434   6.673
10581SOL     OW32641   4.586   2.644   3.521
10581SOL    HW132642   4.637   2.728   3.501
10581SOL    HW232643   4.575   2.592   3.436
10582SOL     OW32644   3.159   4.667   0.038
10582SOL    HW132645   3.168   4.646   6.956
10582SOL    HW232646   3.069   4.636   0.071
10583SOL     OW32647   4.579   1.360   1.237
10583SOL    HW132648   4.542   1.452   1.248
10583SOL    HW232649   4.517   1.306   1.181
10584SOL     OW32650   5.905   6.602   1.292
10584SOL    HW132651   5.918   6.699   1.312
10584SOL    HW232652   5.923   6.585   1.196
10585SOL     OW32653   2.945   4.120   6.209
10585SOL    HW132654   3.000   4.187   6.158
10585SOL    HW232655   2.859   4.163   6.238
10586SOL     OW32656   4.818   1.960   1.501
10586SOL    HW132657   4.746   2.029   1.497
10586SOL    HW232658   4.844   1.934   1.408
10587SOL     OW32659   6.282   3.135   0.312
10587SOL    HW132660   6.234   3.215   0.346
10587SOL    HW232661   6.226   3.087   0.245
10588SOL     OW32662   1.563   4.933   3.380
10588SOL    HW132663   1.596   4.848   3.338
10588SOL    HW232664   1.596   4.938   3.475
10589SOL     OW32665   6.073   1.454   3.983
10589SOL    HW132666   6.041   1.501   3.901
10589SOL    HW232667   6.093   1.358   3.961
10590SOL     OW32668   1.743   6.956   5.313
10590SOL    HW132669   1.773   6.899   5.237
10590SOL    HW232670   1.750   0.037   5.288
10591SOL     OW32671   1.740   2.203   1.771
10591SOL    HW132672   1.781   2.294   1.763
10591SOL    HW232673   1.701   2.191   1.862
10592SOL     OW32674   5.200   1.443   6.218
10592SOL    HW132675   5.228   1.537   6.200
10592SOL    HW232676   5.204   1.390   6.133
10593SOL     OW32677   1.125   4.148   1.639
10593SOL    HW132678   1.217   4.173   1.608
10593SOL    HW232679   1.119   4.161   1.738
10594SOL     OW32680   1.347   1.287   4.694
10594SOL    HW132681   1.305   1.332   4.616
10594SOL    HW232682   1.344   1.188   4.681
10595SOL     OW32683   1.954   5.968   4.729
10595SOL    HW132684   2.007   6.014   4.657
10595SOL    HW232685   1.901   5.893   4.688
10596SOL     OW32686   2.985   1.220   1.697
10596SOL    HW132687   2.937   1.145   1.743
10596SOL    HW232688   3.083   1.217   1.721
10597SOL     OW32689   1.430   0.481   3.847
10597SOL    HW132690   1.484   0.520   3.772
10597SOL    HW232691   1.406   0.386   3.824
10598SOL     OW32692   2.479   0.746   0.605
10598SOL    HW132693   2.553   0.681   0.622
10598SOL    HW232694   2.474   0.767   0.508
10599SOL     OW32695   4.751   0.387   6.682
10599SOL    HW132696   4.796   0.475   6.666
10599SOL    HW232697   4.739   0.339   6.596
10600SOL     OW32698   1.734   3.279   4.919
10600SOL    HW132699   1.806   3.211   4.932
10600SOL    HW232700   1.673   3.251   4.846
10601SOL     OW32701   3.484   6.509   5.245
10601SOL    HW132702   3.395   6.529   5.203
10601SOL    HW232703   3.555   6.512   5.174
10602SOL     OW32704   4.591   2.190   1.797
10602SOL    HW132705   4.668   2.151   1.847
10602SOL    HW232706   4.615   2.281   1.763
10603SOL     OW32707   0.775   5.031   5.145
10603SOL    HW132708   0.841   5.081   5.089
10603SOL    HW232709   0.812   4.940   5.167
10604SOL     OW32710   0.504   3.918   6.065
10604SOL    HW132711   0.558   3.983   6.118
10604SOL    HW232712   0.418   3.960   6.037
10605SOL     OW32713   1.719   5.014   6.249
10605SOL    HW132714   1.736   5.083   6.320
10605SOL    HW232715   1.648   5.046   6.187
10606SOL     OW32716   0.522   1.600   2.026
10606SOL    HW132717   0.610   1.551   2.025
10606SOL    HW232718   0.501   1.628   2.120
10607SOL     OW32719   5.400   4.290   6.458
10607SOL    HW132720   5.480   4.238   6.426
10607SOL    HW232721   5.361   4.245   6.537
10608SOL     OW32722   5.623   6.766   2.387
10608SOL    HW132723   5.545   6.768   2.324
10608SOL    HW232724   5.653   6.860   2.404
10609SOL     OW32725   3.951   6.824   2.671
10609SOL    HW132726   3.889   6.852   2.744
10609SOL    HW232727   4.019   6.760   2.708
10610SOL     OW32728   1.998   4.272   4.975
10610SOL    HW132729   2.044   4.225   5.050
10610SOL    HW232730   2.033   4.239   4.887
10611SOL     OW32731   4.945   2.141   5.992
10611SOL    HW132732   5.030   2.092   5.975
10611SOL    HW232733   4.902   2.165   5.905
10612SOL     OW32734   1.831   0.258   1.022
10612SOL    HW132735   1.769   0.305   1.084
10612SOL    HW232736   1.819   0.159   1.032
10613SOL     OW32737   0.860   6.331   6.841
10613SOL    HW132738   0.947   6.363   6.877
10613SOL    HW232739   0.788   6.396   6.866
10614SOL     OW32740   0.340   0.506   2.766
10614SOL    HW132741   0.415   0.557   2.808
10614SOL    HW232742   0.262   0.567   2.752
10615SOL     OW32743   0.070   6.726   5.379
10615SOL    HW132744   0.138   6.662   5.413
10615SOL    HW232745   0.065   6.721   5.280
10616SOL     OW32746   3.012   5.860   1.044
10616SOL    HW132747   3.075   5.880   0.968
10616SOL    HW232748   3.063   5.815   1.117
10617SOL     OW32749   0.409   1.117   6.554
10617SOL    HW132750   0.508   1.122   6.544
10617SOL    HW232751   0.387   1.060   6.634
10618SOL     OW32752   6.504   4.306   0.836
10618SOL    HW132753   6.599   4.328   0.815
10618SOL    HW232754   6.464   4.381   0.889
10619SOL     OW32755   0.290   3.277   3.544
10619SOL    HW132756   0.359   3.320   3.486
10619SOL    HW232757   0.228   3.347   3.580
10620SOL     OW32758   1.417   5.496   4.168
10620SOL    HW132759   1.476   5.462   4.094
10620SOL    HW232760   1.469   5.501   4.253
10621SOL     OW32761   3.643   6.415   0.887
10621SOL    HW132762   3.690   6.443   0.971
10621SOL    HW232763   3.710   6.403   0.814
10622SOL     OW32764   3.872   1.962   0.661
10622SOL    HW132765   3.870   1.966   0.761
10622SOL    HW232766   3.952   2.010   0.627
10623SOL     OW32767   6.851   1.299   4.881
10623SOL    HW132768   6.926   1.360   4.856
10623SOL    HW232769   6.773   1.353   4.914
10624SOL     OW32770   2.806   1.153   4.440
10624SOL    HW132771   2.708   1.156   4.424
10624SOL    HW232772   2.849   1.234   4.399
10625SOL     OW32773   0.754   2.752   0.728
10625SOL    HW132774   0.827   2.815   0.754
10625SOL    HW232775   0.746   2.749   0.628
10626SOL     OW32776   6.958   1.836   2.891
10626SOL    HW132777   7.002   1.833   2.801
10626SOL    HW232778   6.861   1.819   2.881
10627SOL     OW32779   5.158   5.925   4.974
10627SOL    HW132780   5.128   5.893   4.885
10627SOL    HW232781   5.081   5.924   5.038
10628SOL     OW32782   6.354   5.920   5.019
10628SOL    HW132783   6.336   6.009   5.060
10628SOL    HW232784   6.294   5.851   5.060
10629SOL     OW32785   2.641   4.345   6.452
10629SOL    HW132786   2.587   4.405   6.512
10629SOL    HW232787   2.736   4.346   6.481
10630SOL     OW32788   5.227   1.074   1.811
10630SOL    HW132789   5.313   1.068   1.760
10630SOL    HW232790   5.242   1.040   1.904
10631SOL     OW32791   1.165   6.911   4.651
10631SOL    HW132792   1.146   6.814   4.639
10631SOL    HW232793   1.264   6.927   4.644
10632SOL     OW32794   0.052   3.127   6.518
10632SOL    HW132795   0.062   3.161   6.612
10632SOL    HW232796   0.011   3.036   6.520
10633SOL     OW32797   1.133   4.991   0.050
10633SOL    HW132798   1.067   5.057   0.087
10633SOL    HW232799   1.159   4.926   0.122
10634SOL     OW32800   3.589   6.699   2.431
10634SOL    HW132801   3.520   6.727   2.365
10634SOL    HW232802   3.592   6.599   2.436
10635SOL     OW32803   1.711   1.268   1.716
10635SOL    HW132804   1.808   1.244   1.718
10635SOL    HW232805   1.699   1.359   1.758
10636SOL     OW32806   5.129   1.757   0.203
10636SOL    HW132807   5.225   1.762   0.230
10636SOL    HW232808   5.116   1.682   0.138
10637SOL     OW32809   3.151   3.684   6.125
10637SOL    HW132810   3.175   3.630   6.045
10637SOL    HW232811   3.100   3.765   6.097
10638SOL     OW32812   6.093   0.600   5.826
10638SOL    HW132813   6.122   0.563   5.915
10638SOL    HW232814   6.171   0.640   5.779
10639SOL     OW32815   3.581   2.092   5.178
10639SOL    HW132816   3.490   2.098   5.220
10639SOL    HW232817   3.571   2.075   5.080
10640SOL     OW32818   4.807   6.145   0.732
10640SOL    HW132819   4.709   6.122   0.727
10640SOL    HW232820   4.854   6.079   0.789
10641SOL     OW32821   3.407   6.767   0.261
10641SOL    HW132822   3.391   6.669   0.254
10641SOL    HW232823   3.462   6.797   0.183
10642SOL     OW32824   0.693   5.272   0.824
10642SOL    HW132825   0.671   5.370   0.827
10642SOL    HW232826   0.644   5.225   0.898
10643SOL     OW32827   4.089   3.058   5.262
10643SOL    HW132828   4.163   3.020   5.317
10643SOL    HW232829   4.038   2.985   5.219
10644SOL     OW32830   3.871   1.117   5.721
10644SOL    HW132831   3.787   1.069   5.747
10644SOL    HW232832   3.873   1.130   5.622
10645SOL     OW32833   1.904   7.010   4.765
10645SOL    HW132834   1.835   6.941   4.744
10645SOL    HW232835   1.952   0.019   4.681
10646SOL     OW32836   6.845   5.491   6.636
10646SOL    HW132837   6.802   5.574   6.602
10646SOL    HW232838   6.842   5.490   6.736
10647SOL     OW32839   0.272   5.814   0.677
10647SOL    HW132840   0.185   5.862   0.668
10647SOL    HW232841   0.287   5.790   0.773
10648SOL     OW32842   4.918   4.349   5.774
10648SOL    HW132843   4.859   4.308   5.704
10648SOL    HW232844   4.922   4.448   5.760
10649SOL     OW32845   0.295   4.810   6.674
10649SOL    HW132846   0.211   4.783   6.722
10649SOL    HW232847   0.341   4.882   6.725
10650SOL     OW32848   2.485   0.269   5.433
10650SOL    HW132849   2.463   0.231   5.343
10650SOL    HW232850   2.405   0.319   5.468
10651SOL     OW32851   2.061   0.544   4.750
10651SOL    HW132852   1.992   0.487   4.793
10651SOL    HW232853   2.034   0.565   4.656
10652SOL     OW32854   4.807   0.941   0.492
10652SOL    HW132855   4.843   0.903   0.577
10652SOL    HW232856   4.779   1.036   0.507
10653SOL     OW32857   6.088   3.989   3.923
10653SOL    HW132858   6.052   3.959   4.012
10653SOL    HW232859   6.015   4.035   3.873
10654SOL     OW32860   4.750   0.577   1.419
10654SOL    HW132861   4.769   0.625   1.505
10654SOL    HW232862   4.657   0.541   1.420
10655SOL     OW32863   2.364   5.854   1.023
10655SOL    HW132864   2.428   5.891   1.090
10655SOL    HW232865   2.386   5.758   1.006
10656SOL     OW32866   6.540   2.603   6.077
10656SOL    HW132867   6.511   2.554   6.159
10656SOL    HW232868   6.475   2.587   6.003
10657SOL     OW32869   6.354   0.596   1.007
10657SOL    HW132870   6.333   0.668   0.941
10657SOL    HW232871   6.280   0.529   1.010
10658SOL     OW32872   0.048   6.319   4.046
10658SOL    HW132873   0.088   6.328   3.955
10658SOL    HW232874   7.009   6.235   4.050
10659SOL     OW32875   5.058   1.207   1.262
10659SOL    HW132876   4.976   1.255   1.292
10659SOL    HW232877   5.056   1.113   1.297
10660SOL     OW32878   5.059   5.405   5.643
10660SOL    HW132879   5.100   5.493   5.617
10660SOL    HW232880   4.983   5.384   5.581
10661SOL     OW32881   0.067   1.123   1.643
10661SOL    HW132882   0.096   1.102   1.737
10661SOL    HW232883   0.029   1.216   1.641
10662SOL     OW32884   0.140   2.225   0.622
10662SOL    HW132885   0.226   2.276   0.618
10662SOL    HW232886   0.064   2.287   0.605
10663SOL     OW32887   0.640   2.117   1.468
10663SOL    HW132888   0.697   2.040   1.494
10663SOL    HW232889   0.692   2.202   1.479
10664SOL     OW32890   2.495   5.309   6.068
10664SOL    HW132891   2.395   5.309   6.072
10664SOL    HW232892   2.533   5.271   6.152
10665SOL     OW32893   5.674   1.691   0.260
10665SOL    HW132894   5.658   1.594   0.283
10665SOL    HW232895   5.593   1.728   0.216
10666SOL     OW32896   0.899   6.389   0.275
10666SOL    HW132897   0.854   6.299   0.271
10666SOL    HW232898   0.939   6.402   0.366
10667SOL     OW32899   3.117   2.327   5.728
10667SOL    HW132900   3.103   2.270   5.648
10667SOL    HW232901   3.124   2.423   5.701
10668SOL     OW32902   1.619   0.592   6.009
10668SOL    HW132903   1.698   0.554   5.961
10668SOL    HW232904   1.627   0.572   6.107
10669SOL     OW32905   1.995   6.033   6.706
10669SOL    HW132906   2.091   6.062   6.705
10669SOL    HW232907   1.990   5.934   6.720
10670SOL     OW32908   5.817   4.338   4.878
10670SOL    HW132909   5.754   4.309   4.806
10670SOL    HW232910   5.859   4.425   4.853
10671SOL     OW32911   2.036   2.694   3.430
10671SOL    HW132912   2.092   2.625   3.384
10671SOL    HW232913   1.953   2.711   3.377
10672SOL     OW32914   6.620   2.179   0.837
10672SOL    HW132915   6.629   2.079   0.832
10672SOL    HW232916   6.685   2.215   0.904
10673SOL     OW32917   3.886   3.830   3.951
10673SOL    HW132918   3.902   3.866   4.043
10673SOL    HW232919   3.789   3.839   3.928
10674SOL     OW32920   4.157   1.623   2.507
10674SOL    HW132921   4.074   1.674   2.485
10674SOL    HW232922   4.233   1.687   2.519
10675SOL     OW32923   1.318   1.446   6.083
10675SOL    HW132924   1.338   1.388   6.004
10675SOL    HW232925   1.246   1.512   6.058
10676SOL     OW32926   6.684   0.884   0.152
10676SOL    HW132927   6.605   0.863   0.210
10676SOL    HW232928   6.696   0.983   0.146
10677SOL     OW32929   5.630   1.428   0.368
10677SOL    HW132930   5.593   1.338   0.389
10677SOL    HW232931   5.577   1.498   0.416
10678SOL     OW32932   1.588   5.415   3.520
10678SOL    HW132933   1.571   5.514   3.521
10678SOL    HW232934   1.501   5.366   3.513
10679SOL     OW32935   5.742   5.318   3.686
10679SOL    HW132936   5.824   5.358   3.728
10679SOL    HW232937   5.752   5.218   3.683
10680SOL     OW32938   0.166   2.273   3.974
10680SOL    HW132939   0.074   2.305   3.950
10680SOL    HW232940   0.209   2.234   3.893
10681SOL     OW32941   0.789   3.140   0.019
10681SOL    HW132942   0.711   3.191   6.997
10681SOL    HW232943   0.780   3.044   7.009
10682SOL     OW32944   6.294   2.027   3.483
10682SOL    HW132945   6.206   1.984   3.464
10682SOL    HW232946   6.317   2.014   3.580
10683SOL     OW32947   1.257   0.775   4.170
10683SOL    HW132948   1.276   0.678   4.152
10683SOL    HW232949   1.202   0.813   4.096
10684SOL     OW32950   5.334   5.965   0.740
10684SOL    HW132951   5.306   5.924   0.654
10684SOL    HW232952   5.300   5.910   0.816
10685SOL     OW32953   6.357   2.796   2.691
10685SOL    HW132954   6.445   2.766   2.655
10685SOL    HW232955   6.291   2.802   2.616
10686SOL     OW32956   4.605   4.478   1.442
10686SOL    HW132957   4.649   4.433   1.520
10686SOL    HW232958   4.569   4.567   1.471
10687SOL     OW32959   0.364   5.454   0.765
10687SOL    HW132960   0.404   5.501   0.686
10687SOL    HW232961   0.278   5.411   0.737
10688SOL     OW32962   1.526   4.594   0.919
10688SOL    HW132963   1.586   4.567   0.995
10688SOL    HW232964   1.578   4.592   0.834
10689SOL     OW32965   0.520   0.290   0.768
10689SOL    HW132966   0.423   0.301   0.788
10689SOL    HW232967   0.574   0.300   0.852
10690SOL     OW32968   3.961   0.548   3.591
10690SOL    HW132969   3.897   0.619   3.561
10690SOL    HW232970   3.998   0.501   3.511
10691SOL     OW32971   5.069   1.566   1.390
10691SOL    HW132972   5.136   1.635   1.418
10691SOL    HW232973   5.076   1.550   1.292
10692SOL     OW32974   5.944   6.204   4.346
10692SOL    HW132975   6.009   6.223   4.273
10692SOL    HW232976   5.851   6.224   4.314
10693SOL     OW32977   4.897   2.600   3.944
10693SOL    HW132978   4.876   2.636   3.854
10693SOL    HW232979   4.818   2.612   4.004
10694SOL     OW32980   2.719   5.949   0.271
10694SOL    HW132981   2.623   5.934   0.297
10694SOL    HW232982   2.730   5.929   0.174
10695SOL     OW32983   5.815   3.047   6.027
10695SOL    HW132984   5.750   3.042   6.102
10695SOL    HW232985   5.891   3.108   6.052
10696SOL     OW32986   6.304   0.041   0.462
10696SOL    HW132987   6.378   6.989   0.460
10696SOL    HW232988   6.261   0.041   0.553
10697SOL     OW32989   2.588   5.680   3.196
10697SOL    HW132990   2.530   5.741   3.143
10697SOL    HW232991   2.670   5.657   3.143
10698SOL     OW32992   3.235   0.503   4.108
10698SOL    HW132993   3.177   0.576   4.144
10698SOL    HW232994   3.197   0.414   4.135
10699SOL     OW32995   0.739   2.863   3.535
10699SOL    HW132996   0.760   2.809   3.453
10699SOL    HW232997   0.765   2.812   3.617
10700SOL     OW32998   1.163   2.920   2.539
10700SOL    HW132999   1.217   3.000   2.564
10700SOL    HW233000   1.166   2.908   2.440
10701SOL     OW33001   2.797   6.944   1.226
10701SOL    HW133002   2.828   6.877   1.158
10701SOL    HW233003   2.697   6.937   1.236
10702SOL     OW33004   4.947   2.107   0.464
10702SOL    HW133005   4.888   2.087   0.541
10702SOL    HW233006   5.009   2.030   0.448
10703SOL     OW33007   3.897   3.966   4.185
10703SOL    HW133008   3.800   3.948   4.198
10703SOL    HW233009   3.943   3.969   4.274
10704SOL     OW33010   5.518   5.823   1.838
10704SOL    HW133011   5.523   5.844   1.936
10704SOL    HW233012   5.451   5.883   1.795
10705SOL     OW33013   1.159   3.107   0.016
10705SOL    HW133014   1.203   3.187   6.990
10705SOL    HW233015   1.090   3.071   6.969
10706SOL     OW33016   3.383   3.583   0.586
10706SOL    HW133017   3.394   3.631   0.674
10706SOL    HW233018   3.425   3.493   0.592
10707SOL     OW33019   5.729   0.533   6.647
10707SOL    HW133020   5.802   0.592   6.682
10707SOL    HW233021   5.648   0.541   6.706
10708SOL     OW33022   4.357   2.147   1.671
10708SOL    HW133023   4.385   2.213   1.601
10708SOL    HW233024   4.426   2.142   1.743
10709SOL     OW33025   0.972   0.827   6.305
10709SOL    HW133026   1.044   0.896   6.312
10709SOL    HW233027   0.998   0.746   6.358
10710SOL     OW33028   0.364   6.560   3.392
10710SOL    HW133029   0.270   6.528   3.403
10710SOL    HW233030   0.384   6.572   3.294
10711SOL     OW33031   1.870   3.958   5.103
10711SOL    HW133032   1.816   3.874   5.100
10711SOL    HW233033   1.813   4.033   5.135
10712SOL     OW33034   3.583   1.999   6.774
10712SOL    HW133035   3.625   2.088   6.793
10712SOL    HW233036   3.526   2.005   6.692
10713SOL     OW33037   2.633   6.955   0.297
10713SOL    HW133038   2.542   6.994   0.284
10713SOL    HW233039   2.690   0.005   0.347
10714SOL     OW33040   5.130   5.574   3.913
10714SOL    HW133041   5.181   5.508   3.858
10714SOL    HW233042   5.118   5.538   4.005
10715SOL     OW33043   5.949   0.170   2.687
10715SOL    HW133044   5.916   0.173   2.593
10715SOL    HW233045   6.049   0.178   2.688
10716SOL     OW33046   7.015   1.777   2.047
10716SOL    HW133047   6.997   1.694   2.100
10716SOL    HW233048   0.095   1.805   2.062
10717SOL     OW33049   0.616   6.779   1.718
10717SOL    HW133050   0.676   6.727   1.779
10717SOL    HW233051   0.656   6.781   1.626
10718SOL     OW33052   0.130   5.055   5.155
10718SOL    HW133053   0.156   4.977   5.212
10718SOL    HW233054   0.200   5.071   5.086
10719SOL     OW33055   3.395   6.813   3.444
10719SOL    HW133056   3.493   6.813   3.429
10719SOL    HW233057   3.376   6.798   3.542
10720SOL     OW33058   0.088   2.863   6.016
10720SOL    HW133059   0.075   2.942   5.956
10720SOL    HW233060   0.170   2.876   6.071
10721SOL     OW33061   5.499   1.039   3.782
10721SOL    HW133062   5.429   0.987   3.831
10721SOL    HW233063   5.565   0.976   3.742
10722SOL     OW33064   0.945   5.492   0.267
10722SOL    HW133065   0.862   5.453   0.306
10722SOL    HW233066   0.921   5.560   0.198
10723SOL     OW33067   6.791   3.846   6.138
10723SOL    HW133068   6.761   3.801   6.222
10723SOL    HW233069   6.890   3.857   6.140
10724SOL     OW33070   3.520   6.292   5.839
10724SOL    HW133071   3.459   6.220   5.872
10724SOL    HW233072   3.474   6.347   5.770
10725SOL     OW33073   6.825   0.224   5.227
10725SOL    HW133074   6.799   0.229   5.324
10725SOL    HW233075   6.889   0.148   5.214
10726SOL     OW33076   6.989   0.205   3.265
10726SOL    HW133077   6.942   0.292   3.252
10726SOL    HW233078   0.065   0.221   3.301
10727SOL     OW33079   5.059   6.154   6.502
10727SOL    HW133080   5.054   6.112   6.412
10727SOL    HW233081   5.035   6.250   6.496
10728SOL     OW33082   5.299   6.181   3.912
10728SOL    HW133083   5.241   6.118   3.964
10728SOL    HW233084   5.250   6.267   3.897
10729SOL     OW33085   0.159   3.088   4.096
10729SOL    HW133086   0.129   3.073   4.002
10729SOL    HW233087   0.196   3.003   4.134
10730SOL     OW33088   1.439   5.920   4.484
10730SOL    HW133089   1.503   5.970   4.542
10730SOL    HW233090   1.479   5.905   4.394
10731SOL     OW33091   4.842   4.400   5.446
10731SOL    HW133092   4.764   4.457   5.417
10731SOL    HW233093   4.916   4.410   5.380
10732SOL     OW33094   5.301   5.991   2.139
10732SOL    HW133095   5.256   6.001   2.050
10732SOL    HW233096   5.241   5.939   2.200
10733SOL     OW33097   0.726   1.513   5.794
10733SOL    HW133098   0.649   1.476   5.743
10733SOL    HW233099   0.803   1.527   5.732
10734SOL     OW33100   0.705   0.500   4.323
10734SOL    HW133101   0.772   0.455   4.383
10734SOL    HW233102   0.689   0.593   4.355
10735SOL     OW33103   6.685   1.107   1.768
10735SOL    HW133104   6.704   1.104   1.866
10735SOL    HW233105   6.590   1.134   1.754
10736SOL     OW33106   5.951   5.864   3.461
10736SOL    HW133107   5.864   5.846   3.417
10736SOL    HW233108   5.943   5.945   3.519
10737SOL     OW33109   6.943   0.771   0.644
10737SOL    HW133110   6.948   0.684   0.692
10737SOL    HW233111   6.848   0.790   0.618
10738SOL     OW33112   1.458   6.749   1.630
10738SOL    HW133113   1.438   6.684   1.703
10738SOL    HW233114   1.555   6.774   1.634
10739SOL     OW33115   5.147   2.535   3.819
10739SOL    HW133116   5.098   2.519   3.733
10739SOL    HW233117   5.081   2.559   3.890
10740SOL     OW33118   2.814   0.533   5.813
10740SOL    HW133119   2.909   0.549   5.841
10740SOL    HW233120   2.776   0.457   5.865
10741SOL     OW33121   1.906   2.563   4.448
10741SOL    HW133122   1.972   2.604   4.511
10741SOL    HW233123   1.954   2.520   4.372
10742SOL     OW33124   0.265   0.522   1.953
10742SOL    HW133125   0.326   0.562   1.885
10742SOL    HW233126   0.303   0.536   2.045
10743SOL     OW33127   3.969   2.725   6.122
10743SOL    HW133128   3.961   2.695   6.027
10743SOL    HW233129   3.968   2.825   6.125
10744SOL     OW33130   1.768   1.826   0.837
10744SOL    HW133131   1.787   1.811   0.741
10744SOL    HW233132   1.732   1.919   0.850
10745SOL     OW33133   3.350   5.430   1.557
10745SOL    HW133134   3.349   5.529   1.542
10745SOL    HW233135   3.385   5.411   1.649
10746SOL     OW33136   2.602   5.899   5.963
10746SOL    HW133137   2.532   5.832   5.986
10746SOL    HW233138   2.618   5.959   6.041
10747SOL     OW33139   6.910   7.001   4.538
10747SOL    HW133140   6.848   6.928   4.565
10747SOL    HW233141   6.998   6.989   4.585
10748SOL     OW33142   2.807   6.234   2.663
10748SOL    HW133143   2.749   6.251   2.742
10748SOL    HW233144   2.841   6.140   2.666
10749SOL     OW33145   4.877   3.079   2.419
10749SOL    HW133146   4.806   3.015   2.389
10749SOL    HW233147   4.933   3.105   2.341
10750SOL     OW33148   3.655   1.464   4.330
10750SOL    HW133149   3.663   1.563   4.328
10750SOL    HW233150   3.606   1.436   4.413
10751SOL     OW33151   6.347   6.009   3.579
10751SOL    HW133152   6.315   5.926   3.534
10751SOL    HW233153   6.321   6.089   3.524
10752SOL     OW33154   0.081   6.101   6.588
10752SOL    HW133155   0.069   6.165   6.663
10752SOL    HW233156   0.144   6.029   6.615
10753SOL     OW33157   5.447   6.828   5.004
10753SOL    HW133158   5.411   6.739   4.975
10753SOL    HW233159   5.400   6.857   5.087
10754SOL     OW33160   6.882   5.744   2.329
10754SOL    HW133161   6.825   5.810   2.378
10754SOL    HW233162   6.872   5.757   2.231
10755SOL     OW33163   0.801   2.163   2.422
10755SOL    HW133164   0.732   2.204   2.362
10755SOL    HW233165   0.756   2.123   2.502
10756SOL     OW33166   1.042   0.097   6.424
10756SOL    HW133167   1.112   0.031   6.449
10756SOL    HW233168   1.012   0.148   6.505
10757SOL     OW33169   6.866   2.682   1.848
10757SOL    HW133170   6.943   2.696   1.910
10757SOL    HW233171   6.901   2.664   1.756
10758SOL     OW33172   0.540   1.716   0.445
10758SOL    HW133173   0.554   1.671   0.357
10758SOL    HW233174   0.444   1.709   0.472
10759SOL     OW33175   3.717   4.795   5.587
10759SOL    HW133176   3.722   4.717   5.650
10759SOL    HW233177   3.649   4.775   5.516
10760SOL     OW33178   0.458   5.105   0.106
10760SOL    HW133179   0.540   5.071   0.152
10760SOL    HW233180   0.418   5.180   0.159
10761SOL     OW33181   1.415   1.554   6.744
10761SOL    HW133182   1.456   1.470   6.779
10761SOL    HW233183   1.438   1.564   6.647
10762SOL     OW33184   1.744   6.160   1.212
10762SOL    HW133185   1.825   6.198   1.167
10762SOL    HW233186   1.748   6.178   1.310
10763SOL     OW33187   4.958   1.192   2.150
10763SOL    HW133188   5.008   1.237   2.077
10763SOL    HW233189   4.975   1.093   2.147
10764SOL     OW33190   5.457   6.311   4.761
10764SOL    HW133191   5.386   6.280   4.698
10764SOL    HW233192   5.539   6.255   4.748
10765SOL     OW33193   6.444   2.766   1.586
10765SOL    HW133194   6.503   2.705   1.639
10765SOL    HW233195   6.457   2.860   1.618
10766SOL     OW33196   3.264   5.151   6.734
10766SOL    HW133197   3.287   5.234   6.684
10766SOL    HW233198   3.180   5.164   6.786
10767SOL     OW33199   1.758   4.731   6.458
10767SOL    HW133200   1.659   4.729   6.477
10767SOL    HW233201   1.773   4.759   6.363
10768SOL     OW33202   5.818   6.290   0.270
10768SOL    HW133203   5.854   6.285   0.364
10768SOL    HW233204   5.880   6.345   0.214
10769SOL     OW33205   3.147   3.736   4.930
10769SOL    HW133206   3.054   3.760   4.956
10769SOL    HW233207   3.209   3.809   4.958
10770SOL     OW33208   4.321   0.041   3.629
10770SOL    HW133209   4.262   0.005   3.700
10770SOL    HW233210   4.392   0.098   3.671
10771SOL     OW33211   4.944   5.869   5.821
10771SOL    HW133212   4.908   5.950   5.773
10771SOL    HW233213   4.881   5.793   5.809
10772SOL     OW33214   4.765   4.006   3.536
10772SOL    HW133215   4.812   3.919   3.517
10772SOL    HW233216   4.729   4.004   3.630
10773SOL     OW33217   0.408   4.263   1.050
10773SOL    HW133218   0.450   4.232   1.135
10773SOL    HW233219   0.467   4.238   0.973
10774SOL     OW33220   6.984   2.991   0.496
10774SOL    HW133221   6.912   3.054   0.526
10774SOL    HW233222   0.054   3.042   0.483
10775SOL     OW33223   2.851   4.522   6.432
10775SOL    HW133224   2.783   4.502   6.361
10775SOL    HW233225   2.843   4.617   6.460
10776SOL     OW33226   0.850   3.742   3.394
10776SOL    HW133227   0.853   3.824   3.336
10776SOL    HW233228   0.934   3.737   3.448
10777SOL     OW33229   1.003   6.438   1.803
10777SOL    HW133230   1.099   6.418   1.786
10777SOL    HW233231   0.991   6.468   1.897
10778SOL     OW33232   5.165   0.291   3.837
10778SOL    HW133233   5.126   0.365   3.782
10778SOL    HW233234   5.160   0.205   3.786
10779SOL     OW33235   5.350   2.952   6.001
10779SOL    HW133236   5.426   2.991   6.053
10779SOL    HW233237   5.317   3.018   5.934
10780SOL     OW33238   0.781   5.170   4.486
10780SOL    HW133239   0.719   5.186   4.563
10780SOL    HW233240   0.786   5.072   4.467
10781SOL     OW33241   5.922   2.455   5.677
10781SOL    HW133242   6.010   2.409   5.669
10781SOL    HW233243   5.862   2.426   5.603
10782SOL     OW33244   1.203   3.224   5.402
10782SOL    HW133245   1.295   3.251   5.374
10782SOL    HW233246   1.195   3.125   5.397
10783SOL     OW33247   1.259   3.732   3.949
10783SOL    HW133248   1.267   3.648   4.003
10783SOL    HW233249   1.264   3.811   4.010
10784SOL     OW33250   4.789   5.323   3.973
10784SOL    HW133251   4.819   5.234   3.941
10784SOL    HW233252   4.768   5.319   4.070
10785SOL     OW33253   1.688   5.212   1.867
10785SOL    HW133254   1.756   5.247   1.802
10785SOL    HW233255   1.716   5.121   1.899
10786SOL     OW33256   5.076   1.512   2.353
10786SOL    HW133257   5.174   1.513   2.335
10786SOL    HW233258   5.036   1.600   2.325
10787SOL     OW33259   2.964   1.488   4.151
10787SOL    HW133260   3.056   1.466   4.118
10787SOL    HW233261   2.963   1.488   4.251
10788SOL     OW33262   1.338   3.111   0.373
10788SOL    HW133263   1.366   3.203   0.344
10788SOL    HW233264   1.334   3.051   0.293
10789SOL     OW33265   6.208   1.798   2.908
10789SOL    HW133266   6.228   1.897   2.907
10789SOL    HW233267   6.157   1.776   2.991
10790SOL     OW33268   6.834   2.498   5.391
10790SOL    HW133269   6.812   2.570   5.456
10790SOL    HW233270   6.894   2.535   5.320
10791SOL     OW33271   1.919   3.289   3.503
10791SOL    HW133272   1.849   3.353   3.532
10791SOL    HW233273   1.996   3.339   3.463
10792SOL     OW33274   3.967   1.412   2.201
10792SOL    HW133275   3.998   1.445   2.291
10792SOL    HW233276   3.871   1.386   2.207
10793SOL     OW33277   3.901   2.179   4.268
10793SOL    HW133278   3.998   2.198   4.248
10793SOL    HW233279   3.862   2.126   4.193
10794SOL     OW33280   4.617   2.975   6.355
10794SOL    HW133281   4.581   2.888   6.389
10794SOL    HW233282   4.647   2.964   6.261
10795SOL     OW33283   6.307   3.092   3.064
10795SOL    HW133284   6.343   3.172   3.016
10795SOL    HW233285   6.208   3.088   3.055
10796SOL     OW33286   0.091   1.442   6.618
10796SOL    HW133287   0.019   1.488   6.670
10796SOL    HW233288   0.072   1.344   6.615
10797SOL     OW33289   5.619   4.665   6.734
10797SOL    HW133290   5.564   4.706   6.807
10797SOL    HW233291   5.713   4.656   6.765
10798SOL     OW33292   2.422   5.724   0.358
10798SOL    HW133293   2.338   5.677   0.387
10798SOL    HW233294   2.398   5.806   0.307
10799SOL     OW33295   2.203   0.564   3.086
10799SOL    HW133296   2.246   0.642   3.131
10799SOL    HW233297   2.236   0.557   2.992
10800SOL     OW33298   1.376   0.619   4.974
10800SOL    HW133299   1.440   0.595   4.901
10800SOL    HW233300   1.409   0.583   5.061
10801SOL     OW33301   2.880   6.211   6.656
10801SOL    HW133302   2.957   6.217   6.719
10801SOL    HW233303   2.797   6.245   6.701
10802SOL     OW33304   0.602   4.744   3.737
10802SOL    HW133305   0.655   4.763   3.655
10802SOL    HW233306   0.647   4.784   3.817
10803SOL     OW33307   6.868   4.401   4.732
10803SOL    HW133308   6.905   4.315   4.767
10803SOL    HW233309   6.878   4.404   4.632
10804SOL     OW33310   4.281   4.696   6.699
10804SOL    HW133311   4.292   4.643   6.615
10804SOL    HW233312   4.316   4.643   6.777
10805SOL     OW33313   4.823   5.778   0.677
10805SOL    HW133314   4.813   5.834   0.594
10805SOL    HW233315   4.735   5.736   0.700
10806SOL     OW33316   5.985   2.957   5.336
10806SOL    HW133317   6.033   2.953   5.248
10806SOL    HW233318   5.977   2.865   5.374
10807SOL     OW33319   4.611   2.923   5.506
10807SOL    HW133320   4.600   2.982   5.586
10807SOL    HW233321   4.623   2.980   5.424
10808SOL     OW33322   0.426   2.855   1.142
10808SOL    HW133323   0.478   2.906   1.211
10808SOL    HW233324   0.454   2.759   1.143
10809SOL     OW33325   1.037   1.044   2.949
10809SOL    HW133326   0.943   1.060   2.917
10809SOL    HW233327   1.087   0.993   2.879
10810SOL     OW33328   1.984   1.631   6.042
10810SOL    HW133329   1.938   1.578   6.113
10810SOL    HW233330   1.959   1.727   6.052
10811SOL     OW33331   4.022   6.116   6.427
10811SOL    HW133332   4.115   6.111   6.462
10811SOL    HW233333   4.016   6.068   6.340
10812SOL     OW33334   6.324   3.126   2.700
10812SOL    HW133335   6.227   3.118   2.680
10812SOL    HW233336   6.343   3.216   2.740
10813SOL     OW33337   3.053   5.919   2.420
10813SOL    HW133338   3.025   5.834   2.375
10813SOL    HW233339   3.019   5.997   2.369
10814SOL     OW33340   1.936   5.882   4.357
10814SOL    HW133341   1.870   5.954   4.339
10814SOL    HW233342   1.915   5.838   4.444
10815SOL     OW33343   5.536   2.358   5.682
10815SOL    HW133344   5.500   2.383   5.772
10815SOL    HW233345   5.490   2.412   5.612
10816SOL     OW33346   2.313   2.390   0.824
10816SOL    HW133347   2.288   2.445   0.903
10816SOL    HW233348   2.309   2.293   0.848
10817SOL     OW33349   3.816   1.836   2.103
10817SOL    HW133350   3.790   1.871   2.013
10817SOL    HW233351   3.915   1.822   2.105
10818SOL     OW33352   4.665   3.390   6.059
10818SOL    HW133353   4.697   3.423   5.970
10818SOL    HW233354   4.729   3.420   6.130
10819SOL     OW33355   2.128   2.981   5.178
10819SOL    HW133356   2.079   3.068   5.189
10819SOL    HW233357   2.224   3.000   5.156
10820SOL     OW33358   1.515   6.446   5.496
10820SOL    HW133359   1.451   6.470   5.423
10820SOL    HW233360   1.609   6.461   5.465
10821SOL     OW33361   7.013   0.373   0.121
10821SOL    HW133362   6.943   0.375   0.050
10821SOL    HW233363   7.000   0.450   0.183
10822SOL     OW33364   0.252   4.926   5.976
10822SOL    HW133365   0.267   5.009   5.922
10822SOL    HW233366   0.210   4.856   5.918
10823SOL     OW33367   2.106   1.864   0.665
10823SOL    HW133368   2.191   1.848   0.716
10823SOL    HW233369   2.119   1.939   0.600
10824SOL     OW33370   5.265   1.336   4.605
10824SOL    HW133371   5.326   1.332   4.526
10824SOL    HW233372   5.300   1.403   4.671
10825SOL     OW33373   3.788   0.911   2.175
10825SOL    HW133374   3.778   0.992   2.233
10825SOL    HW233375   3.758   0.933   2.082
10826SOL     OW33376   0.074   3.664   1.061
10826SOL    HW133377   0.078   3.574   1.017
10826SOL    HW233378   0.099   3.654   1.157
10827SOL     OW33379   0.435   2.377   4.316
10827SOL    HW133380   0.379   2.435   4.257
10827SOL    HW233381   0.398   2.378   4.409
10828SOL     OW33382   2.548   4.775   0.103
10828SOL    HW133383   2.517   4.819   0.019
10828SOL    HW233384   2.482   4.704   0.130
10829SOL     OW33385   1.944   3.815   1.406
10829SOL    HW133386   1.869   3.881   1.415
10829SOL    HW233387   2.030   3.859   1.430
10830SOL     OW33388   6.294   0.029   3.653
10830SOL    HW133389   6.291   0.035   3.753
10830SOL    HW233390   6.379   0.070   3.620
10831SOL     OW33391   5.227   2.983   2.128
10831SOL    HW133392   5.307   3.040   2.145
10831SOL    HW233393   5.218   2.966   2.029
10832SOL     OW33394   1.479   2.748   1.918
10832SOL    HW133395   1.558   2.687   1.912
10832SOL    HW233396   1.510   2.841   1.937
10833SOL     OW33397   3.262   0.039   4.864
10833SOL    HW133398   3.221   6.973   4.822
10833SOL    HW233399   3.347   0.062   4.816
10834SOL     OW33400   0.105   2.001   5.717
10834SOL    HW133401   0.015   1.987   5.758
10834SOL    HW233402   0.120   1.933   5.646
10835SOL     OW33403   0.170   1.466   0.483
10835SOL    HW133404   0.205   1.435   0.395
10835SOL    HW233405   0.225   1.543   0.516
10836SOL     OW33406   0.145   2.292   1.240
10836SOL    HW133407   0.066   2.298   1.179
10836SOL    HW233408   0.226   2.329   1.194
10837SOL     OW33409   1.387   5.148   0.692
10837SOL    HW133410   1.423   5.156   0.599
10837SOL    HW233411   1.388   5.237   0.736
10838SOL     OW33412   6.801   5.922   0.439
10838SOL    HW133413   6.729   5.990   0.422
10838SOL    HW233414   6.843   5.896   0.352
10839SOL     OW33415   2.315   1.808   6.547
10839SOL    HW133416   2.406   1.792   6.509
10839SOL    HW233417   2.246   1.774   6.483
10840SOL     OW33418   1.770   0.707   3.281
10840SOL    HW133419   1.769   0.745   3.188
10840SOL    HW233420   1.848   0.645   3.290
10841SOL     OW33421   4.618   4.107   0.241
10841SOL    HW133422   4.527   4.141   0.267
10841SOL    HW233423   4.668   4.081   0.323
10842SOL     OW33424   5.713   1.635   2.060
10842SOL    HW133425   5.751   1.597   1.975
10842SOL    HW233426   5.667   1.563   2.111
10843SOL     OW33427   1.119   2.210   1.067
10843SOL    HW133428   1.206   2.257   1.056
10843SOL    HW233429   1.132   2.129   1.125
10844SOL     OW33430   4.909   6.888   3.988
10844SOL    HW133431   4.959   6.804   3.971
10844SOL    HW233432   4.897   6.901   4.087
10845SOL     OW33433   2.568   3.596   1.654
10845SOL    HW133434   2.542   3.690   1.629
10845SOL    HW233435   2.492   3.552   1.701
10846SOL     OW33436   3.529   2.785   1.867
10846SOL    HW133437   3.436   2.771   1.901
10846SOL    HW233438   3.579   2.844   1.931
10847SOL     OW33439   5.402   1.636   5.521
10847SOL    HW133440   5.314   1.600   5.487
10847SOL    HW233441   5.476   1.576   5.491
10848SOL     OW33442   1.850   0.799   6.916
10848SOL    HW133443   1.934   0.755   6.948
10848SOL    HW233444   1.873   0.873   6.853
10849SOL     OW33445   0.737   4.366   4.416
10849SOL    HW133446   0.731   4.288   4.354
10849SOL    HW233447   0.719   4.451   4.364
10850SOL     OW33448   6.130   0.282   3.045
10850SOL    HW133449   6.125   0.370   2.998
10850SOL    HW233450   6.188   0.219   2.992
10851SOL     OW33451   4.454   2.951   0.181
10851SOL    HW133452   4.366   2.984   0.146
10851SOL    HW233453   4.511   3.030   0.206
10852SOL     OW33454   6.338   1.545   5.866
10852SOL    HW133455   6.306   1.452   5.846
10852SOL    HW233456   6.433   1.554   5.837
10853SOL     OW33457   2.750   0.436   5.303
10853SOL    HW133458   2.677   0.503   5.292
10853SOL    HW233459   2.825   0.457   5.240
10854SOL     OW33460   5.976   0.453   6.950
10854SOL    HW133461   5.950   0.367   6.908
10854SOL    HW233462   5.987   0.523   6.879
10855SOL     OW33463   1.038   6.116   0.169
10855SOL    HW133464   1.026   6.124   0.070
10855SOL    HW233465   0.951   6.090   0.211
10856SOL     OW33466   4.838   6.986   6.534
10856SOL    HW133467   4.875   6.961   6.445
10856SOL    HW233468   4.755   6.933   6.551
10857SOL     OW33469   6.576   6.674   4.916
10857SOL    HW133470   6.571   6.742   4.842
10857SOL    HW233471   6.527   6.708   4.996
10858SOL     OW33472   1.955   2.776   0.796
10858SOL    HW133473   1.931   2.788   0.893
10858SOL    HW233474   1.871   2.760   0.743
10859SOL     OW33475   2.424   5.721   1.712
10859SOL    HW133476   2.518   5.712   1.745
10859SOL    HW233477   2.421   5.703   1.614
10860SOL     OW33478   5.594   1.605   1.469
10860SOL    HW133479   5.656   1.620   1.546
10860SOL    HW233480   5.549   1.517   1.479
10861SOL     OW33481   2.204   4.768   0.951
10861SOL    HW133482   2.212   4.842   1.018
10861SOL    HW233483   2.288   4.716   0.948
10862SOL     OW33484   3.743   4.576   5.288
10862SOL    HW133485   3.694   4.491   5.271
10862SOL    HW233486   3.680   4.644   5.326
10863SOL     OW33487   0.622   6.720   3.484
10863SOL    HW133488   0.531   6.681   3.494
10863SOL    HW233489   0.672   6.670   3.414
10864SOL     OW33490   3.006   3.783   2.551
10864SOL    HW133491   3.025   3.810   2.456
10864SOL    HW233492   3.054   3.844   2.613
10865SOL     OW33493   3.153   1.975   2.553
10865SOL    HW133494   3.128   2.023   2.469
10865SOL    HW233495   3.247   1.943   2.547
10866SOL     OW33496   0.544   3.446   4.778
10866SOL    HW133497   0.584   3.517   4.720
10866SOL    HW233498   0.580   3.453   4.871
10867SOL     OW33499   4.830   2.772   0.252
10867SOL    HW133500   4.866   2.784   0.345
10867SOL    HW233501   4.750   2.712   0.255
10868SOL     OW33502   0.787   6.875   5.625
10868SOL    HW133503   0.833   6.824   5.552
10868SOL    HW233504   0.773   6.970   5.595
10869NA      NA33505   6.963   0.785   6.820
10870NA      NA33506   4.648   4.802   5.036
10871NA      NA33507   0.946   4.673   2.862
10872NA      NA33508   6.331   3.624   3.458
10873NA      NA33509   4.266   2.301   5.220
10874NA      NA33510   2.350   3.433   6.869
10875NA      NA33511   1.667   5.464   0.192
10876NA      NA33512   4.208   4.878   2.096
10877NA      NA33513   5.369   3.604   1.343
10878NA      NA33514   3.752   1.813   0.520
10879NA      NA33515   5.385   6.528   1.473
10880NA      NA33516   2.870   6.401   4.427
10881NA      NA33517   3.295   5.542   2.839
10882NA      NA33518   4.084   4.911   6.117
   7.01536   7.01536   7.01536
