Generated by trjconv : CNT in water t= 354.00000
33518
    1C        C    1   2.844   2.770   4.750
    1C        C    2   2.903   2.725   4.870
    1C        C    3   2.842   2.776   4.986
    1C        C    4   2.845   2.770   4.263
    1C        C    5   2.904   2.727   4.384
    1C        C    6   2.847   2.772   4.505
    1C        C    7   3.012   2.641   4.627
    1C        C    8   2.895   2.721   4.627
    1C        C    9   3.080   2.608   4.746
    1C        C   10   3.015   2.640   4.868
    1C        C   11   3.180   2.490   4.977
    1C        C   12   3.060   2.560   4.974
    1C        C   13   2.847   2.770   3.773
    1C        C   14   2.899   2.725   3.897
    1C        C   15   2.852   2.777   4.019
    1C        C   16   3.015   2.641   4.139
    1C        C   17   2.903   2.727   4.141
    1C        C   18   3.081   2.612   4.260
    1C        C   19   3.022   2.649   4.383
    1C        C   20   3.208   2.554   4.506
    1C        C   21   3.078   2.609   4.506
    1C        C   22   3.278   2.529   4.626
    1C        C   23   3.208   2.547   4.748
    1C        C   24   3.413   2.486   4.868
    1C        C   25   3.271   2.501   4.867
    1C        C   26   3.490   2.487   4.985
    1C        C   27   2.853   2.767   3.283
    1C        C   28   2.908   2.723   3.405
    1C        C   29   2.857   2.772   3.527
    1C        C   30   3.019   2.642   3.651
    1C        C   31   2.905   2.726   3.652
    1C        C   32   3.077   2.605   3.774
    1C        C   33   3.014   2.642   3.894
    1C        C   34   3.207   2.554   4.014
    1C        C   35   3.075   2.605   4.016
    1C        C   36   3.272   2.529   4.137
    1C        C   37   3.209   2.552   4.262
    1C        C   38   3.413   2.499   4.382
    1C        C   39   3.276   2.531   4.384
    1C        C   40   3.486   2.495   4.503
    1C        C   41   3.416   2.502   4.626
    1C        C   42   3.629   2.486   4.747
    1C        C   43   3.487   2.483   4.747
    1C        C   44   3.705   2.489   4.867
    1C        C   45   3.629   2.478   4.984
    1C        C   46   2.843   2.755   2.790
    1C        C   47   2.896   2.715   2.915
    1C        C   48   2.844   2.761   3.038
    1C        C   49   3.014   2.633   3.160
    1C        C   50   2.900   2.717   3.160
    1C        C   51   3.076   2.597   3.282
    1C        C   52   3.018   2.633   3.405
    1C        C   53   3.206   2.543   3.526
    1C        C   54   3.076   2.599   3.529
    1C        C   55   3.274   2.525   3.649
    1C        C   56   3.208   2.552   3.771
    1C        C   57   3.415   2.504   3.893
    1C        C   58   3.277   2.533   3.893
    1C        C   59   3.485   2.503   4.016
    1C        C   60   3.412   2.508   4.137
    1C        C   61   3.624   2.501   4.261
    1C        C   62   3.483   2.500   4.259
    1C        C   63   3.698   2.504   4.381
    1C        C   64   3.627   2.498   4.503
    1C        C   65   3.832   2.545   4.622
    1C        C   66   3.698   2.498   4.625
    1C        C   67   3.903   2.568   4.742
    1C        C   68   3.840   2.529   4.862
    1C        C   69   4.051   2.586   4.979
    1C        C   70   3.920   2.534   4.977
    1C        C   71   2.822   2.724   2.309
    1C        C   72   2.882   2.686   2.431
    1C        C   73   2.832   2.742   2.550
    1C        C   74   3.005   2.615   2.672
    1C        C   75   2.889   2.696   2.671
    1C        C   76   3.071   2.590   2.794
    1C        C   77   3.011   2.633   2.915
    1C        C   78   3.203   2.542   3.041
    1C        C   79   3.072   2.595   3.037
    1C        C   80   3.274   2.523   3.161
    1C        C   81   3.206   2.542   3.284
    1C        C   82   3.414   2.495   3.403
    1C        C   83   3.275   2.520   3.405
    1C        C   84   3.484   2.489   3.526
    1C        C   85   3.413   2.500   3.648
    1C        C   86   3.626   2.507   3.770
    1C        C   87   3.484   2.501   3.770
    1C        C   88   3.695   2.513   3.892
    1C        C   89   3.626   2.506   4.015
    1C        C   90   3.831   2.546   4.136
    1C        C   91   3.694   2.509   4.138
    1C        C   92   3.900   2.569   4.257
    1C        C   93   3.835   2.539   4.379
    1C        C   94   4.026   2.633   4.497
    1C        C   95   3.902   2.564   4.501
    1C        C   96   4.086   2.672   4.618
    1C        C   97   4.031   2.629   4.741
    1C        C   98   4.184   2.771   4.862
    1C        C   99   4.094   2.660   4.865
    1C        C  100   4.212   2.842   4.979
    1C        C  101   2.820   2.724   2.069
    1C        C  102   2.990   2.587   2.186
    1C        C  103   2.877   2.674   2.188
    1C        C  104   3.061   2.569   2.308
    1C        C  105   3.001   2.609   2.429
    1C        C  106   3.198   2.525   2.553
    1C        C  107   3.067   2.578   2.550
    1C        C  108   3.268   2.512   2.675
    1C        C  109   3.201   2.537   2.797
    1C        C  110   3.409   2.488   2.915
    1C        C  111   3.271   2.521   2.919
    1C        C  112   3.482   2.481   3.036
    1C        C  113   3.413   2.495   3.159
    1C        C  114   3.624   2.505   3.280
    1C        C  115   3.484   2.489   3.281
    1C        C  116   3.694   2.509   3.403
    1C        C  117   3.625   2.493   3.526
    1C        C  118   3.833   2.545   3.646
    1C        C  119   3.696   2.511   3.647
    1C        C  120   3.899   2.572   3.768
    1C        C  121   3.830   2.554   3.890
    1C        C  122   4.021   2.639   4.014
    1C        C  123   3.896   2.575   4.014
    1C        C  124   4.081   2.682   4.134
    1C        C  125   4.022   2.640   4.256
    1C        C  126   4.193   2.768   4.377
    1C        C  127   4.085   2.677   4.377
    1C        C  128   4.243   2.821   4.498
    1C        C  129   4.191   2.767   4.618
    1C        C  130   4.320   2.937   4.739
    1C        C  131   4.234   2.824   4.739
    1C        C  132   4.352   3.005   4.859
    1C        C  133   4.280   2.963   4.971
    1C        C  134   3.174   2.466   2.078
    1C        C  135   3.040   2.505   2.080
    1C        C  136   3.259   2.472   2.190
    1C        C  137   3.192   2.513   2.308
    1C        C  138   3.402   2.477   2.427
    1C        C  139   3.263   2.505   2.429
    1C        C  140   3.475   2.479   2.547
    1C        C  141   3.408   2.493   2.671
    1C        C  142   3.619   2.491   2.791
    1C        C  143   3.478   2.482   2.793
    1C        C  144   3.692   2.503   2.912
    1C        C  145   3.623   2.492   3.034
    1C        C  146   3.830   2.540   3.156
    1C        C  147   3.692   2.509   3.156
    1C        C  148   3.896   2.564   3.279
    1C        C  149   3.832   2.539   3.402
    1C        C  150   4.024   2.632   3.523
    1C        C  151   3.899   2.566   3.523
    1C        C  152   4.081   2.673   3.645
    1C        C  153   4.025   2.637   3.770
    1C        C  154   4.196   2.761   3.888
    1C        C  155   4.085   2.674   3.892
    1C        C  156   4.249   2.810   4.009
    1C        C  157   4.194   2.766   4.131
    1C        C  158   4.339   2.919   4.251
    1C        C  159   4.247   2.812   4.254
    1C        C  160   4.374   2.982   4.372
    1C        C  161   4.327   2.934   4.496
    1C        C  162   4.439   3.115   4.613
    1C        C  163   4.366   2.994   4.618
    1C        C  164   4.468   3.184   4.733
    1C        C  165   4.429   3.123   4.854
    1C        C  166   4.511   3.319   4.972
    1C        C  167   4.478   3.184   4.971
    1C        C  168   3.478   2.433   2.077
    1C        C  169   3.399   2.455   2.190
    1C        C  170   3.619   2.465   2.306
    1C        C  171   3.477   2.462   2.308
    1C        C  172   3.688   2.491   2.427
    1C        C  173   3.616   2.485   2.548
    1C        C  174   3.823   2.542   2.667
    1C        C  175   3.689   2.499   2.669
    1C        C  176   3.894   2.561   2.788
    1C        C  177   3.829   2.536   2.911
    1C        C  178   4.021   2.627   3.029
    1C        C  179   3.896   2.562   3.033
    1C        C  180   4.083   2.660   3.151
    1C        C  181   4.022   2.628   3.274
    1C        C  182   4.191   2.754   3.400
    1C        C  183   4.080   2.666   3.397
    1C        C  184   4.247   2.803   3.519
    1C        C  185   4.194   2.758   3.642
    1C        C  186   4.340   2.913   3.766
    1C        C  187   4.245   2.808   3.764
    1C        C  188   4.382   2.977   3.885
    1C        C  189   4.338   2.921   4.007
    1C        C  190   4.445   3.104   4.128
    1C        C  191   4.378   2.979   4.129
    1C        C  192   4.472   3.172   4.249
    1C        C  193   4.442   3.106   4.371
    1C        C  194   4.504   3.314   4.490
    1C        C  195   4.464   3.179   4.490
    1C        C  196   4.517   3.387   4.610
    1C        C  197   4.507   3.321   4.735
    1C        C  198   4.551   3.535   4.852
    1C        C  199   4.532   3.393   4.855
    1C        C  200   4.575   3.620   4.965
    1C        C  201   3.618   2.421   2.071
    1C        C  202   3.827   2.514   2.183
    1C        C  203   3.694   2.462   2.185
    1C        C  204   3.897   2.543   2.303
    1C        C  205   3.825   2.525   2.424
    1C        C  206   4.018   2.621   2.542
    1C        C  207   3.890   2.561   2.544
    1C        C  208   4.081   2.661   2.662
    1C        C  209   4.020   2.626   2.785
    1C        C  210   4.195   2.747   2.907
    1C        C  211   4.081   2.663   2.906
    1C        C  212   4.244   2.798   3.030
    1C        C  213   4.192   2.750   3.152
    1C        C  214   4.333   2.906   3.272
    1C        C  215   4.240   2.800   3.275
    1C        C  216   4.367   2.972   3.393
    1C        C  217   4.332   2.916   3.517
    1C        C  218   4.437   3.096   3.639
    1C        C  219   4.375   2.969   3.641
    1C        C  220   4.462   3.167   3.759
    1C        C  221   4.442   3.104   3.884
    1C        C  222   4.506   3.305   4.002
    1C        C  223   4.474   3.168   4.006
    1C        C  224   4.511   3.377   4.123
    1C        C  225   4.502   3.310   4.247
    1C        C  226   4.521   3.524   4.367
    1C        C  227   4.520   3.382   4.367
    1C        C  228   4.524   3.598   4.487
    1C        C  229   4.528   3.527   4.609
    1C        C  230   4.504   3.742   4.727
    1C        C  231   4.532   3.602   4.728
    1C        C  232   4.492   3.820   4.844
    1C        C  233   4.541   3.756   4.958
    1C        C  234   4.016   2.611   2.061
    1C        C  235   3.897   2.539   2.065
    1C        C  236   4.081   2.654   2.177
    1C        C  237   4.022   2.612   2.298
    1C        C  238   4.199   2.730   2.419
    1C        C  239   4.082   2.650   2.420
    1C        C  240   4.253   2.784   2.539
    1C        C  241   4.197   2.742   2.662
    1C        C  242   4.339   2.899   2.784
    1C        C  243   4.247   2.792   2.784
    1C        C  244   4.380   2.959   2.906
    1C        C  245   4.339   2.902   3.029
    1C        C  246   4.437   3.089   3.148
    1C        C  247   4.380   2.960   3.151
    1C        C  248   4.464   3.157   3.269
    1C        C  249   4.435   3.096   3.394
    1C        C  250   4.489   3.299   3.514
    1C        C  251   4.462   3.161   3.516
    1C        C  252   4.505   3.371   3.634
    1C        C  253   4.498   3.304   3.758
    1C        C  254   4.521   3.516   3.877
    1C        C  255   4.517   3.375   3.879
    1C        C  256   4.516   3.587   3.999
    1C        C  257   4.517   3.518   4.122
    1C        C  258   4.491   3.730   4.240
    1C        C  259   4.516   3.591   4.243
    1C        C  260   4.471   3.801   4.360
    1C        C  261   4.486   3.735   4.484
    1C        C  262   4.425   3.938   4.601
    1C        C  263   4.473   3.806   4.605
    1C        C  264   4.405   4.012   4.720
    1C        C  265   4.433   3.949   4.843
    1C        C  266   4.320   4.134   4.958
    1C        C  267   4.402   4.022   4.958
    1C        C  268   4.268   2.773   2.060
    1C        C  269   4.198   2.734   2.176
    1C        C  270   4.346   2.887   2.298
    1C        C  271   4.248   2.784   2.298
    1C        C  272   4.388   2.949   2.418
    1C        C  273   4.340   2.895   2.539
    1C        C  274   4.445   3.079   2.660
    1C        C  275   4.381   2.953   2.661
    1C        C  276   4.472   3.150   2.779
    1C        C  277   4.444   3.084   2.902
    1C        C  278   4.505   3.286   3.023
    1C        C  279   4.466   3.151   3.024
    1C        C  280   4.514   3.358   3.144
    1C        C  281   4.497   3.294   3.269
    1C        C  282   4.514   3.508   3.387
    1C        C  283   4.503   3.367   3.390
    1C        C  284   4.514   3.580   3.508
    1C        C  285   4.513   3.512   3.632
    1C        C  286   4.492   3.724   3.750
    1C        C  287   4.512   3.584   3.753
    1C        C  288   4.472   3.792   3.873
    1C        C  289   4.489   3.726   3.997
    1C        C  290   4.425   3.931   4.115
    1C        C  291   4.472   3.798   4.117
    1C        C  292   4.396   3.997   4.236
    1C        C  293   4.424   3.934   4.360
    1C        C  294   4.325   4.126   4.478
    1C        C  295   4.395   4.003   4.479
    1C        C  296   4.289   4.190   4.599
    1C        C  297   4.330   4.132   4.722
    1C        C  298   4.198   4.313   4.840
    1C        C  299   4.287   4.201   4.839
    1C        C  300   4.168   4.400   4.949
    1C        C  301   4.354   2.882   2.059
    1C        C  302   4.467   3.068   2.174
    1C        C  303   4.397   2.943   2.178
    1C        C  304   4.479   3.140   2.296
    1C        C  305   4.453   3.074   2.418
    1C        C  306   4.510   3.282   2.535
    1C        C  307   4.477   3.144   2.539
    1C        C  308   4.518   3.357   2.654
    1C        C  309   4.507   3.287   2.775
    1C        C  310   4.523   3.495   2.898
    1C        C  311   4.520   3.353   2.899
    1C        C  312   4.513   3.567   3.019
    1C        C  313   4.519   3.499   3.142
    1C        C  314   4.483   3.712   3.263
    1C        C  315   4.516   3.574   3.262
    1C        C  316   4.467   3.785   3.383
    1C        C  317   4.488   3.719   3.506
    1C        C  318   4.418   3.921   3.625
    1C        C  319   4.472   3.790   3.627
    1C        C  320   4.386   3.981   3.749
    1C        C  321   4.418   3.922   3.873
    1C        C  322   4.312   4.109   3.989
    1C        C  323   4.394   3.994   3.992
    1C        C  324   4.273   4.167   4.112
    1C        C  325   4.319   4.116   4.235
    1C        C  326   4.185   4.284   4.352
    1C        C  327   4.278   4.178   4.356
    1C        C  328   4.134   4.335   4.473
    1C        C  329   4.189   4.289   4.595
    1C        C  330   4.029   4.436   4.713
    1C        C  331   4.143   4.350   4.714
    1C        C  332   3.972   4.490   4.830
    1C        C  333   4.053   4.481   4.943
    1C        C  334   4.550   3.266   2.060
    1C        C  335   4.533   3.127   2.061
    1C        C  336   4.533   3.348   2.172
    1C        C  337   4.511   3.279   2.293
    1C        C  338   4.524   3.494   2.409
    1C        C  339   4.519   3.353   2.413
    1C        C  340   4.522   3.565   2.531
    1C        C  341   4.526   3.498   2.655
    1C        C  342   4.484   3.706   2.773
    1C        C  343   4.517   3.568   2.778
    1C        C  344   4.469   3.776   2.895
    1C        C  345   4.484   3.706   3.016
    1C        C  346   4.415   3.907   3.138
    1C        C  347   4.463   3.774   3.138
    1C        C  348   4.389   3.980   3.256
    1C        C  349   4.418   3.917   3.379
    1C        C  350   4.309   4.100   3.500
    1C        C  351   4.385   3.980   3.501
    1C        C  352   4.268   4.157   3.623
    1C        C  353   4.312   4.101   3.745
    1C        C  354   4.176   4.268   3.866
    1C        C  355   4.272   4.164   3.865
    1C        C  356   4.125   4.317   3.988
    1C        C  357   4.178   4.272   4.111
    1C        C  358   4.010   4.405   4.230
    1C        C  359   4.128   4.329   4.230
    1C        C  360   3.952   4.446   4.352
    1C        C  361   4.016   4.412   4.473
    1C        C  362   3.830   4.517   4.592
    1C        C  363   3.961   4.465   4.592
    1C        C  364   3.761   4.548   4.712
    1C        C  365   3.838   4.536   4.830
    1C        C  366   3.628   4.586   4.951
    1C        C  367   3.766   4.567   4.946
    1C        C  368   4.512   3.563   2.048
    1C        C  369   4.524   3.489   2.166
    1C        C  370   4.506   3.704   2.287
    1C        C  371   4.517   3.563   2.286
    1C        C  372   4.484   3.776   2.407
    1C        C  373   4.498   3.705   2.528
    1C        C  374   4.423   3.905   2.650
    1C        C  375   4.474   3.773   2.650
    1C        C  376   4.393   3.971   2.771
    1C        C  377   4.420   3.908   2.895
    1C        C  378   4.319   4.096   3.010
    1C        C  379   4.387   3.973   3.016
    1C        C  380   4.272   4.152   3.131
    1C        C  381   4.318   4.102   3.255
    1C        C  382   4.180   4.265   3.377
    1C        C  383   4.274   4.159   3.377
    1C        C  384   4.124   4.311   3.498
    1C        C  385   4.174   4.262   3.621
    1C        C  386   4.004   4.388   3.742
    1C        C  387   4.121   4.310   3.743
    1C        C  388   3.944   4.426   3.865
    1C        C  389   4.011   4.400   3.987
    1C        C  390   3.816   4.490   4.108
    1C        C  391   3.947   4.436   4.107
    1C        C  392   3.751   4.520   4.230
    1C        C  393   3.822   4.501   4.350
    1C        C  394   3.618   4.555   4.473
    1C        C  395   3.756   4.528   4.472
    1C        C  396   3.547   4.566   4.595
    1C        C  397   3.622   4.567   4.715
    1C        C  398   3.409   4.553   4.840
    1C        C  399   3.549   4.571   4.836
    1C        C  400   3.340   4.510   4.954
    1C        C  401   4.506   3.702   2.049
    1C        C  402   4.445   3.909   2.167
    1C        C  403   4.492   3.776   2.167
    1C        C  404   4.405   3.973   2.287
    1C        C  405   4.435   3.908   2.408
    1C        C  406   4.326   4.094   2.524
    1C        C  407   4.399   3.973   2.528
    1C        C  408   4.280   4.150   2.645
    1C        C  409   4.317   4.090   2.767
    1C        C  410   4.175   4.251   2.887
    1C        C  411   4.274   4.150   2.888
    1C        C  412   4.122   4.297   3.009
    1C        C  413   4.174   4.253   3.133
    1C        C  414   4.000   4.376   3.251
    1C        C  415   4.122   4.304   3.255
    1C        C  416   3.941   4.412   3.374
    1C        C  417   4.003   4.385   3.498
    1C        C  418   3.811   4.475   3.618
    1C        C  419   3.941   4.420   3.620
    1C        C  420   3.747   4.504   3.741
    1C        C  421   3.814   4.480   3.863
    1C        C  422   3.612   4.541   3.984
    1C        C  423   3.750   4.511   3.985
    1C        C  424   3.542   4.544   4.107
    1C        C  425   3.611   4.540   4.230
    1C        C  426   3.402   4.549   4.356
    1C        C  427   3.543   4.556   4.353
    1C        C  428   3.332   4.549   4.478
    1C        C  429   3.407   4.558   4.598
    1C        C  430   3.197   4.513   4.725
    1C        C  431   3.335   4.546   4.719
    1C        C  432   3.121   4.492   4.844
    1C        C  433   3.202   4.492   4.958
    1C        C  434   4.383   4.121   2.052
    1C        C  435   4.448   3.997   2.058
    1C        C  436   4.301   4.161   2.162
    1C        C  437   4.330   4.094   2.284
    1C        C  438   4.180   4.251   2.402
    1C        C  439   4.281   4.153   2.403
    1C        C  440   4.127   4.301   2.524
    1C        C  441   4.180   4.251   2.645
    1C        C  442   4.008   4.381   2.764
    1C        C  443   4.125   4.300   2.765
    1C        C  444   3.943   4.412   2.885
    1C        C  445   4.005   4.376   3.007
    1C        C  446   3.814   4.473   3.128
    1C        C  447   3.942   4.413   3.128
    1C        C  448   3.748   4.496   3.251
    1C        C  449   3.814   4.473   3.374
    1C        C  450   3.607   4.527   3.494
    1C        C  451   3.745   4.498   3.495
    1C        C  452   3.541   4.541   3.618
    1C        C  453   3.610   4.537   3.741
    1C        C  454   3.399   4.551   3.862
    1C        C  455   3.540   4.550   3.863
    1C        C  456   3.334   4.536   3.986
    1C        C  457   3.401   4.538   4.110
    1C        C  458   3.196   4.499   4.234
    1C        C  459   3.332   4.534   4.234
    1C        C  460   3.131   4.481   4.359
    1C        C  461   3.196   4.512   4.480
    1C        C  462   3.002   4.429   4.603
    1C        C  463   3.132   4.486   4.603
    1C        C  464   2.931   4.399   4.722
    1C        C  465   2.985   4.449   4.844
    1C        C  466   2.806   4.330   4.963
    1C        C  467   2.903   4.431   4.960
    1C        C  468   4.123   4.284   2.039
    1C        C  469   4.189   4.250   2.158
    1C        C  470   4.010   4.373   2.279
    1C        C  471   4.129   4.296   2.278
    1C        C  472   3.944   4.405   2.400
    1C        C  473   4.007   4.375   2.522
    1C        C  474   3.814   4.468   2.642
    1C        C  475   3.944   4.414   2.642
    1C        C  476   3.745   4.494   2.763
    1C        C  477   3.814   4.468   2.884
    1C        C  478   3.607   4.519   3.007
    1C        C  479   3.745   4.489   3.006
    1C        C  480   3.536   4.533   3.128
    1C        C  481   3.610   4.524   3.248
    1C        C  482   3.398   4.533   3.375
    1C        C  483   3.539   4.534   3.370
    1C        C  484   3.328   4.532   3.498
    1C        C  485   3.400   4.542   3.619
    1C        C  486   3.192   4.497   3.742
    1C        C  487   3.327   4.538   3.740
    1C        C  488   3.131   4.468   3.866
    1C        C  489   3.200   4.491   3.987
    1C        C  490   3.004   4.417   4.115
    1C        C  491   3.133   4.473   4.110
    1C        C  492   2.946   4.382   4.239
    1C        C  493   3.004   4.419   4.362
    1C        C  494   2.829   4.301   4.482
    1C        C  495   2.937   4.392   4.484
    1C        C  496   2.770   4.259   4.604
    1C        C  497   2.817   4.314   4.725
    1C        C  498   2.666   4.164   4.843
    1C        C  499   2.755   4.273   4.846
    1C        C  500   2.603   4.115   4.958
    1C        C  501   4.004   4.355   2.041
    1C        C  502   3.814   4.457   2.154
    1C        C  503   3.945   4.406   2.157
    1C        C  504   3.746   4.477   2.276
    1C        C  505   3.814   4.459   2.398
    1C        C  506   3.609   4.516   2.519
    1C        C  507   3.748   4.489   2.519
    1C        C  508   3.537   4.523   2.640
    1C        C  509   3.607   4.520   2.762
    1C        C  510   3.395   4.528   2.883
    1C        C  511   3.536   4.524   2.885
    1C        C  512   3.325   4.520   3.006
    1C        C  513   3.395   4.530   3.128
    1C        C  514   3.190   4.494   3.253
    1C        C  515   3.327   4.528   3.252
    1C        C  516   3.125   4.469   3.376
    1C        C  517   3.191   4.499   3.497
    1C        C  518   3.003   4.403   3.627
    1C        C  519   3.125   4.473   3.620
    1C        C  520   2.942   4.370   3.751
    1C        C  521   3.003   4.409   3.872
    1C        C  522   2.836   4.281   3.994
    1C        C  523   2.944   4.372   3.995
    1C        C  524   2.789   4.234   4.119
    1C        C  525   2.838   4.290   4.238
    1C        C  526   2.695   4.136   4.362
    1C        C  527   2.784   4.245   4.361
    1C        C  528   2.653   4.080   4.485
    1C        C  529   2.685   4.146   4.605
    1C        C  530   2.579   3.962   4.732
    1C        C  531   2.633   4.094   4.725
    1C        C  532   2.537   3.901   4.853
    1C        C  533   2.531   3.995   4.961
    1C        C  534   3.621   4.558   2.039
    1C        C  535   3.753   4.511   2.040
    1C        C  536   3.538   4.535   2.154
    1C        C  537   3.607   4.508   2.276
    1C        C  538   3.395   4.516   2.397
    1C        C  539   3.536   4.521   2.397
    1C        C  540   3.324   4.507   2.519
    1C        C  541   3.396   4.517   2.641
    1C        C  542   3.185   4.485   2.765
    1C        C  543   3.324   4.513   2.762
    1C        C  544   3.120   4.464   2.889
    1C        C  545   3.188   4.488   3.011
    1C        C  546   2.995   4.402   3.135
    1C        C  547   3.120   4.469   3.133
    1C        C  548   2.942   4.360   3.259
    1C        C  549   2.999   4.405   3.380
    1C        C  550   2.838   4.272   3.505
    1C        C  551   2.943   4.367   3.504
    1C        C  552   2.789   4.225   3.628
    1C        C  553   2.835   4.277   3.751
    1C        C  554   2.696   4.119   3.876
    1C        C  555   2.786   4.227   3.874
    1C        C  556   2.658   4.063   4.000
    1C        C  557   2.704   4.121   4.120
    1C        C  558   2.597   3.941   4.247
    1C        C  559   2.657   4.069   4.243
    1C        C  560   2.564   3.882   4.371
    1C        C  561   2.588   3.954   4.491
    1C        C  562   2.527   3.751   4.614
    1C        C  563   2.563   3.888   4.613
    1C        C  564   2.514   3.681   4.735
    1C        C  565   2.523   3.758   4.854
    1C        C  566   2.526   3.545   4.978
    1C        C  567   2.529   3.684   4.973
    1C        C  568   3.330   4.469   2.041
    1C        C  569   3.398   4.513   2.155
    1C        C  570   3.186   4.472   2.279
    1C        C  571   3.323   4.510   2.276
    1C        C  572   3.118   4.452   2.402
    1C        C  573   3.186   4.478   2.523
    1C        C  574   2.987   4.404   2.647
    1C        C  575   3.116   4.462   2.644
    1C        C  576   2.933   4.360   2.770
    1C        C  577   2.997   4.396   2.891
    1C        C  578   2.825   4.273   3.017
    1C        C  579   2.936   4.361   3.014
    1C        C  580   2.780   4.219   3.139
    1C        C  581   2.835   4.268   3.260
    1C        C  582   2.700   4.108   3.387
    1C        C  583   2.788   4.219   3.384
    1C        C  584   2.662   4.051   3.510
    1C        C  585   2.699   4.116   3.631
    1C        C  586   2.596   3.932   3.758
    1C        C  587   2.664   4.056   3.754
    1C        C  588   2.569   3.869   3.881
    1C        C  589   2.598   3.935   4.003
    1C        C  590   2.532   3.736   4.128
    1C        C  591   2.575   3.871   4.127
    1C        C  592   2.521   3.671   4.253
    1C        C  593   2.529   3.745   4.372
    1C        C  594   2.513   3.534   4.495
    1C        C  595   2.519   3.676   4.495
    1C        C  596   2.515   3.465   4.618
    1C        C  597   2.515   3.539   4.739
    1C        C  598   2.538   3.327   4.860
    1C        C  599   2.531   3.468   4.861
    1C        C  600   2.532   3.252   4.978
    1C        C  601   3.195   4.439   2.041
    1C        C  602   2.985   4.388   2.158
    1C        C  603   3.118   4.442   2.158
    1C        C  604   2.926   4.355   2.283
    1C        C  605   2.991   4.392   2.403
    1C        C  606   2.821   4.268   2.527
    1C        C  607   2.928   4.361   2.526
    1C        C  608   2.773   4.220   2.650
    1C        C  609   2.823   4.271   2.772
    1C        C  610   2.693   4.108   2.895
    1C        C  611   2.772   4.225   2.895
    1C        C  612   2.658   4.046   3.017
    1C        C  613   2.694   4.107   3.140
    1C        C  614   2.591   3.928   3.266
    1C        C  615   2.655   4.053   3.265
    1C        C  616   2.564   3.864   3.390
    1C        C  617   2.594   3.928   3.512
    1C        C  618   2.528   3.730   3.640
    1C        C  619   2.565   3.866   3.636
    1C        C  620   2.512   3.662   3.763
    1C        C  621   2.525   3.734   3.884
    1C        C  622   2.509   3.524   4.008
    1C        C  623   2.518   3.665   4.007
    1C        C  624   2.519   3.457   4.132
    1C        C  625   2.514   3.530   4.254
    1C        C  626   2.541   3.320   4.376
    1C        C  627   2.515   3.459   4.376
    1C        C  628   2.563   3.254   4.499
    1C        C  629   2.538   3.326   4.618
    1C        C  630   2.595   3.120   4.742
    1C        C  631   2.555   3.256   4.739
    1C        C  632   2.615   3.048   4.863
    1C        C  633   2.567   3.117   4.978
    1C        C  634   2.782   4.304   2.054
    1C        C  635   2.889   4.394   2.053
    1C        C  636   2.747   4.228   2.167
    1C        C  637   2.811   4.272   2.285
    1C        C  638   2.676   4.109   2.410
    1C        C  639   2.762   4.221   2.407
    1C        C  640   2.640   4.049   2.533
    1C        C  641   2.685   4.109   2.653
    1C        C  642   2.583   3.923   2.777
    1C        C  643   2.647   4.049   2.775
    1C        C  644   2.557   3.858   2.899
    1C        C  645   2.586   3.925   3.020
    1C        C  646   2.528   3.725   3.151
    1C        C  647   2.562   3.862   3.144
    1C        C  648   2.512   3.657   3.274
    1C        C  649   2.520   3.730   3.394
    1C        C  650   2.513   3.519   3.520
    1C        C  651   2.518   3.660   3.517
    1C        C  652   2.516   3.450   3.644
    1C        C  653   2.501   3.521   3.765
    1C        C  654   2.527   3.311   3.890
    1C        C  655   2.505   3.450   3.887
    1C        C  656   2.539   3.243   4.013
    1C        C  657   2.528   3.316   4.134
    1C        C  658   2.588   3.110   4.257
    1C        C  659   2.552   3.247   4.255
    1C        C  660   2.630   3.051   4.378
    1C        C  661   2.613   3.122   4.499
    1C        C  662   2.711   2.937   4.626
    1C        C  663   2.635   3.056   4.622
    1C        C  664   2.752   2.878   4.747
    1C        C  665   2.700   2.933   4.868
    1C        C  666   2.746   2.877   4.988
    1C        C  667   2.677   4.020   2.056
    1C        C  668   2.680   4.104   2.167
    1C        C  669   2.591   3.911   2.294
    1C        C  670   2.644   4.043   2.290
    1C        C  671   2.554   3.849   2.415
    1C        C  672   2.586   3.919   2.533
    1C        C  673   2.520   3.719   2.659
    1C        C  674   2.555   3.856   2.656
    1C        C  675   2.508   3.650   2.782
    1C        C  676   2.518   3.722   2.903
    1C        C  677   2.503   3.515   3.031
    1C        C  678   2.515   3.656   3.028
    1C        C  679   2.510   3.444   3.152
    1C        C  680   2.509   3.516   3.274
    1C        C  681   2.534   3.309   3.404
    1C        C  682   2.514   3.448   3.398
    1C        C  683   2.555   3.240   3.526
    1C        C  684   2.537   3.310   3.647
    1C        C  685   2.602   3.109   3.770
    1C        C  686   2.547   3.239   3.769
    1C        C  687   2.632   3.050   3.895
    1C        C  688   2.592   3.112   4.015
    1C        C  689   2.709   2.936   4.140
    1C        C  690   2.618   3.043   4.136
    1C        C  691   2.752   2.876   4.261
    1C        C  692   2.710   2.935   4.382
    1C        C  693   2.755   2.880   4.504
    1C        C  694   2.625   3.890   2.057
    1C        C  695   2.519   3.706   2.178
    1C        C  696   2.573   3.836   2.176
    1C        C  697   2.500   3.639   2.301
    1C        C  698   2.513   3.714   2.420
    1C        C  699   2.494   3.502   2.542
    1C        C  700   2.503   3.643   2.541
    1C        C  701   2.498   3.435   2.667
    1C        C  702   2.500   3.509   2.787
    1C        C  703   2.536   3.303   2.911
    1C        C  704   2.506   3.441   2.910
    1C        C  705   2.548   3.237   3.036
    1C        C  706   2.530   3.304   3.159
    1C        C  707   2.602   3.107   3.279
    1C        C  708   2.550   3.238   3.282
    1C        C  709   2.636   3.044   3.401
    1C        C  710   2.605   3.108   3.524
    1C        C  711   2.711   2.929   3.647
    1C        C  712   2.632   3.046   3.648
    1C        C  713   2.756   2.878   3.771
    1C        C  714   2.715   2.935   3.894
    1C        C  715   2.759   2.883   4.018
    1C        C  716   2.449   3.498   2.065
    1C        C  717   2.486   3.634   2.063
    1C        C  718   2.465   3.419   2.183
    1C        C  719   2.478   3.498   2.300
    1C        C  720   2.517   3.289   2.424
    1C        C  721   2.491   3.428   2.422
    1C        C  722   2.542   3.223   2.546
    1C        C  723   2.522   3.296   2.666
    1C        C  724   2.600   3.101   2.789
    1C        C  725   2.548   3.232   2.789
    1C        C  726   2.634   3.040   2.913
    1C        C  727   2.605   3.108   3.033
    1C        C  728   2.710   2.926   3.158
    1C        C  729   2.635   3.045   3.156
    1C        C  730   2.755   2.870   3.280
    1C        C  731   2.716   2.927   3.402
    1C        C  732   2.756   2.871   3.526
    1C        C  733   2.482   3.190   2.074
    1C        C  734   2.490   3.278   2.183
    1C        C  735   2.585   3.085   2.305
    1C        C  736   2.526   3.214   2.305
    1C        C  737   2.617   3.020   2.426
    1C        C  738   2.597   3.093   2.546
    1C        C  739   2.704   2.913   2.667
    1C        C  740   2.631   3.033   2.669
    1C        C  741   2.750   2.862   2.791
    1C        C  742   2.709   2.920   2.912
    1C        C  743   2.754   2.870   3.036
    1C        C  744   2.551   3.069   2.075
    1C        C  745   2.692   2.895   2.184
    1C        C  746   2.616   3.015   2.186
    1C        C  747   2.732   2.835   2.305
    1C        C  748   2.689   2.898   2.423
    1C        C  749   2.742   2.851   2.545
    1C        C  750   2.742   2.839   2.066
    1C        C  751   3.662   2.317   1.975
    1C        O  752   3.671   2.196   2.012
    1C        O  753   3.622   2.324   1.841
    1C        C  754   4.636   3.055   1.983
    1C        O  755   4.635   3.067   1.857
    1C        O  756   4.769   3.053   2.027
    1C        C  757   4.455   4.225   1.975
    1C        O  758   4.549   4.285   2.033
    1C        O  759   4.476   4.224   1.836
    1C        C  760   3.583   4.650   1.929
    1C        O  761   3.580   4.769   1.971
    1C        O  762   3.631   4.630   1.799
    1C        C  763   2.901   4.498   1.948
    1C        O  764   2.881   4.463   1.828
    1C        O  765   2.919   4.636   1.948
    1C        C  766   2.375   3.446   1.947
    1C        O  767   2.441   3.425   1.842
    1C        O  768   2.251   3.507   1.923
    1C        C  769   4.687   3.592   5.057
    1C        O  770   4.676   3.565   5.180
    1C        O  771   4.819   3.616   5.015
    1C        C  772   4.267   4.427   5.056
    1C        O  773   4.229   4.470   5.168
    1C        O  774   4.393   4.476   5.019
    1C        C  775   4.142   2.511   5.068
    1C        O  776   4.255   2.469   5.032
    1C        O  777   4.110   2.463   5.196
    1C        C  778   2.885   4.533   5.065
    1C        O  779   2.882   4.656   5.039
    1C        O  780   2.906   4.503   5.201
    1C        C  781   2.476   3.031   5.057
    1C        O  782   2.363   2.997   5.012
    1C        O  783   2.467   3.056   5.194
    1C        C  784   2.413   3.992   5.050
    1C        O  785   2.324   4.082   5.051
    1C        O  786   2.435   3.950   5.182
    1C        C  787   2.941   2.413   2.020
    1C        O  788   2.908   2.420   1.899
    1C        O  789   2.906   2.299   2.092
    1C        C  790   3.175   2.363   5.054
    1C        O  791   3.129   2.264   4.991
    1C        O  792   3.218   2.356   5.187
    1C        H  793   4.249   3.038   5.041
    1C        H  794   4.221   2.790   5.073
    1C        H  795   4.501   3.118   5.052
    1C        H  796   4.492   3.373   5.063
    1C        H  797   4.522   3.803   5.052
    1C        H  798   4.478   4.020   5.034
    1C        H  799   4.237   4.126   5.024
    1C        H  800   4.028   4.538   5.030
    1C        H  801   3.824   4.595   5.031
    1C        H  802   3.578   4.588   5.045
    1C        H  803   3.392   4.453   5.028
    1C        H  804   3.159   4.537   5.044
    1C        H  805   3.873   2.524   5.072
    1C        H  806   3.671   2.424   5.066
    1C        H  807   2.983   2.531   5.044
    1C        H  808   3.444   2.530   5.072
    1C        H  809   2.853   2.713   5.072
    1C        H  810   2.731   2.933   5.078
    1C        H  811   2.486   3.285   5.069
    1C        H  812   2.543   3.498   5.073
    1C        H  813   2.541   3.736   5.065
    1C        H  814   2.570   4.187   5.030
    1C        H  815   2.806   4.279   5.057
    1C        H  816   2.723   2.880   1.969
    1C        H  817   2.798   2.646   2.000
    1C        H  818   3.217   2.467   1.980
    1C        H  819   3.435   2.449   1.980
    1C        H  820   3.878   2.486   1.974
    1C        H  821   4.042   2.664   1.971
    1C        H  822   4.290   2.697   1.989
    1C        H  823   4.418   2.893   1.975
    1C        H  824   4.571   3.312   1.965
    1C        H  825   4.506   3.516   1.953
    1C        H  826   4.496   3.747   1.953
    1C        H  827   3.799   4.498   1.944
    1C        H  828   3.952   4.371   1.948
    1C        H  829   4.140   4.218   1.957
    1C        H  830   4.488   3.963   1.964
    1C        H  831   2.644   3.830   1.970
    1C        H  832   2.690   4.066   1.960
    1C        H  833   2.708   4.314   1.977
    1C        H  834   3.378   4.477   1.945
    1C        H  835   3.154   4.402   1.950
    1C        H  836   2.523   2.996   2.002
    1C        H  837   2.395   3.193   2.011
    1C        H  838   2.436   3.689   1.986
    2V3OU   H29  839   2.805   3.556   3.693
    2V3OU   C27  840   2.788   3.504   3.791
    2V3OU   H27  841   2.737   3.568   3.867
    2V3OU   H28  842   2.739   3.407   3.764
    2V3OU   O11  843   2.921   3.469   3.832
    2V3OU   C15  844   2.930   3.395   3.948
    2V3OU   C13  845   3.057   3.366   4.001
    2V3OU   C14  846   3.084   3.263   4.091
    2V3OU   C16  847   2.981   3.183   4.138
    2V3OU    H6  848   2.995   3.093   4.200
    2V3OU   C12  849   3.216   3.224   4.145
    2V3OU    O2  850   3.235   3.119   4.210
    2V3OU   C10  851   3.328   3.312   4.110
    2V3OU    C8  852   3.457   3.267   4.137
    2V3OU   O10  853   3.494   3.145   4.184
    2V3OU   H26  854   3.404   3.111   4.200
    2V3OU    C6  855   3.566   3.348   4.094
    2V3OU    C5  856   3.540   3.466   4.026
    2V3OU    C4  857   3.704   3.293   4.087
    2V3OU    H4  858   3.725   3.227   4.177
    2V3OU    H5  859   3.712   3.233   3.992
    2V3OU    C2  860   3.816   3.398   4.090
    2V3OU    O6  861   3.806   3.477   4.209
    2V3OU   H21  862   3.762   3.557   4.177
    2V3OU    C3  863   3.785   3.492   3.974
    2V3OU    H2  864   3.865   3.571   3.979
    2V3OU    H3  865   3.783   3.441   3.875
    2V3OU   C25  866   3.953   3.330   4.080
    2V3OU    O7  867   3.997   3.291   3.972
    2V3OU   C26  868   4.030   3.291   4.205
    2V3OU   H22  869   4.065   3.389   4.248
    2V3OU   H23  870   4.120   3.230   4.178
    2V3OU    O8  871   3.956   3.216   4.298
    2V3OU   H24  872   3.930   3.264   4.378
    2V3OU    C1  873   3.650   3.562   3.991
    2V3OU    H1  874   3.625   3.612   3.893
    2V3OU    O3  875   3.661   3.660   4.094
    2V3OU   C19  876   3.618   3.796   4.080
    2V3OU    H9  877   3.516   3.800   4.030
    2V3OU    O4  878   3.712   3.848   3.989
    2V3OU   C20  879   3.846   3.870   4.037
    2V3OU   H10  880   3.904   3.773   4.040
    2V3OU   C24  881   3.609   3.857   4.220
    2V3OU   H16  882   3.545   3.794   4.288
    2V3OU   H17  883   3.565   3.960   4.218
    2V3OU   C23  884   3.751   3.877   4.273
    2V3OU   H15  885   3.796   3.775   4.298
    2V3OU    N1  886   3.740   3.955   4.395
    2V3OU   H19  887   3.812   3.925   4.457
    2V3OU   H20  888   3.655   3.926   4.440
    2V3OU   C21  889   3.849   3.942   4.171
    2V3OU   H11  890   3.954   3.930   4.210
    2V3OU    O5  891   3.818   4.080   4.152
    2V3OU   H18  892   3.777   4.110   4.235
    2V3OU   C22  893   3.912   3.942   3.921
    2V3OU   H12  894   3.868   4.044   3.906
    2V3OU   H13  895   3.902   3.884   3.825
    2V3OU   H14  896   4.019   3.964   3.943
    2V3OU   C11  897   3.162   3.469   3.998
    2V3OU    O1  898   3.132   3.584   3.961
    2V3OU    C9  899   3.300   3.431   4.038
    2V3OU    C7  900   3.407   3.507   3.992
    2V3OU    O9  901   3.383   3.622   3.921
    2V3OU   H25  902   3.287   3.628   3.910
    2V3OU   C17  903   2.829   3.314   4.005
    2V3OU    H7  904   2.731   3.361   3.996
    2V3OU   C18  905   2.851   3.214   4.098
    2V3OU    H8  906   2.787   3.177   4.180
    3SOL     OW  907   3.481   4.533   5.626
    3SOL    HW1  908   3.430   4.522   5.711
    3SOL    HW2  909   3.432   4.489   5.551
    4SOL     OW  910   0.001   6.894   0.130
    4SOL    HW1  911   0.016   6.819   0.195
    4SOL    HW2  912   6.925   6.908   0.119
    5SOL     OW  913   5.099   1.213   3.044
    5SOL    HW1  914   5.189   1.178   3.017
    5SOL    HW2  915   5.099   1.313   3.038
    6SOL     OW  916   5.347   2.094   3.055
    6SOL    HW1  917   5.440   2.068   3.028
    6SOL    HW2  918   5.284   2.018   3.036
    7SOL     OW  919   1.044   4.135   4.946
    7SOL    HW1  920   1.011   4.054   4.994
    7SOL    HW2  921   1.046   4.213   5.009
    8SOL     OW  922   2.619   2.065   5.160
    8SOL    HW1  923   2.542   2.077   5.097
    8SOL    HW2  924   2.635   1.968   5.174
    9SOL     OW  925   6.453   1.574   5.895
    9SOL    HW1  926   6.491   1.585   5.803
    9SOL    HW2  927   6.515   1.517   5.950
   10SOL     OW  928   3.723   4.927   4.210
   10SOL    HW1  929   3.700   4.904   4.115
   10SOL    HW2  930   3.663   4.999   4.243
   11SOL     OW  931   1.474   1.233   0.168
   11SOL    HW1  932   1.557   1.186   0.137
   11SOL    HW2  933   1.487   1.267   0.261
   12SOL     OW  934   2.731   4.764   4.001
   12SOL    HW1  935   2.650   4.783   4.057
   12SOL    HW2  936   2.813   4.783   4.054
   13SOL     OW  937   3.161   5.988   2.858
   13SOL    HW1  938   3.152   6.055   2.784
   13SOL    HW2  939   3.070   5.955   2.884
   14SOL     OW  940   4.432   4.818   6.099
   14SOL    HW1  941   4.418   4.740   6.159
   14SOL    HW2  942   4.350   4.832   6.043
   15SOL     OW  943   0.514   6.623   6.324
   15SOL    HW1  944   0.604   6.628   6.281
   15SOL    HW2  945   0.494   6.527   6.347
   16SOL     OW  946   5.387   2.342   6.461
   16SOL    HW1  947   5.402   2.433   6.423
   16SOL    HW2  948   5.414   2.341   6.557
   17SOL     OW  949   5.714   0.839   6.402
   17SOL    HW1  950   5.714   0.775   6.325
   17SOL    HW2  951   5.662   0.800   6.478
   18SOL     OW  952   3.495   1.202   5.163
   18SOL    HW1  953   3.594   1.215   5.169
   18SOL    HW2  954   3.453   1.227   5.250
   19SOL     OW  955   0.166   1.876   2.514
   19SOL    HW1  956   0.124   1.915   2.596
   19SOL    HW2  957   0.241   1.936   2.484
   20SOL     OW  958   5.707   1.825   5.516
   20SOL    HW1  959   5.803   1.847   5.500
   20SOL    HW2  960   5.676   1.758   5.448
   21SOL     OW  961   3.219   6.915   3.009
   21SOL    HW1  962   3.173   6.922   2.921
   21SOL    HW2  963   3.257   7.004   3.034
   22SOL     OW  964   0.812   6.104   6.084
   22SOL    HW1  965   0.841   6.097   6.180
   22SOL    HW2  966   0.843   6.023   6.034
   23SOL     OW  967   4.627   5.473   2.288
   23SOL    HW1  968   4.591   5.548   2.344
   23SOL    HW2  969   4.551   5.423   2.247
   24SOL     OW  970   4.053   0.121   2.278
   24SOL    HW1  971   3.988   0.158   2.211
   24SOL    HW2  972   4.145   0.122   2.239
   25SOL     OW  973   2.839   6.915   4.244
   25SOL    HW1  974   2.850   6.996   4.187
   25SOL    HW2  975   2.825   6.835   4.186
   26SOL     OW  976   0.927   2.047   6.822
   26SOL    HW1  977   0.982   2.110   6.765
   26SOL    HW2  978   0.987   1.977   6.860
   27SOL     OW  979   1.148   1.107   2.427
   27SOL    HW1  980   1.168   1.015   2.460
   27SOL    HW2  981   1.233   1.153   2.403
   28SOL     OW  982   1.048   0.861   4.211
   28SOL    HW1  983   1.113   0.805   4.262
   28SOL    HW2  984   1.086   0.953   4.199
   29SOL     OW  985   6.078   1.001   1.060
   29SOL    HW1  986   6.170   1.001   1.022
   29SOL    HW2  987   6.082   0.974   1.156
   30SOL     OW  988   3.694   0.519   4.711
   30SOL    HW1  989   3.726   0.545   4.619
   30SOL    HW2  990   3.722   0.589   4.777
   31SOL     OW  991   0.256   2.233   5.280
   31SOL    HW1  992   0.326   2.273   5.222
   31SOL    HW2  993   0.224   2.300   5.347
   32SOL     OW  994   1.490   1.471   2.477
   32SOL    HW1  995   1.587   1.464   2.502
   32SOL    HW2  996   1.481   1.523   2.392
   33SOL     OW  997   0.216   3.689   5.162
   33SOL    HW1  998   0.181   3.782   5.156
   33SOL    HW2  999   0.143   3.624   5.139
   34SOL     OW 1000   2.793   5.445   5.172
   34SOL    HW1 1001   2.775   5.542   5.152
   34SOL    HW2 1002   2.886   5.422   5.143
   35SOL     OW 1003   4.464   1.716   5.590
   35SOL    HW1 1004   4.473   1.641   5.526
   35SOL    HW2 1005   4.371   1.752   5.588
   36SOL     OW 1006   5.236   0.952   4.199
   36SOL    HW1 1007   5.268   0.859   4.182
   36SOL    HW2 1008   5.282   1.015   4.136
   37SOL     OW 1009   2.032   1.388   4.120
   37SOL    HW1 1010   1.995   1.469   4.166
   37SOL    HW2 1011   2.105   1.348   4.175
   38SOL     OW 1012   2.033   4.258   1.679
   38SOL    HW1 1013   2.050   4.165   1.712
   38SOL    HW2 1014   1.970   4.305   1.740
   39SOL     OW 1015   6.401   4.158   6.570
   39SOL    HW1 1016   6.347   4.142   6.653
   39SOL    HW2 1017   6.473   4.225   6.589
   40SOL     OW 1018   3.468   0.645   6.257
   40SOL    HW1 1019   3.498   0.584   6.330
   40SOL    HW2 1020   3.369   0.657   6.262
   41SOL     OW 1021   6.331   4.129   2.605
   41SOL    HW1 1022   6.274   4.189   2.550
   41SOL    HW2 1023   6.365   4.179   2.685
   42SOL     OW 1024   3.053   6.520   4.197
   42SOL    HW1 1025   2.989   6.443   4.200
   42SOL    HW2 1026   3.145   6.485   4.181
   43SOL     OW 1027   3.874   6.866   5.187
   43SOL    HW1 1028   3.785   6.879   5.143
   43SOL    HW2 1029   3.928   6.949   5.177
   44SOL     OW 1030   5.924   3.025   4.934
   44SOL    HW1 1031   5.838   3.077   4.936
   44SOL    HW2 1032   5.960   3.024   4.841
   45SOL     OW 1033   4.376   5.736   2.248
   45SOL    HW1 1034   4.314   5.814   2.240
   45SOL    HW2 1035   4.433   5.730   2.167
   46SOL     OW 1036   0.394   2.887   3.904
   46SOL    HW1 1037   0.387   2.851   3.810
   46SOL    HW2 1038   0.490   2.905   3.925
   47SOL     OW 1039   4.968   4.040   1.650
   47SOL    HW1 1040   5.045   3.988   1.612
   47SOL    HW2 1041   4.957   4.017   1.747
   48SOL     OW 1042   0.312   1.815   6.367
   48SOL    HW1 1043   0.308   1.880   6.291
   48SOL    HW2 1044   0.233   1.754   6.363
   49SOL     OW 1045   5.362   2.886   1.595
   49SOL    HW1 1046   5.293   2.816   1.582
   49SOL    HW2 1047   5.323   2.963   1.646
   50SOL     OW 1048   6.114   1.761   6.138
   50SOL    HW1 1049   6.068   1.742   6.225
   50SOL    HW2 1050   6.083   1.850   6.103
   51SOL     OW 1051   1.686   5.737   2.674
   51SOL    HW1 1052   1.715   5.662   2.616
   51SOL    HW2 1053   1.587   5.731   2.690
   52SOL     OW 1054   5.641   2.534   1.843
   52SOL    HW1 1055   5.740   2.543   1.850
   52SOL    HW2 1056   5.616   2.437   1.845
   53SOL     OW 1057   4.855   0.230   3.508
   53SOL    HW1 1058   4.816   0.151   3.462
   53SOL    HW2 1059   4.914   0.280   3.443
   54SOL     OW 1060   5.742   6.389   0.065
   54SOL    HW1 1061   5.681   6.373   7.010
   54SOL    HW2 1062   5.737   6.485   0.092
   55SOL     OW 1063   2.043   2.051   5.985
   55SOL    HW1 1064   2.051   2.028   5.888
   55SOL    HW2 1065   2.059   1.969   6.040
   56SOL     OW 1066   1.243   1.602   1.353
   56SOL    HW1 1067   1.291   1.538   1.293
   56SOL    HW2 1068   1.169   1.646   1.303
   57SOL     OW 1069   3.812   1.149   6.816
   57SOL    HW1 1070   3.796   1.228   6.876
   57SOL    HW2 1071   3.869   1.176   6.739
   58SOL     OW 1072   0.333   0.524   6.530
   58SOL    HW1 1073   0.343   0.495   6.435
   58SOL    HW2 1074   0.423   0.546   6.568
   59SOL     OW 1075   6.736   3.372   6.100
   59SOL    HW1 1076   6.723   3.439   6.173
   59SOL    HW2 1077   6.820   3.320   6.118
   60SOL     OW 1078   5.416   1.484   3.407
   60SOL    HW1 1079   5.399   1.574   3.367
   60SOL    HW2 1080   5.338   1.458   3.464
   61SOL     OW 1081   0.228   0.667   4.386
   61SOL    HW1 1082   0.246   0.576   4.349
   61SOL    HW2 1083   0.137   0.697   4.357
   62SOL     OW 1084   1.248   1.143   1.545
   62SOL    HW1 1085   1.178   1.098   1.599
   62SOL    HW2 1086   1.300   1.206   1.604
   63SOL     OW 1087   3.863   0.302   4.431
   63SOL    HW1 1088   3.878   0.222   4.372
   63SOL    HW2 1089   3.934   0.305   4.501
   64SOL     OW 1090   1.138   3.590   6.295
   64SOL    HW1 1091   1.155   3.502   6.339
   64SOL    HW2 1092   1.156   3.583   6.197
   65SOL     OW 1093   0.735   6.542   5.656
   65SOL    HW1 1094   0.652   6.492   5.633
   65SOL    HW2 1095   0.732   6.633   5.613
   66SOL     OW 1096   3.666   0.056   2.876
   66SOL    HW1 1097   3.649   0.018   2.784
   66SOL    HW2 1098   3.658   0.155   2.873
   67SOL     OW 1099   0.052   2.143   6.384
   67SOL    HW1 1100   0.038   2.240   6.406
   67SOL    HW2 1101   0.133   2.134   6.325
   68SOL     OW 1102   6.949   1.491   5.699
   68SOL    HW1 1103   6.924   1.581   5.663
   68SOL    HW2 1104   6.895   1.420   5.653
   69SOL     OW 1105   1.619   4.211   6.014
   69SOL    HW1 1106   1.658   4.177   5.928
   69SOL    HW2 1107   1.693   4.238   6.075
   70SOL     OW 1108   5.135   4.376   5.051
   70SOL    HW1 1109   5.078   4.362   5.131
   70SOL    HW2 1110   5.230   4.387   5.079
   71SOL     OW 1111   4.669   2.001   3.980
   71SOL    HW1 1112   4.667   2.083   4.036
   71SOL    HW2 1113   4.762   1.963   3.979
   72SOL     OW 1114   0.214   1.103   3.113
   72SOL    HW1 1115   0.301   1.065   3.145
   72SOL    HW2 1116   0.210   1.200   3.134
   73SOL     OW 1117   3.379   0.389   0.470
   73SOL    HW1 1118   3.318   0.319   0.433
   73SOL    HW2 1119   3.339   0.427   0.554
   74SOL     OW 1120   2.528   1.666   6.382
   74SOL    HW1 1121   2.448   1.614   6.413
   74SOL    HW2 1122   2.508   1.764   6.385
   75SOL     OW 1123   3.752   1.214   1.357
   75SOL    HW1 1124   3.765   1.128   1.406
   75SOL    HW2 1125   3.708   1.280   1.417
   76SOL     OW 1126   2.350   4.217   5.818
   76SOL    HW1 1127   2.371   4.223   5.720
   76SOL    HW2 1128   2.297   4.134   5.835
   77SOL     OW 1129   2.290   5.403   4.117
   77SOL    HW1 1130   2.350   5.333   4.154
   77SOL    HW2 1131   2.309   5.491   4.160
   78SOL     OW 1132   4.341   1.570   1.277
   78SOL    HW1 1133   4.247   1.538   1.270
   78SOL    HW2 1134   4.377   1.591   1.186
   79SOL     OW 1135   2.696   5.730   2.256
   79SOL    HW1 1136   2.784   5.685   2.270
   79SOL    HW2 1137   2.707   5.829   2.261
   80SOL     OW 1138   4.655   1.839   5.315
   80SOL    HW1 1139   4.662   1.751   5.362
   80SOL    HW2 1140   4.559   1.857   5.293
   81SOL     OW 1141   2.062   0.134   0.141
   81SOL    HW1 1142   2.004   0.117   0.061
   81SOL    HW2 1143   2.079   0.048   0.189
   82SOL     OW 1144   0.581   6.228   2.009
   82SOL    HW1 1145   0.542   6.185   2.090
   82SOL    HW2 1146   0.557   6.175   1.928
   83SOL     OW 1147   6.889   1.737   5.565
   83SOL    HW1 1148   6.800   1.716   5.526
   83SOL    HW2 1149   6.960   1.716   5.498
   84SOL     OW 1150   6.029   4.065   3.311
   84SOL    HW1 1151   5.954   4.032   3.368
   84SOL    HW2 1152   6.003   4.058   3.214
   85SOL     OW 1153   2.220   0.562   3.572
   85SOL    HW1 1154   2.263   0.590   3.486
   85SOL    HW2 1155   2.288   0.519   3.631
   86SOL     OW 1156   6.444   1.153   6.737
   86SOL    HW1 1157   6.391   1.137   6.654
   86SOL    HW2 1158   6.409   1.235   6.784
   87SOL     OW 1159   4.661   4.182   0.315
   87SOL    HW1 1160   4.645   4.194   0.217
   87SOL    HW2 1161   4.690   4.269   0.355
   88SOL     OW 1162   2.810   2.103   5.729
   88SOL    HW1 1163   2.905   2.128   5.749
   88SOL    HW2 1164   2.754   2.117   5.811
   89SOL     OW 1165   2.811   3.431   1.563
   89SOL    HW1 1166   2.736   3.367   1.545
   89SOL    HW2 1167   2.898   3.383   1.558
   90SOL     OW 1168   5.203   4.227   1.848
   90SOL    HW1 1169   5.139   4.299   1.878
   90SOL    HW2 1170   5.261   4.264   1.776
   91SOL     OW 1171   6.104   6.151   6.398
   91SOL    HW1 1172   6.031   6.156   6.331
   91SOL    HW2 1173   6.092   6.069   6.455
   92SOL     OW 1174   4.993   3.753   0.990
   92SOL    HW1 1175   4.979   3.739   1.088
   92SOL    HW2 1176   4.931   3.824   0.956
   93SOL     OW 1177   2.951   2.966   0.535
   93SOL    HW1 1178   2.893   2.890   0.504
   93SOL    HW2 1179   3.025   2.980   0.469
   94SOL     OW 1180   2.296   6.586   0.229
   94SOL    HW1 1181   2.240   6.522   0.281
   94SOL    HW2 1182   2.386   6.595   0.272
   95SOL     OW 1183   1.258   0.685   3.773
   95SOL    HW1 1184   1.259   0.604   3.715
   95SOL    HW2 1185   1.197   0.669   3.851
   96SOL     OW 1186   4.944   5.151   0.033
   96SOL    HW1 1187   4.885   5.163   0.113
   96SOL    HW2 1188   4.935   5.057   7.022
   97SOL     OW 1189   2.139   4.818   5.537
   97SOL    HW1 1190   2.230   4.776   5.537
   97SOL    HW2 1191   2.148   4.917   5.530
   98SOL     OW 1192   0.789   2.244   1.059
   98SOL    HW1 1193   0.791   2.217   0.963
   98SOL    HW2 1194   0.704   2.213   1.101
   99SOL     OW 1195   3.899   3.894   3.046
   99SOL    HW1 1196   3.878   3.986   3.077
   99SOL    HW2 1197   3.970   3.854   3.104
  100SOL     OW 1198   6.979   0.417   4.105
  100SOL    HW1 1199   6.991   0.507   4.063
  100SOL    HW2 1200   6.903   0.421   4.170
  101SOL     OW 1201   0.566   5.196   2.238
  101SOL    HW1 1202   0.593   5.267   2.173
  101SOL    HW2 1203   0.646   5.140   2.261
  102SOL     OW 1204   2.932   6.267   2.201
  102SOL    HW1 1205   2.988   6.349   2.198
  102SOL    HW2 1206   2.945   6.215   2.116
  103SOL     OW 1207   1.596   1.193   2.164
  103SOL    HW1 1208   1.668   1.124   2.179
  103SOL    HW2 1209   1.638   1.283   2.152
  104SOL     OW 1210   1.613   5.066   2.749
  104SOL    HW1 1211   1.639   5.002   2.676
  104SOL    HW2 1212   1.514   5.073   2.754
  105SOL     OW 1213   4.959   1.267   6.247
  105SOL    HW1 1214   5.019   1.286   6.325
  105SOL    HW2 1215   4.957   1.169   6.230
  106SOL     OW 1216   4.955   5.108   1.465
  106SOL    HW1 1217   4.883   5.075   1.525
  106SOL    HW2 1218   5.039   5.120   1.517
  107SOL     OW 1219   6.518   0.608   0.069
  107SOL    HW1 1220   6.613   0.576   0.072
  107SOL    HW2 1221   6.499   0.663   0.150
  108SOL     OW 1222   2.929   6.732   4.998
  108SOL    HW1 1223   2.858   6.787   5.043
  108SOL    HW2 1224   2.888   6.680   4.923
  109SOL     OW 1225   3.423   0.611   3.069
  109SOL    HW1 1226   3.472   0.538   3.116
  109SOL    HW2 1227   3.367   0.573   2.995
  110SOL     OW 1228   2.075   5.071   5.018
  110SOL    HW1 1229   2.002   5.031   5.074
  110SOL    HW2 1230   2.164   5.043   5.053
  111SOL     OW 1231   6.830   1.492   2.631
  111SOL    HW1 1232   6.864   1.569   2.686
  111SOL    HW2 1233   6.875   1.492   2.542
  112SOL     OW 1234   4.780   6.562   6.459
  112SOL    HW1 1235   4.777   6.654   6.420
  112SOL    HW2 1236   4.690   6.520   6.453
  113SOL     OW 1237   6.541   5.247   3.147
  113SOL    HW1 1238   6.638   5.256   3.168
  113SOL    HW2 1239   6.515   5.317   3.080
  114SOL     OW 1240   0.796   5.184   2.718
  114SOL    HW1 1241   0.708   5.224   2.744
  114SOL    HW2 1242   0.782   5.092   2.681
  115SOL     OW 1243   6.014   1.193   3.547
  115SOL    HW1 1244   5.928   1.168   3.590
  115SOL    HW2 1245   6.003   1.279   3.497
  116SOL     OW 1246   0.070   5.837   1.261
  116SOL    HW1 1247   0.053   5.934   1.274
  116SOL    HW2 1248   7.016   5.785   1.298
  117SOL     OW 1249   2.723   1.221   0.134
  117SOL    HW1 1250   2.768   1.306   0.107
  117SOL    HW2 1251   2.682   1.233   0.224
  118SOL     OW 1252   1.504   1.352   3.661
  118SOL    HW1 1253   1.434   1.340   3.731
  118SOL    HW2 1254   1.508   1.448   3.634
  119SOL     OW 1255   0.627   6.748   0.032
  119SOL    HW1 1256   0.661   6.836   0.066
  119SOL    HW2 1257   0.530   6.739   0.052
  120SOL     OW 1258   5.118   6.800   4.867
  120SOL    HW1 1259   5.154   6.774   4.957
  120SOL    HW2 1260   5.078   6.720   4.823
  121SOL     OW 1261   1.587   4.006   0.152
  121SOL    HW1 1262   1.511   4.067   0.128
  121SOL    HW2 1263   1.555   3.935   0.214
  122SOL     OW 1264   1.370   3.437   0.513
  122SOL    HW1 1265   1.359   3.435   0.612
  122SOL    HW2 1266   1.427   3.515   0.487
  123SOL     OW 1267   1.337   0.783   1.106
  123SOL    HW1 1268   1.273   0.836   1.162
  123SOL    HW2 1269   1.334   0.816   1.012
  124SOL     OW 1270   3.308   2.199   0.641
  124SOL    HW1 1271   3.252   2.217   0.722
  124SOL    HW2 1272   3.348   2.284   0.609
  125SOL     OW 1273   3.680   2.785   0.149
  125SOL    HW1 1274   3.626   2.706   0.177
  125SOL    HW2 1275   3.625   2.845   0.091
  126SOL     OW 1276   2.920   3.383   3.426
  126SOL    HW1 1277   2.921   3.326   3.344
  126SOL    HW2 1278   2.936   3.478   3.401
  127SOL     OW 1279   6.548   6.160   5.510
  127SOL    HW1 1280   6.558   6.258   5.527
  127SOL    HW2 1281   6.638   6.116   5.511
  128SOL     OW 1282   5.226   3.775   2.421
  128SOL    HW1 1283   5.193   3.683   2.444
  128SOL    HW2 1284   5.224   3.832   2.503
  129SOL     OW 1285   2.486   4.859   1.041
  129SOL    HW1 1286   2.536   4.882   1.125
  129SOL    HW2 1287   2.493   4.934   0.976
  130SOL     OW 1288   5.962   1.205   4.405
  130SOL    HW1 1289   6.021   1.218   4.325
  130SOL    HW2 1290   5.870   1.236   4.383
  131SOL     OW 1291   5.775   0.437   4.111
  131SOL    HW1 1292   5.680   0.463   4.098
  131SOL    HW2 1293   5.797   0.359   4.052
  132SOL     OW 1294   3.328   3.789   1.344
  132SOL    HW1 1295   3.287   3.714   1.291
  132SOL    HW2 1296   3.277   3.801   1.429
  133SOL     OW 1297   5.188   1.331   3.669
  133SOL    HW1 1298   5.210   1.362   3.761
  133SOL    HW2 1299   5.154   1.408   3.615
  134SOL     OW 1300   0.179   0.634   2.330
  134SOL    HW1 1301   0.267   0.591   2.350
  134SOL    HW2 1302   0.152   0.691   2.408
  135SOL     OW 1303   4.893   3.389   4.408
  135SOL    HW1 1304   4.848   3.359   4.324
  135SOL    HW2 1305   4.861   3.333   4.484
  136SOL     OW 1306   2.723   5.867   4.493
  136SOL    HW1 1307   2.671   5.951   4.474
  136SOL    HW2 1308   2.713   5.804   4.415
  137SOL     OW 1309   4.351   1.306   4.421
  137SOL    HW1 1310   4.378   1.364   4.345
  137SOL    HW2 1311   4.252   1.296   4.423
  138SOL     OW 1312   0.781   5.239   3.543
  138SOL    HW1 1313   0.763   5.271   3.450
  138SOL    HW2 1314   0.873   5.199   3.548
  139SOL     OW 1315   2.342   5.610   6.765
  139SOL    HW1 1316   2.328   5.513   6.745
  139SOL    HW2 1317   2.306   5.665   6.690
  140SOL     OW 1318   1.885   6.399   2.596
  140SOL    HW1 1319   1.860   6.378   2.502
  140SOL    HW2 1320   1.802   6.405   2.652
  141SOL     OW 1321   6.655   3.399   6.911
  141SOL    HW1 1322   6.703   3.487   6.911
  141SOL    HW2 1323   6.708   3.332   6.962
  142SOL     OW 1324   1.904   3.776   1.289
  142SOL    HW1 1325   1.921   3.809   1.382
  142SOL    HW2 1326   1.805   3.775   1.272
  143SOL     OW 1327   5.889   6.201   1.133
  143SOL    HW1 1328   5.944   6.139   1.188
  143SOL    HW2 1329   5.810   6.151   1.096
  144SOL     OW 1330   3.013   4.821   3.834
  144SOL    HW1 1331   3.111   4.840   3.826
  144SOL    HW2 1332   2.977   4.863   3.917
  145SOL     OW 1333   0.760   4.937   2.598
  145SOL    HW1 1334   0.669   4.903   2.576
  145SOL    HW2 1335   0.820   4.860   2.620
  146SOL     OW 1336   5.644   1.024   5.206
  146SOL    HW1 1337   5.594   1.075   5.136
  146SOL    HW2 1338   5.642   1.076   5.292
  147SOL     OW 1339   4.867   1.466   4.948
  147SOL    HW1 1340   4.935   1.539   4.954
  147SOL    HW2 1341   4.911   1.383   4.913
  148SOL     OW 1342   1.238   5.049   1.405
  148SOL    HW1 1343   1.335   5.071   1.391
  148SOL    HW2 1344   1.231   4.965   1.459
  149SOL     OW 1345   2.732   2.334   5.111
  149SOL    HW1 1346   2.746   2.333   5.013
  149SOL    HW2 1347   2.682   2.252   5.139
  150SOL     OW 1348   4.331   1.313   5.666
  150SOL    HW1 1349   4.381   1.373   5.728
  150SOL    HW2 1350   4.255   1.269   5.715
  151SOL     OW 1351   4.241   1.086   1.673
  151SOL    HW1 1352   4.301   1.085   1.753
  151SOL    HW2 1353   4.295   1.106   1.591
  152SOL     OW 1354   6.695   1.117   6.781
  152SOL    HW1 1355   6.717   1.202   6.734
  152SOL    HW2 1356   6.597   1.114   6.801
  153SOL     OW 1357   3.105   0.656   3.402
  153SOL    HW1 1358   3.160   0.726   3.355
  153SOL    HW2 1359   3.162   0.576   3.420
  154SOL     OW 1360   7.011   2.626   0.739
  154SOL    HW1 1361   0.011   2.679   0.657
  154SOL    HW2 1362   0.043   2.542   0.740
  155SOL     OW 1363   0.555   6.978   1.434
  155SOL    HW1 1364   0.471   6.964   1.486
  155SOL    HW2 1365   0.587   6.890   1.399
  156SOL     OW 1366   6.538   1.262   0.356
  156SOL    HW1 1367   6.548   1.279   0.258
  156SOL    HW2 1368   6.486   1.177   0.369
  157SOL     OW 1369   6.067   2.897   0.172
  157SOL    HW1 1370   6.094   2.981   0.219
  157SOL    HW2 1371   6.016   2.839   0.235
  158SOL     OW 1372   1.232   2.206   1.883
  158SOL    HW1 1373   1.303   2.237   1.946
  158SOL    HW2 1374   1.152   2.265   1.890
  159SOL     OW 1375   4.577   4.618   1.189
  159SOL    HW1 1376   4.488   4.643   1.226
  159SOL    HW2 1377   4.619   4.548   1.247
  160SOL     OW 1378   6.637   0.416   0.855
  160SOL    HW1 1379   6.688   0.408   0.940
  160SOL    HW2 1380   6.567   0.486   0.864
  161SOL     OW 1381   1.132   6.502   1.112
  161SOL    HW1 1382   1.129   6.480   1.210
  161SOL    HW2 1383   1.069   6.577   1.093
  162SOL     OW 1384   2.509   6.190   0.382
  162SOL    HW1 1385   2.598   6.172   0.423
  162SOL    HW2 1386   2.456   6.252   0.441
  163SOL     OW 1387   6.810   5.245   3.160
  163SOL    HW1 1388   6.863   5.193   3.094
  163SOL    HW2 1389   6.860   5.329   3.184
  164SOL     OW 1390   1.312   1.734   2.652
  164SOL    HW1 1391   1.358   1.817   2.682
  164SOL    HW2 1392   1.364   1.654   2.682
  165SOL     OW 1393   6.282   5.589   2.068
  165SOL    HW1 1394   6.201   5.567   2.122
  165SOL    HW2 1395   6.273   5.548   1.976
  166SOL     OW 1396   6.486   4.096   1.533
  166SOL    HW1 1397   6.459   4.000   1.530
  166SOL    HW2 1398   6.579   4.106   1.497
  167SOL     OW 1399   5.464   1.584   6.452
  167SOL    HW1 1400   5.443   1.517   6.381
  167SOL    HW2 1401   5.433   1.549   6.541
  168SOL     OW 1402   4.020   2.397   1.685
  168SOL    HW1 1403   4.004   2.319   1.624
  168SOL    HW2 1404   3.933   2.443   1.704
  169SOL     OW 1405   6.419   2.487   0.376
  169SOL    HW1 1406   6.471   2.405   0.351
  169SOL    HW2 1407   6.429   2.504   0.474
  170SOL     OW 1408   0.467   6.085   3.641
  170SOL    HW1 1409   0.550   6.038   3.672
  170SOL    HW2 1410   0.387   6.028   3.659
  171SOL     OW 1411   1.764   3.756   6.547
  171SOL    HW1 1412   1.797   3.681   6.489
  171SOL    HW2 1413   1.834   3.779   6.615
  172SOL     OW 1414   5.777   2.618   2.793
  172SOL    HW1 1415   5.798   2.703   2.842
  172SOL    HW2 1416   5.857   2.590   2.740
  173SOL     OW 1417   5.577   0.909   4.337
  173SOL    HW1 1418   5.524   0.830   4.367
  173SOL    HW2 1419   5.664   0.878   4.298
  174SOL     OW 1420   5.225   5.262   5.368
  174SOL    HW1 1421   5.292   5.284   5.296
  174SOL    HW2 1422   5.168   5.342   5.385
  175SOL     OW 1423   2.856   0.568   0.815
  175SOL    HW1 1424   2.784   0.636   0.799
  175SOL    HW2 1425   2.893   0.580   0.907
  176SOL     OW 1426   5.050   4.957   3.102
  176SOL    HW1 1427   4.951   4.970   3.101
  176SOL    HW2 1428   5.077   4.920   3.191
  177SOL     OW 1429   5.188   2.097   5.386
  177SOL    HW1 1430   5.271   2.139   5.422
  177SOL    HW2 1431   5.121   2.089   5.460
  178SOL     OW 1432   2.711   5.115   4.283
  178SOL    HW1 1433   2.695   5.077   4.192
  178SOL    HW2 1434   2.654   5.196   4.296
  179SOL     OW 1435   4.100   6.190   0.549
  179SOL    HW1 1436   4.103   6.098   0.511
  179SOL    HW2 1437   4.141   6.254   0.483
  180SOL     OW 1438   2.633   6.400   0.048
  180SOL    HW1 1439   2.538   6.373   0.058
  180SOL    HW2 1440   2.689   6.319   0.031
  181SOL     OW 1441   2.842   2.429   5.356
  181SOL    HW1 1442   2.823   2.371   5.277
  181SOL    HW2 1443   2.877   2.518   5.325
  182SOL     OW 1444   4.912   3.587   0.097
  182SOL    HW1 1445   4.897   3.564   0.000
  182SOL    HW2 1446   4.834   3.639   0.131
  183SOL     OW 1447   4.060   2.209   4.064
  183SOL    HW1 1448   3.969   2.189   4.100
  183SOL    HW2 1449   4.052   2.263   3.980
  184SOL     OW 1450   0.964   6.864   3.268
  184SOL    HW1 1451   0.963   6.923   3.187
  184SOL    HW2 1452   0.875   6.867   3.312
  185SOL     OW 1453   0.684   1.978   4.114
  185SOL    HW1 1454   0.781   2.003   4.114
  185SOL    HW2 1455   0.629   2.062   4.120
  186SOL     OW 1456   5.893   5.955   3.983
  186SOL    HW1 1457   5.827   5.881   3.988
  186SOL    HW2 1458   5.900   5.989   3.889
  187SOL     OW 1459   4.436   5.485   2.771
  187SOL    HW1 1460   4.392   5.573   2.792
  187SOL    HW2 1461   4.459   5.483   2.674
  188SOL     OW 1462   1.343   1.896   3.303
  188SOL    HW1 1463   1.357   1.909   3.401
  188SOL    HW2 1464   1.388   1.811   3.274
  189SOL     OW 1465   6.790   4.811   6.601
  189SOL    HW1 1466   6.746   4.872   6.666
  189SOL    HW2 1467   6.753   4.718   6.612
  190SOL     OW 1468   6.163   4.615   6.810
  190SOL    HW1 1469   6.176   4.570   6.722
  190SOL    HW2 1470   6.124   4.706   6.795
  191SOL     OW 1471   6.395   1.697   5.616
  191SOL    HW1 1472   6.347   1.617   5.653
  191SOL    HW2 1473   6.371   1.709   5.520
  192SOL     OW 1474   0.412   4.453   1.524
  192SOL    HW1 1475   0.505   4.449   1.488
  192SOL    HW2 1476   0.386   4.362   1.557
  193SOL     OW 1477   4.018   4.828   5.747
  193SOL    HW1 1478   3.961   4.861   5.672
  193SOL    HW2 1479   3.974   4.750   5.791
  194SOL     OW 1480   4.137   6.877   1.899
  194SOL    HW1 1481   4.061   6.929   1.939
  194SOL    HW2 1482   4.169   6.809   1.965
  195SOL     OW 1483   3.065   0.406   3.167
  195SOL    HW1 1484   3.091   0.498   3.141
  195SOL    HW2 1485   2.995   0.410   3.239
  196SOL     OW 1486   3.402   0.297   6.537
  196SOL    HW1 1487   3.420   0.240   6.456
  196SOL    HW2 1488   3.328   0.256   6.590
  197SOL     OW 1489   2.795   5.859   6.611
  197SOL    HW1 1490   2.750   5.793   6.550
  197SOL    HW2 1491   2.790   5.950   6.570
  198SOL     OW 1492   4.305   5.837   1.206
  198SOL    HW1 1493   4.298   5.798   1.114
  198SOL    HW2 1494   4.283   5.768   1.274
  199SOL     OW 1495   6.511   1.358   1.979
  199SOL    HW1 1496   6.568   1.293   1.928
  199SOL    HW2 1497   6.524   1.344   2.077
  200SOL     OW 1498   1.305   3.610   2.523
  200SOL    HW1 1499   1.355   3.556   2.456
  200SOL    HW2 1500   1.347   3.598   2.613
  201SOL     OW 1501   2.713   6.639   6.492
  201SOL    HW1 1502   2.706   6.711   6.423
  201SOL    HW2 1503   2.628   6.636   6.545
  202SOL     OW 1504   5.124   0.110   5.092
  202SOL    HW1 1505   5.039   0.066   5.064
  202SOL    HW2 1506   5.194   0.093   5.023
  203SOL     OW 1507   4.439   2.773   5.674
  203SOL    HW1 1508   4.452   2.746   5.579
  203SOL    HW2 1509   4.500   2.719   5.732
  204SOL     OW 1510   1.603   0.080   6.924
  204SOL    HW1 1511   1.521   0.112   6.876
  204SOL    HW2 1512   1.670   0.049   6.857
  205SOL     OW 1513   0.988   1.894   1.383
  205SOL    HW1 1514   0.900   1.933   1.412
  205SOL    HW2 1515   1.045   1.878   1.463
  206SOL     OW 1516   0.220   4.505   1.796
  206SOL    HW1 1517   0.178   4.548   1.716
  206SOL    HW2 1518   0.248   4.412   1.774
  207SOL     OW 1519   4.340   0.524   5.300
  207SOL    HW1 1520   4.289   0.523   5.386
  207SOL    HW2 1521   4.335   0.615   5.260
  208SOL     OW 1522   5.206   4.083   5.581
  208SOL    HW1 1523   5.296   4.121   5.604
  208SOL    HW2 1524   5.212   3.983   5.579
  209SOL     OW 1525   0.547   5.738   5.513
  209SOL    HW1 1526   0.533   5.805   5.587
  209SOL    HW2 1527   0.642   5.741   5.483
  210SOL     OW 1528   4.212   2.316   2.081
  210SOL    HW1 1529   4.155   2.398   2.082
  210SOL    HW2 1530   4.308   2.342   2.093
  211SOL     OW 1531   1.192   0.365   3.150
  211SOL    HW1 1532   1.192   0.446   3.091
  211SOL    HW2 1533   1.276   0.313   3.135
  212SOL     OW 1534   1.975   4.866   2.358
  212SOL    HW1 1535   1.961   4.956   2.400
  212SOL    HW2 1536   2.039   4.813   2.414
  213SOL     OW 1537   4.408   1.074   6.474
  213SOL    HW1 1538   4.416   1.096   6.571
  213SOL    HW2 1539   4.500   1.058   6.436
  214SOL     OW 1540   1.975   6.012   2.648
  214SOL    HW1 1541   2.067   6.051   2.653
  214SOL    HW2 1542   1.981   5.912   2.646
  215SOL     OW 1543   3.615   3.906   1.882
  215SOL    HW1 1544   3.527   3.873   1.917
  215SOL    HW2 1545   3.635   3.862   1.795
  216SOL     OW 1546   1.948   0.304   4.933
  216SOL    HW1 1547   1.937   0.397   4.969
  216SOL    HW2 1548   1.997   0.309   4.846
  217SOL     OW 1549   1.453   2.872   4.140
  217SOL    HW1 1550   1.379   2.886   4.205
  217SOL    HW2 1551   1.511   2.953   4.137
  218SOL     OW 1552   1.367   2.833   4.901
  218SOL    HW1 1553   1.268   2.844   4.910
  218SOL    HW2 1554   1.409   2.833   4.992
  219SOL     OW 1555   3.625   4.782   6.556
  219SOL    HW1 1556   3.644   4.707   6.620
  219SOL    HW2 1557   3.531   4.775   6.523
  220SOL     OW 1558   3.192   5.331   0.542
  220SOL    HW1 1559   3.277   5.377   0.519
  220SOL    HW2 1560   3.184   5.246   0.490
  221SOL     OW 1561   5.633   3.877   3.264
  221SOL    HW1 1562   5.655   3.871   3.167
  221SOL    HW2 1563   5.697   3.821   3.317
  222SOL     OW 1564   1.491   4.944   5.378
  222SOL    HW1 1565   1.488   4.873   5.307
  222SOL    HW2 1566   1.516   5.031   5.336
  223SOL     OW 1567   0.462   3.193   0.944
  223SOL    HW1 1568   0.472   3.276   0.999
  223SOL    HW2 1569   0.509   3.117   0.988
  224SOL     OW 1570   2.517   2.502   3.718
  224SOL    HW1 1571   2.547   2.419   3.764
  224SOL    HW2 1572   2.540   2.581   3.773
  225SOL     OW 1573   5.397   0.952   6.514
  225SOL    HW1 1574   5.331   0.877   6.505
  225SOL    HW2 1575   5.461   0.931   6.588
  226SOL     OW 1576   1.030   6.825   0.099
  226SOL    HW1 1577   1.032   6.816   0.198
  226SOL    HW2 1578   1.120   6.801   0.061
  227SOL     OW 1579   0.787   4.446   3.580
  227SOL    HW1 1580   0.827   4.478   3.665
  227SOL    HW2 1581   0.713   4.508   3.552
  228SOL     OW 1582   3.174   0.765   4.156
  228SOL    HW1 1583   3.125   0.678   4.149
  228SOL    HW2 1584   3.183   0.790   4.253
  229SOL     OW 1585   6.817   5.286   1.079
  229SOL    HW1 1586   6.848   5.378   1.099
  229SOL    HW2 1587   6.768   5.285   0.992
  230SOL     OW 1588   2.266   4.890   3.538
  230SOL    HW1 1589   2.329   4.915   3.612
  230SOL    HW2 1590   2.299   4.807   3.493
  231SOL     OW 1591   5.996   2.904   6.125
  231SOL    HW1 1592   6.080   2.929   6.077
  231SOL    HW2 1593   5.944   2.839   6.070
  232SOL     OW 1594   0.535   4.252   5.794
  232SOL    HW1 1595   0.613   4.217   5.743
  232SOL    HW2 1596   0.452   4.241   5.740
  233SOL     OW 1597   2.033   0.806   4.633
  233SOL    HW1 1598   2.114   0.832   4.686
  233SOL    HW2 1599   1.962   0.876   4.644
  234SOL     OW 1600   2.702   5.238   5.701
  234SOL    HW1 1601   2.718   5.288   5.616
  234SOL    HW2 1602   2.779   5.252   5.763
  235SOL     OW 1603   3.721   3.078   2.687
  235SOL    HW1 1604   3.694   3.007   2.752
  235SOL    HW2 1605   3.741   3.037   2.599
  236SOL     OW 1606   6.184   2.997   6.858
  236SOL    HW1 1607   6.199   2.931   6.932
  236SOL    HW2 1608   6.150   3.083   6.896
  237SOL     OW 1609   0.862   6.547   0.840
  237SOL    HW1 1610   0.777   6.581   0.801
  237SOL    HW2 1611   0.927   6.527   0.767
  238SOL     OW 1612   6.461   3.095   1.116
  238SOL    HW1 1613   6.502   3.151   1.044
  238SOL    HW2 1614   6.383   3.143   1.155
  239SOL     OW 1615   6.775   4.605   6.964
  239SOL    HW1 1616   6.731   4.525   7.005
  239SOL    HW2 1617   6.773   4.681   0.007
  240SOL     OW 1618   0.797   3.368   6.142
  240SOL    HW1 1619   0.889   3.337   6.161
  240SOL    HW2 1620   0.778   3.359   6.044
  241SOL     OW 1621   0.924   0.641   3.552
  241SOL    HW1 1622   1.000   0.664   3.491
  241SOL    HW2 1623   0.838   0.656   3.505
  242SOL     OW 1624   1.269   2.721   5.572
  242SOL    HW1 1625   1.216   2.791   5.524
  242SOL    HW2 1626   1.237   2.712   5.666
  243SOL     OW 1627   4.293   0.476   5.953
  243SOL    HW1 1628   4.288   0.565   5.998
  243SOL    HW2 1629   4.378   0.469   5.901
  244SOL     OW 1630   4.999   2.833   4.379
  244SOL    HW1 1631   5.027   2.928   4.363
  244SOL    HW2 1632   4.902   2.823   4.357
  245SOL     OW 1633   6.608   2.589   4.387
  245SOL    HW1 1634   6.654   2.589   4.476
  245SOL    HW2 1635   6.510   2.604   4.401
  246SOL     OW 1636   5.028   4.103   3.642
  246SOL    HW1 1637   5.052   4.124   3.737
  246SOL    HW2 1638   5.057   4.009   3.620
  247SOL     OW 1639   2.651   1.643   3.131
  247SOL    HW1 1640   2.618   1.697   3.209
  247SOL    HW2 1641   2.728   1.586   3.161
  248SOL     OW 1642   4.880   2.048   4.333
  248SOL    HW1 1643   4.900   2.048   4.235
  248SOL    HW2 1644   4.861   1.955   4.363
  249SOL     OW 1645   3.112   6.673   5.216
  249SOL    HW1 1646   3.088   6.592   5.268
  249SOL    HW2 1647   3.040   6.694   5.150
  250SOL     OW 1648   5.234   1.420   5.840
  250SOL    HW1 1649   5.220   1.511   5.880
  250SOL    HW2 1650   5.201   1.350   5.903
  251SOL     OW 1651   4.510   3.331   6.078
  251SOL    HW1 1652   4.530   3.388   6.159
  251SOL    HW2 1653   4.588   3.273   6.059
  252SOL     OW 1654   0.072   0.991   5.390
  252SOL    HW1 1655   0.011   1.014   5.466
  252SOL    HW2 1656   0.021   0.996   5.304
  253SOL     OW 1657   2.129   3.996   0.458
  253SOL    HW1 1658   2.201   4.061   0.481
  253SOL    HW2 1659   2.165   3.903   0.464
  254SOL     OW 1660   6.353   2.622   4.396
  254SOL    HW1 1661   6.294   2.578   4.329
  254SOL    HW2 1662   6.336   2.720   4.396
  255SOL     OW 1663   3.212   1.523   4.453
  255SOL    HW1 1664   3.123   1.488   4.425
  255SOL    HW2 1665   3.266   1.450   4.495
  256SOL     OW 1666   6.791   5.049   0.025
  256SOL    HW1 1667   6.870   4.991   0.048
  256SOL    HW2 1668   6.709   5.013   0.069
  257SOL     OW 1669   3.248   5.748   5.147
  257SOL    HW1 1670   3.223   5.757   5.050
  257SOL    HW2 1671   3.246   5.838   5.190
  258SOL     OW 1672   5.009   3.946   5.228
  258SOL    HW1 1673   5.020   3.921   5.132
  258SOL    HW2 1674   4.949   4.026   5.234
  259SOL     OW 1675   1.111   3.339   2.977
  259SOL    HW1 1676   1.147   3.368   3.065
  259SOL    HW2 1677   1.034   3.277   2.991
  260SOL     OW 1678   5.114   0.159   0.101
  260SOL    HW1 1679   5.098   0.183   0.196
  260SOL    HW2 1680   5.086   0.234   0.042
  261SOL     OW 1681   0.519   3.361   1.127
  261SOL    HW1 1682   0.532   3.440   1.187
  261SOL    HW2 1683   0.470   3.289   1.177
  262SOL     OW 1684   0.605   3.945   2.425
  262SOL    HW1 1685   0.525   3.887   2.444
  262SOL    HW2 1686   0.585   4.004   2.346
  263SOL     OW 1687   6.808   2.141   4.479
  263SOL    HW1 1688   6.791   2.202   4.401
  263SOL    HW2 1689   6.726   2.088   4.498
  264SOL     OW 1690   0.283   3.378   5.719
  264SOL    HW1 1691   0.247   3.447   5.656
  264SOL    HW2 1692   0.322   3.423   5.799
  265SOL     OW 1693   5.018   4.270   3.407
  265SOL    HW1 1694   5.007   4.202   3.479
  265SOL    HW2 1695   5.087   4.237   3.341
  266SOL     OW 1696   3.516   2.077   6.966
  266SOL    HW1 1697   3.446   2.082   0.015
  266SOL    HW2 1698   3.518   2.164   6.916
  267SOL     OW 1699   1.408   2.675   0.227
  267SOL    HW1 1700   1.464   2.625   0.293
  267SOL    HW2 1701   1.447   2.765   0.211
  268SOL     OW 1702   4.809   5.073   4.942
  268SOL    HW1 1703   4.710   5.059   4.929
  268SOL    HW2 1704   4.854   4.985   4.952
  269SOL     OW 1705   1.728   1.731   6.760
  269SOL    HW1 1706   1.729   1.826   6.727
  269SOL    HW2 1707   1.685   1.728   6.850
  270SOL     OW 1708   5.100   1.243   2.360
  270SOL    HW1 1709   5.082   1.166   2.421
  270SOL    HW2 1710   5.195   1.272   2.371
  271SOL     OW 1711   2.083   1.504   0.992
  271SOL    HW1 1712   2.063   1.561   0.912
  271SOL    HW2 1713   2.171   1.460   0.980
  272SOL     OW 1714   4.012   5.598   4.206
  272SOL    HW1 1715   4.040   5.670   4.143
  272SOL    HW2 1716   4.084   5.528   4.210
  273SOL     OW 1717   0.867   5.662   5.172
  273SOL    HW1 1718   0.953   5.651   5.123
  273SOL    HW2 1719   0.791   5.642   5.111
  274SOL     OW 1720   4.972   3.170   3.478
  274SOL    HW1 1721   4.976   3.235   3.402
  274SOL    HW2 1722   4.980   3.077   3.443
  275SOL     OW 1723   0.724   5.475   6.259
  275SOL    HW1 1724   0.706   5.423   6.176
  275SOL    HW2 1725   0.695   5.570   6.245
  276SOL     OW 1726   6.734   5.633   4.180
  276SOL    HW1 1727   6.750   5.558   4.116
  276SOL    HW2 1728   6.753   5.720   4.135
  277SOL     OW 1729   3.077   0.784   6.037
  277SOL    HW1 1730   2.996   0.804   5.982
  277SOL    HW2 1731   3.061   0.811   6.132
  278SOL     OW 1732   5.012   4.322   2.714
  278SOL    HW1 1733   4.988   4.340   2.810
  278SOL    HW2 1734   4.974   4.233   2.687
  279SOL     OW 1735   6.520   3.450   4.005
  279SOL    HW1 1736   6.513   3.403   3.917
  279SOL    HW2 1737   6.500   3.386   4.079
  280SOL     OW 1738   4.669   6.544   4.202
  280SOL    HW1 1739   4.691   6.542   4.105
  280SOL    HW2 1740   4.753   6.553   4.255
  281SOL     OW 1741   3.729   5.171   3.801
  281SOL    HW1 1742   3.823   5.166   3.767
  281SOL    HW2 1743   3.712   5.093   3.862
  282SOL     OW 1744   3.868   1.662   5.675
  282SOL    HW1 1745   3.788   1.604   5.681
  282SOL    HW2 1746   3.842   1.757   5.691
  283SOL     OW 1747   6.015   0.190   5.124
  283SOL    HW1 1748   6.101   0.141   5.136
  283SOL    HW2 1749   6.030   0.271   5.067
  284SOL     OW 1750   0.812   4.866   4.352
  284SOL    HW1 1751   0.766   4.841   4.267
  284SOL    HW2 1752   0.911   4.873   4.336
  285SOL     OW 1753   5.667   6.758   0.428
  285SOL    HW1 1754   5.700   6.825   0.495
  285SOL    HW2 1755   5.569   6.770   0.415
  286SOL     OW 1756   3.801   5.036   5.264
  286SOL    HW1 1757   3.839   5.021   5.355
  286SOL    HW2 1758   3.807   4.951   5.211
  287SOL     OW 1759   1.652   5.785   6.276
  287SOL    HW1 1760   1.587   5.763   6.348
  287SOL    HW2 1761   1.714   5.707   6.261
  288SOL     OW 1762   4.198   0.437   1.244
  288SOL    HW1 1763   4.104   0.413   1.269
  288SOL    HW2 1764   4.209   0.536   1.249
  289SOL     OW 1765   1.169   5.303   6.032
  289SOL    HW1 1766   1.106   5.252   5.974
  289SOL    HW2 1767   1.145   5.400   6.030
  290SOL     OW 1768   4.458   0.553   2.885
  290SOL    HW1 1769   4.522   0.629   2.878
  290SOL    HW2 1770   4.394   0.570   2.959
  291SOL     OW 1771   3.960   1.076   4.212
  291SOL    HW1 1772   3.892   1.133   4.258
  291SOL    HW2 1773   3.975   1.112   4.120
  292SOL     OW 1774   3.939   0.365   3.640
  292SOL    HW1 1775   3.966   0.277   3.678
  292SOL    HW2 1776   3.849   0.391   3.676
  293SOL     OW 1777   4.495   6.394   2.033
  293SOL    HW1 1778   4.489   6.379   2.132
  293SOL    HW2 1779   4.540   6.481   2.015
  294SOL     OW 1780   5.887   5.872   5.803
  294SOL    HW1 1781   5.796   5.842   5.775
  294SOL    HW2 1782   5.904   5.843   5.897
  295SOL     OW 1783   1.103   2.898   5.426
  295SOL    HW1 1784   1.094   2.960   5.348
  295SOL    HW2 1785   1.018   2.847   5.439
  296SOL     OW 1786   6.321   1.734   1.110
  296SOL    HW1 1787   6.412   1.698   1.091
  296SOL    HW2 1788   6.252   1.671   1.075
  297SOL     OW 1789   4.952   5.271   3.525
  297SOL    HW1 1790   4.876   5.269   3.589
  297SOL    HW2 1791   4.925   5.321   3.442
  298SOL     OW 1792   4.359   0.842   0.844
  298SOL    HW1 1793   4.309   0.876   0.764
  298SOL    HW2 1794   4.448   0.806   0.816
  299SOL     OW 1795   3.636   1.535   0.388
  299SOL    HW1 1796   3.541   1.529   0.357
  299SOL    HW2 1797   3.645   1.491   0.477
  300SOL     OW 1798   3.090   1.110   2.602
  300SOL    HW1 1799   3.048   1.023   2.627
  300SOL    HW2 1800   3.126   1.104   2.508
  301SOL     OW 1801   4.876   0.070   1.839
  301SOL    HW1 1802   4.938   7.018   1.814
  301SOL    HW2 1803   4.851   0.121   1.757
  302SOL     OW 1804   0.767   7.021   1.759
  302SOL    HW1 1805   0.768   6.924   1.782
  302SOL    HW2 1806   0.672   0.032   1.760
  303SOL     OW 1807   5.678   6.205   2.085
  303SOL    HW1 1808   5.655   6.259   2.005
  303SOL    HW2 1809   5.741   6.256   2.143
  304SOL     OW 1810   1.630   6.485   5.679
  304SOL    HW1 1811   1.652   6.397   5.637
  304SOL    HW2 1812   1.714   6.529   5.711
  305SOL     OW 1813   1.834   3.231   1.124
  305SOL    HW1 1814   1.770   3.207   1.197
  305SOL    HW2 1815   1.784   3.268   1.047
  306SOL     OW 1816   0.418   0.900   2.418
  306SOL    HW1 1817   0.487   0.967   2.443
  306SOL    HW2 1818   0.382   0.920   2.327
  307SOL     OW 1819   2.757   3.955   0.716
  307SOL    HW1 1820   2.800   3.950   0.626
  307SOL    HW2 1821   2.783   3.875   0.770
  308SOL     OW 1822   5.624   2.870   4.759
  308SOL    HW1 1823   5.693   2.929   4.717
  308SOL    HW2 1824   5.575   2.820   4.687
  309SOL     OW 1825   1.005   6.516   0.076
  309SOL    HW1 1826   1.022   6.557   7.009
  309SOL    HW2 1827   1.092   6.484   0.115
  310SOL     OW 1828   5.937   6.295   4.406
  310SOL    HW1 1829   5.989   6.346   4.474
  310SOL    HW2 1830   5.996   6.271   4.329
  311SOL     OW 1831   2.494   4.825   2.101
  311SOL    HW1 1832   2.451   4.913   2.116
  311SOL    HW2 1833   2.585   4.838   2.060
  312SOL     OW 1834   4.425   2.430   4.053
  312SOL    HW1 1835   4.357   2.503   4.059
  312SOL    HW2 1836   4.463   2.427   3.961
  313SOL     OW 1837   3.101   3.679   2.620
  313SOL    HW1 1838   3.181   3.739   2.617
  313SOL    HW2 1839   3.051   3.685   2.534
  314SOL     OW 1840   1.900   5.730   5.443
  314SOL    HW1 1841   1.937   5.665   5.376
  314SOL    HW2 1842   1.844   5.680   5.509
  315SOL     OW 1843   0.307   1.820   3.569
  315SOL    HW1 1844   0.263   1.747   3.621
  315SOL    HW2 1845   0.278   1.909   3.605
  316SOL     OW 1846   4.214   1.559   4.312
  316SOL    HW1 1847   4.210   1.514   4.223
  316SOL    HW2 1848   4.244   1.653   4.301
  317SOL     OW 1849   1.687   1.184   1.746
  317SOL    HW1 1850   1.748   1.254   1.709
  317SOL    HW2 1851   1.597   1.225   1.764
  318SOL     OW 1852   6.246   0.473   6.409
  318SOL    HW1 1853   6.254   0.553   6.469
  318SOL    HW2 1854   6.151   0.464   6.379
  319SOL     OW 1855   0.076   2.138   3.250
  319SOL    HW1 1856   0.052   2.052   3.295
  319SOL    HW2 1857   0.051   2.215   3.308
  320SOL     OW 1858   6.237   2.500   6.908
  320SOL    HW1 1859   6.274   2.506   6.815
  320SOL    HW2 1860   6.230   2.591   6.948
  321SOL     OW 1861   4.117   2.387   0.357
  321SOL    HW1 1862   4.117   2.291   0.330
  321SOL    HW2 1863   4.106   2.444   0.275
  322SOL     OW 1864   3.963   3.058   4.552
  322SOL    HW1 1865   3.903   3.008   4.489
  322SOL    HW2 1866   4.030   3.111   4.500
  323SOL     OW 1867   1.189   2.442   4.466
  323SOL    HW1 1868   1.115   2.500   4.431
  323SOL    HW2 1869   1.185   2.440   4.566
  324SOL     OW 1870   1.851   6.761   3.343
  324SOL    HW1 1871   1.778   6.703   3.308
  324SOL    HW2 1872   1.857   6.750   3.443
  325SOL     OW 1873   1.350   3.891   2.495
  325SOL    HW1 1874   1.294   3.809   2.497
  325SOL    HW2 1875   1.309   3.962   2.552
  326SOL     OW 1876   1.322   4.345   5.696
  326SOL    HW1 1877   1.365   4.402   5.767
  326SOL    HW2 1878   1.304   4.401   5.615
  327SOL     OW 1879   2.531   4.672   2.542
  327SOL    HW1 1880   2.555   4.663   2.446
  327SOL    HW2 1881   2.461   4.604   2.565
  328SOL     OW 1882   2.056   4.705   1.605
  328SOL    HW1 1883   2.111   4.624   1.623
  328SOL    HW2 1884   2.116   4.785   1.600
  329SOL     OW 1885   3.274   4.278   6.196
  329SOL    HW1 1886   3.335   4.229   6.133
  329SOL    HW2 1887   3.237   4.215   6.264
  330SOL     OW 1888   4.028   5.685   0.403
  330SOL    HW1 1889   3.959   5.679   0.475
  330SOL    HW2 1890   3.983   5.688   0.313
  331SOL     OW 1891   5.448   4.652   1.180
  331SOL    HW1 1892   5.516   4.623   1.113
  331SOL    HW2 1893   5.489   4.652   1.271
  332SOL     OW 1894   5.530   2.047   3.877
  332SOL    HW1 1895   5.611   1.990   3.882
  332SOL    HW2 1896   5.552   2.133   3.831
  333SOL     OW 1897   4.716   0.570   4.966
  333SOL    HW1 1898   4.645   0.639   4.978
  333SOL    HW2 1899   4.728   0.519   5.052
  334SOL     OW 1900   4.023   2.658   1.393
  334SOL    HW1 1901   3.925   2.636   1.385
  334SOL    HW2 1902   4.066   2.593   1.455
  335SOL     OW 1903   4.556   0.425   6.705
  335SOL    HW1 1904   4.653   0.441   6.718
  335SOL    HW2 1905   4.530   0.451   6.612
  336SOL     OW 1906   2.767   1.942   3.235
  336SOL    HW1 1907   2.793   1.847   3.256
  336SOL    HW2 1908   2.762   1.994   3.320
  337SOL     OW 1909   1.142   2.789   6.105
  337SOL    HW1 1910   1.222   2.837   6.141
  337SOL    HW2 1911   1.064   2.850   6.103
  338SOL     OW 1912   3.448   3.290   0.778
  338SOL    HW1 1913   3.374   3.357   0.785
  338SOL    HW2 1914   3.468   3.253   0.868
  339SOL     OW 1915   4.152   4.763   4.500
  339SOL    HW1 1916   4.066   4.801   4.536
  339SOL    HW2 1917   4.158   4.784   4.402
  340SOL     OW 1918   4.891   3.322   5.081
  340SOL    HW1 1919   4.832   3.317   5.161
  340SOL    HW2 1920   4.867   3.403   5.027
  341SOL     OW 1921   6.030   6.237   4.132
  341SOL    HW1 1922   5.975   6.170   4.082
  341SOL    HW2 1923   6.125   6.231   4.103
  342SOL     OW 1924   4.587   3.232   0.780
  342SOL    HW1 1925   4.662   3.221   0.715
  342SOL    HW2 1926   4.610   3.305   0.845
  343SOL     OW 1927   0.124   6.801   2.314
  343SOL    HW1 1928   0.079   6.745   2.245
  343SOL    HW2 1929   0.140   6.747   2.396
  344SOL     OW 1930   1.053   2.418   1.885
  344SOL    HW1 1931   0.961   2.433   1.848
  344SOL    HW2 1932   1.049   2.420   1.985
  345SOL     OW 1933   6.192   2.195   4.246
  345SOL    HW1 1934   6.202   2.170   4.150
  345SOL    HW2 1935   6.158   2.116   4.297
  346SOL     OW 1936   1.478   0.107   2.500
  346SOL    HW1 1937   1.497   0.014   2.530
  346SOL    HW2 1938   1.404   0.106   2.432
  347SOL     OW 1939   3.104   6.088   6.783
  347SOL    HW1 1940   3.096   6.186   6.764
  347SOL    HW2 1941   3.087   6.036   6.699
  348SOL     OW 1942   4.791   5.184   3.205
  348SOL    HW1 1943   4.836   5.222   3.124
  348SOL    HW2 1944   4.717   5.244   3.234
  349SOL     OW 1945   6.810   4.591   2.492
  349SOL    HW1 1946   6.761   4.608   2.577
  349SOL    HW2 1947   6.744   4.577   2.418
  350SOL     OW 1948   2.918   2.917   0.784
  350SOL    HW1 1949   2.819   2.916   0.799
  350SOL    HW2 1950   2.937   2.948   0.691
  351SOL     OW 1951   2.707   3.186   0.587
  351SOL    HW1 1952   2.796   3.147   0.562
  351SOL    HW2 1953   2.634   3.124   0.559
  352SOL     OW 1954   3.746   6.280   3.495
  352SOL    HW1 1955   3.693   6.195   3.500
  352SOL    HW2 1956   3.842   6.258   3.479
  353SOL     OW 1957   3.197   0.542   6.271
  353SOL    HW1 1958   3.205   0.543   6.371
  353SOL    HW2 1959   3.111   0.585   6.243
  354SOL     OW 1960   4.744   2.275   1.128
  354SOL    HW1 1961   4.721   2.353   1.070
  354SOL    HW2 1962   4.796   2.307   1.208
  355SOL     OW 1963   1.837   3.792   2.294
  355SOL    HW1 1964   1.747   3.827   2.320
  355SOL    HW2 1965   1.861   3.714   2.353
  356SOL     OW 1966   2.339   1.061   4.842
  356SOL    HW1 1967   2.290   0.986   4.887
  356SOL    HW2 1968   2.430   1.029   4.813
  357SOL     OW 1969   0.155   6.038   4.250
  357SOL    HW1 1970   0.097   6.075   4.177
  357SOL    HW2 1971   0.100   6.021   4.331
  358SOL     OW 1972   4.629   6.619   0.702
  358SOL    HW1 1973   4.728   6.606   0.698
  358SOL    HW2 1974   4.598   6.671   0.623
  359SOL     OW 1975   2.968   1.021   2.110
  359SOL    HW1 1976   3.001   1.115   2.111
  359SOL    HW2 1977   2.945   0.994   2.017
  360SOL     OW 1978   1.285   3.993   4.263
  360SOL    HW1 1979   1.314   4.008   4.358
  360SOL    HW2 1980   1.359   4.020   4.201
  361SOL     OW 1981   6.684   5.950   2.972
  361SOL    HW1 1982   6.598   6.002   2.970
  361SOL    HW2 1983   6.681   5.880   2.900
  362SOL     OW 1984   3.399   3.149   1.312
  362SOL    HW1 1985   3.483   3.097   1.331
  362SOL    HW2 1986   3.322   3.107   1.360
  363SOL     OW 1987   5.646   5.056   3.209
  363SOL    HW1 1988   5.562   5.064   3.155
  363SOL    HW2 1989   5.708   4.991   3.164
  364SOL     OW 1990   6.630   4.976   6.790
  364SOL    HW1 1991   6.600   4.883   6.811
  364SOL    HW2 1992   6.657   5.023   6.875
  365SOL     OW 1993   4.329   0.676   1.109
  365SOL    HW1 1994   4.286   0.762   1.081
  365SOL    HW2 1995   4.273   0.599   1.077
  366SOL     OW 1996   5.766   2.511   7.015
  366SOL    HW1 1997   5.673   2.542   0.014
  366SOL    HW2 1998   5.763   2.450   6.936
  367SOL     OW 1999   5.996   2.416   6.490
  367SOL    HW1 2000   5.922   2.381   6.431
  367SOL    HW2 2001   6.084   2.384   6.455
  368SOL     OW 2002   6.957   2.577   5.435
  368SOL    HW1 2003   6.964   2.617   5.527
  368SOL    HW2 2004   6.871   2.527   5.427
  369SOL     OW 2005   5.935   4.473   3.067
  369SOL    HW1 2006   5.890   4.548   3.020
  369SOL    HW2 2007   5.989   4.509   3.143
  370SOL     OW 2008   0.714   2.380   4.221
  370SOL    HW1 2009   0.685   2.475   4.212
  370SOL    HW2 2010   0.634   2.320   4.216
  371SOL     OW 2011   1.723   4.225   0.168
  371SOL    HW1 2012   1.671   4.140   0.174
  371SOL    HW2 2013   1.758   4.249   0.258
  372SOL     OW 2014   2.149   0.044   5.440
  372SOL    HW1 2015   2.097   0.022   5.357
  372SOL    HW2 2016   2.092   0.025   5.520
  373SOL     OW 2017   5.612   5.838   5.404
  373SOL    HW1 2018   5.657   5.919   5.443
  373SOL    HW2 2019   5.514   5.840   5.426
  374SOL     OW 2020   2.117   2.796   3.356
  374SOL    HW1 2021   2.174   2.826   3.279
  374SOL    HW2 2022   2.162   2.720   3.403
  375SOL     OW 2023   1.292   4.609   4.317
  375SOL    HW1 2024   1.290   4.709   4.322
  375SOL    HW2 2025   1.295   4.579   4.222
  376SOL     OW 2026   1.359   1.782   5.039
  376SOL    HW1 2027   1.441   1.836   5.022
  376SOL    HW2 2028   1.286   1.841   5.073
  377SOL     OW 2029   1.910   2.618   7.002
  377SOL    HW1 2030   1.936   2.608   0.075
  377SOL    HW2 2031   1.989   2.648   6.948
  378SOL     OW 2032   3.978   1.585   0.309
  378SOL    HW1 2033   4.015   1.635   0.230
  378SOL    HW2 2034   4.003   1.489   0.302
  379SOL     OW 2035   5.158   2.414   6.804
  379SOL    HW1 2036   5.177   2.338   6.865
  379SOL    HW2 2037   5.082   2.467   6.841
  380SOL     OW 2038   3.129   0.944   1.283
  380SOL    HW1 2039   3.155   1.010   1.213
  380SOL    HW2 2040   3.211   0.904   1.324
  381SOL     OW 2041   1.355   3.656   3.725
  381SOL    HW1 2042   1.365   3.755   3.741
  381SOL    HW2 2043   1.403   3.631   3.642
  382SOL     OW 2044   5.771   0.576   0.099
  382SOL    HW1 2045   5.783   0.478   0.083
  382SOL    HW2 2046   5.850   0.626   0.063
  383SOL     OW 2047   3.899   3.498   0.434
  383SOL    HW1 2048   3.895   3.468   0.339
  383SOL    HW2 2049   3.811   3.534   0.462
  384SOL     OW 2050   0.070   5.245   4.884
  384SOL    HW1 2051   0.071   5.145   4.889
  384SOL    HW2 2052   7.007   5.275   4.841
  385SOL     OW 2053   3.441   6.038   5.631
  385SOL    HW1 2054   3.423   6.065   5.537
  385SOL    HW2 2055   3.357   6.045   5.685
  386SOL     OW 2056   3.482   0.073   4.310
  386SOL    HW1 2057   3.529   0.032   4.388
  386SOL    HW2 2058   3.411   0.136   4.342
  387SOL     OW 2059   0.574   5.570   2.435
  387SOL    HW1 2060   0.639   5.632   2.479
  387SOL    HW2 2061   0.624   5.508   2.373
  388SOL     OW 2062   1.722   2.289   6.699
  388SOL    HW1 2063   1.638   2.330   6.663
  388SOL    HW2 2064   1.797   2.303   6.635
  389SOL     OW 2065   3.322   3.842   2.664
  389SOL    HW1 2066   3.345   3.939   2.671
  389SOL    HW2 2067   3.403   3.792   2.632
  390SOL     OW 2068   2.991   1.035   3.802
  390SOL    HW1 2069   2.950   0.992   3.883
  390SOL    HW2 2070   3.015   0.965   3.735
  391SOL     OW 2071   2.397   2.466   6.130
  391SOL    HW1 2072   2.434   2.393   6.188
  391SOL    HW2 2073   2.372   2.427   6.041
  392SOL     OW 2074   1.387   4.327   0.330
  392SOL    HW1 2075   1.463   4.374   0.374
  392SOL    HW2 2076   1.366   4.243   0.381
  393SOL     OW 2077   0.272   4.782   6.575
  393SOL    HW1 2078   0.183   4.794   6.531
  393SOL    HW2 2079   0.273   4.831   6.662
  394SOL     OW 2080   0.111   0.701   6.555
  394SOL    HW1 2081   0.016   0.670   6.550
  394SOL    HW2 2082   0.172   0.626   6.528
  395SOL     OW 2083   4.816   3.812   3.643
  395SOL    HW1 2084   4.907   3.834   3.676
  395SOL    HW2 2085   4.762   3.772   3.718
  396SOL     OW 2086   3.710   3.943   2.156
  396SOL    HW1 2087   3.664   3.941   2.067
  396SOL    HW2 2088   3.755   4.031   2.168
  397SOL     OW 2089   4.049   2.280   5.653
  397SOL    HW1 2090   4.068   2.354   5.717
  397SOL    HW2 2091   4.128   2.218   5.649
  398SOL     OW 2092   0.555   6.234   2.396
  398SOL    HW1 2093   0.523   6.283   2.478
  398SOL    HW2 2094   0.622   6.165   2.423
  399SOL     OW 2095   5.494   6.441   2.753
  399SOL    HW1 2096   5.395   6.452   2.748
  399SOL    HW2 2097   5.539   6.526   2.726
  400SOL     OW 2098   5.984   6.484   5.712
  400SOL    HW1 2099   6.062   6.425   5.729
  400SOL    HW2 2100   5.996   6.570   5.761
  401SOL     OW 2101   5.106   0.579   5.232
  401SOL    HW1 2102   5.127   0.676   5.219
  401SOL    HW2 2103   5.140   0.548   5.321
  402SOL     OW 2104   6.039   0.511   2.974
  402SOL    HW1 2105   6.127   0.533   2.933
  402SOL    HW2 2106   6.054   0.449   3.052
  403SOL     OW 2107   4.143   1.934   5.079
  403SOL    HW1 2108   4.179   1.962   4.990
  403SOL    HW2 2109   4.192   1.854   5.112
  404SOL     OW 2110   1.548   6.127   3.949
  404SOL    HW1 2111   1.536   6.039   3.993
  404SOL    HW2 2112   1.505   6.125   3.858
  405SOL     OW 2113   1.704   3.851   1.782
  405SOL    HW1 2114   1.789   3.869   1.831
  405SOL    HW2 2115   1.680   3.754   1.789
  406SOL     OW 2116   0.555   4.129   4.096
  406SOL    HW1 2117   0.559   4.134   4.196
  406SOL    HW2 2118   0.459   4.125   4.066
  407SOL     OW 2119   2.404   0.538   3.366
  407SOL    HW1 2120   2.399   0.439   3.353
  407SOL    HW2 2121   2.431   0.581   3.280
  408SOL     OW 2122   0.640   2.414   2.845
  408SOL    HW1 2123   0.660   2.325   2.802
  408SOL    HW2 2124   0.547   2.413   2.881
  409SOL     OW 2125   6.213   2.701   1.117
  409SOL    HW1 2126   6.202   2.622   1.058
  409SOL    HW2 2127   6.195   2.675   1.212
  410SOL     OW 2128   1.517   0.768   0.313
  410SOL    HW1 2129   1.537   0.718   0.397
  410SOL    HW2 2130   1.418   0.782   0.307
  411SOL     OW 2131   5.639   6.982   6.904
  411SOL    HW1 2132   5.649   6.893   6.860
  411SOL    HW2 2133   5.652   0.032   6.836
  412SOL     OW 2134   5.513   6.395   3.545
  412SOL    HW1 2135   5.532   6.493   3.557
  412SOL    HW2 2136   5.584   6.342   3.593
  413SOL     OW 2137   5.580   5.553   2.030
  413SOL    HW1 2138   5.609   5.530   2.123
  413SOL    HW2 2139   5.574   5.652   2.020
  414SOL     OW 2140   3.925   4.803   3.563
  414SOL    HW1 2141   4.008   4.748   3.554
  414SOL    HW2 2142   3.948   4.900   3.555
  415SOL     OW 2143   0.753   5.938   6.414
  415SOL    HW1 2144   0.816   6.008   6.382
  415SOL    HW2 2145   0.699   5.974   6.490
  416SOL     OW 2146   5.206   5.629   4.205
  416SOL    HW1 2147   5.143   5.689   4.256
  416SOL    HW2 2148   5.300   5.647   4.235
  417SOL     OW 2149   2.527   5.111   0.596
  417SOL    HW1 2150   2.558   5.199   0.558
  417SOL    HW2 2151   2.557   5.037   0.536
  418SOL     OW 2152   4.236   6.168   1.502
  418SOL    HW1 2153   4.283   6.101   1.445
  418SOL    HW2 2154   4.163   6.122   1.553
  419SOL     OW 2155   1.571   6.965   0.948
  419SOL    HW1 2156   1.528   7.016   1.022
  419SOL    HW2 2157   1.500   6.929   0.887
  420SOL     OW 2158   6.095   2.071   0.160
  420SOL    HW1 2159   6.105   1.985   0.111
  420SOL    HW2 2160   6.001   2.081   0.192
  421SOL     OW 2161   0.140   5.042   6.334
  421SOL    HW1 2162   0.115   4.964   6.391
  421SOL    HW2 2163   0.063   5.068   6.277
  422SOL     OW 2164   5.232   4.668   0.673
  422SOL    HW1 2165   5.260   4.764   0.673
  422SOL    HW2 2166   5.214   4.638   0.580
  423SOL     OW 2167   0.613   2.362   0.401
  423SOL    HW1 2168   0.632   2.420   0.322
  423SOL    HW2 2169   0.687   2.373   0.469
  424SOL     OW 2170   2.526   3.681   1.291
  424SOL    HW1 2171   2.481   3.748   1.233
  424SOL    HW2 2172   2.625   3.699   1.291
  425SOL     OW 2173   5.814   1.270   2.052
  425SOL    HW1 2174   5.863   1.342   2.101
  425SOL    HW2 2175   5.819   1.288   1.954
  426SOL     OW 2176   4.637   2.242   4.119
  426SOL    HW1 2177   4.565   2.309   4.101
  426SOL    HW2 2178   4.715   2.287   4.163
  427SOL     OW 2179   5.070   5.351   2.747
  427SOL    HW1 2180   5.151   5.335   2.803
  427SOL    HW2 2181   5.022   5.432   2.781
  428SOL     OW 2182   4.351   0.251   4.680
  428SOL    HW1 2183   4.396   0.341   4.682
  428SOL    HW2 2184   4.388   0.197   4.604
  429SOL     OW 2185   2.383   3.529   1.047
  429SOL    HW1 2186   2.433   3.543   1.133
  429SOL    HW2 2187   2.346   3.436   1.045
  430SOL     OW 2188   6.543   0.243   4.276
  430SOL    HW1 2189   6.459   0.242   4.330
  430SOL    HW2 2190   6.606   0.174   4.311
  431SOL     OW 2191   3.690   6.710   0.392
  431SOL    HW1 2192   3.591   6.699   0.399
  431SOL    HW2 2193   3.727   6.733   0.481
  432SOL     OW 2194   6.532   1.920   1.414
  432SOL    HW1 2195   6.582   1.941   1.330
  432SOL    HW2 2196   6.524   1.820   1.423
  433SOL     OW 2197   3.159   6.282   4.637
  433SOL    HW1 2198   3.173   6.193   4.681
  433SOL    HW2 2199   3.238   6.341   4.656
  434SOL     OW 2200   3.561   5.841   1.811
  434SOL    HW1 2201   3.658   5.838   1.833
  434SOL    HW2 2202   3.508   5.795   1.882
  435SOL     OW 2203   5.323   2.472   5.717
  435SOL    HW1 2204   5.225   2.476   5.698
  435SOL    HW2 2205   5.371   2.539   5.660
  436SOL     OW 2206   3.287   6.150   0.784
  436SOL    HW1 2207   3.196   6.127   0.749
  436SOL    HW2 2208   3.278   6.211   0.863
  437SOL     OW 2209   1.323   0.027   6.544
  437SOL    HW1 2210   1.253   0.012   6.474
  437SOL    HW2 2211   1.295   0.102   6.604
  438SOL     OW 2212   2.111   3.666   2.281
  438SOL    HW1 2213   2.089   3.576   2.242
  438SOL    HW2 2214   2.164   3.653   2.365
  439SOL     OW 2215   5.863   4.292   3.619
  439SOL    HW1 2216   5.889   4.283   3.523
  439SOL    HW2 2217   5.821   4.207   3.650
  440SOL     OW 2218   1.783   1.220   5.010
  440SOL    HW1 2219   1.811   1.228   5.106
  440SOL    HW2 2220   1.864   1.212   4.952
  441SOL     OW 2221   1.000   2.702   3.548
  441SOL    HW1 2222   1.057   2.658   3.617
  441SOL    HW2 2223   0.998   2.801   3.564
  442SOL     OW 2224   3.150   4.919   6.203
  442SOL    HW1 2225   3.223   4.973   6.161
  442SOL    HW2 2226   3.156   4.927   6.303
  443SOL     OW 2227   6.230   4.504   4.549
  443SOL    HW1 2228   6.308   4.557   4.514
  443SOL    HW2 2229   6.153   4.512   4.485
  444SOL     OW 2230   5.179   1.653   5.956
  444SOL    HW1 2231   5.114   1.698   5.895
  444SOL    HW2 2232   5.134   1.630   6.042
  445SOL     OW 2233   0.640   5.418   2.876
  445SOL    HW1 2234   0.541   5.411   2.888
  445SOL    HW2 2235   0.680   5.464   2.955
  446SOL     OW 2236   4.223   4.692   3.398
  446SOL    HW1 2237   4.300   4.640   3.362
  446SOL    HW2 2238   4.235   4.707   3.496
  447SOL     OW 2239   0.832   2.630   6.396
  447SOL    HW1 2240   0.920   2.646   6.352
  447SOL    HW2 2241   0.816   2.699   6.467
  448SOL     OW 2242   2.774   0.536   4.093
  448SOL    HW1 2243   2.713   0.517   4.016
  448SOL    HW2 2244   2.738   0.492   4.175
  449SOL     OW 2245   4.494   1.086   4.344
  449SOL    HW1 2246   4.590   1.074   4.371
  449SOL    HW2 2247   4.446   1.140   4.413
  450SOL     OW 2248   1.555   5.942   3.570
  450SOL    HW1 2249   1.607   5.962   3.487
  450SOL    HW2 2250   1.605   5.876   3.626
  451SOL     OW 2251   1.761   1.765   3.765
  451SOL    HW1 2252   1.839   1.714   3.729
  451SOL    HW2 2253   1.716   1.713   3.837
  452SOL     OW 2254   6.250   5.947   1.099
  452SOL    HW1 2255   6.295   6.031   1.068
  452SOL    HW2 2256   6.313   5.894   1.155
  453SOL     OW 2257   4.012   1.039   5.206
  453SOL    HW1 2258   4.084   1.047   5.275
  453SOL    HW2 2259   3.974   0.946   5.208
  454SOL     OW 2260   0.006   4.859   6.482
  454SOL    HW1 2261   6.945   4.881   6.531
  454SOL    HW2 2262   7.007   4.799   6.404
  455SOL     OW 2263   6.097   2.708   3.082
  455SOL    HW1 2264   6.086   2.611   3.099
  455SOL    HW2 2265   6.194   2.729   3.070
  456SOL     OW 2266   5.945   6.504   4.096
  456SOL    HW1 2267   5.969   6.409   4.118
  456SOL    HW2 2268   5.945   6.516   3.997
  457SOL     OW 2269   2.192   3.171   4.140
  457SOL    HW1 2270   2.098   3.162   4.105
  457SOL    HW2 2271   2.244   3.090   4.115
  458SOL     OW 2272   4.608   5.674   3.301
  458SOL    HW1 2273   4.570   5.725   3.224
  458SOL    HW2 2274   4.591   5.577   3.288
  459SOL     OW 2275   1.834   0.083   5.356
  459SOL    HW1 2276   1.916   0.115   5.309
  459SOL    HW2 2277   1.769   0.047   5.289
  460SOL     OW 2278   1.518   0.245   3.513
  460SOL    HW1 2279   1.496   0.327   3.566
  460SOL    HW2 2280   1.452   0.173   3.534
  461SOL     OW 2281   5.840   0.491   5.971
  461SOL    HW1 2282   5.887   0.432   6.037
  461SOL    HW2 2283   5.754   0.447   5.943
  462SOL     OW 2284   3.214   3.229   6.181
  462SOL    HW1 2285   3.121   3.253   6.207
  462SOL    HW2 2286   3.252   3.301   6.122
  463SOL     OW 2287   6.390   5.755   2.963
  463SOL    HW1 2288   6.475   5.762   2.911
  463SOL    HW2 2289   6.403   5.690   3.038
  464SOL     OW 2290   2.397   1.929   5.379
  464SOL    HW1 2291   2.495   1.949   5.392
  464SOL    HW2 2292   2.343   1.998   5.427
  465SOL     OW 2293   0.526   2.451   5.311
  465SOL    HW1 2294   0.624   2.470   5.317
  465SOL    HW2 2295   0.474   2.532   5.341
  466SOL     OW 2296   0.669   5.731   3.068
  466SOL    HW1 2297   0.620   5.740   2.982
  466SOL    HW2 2298   0.706   5.639   3.076
  467SOL     OW 2299   1.537   1.777   0.742
  467SOL    HW1 2300   1.540   1.749   0.838
  467SOL    HW2 2301   1.465   1.846   0.730
  468SOL     OW 2302   3.787   7.004   6.618
  468SOL    HW1 2303   3.869   0.012   6.666
  468SOL    HW2 2304   3.708   0.034   6.651
  469SOL     OW 2305   2.630   3.950   6.900
  469SOL    HW1 2306   2.664   3.857   6.890
  469SOL    HW2 2307   2.707   4.014   6.900
  470SOL     OW 2308   4.305   0.146   2.187
  470SOL    HW1 2309   4.272   0.184   2.101
  470SOL    HW2 2310   4.343   0.055   2.170
  471SOL     OW 2311   2.339   2.348   3.947
  471SOL    HW1 2312   2.249   2.306   3.951
  471SOL    HW2 2313   2.337   2.425   3.883
  472SOL     OW 2314   5.206   3.544   6.889
  472SOL    HW1 2315   5.300   3.510   6.886
  472SOL    HW2 2316   5.185   3.578   6.981
  473SOL     OW 2317   1.165   2.741   3.098
  473SOL    HW1 2318   1.169   2.716   3.195
  473SOL    HW2 2319   1.070   2.754   3.071
  474SOL     OW 2320   5.456   5.689   4.283
  474SOL    HW1 2321   5.497   5.639   4.206
  474SOL    HW2 2322   5.523   5.699   4.356
  475SOL     OW 2323   5.848   1.062   6.308
  475SOL    HW1 2324   5.795   0.985   6.346
  475SOL    HW2 2325   5.944   1.050   6.329
  476SOL     OW 2326   6.636   3.906   3.482
  476SOL    HW1 2327   6.734   3.927   3.481
  476SOL    HW2 2328   6.623   3.807   3.476
  477SOL     OW 2329   2.057   5.077   3.785
  477SOL    HW1 2330   1.986   5.121   3.841
  477SOL    HW2 2331   2.071   5.129   3.702
  478SOL     OW 2332   3.308   6.859   1.803
  478SOL    HW1 2333   3.364   6.878   1.723
  478SOL    HW2 2334   3.211   6.867   1.779
  479SOL     OW 2335   4.121   2.113   6.180
  479SOL    HW1 2336   4.164   2.058   6.251
  479SOL    HW2 2337   4.040   2.159   6.217
  480SOL     OW 2338   2.302   1.088   6.918
  480SOL    HW1 2339   2.377   1.147   6.949
  480SOL    HW2 2340   2.253   1.134   6.844
  481SOL     OW 2341   1.980   6.959   0.367
  481SOL    HW1 2342   1.909   6.901   0.328
  481SOL    HW2 2343   1.939   0.011   0.419
  482SOL     OW 2344   4.503   4.764   2.729
  482SOL    HW1 2345   4.575   4.709   2.773
  482SOL    HW2 2346   4.414   4.726   2.753
  483SOL     OW 2347   6.519   1.178   1.657
  483SOL    HW1 2348   6.441   1.148   1.711
  483SOL    HW2 2349   6.604   1.151   1.703
  484SOL     OW 2350   1.669   3.449   5.095
  484SOL    HW1 2351   1.768   3.458   5.091
  484SOL    HW2 2352   1.639   3.448   5.190
  485SOL     OW 2353   3.667   5.209   2.440
  485SOL    HW1 2354   3.727   5.282   2.406
  485SOL    HW2 2355   3.661   5.216   2.540
  486SOL     OW 2356   6.858   1.469   0.316
  486SOL    HW1 2357   6.771   1.518   0.316
  486SOL    HW2 2358   6.845   1.378   0.355
  487SOL     OW 2359   1.303   0.443   1.198
  487SOL    HW1 2360   1.322   0.540   1.185
  487SOL    HW2 2361   1.327   0.416   1.292
  488SOL     OW 2362   1.017   1.339   2.454
  488SOL    HW1 2363   0.983   1.389   2.374
  488SOL    HW2 2364   1.066   1.257   2.423
  489SOL     OW 2365   3.423   6.045   6.187
  489SOL    HW1 2366   3.432   5.945   6.193
  489SOL    HW2 2367   3.455   6.087   6.272
  490SOL     OW 2368   6.492   5.574   3.204
  490SOL    HW1 2369   6.529   5.586   3.296
  490SOL    HW2 2370   6.400   5.536   3.210
  491SOL     OW 2371   0.489   3.041   2.654
  491SOL    HW1 2372   0.503   2.978   2.730
  491SOL    HW2 2373   0.494   2.990   2.568
  492SOL     OW 2374   1.976   0.751   5.532
  492SOL    HW1 2375   2.044   0.682   5.558
  492SOL    HW2 2376   1.891   0.734   5.583
  493SOL     OW 2377   5.139   5.735   5.345
  493SOL    HW1 2378   5.199   5.793   5.399
  493SOL    HW2 2379   5.179   5.720   5.255
  494SOL     OW 2380   0.384   0.022   6.929
  494SOL    HW1 2381   0.343   6.953   6.927
  494SOL    HW2 2382   0.347   0.077   6.854
  495SOL     OW 2383   5.273   6.090   3.280
  495SOL    HW1 2384   5.282   6.007   3.335
  495SOL    HW2 2385   5.196   6.144   3.314
  496SOL     OW 2386   5.359   4.071   1.997
  496SOL    HW1 2387   5.282   4.110   1.948
  496SOL    HW2 2388   5.399   4.141   2.057
  497SOL     OW 2389   3.589   1.258   4.226
  497SOL    HW1 2390   3.590   1.346   4.179
  497SOL    HW2 2391   3.601   1.185   4.158
  498SOL     OW 2392   2.178   3.413   1.262
  498SOL    HW1 2393   2.178   3.494   1.203
  498SOL    HW2 2394   2.254   3.418   1.326
  499SOL     OW 2395   2.463   6.810   4.571
  499SOL    HW1 2396   2.554   6.842   4.546
  499SOL    HW2 2397   2.469   6.753   4.652
  500SOL     OW 2398   0.594   3.069   4.142
  500SOL    HW1 2399   0.589   3.093   4.239
  500SOL    HW2 2400   0.672   3.116   4.101
  501SOL     OW 2401   2.958   5.491   0.805
  501SOL    HW1 2402   2.961   5.525   0.712
  501SOL    HW2 2403   2.995   5.559   0.868
  502SOL     OW 2404   0.237   4.042   0.318
  502SOL    HW1 2405   0.312   4.092   0.274
  502SOL    HW2 2406   0.181   3.998   0.248
  503SOL     OW 2407   6.521   5.512   6.720
  503SOL    HW1 2408   6.511   5.455   6.639
  503SOL    HW2 2409   6.434   5.513   6.770
  504SOL     OW 2410   0.977   5.668   2.759
  504SOL    HW1 2411   0.977   5.676   2.858
  504SOL    HW2 2412   1.008   5.577   2.733
  505SOL     OW 2413   2.975   6.006   5.135
  505SOL    HW1 2414   2.918   5.993   5.217
  505SOL    HW2 2415   3.032   6.087   5.147
  506SOL     OW 2416   2.291   5.151   4.746
  506SOL    HW1 2417   2.369   5.090   4.758
  506SOL    HW2 2418   2.206   5.098   4.753
  507SOL     OW 2419   3.193   6.487   2.911
  507SOL    HW1 2420   3.173   6.491   2.813
  507SOL    HW2 2421   3.279   6.438   2.925
  508SOL     OW 2422   0.208   3.853   2.223
  508SOL    HW1 2423   0.256   3.935   2.253
  508SOL    HW2 2424   0.134   3.878   2.161
  509SOL     OW 2425   3.243   1.413   1.623
  509SOL    HW1 2426   3.267   1.334   1.567
  509SOL    HW2 2427   3.169   1.389   1.686
  510SOL     OW 2428   6.105   4.941   0.480
  510SOL    HW1 2429   6.129   4.973   0.389
  510SOL    HW2 2430   6.071   5.017   0.535
  511SOL     OW 2431   0.533   1.262   5.500
  511SOL    HW1 2432   0.457   1.198   5.489
  511SOL    HW2 2433   0.541   1.288   5.596
  512SOL     OW 2434   6.771   2.716   6.866
  512SOL    HW1 2435   6.863   2.709   6.903
  512SOL    HW2 2436   6.711   2.650   6.911
  513SOL     OW 2437   6.000   6.797   3.745
  513SOL    HW1 2438   5.920   6.824   3.799
  513SOL    HW2 2439   6.053   6.730   3.795
  514SOL     OW 2440   6.084   2.493   4.202
  514SOL    HW1 2441   5.994   2.513   4.241
  514SOL    HW2 2442   6.099   2.394   4.203
  515SOL     OW 2443   1.125   0.814   6.494
  515SOL    HW1 2444   1.100   0.718   6.497
  515SOL    HW2 2445   1.193   0.833   6.565
  516SOL     OW 2446   2.524   4.725   1.732
  516SOL    HW1 2447   2.454   4.674   1.781
  516SOL    HW2 2448   2.599   4.747   1.794
  517SOL     OW 2449   4.583   5.709   2.071
  517SOL    HW1 2450   4.569   5.804   2.043
  517SOL    HW2 2451   4.637   5.661   2.002
  518SOL     OW 2452   2.390   2.639   3.508
  518SOL    HW1 2453   2.437   2.618   3.422
  518SOL    HW2 2454   2.433   2.587   3.583
  519SOL     OW 2455   0.658   0.153   4.827
  519SOL    HW1 2456   0.714   0.207   4.889
  519SOL    HW2 2457   0.588   0.103   4.879
  520SOL     OW 2458   6.615   4.141   0.856
  520SOL    HW1 2459   6.651   4.233   0.866
  520SOL    HW2 2460   6.530   4.132   0.907
  521SOL     OW 2461   6.398   4.395   4.834
  521SOL    HW1 2462   6.379   4.490   4.858
  521SOL    HW2 2463   6.321   4.358   4.782
  522SOL     OW 2464   3.649   3.196   4.464
  522SOL    HW1 2465   3.628   3.175   4.560
  522SOL    HW2 2466   3.636   3.113   4.409
  523SOL     OW 2467   0.340   5.165   1.847
  523SOL    HW1 2468   0.319   5.158   1.944
  523SOL    HW2 2469   0.311   5.254   1.812
  524SOL     OW 2470   0.042   1.299   1.151
  524SOL    HW1 2471   0.131   1.280   1.193
  524SOL    HW2 2472   0.049   1.382   1.095
  525SOL     OW 2473   2.411   3.645   5.787
  525SOL    HW1 2474   2.378   3.587   5.713
  525SOL    HW2 2475   2.453   3.589   5.858
  526SOL     OW 2476   4.233   6.416   4.390
  526SOL    HW1 2477   4.233   6.510   4.425
  526SOL    HW2 2478   4.295   6.410   4.312
  527SOL     OW 2479   6.580   2.510   6.943
  527SOL    HW1 2480   6.516   2.444   6.983
  527SOL    HW2 2481   6.602   2.483   6.850
  528SOL     OW 2482   0.954   1.939   3.053
  528SOL    HW1 2483   0.875   1.981   3.008
  528SOL    HW2 2484   1.003   1.883   2.987
  529SOL     OW 2485   2.107   6.914   3.807
  529SOL    HW1 2486   2.055   6.905   3.892
  529SOL    HW2 2487   2.103   7.009   3.776
  530SOL     OW 2488   3.085   3.037   4.425
  530SOL    HW1 2489   3.153   3.051   4.352
  530SOL    HW2 2490   3.037   3.123   4.443
  531SOL     OW 2491   0.776   1.420   3.202
  531SOL    HW1 2492   0.700   1.358   3.224
  531SOL    HW2 2493   0.743   1.493   3.143
  532SOL     OW 2494   1.226   2.658   6.963
  532SOL    HW1 2495   1.324   2.640   6.968
  532SOL    HW2 2496   1.176   2.577   6.995
  533SOL     OW 2497   4.775   6.624   3.973
  533SOL    HW1 2498   4.755   6.576   3.888
  533SOL    HW2 2499   4.871   6.654   3.972
  534SOL     OW 2500   5.032   6.652   2.536
  534SOL    HW1 2501   5.022   6.564   2.491
  534SOL    HW2 2502   5.049   6.638   2.634
  535SOL     OW 2503   0.892   3.785   4.295
  535SOL    HW1 2504   0.991   3.779   4.308
  535SOL    HW2 2505   0.848   3.800   4.384
  536SOL     OW 2506   6.620   5.290   1.604
  536SOL    HW1 2507   6.689   5.218   1.612
  536SOL    HW2 2508   6.610   5.336   1.692
  537SOL     OW 2509   2.657   6.486   4.379
  537SOL    HW1 2510   2.706   6.402   4.355
  537SOL    HW2 2511   2.578   6.497   4.319
  538SOL     OW 2512   1.452   4.119   3.012
  538SOL    HW1 2513   1.455   4.181   3.089
  538SOL    HW2 2514   1.388   4.153   2.943
  539SOL     OW 2515   1.399   6.587   1.157
  539SOL    HW1 2516   1.356   6.654   1.217
  539SOL    HW2 2517   1.330   6.546   1.097
  540SOL     OW 2518   0.929   0.327   3.056
  540SOL    HW1 2519   0.916   0.382   2.973
  540SOL    HW2 2520   1.027   0.322   3.077
  541SOL     OW 2521   4.022   6.228   4.417
  541SOL    HW1 2522   4.098   6.294   4.421
  541SOL    HW2 2523   4.041   6.160   4.347
  542SOL     OW 2524   6.503   0.323   6.912
  542SOL    HW1 2525   6.561   0.245   6.934
  542SOL    HW2 2526   6.455   0.353   6.995
  543SOL     OW 2527   1.397   3.948   5.488
  543SOL    HW1 2528   1.477   3.890   5.476
  543SOL    HW2 2529   1.382   3.966   5.585
  544SOL     OW 2530   2.709   3.663   0.172
  544SOL    HW1 2531   2.626   3.689   0.124
  544SOL    HW2 2532   2.789   3.691   0.119
  545SOL     OW 2533   2.934   0.885   2.632
  545SOL    HW1 2534   2.846   0.911   2.591
  545SOL    HW2 2535   2.937   0.786   2.646
  546SOL     OW 2536   1.684   3.113   0.637
  546SOL    HW1 2537   1.615   3.153   0.577
  546SOL    HW2 2538   1.758   3.178   0.652
  547SOL     OW 2539   3.431   1.289   0.019
  547SOL    HW1 2540   3.420   1.229   6.961
  547SOL    HW2 2541   3.470   1.236   0.094
  548SOL     OW 2542   3.659   2.953   2.930
  548SOL    HW1 2543   3.739   2.966   2.989
  548SOL    HW2 2544   3.579   2.935   2.987
  549SOL     OW 2545   4.658   3.455   1.220
  549SOL    HW1 2546   4.642   3.549   1.251
  549SOL    HW2 2547   4.570   3.409   1.206
  550SOL     OW 2548   6.422   4.586   3.603
  550SOL    HW1 2549   6.336   4.618   3.641
  550SOL    HW2 2550   6.463   4.659   3.547
  551SOL     OW 2551   0.860   0.439   1.903
  551SOL    HW1 2552   0.921   0.405   1.832
  551SOL    HW2 2553   0.905   0.431   1.992
  552SOL     OW 2554   4.939   4.415   0.103
  552SOL    HW1 2555   4.909   4.452   0.191
  552SOL    HW2 2556   4.909   4.476   0.029
  553SOL     OW 2557   1.834   6.416   2.057
  553SOL    HW1 2558   1.862   6.461   2.141
  553SOL    HW2 2559   1.768   6.344   2.078
  554SOL     OW 2560   5.339   6.822   6.315
  554SOL    HW1 2561   5.358   6.794   6.409
  554SOL    HW2 2562   5.245   6.856   6.308
  555SOL     OW 2563   1.850   5.343   2.937
  555SOL    HW1 2564   1.755   5.366   2.957
  555SOL    HW2 2565   1.873   5.255   2.977
  556SOL     OW 2566   4.803   2.104   3.732
  556SOL    HW1 2567   4.705   2.093   3.751
  556SOL    HW2 2568   4.848   2.015   3.731
  557SOL     OW 2569   0.791   4.445   0.154
  557SOL    HW1 2570   0.698   4.483   0.158
  557SOL    HW2 2571   0.840   4.483   0.076
  558SOL     OW 2572   2.990   3.523   4.363
  558SOL    HW1 2573   3.089   3.531   4.363
  558SOL    HW2 2574   2.951   3.593   4.423
  559SOL     OW 2575   6.917   5.272   6.859
  559SOL    HW1 2576   6.820   5.268   6.884
  559SOL    HW2 2577   6.966   5.198   6.904
  560SOL     OW 2578   4.539   4.561   0.281
  560SOL    HW1 2579   4.470   4.488   0.292
  560SOL    HW2 2580   4.527   4.629   0.354
  561SOL     OW 2581   6.164   1.249   0.171
  561SOL    HW1 2582   6.204   1.167   0.213
  561SOL    HW2 2583   6.220   1.278   0.094
  562SOL     OW 2584   5.554   0.343   5.710
  562SOL    HW1 2585   5.516   0.429   5.745
  562SOL    HW2 2586   5.552   0.343   5.610
  563SOL     OW 2587   2.205   0.392   3.040
  563SOL    HW1 2588   2.247   0.392   2.949
  563SOL    HW2 2589   2.273   0.366   3.108
  564SOL     OW 2590   2.617   1.870   6.953
  564SOL    HW1 2591   2.585   1.812   6.878
  564SOL    HW2 2592   2.688   1.932   6.919
  565SOL     OW 2593   3.517   2.776   5.774
  565SOL    HW1 2594   3.430   2.786   5.823
  565SOL    HW2 2595   3.499   2.769   5.676
  566SOL     OW 2596   5.949   4.503   4.394
  566SOL    HW1 2597   5.884   4.553   4.452
  566SOL    HW2 2598   5.952   4.546   4.304
  567SOL     OW 2599   3.949   3.982   2.609
  567SOL    HW1 2600   4.004   4.039   2.671
  567SOL    HW2 2601   3.879   4.038   2.565
  568SOL     OW 2602   3.904   2.120   6.995
  568SOL    HW1 2603   3.919   2.199   0.031
  568SOL    HW2 2604   3.888   2.039   0.029
  569SOL     OW 2605   1.142   4.139   6.494
  569SOL    HW1 2606   1.079   4.216   6.486
  569SOL    HW2 2607   1.093   4.054   6.472
  570SOL     OW 2608   2.818   6.208   0.019
  570SOL    HW1 2609   2.799   6.181   0.114
  570SOL    HW2 2610   2.815   6.127   6.982
  571SOL     OW 2611   2.848   0.619   2.589
  571SOL    HW1 2612   2.857   0.545   2.656
  571SOL    HW2 2613   2.851   0.580   2.496
  572SOL     OW 2614   2.686   4.669   5.879
  572SOL    HW1 2615   2.654   4.761   5.856
  572SOL    HW2 2616   2.779   4.657   5.844
  573SOL     OW 2617   5.415   0.818   5.589
  573SOL    HW1 2618   5.343   0.830   5.520
  573SOL    HW2 2619   5.505   0.825   5.546
  574SOL     OW 2620   3.184   2.147   4.298
  574SOL    HW1 2621   3.129   2.135   4.381
  574SOL    HW2 2622   3.278   2.170   4.323
  575SOL     OW 2623   6.133   3.130   0.318
  575SOL    HW1 2624   6.166   3.128   0.412
  575SOL    HW2 2625   6.045   3.178   0.314
  576SOL     OW 2626   1.001   2.023   2.711
  576SOL    HW1 2627   1.058   1.966   2.771
  576SOL    HW2 2628   0.924   2.059   2.763
  577SOL     OW 2629   2.284   1.384   3.106
  577SOL    HW1 2630   2.276   1.295   3.062
  577SOL    HW2 2631   2.192   1.418   3.129
  578SOL     OW 2632   6.696   4.919   3.304
  578SOL    HW1 2633   6.686   4.934   3.205
  578SOL    HW2 2634   6.722   5.005   3.348
  579SOL     OW 2635   1.762   3.351   1.787
  579SOL    HW1 2636   1.692   3.344   1.857
  579SOL    HW2 2637   1.852   3.342   1.829
  580SOL     OW 2638   6.655   4.335   6.614
  580SOL    HW1 2639   6.724   4.297   6.676
  580SOL    HW2 2640   6.685   4.324   6.519
  581SOL     OW 2641   2.945   3.792   2.386
  581SOL    HW1 2642   2.870   3.736   2.421
  581SOL    HW2 2643   2.959   3.871   2.446
  582SOL     OW 2644   5.682   5.392   2.589
  582SOL    HW1 2645   5.583   5.395   2.604
  582SOL    HW2 2646   5.702   5.324   2.518
  583SOL     OW 2647   2.601   5.183   6.162
  583SOL    HW1 2648   2.697   5.211   6.150
  583SOL    HW2 2649   2.559   5.170   6.073
  584SOL     OW 2650   1.794   4.142   6.770
  584SOL    HW1 2651   1.813   4.211   6.700
  584SOL    HW2 2652   1.696   4.141   6.791
  585SOL     OW 2653   5.530   3.124   6.481
  585SOL    HW1 2654   5.629   3.123   6.467
  585SOL    HW2 2655   5.503   3.211   6.523
  586SOL     OW 2656   3.598   1.529   6.277
  586SOL    HW1 2657   3.543   1.475   6.213
  586SOL    HW2 2658   3.542   1.603   6.315
  587SOL     OW 2659   2.461   2.037   4.895
  587SOL    HW1 2660   2.408   2.040   4.810
  587SOL    HW2 2661   2.558   2.033   4.873
  588SOL     OW 2662   2.195   4.660   0.760
  588SOL    HW1 2663   2.240   4.623   0.679
  588SOL    HW2 2664   2.144   4.587   0.807
  589SOL     OW 2665   3.352   5.241   1.498
  589SOL    HW1 2666   3.406   5.322   1.522
  589SOL    HW2 2667   3.407   5.180   1.441
  590SOL     OW 2668   5.576   2.903   2.202
  590SOL    HW1 2669   5.566   2.961   2.121
  590SOL    HW2 2670   5.625   2.819   2.177
  591SOL     OW 2671   3.733   6.148   3.910
  591SOL    HW1 2672   3.684   6.216   3.965
  591SOL    HW2 2673   3.797   6.195   3.850
  592SOL     OW 2674   3.209   0.245   1.139
  592SOL    HW1 2675   3.209   0.290   1.229
  592SOL    HW2 2676   3.188   0.312   1.068
  593SOL     OW 2677   5.009   2.677   3.766
  593SOL    HW1 2678   5.015   2.587   3.811
  593SOL    HW2 2679   4.967   2.666   3.676
  594SOL     OW 2680   5.174   2.326   6.145
  594SOL    HW1 2681   5.200   2.279   6.229
  594SOL    HW2 2682   5.254   2.332   6.084
  595SOL     OW 2683   5.603   0.430   3.742
  595SOL    HW1 2684   5.537   0.408   3.670
  595SOL    HW2 2685   5.690   0.386   3.722
  596SOL     OW 2686   1.423   4.220   2.480
  596SOL    HW1 2687   1.378   4.192   2.395
  596SOL    HW2 2688   1.368   4.190   2.558
  597SOL     OW 2689   4.216   7.004   6.255
  597SOL    HW1 2690   4.247   6.937   6.188
  597SOL    HW2 2691   4.263   0.068   6.242
  598SOL     OW 2692   3.342   4.562   6.599
  598SOL    HW1 2693   3.426   4.556   6.545
  598SOL    HW2 2694   3.326   4.657   6.626
  599SOL     OW 2695   2.219   6.289   2.904
  599SOL    HW1 2696   2.301   6.267   2.957
  599SOL    HW2 2697   2.139   6.253   2.952
  600SOL     OW 2698   1.121   0.578   0.969
  600SOL    HW1 2699   1.081   0.560   1.059
  600SOL    HW2 2700   1.220   0.578   0.976
  601SOL     OW 2701   3.400   6.651   3.973
  601SOL    HW1 2702   3.350   6.612   4.050
  601SOL    HW2 2703   3.469   6.585   3.942
  602SOL     OW 2704   1.845   3.189   6.713
  602SOL    HW1 2705   1.798   3.276   6.726
  602SOL    HW2 2706   1.828   3.129   6.791
  603SOL     OW 2707   4.059   1.612   3.308
  603SOL    HW1 2708   4.020   1.565   3.387
  603SOL    HW2 2709   3.993   1.614   3.234
  604SOL     OW 2710   0.713   3.836   1.222
  604SOL    HW1 2711   0.781   3.784   1.170
  604SOL    HW2 2712   0.755   3.918   1.259
  605SOL     OW 2713   6.208   5.635   2.795
  605SOL    HW1 2714   6.210   5.547   2.842
  605SOL    HW2 2715   6.282   5.693   2.828
  606SOL     OW 2716   5.207   0.747   6.466
  606SOL    HW1 2717   5.163   0.773   6.552
  606SOL    HW2 2718   5.173   0.806   6.393
  607SOL     OW 2719   5.173   0.449   5.456
  607SOL    HW1 2720   5.145   0.515   5.525
  607SOL    HW2 2721   5.268   0.423   5.471
  608SOL     OW 2722   4.027   6.216   6.824
  608SOL    HW1 2723   4.118   6.232   6.785
  608SOL    HW2 2724   3.969   6.174   6.755
  609SOL     OW 2725   3.966   3.053   3.879
  609SOL    HW1 2726   3.875   3.034   3.916
  609SOL    HW2 2727   3.998   3.141   3.912
  610SOL     OW 2728   5.184   2.333   2.547
  610SOL    HW1 2729   5.212   2.239   2.527
  610SOL    HW2 2730   5.265   2.392   2.547
  611SOL     OW 2731   1.798   0.364   6.605
  611SOL    HW1 2732   1.872   0.305   6.638
  611SOL    HW2 2733   1.771   0.335   6.513
  612SOL     OW 2734   4.042   6.691   6.537
  612SOL    HW1 2735   4.056   6.595   6.558
  612SOL    HW2 2736   4.128   6.741   6.550
  613SOL     OW 2737   4.180   6.728   6.052
  613SOL    HW1 2738   4.203   6.661   5.982
  613SOL    HW2 2739   4.139   6.682   6.131
  614SOL     OW 2740   5.857   3.426   0.997
  614SOL    HW1 2741   5.773   3.374   1.014
  614SOL    HW2 2742   5.859   3.453   0.901
  615SOL     OW 2743   0.385   1.919   1.093
  615SOL    HW1 2744   0.336   1.991   1.143
  615SOL    HW2 2745   0.355   1.830   1.126
  616SOL     OW 2746   6.631   2.053   3.101
  616SOL    HW1 2747   6.702   1.983   3.100
  616SOL    HW2 2748   6.586   2.054   3.191
  617SOL     OW 2749   0.102   3.582   6.653
  617SOL    HW1 2750   0.093   3.488   6.686
  617SOL    HW2 2751   0.132   3.581   6.557
  618SOL     OW 2752   0.247   3.499   0.241
  618SOL    HW1 2753   0.180   3.458   0.179
  618SOL    HW2 2754   0.224   3.596   0.254
  619SOL     OW 2755   4.603   6.830   6.816
  619SOL    HW1 2756   4.702   6.818   6.822
  619SOL    HW2 2757   4.558   6.771   6.884
  620SOL     OW 2758   5.325   2.469   1.764
  620SOL    HW1 2759   5.419   2.480   1.796
  620SOL    HW2 2760   5.324   2.413   1.681
  621SOL     OW 2761   1.990   6.991   5.656
  621SOL    HW1 2762   1.946   0.033   5.594
  621SOL    HW2 2763   1.970   6.898   5.627
  622SOL     OW 2764   0.894   1.592   5.124
  622SOL    HW1 2765   0.873   1.505   5.169
  622SOL    HW2 2766   0.875   1.667   5.187
  623SOL     OW 2767   0.746   6.314   5.490
  623SOL    HW1 2768   0.785   6.384   5.550
  623SOL    HW2 2769   0.797   6.229   5.500
  624SOL     OW 2770   6.710   0.988   0.225
  624SOL    HW1 2771   6.779   0.941   0.280
  624SOL    HW2 2772   6.750   1.016   0.138
  625SOL     OW 2773   1.943   2.079   1.084
  625SOL    HW1 2774   1.878   2.133   1.138
  625SOL    HW2 2775   1.897   1.998   1.049
  626SOL     OW 2776   0.176   6.119   3.081
  626SOL    HW1 2777   0.084   6.146   3.110
  626SOL    HW2 2778   0.227   6.200   3.052
  627SOL     OW 2779   6.429   6.128   0.798
  627SOL    HW1 2780   6.427   6.184   0.881
  627SOL    HW2 2781   6.479   6.043   0.817
  628SOL     OW 2782   5.754   4.920   5.125
  628SOL    HW1 2783   5.786   5.014   5.133
  628SOL    HW2 2784   5.724   4.903   5.031
  629SOL     OW 2785   0.606   0.575   6.672
  629SOL    HW1 2786   0.635   0.650   6.733
  629SOL    HW2 2787   0.644   0.489   6.706
  630SOL     OW 2788   0.435   2.085   0.905
  630SOL    HW1 2789   0.443   2.004   0.963
  630SOL    HW2 2790   0.430   2.167   0.962
  631SOL     OW 2791   4.244   1.022   5.052
  631SOL    HW1 2792   4.269   1.063   4.964
  631SOL    HW2 2793   4.148   1.040   5.070
  632SOL     OW 2794   5.179   2.131   1.128
  632SOL    HW1 2795   5.188   2.196   1.052
  632SOL    HW2 2796   5.085   2.095   1.129
  633SOL     OW 2797   3.372   4.290   7.021
  633SOL    HW1 2798   3.361   4.207   0.053
  633SOL    HW2 2799   3.375   4.266   6.924
  634SOL     OW 2800   3.240   3.768   2.905
  634SOL    HW1 2801   3.238   3.798   2.809
  634SOL    HW2 2802   3.335   3.766   2.937
  635SOL     OW 2803   4.753   6.340   0.758
  635SOL    HW1 2804   4.697   6.301   0.832
  635SOL    HW2 2805   4.766   6.271   0.686
  636SOL     OW 2806   2.573   6.768   6.138
  636SOL    HW1 2807   2.618   6.759   6.049
  636SOL    HW2 2808   2.477   6.790   6.125
  637SOL     OW 2809   0.132   2.894   2.715
  637SOL    HW1 2810   0.066   2.901   2.790
  637SOL    HW2 2811   0.100   2.950   2.638
  638SOL     OW 2812   6.315   3.148   3.594
  638SOL    HW1 2813   6.381   3.105   3.532
  638SOL    HW2 2814   6.228   3.099   3.589
  639SOL     OW 2815   5.004   3.738   2.679
  639SOL    HW1 2816   4.928   3.746   2.744
  639SOL    HW2 2817   5.080   3.692   2.724
  640SOL     OW 2818   6.971   5.116   3.924
  640SOL    HW1 2819   6.941   5.201   3.880
  640SOL    HW2 2820   6.958   5.124   4.023
  641SOL     OW 2821   0.820   4.712   4.890
  641SOL    HW1 2822   0.769   4.681   4.971
  641SOL    HW2 2823   0.783   4.801   4.861
  642SOL     OW 2824   0.826   3.134   4.040
  642SOL    HW1 2825   0.864   3.073   3.970
  642SOL    HW2 2826   0.835   3.229   4.010
  643SOL     OW 2827   6.362   0.255   6.518
  643SOL    HW1 2828   6.302   0.180   6.545
  643SOL    HW2 2829   6.313   0.317   6.457
  644SOL     OW 2830   1.364   0.035   4.428
  644SOL    HW1 2831   1.309   0.055   4.509
  644SOL    HW2 2832   1.459   0.021   4.455
  645SOL     OW 2833   3.630   6.648   4.874
  645SOL    HW1 2834   3.695   6.585   4.917
  645SOL    HW2 2835   3.536   6.618   4.894
  646SOL     OW 2836   3.536   0.845   4.659
  646SOL    HW1 2837   3.508   0.778   4.728
  646SOL    HW2 2838   3.471   0.844   4.584
  647SOL     OW 2839   5.154   2.156   5.113
  647SOL    HW1 2840   5.180   2.129   5.206
  647SOL    HW2 2841   5.077   2.099   5.083
  648SOL     OW 2842   0.041   4.666   4.287
  648SOL    HW1 2843   0.059   4.714   4.373
  648SOL    HW2 2844   7.002   4.589   4.303
  649SOL     OW 2845   2.297   3.988   0.236
  649SOL    HW1 2846   2.221   4.000   0.300
  649SOL    HW2 2847   2.346   3.903   0.258
  650SOL     OW 2848   6.674   4.408   0.961
  650SOL    HW1 2849   6.624   4.453   1.035
  650SOL    HW2 2850   6.764   4.449   0.951
  651SOL     OW 2851   1.583   0.307   5.783
  651SOL    HW1 2852   1.682   0.300   5.791
  651SOL    HW2 2853   1.542   0.216   5.789
  652SOL     OW 2854   4.730   0.072   3.186
  652SOL    HW1 2855   4.701   7.019   3.127
  652SOL    HW2 2856   4.784   0.036   3.262
  653SOL     OW 2857   0.471   6.330   0.378
  653SOL    HW1 2858   0.499   6.330   0.282
  653SOL    HW2 2859   0.424   6.244   0.399
  654SOL     OW 2860   0.788   6.284   6.542
  654SOL    HW1 2861   0.784   6.277   6.442
  654SOL    HW2 2862   0.740   6.206   6.582
  655SOL     OW 2863   6.887   5.389   1.498
  655SOL    HW1 2864   6.824   5.334   1.442
  655SOL    HW2 2865   6.976   5.345   1.501
  656SOL     OW 2866   2.427   5.957   0.321
  656SOL    HW1 2867   2.345   5.939   0.375
  656SOL    HW2 2868   2.465   6.046   0.347
  657SOL     OW 2869   3.077   3.731   0.926
  657SOL    HW1 2870   2.979   3.731   0.943
  657SOL    HW2 2871   3.119   3.810   0.970
  658SOL     OW 2872   1.323   3.581   5.438
  658SOL    HW1 2873   1.258   3.535   5.499
  658SOL    HW2 2874   1.392   3.628   5.493
  659SOL     OW 2875   2.834   5.751   4.249
  659SOL    HW1 2876   2.928   5.716   4.250
  659SOL    HW2 2877   2.832   5.839   4.202
  660SOL     OW 2878   4.814   3.999   2.369
  660SOL    HW1 2879   4.819   4.023   2.272
  660SOL    HW2 2880   4.743   3.929   2.382
  661SOL     OW 2881   5.002   3.874   4.358
  661SOL    HW1 2882   5.081   3.931   4.336
  661SOL    HW2 2883   4.953   3.852   4.273
  662SOL     OW 2884   4.262   0.498   5.571
  662SOL    HW1 2885   4.217   0.418   5.611
  662SOL    HW2 2886   4.216   0.581   5.603
  663SOL     OW 2887   1.177   3.651   0.410
  663SOL    HW1 2888   1.181   3.700   0.323
  663SOL    HW2 2889   1.216   3.560   0.400
  664SOL     OW 2890   1.132   5.939   6.299
  664SOL    HW1 2891   1.143   5.906   6.392
  664SOL    HW2 2892   1.155   5.866   6.234
  665SOL     OW 2893   4.761   5.615   1.268
  665SOL    HW1 2894   4.738   5.699   1.318
  665SOL    HW2 2895   4.845   5.576   1.305
  666SOL     OW 2896   4.529   2.360   1.578
  666SOL    HW1 2897   4.438   2.388   1.547
  666SOL    HW2 2898   4.535   2.260   1.576
  667SOL     OW 2899   6.547   4.049   4.189
  667SOL    HW1 2900   6.456   4.084   4.167
  667SOL    HW2 2901   6.614   4.123   4.178
  668SOL     OW 2902   5.106   5.432   0.175
  668SOL    HW1 2903   5.111   5.400   0.080
  668SOL    HW2 2904   5.166   5.377   0.232
  669SOL     OW 2905   3.241   5.777   2.686
  669SOL    HW1 2906   3.225   5.835   2.765
  669SOL    HW2 2907   3.285   5.692   2.715
  670SOL     OW 2908   3.268   3.080   1.923
  670SOL    HW1 2909   3.203   3.081   1.999
  670SOL    HW2 2910   3.266   2.991   1.878
  671SOL     OW 2911   2.487   6.055   6.627
  671SOL    HW1 2912   2.519   6.025   6.538
  671SOL    HW2 2913   2.400   6.103   6.617
  672SOL     OW 2914   0.759   4.577   2.045
  672SOL    HW1 2915   0.810   4.580   2.131
  672SOL    HW2 2916   0.717   4.487   2.034
  673SOL     OW 2917   5.505   0.277   1.467
  673SOL    HW1 2918   5.450   0.194   1.459
  673SOL    HW2 2919   5.552   0.295   1.381
  674SOL     OW 2920   6.310   3.639   4.813
  674SOL    HW1 2921   6.285   3.688   4.730
  674SOL    HW2 2922   6.370   3.562   4.789
  675SOL     OW 2923   6.890   1.273   4.875
  675SOL    HW1 2924   6.953   1.310   4.807
  675SOL    HW2 2925   6.901   1.174   4.880
  676SOL     OW 2926   3.512   5.145   2.992
  676SOL    HW1 2927   3.448   5.129   3.067
  676SOL    HW2 2928   3.479   5.221   2.935
  677SOL     OW 2929   5.923   1.407   6.163
  677SOL    HW1 2930   5.895   1.501   6.141
  677SOL    HW2 2931   5.855   1.365   6.223
  678SOL     OW 2932   1.755   1.397   5.493
  678SOL    HW1 2933   1.794   1.364   5.579
  678SOL    HW2 2934   1.672   1.450   5.512
  679SOL     OW 2935   4.542   0.808   4.025
  679SOL    HW1 2936   4.594   0.838   4.105
  679SOL    HW2 2937   4.562   0.868   3.948
  680SOL     OW 2938   5.439   5.440   5.966
  680SOL    HW1 2939   5.493   5.399   6.040
  680SOL    HW2 2940   5.487   5.430   5.879
  681SOL     OW 2941   5.944   7.016   0.976
  681SOL    HW1 2942   5.954   6.938   0.914
  681SOL    HW2 2943   5.856   0.039   0.957
  682SOL     OW 2944   1.589   6.755   6.794
  682SOL    HW1 2945   1.569   6.747   6.892
  682SOL    HW2 2946   1.658   6.688   6.769
  683SOL     OW 2947   3.487   1.227   6.591
  683SOL    HW1 2948   3.436   1.174   6.658
  683SOL    HW2 2949   3.518   1.312   6.632
  684SOL     OW 2950   5.912   1.560   6.635
  684SOL    HW1 2951   5.835   1.550   6.572
  684SOL    HW2 2952   5.996   1.527   6.591
  685SOL     OW 2953   4.955   6.975   5.394
  685SOL    HW1 2954   5.014   0.031   5.376
  685SOL    HW2 2955   4.868   7.007   5.432
  686SOL     OW 2956   6.060   3.006   3.517
  686SOL    HW1 2957   5.986   2.941   3.501
  686SOL    HW2 2958   6.044   3.053   3.604
  687SOL     OW 2959   6.761   2.278   5.179
  687SOL    HW1 2960   6.669   2.291   5.218
  687SOL    HW2 2961   6.765   2.318   5.088
  688SOL     OW 2962   1.493   3.182   0.453
  688SOL    HW1 2963   1.423   3.114   0.430
  688SOL    HW2 2964   1.453   3.273   0.451
  689SOL     OW 2965   0.243   4.093   5.407
  689SOL    HW1 2966   0.312   4.042   5.355
  689SOL    HW2 2967   0.185   4.144   5.343
  690SOL     OW 2968   0.852   3.649   3.735
  690SOL    HW1 2969   0.812   3.635   3.644
  690SOL    HW2 2970   0.950   3.628   3.732
  691SOL     OW 2971   2.778   1.575   6.316
  691SOL    HW1 2972   2.845   1.593   6.389
  691SOL    HW2 2973   2.701   1.638   6.326
  692SOL     OW 2974   3.634   5.982   3.148
  692SOL    HW1 2975   3.639   6.080   3.128
  692SOL    HW2 2976   3.574   5.968   3.227
  693SOL     OW 2977   6.158   1.830   2.831
  693SOL    HW1 2978   6.116   1.916   2.859
  693SOL    HW2 2979   6.119   1.755   2.885
  694SOL     OW 2980   3.560   6.378   2.377
  694SOL    HW1 2981   3.500   6.298   2.380
  694SOL    HW2 2982   3.646   6.353   2.333
  695SOL     OW 2983   4.464   5.099   6.045
  695SOL    HW1 2984   4.482   5.004   6.072
  695SOL    HW2 2985   4.371   5.124   6.070
  696SOL     OW 2986   2.820   5.369   2.083
  696SOL    HW1 2987   2.735   5.393   2.131
  696SOL    HW2 2988   2.894   5.358   2.149
  697SOL     OW 2989   1.047   2.604   4.299
  697SOL    HW1 2990   1.097   2.685   4.269
  697SOL    HW2 2991   0.957   2.603   4.256
  698SOL     OW 2992   5.692   6.764   6.778
  698SOL    HW1 2993   5.785   6.731   6.791
  698SOL    HW2 2994   5.652   6.720   6.697
  699SOL     OW 2995   0.548   3.895   6.858
  699SOL    HW1 2996   0.474   3.852   6.911
  699SOL    HW2 2997   0.552   3.854   6.767
  700SOL     OW 2998   2.978   1.416   4.398
  700SOL    HW1 2999   2.982   1.323   4.362
  700SOL    HW2 3000   2.901   1.424   4.462
  701SOL     OW 3001   6.968   4.415   5.238
  701SOL    HW1 3002   6.943   4.384   5.329
  701SOL    HW2 3003   6.904   4.377   5.171
  702SOL     OW 3004   5.780   5.852   6.417
  702SOL    HW1 3005   5.721   5.856   6.498
  702SOL    HW2 3006   5.771   5.937   6.365
  703SOL     OW 3007   4.094   4.145   6.428
  703SOL    HW1 3008   4.030   4.107   6.496
  703SOL    HW2 3009   4.174   4.181   6.475
  704SOL     OW 3010   1.995   1.567   6.200
  704SOL    HW1 3011   1.907   1.543   6.240
  704SOL    HW2 3012   2.068   1.515   6.245
  705SOL     OW 3013   4.973   6.749   3.660
  705SOL    HW1 3014   5.023   6.709   3.583
  705SOL    HW2 3015   5.024   6.735   3.745
  706SOL     OW 3016   4.333   2.078   3.318
  706SOL    HW1 3017   4.378   2.154   3.272
  706SOL    HW2 3018   4.248   2.111   3.360
  707SOL     OW 3019   4.446   0.553   2.099
  707SOL    HW1 3020   4.516   0.483   2.111
  707SOL    HW2 3021   4.446   0.615   2.178
  708SOL     OW 3022   3.911   0.130   1.445
  708SOL    HW1 3023   3.950   0.122   1.537
  708SOL    HW2 3024   3.897   0.038   1.407
  709SOL     OW 3025   0.917   5.090   0.114
  709SOL    HW1 3026   0.849   5.158   0.085
  709SOL    HW2 3027   0.987   5.080   0.044
  710SOL     OW 3028   3.586   3.532   2.214
  710SOL    HW1 3029   3.611   3.453   2.269
  710SOL    HW2 3030   3.582   3.613   2.272
  711SOL     OW 3031   0.556   2.278   5.832
  711SOL    HW1 3032   0.612   2.311   5.907
  711SOL    HW2 3033   0.592   2.190   5.800
  712SOL     OW 3034   2.630   3.629   0.487
  712SOL    HW1 3035   2.680   3.642   0.572
  712SOL    HW2 3036   2.694   3.635   0.410
  713SOL     OW 3037   3.300   3.473   0.105
  713SOL    HW1 3038   3.295   3.566   0.068
  713SOL    HW2 3039   3.373   3.468   0.173
  714SOL     OW 3040   6.826   5.249   4.958
  714SOL    HW1 3041   6.873   5.208   5.036
  714SOL    HW2 3042   6.794   5.176   4.896
  715SOL     OW 3043   5.414   6.582   0.589
  715SOL    HW1 3044   5.354   6.620   0.518
  715SOL    HW2 3045   5.500   6.554   0.547
  716SOL     OW 3046   1.499   6.505   0.735
  716SOL    HW1 3047   1.548   6.567   0.795
  716SOL    HW2 3048   1.402   6.528   0.736
  717SOL     OW 3049   5.820   4.889   6.528
  717SOL    HW1 3050   5.790   4.981   6.503
  717SOL    HW2 3051   5.740   4.831   6.543
  718SOL     OW 3052   4.508   2.135   5.829
  718SOL    HW1 3053   4.589   2.176   5.871
  718SOL    HW2 3054   4.441   2.112   5.900
  719SOL     OW 3055   6.671   2.777   0.929
  719SOL    HW1 3056   6.571   2.786   0.931
  719SOL    HW2 3057   6.696   2.684   0.900
  720SOL     OW 3058   3.614   1.188   5.982
  720SOL    HW1 3059   3.679   1.206   6.056
  720SOL    HW2 3060   3.620   1.092   5.955
  721SOL     OW 3061   2.109   0.189   4.289
  721SOL    HW1 3062   2.134   0.180   4.193
  721SOL    HW2 3063   2.192   0.200   4.344
  722SOL     OW 3064   2.637   6.800   5.031
  722SOL    HW1 3065   2.596   6.741   4.961
  722SOL    HW2 3066   2.655   6.890   4.991
  723SOL     OW 3067   1.933   3.767   3.122
  723SOL    HW1 3068   1.857   3.748   3.183
  723SOL    HW2 3069   1.924   3.712   3.038
  724SOL     OW 3070   1.172   2.096   4.631
  724SOL    HW1 3071   1.243   2.159   4.664
  724SOL    HW2 3072   1.106   2.079   4.704
  725SOL     OW 3073   3.140   5.622   0.987
  725SOL    HW1 3074   3.226   5.653   0.946
  725SOL    HW2 3075   3.154   5.607   1.085
  726SOL     OW 3076   3.917   4.997   0.970
  726SOL    HW1 3077   3.885   5.077   1.020
  726SOL    HW2 3078   3.885   5.001   0.875
  727SOL     OW 3079   5.050   5.525   5.670
  727SOL    HW1 3080   5.081   5.501   5.761
  727SOL    HW2 3081   5.003   5.614   5.672
  728SOL     OW 3082   0.034   3.645   4.968
  728SOL    HW1 3083   6.968   3.690   4.970
  728SOL    HW2 3084   0.095   3.695   4.906
  729SOL     OW 3085   2.307   1.644   0.057
  729SOL    HW1 3086   2.262   1.624   0.144
  729SOL    HW2 3087   2.242   1.686   7.016
  730SOL     OW 3088   5.744   1.169   3.394
  730SOL    HW1 3089   5.836   1.155   3.356
  730SOL    HW2 3090   5.736   1.121   3.481
  731SOL     OW 3091   5.711   3.960   5.852
  731SOL    HW1 3092   5.722   4.040   5.912
  731SOL    HW2 3093   5.726   3.877   5.905
  732SOL     OW 3094   0.984   3.097   1.235
  732SOL    HW1 3095   1.074   3.138   1.241
  732SOL    HW2 3096   0.924   3.156   1.181
  733SOL     OW 3097   5.804   5.179   5.179
  733SOL    HW1 3098   5.766   5.153   5.268
  733SOL    HW2 3099   5.848   5.269   5.187
  734SOL     OW 3100   6.705   4.665   2.936
  734SOL    HW1 3101   6.745   4.579   2.968
  734SOL    HW2 3102   6.624   4.686   2.991
  735SOL     OW 3103   3.862   2.924   0.640
  735SOL    HW1 3104   3.816   3.010   0.620
  735SOL    HW2 3105   3.897   2.884   0.556
  736SOL     OW 3106   0.043   0.062   2.592
  736SOL    HW1 3107   0.081   0.154   2.584
  736SOL    HW2 3108   7.018   0.039   2.507
  737SOL     OW 3109   4.119   2.353   6.382
  737SOL    HW1 3110   4.103   2.440   6.336
  737SOL    HW2 3111   4.034   2.302   6.388
  738SOL     OW 3112   2.222   4.052   2.120
  738SOL    HW1 3113   2.273   4.071   2.204
  738SOL    HW2 3114   2.277   4.077   2.040
  739SOL     OW 3115   3.909   6.928   4.458
  739SOL    HW1 3116   3.833   6.884   4.410
  739SOL    HW2 3117   3.954   6.993   4.397
  740SOL     OW 3118   4.488   6.652   0.478
  740SOL    HW1 3119   4.418   6.593   0.518
  740SOL    HW2 3120   4.563   6.596   0.443
  741SOL     OW 3121   2.307   5.980   2.853
  741SOL    HW1 3122   2.268   6.014   2.767
  741SOL    HW2 3123   2.335   6.057   2.910
  742SOL     OW 3124   1.937   6.564   1.624
  742SOL    HW1 3125   1.981   6.643   1.665
  742SOL    HW2 3126   1.852   6.544   1.673
  743SOL     OW 3127   1.543   4.386   5.243
  743SOL    HW1 3128   1.563   4.383   5.145
  743SOL    HW2 3129   1.496   4.301   5.269
  744SOL     OW 3130   5.131   0.013   6.413
  744SOL    HW1 3131   5.102   6.951   6.458
  744SOL    HW2 3132   5.081   0.023   6.327
  745SOL     OW 3133   1.073   5.216   4.075
  745SOL    HW1 3134   1.104   5.236   4.168
  745SOL    HW2 3135   1.013   5.289   4.043
  746SOL     OW 3136   0.686   5.245   6.087
  746SOL    HW1 3137   0.599   5.197   6.101
  746SOL    HW2 3138   0.750   5.219   6.160
  747SOL     OW 3139   4.535   6.106   4.723
  747SOL    HW1 3140   4.472   6.029   4.715
  747SOL    HW2 3141   4.497   6.174   4.785
  748SOL     OW 3142   3.332   4.941   2.613
  748SOL    HW1 3143   3.258   5.007   2.628
  748SOL    HW2 3144   3.390   4.936   2.694
  749SOL     OW 3145   6.486   4.179   5.051
  749SOL    HW1 3146   6.437   4.246   4.995
  749SOL    HW2 3147   6.420   4.120   5.097
  750SOL     OW 3148   1.987   2.506   0.570
  750SOL    HW1 3149   2.065   2.447   0.547
  750SOL    HW2 3150   1.905   2.473   0.524
  751SOL     OW 3151   4.164   2.686   6.127
  751SOL    HW1 3152   4.070   2.651   6.131
  751SOL    HW2 3153   4.198   2.678   6.033
  752SOL     OW 3154   3.909   2.074   1.923
  752SOL    HW1 3155   3.985   2.129   1.889
  752SOL    HW2 3156   3.828   2.133   1.934
  753SOL     OW 3157   1.622   3.071   4.111
  753SOL    HW1 3158   1.647   3.094   4.017
  753SOL    HW2 3159   1.550   3.133   4.143
  754SOL     OW 3160   5.384   2.613   6.384
  754SOL    HW1 3161   5.310   2.623   6.318
  754SOL    HW2 3162   5.442   2.694   6.382
  755SOL     OW 3163   1.568   5.399   6.283
  755SOL    HW1 3164   1.647   5.338   6.291
  755SOL    HW2 3165   1.492   5.350   6.240
  756SOL     OW 3166   3.432   0.484   1.290
  756SOL    HW1 3167   3.345   0.465   1.336
  756SOL    HW2 3168   3.414   0.501   1.193
  757SOL     OW 3169   0.681   6.517   3.080
  757SOL    HW1 3170   0.628   6.486   3.159
  757SOL    HW2 3171   0.624   6.572   3.020
  758SOL     OW 3172   4.072   0.584   2.098
  758SOL    HW1 3173   4.022   0.652   2.151
  758SOL    HW2 3174   4.021   0.498   2.098
  759SOL     OW 3175   0.319   1.014   0.365
  759SOL    HW1 3176   0.354   0.926   0.397
  759SOL    HW2 3177   0.391   1.062   0.316
  760SOL     OW 3178   4.735   0.424   5.637
  760SOL    HW1 3179   4.699   0.392   5.549
  760SOL    HW2 3180   4.829   0.393   5.647
  761SOL     OW 3181   5.150   3.806   5.584
  761SOL    HW1 3182   5.248   3.786   5.578
  761SOL    HW2 3183   5.098   3.722   5.568
  762SOL     OW 3184   1.696   0.171   4.863
  762SOL    HW1 3185   1.782   0.212   4.894
  762SOL    HW2 3186   1.713   0.112   4.784
  763SOL     OW 3187   4.597   5.124   6.848
  763SOL    HW1 3188   4.660   5.049   6.826
  763SOL    HW2 3189   4.527   5.091   6.912
  764SOL     OW 3190   4.088   0.805   4.249
  764SOL    HW1 3191   4.030   0.886   4.253
  764SOL    HW2 3192   4.172   0.822   4.300
  765SOL     OW 3193   1.391   5.922   1.093
  765SOL    HW1 3194   1.490   5.937   1.090
  765SOL    HW2 3195   1.371   5.828   1.065
  766SOL     OW 3196   1.240   3.031   0.433
  766SOL    HW1 3197   1.234   2.948   0.376
  766SOL    HW2 3198   1.199   3.013   0.522
  767SOL     OW 3199   6.140   5.599   2.516
  767SOL    HW1 3200   6.169   5.587   2.611
  767SOL    HW2 3201   6.082   5.681   2.509
  768SOL     OW 3202   2.117   6.658   1.830
  768SOL    HW1 3203   2.123   6.559   1.827
  768SOL    HW2 3204   2.085   6.688   1.920
  769SOL     OW 3205   3.445   0.564   4.418
  769SOL    HW1 3206   3.433   0.473   4.459
  769SOL    HW2 3207   3.542   0.581   4.400
  770SOL     OW 3208   2.120   4.176   3.287
  770SOL    HW1 3209   2.044   4.205   3.228
  770SOL    HW2 3210   2.142   4.080   3.268
  771SOL     OW 3211   2.433   5.430   2.326
  771SOL    HW1 3212   2.359   5.436   2.260
  771SOL    HW2 3213   2.407   5.475   2.412
  772SOL     OW 3214   6.648   4.981   0.809
  772SOL    HW1 3215   6.697   5.052   0.759
  772SOL    HW2 3216   6.633   5.010   0.903
  773SOL     OW 3217   0.040   3.788   4.077
  773SOL    HW1 3218   6.985   3.824   4.025
  773SOL    HW2 3219   0.032   3.688   4.084
  774SOL     OW 3220   1.198   1.481   2.118
  774SOL    HW1 3221   1.284   1.511   2.159
  774SOL    HW2 3222   1.126   1.547   2.138
  775SOL     OW 3223   0.797   2.124   2.897
  775SOL    HW1 3224   0.705   2.093   2.923
  775SOL    HW2 3225   0.826   2.197   2.959
  776SOL     OW 3226   0.420   0.318   5.503
  776SOL    HW1 3227   0.401   0.265   5.586
  776SOL    HW2 3228   0.334   0.352   5.465
  777SOL     OW 3229   3.269   5.311   1.212
  777SOL    HW1 3230   3.191   5.360   1.171
  777SOL    HW2 3231   3.237   5.261   1.292
  778SOL     OW 3232   3.170   1.447   3.126
  778SOL    HW1 3233   3.210   1.456   3.218
  778SOL    HW2 3234   3.122   1.531   3.102
  779SOL     OW 3235   0.281   2.023   3.059
  779SOL    HW1 3236   0.199   2.060   3.014
  779SOL    HW2 3237   0.270   2.029   3.158
  780SOL     OW 3238   5.881   3.971   3.588
  780SOL    HW1 3239   5.845   3.971   3.681
  780SOL    HW2 3240   5.980   3.953   3.590
  781SOL     OW 3241   5.374   1.231   6.849
  781SOL    HW1 3242   5.305   1.261   6.915
  781SOL    HW2 3243   5.465   1.262   6.879
  782SOL     OW 3244   1.301   3.844   6.683
  782SOL    HW1 3245   1.393   3.807   6.694
  782SOL    HW2 3246   1.308   3.942   6.661
  783SOL     OW 3247   4.256   5.254   1.402
  783SOL    HW1 3248   4.190   5.184   1.429
  783SOL    HW2 3249   4.327   5.261   1.472
  784SOL     OW 3250   5.178   6.487   0.074
  784SOL    HW1 3251   5.216   6.499   0.166
  784SOL    HW2 3252   5.244   6.520   0.006
  785SOL     OW 3253   6.984   2.911   2.940
  785SOL    HW1 3254   0.022   2.891   3.017
  785SOL    HW2 3255   6.889   2.905   2.970
  786SOL     OW 3256   1.521   0.687   0.584
  786SOL    HW1 3257   1.587   0.676   0.658
  786SOL    HW2 3258   1.461   0.607   0.581
  787SOL     OW 3259   2.882   0.636   6.493
  787SOL    HW1 3260   2.896   0.542   6.464
  787SOL    HW2 3261   2.813   0.639   6.566
  788SOL     OW 3262   3.092   2.210   5.362
  788SOL    HW1 3263   2.999   2.205   5.326
  788SOL    HW2 3264   3.148   2.267   5.301
  789SOL     OW 3265   5.264   3.807   0.919
  789SOL    HW1 3266   5.302   3.715   0.925
  789SOL    HW2 3267   5.172   3.808   0.958
  790SOL     OW 3268   2.415   0.724   4.365
  790SOL    HW1 3269   2.469   0.641   4.383
  790SOL    HW2 3270   2.461   0.779   4.295
  791SOL     OW 3271   3.435   5.941   3.355
  791SOL    HW1 3272   3.431   6.001   3.434
  791SOL    HW2 3273   3.355   5.956   3.297
  792SOL     OW 3274   0.471   0.640   1.925
  792SOL    HW1 3275   0.493   0.544   1.940
  792SOL    HW2 3276   0.516   0.696   1.995
  793SOL     OW 3277   5.252   6.082   2.723
  793SOL    HW1 3278   5.201   6.164   2.699
  793SOL    HW2 3279   5.259   6.075   2.823
  794SOL     OW 3280   3.087   3.487   5.014
  794SOL    HW1 3281   3.175   3.458   5.052
  794SOL    HW2 3282   3.079   3.586   5.020
  795SOL     OW 3283   4.151   6.370   5.105
  795SOL    HW1 3284   4.200   6.355   5.191
  795SOL    HW2 3285   4.092   6.450   5.114
  796SOL     OW 3286   1.320   1.709   6.192
  796SOL    HW1 3287   1.297   1.683   6.285
  796SOL    HW2 3288   1.409   1.756   6.191
  797SOL     OW 3289   5.084   2.813   2.087
  797SOL    HW1 3290   5.123   2.736   2.037
  797SOL    HW2 3291   5.053   2.883   2.022
  798SOL     OW 3292   5.203   6.866   1.540
  798SOL    HW1 3293   5.297   6.899   1.533
  798SOL    HW2 3294   5.164   6.896   1.627
  799SOL     OW 3295   6.072   1.084   4.775
  799SOL    HW1 3296   6.073   1.144   4.694
  799SOL    HW2 3297   5.980   1.049   4.789
  800SOL     OW 3298   5.322   1.308   2.683
  800SOL    HW1 3299   5.319   1.299   2.583
  800SOL    HW2 3300   5.240   1.265   2.722
  801SOL     OW 3301   2.086   3.567   4.494
  801SOL    HW1 3302   2.049   3.646   4.446
  801SOL    HW2 3303   2.078   3.486   4.436
  802SOL     OW 3304   4.850   0.467   0.586
  802SOL    HW1 3305   4.777   0.452   0.653
  802SOL    HW2 3306   4.911   0.387   0.585
  803SOL     OW 3307   0.047   6.508   4.708
  803SOL    HW1 3308   0.096   6.588   4.673
  803SOL    HW2 3309   0.070   6.494   4.805
  804SOL     OW 3310   5.896   6.182   0.165
  804SOL    HW1 3311   5.835   6.238   0.108
  804SOL    HW2 3312   5.882   6.085   0.143
  805SOL     OW 3313   3.755   1.309   5.403
  805SOL    HW1 3314   3.843   1.339   5.440
  805SOL    HW2 3315   3.771   1.248   5.325
  806SOL     OW 3316   5.135   1.513   3.933
  806SOL    HW1 3317   5.093   1.544   4.018
  806SOL    HW2 3318   5.170   1.592   3.882
  807SOL     OW 3319   0.661   1.877   4.885
  807SOL    HW1 3320   0.628   1.883   4.791
  807SOL    HW2 3321   0.621   1.797   4.930
  808SOL     OW 3322   4.420   3.552   6.522
  808SOL    HW1 3323   4.485   3.585   6.590
  808SOL    HW2 3324   4.335   3.605   6.527
  809SOL     OW 3325   0.475   4.445   1.884
  809SOL    HW1 3326   0.381   4.474   1.869
  809SOL    HW2 3327   0.535   4.490   1.818
  810SOL     OW 3328   3.633   2.706   0.881
  810SOL    HW1 3329   3.729   2.720   0.857
  810SOL    HW2 3330   3.585   2.793   0.877
  811SOL     OW 3331   3.764   5.570   4.304
  811SOL    HW1 3332   3.723   5.660   4.322
  811SOL    HW2 3333   3.856   5.581   4.268
  812SOL     OW 3334   0.474   1.636   1.564
  812SOL    HW1 3335   0.555   1.638   1.505
  812SOL    HW2 3336   0.473   1.552   1.618
  813SOL     OW 3337   3.866   5.661   4.683
  813SOL    HW1 3338   3.962   5.634   4.689
  813SOL    HW2 3339   3.850   5.711   4.598
  814SOL     OW 3340   5.782   6.041   2.461
  814SOL    HW1 3341   5.807   6.135   2.439
  814SOL    HW2 3342   5.710   6.040   2.531
  815SOL     OW 3343   0.205   3.470   3.189
  815SOL    HW1 3344   0.235   3.499   3.098
  815SOL    HW2 3345   0.113   3.505   3.206
  816SOL     OW 3346   6.765   6.613   0.226
  816SOL    HW1 3347   6.864   6.599   0.218
  816SOL    HW2 3348   6.747   6.679   0.298
  817SOL     OW 3349   2.137   3.710   1.608
  817SOL    HW1 3350   2.234   3.732   1.614
  817SOL    HW2 3351   2.089   3.783   1.559
  818SOL     OW 3352   6.751   2.766   1.778
  818SOL    HW1 3353   6.654   2.748   1.792
  818SOL    HW2 3354   6.782   2.720   1.695
  819SOL     OW 3355   5.214   2.885   3.437
  819SOL    HW1 3356   5.211   2.787   3.460
  819SOL    HW2 3357   5.234   2.895   3.339
  820SOL     OW 3358   2.408   2.861   5.828
  820SOL    HW1 3359   2.459   2.804   5.763
  820SOL    HW2 3360   2.417   2.823   5.920
  821SOL     OW 3361   1.850   4.051   0.434
  821SOL    HW1 3362   1.950   4.048   0.429
  821SOL    HW2 3363   1.819   4.146   0.433
  822SOL     OW 3364   1.342   4.904   4.332
  822SOL    HW1 3365   1.354   4.925   4.429
  822SOL    HW2 3366   1.429   4.872   4.294
  823SOL     OW 3367   4.614   3.994   6.057
  823SOL    HW1 3368   4.670   4.056   6.112
  823SOL    HW2 3369   4.623   3.901   6.093
  824SOL     OW 3370   5.295   0.977   5.042
  824SOL    HW1 3371   5.211   0.960   5.095
  824SOL    HW2 3372   5.305   0.907   4.972
  825SOL     OW 3373   1.355   4.033   1.200
  825SOL    HW1 3374   1.416   4.043   1.279
  825SOL    HW2 3375   1.349   3.936   1.175
  826SOL     OW 3376   5.264   3.334   6.322
  826SOL    HW1 3377   5.261   3.390   6.239
  826SOL    HW2 3378   5.283   3.239   6.297
  827SOL     OW 3379   3.640   5.394   6.555
  827SOL    HW1 3380   3.583   5.443   6.489
  827SOL    HW2 3381   3.642   5.297   6.532
  828SOL     OW 3382   5.252   6.281   6.075
  828SOL    HW1 3383   5.239   6.294   5.976
  828SOL    HW2 3384   5.346   6.302   6.099
  829SOL     OW 3385   3.092   3.676   3.654
  829SOL    HW1 3386   3.049   3.731   3.725
  829SOL    HW2 3387   3.107   3.583   3.688
  830SOL     OW 3388   4.894   4.628   6.949
  830SOL    HW1 3389   4.862   4.721   6.965
  830SOL    HW2 3390   4.949   4.627   6.865
  831SOL     OW 3391   5.757   0.999   5.626
  831SOL    HW1 3392   5.748   0.915   5.573
  831SOL    HW2 3393   5.677   1.010   5.684
  832SOL     OW 3394   2.361   0.957   1.110
  832SOL    HW1 3395   2.313   0.984   1.026
  832SOL    HW2 3396   2.376   0.858   1.109
  833SOL     OW 3397   6.923   4.513   6.457
  833SOL    HW1 3398   6.936   4.598   6.407
  833SOL    HW2 3399   6.931   4.531   6.555
  834SOL     OW 3400   2.805   3.352   1.095
  834SOL    HW1 3401   2.712   3.313   1.096
  834SOL    HW2 3402   2.865   3.292   1.042
  835SOL     OW 3403   3.229   0.722   4.494
  835SOL    HW1 3404   3.150   0.662   4.502
  835SOL    HW2 3405   3.312   0.666   4.484
  836SOL     OW 3406   3.452   6.111   0.093
  836SOL    HW1 3407   3.432   6.073   0.183
  836SOL    HW2 3408   3.369   6.111   0.038
  837SOL     OW 3409   5.495   6.188   0.035
  837SOL    HW1 3410   5.455   6.237   0.112
  837SOL    HW2 3411   5.521   6.253   6.985
  838SOL     OW 3412   1.602   0.221   4.554
  838SOL    HW1 3413   1.663   0.203   4.477
  838SOL    HW2 3414   1.606   0.143   4.617
  839SOL     OW 3415   2.712   2.283   2.257
  839SOL    HW1 3416   2.793   2.299   2.201
  839SOL    HW2 3417   2.737   2.288   2.354
  840SOL     OW 3418   5.609   7.008   6.535
  840SOL    HW1 3419   5.705   7.005   6.561
  840SOL    HW2 3420   5.600   6.996   6.436
  841SOL     OW 3421   4.771   4.933   0.919
  841SOL    HW1 3422   4.858   4.885   0.924
  841SOL    HW2 3423   4.787   5.030   0.901
  842SOL     OW 3424   4.215   5.292   4.305
  842SOL    HW1 3425   4.209   5.231   4.385
  842SOL    HW2 3426   4.251   5.241   4.227
  843SOL     OW 3427   2.972   1.826   6.926
  843SOL    HW1 3428   2.913   1.904   6.909
  843SOL    HW2 3429   2.929   1.743   6.890
  844SOL     OW 3430   5.619   0.063   1.219
  844SOL    HW1 3431   5.569   0.048   1.304
  844SOL    HW2 3432   5.555   0.093   1.148
  845SOL     OW 3433   5.691   3.475   5.372
  845SOL    HW1 3434   5.677   3.574   5.374
  845SOL    HW2 3435   5.617   3.432   5.319
  846SOL     OW 3436   3.380   1.448   0.320
  846SOL    HW1 3437   3.416   1.431   0.228
  846SOL    HW2 3438   3.282   1.469   0.314
  847SOL     OW 3439   0.527   3.763   0.260
  847SOL    HW1 3440   0.612   3.801   0.224
  847SOL    HW2 3441   0.510   3.800   0.352
  848SOL     OW 3442   6.099   1.007   6.440
  848SOL    HW1 3443   6.192   1.041   6.452
  848SOL    HW2 3444   6.089   0.921   6.491
  849SOL     OW 3445   0.918   4.706   5.303
  849SOL    HW1 3446   0.933   4.611   5.274
  849SOL    HW2 3447   0.963   4.768   5.239
  850SOL     OW 3448   5.335   1.180   4.022
  850SOL    HW1 3449   5.289   1.213   4.104
  850SOL    HW2 3450   5.376   1.258   3.973
  851SOL     OW 3451   6.971   1.151   1.378
  851SOL    HW1 3452   7.018   1.186   1.297
  851SOL    HW2 3453   6.872   1.158   1.367
  852SOL     OW 3454   1.357   1.895   0.059
  852SOL    HW1 3455   1.257   1.886   0.063
  852SOL    HW2 3456   1.399   1.815   0.102
  853SOL     OW 3457   1.700   4.480   2.688
  853SOL    HW1 3458   1.701   4.383   2.663
  853SOL    HW2 3459   1.670   4.490   2.783
  854SOL     OW 3460   4.631   5.958   1.979
  854SOL    HW1 3461   4.724   5.959   2.014
  854SOL    HW2 3462   4.606   6.050   1.947
  855SOL     OW 3463   6.732   0.246   1.142
  855SOL    HW1 3464   6.780   0.256   1.228
  855SOL    HW2 3465   6.790   0.199   1.076
  856SOL     OW 3466   1.584   1.913   5.017
  856SOL    HW1 3467   1.609   1.954   4.929
  856SOL    HW2 3468   1.611   1.974   5.091
  857SOL     OW 3469   6.057   4.388   2.106
  857SOL    HW1 3470   5.978   4.447   2.125
  857SOL    HW2 3471   6.032   4.321   2.036
  858SOL     OW 3472   2.526   4.131   1.277
  858SOL    HW1 3473   2.487   4.115   1.368
  858SOL    HW2 3474   2.506   4.224   1.248
  859SOL     OW 3475   4.858   5.551   6.713
  859SOL    HW1 3476   4.904   5.513   6.632
  859SOL    HW2 3477   4.819   5.640   6.691
  860SOL     OW 3478   4.043   4.764   0.762
  860SOL    HW1 3479   4.131   4.760   0.808
  860SOL    HW2 3480   4.004   4.672   0.756
  861SOL     OW 3481   2.323   0.278   4.460
  861SOL    HW1 3482   2.312   0.375   4.481
  861SOL    HW2 3483   2.309   0.224   4.543
  862SOL     OW 3484   7.001   4.725   6.260
  862SOL    HW1 3485   6.949   4.653   6.213
  862SOL    HW2 3486   7.012   4.803   6.198
  863SOL     OW 3487   0.912   0.416   0.493
  863SOL    HW1 3488   0.960   0.449   0.574
  863SOL    HW2 3489   0.979   0.387   0.425
  864SOL     OW 3490   5.067   4.560   3.929
  864SOL    HW1 3491   5.118   4.622   3.988
  864SOL    HW2 3492   5.080   4.466   3.958
  865SOL     OW 3493   2.137   6.231   5.063
  865SOL    HW1 3494   2.100   6.200   5.151
  865SOL    HW2 3495   2.064   6.231   4.994
  866SOL     OW 3496   1.963   2.533   1.980
  866SOL    HW1 3497   2.039   2.556   1.920
  866SOL    HW2 3498   1.931   2.616   2.027
  867SOL     OW 3499   4.161   2.721   1.155
  867SOL    HW1 3500   4.121   2.812   1.143
  867SOL    HW2 3501   4.117   2.676   1.233
  868SOL     OW 3502   5.752   6.881   1.670
  868SOL    HW1 3503   5.789   6.815   1.606
  868SOL    HW2 3504   5.731   6.967   1.623
  869SOL     OW 3505   6.745   5.148   3.426
  869SOL    HW1 3506   6.718   5.217   3.494
  869SOL    HW2 3507   6.754   5.192   3.337
  870SOL     OW 3508   5.743   3.688   0.478
  870SOL    HW1 3509   5.734   3.787   0.473
  870SOL    HW2 3510   5.823   3.659   0.424
  871SOL     OW 3511   5.510   3.665   1.928
  871SOL    HW1 3512   5.506   3.594   1.998
  871SOL    HW2 3513   5.527   3.754   1.970
  872SOL     OW 3514   6.059   4.017   4.000
  872SOL    HW1 3515   5.974   3.967   3.982
  872SOL    HW2 3516   6.064   4.097   3.941
  873SOL     OW 3517   5.370   0.372   3.523
  873SOL    HW1 3518   5.393   0.308   3.450
  873SOL    HW2 3519   5.340   0.459   3.483
  874SOL     OW 3520   1.536   4.938   5.033
  874SOL    HW1 3521   1.548   5.034   5.008
  874SOL    HW2 3522   1.443   4.909   5.009
  875SOL     OW 3523   4.205   3.163   0.395
  875SOL    HW1 3524   4.221   3.153   0.493
  875SOL    HW2 3525   4.243   3.250   0.363
  876SOL     OW 3526   0.523   6.356   3.701
  876SOL    HW1 3527   0.488   6.263   3.688
  876SOL    HW2 3528   0.532   6.374   3.799
  877SOL     OW 3529   3.368   4.737   0.448
  877SOL    HW1 3530   3.340   4.641   0.454
  877SOL    HW2 3531   3.406   4.755   0.357
  878SOL     OW 3532   4.410   6.095   5.898
  878SOL    HW1 3533   4.359   6.009   5.906
  878SOL    HW2 3534   4.495   6.088   5.950
  879SOL     OW 3535   3.273   2.067   2.190
  879SOL    HW1 3536   3.241   1.975   2.209
  879SOL    HW2 3537   3.238   2.098   2.102
  880SOL     OW 3538   2.785   4.919   0.129
  880SOL    HW1 3539   2.698   4.944   0.171
  880SOL    HW2 3540   2.778   4.927   0.030
  881SOL     OW 3541   4.314   4.516   5.417
  881SOL    HW1 3542   4.240   4.514   5.350
  881SOL    HW2 3543   4.277   4.495   5.508
  882SOL     OW 3544   1.133   1.313   4.209
  882SOL    HW1 3545   1.176   1.397   4.177
  882SOL    HW2 3546   1.192   1.235   4.190
  883SOL     OW 3547   4.684   5.688   4.980
  883SOL    HW1 3548   4.760   5.647   4.931
  883SOL    HW2 3549   4.701   5.786   4.994
  884SOL     OW 3550   0.357   3.194   1.276
  884SOL    HW1 3551   0.392   3.104   1.302
  884SOL    HW2 3552   0.257   3.193   1.280
  885SOL     OW 3553   5.249   5.696   6.822
  885SOL    HW1 3554   5.159   5.729   6.849
  885SOL    HW2 3555   5.249   5.596   6.821
  886SOL     OW 3556   3.715   6.754   0.673
  886SOL    HW1 3557   3.805   6.797   0.670
  886SOL    HW2 3558   3.664   6.790   0.752
  887SOL     OW 3559   4.616   0.052   4.997
  887SOL    HW1 3560   4.709   0.068   4.964
  887SOL    HW2 3561   4.607   0.088   5.089
  888SOL     OW 3562   5.873   6.334   3.308
  888SOL    HW1 3563   5.928   6.392   3.368
  888SOL    HW2 3564   5.799   6.387   3.267
  889SOL     OW 3565   1.073   6.721   5.719
  889SOL    HW1 3566   1.117   6.794   5.770
  889SOL    HW2 3567   1.038   6.652   5.782
  890SOL     OW 3568   3.019   5.011   1.944
  890SOL    HW1 3569   2.930   5.042   1.976
  890SOL    HW2 3570   3.066   4.961   2.017
  891SOL     OW 3571   5.955   3.873   1.946
  891SOL    HW1 3572   6.050   3.898   1.930
  891SOL    HW2 3573   5.924   3.811   1.874
  892SOL     OW 3574   3.866   3.983   0.662
  892SOL    HW1 3575   3.953   3.943   0.692
  892SOL    HW2 3576   3.883   4.070   0.616
  893SOL     OW 3577   2.215   0.718   2.106
  893SOL    HW1 3578   2.188   0.624   2.085
  893SOL    HW2 3579   2.226   0.769   2.021
  894SOL     OW 3580   1.809   3.361   4.425
  894SOL    HW1 3581   1.796   3.262   4.421
  894SOL    HW2 3582   1.898   3.384   4.384
  895SOL     OW 3583   2.062   5.972   4.816
  895SOL    HW1 3584   2.059   5.883   4.861
  895SOL    HW2 3585   1.979   6.023   4.836
  896SOL     OW 3586   5.458   6.719   2.380
  896SOL    HW1 3587   5.543   6.764   2.405
  896SOL    HW2 3588   5.451   6.631   2.428
  897SOL     OW 3589   5.621   0.362   0.326
  897SOL    HW1 3590   5.572   0.389   0.243
  897SOL    HW2 3591   5.598   0.425   0.401
  898SOL     OW 3592   3.899   5.452   3.169
  898SOL    HW1 3593   3.811   5.428   3.210
  898SOL    HW2 3594   3.902   5.416   3.075
  899SOL     OW 3595   0.181   4.837   0.325
  899SOL    HW1 3596   0.171   4.856   0.422
  899SOL    HW2 3597   0.231   4.911   0.281
  900SOL     OW 3598   5.072   6.482   1.354
  900SOL    HW1 3599   5.161   6.443   1.378
  900SOL    HW2 3600   5.003   6.410   1.351
  901SOL     OW 3601   0.571   1.420   5.110
  901SOL    HW1 3602   0.627   1.346   5.148
  901SOL    HW2 3603   0.594   1.433   5.013
  902SOL     OW 3604   0.256   1.809   5.881
  902SOL    HW1 3605   0.197   1.751   5.938
  902SOL    HW2 3606   0.201   1.882   5.841
  903SOL     OW 3607   6.710   3.838   6.358
  903SOL    HW1 3608   6.644   3.913   6.346
  903SOL    HW2 3609   6.784   3.868   6.419
  904SOL     OW 3610   1.294   1.819   4.287
  904SOL    HW1 3611   1.220   1.761   4.321
  904SOL    HW2 3612   1.257   1.888   4.225
  905SOL     OW 3613   4.438   2.983   6.063
  905SOL    HW1 3614   4.361   2.956   6.122
  905SOL    HW2 3615   4.412   2.972   5.967
  906SOL     OW 3616   0.197   3.661   6.367
  906SOL    HW1 3617   0.212   3.759   6.355
  906SOL    HW2 3618   0.253   3.611   6.301
  907SOL     OW 3619   5.383   2.555   3.836
  907SOL    HW1 3620   5.388   2.485   3.908
  907SOL    HW2 3621   5.469   2.555   3.785
  908SOL     OW 3622   1.736   7.005   3.741
  908SOL    HW1 3623   1.824   0.013   3.704
  908SOL    HW2 3624   1.736   6.905   3.749
  909SOL     OW 3625   2.091   0.062   0.829
  909SOL    HW1 3626   2.081   7.003   0.770
  909SOL    HW2 3627   2.005   0.114   0.827
  910SOL     OW 3628   2.798   0.239   0.499
  910SOL    HW1 3629   2.706   0.253   0.461
  910SOL    HW2 3630   2.855   0.189   0.434
  911SOL     OW 3631   6.657   5.863   1.147
  911SOL    HW1 3632   6.730   5.863   1.216
  911SOL    HW2 3633   6.573   5.827   1.188
  912SOL     OW 3634   6.212   0.857   4.909
  912SOL    HW1 3635   6.204   0.893   5.002
  912SOL    HW2 3636   6.177   0.925   4.844
  913SOL     OW 3637   2.618   0.391   3.555
  913SOL    HW1 3638   2.703   0.355   3.593
  913SOL    HW2 3639   2.626   0.490   3.544
  914SOL     OW 3640   2.990   5.602   5.668
  914SOL    HW1 3641   3.079   5.615   5.711
  914SOL    HW2 3642   2.994   5.522   5.607
  915SOL     OW 3643   0.970   3.192   0.787
  915SOL    HW1 3644   0.924   3.202   0.875
  915SOL    HW2 3645   0.903   3.197   0.713
  916SOL     OW 3646   1.201   2.275   2.784
  916SOL    HW1 3647   1.239   2.258   2.875
  916SOL    HW2 3648   1.118   2.221   2.772
  917SOL     OW 3649   4.737   0.794   1.526
  917SOL    HW1 3650   4.702   0.806   1.433
  917SOL    HW2 3651   4.806   0.863   1.545
  918SOL     OW 3652   2.728   5.883   6.951
  918SOL    HW1 3653   2.799   5.888   6.881
  918SOL    HW2 3654   2.639   5.869   6.907
  919SOL     OW 3655   0.244   5.620   2.490
  919SOL    HW1 3656   0.279   5.543   2.436
  919SOL    HW2 3657   0.297   5.629   2.574
  920SOL     OW 3658   1.700   0.024   2.792
  920SOL    HW1 3659   1.771   6.977   2.780
  920SOL    HW2 3660   1.714   0.071   2.879
  921SOL     OW 3661   5.368   4.488   4.335
  921SOL    HW1 3662   5.336   4.583   4.342
  921SOL    HW2 3663   5.468   4.486   4.342
  922SOL     OW 3664   3.306   2.798   6.679
  922SOL    HW1 3665   3.268   2.755   6.596
  922SOL    HW2 3666   3.405   2.787   6.679
  923SOL     OW 3667   2.831   5.262   0.551
  923SOL    HW1 3668   2.828   5.171   0.508
  923SOL    HW2 3669   2.926   5.294   0.553
  924SOL     OW 3670   6.172   3.400   2.461
  924SOL    HW1 3671   6.143   3.347   2.381
  924SOL    HW2 3672   6.120   3.370   2.541
  925SOL     OW 3673   6.380   2.188   5.433
  925SOL    HW1 3674   6.395   2.130   5.513
  925SOL    HW2 3675   6.365   2.130   5.353
  926SOL     OW 3676   5.864   1.236   0.115
  926SOL    HW1 3677   5.834   1.164   0.177
  926SOL    HW2 3678   5.963   1.231   0.102
  927SOL     OW 3679   5.270   4.288   4.201
  927SOL    HW1 3680   5.304   4.364   4.256
  927SOL    HW2 3681   5.183   4.313   4.159
  928SOL     OW 3682   2.170   0.625   0.703
  928SOL    HW1 3683   2.111   0.619   0.622
  928SOL    HW2 3684   2.183   0.721   0.728
  929SOL     OW 3685   0.085   1.564   1.045
  929SOL    HW1 3686   0.163   1.586   1.103
  929SOL    HW2 3687   0.116   1.551   0.951
  930SOL     OW 3688   6.073   5.927   4.795
  930SOL    HW1 3689   6.089   5.997   4.725
  930SOL    HW2 3690   6.118   5.842   4.767
  931SOL     OW 3691   6.815   3.492   3.931
  931SOL    HW1 3692   6.733   3.550   3.929
  931SOL    HW2 3693   6.896   3.548   3.916
  932SOL     OW 3694   2.342   6.556   1.620
  932SOL    HW1 3695   2.405   6.545   1.696
  932SOL    HW2 3696   2.262   6.498   1.635
  933SOL     OW 3697   0.410   5.049   2.442
  933SOL    HW1 3698   0.461   5.128   2.407
  933SOL    HW2 3699   0.312   5.066   2.432
  934SOL     OW 3700   2.094   0.481   4.270
  934SOL    HW1 3701   2.091   0.384   4.292
  934SOL    HW2 3702   2.169   0.499   4.206
  935SOL     OW 3703   4.985   4.304   5.269
  935SOL    HW1 3704   4.980   4.393   5.314
  935SOL    HW2 3705   4.976   4.231   5.338
  936SOL     OW 3706   1.232   0.421   5.903
  936SOL    HW1 3707   1.203   0.430   5.807
  936SOL    HW2 3708   1.159   0.453   5.963
  937SOL     OW 3709   4.913   1.958   5.591
  937SOL    HW1 3710   4.821   1.990   5.611
  937SOL    HW2 3711   4.909   1.879   5.530
  938SOL     OW 3712   0.414   5.441   6.206
  938SOL    HW1 3713   0.386   5.522   6.258
  938SOL    HW2 3714   0.391   5.359   6.257
  939SOL     OW 3715   4.918   1.380   5.228
  939SOL    HW1 3716   4.884   1.445   5.159
  939SOL    HW2 3717   4.846   1.358   5.293
  940SOL     OW 3718   0.063   3.198   2.872
  940SOL    HW1 3719   0.026   3.257   2.801
  940SOL    HW2 3720   0.013   3.112   2.875
  941SOL     OW 3721   6.350   0.724   3.857
  941SOL    HW1 3722   6.311   0.713   3.949
  941SOL    HW2 3723   6.278   0.714   3.789
  942SOL     OW 3724   4.966   0.848   4.144
  942SOL    HW1 3725   4.972   0.777   4.073
  942SOL    HW2 3726   5.057   0.867   4.180
  943SOL     OW 3727   1.031   2.966   3.611
  943SOL    HW1 3728   1.127   2.977   3.635
  943SOL    HW2 3729   1.011   3.018   3.528
  944SOL     OW 3730   6.080   3.382   6.084
  944SOL    HW1 3731   6.067   3.478   6.059
  944SOL    HW2 3732   6.177   3.364   6.099
  945SOL     OW 3733   6.592   4.279   5.892
  945SOL    HW1 3734   6.607   4.211   5.964
  945SOL    HW2 3735   6.522   4.246   5.829
  946SOL     OW 3736   4.757   2.828   6.026
  946SOL    HW1 3737   4.827   2.846   5.957
  946SOL    HW2 3738   4.789   2.757   6.088
  947SOL     OW 3739   2.960   3.269   4.470
  947SOL    HW1 3740   2.907   3.293   4.552
  947SOL    HW2 3741   2.960   3.347   4.407
  948SOL     OW 3742   4.666   0.973   1.086
  948SOL    HW1 3743   4.746   0.970   1.027
  948SOL    HW2 3744   4.629   0.881   1.097
  949SOL     OW 3745   0.091   6.467   6.534
  949SOL    HW1 3746   0.118   6.534   6.603
  949SOL    HW2 3747   0.026   6.508   6.472
  950SOL     OW 3748   4.411   5.141   2.335
  950SOL    HW1 3749   4.349   5.071   2.299
  950SOL    HW2 3750   4.494   5.096   2.369
  951SOL     OW 3751   2.077   0.503   2.023
  951SOL    HW1 3752   1.996   0.445   2.036
  951SOL    HW2 3753   2.151   0.448   1.985
  952SOL     OW 3754   5.377   1.469   2.010
  952SOL    HW1 3755   5.293   1.431   1.970
  952SOL    HW2 3756   5.353   1.525   2.089
  953SOL     OW 3757   5.338   5.594   5.591
  953SOL    HW1 3758   5.332   5.692   5.572
  953SOL    HW2 3759   5.255   5.564   5.637
  954SOL     OW 3760   5.290   6.347   0.677
  954SOL    HW1 3761   5.341   6.431   0.657
  954SOL    HW2 3762   5.202   6.349   0.629
  955SOL     OW 3763   0.217   4.616   3.012
  955SOL    HW1 3764   0.242   4.551   2.940
  955SOL    HW2 3765   0.278   4.604   3.090
  956SOL     OW 3766   1.221   1.761   2.390
  956SOL    HW1 3767   1.127   1.727   2.387
  956SOL    HW2 3768   1.257   1.754   2.483
  957SOL     OW 3769   1.497   5.154   4.203
  957SOL    HW1 3770   1.596   5.142   4.215
  957SOL    HW2 3771   1.449   5.072   4.234
  958SOL     OW 3772   4.845   2.139   1.742
  958SOL    HW1 3773   4.805   2.078   1.673
  958SOL    HW2 3774   4.926   2.183   1.703
  959SOL     OW 3775   2.643   5.207   3.111
  959SOL    HW1 3776   2.613   5.302   3.105
  959SOL    HW2 3777   2.645   5.178   3.206
  960SOL     OW 3778   0.066   6.312   3.647
  960SOL    HW1 3779   6.993   6.294   3.670
  960SOL    HW2 3780   0.124   6.283   3.723
  961SOL     OW 3781   4.840   6.778   2.993
  961SOL    HW1 3782   4.755   6.830   2.999
  961SOL    HW2 3783   4.916   6.837   3.022
  962SOL     OW 3784   1.400   1.508   4.189
  962SOL    HW1 3785   1.363   1.554   4.269
  962SOL    HW2 3786   1.412   1.411   4.209
  963SOL     OW 3787   6.160   1.263   6.126
  963SOL    HW1 3788   6.092   1.190   6.124
  963SOL    HW2 3789   6.115   1.352   6.117
  964SOL     OW 3790   6.360   3.362   0.354
  964SOL    HW1 3791   6.418   3.411   0.418
  964SOL    HW2 3792   6.339   3.420   0.276
  965SOL     OW 3793   5.650   1.649   0.941
  965SOL    HW1 3794   5.657   1.694   0.851
  965SOL    HW2 3795   5.718   1.689   1.003
  966SOL     OW 3796   5.949   1.466   2.472
  966SOL    HW1 3797   5.860   1.473   2.516
  966SOL    HW2 3798   6.016   1.519   2.523
  967SOL     OW 3799   1.943   5.121   0.901
  967SOL    HW1 3800   2.016   5.112   0.969
  967SOL    HW2 3801   1.905   5.213   0.905
  968SOL     OW 3802   4.683   2.530   2.284
  968SOL    HW1 3803   4.691   2.598   2.211
  968SOL    HW2 3804   4.671   2.577   2.372
  969SOL     OW 3805   4.521   5.619   6.614
  969SOL    HW1 3806   4.529   5.663   6.525
  969SOL    HW2 3807   4.560   5.679   6.685
  970SOL     OW 3808   4.759   0.970   5.082
  970SOL    HW1 3809   4.759   0.953   4.984
  970SOL    HW2 3810   4.726   1.063   5.100
  971SOL     OW 3811   0.223   1.718   3.322
  971SOL    HW1 3812   0.274   1.741   3.405
  971SOL    HW2 3813   0.269   1.760   3.243
  972SOL     OW 3814   5.437   3.588   0.889
  972SOL    HW1 3815   5.474   3.598   0.797
  972SOL    HW2 3816   5.498   3.633   0.955
  973SOL     OW 3817   0.026   4.128   6.889
  973SOL    HW1 3818   6.980   4.058   6.907
  973SOL    HW2 3819   0.072   4.107   6.802
  974SOL     OW 3820   4.399   0.746   2.280
  974SOL    HW1 3821   4.303   0.765   2.302
  974SOL    HW2 3822   4.456   0.771   2.358
  975SOL     OW 3823   1.911   5.585   6.414
  975SOL    HW1 3824   1.950   5.494   6.429
  975SOL    HW2 3825   1.867   5.587   6.324
  976SOL     OW 3826   6.109   3.290   2.687
  976SOL    HW1 3827   6.077   3.339   2.768
  976SOL    HW2 3828   6.188   3.233   2.711
  977SOL     OW 3829   2.577   1.348   3.646
  977SOL    HW1 3830   2.540   1.336   3.739
  977SOL    HW2 3831   2.503   1.371   3.584
  978SOL     OW 3832   4.807   4.351   5.582
  978SOL    HW1 3833   4.883   4.287   5.571
  978SOL    HW2 3834   4.803   4.382   5.676
  979SOL     OW 3835   0.019   1.794   1.886
  979SOL    HW1 3836   6.956   1.749   1.859
  979SOL    HW2 3837   0.096   1.749   1.841
  980SOL     OW 3838   4.514   1.834   3.808
  980SOL    HW1 3839   4.575   1.887   3.867
  980SOL    HW2 3840   4.419   1.862   3.824
  981SOL     OW 3841   1.569   1.374   4.885
  981SOL    HW1 3842   1.501   1.328   4.941
  981SOL    HW2 3843   1.659   1.367   4.929
  982SOL     OW 3844   2.122   2.040   3.728
  982SOL    HW1 3845   2.188   2.115   3.735
  982SOL    HW2 3846   2.146   1.981   3.651
  983SOL     OW 3847   5.887   2.294   3.217
  983SOL    HW1 3848   5.916   2.380   3.175
  983SOL    HW2 3849   5.787   2.293   3.225
  984SOL     OW 3850   3.495   0.939   3.883
  984SOL    HW1 3851   3.404   0.903   3.905
  984SOL    HW2 3852   3.544   0.873   3.826
  985SOL     OW 3853   5.074   4.597   6.704
  985SOL    HW1 3854   5.034   4.609   6.613
  985SOL    HW2 3855   5.158   4.651   6.711
  986SOL     OW 3856   5.281   4.756   0.140
  986SOL    HW1 3857   5.201   4.814   0.145
  986SOL    HW2 3858   5.252   4.660   0.133
  987SOL     OW 3859   4.353   6.553   1.542
  987SOL    HW1 3860   4.256   6.558   1.519
  987SOL    HW2 3861   4.407   6.570   1.460
  988SOL     OW 3862   3.412   3.432   1.275
  988SOL    HW1 3863   3.395   3.339   1.306
  988SOL    HW2 3864   3.374   3.444   1.183
  989SOL     OW 3865   6.648   1.120   5.232
  989SOL    HW1 3866   6.711   1.058   5.185
  989SOL    HW2 3867   6.676   1.215   5.215
  990SOL     OW 3868   4.183   0.840   2.418
  990SOL    HW1 3869   4.122   0.765   2.444
  990SOL    HW2 3870   4.225   0.879   2.500
  991SOL     OW 3871   2.130   2.848   5.513
  991SOL    HW1 3872   2.221   2.888   5.501
  991SOL    HW2 3873   2.139   2.764   5.567
  992SOL     OW 3874   0.815   3.619   1.041
  992SOL    HW1 3875   0.716   3.618   1.055
  992SOL    HW2 3876   0.835   3.619   0.943
  993SOL     OW 3877   1.080   5.021   2.688
  993SOL    HW1 3878   1.019   4.943   2.699
  993SOL    HW2 3879   1.039   5.087   2.625
  994SOL     OW 3880   3.467   3.433   2.678
  994SOL    HW1 3881   3.561   3.415   2.649
  994SOL    HW2 3882   3.408   3.441   2.598
  995SOL     OW 3883   2.843   2.294   6.186
  995SOL    HW1 3884   2.851   2.302   6.285
  995SOL    HW2 3885   2.934   2.286   6.145
  996SOL     OW 3886   1.675   4.625   4.403
  996SOL    HW1 3887   1.691   4.533   4.367
  996SOL    HW2 3888   1.644   4.684   4.329
  997SOL     OW 3889   6.748   0.406   1.907
  997SOL    HW1 3890   6.821   0.450   1.855
  997SOL    HW2 3891   6.752   0.434   2.003
  998SOL     OW 3892   4.995   6.346   3.729
  998SOL    HW1 3893   5.068   6.308   3.673
  998SOL    HW2 3894   4.968   6.279   3.799
  999SOL     OW 3895   5.683   4.961   1.711
  999SOL    HW1 3896   5.592   4.926   1.734
  999SOL    HW2 3897   5.728   4.992   1.794
 1000SOL     OW 3898   1.579   0.997   2.451
 1000SOL    HW1 3899   1.633   0.989   2.367
 1000SOL    HW2 3900   1.513   1.072   2.442
 1001SOL     OW 3901   6.137   6.603   0.320
 1001SOL    HW1 3902   6.109   6.507   0.319
 1001SOL    HW2 3903   6.087   6.653   0.250
 1002SOL     OW 3904   6.227   2.216   6.898
 1002SOL    HW1 3905   6.128   2.205   6.909
 1002SOL    HW2 3906   6.249   2.312   6.886
 1003SOL     OW 3907   2.123   6.385   1.551
 1003SOL    HW1 3908   2.049   6.448   1.573
 1003SOL    HW2 3909   2.097   6.328   1.474
 1004SOL     OW 3910   0.331   0.603   1.211
 1004SOL    HW1 3911   0.313   0.626   1.115
 1004SOL    HW2 3912   0.278   0.662   1.271
 1005SOL     OW 3913   0.420   1.364   2.912
 1005SOL    HW1 3914   0.505   1.411   2.887
 1005SOL    HW2 3915   0.433   1.265   2.905
 1006SOL     OW 3916   1.214   5.743   1.461
 1006SOL    HW1 3917   1.312   5.730   1.472
 1006SOL    HW2 3918   1.194   5.766   1.365
 1007SOL     OW 3919   5.655   6.895   4.171
 1007SOL    HW1 3920   5.584   6.874   4.103
 1007SOL    HW2 3921   5.645   6.990   4.201
 1008SOL     OW 3922   2.201   3.222   5.053
 1008SOL    HW1 3923   2.280   3.161   5.048
 1008SOL    HW2 3924   2.117   3.168   5.049
 1009SOL     OW 3925   0.391   6.533   4.474
 1009SOL    HW1 3926   0.384   6.615   4.417
 1009SOL    HW2 3927   0.488   6.515   4.494
 1010SOL     OW 3928   3.327   2.243   6.318
 1010SOL    HW1 3929   3.425   2.259   6.307
 1010SOL    HW2 3930   3.286   2.319   6.370
 1011SOL     OW 3931   2.633   5.131   2.367
 1011SOL    HW1 3932   2.661   5.224   2.391
 1011SOL    HW2 3933   2.563   5.135   2.296
 1012SOL     OW 3934   0.030   6.629   0.257
 1012SOL    HW1 3935   0.130   6.636   0.255
 1012SOL    HW2 3936   7.020   6.646   0.350
 1013SOL     OW 3937   0.341   1.485   6.238
 1013SOL    HW1 3938   0.321   1.547   6.163
 1013SOL    HW2 3939   0.264   1.483   6.302
 1014SOL     OW 3940   5.168   5.307   6.969
 1014SOL    HW1 3941   5.094   5.240   6.978
 1014SOL    HW2 3942   5.193   5.316   6.873
 1015SOL     OW 3943   2.441   6.777   5.617
 1015SOL    HW1 3944   2.341   6.777   5.616
 1015SOL    HW2 3945   2.474   6.798   5.709
 1016SOL     OW 3946   2.828   3.447   0.305
 1016SOL    HW1 3947   2.764   3.507   0.257
 1016SOL    HW2 3948   2.777   3.382   0.361
 1017SOL     OW 3949   4.701   2.430   0.871
 1017SOL    HW1 3950   4.635   2.471   0.809
 1017SOL    HW2 3951   4.794   2.450   0.839
 1018SOL     OW 3952   1.435   3.427   4.024
 1018SOL    HW1 3953   1.533   3.447   4.035
 1018SOL    HW2 3954   1.381   3.506   4.052
 1019SOL     OW 3955   1.222   0.336   0.066
 1019SOL    HW1 3956   1.151   0.383   0.014
 1019SOL    HW2 3957   1.301   0.397   0.076
 1020SOL     OW 3958   1.139   6.535   1.493
 1020SOL    HW1 3959   1.133   6.622   1.543
 1020SOL    HW2 3960   1.235   6.505   1.490
 1021SOL     OW 3961   5.722   0.929   1.484
 1021SOL    HW1 3962   5.665   1.010   1.477
 1021SOL    HW2 3963   5.812   0.947   1.444
 1022SOL     OW 3964   4.350   4.634   6.281
 1022SOL    HW1 3965   4.259   4.592   6.283
 1022SOL    HW2 3966   4.362   4.691   6.361
 1023SOL     OW 3967   6.888   0.211   1.699
 1023SOL    HW1 3968   6.896   0.311   1.702
 1023SOL    HW2 3969   6.802   0.186   1.656
 1024SOL     OW 3970   5.673   3.474   4.240
 1024SOL    HW1 3971   5.690   3.450   4.336
 1024SOL    HW2 3972   5.582   3.442   4.213
 1025SOL     OW 3973   3.194   3.958   0.525
 1025SOL    HW1 3974   3.148   3.918   0.446
 1025SOL    HW2 3975   3.218   3.886   0.590
 1026SOL     OW 3976   1.988   2.082   1.839
 1026SOL    HW1 3977   2.087   2.085   1.855
 1026SOL    HW2 3978   1.968   2.111   1.746
 1027SOL     OW 3979   2.694   5.732   1.170
 1027SOL    HW1 3980   2.753   5.673   1.115
 1027SOL    HW2 3981   2.749   5.800   1.218
 1028SOL     OW 3982   4.179   5.986   0.398
 1028SOL    HW1 3983   4.176   6.015   0.302
 1028SOL    HW2 3984   4.182   5.886   0.402
 1029SOL     OW 3985   1.691   0.649   0.131
 1029SOL    HW1 3986   1.704   0.558   0.170
 1029SOL    HW2 3987   1.648   0.708   0.199
 1030SOL     OW 3988   3.647   3.784   1.649
 1030SOL    HW1 3989   3.647   3.805   1.551
 1030SOL    HW2 3990   3.650   3.685   1.662
 1031SOL     OW 3991   5.588   5.688   0.757
 1031SOL    HW1 3992   5.680   5.722   0.773
 1031SOL    HW2 3993   5.539   5.681   0.844
 1032SOL     OW 3994   1.915   1.530   4.349
 1032SOL    HW1 3995   1.990   1.468   4.370
 1032SOL    HW2 3996   1.902   1.594   4.424
 1033SOL     OW 3997   1.658   6.304   1.087
 1033SOL    HW1 3998   1.691   6.392   1.123
 1033SOL    HW2 3999   1.599   6.321   1.008
 1034SOL     OW 4000   1.134   6.023   5.561
 1034SOL    HW1 4001   1.150   5.983   5.470
 1034SOL    HW2 4002   1.180   6.112   5.566
 1035SOL     OW 4003   2.317   1.164   3.573
 1035SOL    HW1 4004   2.371   1.118   3.502
 1035SOL    HW2 4005   2.297   1.100   3.647
 1036SOL     OW 4006   3.056   0.761   1.614
 1036SOL    HW1 4007   3.143   0.796   1.649
 1036SOL    HW2 4008   3.067   0.733   1.519
 1037SOL     OW 4009   2.161   0.340   1.193
 1037SOL    HW1 4010   2.223   0.338   1.271
 1037SOL    HW2 4011   2.197   0.281   1.120
 1038SOL     OW 4012   1.176   1.098   5.699
 1038SOL    HW1 4013   1.084   1.062   5.688
 1038SOL    HW2 4014   1.241   1.039   5.650
 1039SOL     OW 4015   3.269   3.007   5.872
 1039SOL    HW1 4016   3.235   3.058   5.951
 1039SOL    HW2 4017   3.206   3.019   5.795
 1040SOL     OW 4018   5.058   2.924   2.683
 1040SOL    HW1 4019   4.961   2.920   2.658
 1040SOL    HW2 4020   5.108   2.975   2.613
 1041SOL     OW 4021   6.580   6.833   4.243
 1041SOL    HW1 4022   6.560   6.863   4.150
 1041SOL    HW2 4023   6.572   6.733   4.249
 1042SOL     OW 4024   3.569   4.909   2.193
 1042SOL    HW1 4025   3.574   4.847   2.115
 1042SOL    HW2 4026   3.476   4.909   2.230
 1043SOL     OW 4027   4.593   1.475   4.997
 1043SOL    HW1 4028   4.692   1.481   4.982
 1043SOL    HW2 4029   4.545   1.530   4.929
 1044SOL     OW 4030   4.777   4.216   1.924
 1044SOL    HW1 4031   4.770   4.149   1.851
 1044SOL    HW2 4032   4.686   4.238   1.959
 1045SOL     OW 4033   2.702   6.361   2.879
 1045SOL    HW1 4034   2.703   6.271   2.924
 1045SOL    HW2 4035   2.711   6.433   2.947
 1046SOL     OW 4036   1.976   6.570   0.158
 1046SOL    HW1 4037   1.938   6.586   0.250
 1046SOL    HW2 4038   1.925   6.624   0.091
 1047SOL     OW 4039   0.710   6.029   2.449
 1047SOL    HW1 4040   0.777   6.026   2.523
 1047SOL    HW2 4041   0.753   5.995   2.365
 1048SOL     OW 4042   4.940   5.789   5.694
 1048SOL    HW1 4043   4.976   5.871   5.739
 1048SOL    HW2 4044   4.885   5.815   5.616
 1049SOL     OW 4045   6.708   5.129   4.746
 1049SOL    HW1 4046   6.755   5.079   4.673
 1049SOL    HW2 4047   6.621   5.084   4.767
 1050SOL     OW 4048   3.049   5.220   0.834
 1050SOL    HW1 4049   3.114   5.183   0.768
 1050SOL    HW2 4050   3.022   5.312   0.805
 1051SOL     OW 4051   2.752   4.687   0.480
 1051SOL    HW1 4052   2.815   4.698   0.557
 1051SOL    HW2 4053   2.749   4.591   0.452
 1052SOL     OW 4054   4.370   0.077   4.432
 1052SOL    HW1 4055   4.469   0.071   4.415
 1052SOL    HW2 4056   4.337   7.011   4.466
 1053SOL     OW 4057   5.128   5.676   3.391
 1053SOL    HW1 4058   5.085   5.663   3.302
 1053SOL    HW2 4059   5.180   5.761   3.390
 1054SOL     OW 4060   3.275   4.620   6.202
 1054SOL    HW1 4061   3.191   4.634   6.148
 1054SOL    HW2 4062   3.254   4.566   6.283
 1055SOL     OW 4063   6.144   6.751   4.568
 1055SOL    HW1 4064   6.196   6.799   4.497
 1055SOL    HW2 4065   6.057   6.797   4.582
 1056SOL     OW 4066   1.482   5.739   5.533
 1056SOL    HW1 4067   1.418   5.678   5.579
 1056SOL    HW2 4068   1.559   5.758   5.594
 1057SOL     OW 4069   3.678   3.610   2.823
 1057SOL    HW1 4070   3.596   3.555   2.811
 1057SOL    HW2 4071   3.697   3.621   2.921
 1058SOL     OW 4072   5.134   1.328   1.941
 1058SOL    HW1 4073   5.122   1.251   2.004
 1058SOL    HW2 4074   5.114   1.298   1.848
 1059SOL     OW 4075   2.424   0.522   0.556
 1059SOL    HW1 4076   2.471   0.452   0.502
 1059SOL    HW2 4077   2.345   0.480   0.601
 1060SOL     OW 4078   0.322   3.808   4.535
 1060SOL    HW1 4079   0.308   3.832   4.438
 1060SOL    HW2 4080   0.401   3.748   4.544
 1061SOL     OW 4081   4.925   3.541   1.439
 1061SOL    HW1 4082   4.858   3.467   1.444
 1061SOL    HW2 4083   4.998   3.525   1.505
 1062SOL     OW 4084   6.589   5.022   5.266
 1062SOL    HW1 4085   6.576   4.983   5.357
 1062SOL    HW2 4086   6.665   4.976   5.221
 1063SOL     OW 4087   1.235   4.299   1.789
 1063SOL    HW1 4088   1.324   4.258   1.809
 1063SOL    HW2 4089   1.240   4.348   1.702
 1064SOL     OW 4090   1.487   4.145   1.820
 1064SOL    HW1 4091   1.578   4.107   1.833
 1064SOL    HW2 4092   1.420   4.071   1.819
 1065SOL     OW 4093   4.168   0.489   4.286
 1065SOL    HW1 4094   4.106   0.548   4.338
 1065SOL    HW2 4095   4.261   0.497   4.322
 1066SOL     OW 4096   5.227   0.443   4.296
 1066SOL    HW1 4097   5.235   0.358   4.244
 1066SOL    HW2 4098   5.146   0.440   4.354
 1067SOL     OW 4099   1.358   2.983   6.972
 1067SOL    HW1 4100   1.272   2.932   6.963
 1067SOL    HW2 4101   1.346   3.075   6.935
 1068SOL     OW 4102   5.207   4.521   2.061
 1068SOL    HW1 4103   5.231   4.436   2.107
 1068SOL    HW2 4104   5.193   4.593   2.128
 1069SOL     OW 4105   4.843   4.705   1.360
 1069SOL    HW1 4106   4.822   4.767   1.285
 1069SOL    HW2 4107   4.932   4.728   1.398
 1070SOL     OW 4108   1.474   0.682   1.339
 1070SOL    HW1 4109   1.570   0.701   1.320
 1070SOL    HW2 4110   1.417   0.725   1.269
 1071SOL     OW 4111   3.803   6.822   3.414
 1071SOL    HW1 4112   3.846   6.856   3.498
 1071SOL    HW2 4113   3.844   6.867   3.335
 1072SOL     OW 4114   1.942   6.108   1.035
 1072SOL    HW1 4115   1.935   6.169   0.956
 1072SOL    HW2 4116   1.927   6.160   1.118
 1073SOL     OW 4117   3.479   6.390   2.892
 1073SOL    HW1 4118   3.504   6.486   2.897
 1073SOL    HW2 4119   3.444   6.370   2.801
 1074SOL     OW 4120   2.261   5.324   0.874
 1074SOL    HW1 4121   2.349   5.356   0.908
 1074SOL    HW2 4122   2.238   5.374   0.790
 1075SOL     OW 4123   4.392   6.202   3.754
 1075SOL    HW1 4124   4.375   6.198   3.852
 1075SOL    HW2 4125   4.483   6.167   3.734
 1076SOL     OW 4126   0.689   4.714   5.138
 1076SOL    HW1 4127   0.763   4.706   5.206
 1076SOL    HW2 4128   0.609   4.663   5.170
 1077SOL     OW 4129   6.205   0.181   0.336
 1077SOL    HW1 4130   6.277   0.222   0.392
 1077SOL    HW2 4131   6.115   0.209   0.370
 1078SOL     OW 4132   2.099   0.909   2.486
 1078SOL    HW1 4133   2.183   0.866   2.453
 1078SOL    HW2 4134   2.098   0.908   2.586
 1079SOL     OW 4135   1.733   5.713   2.340
 1079SOL    HW1 4136   1.728   5.632   2.398
 1079SOL    HW2 4137   1.650   5.768   2.354
 1080SOL     OW 4138   2.222   4.324   3.541
 1080SOL    HW1 4139   2.216   4.292   3.636
 1080SOL    HW2 4140   2.159   4.271   3.485
 1081SOL     OW 4141   0.239   0.078   5.924
 1081SOL    HW1 4142   0.178   0.151   5.956
 1081SOL    HW2 4143   0.185   7.022   5.897
 1082SOL     OW 4144   2.715   0.883   5.316
 1082SOL    HW1 4145   2.704   0.889   5.415
 1082SOL    HW2 4146   2.812   0.889   5.292
 1083SOL     OW 4147   3.857   4.575   0.778
 1083SOL    HW1 4148   3.855   4.560   0.877
 1083SOL    HW2 4149   3.811   4.499   0.731
 1084SOL     OW 4150   6.438   6.197   1.053
 1084SOL    HW1 4151   6.403   6.278   1.100
 1084SOL    HW2 4152   6.536   6.188   1.072
 1085SOL     OW 4153   1.936   4.223   3.103
 1085SOL    HW1 4154   1.936   4.315   3.065
 1085SOL    HW2 4155   1.843   4.186   3.103
 1086SOL     OW 4156   6.618   5.751   2.794
 1086SOL    HW1 4157   6.674   5.687   2.741
 1086SOL    HW2 4158   6.549   5.792   2.734
 1087SOL     OW 4159   5.872   2.724   5.963
 1087SOL    HW1 4160   5.926   2.688   5.888
 1087SOL    HW2 4161   5.778   2.739   5.933
 1088SOL     OW 4162   5.830   4.702   3.451
 1088SOL    HW1 4163   5.799   4.758   3.528
 1088SOL    HW2 4164   5.777   4.617   3.449
 1089SOL     OW 4165   1.346   0.295   4.257
 1089SOL    HW1 4166   1.438   0.305   4.220
 1089SOL    HW2 4167   1.342   0.213   4.314
 1090SOL     OW 4168   2.267   1.688   3.620
 1090SOL    HW1 4169   2.327   1.672   3.699
 1090SOL    HW2 4170   2.249   1.786   3.612
 1091SOL     OW 4171   1.899   3.011   4.927
 1091SOL    HW1 4172   1.943   2.974   4.846
 1091SOL    HW2 4173   1.817   3.061   4.901
 1092SOL     OW 4174   2.786   3.302   0.817
 1092SOL    HW1 4175   2.735   3.286   0.901
 1092SOL    HW2 4176   2.763   3.232   0.750
 1093SOL     OW 4177   1.596   2.088   2.925
 1093SOL    HW1 4178   1.539   2.086   3.007
 1093SOL    HW2 4179   1.607   2.183   2.894
 1094SOL     OW 4180   1.257   6.615   2.906
 1094SOL    HW1 4181   1.316   6.537   2.925
 1094SOL    HW2 4182   1.173   6.583   2.862
 1095SOL     OW 4183   6.796   2.263   5.647
 1095SOL    HW1 4184   6.743   2.286   5.565
 1095SOL    HW2 4185   6.784   2.165   5.667
 1096SOL     OW 4186   3.729   4.408   1.665
 1096SOL    HW1 4187   3.722   4.492   1.720
 1096SOL    HW2 4188   3.658   4.409   1.594
 1097SOL     OW 4189   1.292   4.283   3.836
 1097SOL    HW1 4190   1.286   4.184   3.843
 1097SOL    HW2 4191   1.200   4.323   3.836
 1098SOL     OW 4192   5.297   3.030   0.514
 1098SOL    HW1 4193   5.208   3.005   0.475
 1098SOL    HW2 4194   5.367   3.026   0.442
 1099SOL     OW 4195   3.623   1.161   4.687
 1099SOL    HW1 4196   3.699   1.107   4.652
 1099SOL    HW2 4197   3.550   1.100   4.720
 1100SOL     OW 4198   2.727   2.227   6.670
 1100SOL    HW1 4199   2.804   2.240   6.608
 1100SOL    HW2 4200   2.671   2.310   6.671
 1101SOL     OW 4201   5.538   2.748   0.944
 1101SOL    HW1 4202   5.564   2.845   0.947
 1101SOL    HW2 4203   5.499   2.721   1.032
 1102SOL     OW 4204   1.012   5.365   3.162
 1102SOL    HW1 4205   1.088   5.422   3.192
 1102SOL    HW2 4206   1.032   5.269   3.181
 1103SOL     OW 4207   2.986   1.378   1.163
 1103SOL    HW1 4208   2.922   1.452   1.183
 1103SOL    HW2 4209   2.958   1.330   1.080
 1104SOL     OW 4210   2.054   3.854   6.162
 1104SOL    HW1 4211   2.073   3.841   6.259
 1104SOL    HW2 4212   1.957   3.873   6.149
 1105SOL     OW 4213   5.253   3.546   5.060
 1105SOL    HW1 4214   5.255   3.628   5.002
 1105SOL    HW2 4215   5.182   3.484   5.027
 1106SOL     OW 4216   0.814   1.723   0.745
 1106SOL    HW1 4217   0.740   1.657   0.756
 1106SOL    HW2 4218   0.819   1.751   0.649
 1107SOL     OW 4219   0.989   0.570   6.507
 1107SOL    HW1 4220   1.016   0.475   6.497
 1107SOL    HW2 4221   0.890   0.579   6.493
 1108SOL     OW 4222   2.608   0.450   5.985
 1108SOL    HW1 4223   2.524   0.404   6.014
 1108SOL    HW2 4224   2.610   0.456   5.885
 1109SOL     OW 4225   4.335   5.909   4.769
 1109SOL    HW1 4226   4.381   5.822   4.749
 1109SOL    HW2 4227   4.243   5.908   4.731
 1110SOL     OW 4228   2.603   1.475   2.520
 1110SOL    HW1 4229   2.542   1.397   2.533
 1110SOL    HW2 4230   2.672   1.475   2.592
 1111SOL     OW 4231   5.622   5.613   0.174
 1111SOL    HW1 4232   5.539   5.632   0.122
 1111SOL    HW2 4233   5.702   5.634   0.118
 1112SOL     OW 4234   6.454   1.085   2.692
 1112SOL    HW1 4235   6.390   1.089   2.769
 1112SOL    HW2 4236   6.540   1.043   2.723
 1113SOL     OW 4237   6.379   3.476   2.642
 1113SOL    HW1 4238   6.327   3.454   2.559
 1113SOL    HW2 4239   6.336   3.552   2.690
 1114SOL     OW 4240   4.262   1.228   6.306
 1114SOL    HW1 4241   4.323   1.175   6.365
 1114SOL    HW2 4242   4.200   1.282   6.363
 1115SOL     OW 4243   3.958   3.123   0.283
 1115SOL    HW1 4244   4.056   3.127   0.300
 1115SOL    HW2 4245   3.925   3.031   0.304
 1116SOL     OW 4246   5.811   5.346   4.634
 1116SOL    HW1 4247   5.759   5.374   4.553
 1116SOL    HW2 4248   5.767   5.266   4.675
 1117SOL     OW 4249   1.819   2.741   1.611
 1117SOL    HW1 4250   1.784   2.647   1.608
 1117SOL    HW2 4251   1.868   2.761   1.527
 1118SOL     OW 4252   1.628   4.729   1.575
 1118SOL    HW1 4253   1.706   4.712   1.513
 1118SOL    HW2 4254   1.544   4.732   1.521
 1119SOL     OW 4255   4.192   4.215   1.583
 1119SOL    HW1 4256   4.189   4.224   1.483
 1119SOL    HW2 4257   4.214   4.303   1.624
 1120SOL     OW 4258   5.156   6.331   5.061
 1120SOL    HW1 4259   5.095   6.408   5.083
 1120SOL    HW2 4260   5.148   6.310   4.964
 1121SOL     OW 4261   5.297   4.181   2.464
 1121SOL    HW1 4262   5.240   4.155   2.542
 1121SOL    HW2 4263   5.390   4.201   2.495
 1122SOL     OW 4264   4.960   3.391   5.694
 1122SOL    HW1 4265   4.913   3.463   5.746
 1122SOL    HW2 4266   4.973   3.421   5.600
 1123SOL     OW 4267   5.576   1.871   2.299
 1123SOL    HW1 4268   5.523   1.817   2.234
 1123SOL    HW2 4269   5.596   1.960   2.260
 1124SOL     OW 4270   6.235   4.341   5.368
 1124SOL    HW1 4271   6.197   4.262   5.416
 1124SOL    HW2 4272   6.195   4.425   5.405
 1125SOL     OW 4273   2.161   1.951   4.527
 1125SOL    HW1 4274   2.069   1.944   4.490
 1125SOL    HW2 4275   2.219   1.879   4.487
 1126SOL     OW 4276   5.937   6.715   0.976
 1126SOL    HW1 4277   5.897   6.794   1.023
 1126SOL    HW2 4278   5.936   6.636   1.037
 1127SOL     OW 4279   5.209   5.388   4.763
 1127SOL    HW1 4280   5.124   5.356   4.805
 1127SOL    HW2 4281   5.267   5.431   4.832
 1128SOL     OW 4282   4.711   2.293   5.950
 1128SOL    HW1 4283   4.641   2.331   6.010
 1128SOL    HW2 4284   4.768   2.368   5.914
 1129SOL     OW 4285   4.057   0.257   0.154
 1129SOL    HW1 4286   3.962   0.253   0.122
 1129SOL    HW2 4287   4.068   0.194   0.232
 1130SOL     OW 4288   1.724   3.904   1.056
 1130SOL    HW1 4289   1.732   4.004   1.062
 1130SOL    HW2 4290   1.692   3.868   1.144
 1131SOL     OW 4291   0.656   6.144   5.770
 1131SOL    HW1 4292   0.677   6.048   5.753
 1131SOL    HW2 4293   0.564   6.164   5.736
 1132SOL     OW 4294   4.970   0.218   6.768
 1132SOL    HW1 4295   5.059   0.256   6.794
 1132SOL    HW2 4296   4.940   0.153   6.838
 1133SOL     OW 4297   0.369   1.283   0.808
 1133SOL    HW1 4298   0.453   1.240   0.775
 1133SOL    HW2 4299   0.298   1.214   0.818
 1134SOL     OW 4300   5.083   2.135   0.557
 1134SOL    HW1 4301   5.115   2.226   0.532
 1134SOL    HW2 4302   5.129   2.105   0.641
 1135SOL     OW 4303   2.958   1.350   2.610
 1135SOL    HW1 4304   2.958   1.384   2.704
 1135SOL    HW2 4305   2.994   1.257   2.609
 1136SOL     OW 4306   3.575   5.185   5.332
 1136SOL    HW1 4307   3.633   5.121   5.281
 1136SOL    HW2 4308   3.620   5.209   5.418
 1137SOL     OW 4309   1.369   2.263   0.121
 1137SOL    HW1 4310   1.461   2.290   0.092
 1137SOL    HW2 4311   1.304   2.281   0.048
 1138SOL     OW 4312   0.899   1.108   6.624
 1138SOL    HW1 4313   0.857   1.190   6.663
 1138SOL    HW2 4314   0.990   1.131   6.589
 1139SOL     OW 4315   2.319   5.859   1.497
 1139SOL    HW1 4316   2.390   5.815   1.442
 1139SOL    HW2 4317   2.274   5.930   1.443
 1140SOL     OW 4318   3.392   1.178   2.304
 1140SOL    HW1 4319   3.360   1.273   2.296
 1140SOL    HW2 4320   3.313   1.117   2.316
 1141SOL     OW 4321   6.758   6.153   6.127
 1141SOL    HW1 4322   6.721   6.227   6.182
 1141SOL    HW2 4323   6.730   6.165   6.032
 1142SOL     OW 4324   3.757   0.553   4.447
 1142SOL    HW1 4325   3.783   0.456   4.452
 1142SOL    HW2 4326   3.807   0.598   4.373
 1143SOL     OW 4327   2.710   2.291   2.728
 1143SOL    HW1 4328   2.773   2.281   2.651
 1143SOL    HW2 4329   2.625   2.241   2.708
 1144SOL     OW 4330   6.808   4.904   5.148
 1144SOL    HW1 4331   6.847   4.828   5.199
 1144SOL    HW2 4332   6.759   4.869   5.068
 1145SOL     OW 4333   6.843   4.158   2.681
 1145SOL    HW1 4334   6.911   4.088   2.703
 1145SOL    HW2 4335   6.886   4.234   2.633
 1146SOL     OW 4336   5.075   0.784   1.281
 1146SOL    HW1 4337   5.102   0.788   1.184
 1146SOL    HW2 4338   5.042   0.692   1.303
 1147SOL     OW 4339   0.988   4.291   0.727
 1147SOL    HW1 4340   0.928   4.371   0.723
 1147SOL    HW2 4341   0.950   4.224   0.791
 1148SOL     OW 4342   3.727   6.908   0.158
 1148SOL    HW1 4343   3.671   6.838   0.114
 1148SOL    HW2 4344   3.768   6.871   0.242
 1149SOL     OW 4345   6.003   3.771   3.183
 1149SOL    HW1 4346   5.968   3.806   3.270
 1149SOL    HW2 4347   6.012   3.846   3.118
 1150SOL     OW 4348   1.169   4.208   0.982
 1150SOL    HW1 4349   1.210   4.192   0.892
 1150SOL    HW2 4350   1.151   4.121   1.027
 1151SOL     OW 4351   4.704   5.624   0.082
 1151SOL    HW1 4352   4.769   5.699   0.094
 1151SOL    HW2 4353   4.750   5.546   0.040
 1152SOL     OW 4354   0.730   5.882   5.714
 1152SOL    HW1 4355   0.661   5.828   5.762
 1152SOL    HW2 4356   0.809   5.896   5.774
 1153SOL     OW 4357   2.268   0.073   1.772
 1153SOL    HW1 4358   2.274   0.138   1.849
 1153SOL    HW2 4359   2.308   0.115   1.691
 1154SOL     OW 4360   0.896   3.967   1.948
 1154SOL    HW1 4361   0.923   3.974   2.045
 1154SOL    HW2 4362   0.797   3.972   1.941
 1155SOL     OW 4363   3.103   4.951   6.924
 1155SOL    HW1 4364   3.130   5.003   7.005
 1155SOL    HW2 4365   3.043   4.876   6.950
 1156SOL     OW 4366   1.784   0.747   4.451
 1156SOL    HW1 4367   1.699   0.715   4.491
 1156SOL    HW2 4368   1.766   0.825   4.391
 1157SOL     OW 4369   6.164   1.279   4.579
 1157SOL    HW1 4370   6.079   1.274   4.525
 1157SOL    HW2 4371   6.188   1.375   4.594
 1158SOL     OW 4372   0.165   5.054   5.893
 1158SOL    HW1 4373   0.258   5.085   5.909
 1158SOL    HW2 4374   0.164   4.986   5.820
 1159SOL     OW 4375   5.513   0.112   3.092
 1159SOL    HW1 4376   5.424   0.156   3.077
 1159SOL    HW2 4377   5.564   0.112   3.007
 1160SOL     OW 4378   4.146   3.977   1.712
 1160SOL    HW1 4379   4.065   4.008   1.762
 1160SOL    HW2 4380   4.194   4.056   1.674
 1161SOL     OW 4381   5.070   0.522   6.081
 1161SOL    HW1 4382   5.158   0.568   6.092
 1161SOL    HW2 4383   5.025   0.553   5.998
 1162SOL     OW 4384   4.003   2.616   0.482
 1162SOL    HW1 4385   3.989   2.613   0.581
 1162SOL    HW2 4386   4.001   2.523   0.445
 1163SOL     OW 4387   5.714   3.222   1.981
 1163SOL    HW1 4388   5.647   3.154   1.952
 1163SOL    HW2 4389   5.798   3.212   1.927
 1164SOL     OW 4390   5.165   2.626   4.110
 1164SOL    HW1 4391   5.158   2.539   4.061
 1164SOL    HW2 4392   5.082   2.680   4.095
 1165SOL     OW 4393   1.870   4.644   4.114
 1165SOL    HW1 4394   1.784   4.595   4.126
 1165SOL    HW2 4395   1.931   4.623   4.190
 1166SOL     OW 4396   3.695   0.869   0.174
 1166SOL    HW1 4397   3.746   0.860   0.259
 1166SOL    HW2 4398   3.661   0.780   0.145
 1167SOL     OW 4399   3.460   0.171   6.309
 1167SOL    HW1 4400   3.481   0.075   6.288
 1167SOL    HW2 4401   3.365   0.189   6.287
 1168SOL     OW 4402   7.019   0.426   2.333
 1168SOL    HW1 4403   6.968   0.398   2.252
 1168SOL    HW2 4404   0.018   0.524   2.327
 1169SOL     OW 4405   6.364   3.319   0.012
 1169SOL    HW1 4406   6.447   3.364   7.001
 1169SOL    HW2 4407   6.389   3.244   0.072
 1170SOL     OW 4408   4.735   0.804   2.195
 1170SOL    HW1 4409   4.689   0.892   2.184
 1170SOL    HW2 4410   4.732   0.754   2.109
 1171SOL     OW 4411   2.377   6.478   6.835
 1171SOL    HW1 4412   2.336   6.389   6.853
 1171SOL    HW2 4413   2.304   6.543   6.812
 1172SOL     OW 4414   3.592   4.068   2.725
 1172SOL    HW1 4415   3.588   3.977   2.683
 1172SOL    HW2 4416   3.637   4.061   2.815
 1173SOL     OW 4417   3.319   7.005   5.926
 1173SOL    HW1 4418   3.330   6.951   6.010
 1173SOL    HW2 4419   3.385   6.974   5.858
 1174SOL     OW 4420   2.928   4.436   0.636
 1174SOL    HW1 4421   2.938   4.344   0.596
 1174SOL    HW2 4422   2.838   4.445   0.677
 1175SOL     OW 4423   5.058   3.415   6.510
 1175SOL    HW1 4424   5.098   3.426   6.602
 1175SOL    HW2 4425   5.131   3.400   6.444
 1176SOL     OW 4426   5.749   4.206   0.763
 1176SOL    HW1 4427   5.804   4.145   0.706
 1176SOL    HW2 4428   5.806   4.281   0.795
 1177SOL     OW 4429   6.989   1.470   5.180
 1177SOL    HW1 4430   6.987   1.388   5.122
 1177SOL    HW2 4431   0.024   1.452   5.260
 1178SOL     OW 4432   4.050   2.970   1.123
 1178SOL    HW1 4433   3.951   2.986   1.124
 1178SOL    HW2 4434   4.089   3.010   1.040
 1179SOL     OW 4435   3.120   5.006   0.628
 1179SOL    HW1 4436   3.026   5.000   0.593
 1179SOL    HW2 4437   3.184   5.012   0.552
 1180SOL     OW 4438   3.115   6.923   3.587
 1180SOL    HW1 4439   3.071   6.919   3.677
 1180SOL    HW2 4440   3.048   6.902   3.516
 1181SOL     OW 4441   0.065   2.880   5.114
 1181SOL    HW1 4442   0.017   2.829   5.042
 1181SOL    HW2 4443   0.162   2.885   5.091
 1182SOL     OW 4444   1.741   5.598   3.319
 1182SOL    HW1 4445   1.817   5.568   3.261
 1182SOL    HW2 4446   1.773   5.666   3.385
 1183SOL     OW 4447   3.482   5.433   2.253
 1183SOL    HW1 4448   3.490   5.460   2.157
 1183SOL    HW2 4449   3.557   5.472   2.306
 1184SOL     OW 4450   4.156   1.304   5.283
 1184SOL    HW1 4451   4.095   1.371   5.327
 1184SOL    HW2 4452   4.102   1.246   5.221
 1185SOL     OW 4453   2.265   0.322   0.103
 1185SOL    HW1 4454   2.184   0.264   0.113
 1185SOL    HW2 4455   2.344   0.264   0.082
 1186SOL     OW 4456   6.158   6.374   6.161
 1186SOL    HW1 4457   6.224   6.299   6.160
 1186SOL    HW2 4458   6.144   6.404   6.255
 1187SOL     OW 4459   5.402   5.717   5.215
 1187SOL    HW1 4460   5.438   5.760   5.132
 1187SOL    HW2 4461   5.478   5.686   5.272
 1188SOL     OW 4462   3.313   6.556   6.724
 1188SOL    HW1 4463   3.296   6.654   6.723
 1188SOL    HW2 4464   3.322   6.523   6.630
 1189SOL     OW 4465   5.437   0.410   2.248
 1189SOL    HW1 4466   5.437   0.475   2.172
 1189SOL    HW2 4467   5.488   0.328   2.221
 1190SOL     OW 4468   4.293   4.700   4.731
 1190SOL    HW1 4469   4.221   4.648   4.778
 1190SOL    HW2 4470   4.263   4.722   4.638
 1191SOL     OW 4471   4.402   5.859   5.276
 1191SOL    HW1 4472   4.362   5.950   5.282
 1191SOL    HW2 4473   4.403   5.817   5.367
 1192SOL     OW 4474   5.363   5.444   2.646
 1192SOL    HW1 4475   5.284   5.501   2.668
 1192SOL    HW2 4476   5.353   5.355   2.689
 1193SOL     OW 4477   6.610   0.443   4.477
 1193SOL    HW1 4478   6.642   0.391   4.556
 1193SOL    HW2 4479   6.583   0.380   4.404
 1194SOL     OW 4480   0.303   1.641   1.186
 1194SOL    HW1 4481   0.367   1.567   1.164
 1194SOL    HW2 4482   0.278   1.635   1.283
 1195SOL     OW 4483   6.078   2.690   1.379
 1195SOL    HW1 4484   6.064   2.750   1.458
 1195SOL    HW2 4485   5.992   2.646   1.355
 1196SOL     OW 4486   0.273   4.238   1.742
 1196SOL    HW1 4487   0.215   4.162   1.711
 1196SOL    HW2 4488   0.369   4.212   1.735
 1197SOL     OW 4489   4.147   6.336   4.832
 1197SOL    HW1 4490   4.158   6.348   4.931
 1197SOL    HW2 4491   4.225   6.286   4.795
 1198SOL     OW 4492   2.081   3.338   2.592
 1198SOL    HW1 4493   2.064   3.278   2.514
 1198SOL    HW2 4494   2.048   3.430   2.571
 1199SOL     OW 4495   3.358   2.916   3.403
 1199SOL    HW1 4496   3.414   2.898   3.484
 1199SOL    HW2 4497   3.264   2.934   3.432
 1200SOL     OW 4498   3.517   4.188   4.465
 1200SOL    HW1 4499   3.572   4.256   4.417
 1200SOL    HW2 4500   3.564   4.157   4.547
 1201SOL     OW 4501   6.944   1.558   4.745
 1201SOL    HW1 4502   6.906   1.619   4.675
 1201SOL    HW2 4503   6.927   1.597   4.835
 1202SOL     OW 4504   6.001   0.989   5.924
 1202SOL    HW1 4505   5.948   1.074   5.923
 1202SOL    HW2 4506   5.939   0.911   5.916
 1203SOL     OW 4507   6.213   6.434   1.678
 1203SOL    HW1 4508   6.138   6.409   1.740
 1203SOL    HW2 4509   6.190   6.406   1.585
 1204SOL     OW 4510   4.551   1.545   0.765
 1204SOL    HW1 4511   4.564   1.447   0.779
 1204SOL    HW2 4512   4.453   1.564   0.754
 1205SOL     OW 4513   4.137   3.581   6.168
 1205SOL    HW1 4514   4.190   3.496   6.169
 1205SOL    HW2 4515   4.193   3.655   6.206
 1206SOL     OW 4516   0.876   1.936   5.040
 1206SOL    HW1 4517   0.843   1.904   5.129
 1206SOL    HW2 4518   0.812   1.911   4.969
 1207SOL     OW 4519   0.721   6.789   0.384
 1207SOL    HW1 4520   0.680   6.842   0.310
 1207SOL    HW2 4521   0.819   6.779   0.368
 1208SOL     OW 4522   3.329   4.136   2.676
 1208SOL    HW1 4523   3.423   4.129   2.711
 1208SOL    HW2 4524   3.331   4.160   2.579
 1209SOL     OW 4525   5.793   6.505   4.783
 1209SOL    HW1 4526   5.863   6.437   4.760
 1209SOL    HW2 4527   5.710   6.486   4.732
 1210SOL     OW 4528   4.478   6.245   3.389
 1210SOL    HW1 4529   4.528   6.167   3.351
 1210SOL    HW2 4530   4.426   6.215   3.469
 1211SOL     OW 4531   1.456   3.156   2.967
 1211SOL    HW1 4532   1.387   3.212   2.921
 1211SOL    HW2 4533   1.413   3.076   3.008
 1212SOL     OW 4534   0.252   1.624   4.981
 1212SOL    HW1 4535   0.177   1.689   4.967
 1212SOL    HW2 4536   0.252   1.556   4.908
 1213SOL     OW 4537   5.756   3.068   4.590
 1213SOL    HW1 4538   5.785   3.138   4.655
 1213SOL    HW2 4539   5.836   3.016   4.559
 1214SOL     OW 4540   1.071   2.846   4.927
 1214SOL    HW1 4541   1.119   2.931   4.945
 1214SOL    HW2 4542   0.988   2.842   4.982
 1215SOL     OW 4543   1.708   5.311   2.669
 1215SOL    HW1 4544   1.671   5.219   2.676
 1215SOL    HW2 4545   1.787   5.319   2.730
 1216SOL     OW 4546   0.090   0.403   0.879
 1216SOL    HW1 4547   0.060   0.352   0.960
 1216SOL    HW2 4548   0.017   0.405   0.811
 1217SOL     OW 4549   2.796   5.530   1.037
 1217SOL    HW1 4550   2.793   5.517   0.937
 1217SOL    HW2 4551   2.731   5.467   1.080
 1218SOL     OW 4552   0.515   3.599   4.578
 1218SOL    HW1 4553   0.493   3.521   4.637
 1218SOL    HW2 4554   0.596   3.579   4.524
 1219SOL     OW 4555   4.733   5.314   1.614
 1219SOL    HW1 4556   4.763   5.343   1.705
 1219SOL    HW2 4557   4.745   5.215   1.606
 1220SOL     OW 4558   5.616   3.984   3.008
 1220SOL    HW1 4559   5.663   4.064   3.046
 1220SOL    HW2 4560   5.677   3.939   2.942
 1221SOL     OW 4561   5.928   3.878   6.308
 1221SOL    HW1 4562   5.829   3.888   6.295
 1221SOL    HW2 4563   5.946   3.809   6.378
 1222SOL     OW 4564   6.611   0.288   0.209
 1222SOL    HW1 4565   6.687   0.313   0.149
 1222SOL    HW2 4566   6.524   0.304   0.161
 1223SOL     OW 4567   4.995   0.932   0.724
 1223SOL    HW1 4568   4.951   1.013   0.685
 1223SOL    HW2 4569   4.977   0.928   0.822
 1224SOL     OW 4570   2.902   5.940   0.228
 1224SOL    HW1 4571   2.806   5.954   0.203
 1224SOL    HW2 4572   2.921   5.842   0.235
 1225SOL     OW 4573   4.121   2.265   0.865
 1225SOL    HW1 4574   4.153   2.283   0.773
 1225SOL    HW2 4575   4.126   2.167   0.884
 1226SOL     OW 4576   5.046   6.173   0.791
 1226SOL    HW1 4577   5.071   6.207   0.700
 1226SOL    HW2 4578   5.037   6.251   0.854
 1227SOL     OW 4579   6.166   5.032   6.751
 1227SOL    HW1 4580   6.121   5.097   6.690
 1227SOL    HW2 4581   6.257   5.067   6.776
 1228SOL     OW 4582   4.023   3.384   0.788
 1228SOL    HW1 4583   3.996   3.396   0.693
 1228SOL    HW2 4584   3.945   3.348   0.840
 1229SOL     OW 4585   1.861   5.715   1.154
 1229SOL    HW1 4586   1.870   5.624   1.195
 1229SOL    HW2 4587   1.941   5.770   1.178
 1230SOL     OW 4588   5.473   5.719   2.470
 1230SOL    HW1 4589   5.565   5.694   2.439
 1230SOL    HW2 4590   5.409   5.646   2.444
 1231SOL     OW 4591   1.332   2.084   6.082
 1231SOL    HW1 4592   1.390   2.015   6.036
 1231SOL    HW2 4593   1.246   2.041   6.110
 1232SOL     OW 4594   5.026   0.872   5.159
 1232SOL    HW1 4595   4.931   0.902   5.148
 1232SOL    HW2 4596   5.056   0.828   5.075
 1233SOL     OW 4597   0.827   5.436   3.742
 1233SOL    HW1 4598   0.738   5.428   3.787
 1233SOL    HW2 4599   0.833   5.369   3.668
 1234SOL     OW 4600   6.737   2.688   5.924
 1234SOL    HW1 4601   6.675   2.631   5.871
 1234SOL    HW2 4602   6.764   2.640   6.008
 1235SOL     OW 4603   6.307   4.389   0.923
 1235SOL    HW1 4604   6.367   4.368   0.846
 1235SOL    HW2 4605   6.245   4.312   0.938
 1236SOL     OW 4606   3.998   1.425   1.833
 1236SOL    HW1 4607   3.925   1.484   1.868
 1236SOL    HW2 4608   4.071   1.420   1.901
 1237SOL     OW 4609   1.274   5.715   4.839
 1237SOL    HW1 4610   1.229   5.737   4.753
 1237SOL    HW2 4611   1.329   5.793   4.869
 1238SOL     OW 4612   0.492   0.098   4.354
 1238SOL    HW1 4613   0.410   0.089   4.298
 1238SOL    HW2 4614   0.502   0.193   4.384
 1239SOL     OW 4615   6.440   6.443   5.761
 1239SOL    HW1 4616   6.385   6.524   5.782
 1239SOL    HW2 4617   6.478   6.452   5.669
 1240SOL     OW 4618   5.983   4.681   2.719
 1240SOL    HW1 4619   6.046   4.603   2.718
 1240SOL    HW2 4620   5.889   4.647   2.723
 1241SOL     OW 4621   6.359   4.664   4.865
 1241SOL    HW1 4622   6.334   4.760   4.854
 1241SOL    HW2 4623   6.367   4.642   4.962
 1242SOL     OW 4624   2.070   3.161   0.588
 1242SOL    HW1 4625   2.146   3.226   0.600
 1242SOL    HW2 4626   1.990   3.195   0.637
 1243SOL     OW 4627   0.392   0.845   4.247
 1243SOL    HW1 4628   0.352   0.766   4.294
 1243SOL    HW2 4629   0.477   0.818   4.202
 1244SOL     OW 4630   5.178   6.549   5.505
 1244SOL    HW1 4631   5.188   6.637   5.459
 1244SOL    HW2 4632   5.209   6.476   5.443
 1245SOL     OW 4633   5.895   5.425   0.629
 1245SOL    HW1 4634   5.821   5.397   0.689
 1245SOL    HW2 4635   5.864   5.498   0.568
 1246SOL     OW 4636   3.423   1.399   2.549
 1246SOL    HW1 4637   3.347   1.421   2.488
 1246SOL    HW2 4638   3.494   1.469   2.541
 1247SOL     OW 4639   5.538   6.645   5.272
 1247SOL    HW1 4640   5.612   6.578   5.267
 1247SOL    HW2 4641   5.576   6.737   5.262
 1248SOL     OW 4642   1.686   6.757   3.802
 1248SOL    HW1 4643   1.721   6.698   3.728
 1248SOL    HW2 4644   1.595   6.725   3.829
 1249SOL     OW 4645   0.246   3.587   1.813
 1249SOL    HW1 4646   0.330   3.535   1.831
 1249SOL    HW2 4647   0.271   3.680   1.786
 1250SOL     OW 4648   6.098   3.737   4.123
 1250SOL    HW1 4649   6.099   3.830   4.088
 1250SOL    HW2 4650   6.191   3.707   4.144
 1251SOL     OW 4651   2.295   0.670   2.548
 1251SOL    HW1 4652   2.368   0.730   2.582
 1251SOL    HW2 4653   2.240   0.637   2.624
 1252SOL     OW 4654   3.692   5.166   0.064
 1252SOL    HW1 4655   3.784   5.188   0.031
 1252SOL    HW2 4656   3.643   5.115   7.016
 1253SOL     OW 4657   2.598   0.041   1.413
 1253SOL    HW1 4658   2.513   0.060   1.463
 1253SOL    HW2 4659   2.673   0.093   1.453
 1254SOL     OW 4660   6.737   2.916   3.032
 1254SOL    HW1 4661   6.746   2.920   3.132
 1254SOL    HW2 4662   6.661   2.974   3.004
 1255SOL     OW 4663   5.690   2.549   6.140
 1255SOL    HW1 4664   5.590   2.554   6.131
 1255SOL    HW2 4665   5.733   2.618   6.082
 1256SOL     OW 4666   0.586   6.451   3.948
 1256SOL    HW1 4667   0.550   6.458   4.041
 1256SOL    HW2 4668   0.638   6.534   3.926
 1257SOL     OW 4669   0.297   5.198   4.682
 1257SOL    HW1 4670   0.271   5.247   4.599
 1257SOL    HW2 4671   0.313   5.263   4.756
 1258SOL     OW 4672   1.963   5.706   2.642
 1258SOL    HW1 4673   1.864   5.710   2.653
 1258SOL    HW2 4674   2.001   5.635   2.700
 1259SOL     OW 4675   3.386   6.163   5.379
 1259SOL    HW1 4676   3.423   6.256   5.368
 1259SOL    HW2 4677   3.393   6.114   5.292
 1260SOL     OW 4678   2.915   1.106   1.313
 1260SOL    HW1 4679   2.960   1.190   1.282
 1260SOL    HW2 4680   2.979   1.030   1.309
 1261SOL     OW 4681   0.400   4.324   7.022
 1261SOL    HW1 4682   0.422   4.244   0.054
 1261SOL    HW2 4683   0.460   4.400   0.025
 1262SOL     OW 4684   5.146   6.126   1.427
 1262SOL    HW1 4685   5.144   6.029   1.401
 1262SOL    HW2 4686   5.091   6.178   1.362
 1263SOL     OW 4687   6.584   1.453   0.531
 1263SOL    HW1 4688   6.575   1.382   0.461
 1263SOL    HW2 4689   6.548   1.539   0.496
 1264SOL     OW 4690   0.842   3.668   1.587
 1264SOL    HW1 4691   0.904   3.733   1.631
 1264SOL    HW2 4692   0.857   3.668   1.489
 1265SOL     OW 4693   6.692   5.069   3.679
 1265SOL    HW1 4694   6.753   5.015   3.737
 1265SOL    HW2 4695   6.726   5.067   3.584
 1266SOL     OW 4696   2.031   1.089   3.725
 1266SOL    HW1 4697   2.044   1.051   3.634
 1266SOL    HW2 4698   1.957   1.040   3.772
 1267SOL     OW 4699   5.607   6.229   0.973
 1267SOL    HW1 4700   5.522   6.220   1.025
 1267SOL    HW2 4701   5.660   6.145   0.981
 1268SOL     OW 4702   4.650   2.824   6.640
 1268SOL    HW1 4703   4.598   2.901   6.604
 1268SOL    HW2 4704   4.593   2.742   6.639
 1269SOL     OW 4705   6.199   6.182   5.481
 1269SOL    HW1 4706   6.188   6.280   5.461
 1269SOL    HW2 4707   6.244   6.137   5.403
 1270SOL     OW 4708   2.146   3.392   4.707
 1270SOL    HW1 4709   2.217   3.423   4.770
 1270SOL    HW2 4710   2.134   3.460   4.635
 1271SOL     OW 4711   3.454   2.138   3.539
 1271SOL    HW1 4712   3.432   2.149   3.636
 1271SOL    HW2 4713   3.369   2.141   3.486
 1272SOL     OW 4714   6.325   5.713   0.648
 1272SOL    HW1 4715   6.420   5.742   0.662
 1272SOL    HW2 4716   6.302   5.642   0.714
 1273SOL     OW 4717   1.644   4.459   6.997
 1273SOL    HW1 4718   1.579   4.528   0.005
 1273SOL    HW2 4719   1.642   4.381   0.038
 1274SOL     OW 4720   6.232   3.121   1.804
 1274SOL    HW1 4721   6.193   3.144   1.715
 1274SOL    HW2 4722   6.180   3.167   1.876
 1275SOL     OW 4723   3.948   0.098   3.731
 1275SOL    HW1 4724   3.864   0.089   3.785
 1275SOL    HW2 4725   3.980   0.007   3.704
 1276SOL     OW 4726   0.199   1.319   4.143
 1276SOL    HW1 4727   0.205   1.308   4.044
 1276SOL    HW2 4728   0.159   1.236   4.184
 1277SOL     OW 4729   0.375   0.025   5.241
 1277SOL    HW1 4730   0.288   0.056   5.281
 1277SOL    HW2 4731   0.415   6.977   5.299
 1278SOL     OW 4732   1.302   0.890   5.084
 1278SOL    HW1 4733   1.232   0.909   5.153
 1278SOL    HW2 4734   1.361   0.816   5.115
 1279SOL     OW 4735   2.953   5.637   6.974
 1279SOL    HW1 4736   2.972   5.734   6.963
 1279SOL    HW2 4737   2.898   5.623   0.034
 1280SOL     OW 4738   3.318   6.268   3.917
 1280SOL    HW1 4739   3.310   6.182   3.967
 1280SOL    HW2 4740   3.234   6.285   3.866
 1281SOL     OW 4741   0.951   5.789   3.100
 1281SOL    HW1 4742   0.852   5.793   3.091
 1281SOL    HW2 4743   0.975   5.746   3.187
 1282SOL     OW 4744   0.227   0.871   6.814
 1282SOL    HW1 4745   0.139   0.859   6.768
 1282SOL    HW2 4746   0.301   0.866   6.747
 1283SOL     OW 4747   5.198   2.722   5.124
 1283SOL    HW1 4748   5.172   2.656   5.053
 1283SOL    HW2 4749   5.174   2.686   5.214
 1284SOL     OW 4750   4.108   2.990   1.675
 1284SOL    HW1 4751   4.101   2.952   1.583
 1284SOL    HW2 4752   4.204   2.994   1.703
 1285SOL     OW 4753   5.178   3.232   5.873
 1285SOL    HW1 4754   5.187   3.316   5.927
 1285SOL    HW2 4755   5.092   3.187   5.896
 1286SOL     OW 4756   5.015   4.317   3.022
 1286SOL    HW1 4757   5.010   4.415   3.004
 1286SOL    HW2 4758   4.928   4.286   3.060
 1287SOL     OW 4759   4.750   3.913   5.526
 1287SOL    HW1 4760   4.737   3.822   5.486
 1287SOL    HW2 4761   4.741   3.907   5.625
 1288SOL     OW 4762   6.139   3.757   0.996
 1288SOL    HW1 4763   6.083   3.735   1.075
 1288SOL    HW2 4764   6.232   3.780   1.026
 1289SOL     OW 4765   0.275   6.203   1.799
 1289SOL    HW1 4766   0.269   6.303   1.801
 1289SOL    HW2 4767   0.189   6.164   1.831
 1290SOL     OW 4768   1.192   0.096   0.446
 1290SOL    HW1 4769   1.203   0.070   0.350
 1290SOL    HW2 4770   1.280   0.091   0.492
 1291SOL     OW 4771   0.321   2.979   5.822
 1291SOL    HW1 4772   0.388   3.024   5.763
 1291SOL    HW2 4773   0.368   2.925   5.891
 1292SOL     OW 4774   5.932   5.669   2.822
 1292SOL    HW1 4775   6.030   5.657   2.805
 1292SOL    HW2 4776   5.889   5.709   2.741
 1293SOL     OW 4777   1.662   1.137   6.501
 1293SOL    HW1 4778   1.680   1.203   6.575
 1293SOL    HW2 4779   1.565   1.136   6.480
 1294SOL     OW 4780   1.203   3.260   0.271
 1294SOL    HW1 4781   1.189   3.329   0.341
 1294SOL    HW2 4782   1.239   3.176   0.312
 1295SOL     OW 4783   6.594   3.823   3.040
 1295SOL    HW1 4784   6.613   3.842   2.944
 1295SOL    HW2 4785   6.512   3.872   3.068
 1296SOL     OW 4786   3.854   0.479   5.577
 1296SOL    HW1 4787   3.772   0.495   5.632
 1296SOL    HW2 4788   3.829   0.435   5.491
 1297SOL     OW 4789   6.014   0.590   6.504
 1297SOL    HW1 4790   5.981   0.495   6.503
 1297SOL    HW2 4791   6.050   0.611   6.594
 1298SOL     OW 4792   6.450   4.322   3.484
 1298SOL    HW1 4793   6.432   4.412   3.523
 1298SOL    HW2 4794   6.431   4.324   3.386
 1299SOL     OW 4795   0.408   3.945   2.862
 1299SOL    HW1 4796   0.336   3.936   2.931
 1299SOL    HW2 4797   0.385   3.889   2.783
 1300SOL     OW 4798   3.337   4.064   1.794
 1300SOL    HW1 4799   3.341   3.992   1.864
 1300SOL    HW2 4800   3.423   4.115   1.795
 1301SOL     OW 4801   0.457   5.809   1.945
 1301SOL    HW1 4802   0.456   5.777   2.040
 1301SOL    HW2 4803   0.547   5.849   1.925
 1302SOL     OW 4804   2.973   0.196   5.409
 1302SOL    HW1 4805   3.022   0.226   5.492
 1302SOL    HW2 4806   3.040   0.173   5.338
 1303SOL     OW 4807   4.655   1.653   1.155
 1303SOL    HW1 4808   4.645   1.553   1.165
 1303SOL    HW2 4809   4.731   1.684   1.211
 1304SOL     OW 4810   1.123   1.253   6.562
 1304SOL    HW1 4811   1.138   1.352   6.561
 1304SOL    HW2 4812   1.210   1.207   6.541
 1305SOL     OW 4813   5.450   4.037   0.140
 1305SOL    HW1 4814   5.373   4.024   0.078
 1305SOL    HW2 4815   5.430   3.992   0.227
 1306SOL     OW 4816   0.961   4.505   5.696
 1306SOL    HW1 4817   0.897   4.532   5.624
 1306SOL    HW2 4818   1.052   4.543   5.677
 1307SOL     OW 4819   1.626   2.907   4.515
 1307SOL    HW1 4820   1.539   2.889   4.560
 1307SOL    HW2 4821   1.626   2.863   4.425
 1308SOL     OW 4822   4.518   5.416   4.542
 1308SOL    HW1 4823   4.435   5.434   4.594
 1308SOL    HW2 4824   4.494   5.393   4.448
 1309SOL     OW 4825   5.340   3.527   5.751
 1309SOL    HW1 4826   5.428   3.567   5.776
 1309SOL    HW2 4827   5.352   3.464   5.674
 1310SOL     OW 4828   0.204   4.100   4.810
 1310SOL    HW1 4829   0.194   4.007   4.774
 1310SOL    HW2 4830   0.215   4.164   4.734
 1311SOL     OW 4831   6.815   0.031   3.553
 1311SOL    HW1 4832   6.753   0.108   3.540
 1311SOL    HW2 4833   6.791   7.003   3.636
 1312SOL     OW 4834   1.084   0.292   6.465
 1312SOL    HW1 4835   1.174   0.249   6.465
 1312SOL    HW2 4836   1.021   0.241   6.523
 1313SOL     OW 4837   1.421   4.965   4.634
 1313SOL    HW1 4838   1.382   5.045   4.587
 1313SOL    HW2 4839   1.513   4.988   4.666
 1314SOL     OW 4840   3.038   1.876   5.978
 1314SOL    HW1 4841   3.043   1.874   6.078
 1314SOL    HW2 4842   3.070   1.965   5.945
 1315SOL     OW 4843   0.158   0.795   0.256
 1315SOL    HW1 4844   0.196   0.854   0.327
 1315SOL    HW2 4845   0.227   0.730   0.225
 1316SOL     OW 4846   2.508   6.374   4.105
 1316SOL    HW1 4847   2.498   6.300   4.038
 1316SOL    HW2 4848   2.417   6.403   4.135
 1317SOL     OW 4849   0.495   4.126   4.510
 1317SOL    HW1 4850   0.428   4.134   4.436
 1317SOL    HW2 4851   0.587   4.140   4.474
 1318SOL     OW 4852   6.999   0.620   0.660
 1318SOL    HW1 4853   0.009   0.605   0.566
 1318SOL    HW2 4854   6.940   0.544   0.687
 1319SOL     OW 4855   6.757   0.368   0.448
 1319SOL    HW1 4856   6.686   0.435   0.469
 1319SOL    HW2 4857   6.729   0.314   0.368
 1320SOL     OW 4858   5.893   3.887   0.259
 1320SOL    HW1 4859   5.943   3.971   0.283
 1320SOL    HW2 4860   5.832   3.905   0.182
 1321SOL     OW 4861   4.393   2.376   6.378
 1321SOL    HW1 4862   4.433   2.312   6.443
 1321SOL    HW2 4863   4.295   2.359   6.370
 1322SOL     OW 4864   4.831   0.621   3.743
 1322SOL    HW1 4865   4.844   0.584   3.651
 1322SOL    HW2 4866   4.739   0.660   3.751
 1323SOL     OW 4867   5.453   1.860   5.225
 1323SOL    HW1 4868   5.433   1.831   5.131
 1323SOL    HW2 4869   5.421   1.791   5.289
 1324SOL     OW 4870   0.894   2.516   1.103
 1324SOL    HW1 4871   0.907   2.572   1.021
 1324SOL    HW2 4872   0.861   2.426   1.076
 1325SOL     OW 4873   1.658   6.777   2.028
 1325SOL    HW1 4874   1.698   6.737   2.110
 1325SOL    HW2 4875   1.581   6.720   1.998
 1326SOL     OW 4876   5.104   2.697   4.657
 1326SOL    HW1 4877   5.187   2.667   4.610
 1326SOL    HW2 4878   5.090   2.795   4.641
 1327SOL     OW 4879   2.739   5.104   1.981
 1327SOL    HW1 4880   2.647   5.098   1.942
 1327SOL    HW2 4881   2.764   5.201   1.991
 1328SOL     OW 4882   1.449   2.560   0.865
 1328SOL    HW1 4883   1.506   2.480   0.846
 1328SOL    HW2 4884   1.441   2.615   0.783
 1329SOL     OW 4885   0.550   2.011   0.675
 1329SOL    HW1 4886   0.498   1.938   0.630
 1329SOL    HW2 4887   0.499   2.043   0.755
 1330SOL     OW 4888   6.766   1.104   1.131
 1330SOL    HW1 4889   6.766   1.198   1.167
 1330SOL    HW2 4890   6.722   1.104   1.041
 1331SOL     OW 4891   4.742   2.223   3.295
 1331SOL    HW1 4892   4.737   2.276   3.210
 1331SOL    HW2 4893   4.664   2.247   3.353
 1332SOL     OW 4894   3.570   0.118   0.226
 1332SOL    HW1 4895   3.609   0.043   0.174
 1332SOL    HW2 4896   3.642   0.183   0.252
 1333SOL     OW 4897   3.564   3.710   6.477
 1333SOL    HW1 4898   3.574   3.714   6.378
 1333SOL    HW2 4899   3.536   3.618   6.504
 1334SOL     OW 4900   0.008   2.661   4.936
 1334SOL    HW1 4901   0.094   2.666   4.884
 1334SOL    HW2 4902   0.008   2.579   4.993
 1335SOL     OW 4903   2.901   0.401   2.782
 1335SOL    HW1 4904   2.941   0.459   2.853
 1335SOL    HW2 4905   2.938   0.309   2.789
 1336SOL     OW 4906   1.909   1.290   6.455
 1336SOL    HW1 4907   1.843   1.340   6.510
 1336SOL    HW2 4908   1.884   1.193   6.453
 1337SOL     OW 4909   1.210   1.639   4.869
 1337SOL    HW1 4910   1.280   1.665   4.936
 1337SOL    HW2 4911   1.157   1.562   4.905
 1338SOL     OW 4912   4.534   2.722   6.144
 1338SOL    HW1 4913   4.500   2.809   6.108
 1338SOL    HW2 4914   4.616   2.695   6.092
 1339SOL     OW 4915   1.236   0.098   0.170
 1339SOL    HW1 4916   1.233   0.183   0.117
 1339SOL    HW2 4917   1.323   0.051   0.153
 1340SOL     OW 4918   1.026   1.423   1.615
 1340SOL    HW1 4919   0.935   1.410   1.577
 1340SOL    HW2 4920   1.045   1.350   1.681
 1341SOL     OW 4921   4.501   0.676   5.554
 1341SOL    HW1 4922   4.421   0.723   5.590
 1341SOL    HW2 4923   4.477   0.583   5.526
 1342SOL     OW 4924   1.670   4.796   6.159
 1342SOL    HW1 4925   1.610   4.725   6.197
 1342SOL    HW2 4926   1.655   4.803   6.061
 1343SOL     OW 4927   4.263   5.734   2.715
 1343SOL    HW1 4928   4.166   5.734   2.693
 1343SOL    HW2 4929   4.295   5.828   2.729
 1344SOL     OW 4930   6.549   4.393   3.795
 1344SOL    HW1 4931   6.509   4.460   3.732
 1344SOL    HW2 4932   6.633   4.430   3.834
 1345SOL     OW 4933   1.661   1.797   3.500
 1345SOL    HW1 4934   1.696   1.862   3.433
 1345SOL    HW2 4935   1.710   1.807   3.587
 1346SOL     OW 4936   1.437   0.242   3.109
 1346SOL    HW1 4937   1.523   0.197   3.133
 1346SOL    HW2 4938   1.399   0.200   3.027
 1347SOL     OW 4939   6.134   6.589   4.268
 1347SOL    HW1 4940   6.065   6.567   4.198
 1347SOL    HW2 4941   6.150   6.508   4.325
 1348SOL     OW 4942   5.218   5.409   2.988
 1348SOL    HW1 4943   5.312   5.400   3.020
 1348SOL    HW2 4944   5.155   5.401   3.065
 1349SOL     OW 4945   5.069   2.540   6.011
 1349SOL    HW1 4946   5.091   2.627   6.055
 1349SOL    HW2 4947   5.101   2.464   6.067
 1350SOL     OW 4948   4.362   4.752   6.566
 1350SOL    HW1 4949   4.424   4.680   6.599
 1350SOL    HW2 4950   4.348   4.819   6.638
 1351SOL     OW 4951   6.719   2.326   3.435
 1351SOL    HW1 4952   6.697   2.329   3.533
 1351SOL    HW2 4953   6.636   2.342   3.382
 1352SOL     OW 4954   0.323   0.875   3.447
 1352SOL    HW1 4955   0.270   0.803   3.402
 1352SOL    HW2 4956   0.261   0.942   3.488
 1353SOL     OW 4957   5.936   3.996   5.696
 1353SOL    HW1 4958   5.897   3.969   5.784
 1353SOL    HW2 4959   5.931   3.920   5.632
 1354SOL     OW 4960   0.306   1.728   0.302
 1354SOL    HW1 4961   0.274   1.641   0.340
 1354SOL    HW2 4962   0.242   1.759   0.232
 1355SOL     OW 4963   6.003   2.362   5.684
 1355SOL    HW1 4964   6.060   2.339   5.762
 1355SOL    HW2 4965   5.975   2.458   5.690
 1356SOL     OW 4966   3.017   3.279   3.649
 1356SOL    HW1 4967   3.075   3.352   3.684
 1356SOL    HW2 4968   2.971   3.311   3.565
 1357SOL     OW 4969   1.341   4.748   5.870
 1357SOL    HW1 4970   1.295   4.814   5.930
 1357SOL    HW2 4971   1.437   4.775   5.858
 1358SOL     OW 4972   3.630   1.474   5.627
 1358SOL    HW1 4973   3.627   1.431   5.717
 1358SOL    HW2 4974   3.672   1.412   5.561
 1359SOL     OW 4975   0.352   4.424   1.202
 1359SOL    HW1 4976   0.405   4.432   1.117
 1359SOL    HW2 4977   0.384   4.345   1.254
 1360SOL     OW 4978   4.096   3.784   2.163
 1360SOL    HW1 4979   4.068   3.779   2.259
 1360SOL    HW2 4980   4.151   3.867   2.149
 1361SOL     OW 4981   6.805   6.085   5.515
 1361SOL    HW1 4982   6.844   6.105   5.605
 1361SOL    HW2 4983   6.858   6.012   5.472
 1362SOL     OW 4984   3.164   4.042   3.749
 1362SOL    HW1 4985   3.218   4.092   3.816
 1362SOL    HW2 4986   3.110   3.971   3.795
 1363SOL     OW 4987   6.286   6.244   3.146
 1363SOL    HW1 4988   6.343   6.167   3.115
 1363SOL    HW2 4989   6.226   6.213   3.220
 1364SOL     OW 4990   0.486   2.144   0.250
 1364SOL    HW1 4991   0.412   2.101   0.301
 1364SOL    HW2 4992   0.529   2.214   0.307
 1365SOL     OW 4993   0.808   3.318   5.881
 1365SOL    HW1 4994   0.808   3.225   5.916
 1365SOL    HW2 4995   0.750   3.323   5.800
 1366SOL     OW 4996   0.605   3.857   0.510
 1366SOL    HW1 4997   0.562   3.873   0.599
 1366SOL    HW2 4998   0.703   3.838   0.524
 1367SOL     OW 4999   1.453   5.797   2.970
 1367SOL    HW1 5000   1.389   5.799   3.047
 1367SOL    HW2 5001   1.502   5.709   2.969
 1368SOL     OW 5002   6.675   0.244   3.797
 1368SOL    HW1 5003   6.657   0.314   3.728
 1368SOL    HW2 5004   6.773   0.242   3.818
 1369SOL     OW 5005   2.146   6.871   2.589
 1369SOL    HW1 5006   2.220   6.890   2.654
 1369SOL    HW2 5007   2.151   6.776   2.560
 1370SOL     OW 5008   5.303   1.754   4.258
 1370SOL    HW1 5009   5.367   1.689   4.216
 1370SOL    HW2 5010   5.336   1.779   4.348
 1371SOL     OW 5011   5.295   1.013   4.629
 1371SOL    HW1 5012   5.255   0.962   4.553
 1371SOL    HW2 5013   5.381   0.970   4.657
 1372SOL     OW 5014   1.275   1.922   0.770
 1372SOL    HW1 5015   1.289   1.895   0.865
 1372SOL    HW2 5016   1.206   1.993   0.766
 1373SOL     OW 5017   4.589   2.284   6.891
 1373SOL    HW1 5018   4.643   2.213   6.845
 1373SOL    HW2 5019   4.645   2.328   6.961
 1374SOL     OW 5020   4.232   2.783   0.493
 1374SOL    HW1 5021   4.245   2.793   0.592
 1374SOL    HW2 5022   4.153   2.724   0.476
 1375SOL     OW 5023   0.447   7.008   6.231
 1375SOL    HW1 5024   0.398   6.941   6.175
 1375SOL    HW2 5025   0.534   6.968   6.262
 1376SOL     OW 5026   3.950   4.855   5.105
 1376SOL    HW1 5027   4.044   4.830   5.081
 1376SOL    HW2 5028   3.917   4.795   5.177
 1377SOL     OW 5029   0.974   4.094   3.502
 1377SOL    HW1 5030   0.910   4.126   3.572
 1377SOL    HW2 5031   0.925   4.038   3.435
 1378SOL     OW 5032   5.683   2.617   5.447
 1378SOL    HW1 5033   5.693   2.533   5.501
 1378SOL    HW2 5034   5.658   2.593   5.354
 1379SOL     OW 5035   4.084   6.019   3.084
 1379SOL    HW1 5036   4.020   5.956   3.130
 1379SOL    HW2 5037   4.134   6.071   3.152
 1380SOL     OW 5038   0.578   6.424   3.328
 1380SOL    HW1 5039   0.550   6.493   3.395
 1380SOL    HW2 5040   0.503   6.359   3.314
 1381SOL     OW 5041   5.673   1.650   0.068
 1381SOL    HW1 5042   5.654   1.729   0.011
 1381SOL    HW2 5043   5.589   1.617   0.110
 1382SOL     OW 5044   5.262   3.201   1.555
 1382SOL    HW1 5045   5.185   3.193   1.492
 1382SOL    HW2 5046   5.230   3.234   1.643
 1383SOL     OW 5047   1.325   0.240   1.628
 1383SOL    HW1 5048   1.396   0.305   1.656
 1383SOL    HW2 5049   1.366   0.150   1.614
 1384SOL     OW 5050   4.705   0.622   1.966
 1384SOL    HW1 5051   4.724   0.553   1.897
 1384SOL    HW2 5052   4.612   0.657   1.955
 1385SOL     OW 5053   2.772   4.778   3.724
 1385SOL    HW1 5054   2.869   4.781   3.749
 1385SOL    HW2 5055   2.720   4.735   3.798
 1386SOL     OW 5056   2.846   1.440   3.974
 1386SOL    HW1 5057   2.902   1.504   4.026
 1386SOL    HW2 5058   2.905   1.372   3.930
 1387SOL     OW 5059   3.904   5.358   2.552
 1387SOL    HW1 5060   3.833   5.426   2.574
 1387SOL    HW2 5061   3.991   5.405   2.536
 1388SOL     OW 5062   6.637   0.132   2.951
 1388SOL    HW1 5063   6.569   0.192   2.909
 1388SOL    HW2 5064   6.710   0.113   2.886
 1389SOL     OW 5065   6.566   1.067   3.917
 1389SOL    HW1 5066   6.480   1.106   3.951
 1389SOL    HW2 5067   6.545   0.998   3.847
 1390SOL     OW 5068   0.098   3.339   6.773
 1390SOL    HW1 5069   0.129   3.325   6.679
 1390SOL    HW2 5070   0.022   3.277   6.793
 1391SOL     OW 5071   6.393   6.036   4.739
 1391SOL    HW1 5072   6.364   6.010   4.832
 1391SOL    HW2 5073   6.317   6.082   4.693
 1392SOL     OW 5074   5.266   6.214   5.766
 1392SOL    HW1 5075   5.366   6.208   5.760
 1392SOL    HW2 5076   5.238   6.309   5.752
 1393SOL     OW 5077   6.476   4.673   5.914
 1393SOL    HW1 5078   6.438   4.752   5.963
 1393SOL    HW2 5079   6.545   4.628   5.972
 1394SOL     OW 5080   3.337   5.310   5.442
 1394SOL    HW1 5081   3.356   5.323   5.539
 1394SOL    HW2 5082   3.423   5.299   5.392
 1395SOL     OW 5083   2.501   4.815   5.302
 1395SOL    HW1 5084   2.465   4.750   5.370
 1395SOL    HW2 5085   2.552   4.765   5.232
 1396SOL     OW 5086   0.847   1.370   5.275
 1396SOL    HW1 5087   0.796   1.292   5.238
 1396SOL    HW2 5088   0.891   1.343   5.361
 1397SOL     OW 5089   0.554   0.086   3.943
 1397SOL    HW1 5090   0.500   0.143   4.005
 1397SOL    HW2 5091   0.636   0.053   3.990
 1398SOL     OW 5092   3.234   0.512   6.527
 1398SOL    HW1 5093   3.184   0.504   6.613
 1398SOL    HW2 5094   3.313   0.451   6.528
 1399SOL     OW 5095   3.745   5.551   0.837
 1399SOL    HW1 5096   3.686   5.519   0.911
 1399SOL    HW2 5097   3.788   5.473   0.792
 1400SOL     OW 5098   6.812   1.786   4.159
 1400SOL    HW1 5099   6.781   1.783   4.254
 1400SOL    HW2 5100   6.837   1.693   4.129
 1401SOL     OW 5101   6.201   0.885   4.503
 1401SOL    HW1 5102   6.255   0.969   4.513
 1401SOL    HW2 5103   6.261   0.812   4.470
 1402SOL     OW 5104   6.179   3.723   6.420
 1402SOL    HW1 5105   6.135   3.637   6.447
 1402SOL    HW2 5106   6.278   3.715   6.431
 1403SOL     OW 5107   2.435   2.103   1.749
 1403SOL    HW1 5108   2.519   2.051   1.763
 1403SOL    HW2 5109   2.431   2.136   1.655
 1404SOL     OW 5110   6.488   6.701   0.510
 1404SOL    HW1 5111   6.577   6.736   0.482
 1404SOL    HW2 5112   6.499   6.609   0.549
 1405SOL     OW 5113   2.329   3.251   0.639
 1405SOL    HW1 5114   2.409   3.300   0.604
 1405SOL    HW2 5115   2.344   3.152   0.630
 1406SOL     OW 5116   0.588   5.059   0.436
 1406SOL    HW1 5117   0.507   5.068   0.378
 1406SOL    HW2 5118   0.659   5.122   0.404
 1407SOL     OW 5119   0.483   3.381   2.508
 1407SOL    HW1 5120   0.534   3.403   2.424
 1407SOL    HW2 5121   0.385   3.395   2.491
 1408SOL     OW 5122   5.664   0.828   5.428
 1408SOL    HW1 5123   5.671   0.732   5.455
 1408SOL    HW2 5124   5.677   0.836   5.329
 1409SOL     OW 5125   6.669   0.319   4.735
 1409SOL    HW1 5126   6.756   0.291   4.694
 1409SOL    HW2 5127   6.686   0.374   4.816
 1410SOL     OW 5128   1.392   4.074   6.018
 1410SOL    HW1 5129   1.483   4.109   6.001
 1410SOL    HW2 5130   1.372   4.077   6.116
 1411SOL     OW 5131   3.878   6.753   0.946
 1411SOL    HW1 5132   3.961   6.756   1.002
 1411SOL    HW2 5133   3.831   6.841   0.951
 1412SOL     OW 5134   1.459   2.082   0.501
 1412SOL    HW1 5135   1.477   1.984   0.491
 1412SOL    HW2 5136   1.442   2.103   0.597
 1413SOL     OW 5137   1.727   2.174   5.536
 1413SOL    HW1 5138   1.713   2.202   5.631
 1413SOL    HW2 5139   1.825   2.182   5.514
 1414SOL     OW 5140   2.948   0.911   1.845
 1414SOL    HW1 5141   2.991   0.862   1.769
 1414SOL    HW2 5142   2.941   1.008   1.822
 1415SOL     OW 5143   2.126   1.023   4.235
 1415SOL    HW1 5144   2.214   1.070   4.247
 1415SOL    HW2 5145   2.071   1.036   4.318
 1416SOL     OW 5146   4.943   5.273   4.284
 1416SOL    HW1 5147   4.948   5.180   4.247
 1416SOL    HW2 5148   4.948   5.270   4.383
 1417SOL     OW 5149   2.968   2.367   0.252
 1417SOL    HW1 5150   3.007   2.294   0.308
 1417SOL    HW2 5151   2.915   2.429   0.311
 1418SOL     OW 5152   3.159   4.053   2.871
 1418SOL    HW1 5153   3.199   4.081   2.783
 1418SOL    HW2 5154   3.060   4.046   2.861
 1419SOL     OW 5155   2.824   5.375   3.757
 1419SOL    HW1 5156   2.899   5.378   3.691
 1419SOL    HW2 5157   2.862   5.382   3.850
 1420SOL     OW 5158   2.351   6.851   1.798
 1420SOL    HW1 5159   2.322   6.945   1.780
 1420SOL    HW2 5160   2.279   6.788   1.766
 1421SOL     OW 5161   2.284   5.140   3.380
 1421SOL    HW1 5162   2.303   5.042   3.367
 1421SOL    HW2 5163   2.260   5.181   3.292
 1422SOL     OW 5164   1.230   3.803   0.191
 1422SOL    HW1 5165   1.243   3.791   0.092
 1422SOL    HW2 5166   1.158   3.869   0.207
 1423SOL     OW 5167   5.709   6.257   4.023
 1423SOL    HW1 5168   5.704   6.293   4.116
 1423SOL    HW2 5169   5.692   6.158   4.024
 1424SOL     OW 5170   6.720   5.011   6.105
 1424SOL    HW1 5171   6.712   5.110   6.097
 1424SOL    HW2 5172   6.708   4.984   6.201
 1425SOL     OW 5173   1.956   5.524   5.256
 1425SOL    HW1 5174   2.044   5.503   5.212
 1425SOL    HW2 5175   1.882   5.482   5.203
 1426SOL     OW 5176   2.110   3.979   6.612
 1426SOL    HW1 5177   2.205   4.006   6.598
 1426SOL    HW2 5178   2.050   4.050   6.576
 1427SOL     OW 5179   0.057   0.456   3.190
 1427SOL    HW1 5180   0.144   0.419   3.156
 1427SOL    HW2 5181   7.006   0.392   3.169
 1428SOL     OW 5182   0.578   2.490   6.618
 1428SOL    HW1 5183   0.516   2.473   6.695
 1428SOL    HW2 5184   0.593   2.589   6.608
 1429SOL     OW 5185   4.543   1.548   6.864
 1429SOL    HW1 5186   4.462   1.543   6.923
 1429SOL    HW2 5187   4.549   1.640   6.826
 1430SOL     OW 5188   1.622   4.880   3.590
 1430SOL    HW1 5189   1.594   4.848   3.500
 1430SOL    HW2 5190   1.614   4.980   3.594
 1431SOL     OW 5191   2.584   2.376   0.465
 1431SOL    HW1 5192   2.571   2.277   0.458
 1431SOL    HW2 5193   2.681   2.397   0.456
 1432SOL     OW 5194   2.730   1.611   1.600
 1432SOL    HW1 5195   2.810   1.670   1.587
 1432SOL    HW2 5196   2.712   1.601   1.698
 1433SOL     OW 5197   4.835   0.096   4.879
 1433SOL    HW1 5198   4.787   0.060   4.799
 1433SOL    HW2 5199   4.884   0.180   4.853
 1434SOL     OW 5200   0.907   0.150   5.871
 1434SOL    HW1 5201   0.856   0.069   5.898
 1434SOL    HW2 5202   0.893   0.222   5.939
 1435SOL     OW 5203   6.653   6.981   3.154
 1435SOL    HW1 5204   6.658   0.030   3.084
 1435SOL    HW2 5205   6.631   6.894   3.112
 1436SOL     OW 5206   5.211   3.962   6.658
 1436SOL    HW1 5207   5.241   3.867   6.647
 1436SOL    HW2 5208   5.149   3.968   6.737
 1437SOL     OW 5209   2.735   2.023   4.848
 1437SOL    HW1 5210   2.732   1.937   4.796
 1437SOL    HW2 5211   2.829   2.038   4.880
 1438SOL     OW 5212   2.475   6.375   1.797
 1438SOL    HW1 5213   2.412   6.306   1.833
 1438SOL    HW2 5214   2.530   6.412   1.872
 1439SOL     OW 5215   6.413   5.287   0.742
 1439SOL    HW1 5216   6.419   5.294   0.643
 1439SOL    HW2 5217   6.328   5.239   0.767
 1440SOL     OW 5218   3.233   3.305   6.923
 1440SOL    HW1 5219   3.243   3.358   6.839
 1440SOL    HW2 5220   3.247   3.364   7.002
 1441SOL     OW 5221   6.219   0.826   3.455
 1441SOL    HW1 5222   6.226   0.832   3.356
 1441SOL    HW2 5223   6.243   0.914   3.496
 1442SOL     OW 5224   0.191   6.160   0.129
 1442SOL    HW1 5225   0.184   6.240   0.188
 1442SOL    HW2 5226   0.235   6.186   0.043
 1443SOL     OW 5227   0.572   2.623   4.151
 1443SOL    HW1 5228   0.541   2.623   4.056
 1443SOL    HW2 5229   0.641   2.695   4.163
 1444SOL     OW 5230   5.183   5.659   0.769
 1444SOL    HW1 5231   5.099   5.608   0.784
 1444SOL    HW2 5232   5.162   5.756   0.755
 1445SOL     OW 5233   0.968   2.556   2.711
 1445SOL    HW1 5234   0.910   2.600   2.780
 1445SOL    HW2 5235   1.033   2.624   2.675
 1446SOL     OW 5236   5.843   2.101   0.245
 1446SOL    HW1 5237   5.829   2.045   0.326
 1446SOL    HW2 5238   5.816   2.195   0.264
 1447SOL     OW 5239   6.012   6.629   5.122
 1447SOL    HW1 5240   5.979   6.718   5.154
 1447SOL    HW2 5241   6.036   6.572   5.200
 1448SOL     OW 5242   6.985   2.293   5.367
 1448SOL    HW1 5243   6.906   2.298   5.305
 1448SOL    HW2 5244   6.964   2.341   5.452
 1449SOL     OW 5245   0.852   1.565   6.666
 1449SOL    HW1 5246   0.888   1.613   6.586
 1449SOL    HW2 5247   0.841   1.630   6.742
 1450SOL     OW 5248   0.865   2.640   1.343
 1450SOL    HW1 5249   0.902   2.731   1.322
 1450SOL    HW2 5250   0.864   2.585   1.260
 1451SOL     OW 5251   0.566   0.233   2.231
 1451SOL    HW1 5252   0.481   0.275   2.198
 1451SOL    HW2 5253   0.585   0.264   2.324
 1452SOL     OW 5254   4.435   1.595   4.770
 1452SOL    HW1 5255   4.354   1.562   4.818
 1452SOL    HW2 5256   4.408   1.634   4.682
 1453SOL     OW 5257   6.821   3.685   5.637
 1453SOL    HW1 5258   6.882   3.699   5.715
 1453SOL    HW2 5259   6.871   3.642   5.563
 1454SOL     OW 5260   0.531   2.912   2.438
 1454SOL    HW1 5261   0.607   2.850   2.457
 1454SOL    HW2 5262   0.533   2.938   2.342
 1455SOL     OW 5263   1.491   0.414   1.414
 1455SOL    HW1 5264   1.486   0.503   1.368
 1455SOL    HW2 5265   1.586   0.381   1.412
 1456SOL     OW 5266   0.075   5.915   5.488
 1456SOL    HW1 5267   0.036   5.909   5.396
 1456SOL    HW2 5268   0.044   5.837   5.543
 1457SOL     OW 5269   0.657   6.739   1.323
 1457SOL    HW1 5270   0.711   6.679   1.381
 1457SOL    HW2 5271   0.602   6.684   1.260
 1458SOL     OW 5272   5.666   5.810   3.949
 1458SOL    HW1 5273   5.684   5.722   3.992
 1458SOL    HW2 5274   5.680   5.802   3.850
 1459SOL     OW 5275   3.269   5.765   5.598
 1459SOL    HW1 5276   3.241   5.716   5.680
 1459SOL    HW2 5277   3.288   5.860   5.621
 1460SOL     OW 5278   0.421   6.571   5.392
 1460SOL    HW1 5279   0.339   6.579   5.335
 1460SOL    HW2 5280   0.466   6.484   5.375
 1461SOL     OW 5281   5.825   4.827   3.199
 1461SOL    HW1 5282   5.840   4.799   3.294
 1461SOL    HW2 5283   5.775   4.756   3.150
 1462SOL     OW 5284   1.382   0.528   0.139
 1462SOL    HW1 5285   1.455   0.508   0.204
 1462SOL    HW2 5286   1.328   0.606   0.172
 1463SOL     OW 5287   6.907   5.637   6.505
 1463SOL    HW1 5288   6.881   5.709   6.442
 1463SOL    HW2 5289   6.988   5.589   6.470
 1464SOL     OW 5290   0.387   6.515   2.019
 1464SOL    HW1 5291   0.405   6.539   1.923
 1464SOL    HW2 5292   0.466   6.468   2.057
 1465SOL     OW 5293   1.666   0.641   3.523
 1465SOL    HW1 5294   1.691   0.696   3.442
 1465SOL    HW2 5295   1.722   0.558   3.525
 1466SOL     OW 5296   2.273   2.380   2.340
 1466SOL    HW1 5297   2.248   2.397   2.245
 1466SOL    HW2 5298   2.199   2.409   2.400
 1467SOL     OW 5299   1.939   1.862   2.478
 1467SOL    HW1 5300   2.006   1.863   2.404
 1467SOL    HW2 5301   1.945   1.776   2.528
 1468SOL     OW 5302   3.446   6.123   2.341
 1468SOL    HW1 5303   3.446   6.100   2.243
 1468SOL    HW2 5304   3.518   6.071   2.388
 1469SOL     OW 5305   0.727   1.311   2.037
 1469SOL    HW1 5306   0.682   1.318   2.126
 1469SOL    HW2 5307   0.659   1.327   1.965
 1470SOL     OW 5308   1.173   1.985   2.271
 1470SOL    HW1 5309   1.247   2.051   2.287
 1470SOL    HW2 5310   1.198   1.896   2.308
 1471SOL     OW 5311   0.613   0.241   0.836
 1471SOL    HW1 5312   0.653   0.149   0.840
 1471SOL    HW2 5313   0.524   0.241   0.881
 1472SOL     OW 5314   3.311   5.482   5.216
 1472SOL    HW1 5315   3.274   5.574   5.203
 1472SOL    HW2 5316   3.308   5.458   5.313
 1473SOL     OW 5317   4.221   5.445   5.264
 1473SOL    HW1 5318   4.264   5.428   5.353
 1473SOL    HW2 5319   4.213   5.360   5.214
 1474SOL     OW 5320   5.674   5.455   2.271
 1474SOL    HW1 5321   5.693   5.539   2.322
 1474SOL    HW2 5322   5.751   5.392   2.281
 1475SOL     OW 5323   6.190   0.787   1.673
 1475SOL    HW1 5324   6.247   0.754   1.748
 1475SOL    HW2 5325   6.116   0.844   1.708
 1476SOL     OW 5326   3.575   0.943   0.752
 1476SOL    HW1 5327   3.668   0.915   0.728
 1476SOL    HW2 5328   3.560   0.931   0.850
 1477SOL     OW 5329   2.901   0.080   5.944
 1477SOL    HW1 5330   2.969   0.042   5.882
 1477SOL    HW2 5331   2.810   0.069   5.905
 1478SOL     OW 5332   6.017   5.148   5.919
 1478SOL    HW1 5333   6.058   5.134   6.009
 1478SOL    HW2 5334   6.036   5.241   5.888
 1479SOL     OW 5335   1.483   2.221   0.812
 1479SOL    HW1 5336   1.397   2.241   0.859
 1479SOL    HW2 5337   1.525   2.140   0.852
 1480SOL     OW 5338   3.443   0.747   4.957
 1480SOL    HW1 5339   3.490   0.820   5.007
 1480SOL    HW2 5340   3.370   0.787   4.902
 1481SOL     OW 5341   6.522   3.158   6.457
 1481SOL    HW1 5342   6.424   3.137   6.450
 1481SOL    HW2 5343   6.559   3.177   6.366
 1482SOL     OW 5344   4.372   1.492   1.832
 1482SOL    HW1 5345   4.382   1.588   1.803
 1482SOL    HW2 5346   4.286   1.481   1.880
 1483SOL     OW 5347   4.628   1.952   6.282
 1483SOL    HW1 5348   4.583   1.875   6.327
 1483SOL    HW2 5349   4.627   1.939   6.183
 1484SOL     OW 5350   5.639   4.413   4.751
 1484SOL    HW1 5351   5.644   4.332   4.809
 1484SOL    HW2 5352   5.543   4.432   4.729
 1485SOL     OW 5353   3.784   1.248   3.700
 1485SOL    HW1 5354   3.789   1.160   3.748
 1485SOL    HW2 5355   3.785   1.232   3.601
 1486SOL     OW 5356   5.499   1.085   2.667
 1486SOL    HW1 5357   5.581   1.113   2.618
 1486SOL    HW2 5358   5.444   1.166   2.689
 1487SOL     OW 5359   0.408   2.407   6.817
 1487SOL    HW1 5360   0.400   2.335   6.885
 1487SOL    HW2 5361   0.341   2.479   6.836
 1488SOL     OW 5362   5.076   0.795   3.674
 1488SOL    HW1 5363   4.993   0.823   3.722
 1488SOL    HW2 5364   5.134   0.875   3.658
 1489SOL     OW 5365   4.196   4.754   5.111
 1489SOL    HW1 5366   4.206   4.655   5.122
 1489SOL    HW2 5367   4.280   4.800   5.138
 1490SOL     OW 5368   1.026   3.244   1.580
 1490SOL    HW1 5369   1.107   3.228   1.524
 1490SOL    HW2 5370   0.946   3.203   1.536
 1491SOL     OW 5371   6.196   4.364   2.328
 1491SOL    HW1 5372   6.149   4.369   2.240
 1491SOL    HW2 5373   6.149   4.297   2.387
 1492SOL     OW 5374   6.407   0.965   2.441
 1492SOL    HW1 5375   6.403   1.020   2.525
 1492SOL    HW2 5376   6.476   0.893   2.452
 1493SOL     OW 5377   3.507   6.851   5.453
 1493SOL    HW1 5378   3.504   6.890   5.361
 1493SOL    HW2 5379   3.414   6.845   5.490
 1494SOL     OW 5380   4.855   1.492   6.551
 1494SOL    HW1 5381   4.942   1.444   6.550
 1494SOL    HW2 5382   4.870   1.590   6.568
 1495SOL     OW 5383   7.021   3.138   5.234
 1495SOL    HW1 5384   7.018   3.055   5.178
 1495SOL    HW2 5385   0.071   3.198   5.202
 1496SOL     OW 5386   0.231   1.670   1.760
 1496SOL    HW1 5387   0.313   1.641   1.810
 1496SOL    HW2 5388   0.258   1.712   1.673
 1497SOL     OW 5389   5.942   3.417   2.888
 1497SOL    HW1 5390   5.852   3.450   2.916
 1497SOL    HW2 5391   6.010   3.440   2.958
 1498SOL     OW 5392   2.409   5.036   6.998
 1498SOL    HW1 5393   2.324   5.062   6.951
 1498SOL    HW2 5394   2.486   5.079   6.951
 1499SOL     OW 5395   0.668   2.630   5.706
 1499SOL    HW1 5396   0.583   2.619   5.654
 1499SOL    HW2 5397   0.653   2.695   5.780
 1500SOL     OW 5398   0.179   6.854   6.960
 1500SOL    HW1 5399   0.114   6.881   0.009
 1500SOL    HW2 5400   0.150   6.893   6.872
 1501SOL     OW 5401   4.989   2.037   6.633
 1501SOL    HW1 5402   4.928   2.024   6.556
 1501SOL    HW2 5403   4.959   2.116   6.686
 1502SOL     OW 5404   4.235   6.922   0.172
 1502SOL    HW1 5405   4.283   7.004   0.140
 1502SOL    HW2 5406   4.262   6.903   0.267
 1503SOL     OW 5407   0.983   3.145   1.891
 1503SOL    HW1 5408   0.968   3.126   1.988
 1503SOL    HW2 5409   1.036   3.071   1.850
 1504SOL     OW 5410   0.370   6.896   4.489
 1504SOL    HW1 5411   0.366   6.889   4.589
 1504SOL    HW2 5412   0.447   6.955   4.462
 1505SOL     OW 5413   5.296   7.005   4.848
 1505SOL    HW1 5414   5.388   6.972   4.869
 1505SOL    HW2 5415   5.236   6.926   4.830
 1506SOL     OW 5416   0.351   6.092   0.446
 1506SOL    HW1 5417   0.390   6.000   0.441
 1506SOL    HW2 5418   0.252   6.087   0.433
 1507SOL     OW 5419   0.679   2.053   5.706
 1507SOL    HW1 5420   0.620   1.974   5.692
 1507SOL    HW2 5421   0.661   2.122   5.636
 1508SOL     OW 5422   6.473   1.567   1.797
 1508SOL    HW1 5423   6.493   1.489   1.857
 1508SOL    HW2 5424   6.447   1.534   1.707
 1509SOL     OW 5425   3.499   1.982   5.564
 1509SOL    HW1 5426   3.435   1.924   5.614
 1509SOL    HW2 5427   3.568   1.925   5.518
 1510SOL     OW 5428   5.036   1.669   4.976
 1510SOL    HW1 5429   4.979   1.734   5.025
 1510SOL    HW2 5430   5.079   1.714   4.897
 1511SOL     OW 5431   3.757   2.934   3.407
 1511SOL    HW1 5432   3.798   2.927   3.498
 1511SOL    HW2 5433   3.827   2.958   3.340
 1512SOL     OW 5434   0.388   4.928   0.805
 1512SOL    HW1 5435   0.421   5.006   0.858
 1512SOL    HW2 5436   0.290   4.917   0.820
 1513SOL     OW 5437   3.886   0.656   4.896
 1513SOL    HW1 5438   3.917   0.561   4.903
 1513SOL    HW2 5439   3.822   0.676   4.970
 1514SOL     OW 5440   3.845   2.111   5.634
 1514SOL    HW1 5441   3.762   2.162   5.611
 1514SOL    HW2 5442   3.923   2.174   5.637
 1515SOL     OW 5443   5.965   1.537   2.767
 1515SOL    HW1 5444   6.056   1.523   2.729
 1515SOL    HW2 5445   5.973   1.566   2.862
 1516SOL     OW 5446   0.097   6.205   6.594
 1516SOL    HW1 5447   0.097   6.300   6.561
 1516SOL    HW2 5448   0.095   6.205   6.694
 1517SOL     OW 5449   4.399   5.949   3.167
 1517SOL    HW1 5450   4.366   5.863   3.206
 1517SOL    HW2 5451   4.339   6.024   3.195
 1518SOL     OW 5452   0.903   2.367   0.467
 1518SOL    HW1 5453   0.942   2.275   0.464
 1518SOL    HW2 5454   0.972   2.434   0.442
 1519SOL     OW 5455   6.640   4.981   1.778
 1519SOL    HW1 5456   6.619   5.059   1.838
 1519SOL    HW2 5457   6.732   4.992   1.741
 1520SOL     OW 5458   0.221   3.957   1.909
 1520SOL    HW1 5459   0.262   4.015   1.979
 1520SOL    HW2 5460   0.291   3.899   1.868
 1521SOL     OW 5461   1.782   4.162   6.294
 1521SOL    HW1 5462   1.880   4.142   6.298
 1521SOL    HW2 5463   1.760   4.236   6.357
 1522SOL     OW 5464   5.491   6.364   5.056
 1522SOL    HW1 5465   5.485   6.280   5.001
 1522SOL    HW2 5466   5.580   6.407   5.041
 1523SOL     OW 5467   5.025   5.897   0.751
 1523SOL    HW1 5468   5.033   5.997   0.744
 1523SOL    HW2 5469   4.934   5.869   0.721
 1524SOL     OW 5470   2.650   2.014   2.241
 1524SOL    HW1 5471   2.705   1.977   2.316
 1524SOL    HW2 5472   2.661   2.114   2.238
 1525SOL     OW 5473   0.055   2.931   0.628
 1525SOL    HW1 5474   0.122   2.992   0.584
 1525SOL    HW2 5475   7.009   2.903   0.561
 1526SOL     OW 5476   0.217   0.264   0.064
 1526SOL    HW1 5477   0.307   0.306   0.079
 1526SOL    HW2 5478   0.200   0.196   0.135
 1527SOL     OW 5479   4.518   0.484   4.765
 1527SOL    HW1 5480   4.508   0.582   4.746
 1527SOL    HW2 5481   4.581   0.472   4.841
 1528SOL     OW 5482   4.559   5.060   2.815
 1528SOL    HW1 5483   4.643   5.084   2.766
 1528SOL    HW2 5484   4.521   4.975   2.777
 1529SOL     OW 5485   4.765   1.002   0.420
 1529SOL    HW1 5486   4.803   0.935   0.483
 1529SOL    HW2 5487   4.665   0.996   0.420
 1530SOL     OW 5488   3.496   1.976   1.995
 1530SOL    HW1 5489   3.567   2.047   1.985
 1530SOL    HW2 5490   3.441   1.995   2.077
 1531SOL     OW 5491   4.373   0.207   5.505
 1531SOL    HW1 5492   4.275   0.207   5.486
 1531SOL    HW2 5493   4.389   0.177   5.599
 1532SOL     OW 5494   2.996   3.306   6.785
 1532SOL    HW1 5495   3.041   3.386   6.747
 1532SOL    HW2 5496   3.053   3.266   6.857
 1533SOL     OW 5497   6.046   4.106   6.853
 1533SOL    HW1 5498   6.018   4.082   6.760
 1533SOL    HW2 5499   6.106   4.186   6.850
 1534SOL     OW 5500   2.336   4.756   0.177
 1534SOL    HW1 5501   2.312   4.802   0.263
 1534SOL    HW2 5502   2.434   4.763   0.162
 1535SOL     OW 5503   4.814   6.511   4.515
 1535SOL    HW1 5504   4.798   6.579   4.587
 1535SOL    HW2 5505   4.853   6.557   4.435
 1536SOL     OW 5506   3.701   4.902   5.835
 1536SOL    HW1 5507   3.608   4.903   5.799
 1536SOL    HW2 5508   3.730   4.807   5.850
 1537SOL     OW 5509   4.654   6.214   3.647
 1537SOL    HW1 5510   4.675   6.119   3.668
 1537SOL    HW2 5511   4.653   6.228   3.548
 1538SOL     OW 5512   3.960   5.908   6.934
 1538SOL    HW1 5513   3.901   5.974   6.886
 1538SOL    HW2 5514   3.906   5.827   6.957
 1539SOL     OW 5515   4.732   3.928   1.563
 1539SOL    HW1 5516   4.813   3.983   1.580
 1539SOL    HW2 5517   4.732   3.848   1.623
 1540SOL     OW 5518   1.167   6.123   5.969
 1540SOL    HW1 5519   1.217   6.118   6.055
 1540SOL    HW2 5520   1.186   6.041   5.915
 1541SOL     OW 5521   3.896   3.002   3.615
 1541SOL    HW1 5522   3.936   2.980   3.704
 1541SOL    HW2 5523   3.970   3.021   3.550
 1542SOL     OW 5524   5.810   6.736   2.653
 1542SOL    HW1 5525   5.819   6.652   2.706
 1542SOL    HW2 5526   5.862   6.809   2.697
 1543SOL     OW 5527   3.441   4.982   5.469
 1543SOL    HW1 5528   3.487   5.066   5.439
 1543SOL    HW2 5529   3.386   4.945   5.395
 1544SOL     OW 5530   2.881   3.486   2.448
 1544SOL    HW1 5531   2.872   3.522   2.541
 1544SOL    HW2 5532   2.927   3.397   2.451
 1545SOL     OW 5533   5.065   0.636   3.459
 1545SOL    HW1 5534   5.051   0.698   3.537
 1545SOL    HW2 5535   5.062   0.689   3.374
 1546SOL     OW 5536   3.682   6.434   5.847
 1546SOL    HW1 5537   3.779   6.409   5.846
 1546SOL    HW2 5538   3.649   6.436   5.941
 1547SOL     OW 5539   1.698   3.839   3.244
 1547SOL    HW1 5540   1.734   3.861   3.335
 1547SOL    HW2 5541   1.678   3.741   3.239
 1548SOL     OW 5542   5.016   3.889   5.805
 1548SOL    HW1 5543   5.081   3.871   5.731
 1548SOL    HW2 5544   5.054   3.960   5.866
 1549SOL     OW 5545   4.864   1.311   2.274
 1549SOL    HW1 5546   4.859   1.410   2.262
 1549SOL    HW2 5547   4.950   1.287   2.321
 1550SOL     OW 5548   3.167   3.661   6.940
 1550SOL    HW1 5549   3.077   3.703   6.937
 1550SOL    HW2 5550   3.217   3.695   7.020
 1551SOL     OW 5551   2.440   4.621   5.964
 1551SOL    HW1 5552   2.523   4.601   5.912
 1551SOL    HW2 5553   2.370   4.657   5.902
 1552SOL     OW 5554   0.584   5.758   0.090
 1552SOL    HW1 5555   0.507   5.811   0.054
 1552SOL    HW2 5556   0.647   5.737   0.015
 1553SOL     OW 5557   0.111   1.627   5.447
 1553SOL    HW1 5558   0.118   1.528   5.435
 1553SOL    HW2 5559   0.199   1.664   5.476
 1554SOL     OW 5560   4.448   2.253   3.098
 1554SOL    HW1 5561   4.539   2.271   3.059
 1554SOL    HW2 5562   4.398   2.191   3.038
 1555SOL     OW 5563   4.843   2.272   6.737
 1555SOL    HW1 5564   4.800   2.297   6.650
 1555SOL    HW2 5565   4.869   2.355   6.786
 1556SOL     OW 5566   3.822   1.244   0.509
 1556SOL    HW1 5567   3.869   1.310   0.568
 1556SOL    HW2 5568   3.723   1.249   0.526
 1557SOL     OW 5569   2.721   2.004   6.361
 1557SOL    HW1 5570   2.733   2.011   6.262
 1557SOL    HW2 5571   2.804   1.966   6.402
 1558SOL     OW 5572   5.329   0.671   4.603
 1558SOL    HW1 5573   5.379   0.656   4.519
 1558SOL    HW2 5574   5.236   0.635   4.594
 1559SOL     OW 5575   0.665   2.526   0.165
 1559SOL    HW1 5576   0.674   2.605   0.104
 1559SOL    HW2 5577   0.727   2.454   0.137
 1560SOL     OW 5578   0.902   1.018   5.684
 1560SOL    HW1 5579   0.865   0.935   5.643
 1560SOL    HW2 5580   0.895   1.012   5.784
 1561SOL     OW 5581   6.314   6.793   3.946
 1561SOL    HW1 5582   6.263   6.811   4.031
 1561SOL    HW2 5583   6.282   6.707   3.906
 1562SOL     OW 5584   3.757   5.884   2.912
 1562SOL    HW1 5585   3.841   5.849   2.952
 1562SOL    HW2 5586   3.696   5.916   2.985
 1563SOL     OW 5587   1.804   0.345   6.058
 1563SOL    HW1 5588   1.799   0.422   5.995
 1563SOL    HW2 5589   1.866   0.276   6.021
 1564SOL     OW 5590   1.200   2.679   3.363
 1564SOL    HW1 5591   1.238   2.587   3.366
 1564SOL    HW2 5592   1.116   2.681   3.418
 1565SOL     OW 5593   4.347   4.999   4.751
 1565SOL    HW1 5594   4.333   4.900   4.748
 1565SOL    HW2 5595   4.261   5.045   4.774
 1566SOL     OW 5596   5.348   5.213   3.740
 1566SOL    HW1 5597   5.411   5.288   3.720
 1566SOL    HW2 5598   5.399   5.135   3.778
 1567SOL     OW 5599   5.997   5.720   0.246
 1567SOL    HW1 5600   6.091   5.752   0.245
 1567SOL    HW2 5601   5.935   5.797   0.233
 1568SOL     OW 5602   1.985   6.258   0.777
 1568SOL    HW1 5603   1.935   6.214   0.702
 1568SOL    HW2 5604   2.014   6.349   0.749
 1569SOL     OW 5605   4.249   6.086   3.553
 1569SOL    HW1 5606   4.298   6.113   3.636
 1569SOL    HW2 5607   4.259   5.987   3.539
 1570SOL     OW 5608   1.954   0.200   0.448
 1570SOL    HW1 5609   1.891   0.262   0.495
 1570SOL    HW2 5610   2.025   0.254   0.402
 1571SOL     OW 5611   5.404   2.027   1.452
 1571SOL    HW1 5612   5.481   1.985   1.499
 1571SOL    HW2 5613   5.318   1.987   1.485
 1572SOL     OW 5614   0.648   6.932   0.815
 1572SOL    HW1 5615   0.636   6.833   0.802
 1572SOL    HW2 5616   0.724   6.948   0.879
 1573SOL     OW 5617   5.168   3.459   1.568
 1573SOL    HW1 5618   5.184   3.532   1.634
 1573SOL    HW2 5619   5.240   3.390   1.576
 1574SOL     OW 5620   6.888   0.886   1.920
 1574SOL    HW1 5621   6.962   0.853   1.860
 1574SOL    HW2 5622   6.824   0.811   1.937
 1575SOL     OW 5623   3.514   1.453   1.095
 1575SOL    HW1 5624   3.423   1.431   1.130
 1575SOL    HW2 5625   3.506   1.519   1.021
 1576SOL     OW 5626   1.621   6.992   3.336
 1576SOL    HW1 5627   1.707   6.969   3.380
 1576SOL    HW2 5628   1.567   0.028   3.397
 1577SOL     OW 5629   2.909   1.128   4.826
 1577SOL    HW1 5630   2.893   1.100   4.732
 1577SOL    HW2 5631   2.848   1.204   4.850
 1578SOL     OW 5632   6.183   2.784   5.554
 1578SOL    HW1 5633   6.177   2.706   5.491
 1578SOL    HW2 5634   6.240   2.855   5.514
 1579SOL     OW 5635   0.329   1.312   2.105
 1579SOL    HW1 5636   0.275   1.276   2.180
 1579SOL    HW2 5637   0.301   1.269   2.019
 1580SOL     OW 5638   3.091   3.768   4.821
 1580SOL    HW1 5639   3.176   3.715   4.820
 1580SOL    HW2 5640   3.016   3.711   4.788
 1581SOL     OW 5641   0.912   3.435   4.736
 1581SOL    HW1 5642   0.964   3.494   4.674
 1581SOL    HW2 5643   0.966   3.418   4.819
 1582SOL     OW 5644   1.595   0.134   3.903
 1582SOL    HW1 5645   1.636   0.069   3.838
 1582SOL    HW2 5646   1.496   0.118   3.908
 1583SOL     OW 5647   1.295   4.863   3.432
 1583SOL    HW1 5648   1.201   4.837   3.451
 1583SOL    HW2 5649   1.302   4.900   3.339
 1584SOL     OW 5650   1.081   6.744   5.206
 1584SOL    HW1 5651   1.012   6.685   5.248
 1584SOL    HW2 5652   1.118   6.699   5.125
 1585SOL     OW 5653   6.164   1.728   4.056
 1585SOL    HW1 5654   6.209   1.800   4.002
 1585SOL    HW2 5655   6.227   1.652   4.071
 1586SOL     OW 5656   3.789   4.901   1.868
 1586SOL    HW1 5657   3.708   4.844   1.884
 1586SOL    HW2 5658   3.871   4.844   1.870
 1587SOL     OW 5659   3.366   6.224   6.683
 1587SOL    HW1 5660   3.283   6.278   6.698
 1587SOL    HW2 5661   3.373   6.153   6.753
 1588SOL     OW 5662   4.614   1.550   3.232
 1588SOL    HW1 5663   4.612   1.451   3.242
 1588SOL    HW2 5664   4.522   1.587   3.239
 1589SOL     OW 5665   5.562   3.728   1.369
 1589SOL    HW1 5666   5.467   3.701   1.380
 1589SOL    HW2 5667   5.616   3.648   1.341
 1590SOL     OW 5668   3.502   6.101   6.468
 1590SOL    HW1 5669   3.535   6.010   6.493
 1590SOL    HW2 5670   3.442   6.136   6.540
 1591SOL     OW 5671   6.332   5.138   2.852
 1591SOL    HW1 5672   6.376   5.049   2.841
 1591SOL    HW2 5673   6.390   5.209   2.811
 1592SOL     OW 5674   2.091   4.393   0.084
 1592SOL    HW1 5675   2.064   4.300   0.061
 1592SOL    HW2 5676   2.011   4.453   0.083
 1593SOL     OW 5677   1.012   6.622   4.227
 1593SOL    HW1 5678   1.071   6.696   4.259
 1593SOL    HW2 5679   1.032   6.539   4.280
 1594SOL     OW 5680   0.379   6.067   2.232
 1594SOL    HW1 5681   0.390   5.970   2.255
 1594SOL    HW2 5682   0.456   6.118   2.270
 1595SOL     OW 5683   1.117   5.381   0.260
 1595SOL    HW1 5684   1.180   5.344   0.192
 1595SOL    HW2 5685   1.040   5.319   0.272
 1596SOL     OW 5686   0.504   2.601   3.877
 1596SOL    HW1 5687   0.417   2.568   3.912
 1596SOL    HW2 5688   0.491   2.642   3.787
 1597SOL     OW 5689   1.742   6.528   6.686
 1597SOL    HW1 5690   1.765   6.520   6.589
 1597SOL    HW2 5691   1.677   6.456   6.710
 1598SOL     OW 5692   0.913   3.916   6.281
 1598SOL    HW1 5693   0.971   3.991   6.250
 1598SOL    HW2 5694   0.825   3.920   6.234
 1599SOL     OW 5695   4.812   4.665   5.753
 1599SOL    HW1 5696   4.771   4.747   5.713
 1599SOL    HW2 5697   4.759   4.637   5.833
 1600SOL     OW 5698   5.242   1.518   4.441
 1600SOL    HW1 5699   5.314   1.503   4.509
 1600SOL    HW2 5700   5.201   1.608   4.455
 1601SOL     OW 5701   0.359   4.918   4.832
 1601SOL    HW1 5702   0.301   4.983   4.784
 1601SOL    HW2 5703   0.396   4.961   4.915
 1602SOL     OW 5704   2.597   5.651   3.727
 1602SOL    HW1 5705   2.671   5.627   3.790
 1602SOL    HW2 5706   2.564   5.568   3.682
 1603SOL     OW 5707   6.854   6.472   2.327
 1603SOL    HW1 5708   6.828   6.538   2.397
 1603SOL    HW2 5709   6.953   6.455   2.332
 1604SOL     OW 5710   5.999   4.609   1.091
 1604SOL    HW1 5711   5.944   4.661   1.157
 1604SOL    HW2 5712   6.086   4.656   1.077
 1605SOL     OW 5713   6.705   6.168   1.714
 1605SOL    HW1 5714   6.746   6.096   1.770
 1605SOL    HW2 5715   6.710   6.141   1.618
 1606SOL     OW 5716   3.811   0.829   5.196
 1606SOL    HW1 5717   3.800   0.736   5.159
 1606SOL    HW2 5718   3.758   0.893   5.141
 1607SOL     OW 5719   3.970   1.696   1.146
 1607SOL    HW1 5720   3.949   1.598   1.151
 1607SOL    HW2 5721   3.954   1.738   1.235
 1608SOL     OW 5722   1.243   0.308   3.870
 1608SOL    HW1 5723   1.316   0.375   3.866
 1608SOL    HW2 5724   1.203   0.296   3.778
 1609SOL     OW 5725   3.661   0.365   0.514
 1609SOL    HW1 5726   3.568   0.400   0.519
 1609SOL    HW2 5727   3.675   0.298   0.587
 1610SOL     OW 5728   5.549   4.507   6.792
 1610SOL    HW1 5729   5.517   4.448   6.866
 1610SOL    HW2 5730   5.640   4.542   6.813
 1611SOL     OW 5731   2.402   3.778   1.543
 1611SOL    HW1 5732   2.452   3.713   1.601
 1611SOL    HW2 5733   2.411   3.752   1.447
 1612SOL     OW 5734   2.593   0.800   5.089
 1612SOL    HW1 5735   2.646   0.839   5.165
 1612SOL    HW2 5736   2.560   0.874   5.030
 1613SOL     OW 5737   1.867   5.182   1.516
 1613SOL    HW1 5738   1.959   5.206   1.548
 1613SOL    HW2 5739   1.874   5.111   1.446
 1614SOL     OW 5740   6.212   3.501   0.144
 1614SOL    HW1 5741   6.120   3.464   0.137
 1614SOL    HW2 5742   6.274   3.449   0.086
 1615SOL     OW 5743   6.659   5.060   1.057
 1615SOL    HW1 5744   6.710   5.146   1.061
 1615SOL    HW2 5745   6.701   4.993   1.118
 1616SOL     OW 5746   3.303   1.720   5.026
 1616SOL    HW1 5747   3.320   1.632   5.071
 1616SOL    HW2 5748   3.356   1.791   5.072
 1617SOL     OW 5749   5.929   0.507   2.227
 1617SOL    HW1 5750   5.833   0.524   2.203
 1617SOL    HW2 5751   5.956   0.567   2.302
 1618SOL     OW 5752   1.764   4.151   1.934
 1618SOL    HW1 5753   1.740   4.158   2.031
 1618SOL    HW2 5754   1.826   4.225   1.909
 1619SOL     OW 5755   1.036   2.294   2.398
 1619SOL    HW1 5756   0.986   2.291   2.485
 1619SOL    HW2 5757   0.976   2.262   2.324
 1620SOL     OW 5758   2.747   5.093   1.450
 1620SOL    HW1 5759   2.792   5.155   1.514
 1620SOL    HW2 5760   2.817   5.041   1.400
 1621SOL     OW 5761   0.549   1.359   0.466
 1621SOL    HW1 5762   0.451   1.378   0.461
 1621SOL    HW2 5763   0.566   1.286   0.532
 1622SOL     OW 5764   0.535   2.628   4.642
 1622SOL    HW1 5765   0.508   2.673   4.727
 1622SOL    HW2 5766   0.635   2.617   4.640
 1623SOL     OW 5767   2.367   3.510   5.512
 1623SOL    HW1 5768   2.396   3.556   5.428
 1623SOL    HW2 5769   2.447   3.475   5.560
 1624SOL     OW 5770   2.666   1.109   5.140
 1624SOL    HW1 5771   2.733   1.175   5.175
 1624SOL    HW2 5772   2.670   1.025   5.194
 1625SOL     OW 5773   1.222   5.539   1.810
 1625SOL    HW1 5774   1.197   5.624   1.858
 1625SOL    HW2 5775   1.187   5.542   1.717
 1626SOL     OW 5776   3.410   2.492   6.050
 1626SOL    HW1 5777   3.419   2.459   5.955
 1626SOL    HW2 5778   3.324   2.541   6.060
 1627SOL     OW 5779   6.993   2.915   3.658
 1627SOL    HW1 5780   6.916   2.898   3.596
 1627SOL    HW2 5781   0.006   3.007   3.642
 1628SOL     OW 5782   4.689   4.457   0.721
 1628SOL    HW1 5783   4.615   4.391   0.707
 1628SOL    HW2 5784   4.652   4.550   0.720
 1629SOL     OW 5785   2.843   1.662   3.768
 1629SOL    HW1 5786   2.761   1.718   3.751
 1629SOL    HW2 5787   2.844   1.634   3.864
 1630SOL     OW 5788   1.201   5.904   5.794
 1630SOL    HW1 5789   1.197   5.804   5.787
 1630SOL    HW2 5790   1.166   5.945   5.710
 1631SOL     OW 5791   0.842   1.954   6.475
 1631SOL    HW1 5792   0.829   1.872   6.531
 1631SOL    HW2 5793   0.931   1.994   6.495
 1632SOL     OW 5794   0.036   1.679   6.304
 1632SOL    HW1 5795   6.985   1.741   6.334
 1632SOL    HW2 5796   0.022   1.589   6.346
 1633SOL     OW 5797   5.247   2.681   4.371
 1633SOL    HW1 5798   5.236   2.674   4.272
 1633SOL    HW2 5799   5.157   2.679   4.415
 1634SOL     OW 5800   4.390   5.013   6.997
 1634SOL    HW1 5801   4.322   5.080   0.005
 1634SOL    HW2 5802   4.424   4.963   0.054
 1635SOL     OW 5803   0.225   6.046   5.892
 1635SOL    HW1 5804   0.289   6.068   5.818
 1635SOL    HW2 5805   0.207   5.948   5.892
 1636SOL     OW 5806   2.621   4.105   1.684
 1636SOL    HW1 5807   2.676   4.185   1.659
 1636SOL    HW2 5808   2.674   4.022   1.666
 1637SOL     OW 5809   0.300   0.374   3.117
 1637SOL    HW1 5810   0.340   0.341   3.202
 1637SOL    HW2 5811   0.333   0.320   3.040
 1638SOL     OW 5812   0.134   4.547   3.792
 1638SOL    HW1 5813   0.177   4.598   3.866
 1638SOL    HW2 5814   0.143   4.598   3.707
 1639SOL     OW 5815   4.596   6.887   3.034
 1639SOL    HW1 5816   4.521   6.822   3.046
 1639SOL    HW2 5817   4.579   6.945   2.955
 1640SOL     OW 5818   5.806   1.516   0.637
 1640SOL    HW1 5819   5.746   1.540   0.560
 1640SOL    HW2 5820   5.825   1.598   0.691
 1641SOL     OW 5821   5.133   2.405   4.506
 1641SOL    HW1 5822   5.152   2.377   4.412
 1641SOL    HW2 5823   5.046   2.365   4.535
 1642SOL     OW 5824   6.258   3.889   6.232
 1642SOL    HW1 5825   6.206   3.869   6.149
 1642SOL    HW2 5826   6.226   3.829   6.306
 1643SOL     OW 5827   2.478   4.870   3.709
 1643SOL    HW1 5828   2.527   4.934   3.769
 1643SOL    HW2 5829   2.544   4.807   3.668
 1644SOL     OW 5830   0.468   2.946   1.359
 1644SOL    HW1 5831   0.527   2.983   1.431
 1644SOL    HW2 5832   0.388   2.903   1.401
 1645SOL     OW 5833   2.847   5.604   5.973
 1645SOL    HW1 5834   2.837   5.665   5.894
 1645SOL    HW2 5835   2.852   5.509   5.942
 1646SOL     OW 5836   2.623   5.538   0.758
 1646SOL    HW1 5837   2.653   5.524   0.664
 1646SOL    HW2 5838   2.554   5.611   0.759
 1647SOL     OW 5839   6.454   2.676   4.867
 1647SOL    HW1 5840   6.412   2.758   4.907
 1647SOL    HW2 5841   6.553   2.682   4.876
 1648SOL     OW 5842   6.102   5.909   0.670
 1648SOL    HW1 5843   6.171   5.837   0.671
 1648SOL    HW2 5844   6.101   5.955   0.758
 1649SOL     OW 5845   3.616   6.999   4.509
 1649SOL    HW1 5846   3.612   6.907   4.548
 1649SOL    HW2 5847   3.655   0.040   4.575
 1650SOL     OW 5848   1.930   6.402   5.594
 1650SOL    HW1 5849   1.889   6.448   5.515
 1650SOL    HW2 5850   1.913   6.455   5.677
 1651SOL     OW 5851   0.615   1.421   1.735
 1651SOL    HW1 5852   0.628   1.507   1.785
 1651SOL    HW2 5853   0.683   1.412   1.663
 1652SOL     OW 5854   1.548   3.319   1.953
 1652SOL    HW1 5855   1.476   3.262   1.913
 1652SOL    HW2 5856   1.508   3.377   2.024
 1653SOL     OW 5857   1.016   6.798   1.308
 1653SOL    HW1 5858   0.939   6.844   1.353
 1653SOL    HW2 5859   0.987   6.763   1.220
 1654SOL     OW 5860   6.737   3.214   2.179
 1654SOL    HW1 5861   6.753   3.311   2.162
 1654SOL    HW2 5862   6.811   3.160   2.140
 1655SOL     OW 5863   6.537   2.359   5.282
 1655SOL    HW1 5864   6.473   2.393   5.213
 1655SOL    HW2 5865   6.486   2.319   5.358
 1656SOL     OW 5866   2.607   4.626   2.287
 1656SOL    HW1 5867   2.581   4.719   2.260
 1656SOL    HW2 5868   2.554   4.560   2.234
 1657SOL     OW 5869   0.021   0.674   3.982
 1657SOL    HW1 5870   0.117   0.678   3.952
 1657SOL    HW2 5871   6.983   0.677   3.903
 1658SOL     OW 5872   0.845   6.990   1.483
 1658SOL    HW1 5873   0.863   0.027   1.561
 1658SOL    HW2 5874   0.747   6.970   1.477
 1659SOL     OW 5875   3.685   0.952   5.627
 1659SOL    HW1 5876   3.705   0.987   5.719
 1659SOL    HW2 5877   3.642   1.024   5.573
 1660SOL     OW 5878   0.942   5.446   3.989
 1660SOL    HW1 5879   0.895   5.439   3.901
 1660SOL    HW2 5880   0.955   5.542   4.013
 1661SOL     OW 5881   3.290   1.421   2.249
 1661SOL    HW1 5882   3.246   1.477   2.319
 1661SOL    HW2 5883   3.354   1.478   2.197
 1662SOL     OW 5884   6.862   0.689   3.790
 1662SOL    HW1 5885   6.774   0.654   3.822
 1662SOL    HW2 5886   6.848   0.745   3.708
 1663SOL     OW 5887   3.705   0.188   3.174
 1663SOL    HW1 5888   3.746   0.151   3.258
 1663SOL    HW2 5889   3.689   0.113   3.109
 1664SOL     OW 5890   2.682   6.475   3.932
 1664SOL    HW1 5891   2.637   6.428   4.009
 1664SOL    HW2 5892   2.628   6.462   3.849
 1665SOL     OW 5893   0.547   1.276   3.259
 1665SOL    HW1 5894   0.503   1.232   3.337
 1665SOL    HW2 5895   0.487   1.347   3.222
 1666SOL     OW 5896   5.365   3.341   0.618
 1666SOL    HW1 5897   5.348   3.252   0.574
 1666SOL    HW2 5898   5.341   3.335   0.715
 1667SOL     OW 5899   6.746   6.970   1.313
 1667SOL    HW1 5900   6.821   6.986   1.249
 1667SOL    HW2 5901   6.762   6.884   1.361
 1668SOL     OW 5902   5.341   5.875   5.548
 1668SOL    HW1 5903   5.311   5.848   5.639
 1668SOL    HW2 5904   5.305   5.966   5.527
 1669SOL     OW 5905   6.968   5.955   6.114
 1669SOL    HW1 5906   0.012   6.017   6.072
 1669SOL    HW2 5907   6.877   5.996   6.110
 1670SOL     OW 5908   6.728   4.367   6.354
 1670SOL    HW1 5909   6.795   4.423   6.403
 1670SOL    HW2 5910   6.727   4.394   6.257
 1671SOL     OW 5911   4.551   2.949   0.838
 1671SOL    HW1 5912   4.546   3.046   0.810
 1671SOL    HW2 5913   4.625   2.904   0.788
 1672SOL     OW 5914   1.903   3.498   1.404
 1672SOL    HW1 5915   1.901   3.597   1.417
 1672SOL    HW2 5916   1.980   3.475   1.344
 1673SOL     OW 5917   6.717   2.244   4.040
 1673SOL    HW1 5918   6.635   2.290   4.007
 1673SOL    HW2 5919   6.701   2.146   4.047
 1674SOL     OW 5920   0.843   4.104   2.637
 1674SOL    HW1 5921   0.823   4.006   2.629
 1674SOL    HW2 5922   0.813   4.136   2.727
 1675SOL     OW 5923   4.330   0.848   5.700
 1675SOL    HW1 5924   4.328   0.925   5.637
 1675SOL    HW2 5925   4.242   0.801   5.697
 1676SOL     OW 5926   2.024   1.141   2.088
 1676SOL    HW1 5927   1.995   1.046   2.081
 1676SOL    HW2 5928   2.091   1.150   2.161
 1677SOL     OW 5929   3.844   3.619   5.470
 1677SOL    HW1 5930   3.776   3.683   5.505
 1677SOL    HW2 5931   3.887   3.571   5.546
 1678SOL     OW 5932   4.575   5.012   5.217
 1678SOL    HW1 5933   4.547   5.026   5.122
 1678SOL    HW2 5934   4.606   5.099   5.255
 1679SOL     OW 5935   2.145   2.905   5.191
 1679SOL    HW1 5936   2.071   2.961   5.229
 1679SOL    HW2 5937   2.206   2.963   5.137
 1680SOL     OW 5938   0.442   2.912   4.445
 1680SOL    HW1 5939   0.448   2.821   4.404
 1680SOL    HW2 5940   0.346   2.935   4.460
 1681SOL     OW 5941   6.479   5.713   0.289
 1681SOL    HW1 5942   6.401   5.776   0.283
 1681SOL    HW2 5943   6.482   5.672   0.381
 1682SOL     OW 5944   0.327   2.027   5.005
 1682SOL    HW1 5945   0.324   1.965   4.926
 1682SOL    HW2 5946   0.418   2.066   5.014
 1683SOL     OW 5947   4.052   5.426   1.029
 1683SOL    HW1 5948   3.994   5.445   0.950
 1683SOL    HW2 5949   4.142   5.396   0.998
 1684SOL     OW 5950   1.298   6.197   2.776
 1684SOL    HW1 5951   1.353   6.226   2.854
 1684SOL    HW2 5952   1.285   6.274   2.714
 1685SOL     OW 5953   2.561   1.092   6.163
 1685SOL    HW1 5954   2.615   1.014   6.195
 1685SOL    HW2 5955   2.521   1.069   6.074
 1686SOL     OW 5956   2.677   5.032   5.090
 1686SOL    HW1 5957   2.585   5.051   5.125
 1686SOL    HW2 5958   2.690   5.076   5.002
 1687SOL     OW 5959   2.499   3.186   1.309
 1687SOL    HW1 5960   2.469   3.278   1.335
 1687SOL    HW2 5961   2.426   3.140   1.258
 1688SOL     OW 5962   1.486   2.593   3.721
 1688SOL    HW1 5963   1.533   2.681   3.730
 1688SOL    HW2 5964   1.549   2.519   3.747
 1689SOL     OW 5965   4.955   0.755   2.370
 1689SOL    HW1 5966   4.871   0.744   2.317
 1689SOL    HW2 5967   4.943   0.713   2.460
 1690SOL     OW 5968   1.748   3.136   3.394
 1690SOL    HW1 5969   1.785   3.043   3.403
 1690SOL    HW2 5970   1.714   3.149   3.301
 1691SOL     OW 5971   5.628   4.502   3.452
 1691SOL    HW1 5972   5.633   4.403   3.440
 1691SOL    HW2 5973   5.555   4.539   3.395
 1692SOL     OW 5974   5.544   0.540   1.618
 1692SOL    HW1 5975   5.525   0.456   1.567
 1692SOL    HW2 5976   5.517   0.619   1.563
 1693SOL     OW 5977   0.226   2.246   2.391
 1693SOL    HW1 5978   0.143   2.236   2.445
 1693SOL    HW2 5979   0.213   2.203   2.302
 1694SOL     OW 5980   5.175   0.553   3.828
 1694SOL    HW1 5981   5.245   0.482   3.815
 1694SOL    HW2 5982   5.187   0.625   3.760
 1695SOL     OW 5983   2.881   1.688   5.863
 1695SOL    HW1 5984   2.835   1.646   5.941
 1695SOL    HW2 5985   2.956   1.746   5.895
 1696SOL     OW 5986   5.001   4.905   0.632
 1696SOL    HW1 5987   4.904   4.913   0.607
 1696SOL    HW2 5988   5.010   4.852   0.716
 1697SOL     OW 5989   5.245   6.813   1.916
 1697SOL    HW1 5990   5.236   6.913   1.920
 1697SOL    HW2 5991   5.303   6.788   1.839
 1698SOL     OW 5992   5.307   0.919   0.163
 1698SOL    HW1 5993   5.375   0.986   0.134
 1698SOL    HW2 5994   5.300   0.918   0.263
 1699SOL     OW 5995   2.923   1.236   0.933
 1699SOL    HW1 5996   2.912   1.145   0.971
 1699SOL    HW2 5997   3.009   1.241   0.882
 1700SOL     OW 5998   5.749   2.762   3.228
 1700SOL    HW1 5999   5.675   2.697   3.210
 1700SOL    HW2 6000   5.795   2.785   3.141
 1701SOL     OW 6001   5.365   4.052   5.897
 1701SOL    HW1 6002   5.385   4.105   5.814
 1701SOL    HW2 6003   5.440   3.988   5.914
 1702SOL     OW 6004   6.596   3.135   0.493
 1702SOL    HW1 6005   6.536   3.086   0.430
 1702SOL    HW2 6006   6.606   3.082   0.577
 1703SOL     OW 6007   3.983   3.169   2.537
 1703SOL    HW1 6008   3.890   3.151   2.570
 1703SOL    HW2 6009   4.037   3.209   2.611
 1704SOL     OW 6010   0.943   1.433   1.931
 1704SOL    HW1 6011   0.855   1.413   1.975
 1704SOL    HW2 6012   1.009   1.463   2.000
 1705SOL     OW 6013   3.646   2.552   1.464
 1705SOL    HW1 6014   3.561   2.501   1.454
 1705SOL    HW2 6015   3.723   2.496   1.434
 1706SOL     OW 6016   4.688   0.142   1.301
 1706SOL    HW1 6017   4.705   0.072   1.370
 1706SOL    HW2 6018   4.604   0.120   1.251
 1707SOL     OW 6019   4.709   1.567   2.612
 1707SOL    HW1 6020   4.670   1.576   2.520
 1707SOL    HW2 6021   4.640   1.592   2.680
 1708SOL     OW 6022   4.842   4.823   2.131
 1708SOL    HW1 6023   4.883   4.875   2.206
 1708SOL    HW2 6024   4.902   4.827   2.051
 1709SOL     OW 6025   2.270   5.541   1.735
 1709SOL    HW1 6026   2.172   5.528   1.752
 1709SOL    HW2 6027   2.284   5.566   1.639
 1710SOL     OW 6028   5.959   4.885   3.813
 1710SOL    HW1 6029   5.925   4.822   3.883
 1710SOL    HW2 6030   5.890   4.897   3.742
 1711SOL     OW 6031   1.182   5.277   4.707
 1711SOL    HW1 6032   1.097   5.310   4.666
 1711SOL    HW2 6033   1.244   5.247   4.635
 1712SOL     OW 6034   0.419   3.073   6.172
 1712SOL    HW1 6035   0.509   3.044   6.204
 1712SOL    HW2 6036   0.365   2.992   6.149
 1713SOL     OW 6037   3.945   2.177   1.492
 1713SOL    HW1 6038   3.948   2.092   1.439
 1713SOL    HW2 6039   3.860   2.180   1.545
 1714SOL     OW 6040   4.240   1.725   5.852
 1714SOL    HW1 6041   4.150   1.692   5.883
 1714SOL    HW2 6042   4.233   1.756   5.757
 1715SOL     OW 6043   6.985   3.921   2.428
 1715SOL    HW1 6044   0.018   3.927   2.345
 1715SOL    HW2 6045   6.909   3.986   2.423
 1716SOL     OW 6046   4.557   0.357   2.641
 1716SOL    HW1 6047   4.625   0.283   2.645
 1716SOL    HW2 6048   4.568   0.417   2.720
 1717SOL     OW 6049   2.375   6.230   6.330
 1717SOL    HW1 6050   2.418   6.153   6.378
 1717SOL    HW2 6051   2.440   6.305   6.322
 1718SOL     OW 6052   1.999   2.316   2.174
 1718SOL    HW1 6053   2.073   2.365   2.127
 1718SOL    HW2 6054   1.927   2.381   2.199
 1719SOL     OW 6055   2.131   4.086   0.966
 1719SOL    HW1 6056   2.054   4.117   1.021
 1719SOL    HW2 6057   2.217   4.107   1.013
 1720SOL     OW 6058   0.765   1.949   0.407
 1720SOL    HW1 6059   0.691   1.979   0.467
 1720SOL    HW2 6060   0.736   1.961   0.312
 1721SOL     OW 6061   1.107   6.398   2.257
 1721SOL    HW1 6062   1.059   6.422   2.341
 1721SOL    HW2 6063   1.167   6.319   2.275
 1722SOL     OW 6064   4.570   2.070   4.574
 1722SOL    HW1 6065   4.594   1.976   4.593
 1722SOL    HW2 6066   4.470   2.079   4.572
 1723SOL     OW 6067   6.819   2.619   2.303
 1723SOL    HW1 6068   6.898   2.563   2.328
 1723SOL    HW2 6069   6.735   2.575   2.334
 1724SOL     OW 6070   5.875   1.764   1.110
 1724SOL    HW1 6071   5.868   1.846   1.054
 1724SOL    HW2 6072   5.910   1.788   1.200
 1725SOL     OW 6073   2.188   4.775   6.550
 1725SOL    HW1 6074   2.220   4.712   6.621
 1725SOL    HW2 6075   2.226   4.748   6.462
 1726SOL     OW 6076   5.536   4.915   5.671
 1726SOL    HW1 6077   5.460   4.919   5.607
 1726SOL    HW2 6078   5.610   4.861   5.632
 1727SOL     OW 6079   3.864   3.436   4.468
 1727SOL    HW1 6080   3.774   3.429   4.424
 1727SOL    HW2 6081   3.852   3.467   4.562
 1728SOL     OW 6082   5.050   5.164   5.622
 1728SOL    HW1 6083   5.111   5.162   5.543
 1728SOL    HW2 6084   5.087   5.106   5.694
 1729SOL     OW 6085   1.791   3.375   3.915
 1729SOL    HW1 6086   1.748   3.429   3.988
 1729SOL    HW2 6087   1.888   3.363   3.936
 1730SOL     OW 6088   6.823   0.183   5.440
 1730SOL    HW1 6089   6.818   0.246   5.363
 1730SOL    HW2 6090   6.743   0.196   5.498
 1731SOL     OW 6091   6.908   4.997   2.155
 1731SOL    HW1 6092   6.948   5.088   2.157
 1731SOL    HW2 6093   6.808   5.003   2.159
 1732SOL     OW 6094   2.491   4.504   5.692
 1732SOL    HW1 6095   2.475   4.409   5.717
 1732SOL    HW2 6096   2.589   4.519   5.680
 1733SOL     OW 6097   1.067   4.407   2.440
 1733SOL    HW1 6098   1.042   4.312   2.457
 1733SOL    HW2 6099   1.158   4.425   2.476
 1734SOL     OW 6100   4.691   3.064   1.598
 1734SOL    HW1 6101   4.723   2.972   1.575
 1734SOL    HW2 6102   4.692   3.076   1.697
 1735SOL     OW 6103   5.551   5.899   1.429
 1735SOL    HW1 6104   5.512   5.957   1.500
 1735SOL    HW2 6105   5.638   5.861   1.459
 1736SOL     OW 6106   4.441   2.570   1.111
 1736SOL    HW1 6107   4.411   2.531   1.024
 1736SOL    HW2 6108   4.363   2.610   1.159
 1737SOL     OW 6109   2.709   1.090   4.069
 1737SOL    HW1 6110   2.698   1.173   4.123
 1737SOL    HW2 6111   2.730   1.013   4.130
 1738SOL     OW 6112   1.942   1.869   4.362
 1738SOL    HW1 6113   1.952   1.804   4.287
 1738SOL    HW2 6114   1.935   1.962   4.325
 1739SOL     OW 6115   5.611   2.108   5.497
 1739SOL    HW1 6116   5.522   2.138   5.529
 1739SOL    HW2 6117   5.610   2.008   5.484
 1740SOL     OW 6118   0.489   1.688   5.986
 1740SOL    HW1 6119   0.559   1.640   5.932
 1740SOL    HW2 6120   0.405   1.695   5.933
 1741SOL     OW 6121   2.227   0.710   3.909
 1741SOL    HW1 6122   2.321   0.717   3.944
 1741SOL    HW2 6123   2.163   0.736   3.981
 1742SOL     OW 6124   5.003   7.008   6.155
 1742SOL    HW1 6125   4.999   0.079   6.118
 1742SOL    HW2 6126   4.916   6.962   6.137
 1743SOL     OW 6127   1.826   2.214   2.406
 1743SOL    HW1 6128   1.908   2.233   2.351
 1743SOL    HW2 6129   1.847   2.146   2.475
 1744SOL     OW 6130   0.588   0.404   1.956
 1744SOL    HW1 6131   0.681   0.430   1.930
 1744SOL    HW2 6132   0.591   0.346   2.037
 1745SOL     OW 6133   6.347   0.734   3.163
 1745SOL    HW1 6134   6.370   0.667   3.234
 1745SOL    HW2 6135   6.355   0.691   3.073
 1746SOL     OW 6136   2.386   4.619   5.433
 1746SOL    HW1 6137   2.440   4.598   5.515
 1746SOL    HW2 6138   2.353   4.534   5.393
 1747SOL     OW 6139   5.926   1.202   3.056
 1747SOL    HW1 6140   5.961   1.140   3.127
 1747SOL    HW2 6141   5.864   1.268   3.098
 1748SOL     OW 6142   0.632   0.778   4.109
 1748SOL    HW1 6143   0.635   0.790   4.010
 1748SOL    HW2 6144   0.702   0.711   4.136
 1749SOL     OW 6145   2.347   6.930   5.070
 1749SOL    HW1 6146   2.400   6.962   5.149
 1749SOL    HW2 6147   2.410   6.896   5.000
 1750SOL     OW 6148   6.643   6.863   3.423
 1750SOL    HW1 6149   6.650   6.893   3.328
 1750SOL    HW2 6150   6.726   6.888   3.472
 1751SOL     OW 6151   4.096   5.704   4.936
 1751SOL    HW1 6152   4.032   5.773   4.970
 1751SOL    HW2 6153   4.171   5.693   5.002
 1752SOL     OW 6154   0.510   2.216   2.051
 1752SOL    HW1 6155   0.561   2.221   1.966
 1752SOL    HW2 6156   0.412   2.229   2.033
 1753SOL     OW 6157   0.297   2.087   0.438
 1753SOL    HW1 6158   0.199   2.080   0.419
 1753SOL    HW2 6159   0.326   2.006   0.490
 1754SOL     OW 6160   2.783   3.559   0.717
 1754SOL    HW1 6161   2.801   3.626   0.789
 1754SOL    HW2 6162   2.792   3.466   0.754
 1755SOL     OW 6163   6.081   6.229   1.877
 1755SOL    HW1 6164   6.144   6.235   1.954
 1755SOL    HW2 6165   6.122   6.174   1.804
 1756SOL     OW 6166   4.249   4.555   5.927
 1756SOL    HW1 6167   4.163   4.505   5.913
 1756SOL    HW2 6168   4.325   4.490   5.928
 1757SOL     OW 6169   2.481   4.884   4.852
 1757SOL    HW1 6170   2.530   4.849   4.772
 1757SOL    HW2 6171   2.526   4.852   4.936
 1758SOL     OW 6172   2.582   0.198   3.981
 1758SOL    HW1 6173   2.645   0.121   3.994
 1758SOL    HW2 6174   2.627   0.268   3.925
 1759SOL     OW 6175   1.875   5.280   6.470
 1759SOL    HW1 6176   1.805   5.246   6.408
 1759SOL    HW2 6177   1.878   5.222   6.552
 1760SOL     OW 6178   5.458   2.262   2.286
 1760SOL    HW1 6179   5.537   2.312   2.324
 1760SOL    HW2 6180   5.409   2.321   2.222
 1761SOL     OW 6181   0.850   0.185   0.608
 1761SOL    HW1 6182   0.750   0.182   0.598
 1761SOL    HW2 6183   0.885   0.267   0.564
 1762SOL     OW 6184   0.003   1.999   4.776
 1762SOL    HW1 6185   0.082   2.057   4.755
 1762SOL    HW2 6186   6.942   2.048   4.751
 1763SOL     OW 6187   1.581   3.816   3.898
 1763SOL    HW1 6188   1.586   3.887   3.968
 1763SOL    HW2 6189   1.533   3.850   3.818
 1764SOL     OW 6190   2.169   3.741   2.000
 1764SOL    HW1 6191   2.225   3.795   1.937
 1764SOL    HW2 6192   2.196   3.645   1.995
 1765SOL     OW 6193   4.317   1.585   7.022
 1765SOL    HW1 6194   4.227   1.603   6.981
 1765SOL    HW2 6195   4.313   1.501   0.054
 1766SOL     OW 6196   4.856   3.613   2.931
 1766SOL    HW1 6197   4.863   3.517   2.906
 1766SOL    HW2 6198   4.880   3.625   3.027
 1767SOL     OW 6199   6.371   4.176   2.963
 1767SOL    HW1 6200   6.347   4.097   3.019
 1767SOL    HW2 6201   6.446   4.152   2.902
 1768SOL     OW 6202   3.779   1.186   5.162
 1768SOL    HW1 6203   3.865   1.151   5.201
 1768SOL    HW2 6204   3.796   1.215   5.068
 1769SOL     OW 6205   4.576   2.398   5.205
 1769SOL    HW1 6206   4.636   2.420   5.283
 1769SOL    HW2 6207   4.603   2.310   5.166
 1770SOL     OW 6208   0.188   5.355   4.480
 1770SOL    HW1 6209   0.157   5.437   4.431
 1770SOL    HW2 6210   0.120   5.283   4.470
 1771SOL     OW 6211   2.051   5.218   0.197
 1771SOL    HW1 6212   2.097   5.266   0.123
 1771SOL    HW2 6213   2.013   5.132   0.163
 1772SOL     OW 6214   3.448   6.358   3.182
 1772SOL    HW1 6215   3.519   6.405   3.235
 1772SOL    HW2 6216   3.460   6.378   3.085
 1773SOL     OW 6217   2.966   4.823   6.620
 1773SOL    HW1 6218   3.037   4.867   6.565
 1773SOL    HW2 6219   2.932   4.743   6.573
 1774SOL     OW 6220   4.570   6.655   2.094
 1774SOL    HW1 6221   4.642   6.682   2.157
 1774SOL    HW2 6222   4.523   6.736   2.061
 1775SOL     OW 6223   1.250   4.848   3.802
 1775SOL    HW1 6224   1.337   4.833   3.756
 1775SOL    HW2 6225   1.225   4.945   3.795
 1776SOL     OW 6226   3.286   0.818   5.491
 1776SOL    HW1 6227   3.346   0.881   5.441
 1776SOL    HW2 6228   3.238   0.867   5.563
 1777SOL     OW 6229   3.348   5.306   5.736
 1777SOL    HW1 6230   3.393   5.361   5.807
 1777SOL    HW2 6231   3.253   5.290   5.762
 1778SOL     OW 6232   4.698   2.238   4.974
 1778SOL    HW1 6233   4.766   2.164   4.976
 1778SOL    HW2 6234   4.663   2.249   4.882
 1779SOL     OW 6235   4.790   1.204   4.740
 1779SOL    HW1 6236   4.696   1.227   4.716
 1779SOL    HW2 6237   4.850   1.281   4.717
 1780SOL     OW 6238   2.762   4.376   5.924
 1780SOL    HW1 6239   2.707   4.353   5.844
 1780SOL    HW2 6240   2.764   4.476   5.935
 1781SOL     OW 6241   4.443   5.197   3.634
 1781SOL    HW1 6242   4.421   5.167   3.541
 1781SOL    HW2 6243   4.451   5.296   3.636
 1782SOL     OW 6244   2.622   2.047   3.440
 1782SOL    HW1 6245   2.638   1.978   3.511
 1782SOL    HW2 6246   2.658   2.135   3.471
 1783SOL     OW 6247   1.622   3.965   6.443
 1783SOL    HW1 6248   1.678   4.039   6.404
 1783SOL    HW2 6249   1.681   3.888   6.467
 1784SOL     OW 6250   3.250   0.821   4.799
 1784SOL    HW1 6251   3.194   0.751   4.754
 1784SOL    HW2 6252   3.192   0.893   4.835
 1785SOL     OW 6253   5.096   5.950   3.801
 1785SOL    HW1 6254   5.172   5.900   3.759
 1785SOL    HW2 6255   5.117   6.048   3.800
 1786SOL     OW 6256   1.313   2.911   1.413
 1786SOL    HW1 6257   1.384   2.848   1.379
 1786SOL    HW2 6258   1.223   2.871   1.397
 1787SOL     OW 6259   2.139   0.774   4.347
 1787SOL    HW1 6260   2.120   0.854   4.290
 1787SOL    HW2 6261   2.238   0.764   4.358
 1788SOL     OW 6262   3.265   2.955   0.516
 1788SOL    HW1 6263   3.295   2.864   0.546
 1788SOL    HW2 6264   3.331   3.023   0.547
 1789SOL     OW 6265   6.526   2.238   2.312
 1789SOL    HW1 6266   6.465   2.233   2.391
 1789SOL    HW2 6267   6.481   2.200   2.232
 1790SOL     OW 6268   3.727   6.460   4.193
 1790SOL    HW1 6269   3.724   6.416   4.283
 1790SOL    HW2 6270   3.688   6.397   4.125
 1791SOL     OW 6271   0.205   1.801   4.513
 1791SOL    HW1 6272   0.228   1.745   4.592
 1791SOL    HW2 6273   0.195   1.896   4.542
 1792SOL     OW 6274   0.115   2.873   4.038
 1792SOL    HW1 6275   0.209   2.895   4.011
 1792SOL    HW2 6276   0.081   2.799   3.980
 1793SOL     OW 6277   6.272   0.475   3.605
 1793SOL    HW1 6278   6.232   0.544   3.665
 1793SOL    HW2 6279   6.370   0.469   3.621
 1794SOL     OW 6280   5.238   5.782   6.553
 1794SOL    HW1 6281   5.242   5.772   6.653
 1794SOL    HW2 6282   5.143   5.771   6.523
 1795SOL     OW 6283   0.623   3.448   2.299
 1795SOL    HW1 6284   0.627   3.394   2.215
 1795SOL    HW2 6285   0.675   3.532   2.286
 1796SOL     OW 6286   2.018   0.853   4.039
 1796SOL    HW1 6287   2.072   0.912   4.099
 1796SOL    HW2 6288   1.944   0.905   3.998
 1797SOL     OW 6289   0.958   0.991   6.377
 1797SOL    HW1 6290   1.035   0.935   6.405
 1797SOL    HW2 6291   0.896   1.005   6.455
 1798SOL     OW 6292   5.146   2.250   4.868
 1798SOL    HW1 6293   5.160   2.349   4.878
 1798SOL    HW2 6294   5.167   2.205   4.954
 1799SOL     OW 6295   6.779   1.540   6.294
 1799SOL    HW1 6296   6.783   1.543   6.194
 1799SOL    HW2 6297   6.775   1.633   6.330
 1800SOL     OW 6298   4.684   5.540   2.942
 1800SOL    HW1 6299   4.608   5.552   2.877
 1800SOL    HW2 6300   4.664   5.589   3.026
 1801SOL     OW 6301   0.771   1.066   2.313
 1801SOL    HW1 6302   0.858   1.034   2.350
 1801SOL    HW2 6303   0.766   1.045   2.216
 1802SOL     OW 6304   5.321   5.106   1.868
 1802SOL    HW1 6305   5.375   5.032   1.828
 1802SOL    HW2 6306   5.312   5.091   1.967
 1803SOL     OW 6307   6.702   6.346   0.445
 1803SOL    HW1 6308   6.615   6.352   0.493
 1803SOL    HW2 6309   6.686   6.333   0.347
 1804SOL     OW 6310   2.006   4.099   5.817
 1804SOL    HW1 6311   2.079   4.077   5.882
 1804SOL    HW2 6312   2.024   4.054   5.730
 1805SOL     OW 6313   6.863   3.969   5.530
 1805SOL    HW1 6314   6.784   3.984   5.589
 1805SOL    HW2 6315   6.842   3.899   5.462
 1806SOL     OW 6316   1.061   1.082   0.881
 1806SOL    HW1 6317   1.115   1.003   0.850
 1806SOL    HW2 6318   1.109   1.128   0.955
 1807SOL     OW 6319   5.403   2.433   5.995
 1807SOL    HW1 6320   5.427   2.520   6.039
 1807SOL    HW2 6321   5.334   2.449   5.924
 1808SOL     OW 6322   6.613   3.389   5.595
 1808SOL    HW1 6323   6.660   3.407   5.682
 1808SOL    HW2 6324   6.673   3.333   5.537
 1809SOL     OW 6325   2.211   3.211   4.513
 1809SOL    HW1 6326   2.237   3.282   4.578
 1809SOL    HW2 6327   2.202   3.124   4.561
 1810SOL     OW 6328   2.821   0.582   5.319
 1810SOL    HW1 6329   2.896   0.604   5.382
 1810SOL    HW2 6330   2.848   0.605   5.226
 1811SOL     OW 6331   4.551   4.597   3.539
 1811SOL    HW1 6332   4.588   4.689   3.525
 1811SOL    HW2 6333   4.550   4.548   3.452
 1812SOL     OW 6334   4.289   6.863   6.474
 1812SOL    HW1 6335   4.268   6.933   6.405
 1812SOL    HW2 6336   4.368   6.809   6.444
 1813SOL     OW 6337   4.649   4.768   0.725
 1813SOL    HW1 6338   4.561   4.806   0.696
 1813SOL    HW2 6339   4.688   4.826   0.798
 1814SOL     OW 6340   6.964   0.527   0.405
 1814SOL    HW1 6341   6.884   0.468   0.416
 1814SOL    HW2 6342   6.998   0.520   0.311
 1815SOL     OW 6343   6.534   2.428   1.667
 1815SOL    HW1 6344   6.624   2.411   1.707
 1815SOL    HW2 6345   6.543   2.439   1.568
 1816SOL     OW 6346   1.974   4.063   1.198
 1816SOL    HW1 6347   1.967   3.965   1.216
 1816SOL    HW2 6348   1.931   4.114   1.273
 1817SOL     OW 6349   2.857   6.457   3.528
 1817SOL    HW1 6350   2.880   6.476   3.624
 1817SOL    HW2 6351   2.914   6.514   3.469
 1818SOL     OW 6352   1.821   6.306   2.327
 1818SOL    HW1 6353   1.761   6.385   2.309
 1818SOL    HW2 6354   1.768   6.234   2.371
 1819SOL     OW 6355   0.525   5.269   1.619
 1819SOL    HW1 6356   0.426   5.277   1.612
 1819SOL    HW2 6357   0.549   5.202   1.689
 1820SOL     OW 6358   3.725   0.819   2.813
 1820SOL    HW1 6359   3.742   0.797   2.717
 1820SOL    HW2 6360   3.631   0.794   2.837
 1821SOL     OW 6361   2.643   0.604   1.689
 1821SOL    HW1 6362   2.638   0.513   1.648
 1821SOL    HW2 6363   2.551   0.644   1.692
 1822SOL     OW 6364   2.142   2.870   1.120
 1822SOL    HW1 6365   2.089   2.851   1.203
 1822SOL    HW2 6366   2.080   2.876   1.042
 1823SOL     OW 6367   2.493   5.714   3.280
 1823SOL    HW1 6368   2.430   5.699   3.203
 1823SOL    HW2 6369   2.587   5.718   3.246
 1824SOL     OW 6370   3.604   3.829   1.396
 1824SOL    HW1 6371   3.506   3.819   1.379
 1824SOL    HW2 6372   3.647   3.873   1.316
 1825SOL     OW 6373   1.446   2.221   3.593
 1825SOL    HW1 6374   1.444   2.127   3.559
 1825SOL    HW2 6375   1.385   2.229   3.671
 1826SOL     OW 6376   3.083   0.524   0.633
 1826SOL    HW1 6377   3.017   0.539   0.707
 1826SOL    HW2 6378   3.095   0.426   0.617
 1827SOL     OW 6379   0.554   5.532   1.559
 1827SOL    HW1 6380   0.533   5.567   1.650
 1827SOL    HW2 6381   0.546   5.432   1.559
 1828SOL     OW 6382   1.223   2.253   0.862
 1828SOL    HW1 6383   1.159   2.193   0.815
 1828SOL    HW2 6384   1.232   2.339   0.812
 1829SOL     OW 6385   2.817   0.717   3.098
 1829SOL    HW1 6386   2.811   0.671   3.010
 1829SOL    HW2 6387   2.822   0.648   3.171
 1830SOL     OW 6388   6.423   6.467   4.015
 1830SOL    HW1 6389   6.343   6.491   3.959
 1830SOL    HW2 6390   6.506   6.480   3.962
 1831SOL     OW 6391   6.217   0.463   2.489
 1831SOL    HW1 6392   6.126   0.459   2.529
 1831SOL    HW2 6393   6.228   0.389   2.423
 1832SOL     OW 6394   4.628   1.146   1.654
 1832SOL    HW1 6395   4.708   1.092   1.682
 1832SOL    HW2 6396   4.554   1.084   1.627
 1833SOL     OW 6397   5.170   0.401   6.905
 1833SOL    HW1 6398   5.213   0.489   6.886
 1833SOL    HW2 6399   5.084   0.415   6.953
 1834SOL     OW 6400   3.095   3.843   0.262
 1834SOL    HW1 6401   3.074   3.753   0.225
 1834SOL    HW2 6402   3.016   3.903   0.251
 1835SOL     OW 6403   6.854   4.152   2.375
 1835SOL    HW1 6404   6.917   4.209   2.428
 1835SOL    HW2 6405   6.760   4.185   2.387
 1836SOL     OW 6406   5.185   2.455   1.315
 1836SOL    HW1 6407   5.105   2.502   1.278
 1836SOL    HW2 6408   5.162   2.360   1.337
 1837SOL     OW 6409   0.849   0.739   5.143
 1837SOL    HW1 6410   0.860   0.788   5.057
 1837SOL    HW2 6411   0.752   0.715   5.156
 1838SOL     OW 6412   0.026   1.792   4.970
 1838SOL    HW1 6413   6.953   1.777   4.996
 1838SOL    HW2 6414   0.030   1.859   4.896
 1839SOL     OW 6415   6.028   2.197   5.393
 1839SOL    HW1 6416   5.952   2.247   5.351
 1839SOL    HW2 6417   5.997   2.155   5.478
 1840SOL     OW 6418   3.148   6.765   1.415
 1840SOL    HW1 6419   3.142   6.712   1.499
 1840SOL    HW2 6420   3.071   6.743   1.355
 1841SOL     OW 6421   2.426   0.857   3.523
 1841SOL    HW1 6422   2.341   0.814   3.554
 1841SOL    HW2 6423   2.410   0.905   3.437
 1842SOL     OW 6424   1.627   5.666   0.379
 1842SOL    HW1 6425   1.559   5.629   0.443
 1842SOL    HW2 6426   1.717   5.665   0.421
 1843SOL     OW 6427   6.220   2.369   3.315
 1843SOL    HW1 6428   6.185   2.426   3.390
 1843SOL    HW2 6429   6.149   2.359   3.245
 1844SOL     OW 6430   3.097   7.020   5.773
 1844SOL    HW1 6431   3.106   0.089   5.732
 1844SOL    HW2 6432   3.173   7.005   5.836
 1845SOL     OW 6433   1.985   0.119   5.129
 1845SOL    HW1 6434   2.024   0.043   5.077
 1845SOL    HW2 6435   1.970   0.197   5.067
 1846SOL     OW 6436   4.041   2.028   1.214
 1846SOL    HW1 6437   4.130   2.018   1.258
 1846SOL    HW2 6438   3.969   1.994   1.275
 1847SOL     OW 6439   1.476   1.406   6.716
 1847SOL    HW1 6440   1.479   1.505   6.728
 1847SOL    HW2 6441   1.390   1.370   6.754
 1848SOL     OW 6442   1.211   6.129   3.261
 1848SOL    HW1 6443   1.188   6.212   3.211
 1848SOL    HW2 6444   1.172   6.050   3.215
 1849SOL     OW 6445   4.509   2.507   0.667
 1849SOL    HW1 6446   4.501   2.580   0.599
 1849SOL    HW2 6447   4.474   2.421   0.628
 1850SOL     OW 6448   0.908   2.698   1.984
 1850SOL    HW1 6449   0.919   2.663   2.077
 1850SOL    HW2 6450   0.986   2.756   1.960
 1851SOL     OW 6451   6.827   2.570   0.278
 1851SOL    HW1 6452   6.791   2.640   0.339
 1851SOL    HW2 6453   6.865   2.613   0.196
 1852SOL     OW 6454   6.275   4.601   2.458
 1852SOL    HW1 6455   6.291   4.663   2.381
 1852SOL    HW2 6456   6.244   4.512   2.423
 1853SOL     OW 6457   7.016   2.095   2.629
 1853SOL    HW1 6458   6.959   2.135   2.558
 1853SOL    HW2 6459   6.973   2.012   2.663
 1854SOL     OW 6460   2.587   5.891   2.845
 1854SOL    HW1 6461   2.626   5.943   2.769
 1854SOL    HW2 6462   2.490   5.911   2.854
 1855SOL     OW 6463   5.005   2.906   5.505
 1855SOL    HW1 6464   5.014   3.004   5.520
 1855SOL    HW2 6465   4.926   2.872   5.556
 1856SOL     OW 6466   6.295   3.780   5.964
 1856SOL    HW1 6467   6.382   3.818   5.995
 1856SOL    HW2 6468   6.256   3.839   5.893
 1857SOL     OW 6469   4.634   1.549   5.993
 1857SOL    HW1 6470   4.694   1.615   6.037
 1857SOL    HW2 6471   4.607   1.479   6.060
 1858SOL     OW 6472   5.830   3.857   3.967
 1858SOL    HW1 6473   5.747   3.848   4.023
 1858SOL    HW2 6474   5.837   3.778   3.906
 1859SOL     OW 6475   5.308   2.229   3.288
 1859SOL    HW1 6476   5.304   2.200   3.192
 1859SOL    HW2 6477   5.249   2.171   3.343
 1860SOL     OW 6478   6.358   0.409   4.951
 1860SOL    HW1 6479   6.415   0.337   4.989
 1860SOL    HW2 6480   6.386   0.498   4.988
 1861SOL     OW 6481   6.244   6.680   2.067
 1861SOL    HW1 6482   6.334   6.643   2.047
 1861SOL    HW2 6483   6.237   6.701   2.164
 1862SOL     OW 6484   2.144   0.372   6.281
 1862SOL    HW1 6485   2.240   0.398   6.294
 1862SOL    HW2 6486   2.136   0.315   6.199
 1863SOL     OW 6487   0.759   2.617   2.951
 1863SOL    HW1 6488   0.788   2.595   3.044
 1863SOL    HW2 6489   0.721   2.535   2.908
 1864SOL     OW 6490   1.577   0.273   5.225
 1864SOL    HW1 6491   1.585   0.301   5.130
 1864SOL    HW2 6492   1.487   0.301   5.261
 1865SOL     OW 6493   3.244   6.606   6.439
 1865SOL    HW1 6494   3.273   6.702   6.435
 1865SOL    HW2 6495   3.161   6.595   6.384
 1866SOL     OW 6496   4.578   5.010   3.065
 1866SOL    HW1 6497   4.642   5.073   3.108
 1866SOL    HW2 6498   4.549   5.047   2.977
 1867SOL     OW 6499   0.391   3.751   7.011
 1867SOL    HW1 6500   0.320   3.681   7.013
 1867SOL    HW2 6501   0.427   3.765   0.081
 1868SOL     OW 6502   4.831   3.204   6.501
 1868SOL    HW1 6503   4.928   3.229   6.504
 1868SOL    HW2 6504   4.776   3.287   6.508
 1869SOL     OW 6505   5.753   3.071   5.614
 1869SOL    HW1 6506   5.795   3.131   5.546
 1869SOL    HW2 6507   5.782   2.977   5.598
 1870SOL     OW 6508   0.797   3.181   5.398
 1870SOL    HW1 6509   0.743   3.247   5.346
 1870SOL    HW2 6510   0.857   3.230   5.462
 1871SOL     OW 6511   0.676   0.733   6.898
 1871SOL    HW1 6512   0.618   0.762   6.975
 1871SOL    HW2 6513   0.734   0.809   6.869
 1872SOL     OW 6514   3.885   1.696   6.489
 1872SOL    HW1 6515   3.894   1.620   6.554
 1872SOL    HW2 6516   3.881   1.660   6.396
 1873SOL     OW 6517   5.075   0.825   5.880
 1873SOL    HW1 6518   5.026   0.900   5.924
 1873SOL    HW2 6519   5.017   0.784   5.810
 1874SOL     OW 6520   3.198   1.534   0.532
 1874SOL    HW1 6521   3.284   1.519   0.482
 1874SOL    HW2 6522   3.218   1.579   0.619
 1875SOL     OW 6523   6.931   0.592   6.809
 1875SOL    HW1 6524   6.942   0.676   6.755
 1875SOL    HW2 6525   7.008   0.583   6.872
 1876SOL     OW 6526   3.333   6.327   6.006
 1876SOL    HW1 6527   3.388   6.308   5.925
 1876SOL    HW2 6528   3.335   6.248   6.068
 1877SOL     OW 6529   0.824   1.218   2.999
 1877SOL    HW1 6530   0.785   1.302   3.036
 1877SOL    HW2 6531   0.813   1.144   3.065
 1878SOL     OW 6532   6.920   3.030   4.092
 1878SOL    HW1 6533   6.995   2.984   4.044
 1878SOL    HW2 6534   6.946   3.045   4.187
 1879SOL     OW 6535   1.465   5.322   3.809
 1879SOL    HW1 6536   1.545   5.381   3.818
 1879SOL    HW2 6537   1.388   5.363   3.858
 1880SOL     OW 6538   6.778   0.540   4.284
 1880SOL    HW1 6539   6.854   0.593   4.321
 1880SOL    HW2 6540   6.715   0.515   4.358
 1881SOL     OW 6541   6.541   3.083   2.682
 1881SOL    HW1 6542   6.574   3.087   2.588
 1881SOL    HW2 6543   6.519   2.989   2.705
 1882SOL     OW 6544   1.111   3.516   6.653
 1882SOL    HW1 6545   1.210   3.527   6.646
 1882SOL    HW2 6546   1.065   3.573   6.585
 1883SOL     OW 6547   0.861   2.006   3.467
 1883SOL    HW1 6548   0.931   2.059   3.419
 1883SOL    HW2 6549   0.884   2.002   3.564
 1884SOL     OW 6550   6.543   2.899   0.278
 1884SOL    HW1 6551   6.560   2.843   0.196
 1884SOL    HW2 6552   6.492   2.846   0.345
 1885SOL     OW 6553   1.212   2.323   6.017
 1885SOL    HW1 6554   1.289   2.385   6.035
 1885SOL    HW2 6555   1.242   2.228   6.026
 1886SOL     OW 6556   2.429   0.270   1.079
 1886SOL    HW1 6557   2.480   0.214   1.143
 1886SOL    HW2 6558   2.477   0.356   1.064
 1887SOL     OW 6559   1.219   5.952   5.299
 1887SOL    HW1 6560   1.158   5.944   5.220
 1887SOL    HW2 6561   1.312   5.971   5.268
 1888SOL     OW 6562   2.879   2.501   6.807
 1888SOL    HW1 6563   2.800   2.520   6.865
 1888SOL    HW2 6564   2.961   2.492   6.863
 1889SOL     OW 6565   0.450   2.819   5.990
 1889SOL    HW1 6566   0.465   2.734   5.939
 1889SOL    HW2 6567   0.456   2.800   6.089
 1890SOL     OW 6568   1.611   6.935   4.395
 1890SOL    HW1 6569   1.697   6.981   4.372
 1890SOL    HW2 6570   1.629   6.861   4.460
 1891SOL     OW 6571   5.314   1.574   2.482
 1891SOL    HW1 6572   5.326   1.616   2.572
 1891SOL    HW2 6573   5.392   1.516   2.461
 1892SOL     OW 6574   2.411   1.253   1.732
 1892SOL    HW1 6575   2.399   1.352   1.724
 1892SOL    HW2 6576   2.322   1.208   1.738
 1893SOL     OW 6577   3.570   2.710   6.715
 1893SOL    HW1 6578   3.604   2.677   6.627
 1893SOL    HW2 6579   3.584   2.640   6.785
 1894SOL     OW 6580   4.058   3.551   3.646
 1894SOL    HW1 6581   3.975   3.595   3.613
 1894SOL    HW2 6582   4.048   3.452   3.642
 1895SOL     OW 6583   4.619   0.549   1.473
 1895SOL    HW1 6584   4.683   0.624   1.484
 1895SOL    HW2 6585   4.661   0.477   1.417
 1896SOL     OW 6586   5.887   0.317   1.419
 1896SOL    HW1 6587   5.809   0.322   1.356
 1896SOL    HW2 6588   5.916   0.409   1.443
 1897SOL     OW 6589   1.542   4.351   1.563
 1897SOL    HW1 6590   1.635   4.379   1.540
 1897SOL    HW2 6591   1.541   4.309   1.654
 1898SOL     OW 6592   2.353   5.659   3.023
 1898SOL    HW1 6593   2.366   5.725   2.949
 1898SOL    HW2 6594   2.260   5.668   3.060
 1899SOL     OW 6595   1.289   0.903   2.559
 1899SOL    HW1 6596   1.298   0.830   2.627
 1899SOL    HW2 6597   1.310   0.991   2.602
 1900SOL     OW 6598   1.066   0.496   6.188
 1900SOL    HW1 6599   1.094   0.459   6.276
 1900SOL    HW2 6600   1.136   0.559   6.154
 1901SOL     OW 6601   2.177   1.809   0.486
 1901SOL    HW1 6602   2.235   1.802   0.568
 1901SOL    HW2 6603   2.176   1.903   0.453
 1902SOL     OW 6604   2.270   2.166   4.660
 1902SOL    HW1 6605   2.226   2.088   4.615
 1902SOL    HW2 6606   2.200   2.225   4.700
 1903SOL     OW 6607   6.935   3.075   2.516
 1903SOL    HW1 6608   6.850   3.124   2.494
 1903SOL    HW2 6609   6.913   2.985   2.552
 1904SOL     OW 6610   5.755   5.963   3.459
 1904SOL    HW1 6611   5.683   6.032   3.465
 1904SOL    HW2 6612   5.759   5.927   3.366
 1905SOL     OW 6613   2.043   0.312   3.984
 1905SOL    HW1 6614   2.108   0.354   3.921
 1905SOL    HW2 6615   1.973   0.378   4.010
 1906SOL     OW 6616   2.278   0.482   5.323
 1906SOL    HW1 6617   2.332   0.562   5.351
 1906SOL    HW2 6618   2.304   0.455   5.230
 1907SOL     OW 6619   3.591   0.411   2.333
 1907SOL    HW1 6620   3.507   0.458   2.306
 1907SOL    HW2 6621   3.613   0.341   2.266
 1908SOL     OW 6622   3.914   6.667   5.655
 1908SOL    HW1 6623   3.881   6.716   5.574
 1908SOL    HW2 6624   3.856   6.690   5.734
 1909SOL     OW 6625   0.590   3.655   2.744
 1909SOL    HW1 6626   0.654   3.729   2.727
 1909SOL    HW2 6627   0.521   3.653   2.671
 1910SOL     OW 6628   0.434   3.141   6.614
 1910SOL    HW1 6629   0.377   3.095   6.546
 1910SOL    HW2 6630   0.385   3.147   6.701
 1911SOL     OW 6631   6.238   3.602   5.400
 1911SOL    HW1 6632   6.312   3.538   5.379
 1911SOL    HW2 6633   6.151   3.564   5.368
 1912SOL     OW 6634   3.962   5.732   0.933
 1912SOL    HW1 6635   3.898   5.684   0.872
 1912SOL    HW2 6636   3.919   5.815   0.968
 1913SOL     OW 6637   2.498   6.453   4.616
 1913SOL    HW1 6638   2.418   6.443   4.557
 1913SOL    HW2 6639   2.580   6.466   4.559
 1914SOL     OW 6640   3.578   2.956   6.110
 1914SOL    HW1 6641   3.648   2.973   6.180
 1914SOL    HW2 6642   3.534   2.868   6.129
 1915SOL     OW 6643   3.922   2.024   5.380
 1915SOL    HW1 6644   3.897   2.065   5.468
 1915SOL    HW2 6645   3.864   2.062   5.309
 1916SOL     OW 6646   4.015   5.916   1.433
 1916SOL    HW1 6647   4.085   5.845   1.442
 1916SOL    HW2 6648   3.937   5.879   1.381
 1917SOL     OW 6649   2.578   3.142   5.946
 1917SOL    HW1 6650   2.605   3.225   5.896
 1917SOL    HW2 6651   2.514   3.089   5.890
 1918SOL     OW 6652   1.248   1.176   5.348
 1918SOL    HW1 6653   1.257   1.243   5.273
 1918SOL    HW2 6654   1.329   1.182   5.407
 1919SOL     OW 6655   1.643   0.386   1.959
 1919SOL    HW1 6656   1.689   0.474   1.946
 1919SOL    HW2 6657   1.683   0.339   2.037
 1920SOL     OW 6658   0.647   3.957   3.022
 1920SOL    HW1 6659   0.665   3.867   3.062
 1920SOL    HW2 6660   0.568   3.952   2.961
 1921SOL     OW 6661   1.391   4.343   6.154
 1921SOL    HW1 6662   1.460   4.299   6.096
 1921SOL    HW2 6663   1.394   4.303   6.246
 1922SOL     OW 6664   2.132   3.823   0.905
 1922SOL    HW1 6665   2.141   3.923   0.908
 1922SOL    HW2 6666   2.191   3.787   0.833
 1923SOL     OW 6667   3.482   0.656   5.634
 1923SOL    HW1 6668   3.569   0.679   5.590
 1923SOL    HW2 6669   3.410   0.714   5.596
 1924SOL     OW 6670   5.092   5.877   1.020
 1924SOL    HW1 6671   5.078   5.908   0.926
 1924SOL    HW2 6672   5.066   5.781   1.028
 1925SOL     OW 6673   1.918   5.064   0.640
 1925SOL    HW1 6674   2.009   5.054   0.599
 1925SOL    HW2 6675   1.927   5.092   0.736
 1926SOL     OW 6676   2.477   6.794   3.227
 1926SOL    HW1 6677   2.506   6.713   3.278
 1926SOL    HW2 6678   2.491   6.778   3.129
 1927SOL     OW 6679   2.293   4.557   6.998
 1927SOL    HW1 6680   2.209   4.504   7.009
 1927SOL    HW2 6681   2.315   4.605   0.060
 1928SOL     OW 6682   6.943   4.242   5.490
 1928SOL    HW1 6683   6.887   4.293   5.555
 1928SOL    HW2 6684   6.922   4.145   5.496
 1929SOL     OW 6685   1.880   5.966   1.505
 1929SOL    HW1 6686   1.974   5.932   1.513
 1929SOL    HW2 6687   1.816   5.890   1.516
 1930SOL     OW 6688   3.724   4.209   6.567
 1930SOL    HW1 6689   3.796   4.274   6.546
 1930SOL    HW2 6690   3.751   4.117   6.538
 1931SOL     OW 6691   1.242   2.611   1.855
 1931SOL    HW1 6692   1.174   2.540   1.839
 1931SOL    HW2 6693   1.233   2.681   1.784
 1932SOL     OW 6694   4.593   2.618   3.156
 1932SOL    HW1 6695   4.676   2.671   3.172
 1932SOL    HW2 6696   4.569   2.621   3.059
 1933SOL     OW 6697   2.258   3.275   0.914
 1933SOL    HW1 6698   2.289   3.287   0.820
 1933SOL    HW2 6699   2.168   3.316   0.925
 1934SOL     OW 6700   0.132   6.588   5.297
 1934SOL    HW1 6701   0.157   6.505   5.247
 1934SOL    HW2 6702   0.047   6.625   5.260
 1935SOL     OW 6703   4.422   5.919   3.912
 1935SOL    HW1 6704   4.381   5.843   3.964
 1935SOL    HW2 6705   4.381   6.005   3.942
 1936SOL     OW 6706   5.751   4.065   3.810
 1936SOL    HW1 6707   5.814   4.004   3.857
 1936SOL    HW2 6708   5.657   4.034   3.826
 1937SOL     OW 6709   4.269   6.124   1.109
 1937SOL    HW1 6710   4.268   6.031   1.147
 1937SOL    HW2 6711   4.224   6.187   1.172
 1938SOL     OW 6712   1.984   1.608   1.573
 1938SOL    HW1 6713   1.968   1.654   1.486
 1938SOL    HW2 6714   1.981   1.675   1.647
 1939SOL     OW 6715   6.695   6.750   4.563
 1939SOL    HW1 6716   6.773   6.751   4.501
 1939SOL    HW2 6717   6.634   6.674   4.539
 1940SOL     OW 6718   5.700   5.266   0.817
 1940SOL    HW1 6719   5.779   5.273   0.877
 1940SOL    HW2 6720   5.632   5.205   0.857
 1941SOL     OW 6721   0.983   3.440   4.326
 1941SOL    HW1 6722   1.011   3.499   4.251
 1941SOL    HW2 6723   0.996   3.344   4.300
 1942SOL     OW 6724   5.302   2.976   1.222
 1942SOL    HW1 6725   5.237   2.949   1.293
 1942SOL    HW2 6726   5.390   2.931   1.238
 1943SOL     OW 6727   2.413   6.895   3.514
 1943SOL    HW1 6728   2.402   6.860   3.422
 1943SOL    HW2 6729   2.467   6.830   3.568
 1944SOL     OW 6730   6.437   3.133   0.201
 1944SOL    HW1 6731   6.384   3.173   0.276
 1944SOL    HW2 6732   6.462   3.039   0.224
 1945SOL     OW 6733   4.219   4.913   0.527
 1945SOL    HW1 6734   4.229   4.949   0.620
 1945SOL    HW2 6735   4.125   4.927   0.496
 1946SOL     OW 6736   6.204   6.295   0.787
 1946SOL    HW1 6737   6.289   6.243   0.803
 1946SOL    HW2 6738   6.212   6.385   0.828
 1947SOL     OW 6739   5.338   5.943   4.268
 1947SOL    HW1 6740   5.334   5.864   4.328
 1947SOL    HW2 6741   5.416   6.001   4.294
 1948SOL     OW 6742   6.236   5.375   3.561
 1948SOL    HW1 6743   6.150   5.332   3.586
 1948SOL    HW2 6744   6.281   5.321   3.489
 1949SOL     OW 6745   3.153   3.541   5.957
 1949SOL    HW1 6746   3.244   3.512   5.985
 1949SOL    HW2 6747   3.090   3.463   5.965
 1950SOL     OW 6748   3.710   3.012   1.001
 1950SOL    HW1 6749   3.668   2.973   0.920
 1950SOL    HW2 6750   3.686   2.958   1.082
 1951SOL     OW 6751   6.542   4.962   0.198
 1951SOL    HW1 6752   6.469   4.934   0.136
 1951SOL    HW2 6753   6.521   4.932   0.291
 1952SOL     OW 6754   4.596   3.745   1.095
 1952SOL    HW1 6755   4.514   3.696   1.125
 1952SOL    HW2 6756   4.666   3.739   1.165
 1953SOL     OW 6757   6.014   1.587   5.890
 1953SOL    HW1 6758   6.084   1.658   5.893
 1953SOL    HW2 6759   5.946   1.604   5.962
 1954SOL     OW 6760   6.870   0.563   1.515
 1954SOL    HW1 6761   6.832   0.477   1.480
 1954SOL    HW2 6762   6.924   0.607   1.443
 1955SOL     OW 6763   0.679   0.671   3.120
 1955SOL    HW1 6764   0.625   0.723   3.053
 1955SOL    HW2 6765   0.645   0.577   3.124
 1956SOL     OW 6766   4.838   6.701   1.922
 1956SOL    HW1 6767   4.879   6.708   2.013
 1956SOL    HW2 6768   4.763   6.767   1.913
 1957SOL     OW 6769   5.426   4.583   3.836
 1957SOL    HW1 6770   5.388   4.615   3.750
 1957SOL    HW2 6771   5.478   4.499   3.821
 1958SOL     OW 6772   4.843   1.898   2.027
 1958SOL    HW1 6773   4.812   1.855   2.112
 1958SOL    HW2 6774   4.766   1.944   1.983
 1959SOL     OW 6775   1.710   0.323   3.726
 1959SOL    HW1 6776   1.727   0.295   3.632
 1959SOL    HW2 6777   1.664   0.249   3.775
 1960SOL     OW 6778   0.234   4.411   2.468
 1960SOL    HW1 6779   0.330   4.411   2.440
 1960SOL    HW2 6780   0.180   4.462   2.400
 1961SOL     OW 6781   6.356   4.987   5.124
 1961SOL    HW1 6782   6.453   5.000   5.146
 1961SOL    HW2 6783   6.300   5.036   5.192
 1962SOL     OW 6784   1.497   5.851   2.375
 1962SOL    HW1 6785   1.497   5.924   2.443
 1962SOL    HW2 6786   1.417   5.793   2.388
 1963SOL     OW 6787   1.030   1.684   1.190
 1963SOL    HW1 6788   1.049   1.692   1.092
 1963SOL    HW2 6789   0.941   1.724   1.211
 1964SOL     OW 6790   4.462   4.548   2.102
 1964SOL    HW1 6791   4.490   4.455   2.077
 1964SOL    HW2 6792   4.380   4.573   2.050
 1965SOL     OW 6793   1.000   3.171   4.248
 1965SOL    HW1 6794   1.000   3.092   4.309
 1965SOL    HW2 6795   0.956   3.146   4.162
 1966SOL     OW 6796   0.721   6.263   0.878
 1966SOL    HW1 6797   0.757   6.294   0.790
 1966SOL    HW2 6798   0.781   6.294   0.952
 1967SOL     OW 6799   5.460   2.904   4.239
 1967SOL    HW1 6800   5.492   2.810   4.255
 1967SOL    HW2 6801   5.365   2.912   4.269
 1968SOL     OW 6802   1.478   0.129   5.517
 1968SOL    HW1 6803   1.577   0.138   5.533
 1968SOL    HW2 6804   1.447   0.206   5.461
 1969SOL     OW 6805   2.453   1.627   0.619
 1969SOL    HW1 6806   2.463   1.533   0.654
 1969SOL    HW2 6807   2.513   1.638   0.540
 1970SOL     OW 6808   2.446   6.832   5.877
 1970SOL    HW1 6809   2.411   6.742   5.904
 1970SOL    HW2 6810   2.388   6.903   5.916
 1971SOL     OW 6811   0.563   0.278   5.191
 1971SOL    HW1 6812   0.568   0.315   5.284
 1971SOL    HW2 6813   0.516   0.190   5.193
 1972SOL     OW 6814   5.118   2.217   1.443
 1972SOL    HW1 6815   5.134   2.234   1.540
 1972SOL    HW2 6816   5.191   2.158   1.407
 1973SOL     OW 6817   3.000   3.555   0.528
 1973SOL    HW1 6818   2.914   3.570   0.577
 1973SOL    HW2 6819   2.983   3.557   0.429
 1974SOL     OW 6820   5.333   0.351   4.617
 1974SOL    HW1 6821   5.310   0.253   4.619
 1974SOL    HW2 6822   5.423   0.365   4.660
 1975SOL     OW 6823   1.743   1.809   4.542
 1975SOL    HW1 6824   1.817   1.808   4.475
 1975SOL    HW2 6825   1.667   1.863   4.507
 1976SOL     OW 6826   6.744   6.835   0.427
 1976SOL    HW1 6827   6.700   6.917   0.390
 1976SOL    HW2 6828   6.824   6.862   0.481
 1977SOL     OW 6829   1.931   3.446   4.996
 1977SOL    HW1 6830   1.931   3.390   4.913
 1977SOL    HW2 6831   2.017   3.431   5.046
 1978SOL     OW 6832   1.858   5.813   3.411
 1978SOL    HW1 6833   1.825   5.905   3.427
 1978SOL    HW2 6834   1.886   5.771   3.497
 1979SOL     OW 6835   5.313   4.709   6.728
 1979SOL    HW1 6836   5.375   4.682   6.801
 1979SOL    HW2 6837   5.360   4.700   6.640
 1980SOL     OW 6838   3.373   0.487   4.123
 1980SOL    HW1 6839   3.274   0.504   4.125
 1980SOL    HW2 6840   3.414   0.525   4.206
 1981SOL     OW 6841   6.418   3.344   1.876
 1981SOL    HW1 6842   6.366   3.263   1.900
 1981SOL    HW2 6843   6.500   3.317   1.825
 1982SOL     OW 6844   0.199   4.430   4.404
 1982SOL    HW1 6845   0.141   4.501   4.444
 1982SOL    HW2 6846   0.205   4.443   4.305
 1983SOL     OW 6847   1.528   0.083   1.772
 1983SOL    HW1 6848   1.478   0.027   1.707
 1983SOL    HW2 6849   1.500   0.179   1.762
 1984SOL     OW 6850   4.865   2.586   4.829
 1984SOL    HW1 6851   4.837   2.496   4.798
 1984SOL    HW2 6852   4.917   2.632   4.757
 1985SOL     OW 6853   0.470   6.345   2.633
 1985SOL    HW1 6854   0.517   6.299   2.708
 1985SOL    HW2 6855   0.508   6.436   2.621
 1986SOL     OW 6856   2.713   0.946   6.533
 1986SOL    HW1 6857   2.738   0.979   6.442
 1986SOL    HW2 6858   2.725   1.020   6.599
 1987SOL     OW 6859   2.061   1.538   3.148
 1987SOL    HW1 6860   2.122   1.617   3.153
 1987SOL    HW2 6861   1.998   1.540   3.226
 1988SOL     OW 6862   6.621   3.396   0.496
 1988SOL    HW1 6863   6.588   3.425   0.586
 1988SOL    HW2 6864   6.616   3.296   0.490
 1989SOL     OW 6865   2.080   5.758   4.972
 1989SOL    HW1 6866   2.128   5.673   4.949
 1989SOL    HW2 6867   2.124   5.801   5.050
 1990SOL     OW 6868   4.260   5.755   0.924
 1990SOL    HW1 6869   4.296   5.717   0.838
 1990SOL    HW2 6870   4.161   5.742   0.927
 1991SOL     OW 6871   3.058   5.362   6.726
 1991SOL    HW1 6872   3.105   5.450   6.717
 1991SOL    HW2 6873   3.086   5.317   6.811
 1992SOL     OW 6874   0.058   0.471   0.165
 1992SOL    HW1 6875   0.128   0.405   0.135
 1992SOL    HW2 6876   0.039   0.536   0.092
 1993SOL     OW 6877   3.619   2.185   5.991
 1993SOL    HW1 6878   3.712   2.188   5.956
 1993SOL    HW2 6879   3.557   2.228   5.926
 1994SOL     OW 6880   0.057   1.611   0.450
 1994SOL    HW1 6881   7.008   1.611   0.381
 1994SOL    HW2 6882   0.095   1.518   0.459
 1995SOL     OW 6883   4.844   2.927   3.564
 1995SOL    HW1 6884   4.850   2.885   3.474
 1995SOL    HW2 6885   4.840   3.026   3.556
 1996SOL     OW 6886   2.329   2.305   0.880
 1996SOL    HW1 6887   2.394   2.370   0.920
 1996SOL    HW2 6888   2.266   2.273   0.950
 1997SOL     OW 6889   3.540   2.070   4.987
 1997SOL    HW1 6890   3.588   2.030   4.908
 1997SOL    HW2 6891   3.442   2.054   4.978
 1998SOL     OW 6892   1.860   3.632   0.638
 1998SOL    HW1 6893   1.835   3.659   0.545
 1998SOL    HW2 6894   1.866   3.713   0.696
 1999SOL     OW 6895   1.905   6.754   6.415
 1999SOL    HW1 6896   2.002   6.771   6.400
 1999SOL    HW2 6897   1.851   6.813   6.355
 2000SOL     OW 6898   3.980   2.665   5.676
 2000SOL    HW1 6899   3.971   2.574   5.635
 2000SOL    HW2 6900   3.895   2.716   5.663
 2001SOL     OW 6901   2.136   0.699   1.315
 2001SOL    HW1 6902   2.158   0.679   1.220
 2001SOL    HW2 6903   2.220   0.711   1.367
 2002SOL     OW 6904   0.440   4.207   0.722
 2002SOL    HW1 6905   0.384   4.161   0.653
 2002SOL    HW2 6906   0.419   4.305   0.723
 2003SOL     OW 6907   6.277   4.865   2.332
 2003SOL    HW1 6908   6.195   4.846   2.278
 2003SOL    HW2 6909   6.253   4.923   2.410
 2004SOL     OW 6910   5.624   0.825   4.007
 2004SOL    HW1 6911   5.556   0.897   4.013
 2004SOL    HW2 6912   5.686   0.831   4.085
 2005SOL     OW 6913   0.264   4.349   0.381
 2005SOL    HW1 6914   0.223   4.414   0.317
 2005SOL    HW2 6915   0.357   4.328   0.352
 2006SOL     OW 6916   5.628   0.545   3.166
 2006SOL    HW1 6917   5.663   0.613   3.231
 2006SOL    HW2 6918   5.676   0.555   3.079
 2007SOL     OW 6919   5.125   4.179   0.986
 2007SOL    HW1 6920   5.086   4.118   0.917
 2007SOL    HW2 6921   5.071   4.262   0.993
 2008SOL     OW 6922   2.138   3.803   3.872
 2008SOL    HW1 6923   2.071   3.860   3.920
 2008SOL    HW2 6924   2.121   3.707   3.894
 2009SOL     OW 6925   4.961   0.266   2.832
 2009SOL    HW1 6926   4.925   0.174   2.817
 2009SOL    HW2 6927   5.050   0.275   2.788
 2010SOL     OW 6928   3.363   1.798   1.400
 2010SOL    HW1 6929   3.340   1.833   1.310
 2010SOL    HW2 6930   3.430   1.724   1.392
 2011SOL     OW 6931   0.608   0.863   4.734
 2011SOL    HW1 6932   0.687   0.838   4.678
 2011SOL    HW2 6933   0.531   0.802   4.713
 2012SOL     OW 6934   1.055   4.158   2.497
 2012SOL    HW1 6935   0.973   4.138   2.550
 2012SOL    HW2 6936   1.136   4.137   2.552
 2013SOL     OW 6937   6.276   2.846   3.434
 2013SOL    HW1 6938   6.335   2.864   3.513
 2013SOL    HW2 6939   6.189   2.893   3.445
 2014SOL     OW 6940   2.630   6.605   3.413
 2014SOL    HW1 6941   2.719   6.581   3.453
 2014SOL    HW2 6942   2.561   6.539   3.443
 2015SOL     OW 6943   2.490   0.226   0.819
 2015SOL    HW1 6944   2.461   0.259   0.909
 2015SOL    HW2 6945   2.589   0.232   0.812
 2016SOL     OW 6946   1.957   5.879   6.067
 2016SOL    HW1 6947   2.004   5.891   6.154
 2016SOL    HW2 6948   1.907   5.962   6.043
 2017SOL     OW 6949   3.684   0.109   3.466
 2017SOL    HW1 6950   3.678   0.207   3.485
 2017SOL    HW2 6951   3.774   0.075   3.495
 2018SOL     OW 6952   5.665   2.771   4.014
 2018SOL    HW1 6953   5.736   2.833   4.047
 2018SOL    HW2 6954   5.624   2.722   4.091
 2019SOL     OW 6955   5.287   3.709   6.680
 2019SOL    HW1 6956   5.234   3.666   6.754
 2019SOL    HW2 6957   5.330   3.638   6.625
 2020SOL     OW 6958   2.117   0.223   6.035
 2020SOL    HW1 6959   2.056   0.191   5.962
 2020SOL    HW2 6960   2.098   0.173   6.119
 2021SOL     OW 6961   6.329   6.827   5.019
 2021SOL    HW1 6962   6.257   6.796   4.958
 2021SOL    HW2 6963   6.390   6.750   5.041
 2022SOL     OW 6964   1.785   4.569   3.518
 2022SOL    HW1 6965   1.825   4.477   3.517
 2022SOL    HW2 6966   1.837   4.629   3.457
 2023SOL     OW 6967   0.319   0.167   6.722
 2023SOL    HW1 6968   0.408   0.150   6.680
 2023SOL    HW2 6969   0.318   0.257   6.765
 2024SOL     OW 6970   7.016   6.156   3.405
 2024SOL    HW1 6971   0.036   6.230   3.459
 2024SOL    HW2 6972   7.020   6.071   3.458
 2025SOL     OW 6973   4.269   0.975   3.763
 2025SOL    HW1 6974   4.247   0.930   3.676
 2025SOL    HW2 6975   4.257   0.910   3.838
 2026SOL     OW 6976   6.354   2.912   5.832
 2026SOL    HW1 6977   6.424   2.977   5.803
 2026SOL    HW2 6978   6.263   2.950   5.816
 2027SOL     OW 6979   1.441   0.051   1.165
 2027SOL    HW1 6980   1.356   0.104   1.167
 2027SOL    HW2 6981   1.478   0.045   1.258
 2028SOL     OW 6982   3.434   5.632   4.893
 2028SOL    HW1 6983   3.348   5.668   4.855
 2028SOL    HW2 6984   3.416   5.546   4.939
 2029SOL     OW 6985   6.011   2.049   0.552
 2029SOL    HW1 6986   6.073   1.972   0.566
 2029SOL    HW2 6987   5.930   2.018   0.502
 2030SOL     OW 6988   2.969   0.823   3.603
 2030SOL    HW1 6989   3.011   0.790   3.518
 2030SOL    HW2 6990   2.884   0.872   3.582
 2031SOL     OW 6991   0.063   5.698   1.765
 2031SOL    HW1 6992   0.077   5.626   1.833
 2031SOL    HW2 6993   0.152   5.727   1.730
 2032SOL     OW 6994   3.886   0.972   1.999
 2032SOL    HW1 6995   3.900   0.986   1.901
 2032SOL    HW2 6996   3.964   1.008   2.050
 2033SOL     OW 6997   2.522   2.702   6.877
 2033SOL    HW1 6998   2.527   2.791   6.923
 2033SOL    HW2 6999   2.454   2.707   6.803
 2034SOL     OW 7000   2.850   4.449   5.644
 2034SOL    HW1 7001   2.934   4.440   5.696
 2034SOL    HW2 7002   2.810   4.358   5.628
 2035SOL     OW 7003   6.289   6.750   3.211
 2035SOL    HW1 7004   6.191   6.746   3.231
 2035SOL    HW2 7005   6.338   6.781   3.293
 2036SOL     OW 7006   1.179   3.315   2.709
 2036SOL    HW1 7007   1.139   3.317   2.800
 2036SOL    HW2 7008   1.108   3.332   2.641
 2037SOL     OW 7009   6.086   2.960   5.840
 2037SOL    HW1 7010   6.072   3.058   5.824
 2037SOL    HW2 7011   6.007   2.909   5.804
 2038SOL     OW 7012   2.006   1.387   0.005
 2038SOL    HW1 7013   1.990   1.288   0.003
 2038SOL    HW2 7014   2.101   1.405   0.030
 2039SOL     OW 7015   6.646   6.160   3.234
 2039SOL    HW1 7016   6.597   6.246   3.250
 2039SOL    HW2 7017   6.580   6.087   3.216
 2040SOL     OW 7018   1.712   2.960   6.914
 2040SOL    HW1 7019   1.643   2.919   6.855
 2040SOL    HW2 7020   1.672   3.036   6.964
 2041SOL     OW 7021   1.108   6.742   4.921
 2041SOL    HW1 7022   1.020   6.768   4.960
 2041SOL    HW2 7023   1.109   6.764   4.823
 2042SOL     OW 7024   5.017   6.298   6.831
 2042SOL    HW1 7025   5.009   6.298   6.931
 2042SOL    HW2 7026   5.113   6.288   6.806
 2043SOL     OW 7027   6.657   3.302   3.254
 2043SOL    HW1 7028   6.733   3.303   3.189
 2043SOL    HW2 7029   6.584   3.361   3.221
 2044SOL     OW 7030   6.496   0.664   1.404
 2044SOL    HW1 7031   6.529   0.669   1.498
 2044SOL    HW2 7032   6.573   0.644   1.343
 2045SOL     OW 7033   2.103   5.291   4.524
 2045SOL    HW1 7034   2.143   5.343   4.600
 2045SOL    HW2 7035   2.162   5.212   4.503
 2046SOL     OW 7036   6.386   1.794   4.604
 2046SOL    HW1 7037   6.375   1.892   4.624
 2046SOL    HW2 7038   6.439   1.751   4.677
 2047SOL     OW 7039   6.873   2.301   0.076
 2047SOL    HW1 7040   6.856   2.359   7.019
 2047SOL    HW2 7041   6.825   2.337   0.155
 2048SOL     OW 7042   0.415   6.967   5.592
 2048SOL    HW1 7043   0.387   6.899   5.660
 2048SOL    HW2 7044   0.467   6.923   5.519
 2049SOL     OW 7045   5.615   1.504   4.316
 2049SOL    HW1 7046   5.715   1.508   4.321
 2049SOL    HW2 7047   5.582   1.572   4.250
 2050SOL     OW 7048   6.009   2.677   4.016
 2050SOL    HW1 7049   6.032   2.620   4.095
 2050SOL    HW2 7050   5.953   2.753   4.046
 2051SOL     OW 7051   1.664   6.057   6.404
 2051SOL    HW1 7052   1.665   5.972   6.351
 2051SOL    HW2 7053   1.749   6.107   6.388
 2052SOL     OW 7054   1.695   2.588   1.070
 2052SOL    HW1 7055   1.602   2.584   1.032
 2052SOL    HW2 7056   1.726   2.683   1.073
 2053SOL     OW 7057   6.938   5.678   4.478
 2053SOL    HW1 7058   6.882   5.602   4.444
 2053SOL    HW2 7059   0.010   5.647   4.488
 2054SOL     OW 7060   3.615   4.161   3.014
 2054SOL    HW1 7061   3.646   4.147   3.108
 2054SOL    HW2 7062   3.673   4.230   2.970
 2055SOL     OW 7063   6.091   3.043   4.720
 2055SOL    HW1 7064   6.168   3.106   4.704
 2055SOL    HW2 7065   6.052   3.015   4.632
 2056SOL     OW 7066   4.325   5.209   1.148
 2056SOL    HW1 7067   4.298   5.231   1.242
 2056SOL    HW2 7068   4.270   5.133   1.114
 2057SOL     OW 7069   4.756   3.935   5.785
 2057SOL    HW1 7070   4.856   3.936   5.794
 2057SOL    HW2 7071   4.714   3.940   5.876
 2058SOL     OW 7072   0.231   6.384   2.542
 2058SOL    HW1 7073   0.324   6.358   2.568
 2058SOL    HW2 7074   0.170   6.370   2.620
 2059SOL     OW 7075   1.914   6.182   6.424
 2059SOL    HW1 7076   1.931   6.143   6.515
 2059SOL    HW2 7077   1.992   6.238   6.396
 2060SOL     OW 7078   0.379   3.739   2.012
 2060SOL    HW1 7079   0.364   3.653   2.061
 2060SOL    HW2 7080   0.299   3.798   2.023
 2061SOL     OW 7081   1.536   1.831   2.149
 2061SOL    HW1 7082   1.629   1.823   2.184
 2061SOL    HW2 7083   1.527   1.918   2.099
 2062SOL     OW 7084   0.013   5.834   5.210
 2062SOL    HW1 7085   0.110   5.821   5.189
 2062SOL    HW2 7086   7.001   5.912   5.157
 2063SOL     OW 7087   1.437   6.786   4.839
 2063SOL    HW1 7088   1.342   6.759   4.857
 2063SOL    HW2 7089   1.443   6.886   4.839
 2064SOL     OW 7090   0.030   2.420   5.079
 2064SOL    HW1 7091   0.050   2.327   5.049
 2064SOL    HW2 7092   7.004   2.418   5.166
 2065SOL     OW 7093   5.995   3.160   6.237
 2065SOL    HW1 7094   5.994   3.080   6.176
 2065SOL    HW2 7095   6.018   3.242   6.184
 2066SOL     OW 7096   6.789   3.766   5.296
 2066SOL    HW1 7097   6.816   3.850   5.250
 2066SOL    HW2 7098   6.689   3.761   5.300
 2067SOL     OW 7099   0.242   4.706   0.612
 2067SOL    HW1 7100   0.214   4.798   0.640
 2067SOL    HW2 7101   0.163   4.657   0.575
 2068SOL     OW 7102   3.427   0.513   3.856
 2068SOL    HW1 7103   3.338   0.519   3.811
 2068SOL    HW2 7104   3.416   0.478   3.948
 2069SOL     OW 7105   6.743   2.353   4.293
 2069SOL    HW1 7106   6.667   2.418   4.305
 2069SOL    HW2 7107   6.733   2.306   4.205
 2070SOL     OW 7108   1.227   1.449   0.860
 2070SOL    HW1 7109   1.197   1.375   0.920
 2070SOL    HW2 7110   1.275   1.411   0.782
 2071SOL     OW 7111   6.191   0.650   5.662
 2071SOL    HW1 7112   6.173   0.651   5.563
 2071SOL    HW2 7113   6.232   0.737   5.689
 2072SOL     OW 7114   4.657   5.395   4.767
 2072SOL    HW1 7115   4.608   5.426   4.685
 2072SOL    HW2 7116   4.682   5.475   4.822
 2073SOL     OW 7117   4.469   6.257   5.217
 2073SOL    HW1 7118   4.399   6.187   5.206
 2073SOL    HW2 7119   4.427   6.343   5.246
 2074SOL     OW 7120   1.828   2.650   6.481
 2074SOL    HW1 7121   1.856   2.554   6.493
 2074SOL    HW2 7122   1.788   2.661   6.390
 2075SOL     OW 7123   6.829   2.491   3.000
 2075SOL    HW1 7124   6.915   2.502   3.050
 2075SOL    HW2 7125   6.808   2.394   2.991
 2076SOL     OW 7126   5.344   6.444   6.551
 2076SOL    HW1 7127   5.340   6.347   6.573
 2076SOL    HW2 7128   5.296   6.460   6.464
 2077SOL     OW 7129   6.809   2.192   1.897
 2077SOL    HW1 7130   6.807   2.265   1.829
 2077SOL    HW2 7131   6.903   2.161   1.911
 2078SOL     OW 7132   2.297   5.153   6.366
 2078SOL    HW1 7133   2.392   5.184   6.364
 2078SOL    HW2 7134   2.241   5.215   6.311
 2079SOL     OW 7135   7.004   1.200   2.961
 2079SOL    HW1 7136   0.064   1.160   3.001
 2079SOL    HW2 7137   7.015   1.299   2.951
 2080SOL     OW 7138   2.593   0.942   4.835
 2080SOL    HW1 7139   2.622   0.867   4.775
 2080SOL    HW2 7140   2.671   0.976   4.887
 2081SOL     OW 7141   1.023   6.790   4.635
 2081SOL    HW1 7142   1.083   6.819   4.560
 2081SOL    HW2 7143   0.947   6.737   4.598
 2082SOL     OW 7144   0.805   6.294   3.360
 2082SOL    HW1 7145   0.722   6.347   3.342
 2082SOL    HW2 7146   0.850   6.273   3.273
 2083SOL     OW 7147   1.090   6.241   5.122
 2083SOL    HW1 7148   1.038   6.164   5.159
 2083SOL    HW2 7149   1.121   6.299   5.198
 2084SOL     OW 7150   1.049   3.012   2.162
 2084SOL    HW1 7151   1.055   3.079   2.237
 2084SOL    HW2 7152   1.140   2.996   2.125
 2085SOL     OW 7153   4.904   7.009   1.117
 2085SOL    HW1 7154   4.929   6.995   1.213
 2085SOL    HW2 7155   4.827   0.049   1.111
 2086SOL     OW 7156   3.930   5.649   0.156
 2086SOL    HW1 7157   3.871   5.720   0.194
 2086SOL    HW2 7158   3.875   5.582   0.106
 2087SOL     OW 7159   4.723   2.079   1.441
 2087SOL    HW1 7160   4.632   2.061   1.479
 2087SOL    HW2 7161   4.770   1.992   1.426
 2088SOL     OW 7162   1.058   5.892   6.567
 2088SOL    HW1 7163   0.964   5.922   6.581
 2088SOL    HW2 7164   1.066   5.796   6.593
 2089SOL     OW 7165   4.407   2.257   5.440
 2089SOL    HW1 7166   4.489   2.210   5.408
 2089SOL    HW2 7167   4.432   2.326   5.508
 2090SOL     OW 7168   4.737   3.089   5.600
 2090SOL    HW1 7169   4.646   3.107   5.638
 2090SOL    HW2 7170   4.804   3.143   5.651
 2091SOL     OW 7171   0.100   5.352   1.022
 2091SOL    HW1 7172   0.148   5.368   1.109
 2091SOL    HW2 7173   0.039   5.429   1.004
 2092SOL     OW 7174   5.677   3.179   0.748
 2092SOL    HW1 7175   5.745   3.129   0.693
 2092SOL    HW2 7176   5.687   3.277   0.731
 2093SOL     OW 7177   3.200   2.181   1.704
 2093SOL    HW1 7178   3.248   2.154   1.621
 2093SOL    HW2 7179   3.246   2.259   1.746
 2094SOL     OW 7180   5.183   1.677   1.185
 2094SOL    HW1 7181   5.275   1.691   1.149
 2094SOL    HW2 7182   5.172   1.582   1.212
 2095SOL     OW 7183   6.227   6.344   4.435
 2095SOL    HW1 7184   6.262   6.411   4.500
 2095SOL    HW2 7185   6.301   6.282   4.408
 2096SOL     OW 7186   4.852   5.904   3.483
 2096SOL    HW1 7187   4.946   5.935   3.468
 2096SOL    HW2 7188   4.852   5.805   3.497
 2097SOL     OW 7189   2.759   3.433   6.964
 2097SOL    HW1 7190   2.752   3.397   0.035
 2097SOL    HW2 7191   2.811   3.369   6.907
 2098SOL     OW 7192   4.373   6.295   2.749
 2098SOL    HW1 7193   4.377   6.356   2.828
 2098SOL    HW2 7194   4.466   6.278   2.715
 2099SOL     OW 7195   3.919   1.536   6.695
 2099SOL    HW1 7196   3.972   1.606   6.742
 2099SOL    HW2 7197   3.852   1.496   6.757
 2100SOL     OW 7198   5.123   1.384   0.782
 2100SOL    HW1 7199   5.192   1.393   0.710
 2100SOL    HW2 7200   5.167   1.356   0.867
 2101SOL     OW 7201   6.774   6.311   1.383
 2101SOL    HW1 7202   6.748   6.401   1.419
 2101SOL    HW2 7203   6.856   6.321   1.327
 2102SOL     OW 7204   4.830   3.649   1.834
 2102SOL    HW1 7205   4.747   3.662   1.779
 2102SOL    HW2 7206   4.858   3.554   1.830
 2103SOL     OW 7207   3.905   4.179   0.159
 2103SOL    HW1 7208   3.937   4.268   0.126
 2103SOL    HW2 7209   3.807   4.183   0.174
 2104SOL     OW 7210   1.521   4.416   1.940
 2104SOL    HW1 7211   1.562   4.423   2.032
 2104SOL    HW2 7212   1.514   4.320   1.914
 2105SOL     OW 7213   4.815   4.904   7.012
 2105SOL    HW1 7214   4.756   4.923   6.934
 2105SOL    HW2 7215   4.772   4.938   0.074
 2106SOL     OW 7216   4.407   3.647   1.291
 2106SOL    HW1 7217   4.366   3.730   1.328
 2106SOL    HW2 7218   4.335   3.582   1.267
 2107SOL     OW 7219   5.968   2.643   5.702
 2107SOL    HW1 7220   6.064   2.657   5.724
 2107SOL    HW2 7221   5.938   2.713   5.637
 2108SOL     OW 7222   6.262   6.026   4.997
 2108SOL    HW1 7223   6.187   5.999   4.936
 2108SOL    HW2 7224   6.284   5.950   5.059
 2109SOL     OW 7225   2.964   5.790   2.615
 2109SOL    HW1 7226   3.049   5.751   2.651
 2109SOL    HW2 7227   2.977   5.888   2.598
 2110SOL     OW 7228   3.556   0.687   6.541
 2110SOL    HW1 7229   3.518   0.771   6.504
 2110SOL    HW2 7230   3.511   0.666   6.628
 2111SOL     OW 7231   2.051   3.628   5.476
 2111SOL    HW1 7232   2.128   3.688   5.496
 2111SOL    HW2 7233   2.081   3.532   5.480
 2112SOL     OW 7234   5.098   2.362   0.312
 2112SOL    HW1 7235   5.066   2.457   0.312
 2112SOL    HW2 7236   5.034   2.305   0.260
 2113SOL     OW 7237   2.254   0.498   4.943
 2113SOL    HW1 7238   2.332   0.512   5.004
 2113SOL    HW2 7239   2.172   0.538   4.984
 2114SOL     OW 7240   2.597   2.463   6.631
 2114SOL    HW1 7241   2.615   2.488   6.536
 2114SOL    HW2 7242   2.556   2.542   6.679
 2115SOL     OW 7243   0.844   4.433   2.615
 2115SOL    HW1 7244   0.835   4.334   2.610
 2115SOL    HW2 7245   0.932   4.460   2.578
 2116SOL     OW 7246   1.362   3.135   1.833
 2116SOL    HW1 7247   1.365   3.044   1.790
 2116SOL    HW2 7248   1.284   3.186   1.797
 2117SOL     OW 7249   5.287   3.689   1.435
 2117SOL    HW1 7250   5.258   3.757   1.502
 2117SOL    HW2 7251   5.256   3.599   1.463
 2118SOL     OW 7252   6.659   3.279   2.815
 2118SOL    HW1 7253   6.700   3.344   2.750
 2118SOL    HW2 7254   6.606   3.211   2.766
 2119SOL     OW 7255   2.126   1.283   0.760
 2119SOL    HW1 7256   2.075   1.369   0.768
 2119SOL    HW2 7257   2.223   1.300   0.772
 2120SOL     OW 7258   0.355   3.499   2.150
 2120SOL    HW1 7259   0.277   3.439   2.137
 2120SOL    HW2 7260   0.417   3.459   2.218
 2121SOL     OW 7261   1.481   2.760   5.947
 2121SOL    HW1 7262   1.456   2.684   5.887
 2121SOL    HW2 7263   1.580   2.770   5.949
 2122SOL     OW 7264   5.261   6.040   6.353
 2122SOL    HW1 7265   5.339   6.083   6.307
 2122SOL    HW2 7266   5.263   5.941   6.338
 2123SOL     OW 7267   6.363   6.119   1.740
 2123SOL    HW1 7268   6.351   6.113   1.839
 2123SOL    HW2 7269   6.458   6.096   1.716
 2124SOL     OW 7270   3.120   1.489   0.220
 2124SOL    HW1 7271   3.029   1.453   0.240
 2124SOL    HW2 7272   3.143   1.470   0.124
 2125SOL     OW 7273   0.649   5.403   2.037
 2125SOL    HW1 7274   0.632   5.337   1.964
 2125SOL    HW2 7275   0.747   5.422   2.043
 2126SOL     OW 7276   3.256   2.892   6.255
 2126SOL    HW1 7277   3.247   2.849   6.165
 2126SOL    HW2 7278   3.246   2.991   6.247
 2127SOL     OW 7279   0.956   1.984   5.539
 2127SOL    HW1 7280   0.958   2.084   5.533
 2127SOL    HW2 7281   0.874   1.955   5.588
 2128SOL     OW 7282   5.734   2.669   2.101
 2128SOL    HW1 7283   5.804   2.598   2.105
 2128SOL    HW2 7284   5.674   2.652   2.022
 2129SOL     OW 7285   4.465   4.725   4.913
 2129SOL    HW1 7286   4.450   4.644   4.969
 2129SOL    HW2 7287   4.400   4.726   4.837
 2130SOL     OW 7288   2.754   0.729   1.928
 2130SOL    HW1 7289   2.703   0.700   1.847
 2130SOL    HW2 7290   2.813   0.807   1.904
 2131SOL     OW 7291   4.861   1.428   0.788
 2131SOL    HW1 7292   4.822   1.472   0.868
 2131SOL    HW2 7293   4.961   1.434   0.792
 2132SOL     OW 7294   3.236   1.463   6.991
 2132SOL    HW1 7295   3.244   1.490   6.895
 2132SOL    HW2 7296   3.311   1.401   7.014
 2133SOL     OW 7297   3.500   2.084   0.955
 2133SOL    HW1 7298   3.432   2.114   1.022
 2133SOL    HW2 7299   3.581   2.143   0.961
 2134SOL     OW 7300   1.085   0.917   4.845
 2134SOL    HW1 7301   0.992   0.881   4.854
 2134SOL    HW2 7302   1.109   0.967   4.928
 2135SOL     OW 7303   0.377   1.878   4.760
 2135SOL    HW1 7304   0.400   1.781   4.771
 2135SOL    HW2 7305   0.451   1.924   4.711
 2136SOL     OW 7306   1.412   3.441   4.633
 2136SOL    HW1 7307   1.381   3.534   4.613
 2136SOL    HW2 7308   1.469   3.442   4.716
 2137SOL     OW 7309   0.249   6.736   4.323
 2137SOL    HW1 7310   0.282   6.800   4.393
 2137SOL    HW2 7311   0.255   6.780   4.233
 2138SOL     OW 7312   5.928   2.462   2.099
 2138SOL    HW1 7313   5.991   2.494   2.169
 2138SOL    HW2 7314   5.945   2.364   2.081
 2139SOL     OW 7315   4.083   1.072   2.914
 2139SOL    HW1 7316   4.048   1.096   2.824
 2139SOL    HW2 7317   4.005   1.056   2.976
 2140SOL     OW 7318   3.202   6.258   3.232
 2140SOL    HW1 7319   3.143   6.265   3.152
 2140SOL    HW2 7320   3.280   6.320   3.220
 2141SOL     OW 7321   6.930   3.086   1.241
 2141SOL    HW1 7322   6.919   3.096   1.142
 2141SOL    HW2 7323   6.843   3.055   1.280
 2142SOL     OW 7324   1.485   2.093   3.195
 2142SOL    HW1 7325   1.414   2.161   3.178
 2142SOL    HW2 7326   1.449   2.020   3.253
 2143SOL     OW 7327   3.156   4.697   0.620
 2143SOL    HW1 7328   3.228   4.746   0.572
 2143SOL    HW2 7329   3.151   4.602   0.587
 2144SOL     OW 7330   1.573   0.286   2.732
 2144SOL    HW1 7331   1.612   0.195   2.735
 2144SOL    HW2 7332   1.512   0.294   2.653
 2145SOL     OW 7333   3.655   5.416   4.067
 2145SOL    HW1 7334   3.687   5.459   4.151
 2145SOL    HW2 7335   3.732   5.409   4.002
 2146SOL     OW 7336   2.969   3.809   2.111
 2146SOL    HW1 7337   2.958   3.888   2.049
 2146SOL    HW2 7338   2.936   3.834   2.202
 2147SOL     OW 7339   6.548   0.634   6.781
 2147SOL    HW1 7340   6.547   0.547   6.831
 2147SOL    HW2 7341   6.551   0.710   6.846
 2148SOL     OW 7342   4.801   2.944   4.618
 2148SOL    HW1 7343   4.776   3.040   4.605
 2148SOL    HW2 7344   4.889   2.926   4.573
 2149SOL     OW 7345   3.403   0.518   1.016
 2149SOL    HW1 7346   3.424   0.569   0.933
 2149SOL    HW2 7347   3.310   0.483   1.012
 2150SOL     OW 7348   2.891   2.247   2.529
 2150SOL    HW1 7349   2.924   2.222   2.438
 2150SOL    HW2 7350   2.967   2.245   2.594
 2151SOL     OW 7351   2.255   1.696   4.046
 2151SOL    HW1 7352   2.297   1.663   4.131
 2151SOL    HW2 7353   2.249   1.620   3.981
 2152SOL     OW 7354   4.087   6.126   1.812
 2152SOL    HW1 7355   3.996   6.162   1.831
 2152SOL    HW2 7356   4.154   6.200   1.820
 2153SOL     OW 7357   4.003   0.424   3.383
 2153SOL    HW1 7358   3.977   0.413   3.479
 2153SOL    HW2 7359   4.098   0.456   3.377
 2154SOL     OW 7360   3.801   6.487   4.977
 2154SOL    HW1 7361   3.812   6.389   4.991
 2154SOL    HW2 7362   3.846   6.537   5.051
 2155SOL     OW 7363   1.635   5.234   0.046
 2155SOL    HW1 7364   1.669   5.170   0.115
 2155SOL    HW2 7365   1.625   5.325   0.086
 2156SOL     OW 7366   2.808   0.238   1.979
 2156SOL    HW1 7367   2.838   0.186   1.899
 2156SOL    HW2 7368   2.863   0.211   2.058
 2157SOL     OW 7369   6.719   1.150   2.963
 2157SOL    HW1 7370   6.817   1.136   2.979
 2157SOL    HW2 7371   6.680   1.067   2.921
 2158SOL     OW 7372   4.108   6.335   0.799
 2158SOL    HW1 7373   4.018   6.312   0.837
 2158SOL    HW2 7374   4.122   6.284   0.714
 2159SOL     OW 7375   1.562   6.189   5.819
 2159SOL    HW1 7376   1.645   6.241   5.839
 2159SOL    HW2 7377   1.586   6.096   5.794
 2160SOL     OW 7378   4.308   3.373   1.534
 2160SOL    HW1 7379   4.347   3.334   1.450
 2160SOL    HW2 7380   4.381   3.409   1.591
 2161SOL     OW 7381   5.243   2.595   3.509
 2161SOL    HW1 7382   5.294   2.609   3.594
 2161SOL    HW2 7383   5.276   2.511   3.465
 2162SOL     OW 7384   2.709   0.801   0.402
 2162SOL    HW1 7385   2.770   0.869   0.362
 2162SOL    HW2 7386   2.761   0.719   0.426
 2163SOL     OW 7387   0.039   5.686   6.085
 2163SOL    HW1 7388   0.096   5.672   6.004
 2163SOL    HW2 7389   7.012   5.772   6.076
 2164SOL     OW 7390   1.899   1.859   7.012
 2164SOL    HW1 7391   1.855   1.916   6.942
 2164SOL    HW2 7392   1.885   1.900   0.079
 2165SOL     OW 7393   1.076   1.614   2.723
 2165SOL    HW1 7394   1.079   1.514   2.720
 2165SOL    HW2 7395   1.165   1.650   2.695
 2166SOL     OW 7396   2.207   2.386   5.528
 2166SOL    HW1 7397   2.138   2.449   5.494
 2166SOL    HW2 7398   2.250   2.426   5.609
 2167SOL     OW 7399   2.667   0.300   2.628
 2167SOL    HW1 7400   2.592   0.276   2.690
 2167SOL    HW2 7401   2.753   0.302   2.678
 2168SOL     OW 7402   6.511   2.459   4.031
 2168SOL    HW1 7403   6.436   2.448   3.966
 2168SOL    HW2 7404   6.477   2.444   4.124
 2169SOL     OW 7405   5.791   2.212   6.033
 2169SOL    HW1 7406   5.782   2.272   5.954
 2169SOL    HW2 7407   5.777   2.264   6.117
 2170SOL     OW 7408   5.698   5.133   5.418
 2170SOL    HW1 7409   5.684   5.035   5.427
 2170SOL    HW2 7410   5.676   5.178   5.505
 2171SOL     OW 7411   6.285   3.155   0.785
 2171SOL    HW1 7412   6.321   3.175   0.875
 2171SOL    HW2 7413   6.211   3.087   0.792
 2172SOL     OW 7414   2.755   1.718   0.751
 2172SOL    HW1 7415   2.683   1.701   0.685
 2172SOL    HW2 7416   2.774   1.634   0.802
 2173SOL     OW 7417   3.807   0.064   5.458
 2173SOL    HW1 7418   3.758   0.085   5.542
 2173SOL    HW2 7419   3.840   6.992   5.461
 2174SOL     OW 7420   6.206   5.210   6.121
 2174SOL    HW1 7421   6.220   5.305   6.150
 2174SOL    HW2 7422   6.288   5.157   6.142
 2175SOL     OW 7423   2.709   2.321   3.445
 2175SOL    HW1 7424   2.668   2.352   3.531
 2175SOL    HW2 7425   2.795   2.273   3.465
 2176SOL     OW 7426   1.012   2.159   1.222
 2176SOL    HW1 7427   1.031   2.178   1.319
 2176SOL    HW2 7428   0.918   2.187   1.200
 2177SOL     OW 7429   6.645   0.712   1.971
 2177SOL    HW1 7430   6.564   0.770   1.983
 2177SOL    HW2 7431   6.615   0.617   1.958
 2178SOL     OW 7432   1.077   4.021   0.621
 2178SOL    HW1 7433   1.166   4.028   0.575
 2178SOL    HW2 7434   1.039   4.113   0.633
 2179SOL     OW 7435   2.392   5.285   4.333
 2179SOL    HW1 7436   2.357   5.193   4.316
 2179SOL    HW2 7437   2.395   5.302   4.431
 2180SOL     OW 7438   3.264   3.121   1.545
 2180SOL    HW1 7439   3.231   3.068   1.623
 2180SOL    HW2 7440   3.342   3.177   1.573
 2181SOL     OW 7441   4.881   4.214   5.994
 2181SOL    HW1 7442   4.913   4.303   5.961
 2181SOL    HW2 7443   4.957   4.150   5.994
 2182SOL     OW 7444   6.338   3.202   5.614
 2182SOL    HW1 7445   6.410   3.262   5.579
 2182SOL    HW2 7446   6.291   3.247   5.690
 2183SOL     OW 7447   3.646   3.595   0.482
 2183SOL    HW1 7448   3.602   3.684   0.467
 2183SOL    HW2 7449   3.624   3.563   0.575
 2184SOL     OW 7450   3.321   1.177   4.940
 2184SOL    HW1 7451   3.386   1.174   5.016
 2184SOL    HW2 7452   3.309   1.271   4.909
 2185SOL     OW 7453   2.039   1.681   0.751
 2185SOL    HW1 7454   2.135   1.708   0.739
 2185SOL    HW2 7455   1.980   1.756   0.720
 2186SOL     OW 7456   0.107   4.637   2.323
 2186SOL    HW1 7457   0.009   4.631   2.309
 2186SOL    HW2 7458   0.126   4.665   2.417
 2187SOL     OW 7459   0.691   1.048   2.039
 2187SOL    HW1 7460   0.743   1.134   2.044
 2187SOL    HW2 7461   0.714   1.001   1.954
 2188SOL     OW 7462   4.891   5.785   3.917
 2188SOL    HW1 7463   4.862   5.703   3.867
 2188SOL    HW2 7464   4.966   5.829   3.867
 2189SOL     OW 7465   1.572   6.598   6.338
 2189SOL    HW1 7466   1.586   6.690   6.302
 2189SOL    HW2 7467   1.657   6.546   6.332
 2190SOL     OW 7468   6.482   2.171   1.734
 2190SOL    HW1 7469   6.516   2.265   1.737
 2190SOL    HW2 7470   6.552   2.112   1.694
 2191SOL     OW 7471   3.310   1.993   6.385
 2191SOL    HW1 7472   3.335   2.089   6.373
 2191SOL    HW2 7473   3.298   1.973   6.483
 2192SOL     OW 7474   4.135   7.020   4.596
 2192SOL    HW1 7475   4.098   0.090   4.593
 2192SOL    HW2 7476   4.067   6.955   4.562
 2193SOL     OW 7477   6.168   5.489   6.173
 2193SOL    HW1 7478   6.086   5.441   6.203
 2193SOL    HW2 7479   6.158   5.587   6.192
 2194SOL     OW 7480   2.562   4.791   6.998
 2194SOL    HW1 7481   2.586   4.738   6.917
 2194SOL    HW2 7482   2.501   4.866   6.973
 2195SOL     OW 7483   0.205   6.706   2.035
 2195SOL    HW1 7484   0.289   6.657   2.056
 2195SOL    HW2 7485   0.138   6.643   1.996
 2196SOL     OW 7486   2.190   0.336   5.531
 2196SOL    HW1 7487   2.232   0.401   5.468
 2196SOL    HW2 7488   2.172   0.250   5.482
 2197SOL     OW 7489   4.730   3.725   1.343
 2197SOL    HW1 7490   4.727   3.782   1.425
 2197SOL    HW2 7491   4.799   3.654   1.355
 2198SOL     OW 7492   6.665   2.364   6.706
 2198SOL    HW1 7493   6.732   2.298   6.738
 2198SOL    HW2 7494   6.700   2.411   6.625
 2199SOL     OW 7495   5.429   0.016   1.409
 2199SOL    HW1 7496   5.374   0.032   1.327
 2199SOL    HW2 7497   5.463   6.944   1.408
 2200SOL     OW 7498   4.077   0.282   4.606
 2200SOL    HW1 7499   4.170   0.249   4.626
 2200SOL    HW2 7500   4.081   0.378   4.579
 2201SOL     OW 7501   6.302   3.812   2.355
 2201SOL    HW1 7502   6.289   3.864   2.271
 2201SOL    HW2 7503   6.287   3.714   2.337
 2202SOL     OW 7504   3.647   5.195   4.645
 2202SOL    HW1 7505   3.558   5.159   4.672
 2202SOL    HW2 7506   3.683   5.143   4.568
 2203SOL     OW 7507   2.477   2.181   2.625
 2203SOL    HW1 7508   2.429   2.131   2.697
 2203SOL    HW2 7509   2.442   2.153   2.535
 2204SOL     OW 7510   3.362   1.105   6.824
 2204SOL    HW1 7511   3.390   1.009   6.822
 2204SOL    HW2 7512   3.263   1.111   6.817
 2205SOL     OW 7513   1.549   0.383   6.732
 2205SOL    HW1 7514   1.640   0.380   6.692
 2205SOL    HW2 7515   1.545   0.456   6.800
 2206SOL     OW 7516   3.174   4.109   5.294
 2206SOL    HW1 7517   3.141   4.177   5.360
 2206SOL    HW2 7518   3.133   4.020   5.313
 2207SOL     OW 7519   1.977   4.233   6.580
 2207SOL    HW1 7520   2.005   4.268   6.491
 2207SOL    HW2 7521   2.052   4.245   6.646
 2208SOL     OW 7522   1.696   4.430   2.243
 2208SOL    HW1 7523   1.726   4.518   2.279
 2208SOL    HW2 7524   1.596   4.430   2.234
 2209SOL     OW 7525   1.253   6.275   5.570
 2209SOL    HW1 7526   1.269   6.287   5.668
 2209SOL    HW2 7527   1.337   6.248   5.525
 2210SOL     OW 7528   0.112   4.903   3.598
 2210SOL    HW1 7529   0.166   4.820   3.590
 2210SOL    HW2 7530   0.059   4.916   3.514
 2211SOL     OW 7531   5.591   1.547   6.035
 2211SOL    HW1 7532   5.670   1.592   6.075
 2211SOL    HW2 7533   5.612   1.520   5.940
 2212SOL     OW 7534   0.851   6.287   6.912
 2212SOL    HW1 7535   0.922   6.355   6.895
 2212SOL    HW2 7536   0.888   6.195   6.897
 2213SOL     OW 7537   4.498   2.584   5.028
 2213SOL    HW1 7538   4.399   2.566   5.030
 2213SOL    HW2 7539   4.545   2.520   5.088
 2214SOL     OW 7540   4.725   0.762   5.696
 2214SOL    HW1 7541   4.641   0.741   5.646
 2214SOL    HW2 7542   4.712   0.845   5.751
 2215SOL     OW 7543   6.810   1.284   5.530
 2215SOL    HW1 7544   6.785   1.325   5.443
 2215SOL    HW2 7545   6.727   1.267   5.584
 2216SOL     OW 7546   1.871   0.617   6.723
 2216SOL    HW1 7547   1.959   0.640   6.683
 2216SOL    HW2 7548   1.828   0.545   6.668
 2217SOL     OW 7549   2.827   0.142   0.927
 2217SOL    HW1 7550   2.767   0.138   1.007
 2217SOL    HW2 7551   2.818   0.231   0.883
 2218SOL     OW 7552   1.221   6.430   0.197
 2218SOL    HW1 7553   1.313   6.467   0.200
 2218SOL    HW2 7554   1.189   6.410   0.290
 2219SOL     OW 7555   1.300   3.895   3.083
 2219SOL    HW1 7556   1.349   3.977   3.112
 2219SOL    HW2 7557   1.203   3.915   3.075
 2220SOL     OW 7558   0.679   1.588   4.383
 2220SOL    HW1 7559   0.610   1.633   4.326
 2220SOL    HW2 7560   0.673   1.489   4.371
 2221SOL     OW 7561   0.033   1.124   6.827
 2221SOL    HW1 7562   0.041   1.084   6.918
 2221SOL    HW2 7563   6.987   1.196   6.828
 2222SOL     OW 7564   3.970   1.336   0.743
 2222SOL    HW1 7565   3.952   1.430   0.773
 2222SOL    HW2 7566   4.061   1.331   0.702
 2223SOL     OW 7567   5.927   6.026   3.735
 2223SOL    HW1 7568   5.872   6.091   3.682
 2223SOL    HW2 7569   5.945   5.945   3.679
 2224SOL     OW 7570   1.799   4.442   1.526
 2224SOL    HW1 7571   1.824   4.443   1.623
 2224SOL    HW2 7572   1.822   4.531   1.486
 2225SOL     OW 7573   6.233   5.526   3.167
 2225SOL    HW1 7574   6.180   5.463   3.224
 2225SOL    HW2 7575   6.181   5.549   3.085
 2226SOL     OW 7576   3.728   3.393   0.666
 2226SOL    HW1 7577   3.659   3.347   0.722
 2226SOL    HW2 7578   3.755   3.334   0.590
 2227SOL     OW 7579   6.119   4.260   0.215
 2227SOL    HW1 7580   6.038   4.265   0.155
 2227SOL    HW2 7581   6.096   4.207   0.297
 2228SOL     OW 7582   3.342   5.767   0.874
 2228SOL    HW1 7583   3.265   5.813   0.830
 2228SOL    HW2 7584   3.419   5.762   0.809
 2229SOL     OW 7585   4.210   1.931   3.990
 2229SOL    HW1 7586   4.112   1.937   4.011
 2229SOL    HW2 7587   4.262   1.981   4.060
 2230SOL     OW 7588   0.997   6.549   3.952
 2230SOL    HW1 7589   0.996   6.576   4.048
 2230SOL    HW2 7590   1.071   6.484   3.937
 2231SOL     OW 7591   1.647   1.733   1.775
 2231SOL    HW1 7592   1.630   1.660   1.708
 2231SOL    HW2 7593   1.561   1.759   1.818
 2232SOL     OW 7594   0.762   2.813   4.129
 2232SOL    HW1 7595   0.728   2.892   4.077
 2232SOL    HW2 7596   0.855   2.792   4.101
 2233SOL     OW 7597   3.237   5.098   0.381
 2233SOL    HW1 7598   3.172   5.080   0.307
 2233SOL    HW2 7599   3.330   5.087   0.346
 2234SOL     OW 7600   4.608   2.154   0.730
 2234SOL    HW1 7601   4.694   2.107   0.710
 2234SOL    HW2 7602   4.625   2.230   0.792
 2235SOL     OW 7603   1.536   0.450   0.343
 2235SOL    HW1 7604   1.518   0.424   0.438
 2235SOL    HW2 7605   1.618   0.405   0.311
 2236SOL     OW 7606   1.084   4.611   0.975
 2236SOL    HW1 7607   1.056   4.519   1.003
 2236SOL    HW2 7608   1.064   4.676   1.048
 2237SOL     OW 7609   5.859   3.569   5.111
 2237SOL    HW1 7610   5.941   3.575   5.053
 2237SOL    HW2 7611   5.826   3.475   5.112
 2238SOL     OW 7612   6.683   5.067   2.758
 2238SOL    HW1 7613   6.624   5.006   2.705
 2238SOL    HW2 7614   6.688   5.156   2.713
 2239SOL     OW 7615   4.232   4.813   3.660
 2239SOL    HW1 7616   4.279   4.739   3.708
 2239SOL    HW2 7617   4.214   4.888   3.723
 2240SOL     OW 7618   5.997   5.254   3.582
 2240SOL    HW1 7619   5.933   5.323   3.614
 2240SOL    HW2 7620   6.007   5.182   3.651
 2241SOL     OW 7621   0.194   6.262   2.280
 2241SOL    HW1 7622   0.268   6.197   2.262
 2241SOL    HW2 7623   0.193   6.286   2.377
 2242SOL     OW 7624   5.533   1.756   3.301
 2242SOL    HW1 7625   5.441   1.778   3.267
 2242SOL    HW2 7626   5.600   1.813   3.253
 2243SOL     OW 7627   2.054   6.141   5.319
 2243SOL    HW1 7628   2.091   6.193   5.396
 2243SOL    HW2 7629   1.984   6.077   5.353
 2244SOL     OW 7630   3.860   0.335   3.000
 2244SOL    HW1 7631   3.815   0.288   3.076
 2244SOL    HW2 7632   3.945   0.287   2.978
 2245SOL     OW 7633   0.542   2.006   2.250
 2245SOL    HW1 7634   0.462   1.997   2.310
 2245SOL    HW2 7635   0.524   2.076   2.180
 2246SOL     OW 7636   1.653   1.936   5.306
 2246SOL    HW1 7637   1.575   1.886   5.344
 2246SOL    HW2 7638   1.687   2.000   5.374
 2247SOL     OW 7639   2.549   2.255   6.249
 2247SOL    HW1 7640   2.538   2.227   6.344
 2247SOL    HW2 7641   2.636   2.220   6.214
 2248SOL     OW 7642   5.094   4.041   6.021
 2248SOL    HW1 7643   5.098   3.960   6.080
 2248SOL    HW2 7644   5.184   4.057   5.981
 2249SOL     OW 7645   6.081   6.661   2.900
 2249SOL    HW1 7646   6.035   6.579   2.935
 2249SOL    HW2 7647   6.168   6.635   2.858
 2250SOL     OW 7648   5.033   4.124   1.240
 2250SOL    HW1 7649   5.068   4.123   1.146
 2250SOL    HW2 7650   4.942   4.167   1.241
 2251SOL     OW 7651   5.633   1.582   0.433
 2251SOL    HW1 7652   5.682   1.596   0.347
 2251SOL    HW2 7653   5.583   1.496   0.430
 2252SOL     OW 7654   6.348   2.450   5.105
 2252SOL    HW1 7655   6.372   2.547   5.097
 2252SOL    HW2 7656   6.252   2.437   5.080
 2253SOL     OW 7657   0.703   3.103   6.499
 2253SOL    HW1 7658   0.619   3.157   6.513
 2253SOL    HW2 7659   0.781   3.154   6.534
 2254SOL     OW 7660   2.145   2.848   5.936
 2254SOL    HW1 7661   2.235   2.837   5.893
 2254SOL    HW2 7662   2.099   2.760   5.940
 2255SOL     OW 7663   6.553   2.153   0.907
 2255SOL    HW1 7664   6.556   2.101   0.822
 2255SOL    HW2 7665   6.493   2.106   0.972
 2256SOL     OW 7666   4.079   5.870   1.945
 2256SOL    HW1 7667   4.104   5.967   1.942
 2256SOL    HW2 7668   4.062   5.843   2.040
 2257SOL     OW 7669   0.796   2.587   4.538
 2257SOL    HW1 7670   0.771   2.658   4.472
 2257SOL    HW2 7671   0.883   2.611   4.581
 2258SOL     OW 7672   1.390   5.981   4.465
 2258SOL    HW1 7673   1.320   5.989   4.536
 2258SOL    HW2 7674   1.437   6.069   4.455
 2259SOL     OW 7675   4.841   3.526   6.364
 2259SOL    HW1 7676   4.912   3.493   6.427
 2259SOL    HW2 7677   4.881   3.541   6.274
 2260SOL     OW 7678   4.771   4.259   3.094
 2260SOL    HW1 7679   4.715   4.270   3.012
 2260SOL    HW2 7680   4.799   4.164   3.103
 2261SOL     OW 7681   6.002   6.277   0.592
 2261SOL    HW1 7682   6.070   6.290   0.663
 2261SOL    HW2 7683   5.917   6.322   0.618
 2262SOL     OW 7684   5.899   2.340   2.872
 2262SOL    HW1 7685   5.817   2.392   2.898
 2262SOL    HW2 7686   5.873   2.264   2.812
 2263SOL     OW 7687   2.576   5.603   6.198
 2263SOL    HW1 7688   2.485   5.598   6.239
 2263SOL    HW2 7689   2.569   5.587   6.100
 2264SOL     OW 7690   3.100   4.034   2.455
 2264SOL    HW1 7691   3.197   4.038   2.431
 2264SOL    HW2 7692   3.050   4.106   2.406
 2265SOL     OW 7693   0.526   1.099   3.515
 2265SOL    HW1 7694   0.433   1.063   3.520
 2265SOL    HW2 7695   0.534   1.180   3.572
 2266SOL     OW 7696   6.809   1.520   0.921
 2266SOL    HW1 7697   6.748   1.593   0.891
 2266SOL    HW2 7698   6.809   1.446   0.853
 2267SOL     OW 7699   5.542   2.723   4.538
 2267SOL    HW1 7700   5.470   2.654   4.531
 2267SOL    HW2 7701   5.631   2.678   4.543
 2268SOL     OW 7702   6.890   5.263   0.410
 2268SOL    HW1 7703   6.837   5.244   0.492
 2268SOL    HW2 7704   6.859   5.349   0.369
 2269SOL     OW 7705   6.243   5.853   5.228
 2269SOL    HW1 7706   6.246   5.784   5.301
 2269SOL    HW2 7707   6.312   5.923   5.245
 2270SOL     OW 7708   3.658   4.157   0.816
 2270SOL    HW1 7709   3.559   4.145   0.805
 2270SOL    HW2 7710   3.706   4.084   0.768
 2271SOL     OW 7711   6.419   3.848   1.294
 2271SOL    HW1 7712   6.340   3.802   1.334
 2271SOL    HW2 7713   6.439   3.808   1.205
 2272SOL     OW 7714   6.181   2.219   4.766
 2272SOL    HW1 7715   6.211   2.300   4.817
 2272SOL    HW2 7716   6.169   2.143   4.830
 2273SOL     OW 7717   1.872   2.067   2.654
 2273SOL    HW1 7718   1.832   2.058   2.745
 2273SOL    HW2 7719   1.865   1.980   2.605
 2274SOL     OW 7720   1.391   3.400   5.229
 2274SOL    HW1 7721   1.411   3.470   5.297
 2274SOL    HW2 7722   1.320   3.338   5.265
 2275SOL     OW 7723   4.685   6.774   4.654
 2275SOL    HW1 7724   4.647   6.842   4.717
 2275SOL    HW2 7725   4.774   6.806   4.621
 2276SOL     OW 7726   3.514   4.947   1.226
 2276SOL    HW1 7727   3.551   4.979   1.313
 2276SOL    HW2 7728   3.580   4.887   1.181
 2277SOL     OW 7729   3.308   3.580   4.828
 2277SOL    HW1 7730   3.317   3.528   4.743
 2277SOL    HW2 7731   3.354   3.531   4.902
 2278SOL     OW 7732   4.507   6.580   3.607
 2278SOL    HW1 7733   4.462   6.627   3.683
 2278SOL    HW2 7734   4.584   6.526   3.643
 2279SOL     OW 7735   5.643   4.668   4.273
 2279SOL    HW1 7736   5.712   4.666   4.201
 2279SOL    HW2 7737   5.644   4.581   4.323
 2280SOL     OW 7738   6.393   6.484   4.874
 2280SOL    HW1 7739   6.351   6.547   4.939
 2280SOL    HW2 7740   6.386   6.391   4.907
 2281SOL     OW 7741   3.438   1.418   1.847
 2281SOL    HW1 7742   3.377   1.407   1.768
 2281SOL    HW2 7743   3.533   1.425   1.814
 2282SOL     OW 7744   5.303   5.967   5.034
 2282SOL    HW1 7745   5.389   6.016   5.018
 2282SOL    HW2 7746   5.273   5.984   5.128
 2283SOL     OW 7747   0.006   3.505   1.979
 2283SOL    HW1 7748   0.084   3.554   1.941
 2283SOL    HW2 7749   6.968   3.476   1.905
 2284SOL     OW 7750   2.464   1.777   1.866
 2284SOL    HW1 7751   2.441   1.694   1.916
 2284SOL    HW2 7752   2.418   1.777   1.777
 2285SOL     OW 7753   1.692   3.418   6.717
 2285SOL    HW1 7754   1.717   3.502   6.765
 2285SOL    HW2 7755   1.724   3.423   6.623
 2286SOL     OW 7756   6.591   6.060   5.111
 2286SOL    HW1 7757   6.618   5.964   5.120
 2286SOL    HW2 7758   6.667   6.111   5.070
 2287SOL     OW 7759   2.616   2.728   1.594
 2287SOL    HW1 7760   2.611   2.799   1.523
 2287SOL    HW2 7761   2.576   2.644   1.559
 2288SOL     OW 7762   0.347   6.222   4.147
 2288SOL    HW1 7763   0.272   6.173   4.193
 2288SOL    HW2 7764   0.399   6.157   4.091
 2289SOL     OW 7765   5.897   3.173   2.181
 2289SOL    HW1 7766   5.891   3.088   2.129
 2289SOL    HW2 7767   5.830   3.238   2.146
 2290SOL     OW 7768   3.035   3.316   1.815
 2290SOL    HW1 7769   2.971   3.239   1.816
 2290SOL    HW2 7770   3.095   3.310   1.895
 2291SOL     OW 7771   2.290   2.022   1.059
 2291SOL    HW1 7772   2.203   1.976   1.041
 2291SOL    HW2 7773   2.273   2.119   1.078
 2292SOL     OW 7774   5.252   3.432   4.006
 2292SOL    HW1 7775   5.282   3.526   4.017
 2292SOL    HW2 7776   5.218   3.418   3.913
 2293SOL     OW 7777   5.839   1.208   0.603
 2293SOL    HW1 7778   5.809   1.152   0.680
 2293SOL    HW2 7779   5.833   1.305   0.628
 2294SOL     OW 7780   2.951   2.180   6.540
 2294SOL    HW1 7781   3.011   2.217   6.611
 2294SOL    HW2 7782   2.931   2.084   6.560
 2295SOL     OW 7783   6.740   0.888   2.194
 2295SOL    HW1 7784   6.752   0.980   2.232
 2295SOL    HW2 7785   6.662   0.888   2.132
 2296SOL     OW 7786   2.685   5.027   2.703
 2296SOL    HW1 7787   2.646   4.946   2.660
 2296SOL    HW2 7788   2.722   5.002   2.793
 2297SOL     OW 7789   4.662   4.617   6.023
 2297SOL    HW1 7790   4.681   4.598   6.119
 2297SOL    HW2 7791   4.602   4.697   6.016
 2298SOL     OW 7792   3.459   3.648   3.070
 2298SOL    HW1 7793   3.557   3.640   3.058
 2298SOL    HW2 7794   3.415   3.560   3.052
 2299SOL     OW 7795   4.728   4.041   5.148
 2299SOL    HW1 7796   4.725   4.133   5.186
 2299SOL    HW2 7797   4.655   3.986   5.188
 2300SOL     OW 7798   3.566   6.717   3.516
 2300SOL    HW1 7799   3.648   6.771   3.496
 2300SOL    HW2 7800   3.488   6.779   3.527
 2301SOL     OW 7801   3.534   3.043   3.824
 2301SOL    HW1 7802   3.444   3.045   3.866
 2301SOL    HW2 7803   3.600   3.000   3.886
 2302SOL     OW 7804   3.592   0.284   1.368
 2302SOL    HW1 7805   3.576   0.226   1.287
 2302SOL    HW2 7806   3.546   0.372   1.356
 2303SOL     OW 7807   2.512   2.922   1.428
 2303SOL    HW1 7808   2.502   3.017   1.398
 2303SOL    HW2 7809   2.422   2.877   1.426
 2304SOL     OW 7810   5.950   5.540   3.856
 2304SOL    HW1 7811   5.992   5.621   3.896
 2304SOL    HW2 7812   6.011   5.462   3.869
 2305SOL     OW 7813   2.229   0.446   3.865
 2305SOL    HW1 7814   2.215   0.545   3.859
 2305SOL    HW2 7815   2.280   0.415   3.784
 2306SOL     OW 7816   1.700   4.887   2.547
 2306SOL    HW1 7817   1.788   4.840   2.550
 2306SOL    HW2 7818   1.687   4.928   2.457
 2307SOL     OW 7819   0.892   3.625   5.359
 2307SOL    HW1 7820   0.987   3.655   5.355
 2307SOL    HW2 7821   0.886   3.529   5.331
 2308SOL     OW 7822   2.695   4.476   1.294
 2308SOL    HW1 7823   2.785   4.474   1.252
 2308SOL    HW2 7824   2.680   4.565   1.337
 2309SOL     OW 7825   1.578   0.852   4.065
 2309SOL    HW1 7826   1.543   0.905   3.988
 2309SOL    HW2 7827   1.513   0.780   4.088
 2310SOL     OW 7828   6.380   6.393   1.894
 2310SOL    HW1 7829   6.368   6.396   1.794
 2310SOL    HW2 7830   6.332   6.471   1.935
 2311SOL     OW 7831   2.500   5.813   6.814
 2311SOL    HW1 7832   2.436   5.738   6.803
 2311SOL    HW2 7833   2.507   5.864   6.728
 2312SOL     OW 7834   4.160   5.359   3.385
 2312SOL    HW1 7835   4.096   5.297   3.339
 2312SOL    HW2 7836   4.143   5.453   3.356
 2313SOL     OW 7837   5.011   4.861   1.925
 2313SOL    HW1 7838   5.044   4.953   1.907
 2313SOL    HW2 7839   5.026   4.804   1.844
 2314SOL     OW 7840   3.819   6.466   2.906
 2314SOL    HW1 7841   3.834   6.480   3.004
 2314SOL    HW2 7842   3.767   6.543   2.869
 2315SOL     OW 7843   5.214   3.727   5.916
 2315SOL    HW1 7844   5.124   3.770   5.914
 2315SOL    HW2 7845   5.244   3.709   5.823
 2316SOL     OW 7846   5.142   2.016   3.467
 2316SOL    HW1 7847   5.209   2.007   3.541
 2316SOL    HW2 7848   5.078   2.090   3.490
 2317SOL     OW 7849   0.349   5.177   3.234
 2317SOL    HW1 7850   0.352   5.157   3.136
 2317SOL    HW2 7851   0.255   5.169   3.267
 2318SOL     OW 7852   0.071   2.734   3.813
 2318SOL    HW1 7853   0.061   2.642   3.775
 2318SOL    HW2 7854   0.055   2.801   3.741
 2319SOL     OW 7855   1.624   4.366   4.987
 2319SOL    HW1 7856   1.625   4.465   4.974
 2319SOL    HW2 7857   1.634   4.321   4.899
 2320SOL     OW 7858   7.010   2.868   4.588
 2320SOL    HW1 7859   6.931   2.924   4.613
 2320SOL    HW2 7860   0.038   2.914   4.515
 2321SOL     OW 7861   3.662   0.700   5.387
 2321SOL    HW1 7862   3.607   0.625   5.350
 2321SOL    HW2 7863   3.718   0.740   5.314
 2322SOL     OW 7864   2.223   1.793   5.594
 2322SOL    HW1 7865   2.133   1.773   5.557
 2322SOL    HW2 7866   2.284   1.821   5.521
 2323SOL     OW 7867   3.183   5.133   3.175
 2323SOL    HW1 7868   3.213   5.039   3.160
 2323SOL    HW2 7869   3.102   5.152   3.120
 2324SOL     OW 7870   0.206   6.145   2.749
 2324SOL    HW1 7871   0.135   6.209   2.720
 2324SOL    HW2 7872   0.273   6.193   2.806
 2325SOL     OW 7873   1.134   3.800   1.934
 2325SOL    HW1 7874   1.045   3.843   1.921
 2325SOL    HW2 7875   1.173   3.830   2.021
 2326SOL     OW 7876   2.262   4.010   5.989
 2326SOL    HW1 7877   2.299   4.084   6.046
 2326SOL    HW2 7878   2.221   3.941   6.048
 2327SOL     OW 7879   4.618   2.307   4.704
 2327SOL    HW1 7880   4.539   2.364   4.727
 2327SOL    HW2 7881   4.589   2.231   4.646
 2328SOL     OW 7882   4.888   1.034   3.742
 2328SOL    HW1 7883   4.959   1.047   3.672
 2328SOL    HW2 7884   4.799   1.026   3.697
 2329SOL     OW 7885   1.403   5.427   4.168
 2329SOL    HW1 7886   1.363   5.436   4.077
 2329SOL    HW2 7887   1.442   5.336   4.178
 2330SOL     OW 7888   6.977   4.709   2.062
 2330SOL    HW1 7889   0.043   4.703   2.014
 2330SOL    HW2 7890   6.969   4.800   2.104
 2331SOL     OW 7891   6.443   4.664   6.437
 2331SOL    HW1 7892   6.432   4.762   6.425
 2331SOL    HW2 7893   6.482   4.624   6.353
 2332SOL     OW 7894   5.114   2.138   5.707
 2332SOL    HW1 7895   5.185   2.091   5.760
 2332SOL    HW2 7896   5.029   2.086   5.713
 2333SOL     OW 7897   0.290   5.355   2.401
 2333SOL    HW1 7898   0.342   5.347   2.486
 2333SOL    HW2 7899   0.219   5.285   2.398
 2334SOL     OW 7900   3.311   0.064   6.952
 2334SOL    HW1 7901   3.346   0.141   7.004
 2334SOL    HW2 7902   3.362   7.004   6.976
 2335SOL     OW 7903   6.248   1.300   3.230
 2335SOL    HW1 7904   6.237   1.354   3.146
 2335SOL    HW2 7905   6.323   1.235   3.218
 2336SOL     OW 7906   4.765   1.300   5.489
 2336SOL    HW1 7907   4.782   1.297   5.588
 2336SOL    HW2 7908   4.711   1.219   5.463
 2337SOL     OW 7909   4.997   0.368   3.346
 2337SOL    HW1 7910   4.996   0.381   3.247
 2337SOL    HW2 7911   5.022   0.454   3.391
 2338SOL     OW 7912   0.918   0.053   0.118
 2338SOL    HW1 7913   0.987   0.119   0.147
 2338SOL    HW2 7914   0.961   6.986   0.103
 2339SOL     OW 7915   3.355   3.199   5.619
 2339SOL    HW1 7916   3.274   3.239   5.576
 2339SOL    HW2 7917   3.368   3.106   5.585
 2340SOL     OW 7918   3.649   6.496   5.574
 2340SOL    HW1 7919   3.732   6.532   5.531
 2340SOL    HW2 7920   3.657   6.504   5.674
 2341SOL     OW 7921   5.140   4.008   0.240
 2341SOL    HW1 7922   5.050   4.022   0.280
 2341SOL    HW2 7923   5.206   3.989   0.313
 2342SOL     OW 7924   0.826   6.565   5.043
 2342SOL    HW1 7925   0.881   6.553   4.960
 2342SOL    HW2 7926   0.753   6.632   5.025
 2343SOL     OW 7927   1.581   6.655   0.940
 2343SOL    HW1 7928   1.522   6.632   1.018
 2343SOL    HW2 7929   1.671   6.615   0.954
 2344SOL     OW 7930   2.436   1.972   2.419
 2344SOL    HW1 7931   2.429   1.874   2.438
 2344SOL    HW2 7932   2.498   1.987   2.342
 2345SOL     OW 7933   1.627   6.988   5.208
 2345SOL    HW1 7934   1.577   0.050   5.228
 2345SOL    HW2 7935   1.562   6.914   5.192
 2346SOL     OW 7936   4.726   2.737   5.321
 2346SOL    HW1 7937   4.703   2.696   5.233
 2346SOL    HW2 7938   4.812   2.788   5.312
 2347SOL     OW 7939   1.719   4.145   2.196
 2347SOL    HW1 7940   1.716   4.243   2.216
 2347SOL    HW2 7941   1.680   4.094   2.272
 2348SOL     OW 7942   1.937   6.423   3.348
 2348SOL    HW1 7943   1.971   6.348   3.291
 2348SOL    HW2 7944   1.885   6.386   3.424
 2349SOL     OW 7945   0.308   5.966   6.354
 2349SOL    HW1 7946   0.363   6.016   6.421
 2349SOL    HW2 7947   0.269   6.030   6.288
 2350SOL     OW 7948   3.537   0.373   5.647
 2350SOL    HW1 7949   3.494   0.320   5.720
 2350SOL    HW2 7950   3.500   0.466   5.648
 2351SOL     OW 7951   3.304   4.906   3.782
 2351SOL    HW1 7952   3.297   4.953   3.694
 2351SOL    HW2 7953   3.384   4.845   3.781
 2352SOL     OW 7954   6.393   4.086   3.596
 2352SOL    HW1 7955   6.485   4.047   3.586
 2352SOL    HW2 7956   6.387   4.169   3.540
 2353SOL     OW 7957   2.541   4.111   5.356
 2353SOL    HW1 7958   2.487   4.065   5.286
 2353SOL    HW2 7959   2.634   4.075   5.355
 2354SOL     OW 7960   3.483   2.340   6.851
 2354SOL    HW1 7961   3.430   2.419   6.882
 2354SOL    HW2 7962   3.499   2.347   6.753
 2355SOL     OW 7963   1.028   6.782   0.382
 2355SOL    HW1 7964   1.111   6.729   0.365
 2355SOL    HW2 7965   1.046   6.852   0.452
 2356SOL     OW 7966   2.084   4.703   2.014
 2356SOL    HW1 7967   1.999   4.651   2.008
 2356SOL    HW2 7968   2.064   4.797   2.041
 2357SOL     OW 7969   5.018   5.018   4.180
 2357SOL    HW1 7970   5.020   4.932   4.229
 2357SOL    HW2 7971   5.002   5.001   4.082
 2358SOL     OW 7972   3.331   6.785   4.275
 2358SOL    HW1 7973   3.347   6.833   4.189
 2358SOL    HW2 7974   3.313   6.689   4.257
 2359SOL     OW 7975   3.099   1.512   5.798
 2359SOL    HW1 7976   3.019   1.567   5.822
 2359SOL    HW2 7977   3.102   1.430   5.855
 2360SOL     OW 7978   4.009   4.887   7.004
 2360SOL    HW1 7979   4.027   4.983   0.003
 2360SOL    HW2 7980   4.072   4.829   0.033
 2361SOL     OW 7981   2.918   6.881   3.406
 2361SOL    HW1 7982   2.959   6.943   3.338
 2361SOL    HW2 7983   2.887   6.798   3.360
 2362SOL     OW 7984   4.961   6.188   5.203
 2362SOL    HW1 7985   5.032   6.188   5.133
 2362SOL    HW2 7986   4.891   6.256   5.179
 2363SOL     OW 7987   4.301   2.122   5.653
 2363SOL    HW1 7988   4.324   2.168   5.567
 2363SOL    HW2 7989   4.377   2.131   5.718
 2364SOL     OW 7990   5.534   1.687   1.622
 2364SOL    HW1 7991   5.523   1.669   1.720
 2364SOL    HW2 7992   5.459   1.644   1.572
 2365SOL     OW 7993   6.081   4.842   5.264
 2365SOL    HW1 7994   6.176   4.851   5.294
 2365SOL    HW2 7995   6.024   4.911   5.310
 2366SOL     OW 7996   0.771   4.183   5.691
 2366SOL    HW1 7997   0.816   4.094   5.698
 2366SOL    HW2 7998   0.837   4.255   5.713
 2367SOL     OW 7999   0.614   3.328   5.681
 2367SOL    HW1 8000   0.653   3.410   5.639
 2367SOL    HW2 8001   0.514   3.336   5.684
 2368SOL     OW 8002   4.473   0.769   4.754
 2368SOL    HW1 8003   4.473   0.773   4.854
 2368SOL    HW2 8004   4.505   0.856   4.717
 2369SOL     OW 8005   2.799   2.051   3.847
 2369SOL    HW1 8006   2.769   2.109   3.923
 2369SOL    HW2 8007   2.884   2.005   3.871
 2370SOL     OW 8008   4.343   2.774   0.766
 2370SOL    HW1 8009   4.385   2.683   0.772
 2370SOL    HW2 8010   4.405   2.841   0.806
 2371SOL     OW 8011   0.907   6.276   2.745
 2371SOL    HW1 8012   0.991   6.226   2.769
 2371SOL    HW2 8013   0.828   6.220   2.769
 2372SOL     OW 8014   6.838   0.437   6.631
 2372SOL    HW1 8015   6.875   0.480   6.713
 2372SOL    HW2 8016   6.757   0.383   6.655
 2373SOL     OW 8017   6.440   0.874   5.942
 2373SOL    HW1 8018   6.349   0.865   5.982
 2373SOL    HW2 8019   6.500   0.802   5.980
 2374SOL     OW 8020   5.825   6.173   3.089
 2374SOL    HW1 8021   5.739   6.221   3.106
 2374SOL    HW2 8022   5.894   6.204   3.154
 2375SOL     OW 8023   0.690   0.734   3.381
 2375SOL    HW1 8024   0.667   0.703   3.289
 2375SOL    HW2 8025   0.609   0.726   3.439
 2376SOL     OW 8026   6.472   2.572   3.624
 2376SOL    HW1 8027   6.398   2.566   3.557
 2376SOL    HW2 8028   6.549   2.621   3.584
 2377SOL     OW 8029   3.604   4.222   5.827
 2377SOL    HW1 8030   3.629   4.310   5.788
 2377SOL    HW2 8031   3.521   4.232   5.881
 2378SOL     OW 8032   5.411   1.909   0.081
 2378SOL    HW1 8033   5.418   2.005   0.057
 2378SOL    HW2 8034   5.502   1.867   0.083
 2379SOL     OW 8035   6.743   4.546   0.433
 2379SOL    HW1 8036   6.714   4.558   0.528
 2379SOL    HW2 8037   6.709   4.459   0.398
 2380SOL     OW 8038   6.092   1.679   5.260
 2380SOL    HW1 8039   6.052   1.658   5.349
 2380SOL    HW2 8040   6.057   1.615   5.192
 2381SOL     OW 8041   2.102   4.960   4.745
 2381SOL    HW1 8042   2.125   4.865   4.724
 2381SOL    HW2 8043   2.039   4.963   4.823
 2382SOL     OW 8044   1.911   6.225   2.827
 2382SOL    HW1 8045   1.896   6.286   2.749
 2382SOL    HW2 8046   1.931   6.133   2.794
 2383SOL     OW 8047   5.176   5.524   5.914
 2383SOL    HW1 8048   5.157   5.595   5.981
 2383SOL    HW2 8049   5.254   5.470   5.944
 2384SOL     OW 8050   1.263   2.220   1.120
 2384SOL    HW1 8051   1.236   2.233   1.025
 2384SOL    HW2 8052   1.205   2.150   1.162
 2385SOL     OW 8053   0.822   1.057   0.087
 2385SOL    HW1 8054   0.856   1.037   7.017
 2385SOL    HW2 8055   0.801   0.971   0.134
 2386SOL     OW 8056   3.635   4.969   4.864
 2386SOL    HW1 8057   3.667   4.897   4.803
 2386SOL    HW2 8058   3.540   4.991   4.844
 2387SOL     OW 8059   6.673   3.616   4.535
 2387SOL    HW1 8060   6.633   3.708   4.533
 2387SOL    HW2 8061   6.706   3.592   4.443
 2388SOL     OW 8062   0.191   1.371   5.630
 2388SOL    HW1 8063   0.096   1.395   5.651
 2388SOL    HW2 8064   0.197   1.340   5.535
 2389SOL     OW 8065   5.060   4.762   4.234
 2389SOL    HW1 8066   5.139   4.751   4.174
 2389SOL    HW2 8067   5.014   4.674   4.245
 2390SOL     OW 8068   3.381   3.815   5.213
 2390SOL    HW1 8069   3.473   3.812   5.174
 2390SOL    HW2 8070   3.376   3.887   5.282
 2391SOL     OW 8071   4.025   4.108   5.828
 2391SOL    HW1 8072   3.953   4.062   5.777
 2391SOL    HW2 8073   4.112   4.101   5.779
 2392SOL     OW 8074   3.174   4.161   6.413
 2392SOL    HW1 8075   3.253   4.147   6.473
 2392SOL    HW2 8076   3.135   4.072   6.388
 2393SOL     OW 8077   4.101   5.447   1.303
 2393SOL    HW1 8078   4.165   5.375   1.332
 2393SOL    HW2 8079   4.092   5.446   1.204
 2394SOL     OW 8080   0.336   4.188   4.300
 2394SOL    HW1 8081   0.282   4.270   4.280
 2394SOL    HW2 8082   0.289   4.108   4.264
 2395SOL     OW 8083   7.021   3.240   0.156
 2395SOL    HW1 8084   6.977   3.329   0.168
 2395SOL    HW2 8085   0.008   3.195   0.245
 2396SOL     OW 8086   5.386   0.298   0.629
 2396SOL    HW1 8087   5.352   0.207   0.653
 2396SOL    HW2 8088   5.338   0.331   0.548
 2397SOL     OW 8089   0.007   4.520   0.024
 2397SOL    HW1 8090   0.043   4.427   0.032
 2397SOL    HW2 8091   6.959   4.523   6.975
 2398SOL     OW 8092   2.785   5.087   4.811
 2398SOL    HW1 8093   2.771   5.102   4.714
 2398SOL    HW2 8094   2.788   5.175   4.859
 2399SOL     OW 8095   3.767   2.115   3.626
 2399SOL    HW1 8096   3.776   2.025   3.582
 2399SOL    HW2 8097   3.693   2.166   3.582
 2400SOL     OW 8098   1.786   3.458   0.374
 2400SOL    HW1 8099   1.722   3.410   0.315
 2400SOL    HW2 8100   1.862   3.398   0.398
 2401SOL     OW 8101   3.520   0.258   3.985
 2401SOL    HW1 8102   3.584   0.317   4.034
 2401SOL    HW2 8103   3.426   0.287   4.005
 2402SOL     OW 8104   7.016   1.822   3.871
 2402SOL    HW1 8105   0.042   1.840   3.956
 2402SOL    HW2 8106   6.932   1.772   3.889
 2403SOL     OW 8107   3.715   3.670   0.786
 2403SOL    HW1 8108   3.728   3.579   0.747
 2403SOL    HW2 8109   3.804   3.715   0.797
 2404SOL     OW 8110   5.707   2.047   1.296
 2404SOL    HW1 8111   5.729   2.045   1.394
 2404SOL    HW2 8112   5.791   2.057   1.243
 2405SOL     OW 8113   3.243   4.969   5.779
 2405SOL    HW1 8114   3.276   4.962   5.874
 2405SOL    HW2 8115   3.313   4.934   5.717
 2406SOL     OW 8116   2.796   6.939   3.880
 2406SOL    HW1 8117   2.790   6.988   3.793
 2406SOL    HW2 8118   2.786   6.841   3.865
 2407SOL     OW 8119   4.234   2.180   2.903
 2407SOL    HW1 8120   4.263   2.243   2.831
 2407SOL    HW2 8121   4.153   2.130   2.872
 2408SOL     OW 8122   2.318   5.424   2.860
 2408SOL    HW1 8123   2.401   5.387   2.818
 2408SOL    HW2 8124   2.339   5.511   2.905
 2409SOL     OW 8125   2.509   3.008   0.544
 2409SOL    HW1 8126   2.463   2.955   0.615
 2409SOL    HW2 8127   2.519   2.953   0.462
 2410SOL     OW 8128   6.046   3.223   5.757
 2410SOL    HW1 8129   6.047   3.210   5.658
 2410SOL    HW2 8130   6.089   3.311   5.779
 2411SOL     OW 8131   2.656   4.027   5.932
 2411SOL    HW1 8132   2.708   4.009   5.849
 2411SOL    HW2 8133   2.559   4.034   5.909
 2412SOL     OW 8134   2.728   2.739   0.536
 2412SOL    HW1 8135   2.714   2.784   0.624
 2412SOL    HW2 8136   2.676   2.787   0.465
 2413SOL     OW 8137   5.390   3.502   6.550
 2413SOL    HW1 8138   5.334   3.468   6.475
 2413SOL    HW2 8139   5.487   3.491   6.528
 2414SOL     OW 8140   6.008   3.137   3.743
 2414SOL    HW1 8141   5.948   3.100   3.814
 2414SOL    HW2 8142   6.078   3.195   3.784
 2415SOL     OW 8143   2.272   0.032   1.029
 2415SOL    HW1 8144   2.301   0.126   1.046
 2415SOL    HW2 8145   2.194   0.031   0.967
 2416SOL     OW 8146   1.249   2.926   3.834
 2416SOL    HW1 8147   1.247   2.987   3.913
 2416SOL    HW2 8148   1.253   2.831   3.865
 2417SOL     OW 8149   4.735   2.055   6.840
 2417SOL    HW1 8150   4.767   1.962   6.855
 2417SOL    HW2 8151   4.803   2.107   6.788
 2418SOL     OW 8152   3.751   3.741   4.856
 2418SOL    HW1 8153   3.750   3.768   4.760
 2418SOL    HW2 8154   3.815   3.800   4.906
 2419SOL     OW 8155   1.850   6.952   4.222
 2419SOL    HW1 8156   1.891   6.901   4.146
 2419SOL    HW2 8157   1.843   0.026   4.197
 2420SOL     OW 8158   3.305   5.461   1.948
 2420SOL    HW1 8159   3.211   5.485   1.973
 2420SOL    HW2 8160   3.311   5.364   1.927
 2421SOL     OW 8161   3.759   6.899   4.072
 2421SOL    HW1 8162   3.768   6.850   4.159
 2421SOL    HW2 8163   3.712   6.841   4.005
 2422SOL     OW 8164   3.941   0.052   1.145
 2422SOL    HW1 8165   4.027   0.087   1.183
 2422SOL    HW2 8166   3.922   0.096   1.058
 2423SOL     OW 8167   1.368   5.401   0.973
 2423SOL    HW1 8168   1.454   5.356   0.999
 2423SOL    HW2 8169   1.316   5.341   0.912
 2424SOL     OW 8170   5.574   6.392   6.871
 2424SOL    HW1 8171   5.605   6.368   6.779
 2424SOL    HW2 8172   5.513   6.471   6.865
 2425SOL     OW 8173   5.026   6.522   6.051
 2425SOL    HW1 8174   4.990   6.534   5.958
 2425SOL    HW2 8175   5.021   6.609   6.100
 2426SOL     OW 8176   1.199   5.127   3.838
 2426SOL    HW1 8177   1.267   5.200   3.835
 2426SOL    HW2 8178   1.144   5.136   3.921
 2427SOL     OW 8179   5.045   5.712   0.084
 2427SOL    HW1 8180   5.052   5.780   0.157
 2427SOL    HW2 8181   5.043   5.620   0.124
 2428SOL     OW 8182   0.225   0.702   2.886
 2428SOL    HW1 8183   0.199   0.705   2.789
 2428SOL    HW2 8184   0.318   0.666   2.894
 2429SOL     OW 8185   5.628   5.081   2.741
 2429SOL    HW1 8186   5.703   5.028   2.779
 2429SOL    HW2 8187   5.583   5.028   2.669
 2430SOL     OW 8188   5.430   2.175   0.018
 2430SOL    HW1 8189   5.335   2.190   7.016
 2430SOL    HW2 8190   5.459   2.244   0.084
 2431SOL     OW 8191   4.952   1.639   1.063
 2431SOL    HW1 8192   4.987   1.663   0.972
 2431SOL    HW2 8193   5.021   1.662   1.132
 2432SOL     OW 8194   3.029   6.389   1.469
 2432SOL    HW1 8195   3.096   6.382   1.395
 2432SOL    HW2 8196   3.046   6.471   1.522
 2433SOL     OW 8197   1.475   6.908   0.350
 2433SOL    HW1 8198   1.491   6.907   0.251
 2433SOL    HW2 8199   1.486   7.001   0.385
 2434SOL     OW 8200   5.853   1.773   2.674
 2434SOL    HW1 8201   5.783   1.801   2.741
 2434SOL    HW2 8202   5.907   1.699   2.712
 2435SOL     OW 8203   5.728   5.170   6.806
 2435SOL    HW1 8204   5.696   5.078   6.827
 2435SOL    HW2 8205   5.774   5.209   6.885
 2436SOL     OW 8206   1.746   0.760   1.308
 2436SOL    HW1 8207   1.802   0.820   1.251
 2436SOL    HW2 8208   1.776   0.767   1.403
 2437SOL     OW 8209   5.293   6.656   0.975
 2437SOL    HW1 8210   5.266   6.663   1.071
 2437SOL    HW2 8211   5.283   6.562   0.943
 2438SOL     OW 8212   3.858   1.359   3.936
 2438SOL    HW1 8213   3.834   1.285   3.873
 2438SOL    HW2 8214   3.951   1.390   3.916
 2439SOL     OW 8215   0.530   4.808   0.549
 2439SOL    HW1 8216   0.460   4.817   0.620
 2439SOL    HW2 8217   0.560   4.899   0.520
 2440SOL     OW 8218   3.960   6.898   6.026
 2440SOL    HW1 8219   3.934   6.914   6.121
 2440SOL    HW2 8220   4.043   6.843   6.022
 2441SOL     OW 8221   6.105   1.491   0.314
 2441SOL    HW1 8222   6.135   1.402   0.281
 2441SOL    HW2 8223   6.011   1.508   0.284
 2442SOL     OW 8224   5.391   5.086   3.065
 2442SOL    HW1 8225   5.388   5.122   2.972
 2442SOL    HW2 8226   5.306   5.110   3.113
 2443SOL     OW 8227   2.891   0.597   6.902
 2443SOL    HW1 8228   2.919   0.573   6.994
 2443SOL    HW2 8229   2.794   0.576   6.890
 2444SOL     OW 8230   4.029   4.394   0.343
 2444SOL    HW1 8231   4.065   4.408   0.250
 2444SOL    HW2 8232   3.943   4.444   0.353
 2445SOL     OW 8233   5.819   1.359   1.797
 2445SOL    HW1 8234   5.877   1.440   1.806
 2445SOL    HW2 8235   5.723   1.387   1.800
 2446SOL     OW 8236   1.041   2.747   3.981
 2446SOL    HW1 8237   1.020   2.674   3.917
 2446SOL    HW2 8238   1.120   2.721   4.037
 2447SOL     OW 8239   2.567   0.664   0.748
 2447SOL    HW1 8240   2.536   0.605   0.674
 2447SOL    HW2 8241   2.550   0.760   0.724
 2448SOL     OW 8242   6.092   1.258   4.184
 2448SOL    HW1 8243   6.083   1.178   4.126
 2448SOL    HW2 8244   6.190   1.278   4.198
 2449SOL     OW 8245   1.403   3.559   1.607
 2449SOL    HW1 8246   1.336   3.533   1.676
 2449SOL    HW2 8247   1.491   3.576   1.651
 2450SOL     OW 8248   3.190   4.973   6.464
 2450SOL    HW1 8249   3.272   5.008   6.420
 2450SOL    HW2 8250   3.159   5.038   6.534
 2451SOL     OW 8251   1.721   0.785   3.302
 2451SOL    HW1 8252   1.672   0.742   3.226
 2451SOL    HW2 8253   1.782   0.856   3.267
 2452SOL     OW 8254   2.802   1.806   4.150
 2452SOL    HW1 8255   2.899   1.830   4.156
 2452SOL    HW2 8256   2.750   1.887   4.123
 2453SOL     OW 8257   0.234   2.995   0.177
 2453SOL    HW1 8258   0.305   2.926   0.185
 2453SOL    HW2 8259   0.251   3.052   0.097
 2454SOL     OW 8260   2.794   6.886   6.972
 2454SOL    HW1 8261   2.839   6.916   6.888
 2454SOL    HW2 8262   2.758   6.794   6.959
 2455SOL     OW 8263   4.537   0.656   0.651
 2455SOL    HW1 8264   4.508   0.646   0.556
 2455SOL    HW2 8265   4.625   0.704   0.653
 2456SOL     OW 8266   0.185   2.638   6.535
 2456SOL    HW1 8267   0.116   2.661   6.603
 2456SOL    HW2 8268   0.265   2.697   6.547
 2457SOL     OW 8269   6.374   0.860   6.325
 2457SOL    HW1 8270   6.282   0.827   6.304
 2457SOL    HW2 8271   6.434   0.839   6.248
 2458SOL     OW 8272   1.864   6.318   3.628
 2458SOL    HW1 8273   1.806   6.255   3.680
 2458SOL    HW2 8274   1.899   6.389   3.689
 2459SOL     OW 8275   2.686   6.600   5.908
 2459SOL    HW1 8276   2.727   6.652   5.833
 2459SOL    HW2 8277   2.589   6.586   5.889
 2460SOL     OW 8278   1.611   1.307   0.943
 2460SOL    HW1 8279   1.583   1.230   1.000
 2460SOL    HW2 8280   1.702   1.337   0.970
 2461SOL     OW 8281   5.007   0.269   4.026
 2461SOL    HW1 8282   4.975   0.363   4.024
 2461SOL    HW2 8283   5.021   0.236   3.933
 2462SOL     OW 8284   1.748   4.858   6.623
 2462SOL    HW1 8285   1.799   4.942   6.639
 2462SOL    HW2 8286   1.676   4.849   6.692
 2463SOL     OW 8287   5.943   2.244   6.890
 2463SOL    HW1 8288   5.968   2.197   6.805
 2463SOL    HW2 8289   5.847   2.269   6.887
 2464SOL     OW 8290   1.975   3.535   2.844
 2464SOL    HW1 8291   2.022   3.471   2.905
 2464SOL    HW2 8292   1.896   3.490   2.803
 2465SOL     OW 8293   0.954   6.493   6.698
 2465SOL    HW1 8294   0.871   6.547   6.684
 2465SOL    HW2 8295   0.936   6.397   6.676
 2466SOL     OW 8296   2.214   1.851   2.709
 2466SOL    HW1 8297   2.185   1.919   2.643
 2466SOL    HW2 8298   2.280   1.892   2.773
 2467SOL     OW 8299   5.213   1.547   5.157
 2467SOL    HW1 8300   5.159   1.597   5.090
 2467SOL    HW2 8301   5.151   1.498   5.219
 2468SOL     OW 8302   4.215   0.259   0.917
 2468SOL    HW1 8303   4.214   0.358   0.903
 2468SOL    HW2 8304   4.274   0.237   0.995
 2469SOL     OW 8305   4.170   3.610   4.630
 2469SOL    HW1 8306   4.122   3.625   4.543
 2469SOL    HW2 8307   4.268   3.616   4.616
 2470SOL     OW 8308   4.281   4.383   5.670
 2470SOL    HW1 8309   4.340   4.414   5.745
 2470SOL    HW2 8310   4.296   4.286   5.653
 2471SOL     OW 8311   2.964   6.195   0.365
 2471SOL    HW1 8312   3.034   6.260   0.338
 2471SOL    HW2 8313   2.972   6.112   0.310
 2472SOL     OW 8314   4.930   2.209   3.500
 2472SOL    HW1 8315   4.873   2.166   3.570
 2472SOL    HW2 8316   4.882   2.206   3.412
 2473SOL     OW 8317   1.057   3.593   4.535
 2473SOL    HW1 8318   1.132   3.650   4.502
 2473SOL    HW2 8319   1.026   3.534   4.460
 2474SOL     OW 8320   0.353   5.698   1.725
 2474SOL    HW1 8321   0.415   5.724   1.651
 2474SOL    HW2 8322   0.391   5.729   1.812
 2475SOL     OW 8323   3.849   0.839   2.502
 2475SOL    HW1 8324   3.901   0.757   2.478
 2475SOL    HW2 8325   3.912   0.909   2.536
 2476SOL     OW 8326   6.242   1.436   2.990
 2476SOL    HW1 8327   6.291   1.503   2.936
 2476SOL    HW2 8328   6.256   1.345   2.952
 2477SOL     OW 8329   4.198   1.511   2.987
 2477SOL    HW1 8330   4.259   1.532   3.063
 2477SOL    HW2 8331   4.226   1.563   2.907
 2478SOL     OW 8332   6.026   1.764   1.572
 2478SOL    HW1 8333   5.947   1.783   1.515
 2478SOL    HW2 8334   6.086   1.699   1.526
 2479SOL     OW 8335   0.766   2.744   2.500
 2479SOL    HW1 8336   0.857   2.759   2.463
 2479SOL    HW2 8337   0.752   2.647   2.518
 2480SOL     OW 8338   4.809   3.838   0.572
 2480SOL    HW1 8339   4.712   3.849   0.594
 2480SOL    HW2 8340   4.821   3.756   0.516
 2481SOL     OW 8341   3.529   6.014   0.335
 2481SOL    HW1 8342   3.484   5.967   0.410
 2481SOL    HW2 8343   3.553   6.107   0.363
 2482SOL     OW 8344   5.428   3.798   5.632
 2482SOL    HW1 8345   5.495   3.756   5.693
 2482SOL    HW2 8346   5.464   3.802   5.539
 2483SOL     OW 8347   1.775   1.454   0.154
 2483SOL    HW1 8348   1.861   1.431   0.108
 2483SOL    HW2 8349   1.748   1.377   0.213
 2484SOL     OW 8350   3.975   0.566   0.020
 2484SOL    HW1 8351   3.913   0.589   6.967
 2484SOL    HW2 8352   3.993   0.468   0.020
 2485SOL     OW 8353   6.338   3.597   1.769
 2485SOL    HW1 8354   6.263   3.633   1.825
 2485SOL    HW2 8355   6.397   3.540   1.827
 2486SOL     OW 8356   2.316   4.940   5.127
 2486SOL    HW1 8357   2.384   4.917   5.196
 2486SOL    HW2 8358   2.270   4.856   5.097
 2487SOL     OW 8359   4.431   6.332   0.298
 2487SOL    HW1 8360   4.332   6.328   0.307
 2487SOL    HW2 8361   4.458   6.423   0.266
 2488SOL     OW 8362   1.424   4.471   2.260
 2488SOL    HW1 8363   1.371   4.537   2.208
 2488SOL    HW2 8364   1.369   4.436   2.336
 2489SOL     OW 8365   1.250   6.695   3.466
 2489SOL    HW1 8366   1.152   6.697   3.489
 2489SOL    HW2 8367   1.299   6.644   3.537
 2490SOL     OW 8368   0.002   5.047   1.430
 2490SOL    HW1 8369   6.926   5.066   1.426
 2490SOL    HW2 8370   0.033   5.012   1.342
 2491SOL     OW 8371   2.139   4.873   0.409
 2491SOL    HW1 8372   2.159   4.796   0.470
 2491SOL    HW2 8373   2.167   4.958   0.453
 2492SOL     OW 8374   4.941   3.281   0.993
 2492SOL    HW1 8375   4.848   3.307   1.017
 2492SOL    HW2 8376   4.959   3.301   0.897
 2493SOL     OW 8377   5.818   0.158   2.057
 2493SOL    HW1 8378   5.904   0.187   2.100
 2493SOL    HW2 8379   5.837   0.084   1.992
 2494SOL     OW 8380   5.259   4.766   2.945
 2494SOL    HW1 8381   5.236   4.810   3.032
 2494SOL    HW2 8382   5.200   4.686   2.932
 2495SOL     OW 8383   4.948   6.660   4.315
 2495SOL    HW1 8384   4.948   6.720   4.235
 2495SOL    HW2 8385   5.043   6.638   4.339
 2496SOL     OW 8386   6.945   3.076   5.747
 2496SOL    HW1 8387   7.013   3.003   5.739
 2496SOL    HW2 8388   6.865   3.041   5.797
 2497SOL     OW 8389   0.521   0.469   0.683
 2497SOL    HW1 8390   0.576   0.389   0.706
 2497SOL    HW2 8391   0.424   0.444   0.681
 2498SOL     OW 8392   2.884   1.851   4.414
 2498SOL    HW1 8393   2.831   1.841   4.330
 2498SOL    HW2 8394   2.828   1.897   4.483
 2499SOL     OW 8395   6.429   2.455   2.058
 2499SOL    HW1 8396   6.367   2.450   1.980
 2499SOL    HW2 8397   6.516   2.495   2.030
 2500SOL     OW 8398   4.750   3.709   6.542
 2500SOL    HW1 8399   4.837   3.755   6.531
 2500SOL    HW2 8400   4.753   3.619   6.498
 2501SOL     OW 8401   6.208   5.117   0.798
 2501SOL    HW1 8402   6.177   5.026   0.825
 2501SOL    HW2 8403   6.160   5.145   0.715
 2502SOL     OW 8404   1.174   6.340   3.101
 2502SOL    HW1 8405   1.112   6.402   3.053
 2502SOL    HW2 8406   1.234   6.393   3.162
 2503SOL     OW 8407   2.644   6.040   4.263
 2503SOL    HW1 8408   2.554   6.068   4.230
 2503SOL    HW2 8409   2.707   6.031   4.186
 2504SOL     OW 8410   3.620   5.390   4.434
 2504SOL    HW1 8411   3.665   5.359   4.518
 2504SOL    HW2 8412   3.677   5.460   4.390
 2505SOL     OW 8413   1.000   6.572   2.810
 2505SOL    HW1 8414   0.947   6.654   2.787
 2505SOL    HW2 8415   0.966   6.532   2.894
 2506SOL     OW 8416   5.689   4.146   5.563
 2506SOL    HW1 8417   5.751   4.180   5.492
 2506SOL    HW2 8418   5.734   4.074   5.616
 2507SOL     OW 8419   0.257   3.727   0.651
 2507SOL    HW1 8420   0.169   3.742   0.695
 2507SOL    HW2 8421   0.323   3.795   0.685
 2508SOL     OW 8422   1.869   1.315   3.452
 2508SOL    HW1 8423   1.832   1.299   3.543
 2508SOL    HW2 8424   1.965   1.288   3.450
 2509SOL     OW 8425   0.014   3.303   0.753
 2509SOL    HW1 8426   0.010   3.313   0.654
 2509SOL    HW2 8427   0.103   3.266   0.780
 2510SOL     OW 8428   2.490   4.391   1.455
 2510SOL    HW1 8429   2.544   4.429   1.380
 2510SOL    HW2 8430   2.523   4.429   1.542
 2511SOL     OW 8431   3.764   2.124   4.533
 2511SOL    HW1 8432   3.687   2.060   4.527
 2511SOL    HW2 8433   3.739   2.199   4.595
 2512SOL     OW 8434   5.288   3.761   5.294
 2512SOL    HW1 8435   5.276   3.675   5.243
 2512SOL    HW2 8436   5.199   3.805   5.305
 2513SOL     OW 8437   1.944   4.534   5.332
 2513SOL    HW1 8438   1.924   4.588   5.249
 2513SOL    HW2 8439   1.893   4.448   5.329
 2514SOL     OW 8440   6.678   2.987   5.032
 2514SOL    HW1 8441   6.627   3.039   5.100
 2514SOL    HW2 8442   6.659   2.889   5.043
 2515SOL     OW 8443   1.875   6.696   0.667
 2515SOL    HW1 8444   1.901   6.640   0.588
 2515SOL    HW2 8445   1.949   6.760   0.689
 2516SOL     OW 8446   5.993   1.202   2.439
 2516SOL    HW1 8447   6.083   1.221   2.400
 2516SOL    HW2 8448   5.953   1.287   2.472
 2517SOL     OW 8449   1.317   6.282   5.824
 2517SOL    HW1 8450   1.408   6.252   5.851
 2517SOL    HW2 8451   1.248   6.235   5.879
 2518SOL     OW 8452   0.946   4.403   6.807
 2518SOL    HW1 8453   0.867   4.420   6.749
 2518SOL    HW2 8454   1.010   4.480   6.801
 2519SOL     OW 8455   4.174   6.653   3.128
 2519SOL    HW1 8456   4.079   6.680   3.111
 2519SOL    HW2 8457   4.227   6.733   3.154
 2520SOL     OW 8458   3.053   1.825   0.749
 2520SOL    HW1 8459   2.985   1.773   0.801
 2520SOL    HW2 8460   3.039   1.923   0.762
 2521SOL     OW 8461   1.811   1.064   5.428
 2521SOL    HW1 8462   1.763   1.138   5.383
 2521SOL    HW2 8463   1.886   1.032   5.370
 2522SOL     OW 8464   0.454   3.757   4.827
 2522SOL    HW1 8465   0.512   3.727   4.903
 2522SOL    HW2 8466   0.458   3.689   4.754
 2523SOL     OW 8467   0.198   3.098   1.541
 2523SOL    HW1 8468   0.143   3.119   1.460
 2523SOL    HW2 8469   0.215   2.999   1.546
 2524SOL     OW 8470   1.387   6.336   5.096
 2524SOL    HW1 8471   1.300   6.286   5.094
 2524SOL    HW2 8472   1.382   6.416   5.036
 2525SOL     OW 8473   1.049   2.557   5.469
 2525SOL    HW1 8474   1.051   2.471   5.519
 2525SOL    HW2 8475   1.136   2.605   5.481
 2526SOL     OW 8476   1.271   4.697   6.287
 2526SOL    HW1 8477   1.360   4.668   6.252
 2526SOL    HW2 8478   1.239   4.632   6.355
 2527SOL     OW 8479   5.161   5.783   4.879
 2527SOL    HW1 8480   5.077   5.835   4.864
 2527SOL    HW2 8481   5.226   5.839   4.931
 2528SOL     OW 8482   5.879   4.679   0.672
 2528SOL    HW1 8483   5.882   4.736   0.590
 2528SOL    HW2 8484   5.785   4.649   0.688
 2529SOL     OW 8485   6.421   6.669   6.500
 2529SOL    HW1 8486   6.444   6.592   6.442
 2529SOL    HW2 8487   6.473   6.749   6.472
 2530SOL     OW 8488   2.612   6.572   5.544
 2530SOL    HW1 8489   2.548   6.643   5.574
 2530SOL    HW2 8490   2.612   6.567   5.444
 2531SOL     OW 8491   5.119   6.105   4.133
 2531SOL    HW1 8492   5.206   6.067   4.164
 2531SOL    HW2 8493   5.051   6.094   4.206
 2532SOL     OW 8494   0.861   6.398   1.071
 2532SOL    HW1 8495   0.880   6.464   0.999
 2532SOL    HW2 8496   0.946   6.371   1.114
 2533SOL     OW 8497   3.504   6.428   3.788
 2533SOL    HW1 8498   3.463   6.456   3.701
 2533SOL    HW2 8499   3.435   6.382   3.844
 2534SOL     OW 8500   3.721   0.428   3.394
 2534SOL    HW1 8501   3.744   0.496   3.464
 2534SOL    HW2 8502   3.805   0.393   3.353
 2535SOL     OW 8503   3.734   2.128   5.184
 2535SOL    HW1 8504   3.641   2.108   5.151
 2535SOL    HW2 8505   3.733   2.214   5.234
 2536SOL     OW 8506   1.168   2.009   5.115
 2536SOL    HW1 8507   1.196   2.093   5.068
 2536SOL    HW2 8508   1.072   1.989   5.093
 2537SOL     OW 8509   4.078   0.612   6.635
 2537SOL    HW1 8510   4.035   0.674   6.701
 2537SOL    HW2 8511   4.074   0.518   6.670
 2538SOL     OW 8512   1.300   4.616   4.005
 2538SOL    HW1 8513   1.330   4.708   4.029
 2538SOL    HW2 8514   1.343   4.588   3.920
 2539SOL     OW 8515   5.217   1.557   5.581
 2539SOL    HW1 8516   5.148   1.499   5.538
 2539SOL    HW2 8517   5.240   1.521   5.671
 2540SOL     OW 8518   4.441   1.609   2.773
 2540SOL    HW1 8519   4.445   1.645   2.679
 2540SOL    HW2 8520   4.383   1.667   2.829
 2541SOL     OW 8521   2.734   6.857   5.279
 2541SOL    HW1 8522   2.707   6.833   5.186
 2541SOL    HW2 8523   2.653   6.869   5.336
 2542SOL     OW 8524   3.774   1.641   6.088
 2542SOL    HW1 8525   3.768   1.741   6.086
 2542SOL    HW2 8526   3.727   1.606   6.169
 2543SOL     OW 8527   1.397   1.466   3.277
 2543SOL    HW1 8528   1.309   1.418   3.275
 2543SOL    HW2 8529   1.470   1.400   3.296
 2544SOL     OW 8530   0.340   5.877   1.438
 2544SOL    HW1 8531   0.349   5.871   1.339
 2544SOL    HW2 8532   0.280   5.953   1.462
 2545SOL     OW 8533   1.134   0.137   1.422
 2545SOL    HW1 8534   1.034   0.144   1.419
 2545SOL    HW2 8535   1.168   0.185   1.503
 2546SOL     OW 8536   0.193   1.622   1.434
 2546SOL    HW1 8537   0.188   1.722   1.434
 2546SOL    HW2 8538   0.251   1.591   1.509
 2547SOL     OW 8539   6.148   5.322   0.280
 2547SOL    HW1 8540   6.056   5.360   0.290
 2547SOL    HW2 8541   6.188   5.353   0.194
 2548SOL     OW 8542   1.882   6.565   5.839
 2548SOL    HW1 8543   1.969   6.575   5.886
 2548SOL    HW2 8544   1.808   6.562   5.907
 2549SOL     OW 8545   2.524   1.362   0.719
 2549SOL    HW1 8546   2.623   1.348   0.712
 2549SOL    HW2 8547   2.477   1.303   0.654
 2550SOL     OW 8548   0.221   0.135   6.267
 2550SOL    HW1 8549   0.304   0.085   6.241
 2550SOL    HW2 8550   0.217   0.222   6.216
 2551SOL     OW 8551   3.528   5.258   0.763
 2551SOL    HW1 8552   3.489   5.166   0.754
 2551SOL    HW2 8553   3.455   5.323   0.784
 2552SOL     OW 8554   2.195   5.852   5.437
 2552SOL    HW1 8555   2.228   5.916   5.507
 2552SOL    HW2 8556   2.105   5.817   5.462
 2553SOL     OW 8557   4.972   2.480   5.076
 2553SOL    HW1 8558   4.973   2.521   4.984
 2553SOL    HW2 8559   4.885   2.432   5.089
 2554SOL     OW 8560   2.327   6.424   0.505
 2554SOL    HW1 8561   2.239   6.423   0.457
 2554SOL    HW2 8562   2.337   6.338   0.557
 2555SOL     OW 8563   6.044   6.969   5.895
 2555SOL    HW1 8564   5.946   6.963   5.912
 2555SOL    HW2 8565   6.083   0.022   5.948
 2556SOL     OW 8566   4.777   5.733   0.999
 2556SOL    HW1 8567   4.781   5.731   1.099
 2556SOL    HW2 8568   4.727   5.653   0.966
 2557SOL     OW 8569   2.861   3.561   6.575
 2557SOL    HW1 8570   2.893   3.503   6.500
 2557SOL    HW2 8571   2.794   3.512   6.630
 2558SOL     OW 8572   5.156   1.850   5.287
 2558SOL    HW1 8573   5.234   1.788   5.297
 2558SOL    HW2 8574   5.180   1.940   5.325
 2559SOL     OW 8575   6.767   3.938   4.410
 2559SOL    HW1 8576   6.843   3.878   4.386
 2559SOL    HW2 8577   6.734   3.985   4.328
 2560SOL     OW 8578   5.867   3.301   4.693
 2560SOL    HW1 8579   5.817   3.384   4.717
 2560SOL    HW2 8580   5.959   3.326   4.661
 2561SOL     OW 8581   3.464   6.223   4.857
 2561SOL    HW1 8582   3.389   6.279   4.893
 2561SOL    HW2 8583   3.541   6.223   4.921
 2562SOL     OW 8584   1.402   5.100   2.400
 2562SOL    HW1 8585   1.481   5.042   2.381
 2562SOL    HW2 8586   1.413   5.188   2.354
 2563SOL     OW 8587   4.407   2.423   0.274
 2563SOL    HW1 8588   4.343   2.476   0.330
 2563SOL    HW2 8589   4.391   2.444   0.177
 2564SOL     OW 8590   2.277   6.087   6.050
 2564SOL    HW1 8591   2.259   6.184   6.066
 2564SOL    HW2 8592   2.370   6.075   6.017
 2565SOL     OW 8593   0.586   0.299   6.850
 2565SOL    HW1 8594   0.488   0.313   6.865
 2565SOL    HW2 8595   0.599   0.230   6.779
 2566SOL     OW 8596   2.532   6.997   0.435
 2566SOL    HW1 8597   2.617   0.012   0.473
 2566SOL    HW2 8598   2.494   0.039   0.369
 2567SOL     OW 8599   0.753   0.960   1.494
 2567SOL    HW1 8600   0.733   0.869   1.458
 2567SOL    HW2 8601   0.801   1.013   1.424
 2568SOL     OW 8602   4.081   0.097   0.373
 2568SOL    HW1 8603   4.154   0.031   0.388
 2568SOL    HW2 8604   4.081   0.164   0.447
 2569SOL     OW 8605   3.274   1.671   1.672
 2569SOL    HW1 8606   3.246   1.575   1.659
 2569SOL    HW2 8607   3.274   1.717   1.583
 2570SOL     OW 8608   5.303   0.332   6.321
 2570SOL    HW1 8609   5.338   0.418   6.358
 2570SOL    HW2 8610   5.227   0.301   6.378
 2571SOL     OW 8611   2.474   4.347   5.216
 2571SOL    HW1 8612   2.520   4.268   5.255
 2571SOL    HW2 8613   2.392   4.368   5.269
 2572SOL     OW 8614   2.018   4.953   0.180
 2572SOL    HW1 8615   2.031   4.909   0.091
 2572SOL    HW2 8616   2.087   4.920   0.244
 2573SOL     OW 8617   6.727   2.526   2.030
 2573SOL    HW1 8618   6.719   2.611   2.082
 2573SOL    HW2 8619   6.768   2.455   2.088
 2574SOL     OW 8620   6.724   3.867   0.288
 2574SOL    HW1 8621   6.673   3.848   0.204
 2574SOL    HW2 8622   6.728   3.785   0.344
 2575SOL     OW 8623   5.605   5.047   0.972
 2575SOL    HW1 8624   5.642   5.062   1.064
 2575SOL    HW2 8625   5.621   4.952   0.945
 2576SOL     OW 8626   3.759   6.741   4.319
 2576SOL    HW1 8627   3.824   6.665   4.317
 2576SOL    HW2 8628   3.677   6.716   4.269
 2577SOL     OW 8629   3.598   6.959   2.086
 2577SOL    HW1 8630   3.648   6.907   2.017
 2577SOL    HW2 8631   3.594   6.906   2.171
 2578SOL     OW 8632   4.943   1.380   4.101
 2578SOL    HW1 8633   4.908   1.292   4.070
 2578SOL    HW2 8634   5.040   1.371   4.126
 2579SOL     OW 8635   1.485   6.108   3.178
 2579SOL    HW1 8636   1.503   6.011   3.192
 2579SOL    HW2 8637   1.389   6.128   3.198
 2580SOL     OW 8638   2.988   3.434   6.365
 2580SOL    HW1 8639   2.964   3.339   6.346
 2580SOL    HW2 8640   2.995   3.485   6.280
 2581SOL     OW 8641   0.826   4.819   0.889
 2581SOL    HW1 8642   0.766   4.744   0.860
 2581SOL    HW2 8643   0.920   4.801   0.860
 2582SOL     OW 8644   0.520   4.796   2.446
 2582SOL    HW1 8645   0.476   4.886   2.451
 2582SOL    HW2 8646   0.525   4.767   2.350
 2583SOL     OW 8647   0.870   0.949   0.575
 2583SOL    HW1 8648   0.780   0.920   0.609
 2583SOL    HW2 8649   0.858   1.015   0.501
 2584SOL     OW 8650   4.266   5.514   6.612
 2584SOL    HW1 8651   4.357   5.554   6.622
 2584SOL    HW2 8652   4.215   5.564   6.542
 2585SOL     OW 8653   4.444   2.720   6.934
 2585SOL    HW1 8654   4.450   2.644   6.870
 2585SOL    HW2 8655   4.361   2.713   6.988
 2586SOL     OW 8656   3.547   1.269   3.341
 2586SOL    HW1 8657   3.606   1.201   3.385
 2586SOL    HW2 8658   3.464   1.281   3.395
 2587SOL     OW 8659   0.514   0.705   3.578
 2587SOL    HW1 8660   0.428   0.756   3.580
 2587SOL    HW2 8661   0.498   0.614   3.540
 2588SOL     OW 8662   4.421   0.809   6.436
 2588SOL    HW1 8663   4.454   0.849   6.351
 2588SOL    HW2 8664   4.400   0.883   6.501
 2589SOL     OW 8665   0.768   6.557   6.242
 2589SOL    HW1 8666   0.815   6.608   6.170
 2589SOL    HW2 8667   0.816   6.570   6.328
 2590SOL     OW 8668   3.523   6.043   0.983
 2590SOL    HW1 8669   3.444   5.982   0.982
 2590SOL    HW2 8670   3.499   6.129   0.938
 2591SOL     OW 8671   6.990   4.714   3.097
 2591SOL    HW1 8672   6.986   4.791   3.035
 2591SOL    HW2 8673   0.038   4.650   3.067
 2592SOL     OW 8674   3.551   5.409   0.115
 2592SOL    HW1 8675   3.454   5.422   0.094
 2592SOL    HW2 8676   3.578   5.316   0.091
 2593SOL     OW 8677   3.614   5.351   1.026
 2593SOL    HW1 8678   3.571   5.264   0.999
 2593SOL    HW2 8679   3.543   5.416   1.052
 2594SOL     OW 8680   1.903   4.604   6.504
 2594SOL    HW1 8681   1.987   4.594   6.557
 2594SOL    HW2 8682   1.887   4.701   6.484
 2595SOL     OW 8683   6.534   1.391   3.962
 2595SOL    HW1 8684   6.583   1.375   4.048
 2595SOL    HW2 8685   6.531   1.489   3.943
 2596SOL     OW 8686   2.996   1.781   1.641
 2596SOL    HW1 8687   3.044   1.720   1.704
 2596SOL    HW2 8688   2.963   1.861   1.690
 2597SOL     OW 8689   1.372   5.118   6.019
 2597SOL    HW1 8690   1.332   5.027   6.034
 2597SOL    HW2 8691   1.300   5.187   6.017
 2598SOL     OW 8692   6.972   1.234   3.362
 2598SOL    HW1 8693   0.011   1.301   3.405
 2598SOL    HW2 8694   7.022   1.149   3.346
 2599SOL     OW 8695   1.953   6.229   1.319
 2599SOL    HW1 8696   1.944   6.306   1.256
 2599SOL    HW2 8697   1.865   6.184   1.331
 2600SOL     OW 8698   5.150   2.916   4.895
 2600SOL    HW1 8699   5.157   2.869   4.983
 2600SOL    HW2 8700   5.060   2.960   4.888
 2601SOL     OW 8701   2.003   1.349   1.863
 2601SOL    HW1 8702   1.998   1.273   1.929
 2601SOL    HW2 8703   2.052   1.426   1.905
 2602SOL     OW 8704   1.354   4.724   4.705
 2602SOL    HW1 8705   1.362   4.808   4.651
 2602SOL    HW2 8706   1.437   4.670   4.694
 2603SOL     OW 8707   3.032   1.135   4.355
 2603SOL    HW1 8708   3.101   1.145   4.283
 2603SOL    HW2 8709   3.063   1.067   4.422
 2604SOL     OW 8710   4.912   1.772   2.646
 2604SOL    HW1 8711   4.865   1.824   2.716
 2604SOL    HW2 8712   4.875   1.679   2.642
 2605SOL     OW 8713   2.152   3.329   3.886
 2605SOL    HW1 8714   2.164   3.297   3.980
 2605SOL    HW2 8715   2.154   3.252   3.823
 2606SOL     OW 8716   5.286   4.685   1.834
 2606SOL    HW1 8717   5.272   4.642   1.923
 2606SOL    HW2 8718   5.198   4.693   1.787
 2607SOL     OW 8719   1.299   1.512   1.854
 2607SOL    HW1 8720   1.269   1.514   1.949
 2607SOL    HW2 8721   1.263   1.592   1.806
 2608SOL     OW 8722   5.086   4.971   0.257
 2608SOL    HW1 8723   5.124   5.019   0.178
 2608SOL    HW2 8724   5.106   5.023   0.341
 2609SOL     OW 8725   6.253   1.383   1.305
 2609SOL    HW1 8726   6.160   1.348   1.301
 2609SOL    HW2 8727   6.252   1.477   1.338
 2610SOL     OW 8728   1.195   4.393   4.434
 2610SOL    HW1 8729   1.198   4.488   4.404
 2610SOL    HW2 8730   1.116   4.347   4.393
 2611SOL     OW 8731   4.449   6.669   0.889
 2611SOL    HW1 8732   4.478   6.679   0.984
 2611SOL    HW2 8733   4.527   6.639   0.834
 2612SOL     OW 8734   6.337   0.076   4.679
 2612SOL    HW1 8735   6.322   0.173   4.661
 2612SOL    HW2 8736   6.280   0.046   4.755
 2613SOL     OW 8737   2.855   5.309   6.169
 2613SOL    HW1 8738   2.880   5.247   6.243
 2613SOL    HW2 8739   2.861   5.404   6.200
 2614SOL     OW 8740   6.341   1.824   6.530
 2614SOL    HW1 8741   6.296   1.849   6.616
 2614SOL    HW2 8742   6.298   1.873   6.454
 2615SOL     OW 8743   0.978   3.316   2.119
 2615SOL    HW1 8744   1.025   3.278   2.198
 2615SOL    HW2 8745   0.965   3.415   2.132
 2616SOL     OW 8746   2.843   2.968   5.610
 2616SOL    HW1 8747   2.776   3.042   5.617
 2616SOL    HW2 8748   2.807   2.896   5.551
 2617SOL     OW 8749   3.918   6.958   0.730
 2617SOL    HW1 8750   3.851   0.006   0.754
 2617SOL    HW2 8751   4.010   6.997   0.738
 2618SOL     OW 8752   6.457   0.218   3.315
 2618SOL    HW1 8753   6.446   0.257   3.407
 2618SOL    HW2 8754   6.554   0.206   3.296
 2619SOL     OW 8755   4.534   2.172   2.365
 2619SOL    HW1 8756   4.442   2.145   2.337
 2619SOL    HW2 8757   4.592   2.183   2.284
 2620SOL     OW 8758   6.324   6.582   3.587
 2620SOL    HW1 8759   6.363   6.664   3.545
 2620SOL    HW2 8760   6.255   6.544   3.525
 2621SOL     OW 8761   1.033   4.960   1.874
 2621SOL    HW1 8762   0.995   4.985   1.785
 2621SOL    HW2 8763   1.132   4.965   1.871
 2622SOL     OW 8764   1.819   3.724   5.615
 2622SOL    HW1 8765   1.882   3.662   5.566
 2622SOL    HW2 8766   1.864   3.811   5.631
 2623SOL     OW 8767   0.242   0.788   5.381
 2623SOL    HW1 8768   0.181   0.861   5.412
 2623SOL    HW2 8769   0.188   0.714   5.341
 2624SOL     OW 8770   0.129   1.085   4.562
 2624SOL    HW1 8771   0.078   1.171   4.560
 2624SOL    HW2 8772   0.213   1.095   4.509
 2625SOL     OW 8773   2.519   3.754   5.361
 2625SOL    HW1 8774   2.618   3.744   5.365
 2625SOL    HW2 8775   2.495   3.821   5.290
 2626SOL     OW 8776   0.098   0.570   5.958
 2626SOL    HW1 8777   0.039   0.495   5.929
 2626SOL    HW2 8778   0.157   0.597   5.882
 2627SOL     OW 8779   0.709   1.135   6.061
 2627SOL    HW1 8780   0.625   1.129   6.115
 2627SOL    HW2 8781   0.688   1.174   5.971
 2628SOL     OW 8782   2.038   3.947   5.563
 2628SOL    HW1 8783   2.132   3.915   5.555
 2628SOL    HW2 8784   2.032   4.041   5.529
 2629SOL     OW 8785   3.852   3.057   2.222
 2629SOL    HW1 8786   3.850   3.059   2.122
 2629SOL    HW2 8787   3.939   3.021   2.253
 2630SOL     OW 8788   3.103   1.691   3.004
 2630SOL    HW1 8789   3.113   1.790   3.016
 2630SOL    HW2 8790   3.074   1.672   2.910
 2631SOL     OW 8791   5.399   0.587   5.789
 2631SOL    HW1 8792   5.386   0.647   5.710
 2631SOL    HW2 8793   5.389   0.641   5.873
 2632SOL     OW 8794   5.382   2.896   0.188
 2632SOL    HW1 8795   5.386   2.981   0.136
 2632SOL    HW2 8796   5.474   2.860   0.202
 2633SOL     OW 8797   0.604   2.010   4.648
 2633SOL    HW1 8798   0.695   1.969   4.637
 2633SOL    HW2 8799   0.597   2.091   4.588
 2634SOL     OW 8800   0.439   4.845   3.889
 2634SOL    HW1 8801   0.419   4.777   3.960
 2634SOL    HW2 8802   0.369   4.916   3.891
 2635SOL     OW 8803   0.147   6.015   4.965
 2635SOL    HW1 8804   0.109   6.062   4.886
 2635SOL    HW2 8805   0.235   5.974   4.940
 2636SOL     OW 8806   4.091   0.151   5.487
 2636SOL    HW1 8807   4.001   0.121   5.456
 2636SOL    HW2 8808   4.081   0.204   5.572
 2637SOL     OW 8809   5.910   1.740   3.469
 2637SOL    HW1 8810   5.963   1.677   3.526
 2637SOL    HW2 8811   5.921   1.833   3.503
 2638SOL     OW 8812   0.042   0.006   3.954
 2638SOL    HW1 8813   0.030   7.019   4.053
 2638SOL    HW2 8814   0.074   6.941   3.917
 2639SOL     OW 8815   0.489   5.803   0.430
 2639SOL    HW1 8816   0.570   5.772   0.480
 2639SOL    HW2 8817   0.505   5.794   0.331
 2640SOL     OW 8818   6.927   6.314   5.429
 2640SOL    HW1 8819   6.902   6.345   5.338
 2640SOL    HW2 8820   6.856   6.254   5.465
 2641SOL     OW 8821   5.942   2.893   2.113
 2641SOL    HW1 8822   6.017   2.832   2.090
 2641SOL    HW2 8823   5.856   2.842   2.115
 2642SOL     OW 8824   5.622   0.820   3.748
 2642SOL    HW1 8825   5.633   0.899   3.688
 2642SOL    HW2 8826   5.648   0.844   3.842
 2643SOL     OW 8827   1.458   3.654   3.187
 2643SOL    HW1 8828   1.481   3.645   3.284
 2643SOL    HW2 8829   1.422   3.746   3.170
 2644SOL     OW 8830   4.980   5.308   4.888
 2644SOL    HW1 8831   4.989   5.349   4.979
 2644SOL    HW2 8832   4.919   5.229   4.893
 2645SOL     OW 8833   3.917   5.745   3.500
 2645SOL    HW1 8834   3.888   5.811   3.570
 2645SOL    HW2 8835   3.845   5.677   3.486
 2646SOL     OW 8836   6.260   1.856   6.782
 2646SOL    HW1 8837   6.292   1.928   6.843
 2646SOL    HW2 8838   6.160   1.851   6.785
 2647SOL     OW 8839   6.022   0.064   1.370
 2647SOL    HW1 8840   6.122   0.072   1.363
 2647SOL    HW2 8841   5.982   0.155   1.375
 2648SOL     OW 8842   0.993   6.595   3.270
 2648SOL    HW1 8843   0.983   6.541   3.186
 2648SOL    HW2 8844   0.984   6.692   3.248
 2649SOL     OW 8845   6.838   3.211   0.903
 2649SOL    HW1 8846   6.842   3.112   0.920
 2649SOL    HW2 8847   6.897   3.234   0.826
 2650SOL     OW 8848   1.851   4.694   3.773
 2650SOL    HW1 8849   1.780   4.676   3.840
 2650SOL    HW2 8850   1.823   4.660   3.684
 2651SOL     OW 8851   2.433   1.755   1.380
 2651SOL    HW1 8852   2.390   1.729   1.294
 2651SOL    HW2 8853   2.519   1.803   1.361
 2652SOL     OW 8854   4.211   3.232   5.252
 2652SOL    HW1 8855   4.127   3.180   5.269
 2652SOL    HW2 8856   4.190   3.315   5.201
 2653SOL     OW 8857   4.820   6.824   5.791
 2653SOL    HW1 8858   4.852   6.776   5.710
 2653SOL    HW2 8859   4.831   6.922   5.778
 2654SOL     OW 8860   4.339   6.872   1.594
 2654SOL    HW1 8861   4.323   6.893   1.690
 2654SOL    HW2 8862   4.329   6.955   1.539
 2655SOL     OW 8863   5.766   6.253   3.637
 2655SOL    HW1 8864   5.784   6.269   3.734
 2655SOL    HW2 8865   5.815   6.321   3.582
 2656SOL     OW 8866   3.516   5.147   4.331
 2656SOL    HW1 8867   3.565   5.215   4.386
 2656SOL    HW2 8868   3.461   5.089   4.391
 2657SOL     OW 8869   1.273   4.328   6.874
 2657SOL    HW1 8870   1.362   4.373   6.876
 2657SOL    HW2 8871   1.221   4.362   6.795
 2658SOL     OW 8872   5.446   4.693   0.378
 2658SOL    HW1 8873   5.529   4.718   0.328
 2658SOL    HW2 8874   5.366   4.730   0.330
 2659SOL     OW 8875   4.743   2.680   5.044
 2659SOL    HW1 8876   4.649   2.674   5.008
 2659SOL    HW2 8877   4.806   2.639   4.979
 2660SOL     OW 8878   1.366   6.935   1.984
 2660SOL    HW1 8879   1.439   6.972   1.927
 2660SOL    HW2 8880   1.301   7.007   2.006
 2661SOL     OW 8881   2.019   6.578   1.331
 2661SOL    HW1 8882   1.930   6.591   1.374
 2661SOL    HW2 8883   2.011   6.511   1.258
 2662SOL     OW 8884   3.382   6.586   5.570
 2662SOL    HW1 8885   3.345   6.497   5.597
 2662SOL    HW2 8886   3.481   6.578   5.555
 2663SOL     OW 8887   3.619   4.474   6.601
 2663SOL    HW1 8888   3.691   4.508   6.539
 2663SOL    HW2 8889   3.594   4.381   6.575
 2664SOL     OW 8890   4.425   3.448   5.710
 2664SOL    HW1 8891   4.409   3.541   5.741
 2664SOL    HW2 8892   4.398   3.440   5.614
 2665SOL     OW 8893   3.006   3.354   4.765
 2665SOL    HW1 8894   3.029   3.414   4.841
 2665SOL    HW2 8895   3.083   3.349   4.701
 2666SOL     OW 8896   0.631   4.601   1.715
 2666SOL    HW1 8897   0.685   4.672   1.759
 2666SOL    HW2 8898   0.571   4.642   1.645
 2667SOL     OW 8899   1.281   5.701   3.811
 2667SOL    HW1 8900   1.296   5.671   3.717
 2667SOL    HW2 8901   1.283   5.801   3.814
 2668SOL     OW 8902   0.551   3.344   4.901
 2668SOL    HW1 8903   0.501   3.416   4.950
 2668SOL    HW2 8904   0.494   3.307   4.828
 2669SOL     OW 8905   3.301   5.101   6.048
 2669SOL    HW1 8906   3.383   5.119   5.994
 2669SOL    HW2 8907   3.259   5.188   6.075
 2670SOL     OW 8908   5.768   3.834   5.168
 2670SOL    HW1 8909   5.824   3.751   5.164
 2670SOL    HW2 8910   5.827   3.914   5.162
 2671SOL     OW 8911   4.417   5.608   0.173
 2671SOL    HW1 8912   4.350   5.622   0.100
 2671SOL    HW2 8913   4.509   5.610   0.134
 2672SOL     OW 8914   2.694   5.321   1.171
 2672SOL    HW1 8915   2.606   5.278   1.191
 2672SOL    HW2 8916   2.756   5.253   1.131
 2673SOL     OW 8917   6.339   2.102   1.479
 2673SOL    HW1 8918   6.397   2.026   1.450
 2673SOL    HW2 8919   6.388   2.158   1.545
 2674SOL     OW 8920   1.620   4.637   3.990
 2674SOL    HW1 8921   1.584   4.677   3.905
 2674SOL    HW2 8922   1.609   4.537   3.987
 2675SOL     OW 8923   6.443   5.747   4.096
 2675SOL    HW1 8924   6.412   5.833   4.137
 2675SOL    HW2 8925   6.457   5.680   4.169
 2676SOL     OW 8926   3.110   3.243   1.062
 2676SOL    HW1 8927   3.090   3.265   0.967
 2676SOL    HW2 8928   3.100   3.325   1.118
 2677SOL     OW 8929   3.044   4.352   7.022
 2677SOL    HW1 8930   3.102   4.394   6.952
 2677SOL    HW2 8931   2.954   4.394   7.019
 2678SOL     OW 8932   0.374   2.035   2.484
 2678SOL    HW1 8933   0.462   2.061   2.523
 2678SOL    HW2 8934   0.321   2.117   2.464
 2679SOL     OW 8935   2.041   4.946   2.110
 2679SOL    HW1 8936   2.058   5.044   2.101
 2679SOL    HW2 8937   2.000   4.928   2.199
 2680SOL     OW 8938   1.363   1.831   1.024
 2680SOL    HW1 8939   1.402   1.740   1.011
 2680SOL    HW2 8940   1.323   1.838   1.115
 2681SOL     OW 8941   1.382   2.252   5.206
 2681SOL    HW1 8942   1.370   2.226   5.110
 2681SOL    HW2 8943   1.294   2.254   5.252
 2682SOL     OW 8944   4.792   4.683   3.863
 2682SOL    HW1 8945   4.877   4.631   3.868
 2682SOL    HW2 8946   4.802   4.757   3.797
 2683SOL     OW 8947   2.720   4.811   1.934
 2683SOL    HW1 8948   2.794   4.745   1.938
 2683SOL    HW2 8949   2.757   4.904   1.942
 2684SOL     OW 8950   4.417   6.884   2.155
 2684SOL    HW1 8951   4.356   6.809   2.130
 2684SOL    HW2 8952   4.450   6.870   2.248
 2685SOL     OW 8953   6.249   5.874   6.265
 2685SOL    HW1 8954   6.242   5.936   6.187
 2685SOL    HW2 8955   6.195   5.910   6.341
 2686SOL     OW 8956   1.896   1.822   6.099
 2686SOL    HW1 8957   1.846   1.824   6.012
 2686SOL    HW2 8958   1.907   1.728   6.129
 2687SOL     OW 8959   5.106   5.810   1.328
 2687SOL    HW1 8960   5.067   5.767   1.246
 2687SOL    HW2 8961   5.053   5.781   1.408
 2688SOL     OW 8962   2.711   2.605   0.248
 2688SOL    HW1 8963   2.639   2.672   0.263
 2688SOL    HW2 8964   2.756   2.585   0.335
 2689SOL     OW 8965   0.725   3.709   2.283
 2689SOL    HW1 8966   0.681   3.775   2.344
 2689SOL    HW2 8967   0.695   3.725   2.189
 2690SOL     OW 8968   3.624   3.233   5.123
 2690SOL    HW1 8969   3.694   3.295   5.157
 2690SOL    HW2 8970   3.593   3.174   5.198
 2691SOL     OW 8971   0.565   5.425   3.839
 2691SOL    HW1 8972   0.546   5.508   3.785
 2691SOL    HW2 8973   0.516   5.430   3.926
 2692SOL     OW 8974   2.680   6.708   3.733
 2692SOL    HW1 8975   2.599   6.676   3.781
 2692SOL    HW2 8976   2.658   6.724   3.637
 2693SOL     OW 8977   2.115   4.734   3.769
 2693SOL    HW1 8978   2.149   4.820   3.730
 2693SOL    HW2 8979   2.019   4.721   3.744
 2694SOL     OW 8980   4.298   6.438   2.974
 2694SOL    HW1 8981   4.264   6.523   3.015
 2694SOL    HW2 8982   4.308   6.369   3.046
 2695SOL     OW 8983   5.980   0.703   2.427
 2695SOL    HW1 8984   6.070   0.714   2.384
 2695SOL    HW2 8985   5.924   0.784   2.408
 2696SOL     OW 8986   3.494   3.144   5.948
 2696SOL    HW1 8987   3.523   3.063   5.999
 2696SOL    HW2 8988   3.422   3.118   5.883
 2697SOL     OW 8989   3.157   1.114   3.110
 2697SOL    HW1 8990   3.205   1.054   3.046
 2697SOL    HW2 8991   3.182   1.209   3.092
 2698SOL     OW 8992   1.541   4.444   0.766
 2698SOL    HW1 8993   1.554   4.535   0.727
 2698SOL    HW2 8994   1.630   4.400   0.779
 2699SOL     OW 8995   2.521   5.724   1.383
 2699SOL    HW1 8996   2.565   5.751   1.297
 2699SOL    HW2 8997   2.548   5.631   1.407
 2700SOL     OW 8998   2.564   2.533   0.708
 2700SOL    HW1 8999   2.565   2.452   0.649
 2700SOL    HW2 9000   2.588   2.613   0.654
 2701SOL     OW 9001   5.172   2.031   6.081
 2701SOL    HW1 9002   5.224   2.087   6.146
 2701SOL    HW2 9003   5.224   2.023   5.996
 2702SOL     OW 9004   0.800   2.599   3.388
 2702SOL    HW1 9005   0.795   2.499   3.387
 2702SOL    HW2 9006   0.880   2.628   3.441
 2703SOL     OW 9007   1.154   6.490   0.549
 2703SOL    HW1 9008   1.083   6.423   0.527
 2703SOL    HW2 9009   1.199   6.465   0.634
 2704SOL     OW 9010   6.629   5.808   1.763
 2704SOL    HW1 9011   6.538   5.779   1.732
 2704SOL    HW2 9012   6.698   5.746   1.726
 2705SOL     OW 9013   6.163   7.022   4.907
 2705SOL    HW1 9014   6.088   6.961   4.932
 2705SOL    HW2 9015   6.226   0.010   4.984
 2706SOL     OW 9016   6.311   5.215   3.342
 2706SOL    HW1 9017   6.228   5.264   3.315
 2706SOL    HW2 9018   6.375   5.214   3.265
 2707SOL     OW 9019   3.752   0.130   4.241
 2707SOL    HW1 9020   3.809   0.075   4.179
 2707SOL    HW2 9021   3.667   0.080   4.261
 2708SOL     OW 9022   6.403   2.853   0.993
 2708SOL    HW1 9023   6.339   2.805   1.053
 2708SOL    HW2 9024   6.436   2.936   1.039
 2709SOL     OW 9025   5.387   0.216   6.929
 2709SOL    HW1 9026   5.312   0.278   6.905
 2709SOL    HW2 9027   5.400   0.217   0.006
 2710SOL     OW 9028   1.129   3.311   3.656
 2710SOL    HW1 9029   1.216   3.277   3.691
 2710SOL    HW2 9030   1.086   3.242   3.599
 2711SOL     OW 9031   2.711   0.959   3.493
 2711SOL    HW1 9032   2.709   1.026   3.567
 2711SOL    HW2 9033   2.631   0.972   3.434
 2712SOL     OW 9034   2.645   4.971   1.230
 2712SOL    HW1 9035   2.667   4.954   1.326
 2712SOL    HW2 9036   2.724   5.014   1.185
 2713SOL     OW 9037   2.377   3.825   6.292
 2713SOL    HW1 9038   2.411   3.805   6.384
 2713SOL    HW2 9039   2.390   3.745   6.234
 2714SOL     OW 9040   4.160   2.525   7.003
 2714SOL    HW1 9041   4.180   2.592   0.052
 2714SOL    HW2 9042   4.239   2.464   6.991
 2715SOL     OW 9043   5.784   2.454   1.051
 2715SOL    HW1 9044   5.775   2.495   1.142
 2715SOL    HW2 9045   5.735   2.510   0.984
 2716SOL     OW 9046   5.265   3.226   3.749
 2716SOL    HW1 9047   5.331   3.239   3.823
 2716SOL    HW2 9048   5.278   3.136   3.707
 2717SOL     OW 9049   0.752   6.990   2.216
 2717SOL    HW1 9050   0.701   0.040   2.261
 2717SOL    HW2 9051   0.696   6.947   2.145
 2718SOL     OW 9052   1.444   1.192   5.555
 2718SOL    HW1 9053   1.432   1.097   5.585
 2718SOL    HW2 9054   1.486   1.245   5.629
 2719SOL     OW 9055   0.481   4.910   1.910
 2719SOL    HW1 9056   0.575   4.944   1.904
 2719SOL    HW2 9057   0.418   4.980   1.875
 2720SOL     OW 9058   1.624   6.804   2.364
 2720SOL    HW1 9059   1.564   6.791   2.442
 2720SOL    HW2 9060   1.691   6.876   2.383
 2721SOL     OW 9061   3.135   6.286   3.503
 2721SOL    HW1 9062   3.074   6.209   3.522
 2721SOL    HW2 9063   3.145   6.298   3.405
 2722SOL     OW 9064   6.059   5.213   0.573
 2722SOL    HW1 9065   6.102   5.228   0.484
 2722SOL    HW2 9066   6.000   5.290   0.596
 2723SOL     OW 9067   0.933   5.661   6.113
 2723SOL    HW1 9068   0.916   5.646   6.015
 2723SOL    HW2 9069   0.848   5.687   6.158
 2724SOL     OW 9070   1.719   6.165   6.734
 2724SOL    HW1 9071   1.636   6.120   6.702
 2724SOL    HW2 9072   1.798   6.105   6.719
 2725SOL     OW 9073   4.989   4.827   4.974
 2725SOL    HW1 9074   5.042   4.874   4.904
 2725SOL    HW2 9075   5.046   4.758   5.019
 2726SOL     OW 9076   0.266   2.370   1.957
 2726SOL    HW1 9077   0.346   2.418   1.992
 2726SOL    HW2 9078   0.183   2.421   1.980
 2727SOL     OW 9079   0.756   4.754   3.931
 2727SOL    HW1 9080   0.693   4.825   3.963
 2727SOL    HW2 9081   0.850   4.780   3.954
 2728SOL     OW 9082   4.345   6.683   5.261
 2728SOL    HW1 9083   4.323   6.777   5.288
 2728SOL    HW2 9084   4.343   6.675   5.162
 2729SOL     OW 9085   0.063   6.005   0.501
 2729SOL    HW1 9086   0.102   5.974   0.587
 2729SOL    HW2 9087   0.017   6.093   0.515
 2730SOL     OW 9088   1.283   5.277   1.938
 2730SOL    HW1 9089   1.309   5.219   1.861
 2730SOL    HW2 9090   1.282   5.372   1.908
 2731SOL     OW 9091   2.916   3.664   3.415
 2731SOL    HW1 9092   2.962   3.671   3.504
 2731SOL    HW2 9093   2.827   3.709   3.420
 2732SOL     OW 9094   5.852   2.263   1.379
 2732SOL    HW1 9095   5.910   2.219   1.310
 2732SOL    HW2 9096   5.757   2.234   1.366
 2733SOL     OW 9097   6.432   1.667   5.060
 2733SOL    HW1 9098   6.419   1.629   5.151
 2733SOL    HW2 9099   6.368   1.743   5.046
 2734SOL     OW 9100   2.964   4.873   1.059
 2734SOL    HW1 9101   3.037   4.808   1.039
 2734SOL    HW2 9102   2.875   4.829   1.042
 2735SOL     OW 9103   1.690   2.488   1.625
 2735SOL    HW1 9104   1.722   2.460   1.716
 2735SOL    HW2 9105   1.591   2.471   1.619
 2736SOL     OW 9106   6.427   6.145   4.406
 2736SOL    HW1 9107   6.467   6.094   4.330
 2736SOL    HW2 9108   6.487   6.140   4.486
 2737SOL     OW 9109   2.794   4.035   5.319
 2737SOL    HW1 9110   2.831   3.986   5.240
 2737SOL    HW2 9111   2.830   4.128   5.321
 2738SOL     OW 9112   5.080   6.457   2.203
 2738SOL    HW1 9113   5.015   6.453   2.128
 2738SOL    HW2 9114   5.172   6.471   2.166
 2739SOL     OW 9115   1.556   4.874   1.160
 2739SOL    HW1 9116   1.611   4.803   1.205
 2739SOL    HW2 9117   1.486   4.831   1.104
 2740SOL     OW 9118   6.084   4.502   1.578
 2740SOL    HW1 9119   6.099   4.599   1.598
 2740SOL    HW2 9120   6.172   4.454   1.576
 2741SOL     OW 9121   6.267   0.468   4.128
 2741SOL    HW1 9122   6.269   0.391   4.192
 2741SOL    HW2 9123   6.241   0.436   4.037
 2742SOL     OW 9124   1.487   4.918   0.405
 2742SOL    HW1 9125   1.459   4.949   0.314
 2742SOL    HW2 9126   1.542   4.988   0.449
 2743SOL     OW 9127   6.963   4.346   2.530
 2743SOL    HW1 9128   6.904   4.426   2.543
 2743SOL    HW2 9129   0.036   4.376   2.526
 2744SOL     OW 9130   4.714   2.426   0.080
 2744SOL    HW1 9131   4.774   2.492   0.125
 2744SOL    HW2 9132   4.658   2.380   0.150
 2745SOL     OW 9133   0.100   0.900   4.750
 2745SOL    HW1 9134   0.120   0.971   4.682
 2745SOL    HW2 9135   0.009   0.862   4.732
 2746SOL     OW 9136   0.927   2.494   4.915
 2746SOL    HW1 9137   0.829   2.511   4.929
 2746SOL    HW2 9138   0.978   2.530   4.993
 2747SOL     OW 9139   4.736   5.039   0.204
 2747SOL    HW1 9140   4.780   5.020   0.292
 2747SOL    HW2 9141   4.640   5.063   0.220
 2748SOL     OW 9142   4.722   1.319   2.512
 2748SOL    HW1 9143   4.733   1.412   2.547
 2748SOL    HW2 9144   4.781   1.306   2.433
 2749SOL     OW 9145   0.010   4.238   1.154
 2749SOL    HW1 9146   6.935   4.251   1.171
 2749SOL    HW2 9147   0.060   4.240   1.241
 2750SOL     OW 9148   1.497   3.546   1.108
 2750SOL    HW1 9149   1.584   3.516   1.067
 2750SOL    HW2 9150   1.466   3.476   1.172
 2751SOL     OW 9151   1.370   2.870   1.712
 2751SOL    HW1 9152   1.343   2.899   1.620
 2751SOL    HW2 9153   1.458   2.823   1.708
 2752SOL     OW 9154   3.470   4.848   5.696
 2752SOL    HW1 9155   3.444   4.754   5.675
 2752SOL    HW2 9156   3.459   4.904   5.613
 2753SOL     OW 9157   6.561   6.629   5.079
 2753SOL    HW1 9158   6.617   6.709   5.058
 2753SOL    HW2 9159   6.576   6.558   5.009
 2754SOL     OW 9160   0.897   0.393   0.920
 2754SOL    HW1 9161   0.928   0.446   0.999
 2754SOL    HW2 9162   0.798   0.405   0.908
 2755SOL     OW 9163   3.122   6.691   2.070
 2755SOL    HW1 9164   3.206   6.653   2.109
 2755SOL    HW2 9165   3.085   6.760   2.132
 2756SOL     OW 9166   5.736   5.134   0.329
 2756SOL    HW1 9167   5.715   5.055   0.388
 2756SOL    HW2 9168   5.776   5.207   0.385
 2757SOL     OW 9169   2.813   6.712   6.749
 2757SOL    HW1 9170   2.802   6.705   6.649
 2757SOL    HW2 9171   2.729   6.683   6.794
 2758SOL     OW 9172   3.560   6.293   4.059
 2758SOL    HW1 9173   3.515   6.259   4.142
 2758SOL    HW2 9174   3.494   6.298   3.985
 2759SOL     OW 9175   5.081   6.765   6.239
 2759SOL    HW1 9176   5.068   6.856   6.200
 2759SOL    HW2 9177   5.050   6.765   6.335
 2760SOL     OW 9178   0.523   6.081   1.779
 2760SOL    HW1 9179   0.436   6.130   1.784
 2760SOL    HW2 9180   0.505   5.985   1.756
 2761SOL     OW 9181   2.013   5.361   4.276
 2761SOL    HW1 9182   2.108   5.373   4.248
 2761SOL    HW2 9183   2.010   5.329   4.371
 2762SOL     OW 9184   1.789   1.312   5.737
 2762SOL    HW1 9185   1.791   1.385   5.805
 2762SOL    HW2 9186   1.742   1.233   5.774
 2763SOL     OW 9187   5.255   1.736   3.822
 2763SOL    HW1 9188   5.353   1.716   3.830
 2763SOL    HW2 9189   5.240   1.799   3.746
 2764SOL     OW 9190   5.718   1.032   0.783
 2764SOL    HW1 9191   5.718   1.040   0.882
 2764SOL    HW2 9192   5.628   1.054   0.747
 2765SOL     OW 9193   6.188   6.576   0.806
 2765SOL    HW1 9194   6.124   6.647   0.835
 2765SOL    HW2 9195   6.185   6.567   0.707
 2766SOL     OW 9196   4.947   2.166   0.169
 2766SOL    HW1 9197   4.858   2.180   0.125
 2766SOL    HW2 9198   4.938   2.099   0.243
 2767SOL     OW 9199   0.130   5.235   0.324
 2767SOL    HW1 9200   0.045   5.230   0.377
 2767SOL    HW2 9201   0.163   5.330   0.323
 2768SOL     OW 9202   4.243   1.013   1.043
 2768SOL    HW1 9203   4.202   1.095   1.003
 2768SOL    HW2 9204   4.300   0.967   0.975
 2769SOL     OW 9205   1.071   4.448   3.963
 2769SOL    HW1 9206   1.063   4.362   4.014
 2769SOL    HW2 9207   1.156   4.495   3.990
 2770SOL     OW 9208   3.523   5.712   5.171
 2770SOL    HW1 9209   3.518   5.721   5.271
 2770SOL    HW2 9210   3.447   5.656   5.140
 2771SOL     OW 9211   6.860   0.952   3.453
 2771SOL    HW1 9212   6.777   0.989   3.409
 2771SOL    HW2 9213   6.932   0.943   3.384
 2772SOL     OW 9214   4.075   1.363   1.185
 2772SOL    HW1 9215   3.980   1.388   1.168
 2772SOL    HW2 9216   4.116   1.325   1.102
 2773SOL     OW 9217   6.211   2.406   5.443
 2773SOL    HW1 9218   6.267   2.324   5.457
 2773SOL    HW2 9219   6.139   2.409   5.512
 2774SOL     OW 9220   5.825   3.557   3.184
 2774SOL    HW1 9221   5.863   3.650   3.189
 2774SOL    HW2 9222   5.728   3.562   3.158
 2775SOL     OW 9223   0.090   5.944   6.542
 2775SOL    HW1 9224   0.171   5.944   6.483
 2775SOL    HW2 9225   0.068   6.038   6.568
 2776SOL     OW 9226   3.882   5.107   5.862
 2776SOL    HW1 9227   3.971   5.137   5.826
 2776SOL    HW2 9228   3.862   5.015   5.830
 2777SOL     OW 9229   2.563   1.371   2.158
 2777SOL    HW1 9230   2.483   1.325   2.197
 2777SOL    HW2 9231   2.597   1.318   2.080
 2778SOL     OW 9232   1.335   6.939   5.638
 2778SOL    HW1 9233   1.377   6.990   5.562
 2778SOL    HW2 9234   1.368   6.844   5.636
 2779SOL     OW 9235   4.944   6.401   1.041
 2779SOL    HW1 9236   4.918   6.307   1.060
 2779SOL    HW2 9237   5.044   6.408   1.035
 2780SOL     OW 9238   6.537   6.296   6.698
 2780SOL    HW1 9239   6.469   6.367   6.683
 2780SOL    HW2 9240   6.628   6.330   6.674
 2781SOL     OW 9241   5.094   6.582   1.892
 2781SOL    HW1 9242   5.137   6.670   1.913
 2781SOL    HW2 9243   4.995   6.594   1.886
 2782SOL     OW 9244   3.756   1.881   5.768
 2782SOL    HW1 9245   3.777   1.925   5.681
 2782SOL    HW2 9246   3.725   1.949   5.834
 2783SOL     OW 9247   5.028   4.301   4.085
 2783SOL    HW1 9248   4.951   4.256   4.131
 2783SOL    HW2 9249   5.049   4.254   4.000
 2784SOL     OW 9250   3.701   1.756   2.365
 2784SOL    HW1 9251   3.707   1.749   2.265
 2784SOL    HW2 9252   3.765   1.827   2.396
 2785SOL     OW 9253   4.850   1.171   0.675
 2785SOL    HW1 9254   4.907   1.206   0.600
 2785SOL    HW2 9255   4.836   1.242   0.743
 2786SOL     OW 9256   4.967   0.019   2.103
 2786SOL    HW1 9257   5.062   0.044   2.119
 2786SOL    HW2 9258   4.949   0.020   2.004
 2787SOL     OW 9259   3.637   1.735   6.622
 2787SOL    HW1 9260   3.719   1.721   6.567
 2787SOL    HW2 9261   3.659   1.792   6.701
 2788SOL     OW 9262   2.582   4.842   6.116
 2788SOL    HW1 9263   2.660   4.903   6.101
 2788SOL    HW2 9264   2.595   4.758   6.063
 2789SOL     OW 9265   1.843   2.574   3.787
 2789SOL    HW1 9266   1.859   2.483   3.748
 2789SOL    HW2 9267   1.890   2.582   3.875
 2790SOL     OW 9268   3.379   5.771   2.016
 2790SOL    HW1 9269   3.325   5.694   2.050
 2790SOL    HW2 9270   3.319   5.850   2.001
 2791SOL     OW 9271   0.962   3.373   2.547
 2791SOL    HW1 9272   0.879   3.335   2.588
 2791SOL    HW2 9273   0.953   3.473   2.542
 2792SOL     OW 9274   2.294   0.186   4.031
 2792SOL    HW1 9275   2.356   0.170   3.954
 2792SOL    HW2 9276   2.210   0.228   3.998
 2793SOL     OW 9277   5.434   3.572   3.466
 2793SOL    HW1 9278   5.528   3.538   3.473
 2793SOL    HW2 9279   5.370   3.495   3.474
 2794SOL     OW 9280   0.381   2.819   6.626
 2794SOL    HW1 9281   0.454   2.842   6.561
 2794SOL    HW2 9282   0.419   2.818   6.718
 2795SOL     OW 9283   1.479   2.709   0.623
 2795SOL    HW1 9284   1.526   2.761   0.552
 2795SOL    HW2 9285   1.460   2.617   0.589
 2796SOL     OW 9286   0.002   6.089   2.390
 2796SOL    HW1 9287   6.995   6.016   2.328
 2796SOL    HW2 9288   0.035   6.167   2.336
 2797SOL     OW 9289   5.900   5.037   4.347
 2797SOL    HW1 9290   5.813   5.077   4.319
 2797SOL    HW2 9291   5.964   5.111   4.370
 2798SOL     OW 9292   0.319   5.208   2.109
 2798SOL    HW1 9293   0.402   5.171   2.150
 2798SOL    HW2 9294   0.273   5.267   2.175
 2799SOL     OW 9295   6.208   5.872   0.089
 2799SOL    HW1 9296   6.193   5.881   0.187
 2799SOL    HW2 9297   6.209   5.963   0.047
 2800SOL     OW 9298   4.957   5.655   0.462
 2800SOL    HW1 9299   4.907   5.681   0.545
 2800SOL    HW2 9300   4.913   5.576   0.420
 2801SOL     OW 9301   5.936   5.751   6.046
 2801SOL    HW1 9302   5.841   5.720   6.037
 2801SOL    HW2 9303   5.972   5.724   6.135
 2802SOL     OW 9304   4.989   1.200   5.029
 2802SOL    HW1 9305   4.966   1.251   5.112
 2802SOL    HW2 9306   4.926   1.122   5.019
 2803SOL     OW 9307   3.794   6.077   6.700
 2803SOL    HW1 9308   3.816   6.144   6.628
 2803SOL    HW2 9309   3.719   6.112   6.756
 2804SOL     OW 9310   0.436   5.190   5.188
 2804SOL    HW1 9311   0.498   5.117   5.160
 2804SOL    HW2 9312   0.489   5.266   5.225
 2805SOL     OW 9313   5.253   3.284   1.831
 2805SOL    HW1 9314   5.225   3.197   1.871
 2805SOL    HW2 9315   5.209   3.359   1.880
 2806SOL     OW 9316   6.450   5.064   5.805
 2806SOL    HW1 9317   6.446   5.162   5.826
 2806SOL    HW2 9318   6.545   5.035   5.801
 2807SOL     OW 9319   5.272   6.174   3.861
 2807SOL    HW1 9320   5.291   6.252   3.920
 2807SOL    HW2 9321   5.325   6.095   3.892
 2808SOL     OW 9322   5.704   3.988   2.413
 2808SOL    HW1 9323   5.620   3.982   2.358
 2808SOL    HW2 9324   5.757   3.904   2.401
 2809SOL     OW 9325   5.984   3.075   1.160
 2809SOL    HW1 9326   6.039   3.028   1.229
 2809SOL    HW2 9327   5.921   3.010   1.117
 2810SOL     OW 9328   3.482   5.170   3.686
 2810SOL    HW1 9329   3.576   5.174   3.719
 2810SOL    HW2 9330   3.476   5.216   3.598
 2811SOL     OW 9331   0.963   1.908   3.745
 2811SOL    HW1 9332   0.930   1.815   3.762
 2811SOL    HW2 9333   1.044   1.926   3.801
 2812SOL     OW 9334   4.996   3.823   6.499
 2812SOL    HW1 9335   5.064   3.858   6.563
 2812SOL    HW2 9336   5.040   3.804   6.411
 2813SOL     OW 9337   6.539   6.868   6.076
 2813SOL    HW1 9338   6.553   6.807   5.999
 2813SOL    HW2 9339   6.441   6.872   6.099
 2814SOL     OW 9340   4.065   3.541   5.613
 2814SOL    HW1 9341   4.102   3.588   5.693
 2814SOL    HW2 9342   4.134   3.538   5.540
 2815SOL     OW 9343   6.329   0.054   5.504
 2815SOL    HW1 9344   6.280   0.013   5.427
 2815SOL    HW2 9345   6.323   7.016   5.584
 2816SOL     OW 9346   6.587   5.645   3.455
 2816SOL    HW1 9347   6.674   5.694   3.451
 2816SOL    HW2 9348   6.522   5.698   3.510
 2817SOL     OW 9349   2.562   6.765   1.376
 2817SOL    HW1 9350   2.509   6.849   1.370
 2817SOL    HW2 9351   2.558   6.729   1.469
 2818SOL     OW 9352   0.241   0.679   0.946
 2818SOL    HW1 9353   0.261   0.767   0.902
 2818SOL    HW2 9354   0.214   0.612   0.876
 2819SOL     OW 9355   0.560   1.043   1.651
 2819SOL    HW1 9356   0.634   1.024   1.588
 2819SOL    HW2 9357   0.503   1.116   1.615
 2820SOL     OW 9358   0.899   2.836   3.018
 2820SOL    HW1 9359   0.853   2.755   2.983
 2820SOL    HW2 9360   0.932   2.892   2.941
 2821SOL     OW 9361   3.948   3.370   0.197
 2821SOL    HW1 9362   3.945   3.274   0.226
 2821SOL    HW2 9363   3.896   3.381   0.112
 2822SOL     OW 9364   4.510   1.745   0.101
 2822SOL    HW1 9365   4.503   1.835   0.058
 2822SOL    HW2 9366   4.439   1.685   0.063
 2823SOL     OW 9367   4.446   6.737   0.020
 2823SOL    HW1 9368   4.490   6.647   0.027
 2823SOL    HW2 9369   4.347   6.726   0.034
 2824SOL     OW 9370   3.046   1.319   3.513
 2824SOL    HW1 9371   3.004   1.367   3.591
 2824SOL    HW2 9372   3.121   1.374   3.476
 2825SOL     OW 9373   6.184   0.146   7.012
 2825SOL    HW1 9374   6.113   0.125   0.057
 2825SOL    HW2 9375   6.255   0.075   7.015
 2826SOL     OW 9376   4.770   1.153   6.556
 2826SOL    HW1 9377   4.723   1.085   6.612
 2826SOL    HW2 9378   4.750   1.136   6.460
 2827SOL     OW 9379   0.043   0.612   4.954
 2827SOL    HW1 9380   6.990   0.653   4.902
 2827SOL    HW2 9381   0.055   0.517   4.926
 2828SOL     OW 9382   2.992   0.930   6.615
 2828SOL    HW1 9383   3.042   0.844   6.620
 2828SOL    HW2 9384   2.905   0.916   6.568
 2829SOL     OW 9385   3.395   3.568   5.273
 2829SOL    HW1 9386   3.408   3.514   5.190
 2829SOL    HW2 9387   3.390   3.665   5.249
 2830SOL     OW 9388   1.476   3.311   5.935
 2830SOL    HW1 9389   1.555   3.372   5.930
 2830SOL    HW2 9390   1.447   3.301   6.030
 2831SOL     OW 9391   0.558   5.184   3.716
 2831SOL    HW1 9392   0.555   5.275   3.757
 2831SOL    HW2 9393   0.639   5.175   3.658
 2832SOL     OW 9394   0.962   1.693   2.469
 2832SOL    HW1 9395   0.920   1.784   2.470
 2832SOL    HW2 9396   0.970   1.659   2.563
 2833SOL     OW 9397   3.521   2.051   2.405
 2833SOL    HW1 9398   3.589   2.057   2.332
 2833SOL    HW2 9399   3.430   2.071   2.368
 2834SOL     OW 9400   3.861   5.213   6.859
 2834SOL    HW1 9401   3.819   5.157   6.788
 2834SOL    HW2 9402   3.881   5.304   6.823
 2835SOL     OW 9403   0.250   0.102   1.845
 2835SOL    HW1 9404   0.246   0.146   1.935
 2835SOL    HW2 9405   0.161   0.061   1.824
 2836SOL     OW 9406   6.209   0.234   2.051
 2836SOL    HW1 9407   6.296   0.223   2.099
 2836SOL    HW2 9408   6.135   0.198   2.108
 2837SOL     OW 9409   5.454   4.454   2.664
 2837SOL    HW1 9410   5.393   4.418   2.735
 2837SOL    HW2 9411   5.399   4.493   2.590
 2838SOL     OW 9412   2.398   4.067   1.069
 2838SOL    HW1 9413   2.453   4.076   0.986
 2838SOL    HW2 9414   2.446   4.110   1.146
 2839SOL     OW 9415   6.722   1.602   2.038
 2839SOL    HW1 9416   6.638   1.583   1.986
 2839SOL    HW2 9417   6.802   1.576   1.984
 2840SOL     OW 9418   1.901   0.787   3.050
 2840SOL    HW1 9419   1.969   0.720   3.084
 2840SOL    HW2 9420   1.898   0.865   3.113
 2841SOL     OW 9421   0.224   1.113   6.282
 2841SOL    HW1 9422   0.297   1.139   6.344
 2841SOL    HW2 9423   0.152   1.065   6.333
 2842SOL     OW 9424   0.262   4.101   4.017
 2842SOL    HW1 9425   0.269   4.081   3.920
 2842SOL    HW2 9426   0.245   4.016   4.068
 2843SOL     OW 9427   2.719   1.807   2.923
 2843SOL    HW1 9428   2.684   1.894   2.958
 2843SOL    HW2 9429   2.702   1.736   2.991
 2844SOL     OW 9430   0.090   4.945   0.593
 2844SOL    HW1 9431   0.133   5.035   0.593
 2844SOL    HW2 9432   0.000   4.951   0.550
 2845SOL     OW 9433   6.164   2.971   1.329
 2845SOL    HW1 9434   6.239   2.976   1.395
 2845SOL    HW2 9435   6.134   2.876   1.320
 2846SOL     OW 9436   4.069   1.174   6.708
 2846SOL    HW1 9437   4.123   1.105   6.660
 2846SOL    HW2 9438   4.066   1.258   6.655
 2847SOL     OW 9439   5.012   3.583   3.778
 2847SOL    HW1 9440   4.999   3.486   3.761
 2847SOL    HW2 9441   5.070   3.622   3.706
 2848SOL     OW 9442   1.469   2.759   5.153
 2848SOL    HW1 9443   1.557   2.717   5.133
 2848SOL    HW2 9444   1.410   2.693   5.200
 2849SOL     OW 9445   4.360   6.005   0.852
 2849SOL    HW1 9446   4.349   6.052   0.940
 2849SOL    HW2 9447   4.320   5.914   0.858
 2850SOL     OW 9448   1.816   0.207   2.354
 2850SOL    HW1 9449   1.798   0.299   2.390
 2850SOL    HW2 9450   1.847   0.214   2.260
 2851SOL     OW 9451   6.335   1.361   6.330
 2851SOL    HW1 9452   6.336   1.451   6.285
 2851SOL    HW2 9453   6.279   1.298   6.277
 2852SOL     OW 9454   6.267   4.610   0.058
 2852SOL    HW1 9455   6.223   4.692   0.094
 2852SOL    HW2 9456   6.248   4.603   6.983
 2853SOL     OW 9457   1.776   3.115   6.458
 2853SOL    HW1 9458   1.805   3.150   6.547
 2853SOL    HW2 9459   1.830   3.034   6.435
 2854SOL     OW 9460   4.394   1.467   5.455
 2854SOL    HW1 9461   4.343   1.410   5.390
 2854SOL    HW2 9462   4.385   1.429   5.547
 2855SOL     OW 9463   2.827   1.460   0.030
 2855SOL    HW1 9464   2.823   1.513   6.968
 2855SOL    HW2 9465   2.784   1.512   0.104
 2856SOL     OW 9466   1.001   3.122   5.775
 2856SOL    HW1 9467   1.046   3.150   5.860
 2856SOL    HW2 9468   1.070   3.103   5.706
 2857SOL     OW 9469   2.839   1.940   2.425
 2857SOL    HW1 9470   2.926   1.978   2.395
 2857SOL    HW2 9471   2.825   1.959   2.522
 2858SOL     OW 9472   4.645   4.261   2.484
 2858SOL    HW1 9473   4.669   4.180   2.538
 2858SOL    HW2 9474   4.677   4.248   2.389
 2859SOL     OW 9475   5.167   1.339   6.400
 2859SOL    HW1 9476   5.224   1.307   6.476
 2859SOL    HW2 9477   5.216   1.409   6.349
 2860SOL     OW 9478   3.420   1.614   2.060
 2860SOL    HW1 9479   3.358   1.681   2.019
 2860SOL    HW2 9480   3.445   1.546   1.991
 2861SOL     OW 9481   4.039   3.704   5.309
 2861SOL    HW1 9482   4.082   3.781   5.355
 2861SOL    HW2 9483   3.968   3.665   5.367
 2862SOL     OW 9484   5.482   1.699   3.003
 2862SOL    HW1 9485   5.420   1.739   3.070
 2862SOL    HW2 9486   5.512   1.609   3.035
 2863SOL     OW 9487   5.232   1.060   6.276
 2863SOL    HW1 9488   5.158   1.008   6.319
 2863SOL    HW2 9489   5.254   1.140   6.332
 2864SOL     OW 9490   4.721   1.624   1.834
 2864SOL    HW1 9491   4.679   1.534   1.820
 2864SOL    HW2 9492   4.808   1.613   1.881
 2865SOL     OW 9493   4.016   4.172   6.843
 2865SOL    HW1 9494   4.072   4.243   6.886
 2865SOL    HW2 9495   3.922   4.179   6.875
 2866SOL     OW 9496   6.772   5.190   0.654
 2866SOL    HW1 9497   6.717   5.247   0.715
 2866SOL    HW2 9498   6.856   5.163   0.701
 2867SOL     OW 9499   5.853   4.911   2.807
 2867SOL    HW1 9500   5.912   4.859   2.746
 2867SOL    HW2 9501   5.908   4.975   2.861
 2868SOL     OW 9502   0.895   1.534   5.593
 2868SOL    HW1 9503   0.818   1.591   5.563
 2868SOL    HW2 9504   0.860   1.458   5.648
 2869SOL     OW 9505   6.418   1.614   2.878
 2869SOL    HW1 9506   6.441   1.664   2.794
 2869SOL    HW2 9507   6.479   1.535   2.887
 2870SOL     OW 9508   0.431   1.618   4.726
 2870SOL    HW1 9509   0.375   1.570   4.659
 2870SOL    HW2 9510   0.457   1.555   4.800
 2871SOL     OW 9511   0.627   1.846   6.777
 2871SOL    HW1 9512   0.641   1.928   6.832
 2871SOL    HW2 9513   0.552   1.861   6.713
 2872SOL     OW 9514   2.436   1.258   2.516
 2872SOL    HW1 9515   2.409   1.164   2.536
 2872SOL    HW2 9516   2.474   1.262   2.423
 2873SOL     OW 9517   7.009   5.468   3.212
 2873SOL    HW1 9518   0.077   5.469   3.168
 2873SOL    HW2 9519   6.975   5.562   3.220
 2874SOL     OW 9520   3.822   6.535   3.161
 2874SOL    HW1 9521   3.754   6.504   3.227
 2874SOL    HW2 9522   3.900   6.575   3.209
 2875SOL     OW 9523   4.567   6.900   0.467
 2875SOL    HW1 9524   4.595   6.920   0.373
 2875SOL    HW2 9525   4.528   6.808   0.471
 2876SOL     OW 9526   1.140   6.924   1.580
 2876SOL    HW1 9527   1.117   6.993   1.649
 2876SOL    HW2 9528   1.098   6.948   1.493
 2877SOL     OW 9529   3.263   2.643   5.280
 2877SOL    HW1 9530   3.271   2.551   5.242
 2877SOL    HW2 9531   3.282   2.640   5.378
 2878SOL     OW 9532   4.528   5.046   4.558
 2878SOL    HW1 9533   4.453   5.035   4.623
 2878SOL    HW2 9534   4.607   5.085   4.605
 2879SOL     OW 9535   5.432   4.988   0.582
 2879SOL    HW1 9536   5.521   4.944   0.575
 2879SOL    HW2 9537   5.418   5.021   0.675
 2880SOL     OW 9538   6.746   0.309   1.458
 2880SOL    HW1 9539   6.655   0.342   1.484
 2880SOL    HW2 9540   6.749   0.209   1.469
 2881SOL     OW 9541   5.376   5.683   0.087
 2881SOL    HW1 9542   5.280   5.713   0.078
 2881SOL    HW2 9543   5.436   5.762   0.076
 2882SOL     OW 9544   0.483   4.698   2.705
 2882SOL    HW1 9545   0.507   4.601   2.704
 2882SOL    HW2 9546   0.482   4.733   2.611
 2883SOL     OW 9547   5.724   0.136   3.529
 2883SOL    HW1 9548   5.814   0.095   3.544
 2883SOL    HW2 9549   5.724   0.187   3.443
 2884SOL     OW 9550   0.907   6.828   2.808
 2884SOL    HW1 9551   0.903   6.837   2.907
 2884SOL    HW2 9552   0.985   6.880   2.773
 2885SOL     OW 9553   0.714   3.408   2.788
 2885SOL    HW1 9554   0.675   3.497   2.763
 2885SOL    HW2 9555   0.685   3.339   2.722
 2886SOL     OW 9556   1.973   4.231   5.520
 2886SOL    HW1 9557   1.899   4.212   5.457
 2886SOL    HW2 9558   1.971   4.328   5.546
 2887SOL     OW 9559   0.145   0.412   4.657
 2887SOL    HW1 9560   0.195   0.370   4.581
 2887SOL    HW2 9561   0.195   0.397   4.742
 2888SOL     OW 9562   0.758   4.170   0.083
 2888SOL    HW1 9563   0.761   4.268   0.100
 2888SOL    HW2 9564   0.816   4.148   0.005
 2889SOL     OW 9565   2.094   6.813   2.182
 2889SOL    HW1 9566   2.176   6.802   2.126
 2889SOL    HW2 9567   2.013   6.796   2.125
 2890SOL     OW 9568   2.335   6.166   0.649
 2890SOL    HW1 9569   2.332   6.124   0.740
 2890SOL    HW2 9570   2.281   6.112   0.585
 2891SOL     OW 9571   0.883   4.530   3.804
 2891SOL    HW1 9572   0.952   4.483   3.861
 2891SOL    HW2 9573   0.844   4.606   3.855
 2892SOL     OW 9574   4.942   3.042   0.288
 2892SOL    HW1 9575   5.000   2.991   0.224
 2892SOL    HW2 9576   4.935   3.137   0.258
 2893SOL     OW 9577   0.846   6.370   4.489
 2893SOL    HW1 9578   0.747   6.369   4.479
 2893SOL    HW2 9579   0.888   6.376   4.398
 2894SOL     OW 9580   1.604   2.205   1.761
 2894SOL    HW1 9581   1.524   2.258   1.789
 2894SOL    HW2 9582   1.686   2.248   1.798
 2895SOL     OW 9583   4.446   2.556   5.881
 2895SOL    HW1 9584   4.440   2.499   5.963
 2895SOL    HW2 9585   4.538   2.594   5.873
 2896SOL     OW 9586   4.833   5.664   6.196
 2896SOL    HW1 9587   4.859   5.568   6.192
 2896SOL    HW2 9588   4.826   5.701   6.103
 2897SOL     OW 9589   3.759   5.102   3.134
 2897SOL    HW1 9590   3.665   5.089   3.104
 2897SOL    HW2 9591   3.821   5.053   3.073
 2898SOL     OW 9592   3.887   5.242   4.105
 2898SOL    HW1 9593   3.930   5.154   4.125
 2898SOL    HW2 9594   3.915   5.272   4.014
 2899SOL     OW 9595   0.891   1.697   0.482
 2899SOL    HW1 9596   0.861   1.615   0.432
 2899SOL    HW2 9597   0.856   1.778   0.436
 2900SOL     OW 9598   1.520   4.719   5.243
 2900SOL    HW1 9599   1.597   4.733   5.180
 2900SOL    HW2 9600   1.535   4.636   5.296
 2901SOL     OW 9601   3.075   5.692   3.549
 2901SOL    HW1 9602   3.112   5.613   3.501
 2901SOL    HW2 9603   2.977   5.699   3.533
 2902SOL     OW 9604   4.919   6.406   2.414
 2902SOL    HW1 9605   4.986   6.416   2.341
 2902SOL    HW2 9606   4.829   6.386   2.374
 2903SOL     OW 9607   3.993   1.006   0.531
 2903SOL    HW1 9608   4.066   1.030   0.466
 2903SOL    HW2 9609   3.924   1.079   0.532
 2904SOL     OW 9610   2.126   4.227   5.176
 2904SOL    HW1 9611   2.042   4.215   5.122
 2904SOL    HW2 9612   2.201   4.181   5.129
 2905SOL     OW 9613   1.319   2.693   3.991
 2905SOL    HW1 9614   1.365   2.607   3.970
 2905SOL    HW2 9615   1.380   2.751   4.046
 2906SOL     OW 9616   4.446   5.634   2.493
 2906SOL    HW1 9617   4.429   5.668   2.400
 2906SOL    HW2 9618   4.368   5.658   2.551
 2907SOL     OW 9619   0.753   1.896   3.240
 2907SOL    HW1 9620   0.779   1.939   3.326
 2907SOL    HW2 9621   0.813   1.928   3.167
 2908SOL     OW 9622   4.452   6.145   4.253
 2908SOL    HW1 9623   4.461   6.046   4.263
 2908SOL    HW2 9624   4.470   6.189   4.340
 2909SOL     OW 9625   1.459   6.444   2.992
 2909SOL    HW1 9626   1.430   6.463   3.086
 2909SOL    HW2 9627   1.500   6.353   2.987
 2910SOL     OW 9628   4.479   6.620   4.742
 2910SOL    HW1 9629   4.532   6.688   4.693
 2910SOL    HW2 9630   4.510   6.528   4.716
 2911SOL     OW 9631   1.295   5.345   3.587
 2911SOL    HW1 9632   1.320   5.441   3.572
 2911SOL    HW2 9633   1.345   5.310   3.666
 2912SOL     OW 9634   4.953   0.363   0.032
 2912SOL    HW1 9635   4.895   0.441   0.011
 2912SOL    HW2 9636   4.958   0.350   0.131
 2913SOL     OW 9637   2.519   4.755   2.861
 2913SOL    HW1 9638   2.503   4.679   2.924
 2913SOL    HW2 9639   2.560   4.720   2.777
 2914SOL     OW 9640   5.514   5.739   6.550
 2914SOL    HW1 9641   5.545   5.824   6.593
 2914SOL    HW2 9642   5.418   5.747   6.523
 2915SOL     OW 9643   5.495   1.581   4.546
 2915SOL    HW1 9644   5.578   1.618   4.588
 2915SOL    HW2 9645   5.520   1.529   4.464
 2916SOL     OW 9646   0.657   6.411   6.765
 2916SOL    HW1 9647   0.707   6.380   6.684
 2916SOL    HW2 9648   0.719   6.413   6.844
 2917SOL     OW 9649   2.658   6.850   2.779
 2917SOL    HW1 9650   2.627   6.929   2.831
 2917SOL    HW2 9651   2.622   6.855   2.686
 2918SOL     OW 9652   6.974   5.212   4.453
 2918SOL    HW1 9653   7.008   5.223   4.359
 2918SOL    HW2 9654   6.964   5.115   4.474
 2919SOL     OW 9655   6.941   1.246   0.893
 2919SOL    HW1 9656   6.874   1.243   0.968
 2919SOL    HW2 9657   6.892   1.254   0.806
 2920SOL     OW 9658   2.641   1.949   1.702
 2920SOL    HW1 9659   2.603   1.860   1.729
 2920SOL    HW2 9660   2.735   1.957   1.734
 2921SOL     OW 9661   1.096   0.848   3.315
 2921SOL    HW1 9662   1.187   0.816   3.341
 2921SOL    HW2 9663   1.057   0.785   3.247
 2922SOL     OW 9664   4.884   0.690   0.263
 2922SOL    HW1 9665   4.881   0.675   0.362
 2922SOL    HW2 9666   4.898   0.788   0.244
 2923SOL     OW 9667   6.877   5.594   2.230
 2923SOL    HW1 9668   6.839   5.614   2.140
 2923SOL    HW2 9669   6.960   5.648   2.244
 2924SOL     OW 9670   6.767   1.656   6.032
 2924SOL    HW1 9671   6.813   1.732   5.987
 2924SOL    HW2 9672   6.785   1.572   5.981
 2925SOL     OW 9673   4.237   0.933   2.658
 2925SOL    HW1 9674   4.192   1.016   2.626
 2925SOL    HW2 9675   4.187   0.896   2.737
 2926SOL     OW 9676   6.198   1.549   4.636
 2926SOL    HW1 9677   6.239   1.535   4.726
 2926SOL    HW2 9678   6.208   1.645   4.609
 2927SOL     OW 9679   0.701   2.119   2.462
 2927SOL    HW1 9680   0.798   2.101   2.445
 2927SOL    HW2 9681   0.647   2.076   2.390
 2928SOL     OW 9682   6.936   1.359   5.953
 2928SOL    HW1 9683   6.957   1.261   5.951
 2928SOL    HW2 9684   6.968   1.402   5.868
 2929SOL     OW 9685   0.672   2.121   6.887
 2929SOL    HW1 9686   0.611   2.178   6.831
 2929SOL    HW2 9687   0.749   2.090   6.831
 2930SOL     OW 9688   4.680   6.346   4.825
 2930SOL    HW1 9689   4.756   6.283   4.837
 2930SOL    HW2 9690   4.713   6.441   4.828
 2931SOL     OW 9691   5.607   4.671   0.627
 2931SOL    HW1 9692   5.514   4.688   0.658
 2931SOL    HW2 9693   5.608   4.658   0.528
 2932SOL     OW 9694   0.692   4.914   1.088
 2932SOL    HW1 9695   0.758   4.881   1.020
 2932SOL    HW2 9696   0.607   4.863   1.078
 2933SOL     OW 9697   5.954   4.313   3.370
 2933SOL    HW1 9698   6.011   4.394   3.381
 2933SOL    HW2 9699   6.013   4.234   3.352
 2934SOL     OW 9700   4.657   1.132   0.174
 2934SOL    HW1 9701   4.723   1.081   0.230
 2934SOL    HW2 9702   4.617   1.205   0.228
 2935SOL     OW 9703   6.378   2.787   0.465
 2935SOL    HW1 9704   6.311   2.732   0.416
 2935SOL    HW2 9705   6.362   2.782   0.563
 2936SOL     OW 9706   3.675   5.839   1.372
 2936SOL    HW1 9707   3.676   5.832   1.472
 2936SOL    HW2 9708   3.742   5.776   1.334
 2937SOL     OW 9709   4.948   4.507   0.623
 2937SOL    HW1 9710   4.982   4.594   0.659
 2937SOL    HW2 9711   4.860   4.485   0.666
 2938SOL     OW 9712   4.514   5.672   6.922
 2938SOL    HW1 9713   4.593   5.692   6.980
 2938SOL    HW2 9714   4.524   5.581   6.882
 2939SOL     OW 9715   1.352   0.873   3.443
 2939SOL    HW1 9716   1.407   0.829   3.514
 2939SOL    HW2 9717   1.350   0.972   3.460
 2940SOL     OW 9718   5.833   5.407   6.264
 2940SOL    HW1 9719   5.862   5.502   6.263
 2940SOL    HW2 9720   5.733   5.403   6.266
 2941SOL     OW 9721   1.402   2.989   4.640
 2941SOL    HW1 9722   1.382   3.036   4.726
 2941SOL    HW2 9723   1.353   3.034   4.565
 2942SOL     OW 9724   3.221   2.601   1.376
 2942SOL    HW1 9725   3.283   2.529   1.408
 2942SOL    HW2 9726   3.247   2.628   1.283
 2943SOL     OW 9727   5.007   4.592   2.969
 2943SOL    HW1 9728   4.952   4.650   2.908
 2943SOL    HW2 9729   5.004   4.629   3.062
 2944SOL     OW 9730   3.037   5.353   5.118
 2944SOL    HW1 9731   3.038   5.255   5.134
 2944SOL    HW2 9732   3.128   5.391   5.135
 2945SOL     OW 9733   3.633   4.129   3.966
 2945SOL    HW1 9734   3.716   4.111   4.019
 2945SOL    HW2 9735   3.658   4.155   3.873
 2946SOL     OW 9736   0.927   5.172   6.814
 2946SOL    HW1 9737   0.838   5.142   6.847
 2946SOL    HW2 9738   0.957   5.112   6.739
 2947SOL     OW 9739   0.285   3.479   0.513
 2947SOL    HW1 9740   0.280   3.569   0.557
 2947SOL    HW2 9741   0.312   3.490   0.417
 2948SOL     OW 9742   0.534   4.540   5.649
 2948SOL    HW1 9743   0.480   4.516   5.730
 2948SOL    HW2 9744   0.478   4.530   5.567
 2949SOL     OW 9745   3.036   4.444   0.909
 2949SOL    HW1 9746   3.003   4.449   0.815
 2949SOL    HW2 9747   3.018   4.352   0.946
 2950SOL     OW 9748   5.530   3.473   4.639
 2950SOL    HW1 9749   5.503   3.420   4.720
 2950SOL    HW2 9750   5.530   3.413   4.559
 2951SOL     OW 9751   5.793   1.314   0.916
 2951SOL    HW1 9752   5.705   1.329   0.961
 2951SOL    HW2 9753   5.801   1.377   0.838
 2952SOL     OW 9754   1.075   5.618   5.035
 2952SOL    HW1 9755   1.143   5.643   4.966
 2952SOL    HW2 9756   1.120   5.607   5.123
 2953SOL     OW 9757   5.404   3.700   2.893
 2953SOL    HW1 9758   5.365   3.790   2.911
 2953SOL    HW2 9759   5.337   3.643   2.846
 2954SOL     OW 9760   0.375   5.809   2.308
 2954SOL    HW1 9761   0.407   5.730   2.256
 2954SOL    HW2 9762   0.381   5.791   2.406
 2955SOL     OW 9763   1.134   3.892   1.409
 2955SOL    HW1 9764   1.115   3.918   1.314
 2955SOL    HW2 9765   1.163   3.796   1.412
 2956SOL     OW 9766   5.405   6.704   3.208
 2956SOL    HW1 9767   5.384   6.626   3.266
 2956SOL    HW2 9768   5.361   6.691   3.119
 2957SOL     OW 9769   6.008   2.977   2.386
 2957SOL    HW1 9770   5.954   3.037   2.328
 2957SOL    HW2 9771   6.008   2.884   2.348
 2958SOL     OW 9772   2.143   4.552   4.593
 2958SOL    HW1 9773   2.206   4.475   4.604
 2958SOL    HW2 9774   2.178   4.631   4.644
 2959SOL     OW 9775   4.977   4.100   0.751
 2959SOL    HW1 9776   4.970   4.008   0.713
 2959SOL    HW2 9777   5.022   4.161   0.686
 2960SOL     OW 9778   3.910   0.253   6.179
 2960SOL    HW1 9779   3.924   0.160   6.213
 2960SOL    HW2 9780   3.822   0.258   6.131
 2961SOL     OW 9781   4.956   3.271   3.218
 2961SOL    HW1 9782   5.054   3.280   3.199
 2961SOL    HW2 9783   4.912   3.360   3.206
 2962SOL     OW 9784   3.951   0.538   3.129
 2962SOL    HW1 9785   3.934   0.520   3.226
 2962SOL    HW2 9786   3.923   0.459   3.075
 2963SOL     OW 9787   2.163   0.253   6.828
 2963SOL    HW1 9788   2.132   0.259   6.733
 2963SOL    HW2 9789   2.110   0.316   6.885
 2964SOL     OW 9790   0.631   0.388   3.042
 2964SOL    HW1 9791   0.589   0.330   3.112
 2964SOL    HW2 9792   0.722   0.353   3.022
 2965SOL     OW 9793   6.348   1.103   4.504
 2965SOL    HW1 9794   6.275   1.162   4.541
 2965SOL    HW2 9795   6.424   1.159   4.474
 2966SOL     OW 9796   6.659   6.047   4.205
 2966SOL    HW1 9797   6.585   5.990   4.170
 2966SOL    HW2 9798   6.695   6.006   4.289
 2967SOL     OW 9799   5.799   0.805   4.561
 2967SOL    HW1 9800   5.862   0.816   4.483
 2967SOL    HW2 9801   5.814   0.715   4.602
 2968SOL     OW 9802   0.645   3.535   6.308
 2968SOL    HW1 9803   0.559   3.510   6.353
 2968SOL    HW2 9804   0.672   3.463   6.245
 2969SOL     OW 9805   5.482   1.163   4.321
 2969SOL    HW1 9806   5.505   1.067   4.307
 2969SOL    HW2 9807   5.496   1.187   4.417
 2970SOL     OW 9808   1.550   4.547   6.222
 2970SOL    HW1 9809   1.639   4.510   6.195
 2970SOL    HW2 9810   1.479   4.479   6.202
 2971SOL     OW 9811   5.295   4.343   6.891
 2971SOL    HW1 9812   5.244   4.328   6.806
 2971SOL    HW2 9813   5.231   4.361   6.966
 2972SOL     OW 9814   5.884   4.293   6.306
 2972SOL    HW1 9815   5.941   4.213   6.327
 2972SOL    HW2 9816   5.858   4.290   6.209
 2973SOL     OW 9817   5.660   1.089   3.669
 2973SOL    HW1 9818   5.567   1.082   3.706
 2973SOL    HW2 9819   5.715   1.148   3.727
 2974SOL     OW 9820   0.404   4.279   3.059
 2974SOL    HW1 9821   0.479   4.255   3.121
 2974SOL    HW2 9822   0.442   4.321   2.976
 2975SOL     OW 9823   6.407   2.722   5.236
 2975SOL    HW1 9824   6.318   2.686   5.266
 2975SOL    HW2 9825   6.398   2.820   5.216
 2976SOL     OW 9826   3.970   2.180   3.348
 2976SOL    HW1 9827   4.036   2.227   3.407
 2976SOL    HW2 9828   3.996   2.193   3.253
 2977SOL     OW 9829   2.366   0.017   3.160
 2977SOL    HW1 9830   2.273   0.006   3.124
 2977SOL    HW2 9831   2.403   6.949   3.184
 2978SOL     OW 9832   4.925   4.532   0.354
 2978SOL    HW1 9833   4.907   4.628   0.336
 2978SOL    HW2 9834   4.940   4.519   0.453
 2979SOL     OW 9835   4.743   1.101   4.452
 2979SOL    HW1 9836   4.833   1.143   4.466
 2979SOL    HW2 9837   4.742   1.011   4.495
 2980SOL     OW 9838   2.116   6.762   3.570
 2980SOL    HW1 9839   2.114   6.812   3.656
 2980SOL    HW2 9840   2.100   6.825   3.494
 2981SOL     OW 9841   2.115   1.077   6.033
 2981SOL    HW1 9842   2.134   1.002   6.096
 2981SOL    HW2 9843   2.016   1.084   6.019
 2982SOL     OW 9844   4.014   5.175   3.229
 2982SOL    HW1 9845   4.064   5.221   3.155
 2982SOL    HW2 9846   3.921   5.155   3.198
 2983SOL     OW 9847   1.026   1.617   3.337
 2983SOL    HW1 9848   0.994   1.572   3.253
 2983SOL    HW2 9849   1.070   1.703   3.314
 2984SOL     OW 9850   5.513   5.825   1.085
 2984SOL    HW1 9851   5.580   5.800   1.156
 2984SOL    HW2 9852   5.443   5.754   1.080
 2985SOL     OW 9853   1.423   2.499   6.121
 2985SOL    HW1 9854   1.479   2.426   6.082
 2985SOL    HW2 9855   1.453   2.587   6.084
 2986SOL     OW 9856   3.402   3.960   5.480
 2986SOL    HW1 9857   3.390   4.002   5.570
 2986SOL    HW2 9858   3.355   4.016   5.411
 2987SOL     OW 9859   5.971   0.931   4.405
 2987SOL    HW1 9860   6.061   0.904   4.438
 2987SOL    HW2 9861   5.968   1.031   4.396
 2988SOL     OW 9862   0.737   6.089   2.821
 2988SOL    HW1 9863   0.774   6.009   2.773
 2988SOL    HW2 9864   0.641   6.073   2.844
 2989SOL     OW 9865   6.806   6.306   6.621
 2989SOL    HW1 9866   6.903   6.327   6.637
 2989SOL    HW2 9867   6.795   6.208   6.604
 2990SOL     OW 9868   4.308   1.788   4.232
 2990SOL    HW1 9869   4.373   1.860   4.254
 2990SOL    HW2 9870   4.289   1.790   4.134
 2991SOL     OW 9871   6.413   4.193   5.671
 2991SOL    HW1 9872   6.392   4.291   5.677
 2991SOL    HW2 9873   6.338   4.145   5.626
 2992SOL     OW 9874   2.805   5.090   5.330
 2992SOL    HW1 9875   2.758   5.081   5.243
 2992SOL    HW2 9876   2.740   5.120   5.400
 2993SOL     OW 9877   0.697   5.100   1.313
 2993SOL    HW1 9878   0.788   5.077   1.349
 2993SOL    HW2 9879   0.664   5.027   1.254
 2994SOL     OW 9880   3.625   6.651   0.046
 2994SOL    HW1 9881   3.550   6.587   0.030
 2994SOL    HW2 9882   3.710   6.600   0.061
 2995SOL     OW 9883   2.359   2.674   6.622
 2995SOL    HW1 9884   2.400   2.764   6.607
 2995SOL    HW2 9885   2.394   2.609   6.554
 2996SOL     OW 9886   2.392   0.315   3.674
 2996SOL    HW1 9887   2.489   0.310   3.650
 2996SOL    HW2 9888   2.357   0.222   3.688
 2997SOL     OW 9889   6.006   0.957   2.290
 2997SOL    HW1 9890   5.926   0.968   2.231
 2997SOL    HW2 9891   6.003   1.025   2.363
 2998SOL     OW 9892   4.624   0.050   4.374
 2998SOL    HW1 9893   4.703   0.075   4.317
 2998SOL    HW2 9894   4.594   6.980   4.351
 2999SOL     OW 9895   3.052   4.850   4.595
 2999SOL    HW1 9896   3.125   4.782   4.599
 2999SOL    HW2 9897   2.980   4.825   4.660
 3000SOL     OW 9898   2.116   3.676   6.739
 3000SOL    HW1 9899   2.175   3.664   6.819
 3000SOL    HW2 9900   2.038   3.735   6.763
 3001SOL     OW 9901   5.237   6.494   6.293
 3001SOL    HW1 9902   5.216   6.591   6.289
 3001SOL    HW2 9903   5.230   6.455   6.201
 3002SOL     OW 9904   3.989   0.853   6.261
 3002SOL    HW1 9905   4.039   0.782   6.311
 3002SOL    HW2 9906   4.036   0.872   6.175
 3003SOL     OW 9907   2.327   6.954   6.944
 3003SOL    HW1 9908   2.300   6.982   0.014
 3003SOL    HW2 9909   2.332   6.854   6.940
 3004SOL     OW 9910   1.697   4.959   3.204
 3004SOL    HW1 9911   1.778   4.909   3.172
 3004SOL    HW2 9912   1.643   4.898   3.262
 3005SOL     OW 9913   3.312   2.609   6.934
 3005SOL    HW1 9914   3.368   2.657   7.002
 3005SOL    HW2 9915   3.294   2.670   6.857
 3006SOL     OW 9916   5.479   2.166   5.975
 3006SOL    HW1 9917   5.474   2.266   5.968
 3006SOL    HW2 9918   5.575   2.139   5.989
 3007SOL     OW 9919   5.992   5.556   0.882
 3007SOL    HW1 9920   5.955   5.596   0.799
 3007SOL    HW2 9921   6.043   5.625   0.933
 3008SOL     OW 9922   3.522   1.522   6.734
 3008SOL    HW1 9923   3.422   1.531   6.734
 3008SOL    HW2 9924   3.563   1.603   6.693
 3009SOL     OW 9925   0.779   1.025   3.182
 3009SOL    HW1 9926   0.777   1.025   3.282
 3009SOL    HW2 9927   0.720   0.952   3.148
 3010SOL     OW 9928   3.212   5.988   3.134
 3010SOL    HW1 9929   3.179   6.014   3.043
 3010SOL    HW2 9930   3.219   6.070   3.191
 3011SOL     OW 9931   5.087   1.444   1.293
 3011SOL    HW1 9932   5.025   1.426   1.217
 3011SOL    HW2 9933   5.052   1.401   1.376
 3012SOL     OW 9934   1.197   3.681   5.227
 3012SOL    HW1 9935   1.199   3.596   5.175
 3012SOL    HW2 9936   1.235   3.666   5.318
 3013SOL     OW 9937   5.629   5.740   4.493
 3013SOL    HW1 9938   5.718   5.708   4.527
 3013SOL    HW2 9939   5.562   5.733   4.567
 3014SOL     OW 9940   4.908   2.056   5.036
 3014SOL    HW1 9941   4.899   1.974   5.092
 3014SOL    HW2 9942   4.926   2.030   4.941
 3015SOL     OW 9943   3.358   2.292   0.280
 3015SOL    HW1 9944   3.373   2.197   0.307
 3015SOL    HW2 9945   3.372   2.352   0.359
 3016SOL     OW 9946   2.818   6.277   4.320
 3016SOL    HW1 9947   2.857   6.270   4.228
 3016SOL    HW2 9948   2.750   6.205   4.332
 3017SOL     OW 9949   0.067   5.403   1.942
 3017SOL    HW1 9950   6.993   5.388   1.921
 3017SOL    HW2 9951   0.123   5.368   1.867
 3018SOL     OW 9952   2.868   6.347   6.287
 3018SOL    HW1 9953   2.937   6.277   6.269
 3018SOL    HW2 9954   2.835   6.337   6.381
 3019SOL     OW 9955   1.302   0.246   6.692
 3019SOL    HW1 9956   1.223   0.278   6.744
 3019SOL    HW2 9957   1.385   0.290   6.727
 3020SOL     OW 9958   3.917   3.108   1.957
 3020SOL    HW1 9959   3.961   3.023   1.928
 3020SOL    HW2 9960   3.962   3.185   1.913
 3021SOL     OW 9961   3.218   0.224   6.741
 3021SOL    HW1 9962   3.200   0.317   6.773
 3021SOL    HW2 9963   3.237   0.165   6.820
 3022SOL     OW 9964   3.794   5.029   4.438
 3022SOL    HW1 9965   3.844   5.113   4.415
 3022SOL    HW2 9966   3.781   4.974   4.356
 3023SOL     OW 9967   4.239   0.594   2.705
 3023SOL    HW1 9968   4.310   0.566   2.770
 3023SOL    HW2 9969   4.168   0.644   2.753
 3024SOL     OW 9970   4.125   6.183   5.680
 3024SOL    HW1 9971   4.214   6.161   5.640
 3024SOL    HW2 9972   4.125   6.160   5.777
 3025SOL     OW 9973   3.168   1.110   0.809
 3025SOL    HW1 9974   3.257   1.155   0.816
 3025SOL    HW2 9975   3.178   1.024   0.760
 3026SOL     OW 9976   1.403   0.971   0.590
 3026SOL    HW1 9977   1.468   0.898   0.611
 3026SOL    HW2 9978   1.332   0.936   0.530
 3027SOL     OW 9979   4.001   0.770   2.785
 3027SOL    HW1 9980   3.929   0.756   2.853
 3027SOL    HW2 9981   3.988   0.858   2.740
 3028SOL     OW 9982   1.044   4.814   5.529
 3028SOL    HW1 9983   1.091   4.750   5.589
 3028SOL    HW2 9984   1.011   4.767   5.447
 3029SOL     OW 9985   6.925   3.107   4.919
 3029SOL    HW1 9986   6.904   3.198   4.953
 3029SOL    HW2 9987   6.848   3.046   4.937
 3030SOL     OW 9988   0.646   2.932   6.224
 3030SOL    HW1 9989   0.686   2.849   6.184
 3030SOL    HW2 9990   0.711   2.973   6.287
 3031SOL     OW 9991   0.459   2.827   0.260
 3031SOL    HW1 9992   0.539   2.833   0.200
 3031SOL    HW2 9993   0.478   2.875   0.345
 3032SOL     OW 9994   3.840   6.471   1.345
 3032SOL    HW1 9995   3.781   6.528   1.401
 3032SOL    HW2 9996   3.831   6.498   1.249
 3033SOL     OW 9997   6.687   2.026   1.621
 3033SOL    HW1 9998   6.641   1.982   1.544
 3033SOL    HW2 9999   6.781   2.049   1.595
 3034SOL     OW10000   1.320   5.776   3.217
 3034SOL    HW110001   1.268   5.691   3.216
 3034SOL    HW210002   1.302   5.825   3.303
 3035SOL     OW10003   6.785   3.212   0.035
 3035SOL    HW110004   6.720   3.141   0.064
 3035SOL    HW210005   6.872   3.198   0.080
 3036SOL     OW10006   1.679   2.269   6.371
 3036SOL    HW110007   1.700   2.183   6.417
 3036SOL    HW210008   1.670   2.254   6.272
 3037SOL     OW10009   6.819   6.377   5.127
 3037SOL    HW110010   6.834   6.286   5.090
 3037SOL    HW210011   6.743   6.421   5.079
 3038SOL     OW10012   5.900   6.137   6.223
 3038SOL    HW110013   5.897   6.109   6.127
 3038SOL    HW210014   5.836   6.212   6.237
 3039SOL     OW10015   6.680   3.849   1.366
 3039SOL    HW110016   6.582   3.839   1.344
 3039SOL    HW210017   6.699   3.945   1.385
 3040SOL     OW10018   3.885   3.514   6.270
 3040SOL    HW110019   3.845   3.492   6.181
 3040SOL    HW210020   3.984   3.525   6.260
 3041SOL     OW10021   2.023   2.986   4.322
 3041SOL    HW110022   2.077   3.048   4.379
 3041SOL    HW210023   1.929   3.020   4.314
 3042SOL     OW10024   4.813   6.685   2.266
 3042SOL    HW110025   4.872   6.604   2.269
 3042SOL    HW210026   4.843   6.751   2.334
 3043SOL     OW10027   1.070   5.252   1.639
 3043SOL    HW110028   1.159   5.211   1.661
 3043SOL    HW210029   1.071   5.285   1.545
 3044SOL     OW10030   3.528   3.429   5.651
 3044SOL    HW110031   3.520   3.330   5.656
 3044SOL    HW210032   3.442   3.469   5.618
 3045SOL     OW10033   4.884   0.597   2.910
 3045SOL    HW110034   4.861   0.585   3.006
 3045SOL    HW210035   4.972   0.644   2.902
 3046SOL     OW10036   2.297   1.157   6.486
 3046SOL    HW110037   2.342   1.068   6.489
 3046SOL    HW210038   2.350   1.219   6.428
 3047SOL     OW10039   5.934   0.449   2.543
 3047SOL    HW110040   5.961   0.545   2.534
 3047SOL    HW210041   5.837   0.439   2.520
 3048SOL     OW10042   4.256   2.491   1.545
 3048SOL    HW110043   4.242   2.437   1.462
 3048SOL    HW210044   4.192   2.461   1.616
 3049SOL     OW10045   0.571   6.820   2.082
 3049SOL    HW110046   0.608   6.727   2.073
 3049SOL    HW210047   0.512   6.841   2.004
 3050SOL     OW10048   2.711   1.175   2.394
 3050SOL    HW110049   2.789   1.212   2.445
 3050SOL    HW210050   2.694   1.232   2.314
 3051SOL     OW10051   2.023   4.196   6.941
 3051SOL    HW110052   2.084   4.228   6.870
 3051SOL    HW210053   1.937   4.164   6.901
 3052SOL     OW10054   5.581   0.198   2.202
 3052SOL    HW110055   5.540   0.107   2.198
 3052SOL    HW210056   5.672   0.195   2.162
 3053SOL     OW10057   0.099   1.826   6.685
 3053SOL    HW110058   0.141   1.736   6.676
 3053SOL    HW210059   0.145   1.878   6.756
 3054SOL     OW10060   6.600   1.683   0.833
 3054SOL    HW110061   6.552   1.703   0.747
 3054SOL    HW210062   6.540   1.628   0.892
 3055SOL     OW10063   5.127   6.677   3.894
 3055SOL    HW110064   5.098   6.592   3.939
 3055SOL    HW210065   5.213   6.662   3.847
 3056SOL     OW10066   5.703   0.995   4.890
 3056SOL    HW110067   5.623   0.944   4.861
 3056SOL    HW210068   5.749   1.033   4.810
 3057SOL     OW10069   3.873   5.880   3.229
 3057SOL    HW110070   3.778   5.909   3.235
 3057SOL    HW210071   3.904   5.848   3.318
 3058SOL     OW10072   6.874   5.537   1.101
 3058SOL    HW110073   6.894   5.578   1.189
 3058SOL    HW210074   6.891   5.603   1.028
 3059SOL     OW10075   2.741   2.268   4.409
 3059SOL    HW110076   2.820   2.296   4.354
 3059SOL    HW210077   2.658   2.278   4.355
 3060SOL     OW10078   0.230   5.194   0.621
 3060SOL    HW110079   0.207   5.229   0.530
 3060SOL    HW210080   0.328   5.205   0.637
 3061SOL     OW10081   6.384   6.949   5.828
 3061SOL    HW110082   6.481   6.970   5.819
 3061SOL    HW210083   6.330   0.009   5.808
 3062SOL     OW10084   1.591   6.562   0.015
 3062SOL    HW110085   1.548   6.521   0.096
 3062SOL    HW210086   1.601   6.492   6.966
 3063SOL     OW10087   2.858   5.515   1.593
 3063SOL    HW110088   2.815   5.534   1.505
 3063SOL    HW210089   2.946   5.468   1.578
 3064SOL     OW10090   5.770   4.196   3.140
 3064SOL    HW110091   5.758   4.205   3.239
 3064SOL    HW210092   5.853   4.244   3.112
 3065SOL     OW10093   2.543   0.906   6.874
 3065SOL    HW110094   2.459   0.960   6.883
 3065SOL    HW210095   2.622   0.966   6.884
 3066SOL     OW10096   5.660   4.794   0.898
 3066SOL    HW110097   5.652   4.702   0.938
 3066SOL    HW210098   5.681   4.786   0.801
 3067SOL     OW10099   3.736   1.825   5.451
 3067SOL    HW110100   3.803   1.889   5.416
 3067SOL    HW210101   3.779   1.764   5.517
 3068SOL     OW10102   6.389   6.621   1.699
 3068SOL    HW110103   6.424   6.649   1.609
 3068SOL    HW210104   6.303   6.571   1.688
 3069SOL     OW10105   6.650   6.352   1.897
 3069SOL    HW110106   6.663   6.276   1.833
 3069SOL    HW210107   6.553   6.362   1.918
 3070SOL     OW10108   1.519   1.109   1.109
 3070SOL    HW110109   1.574   1.033   1.076
 3070SOL    HW210110   1.495   1.094   1.205
 3071SOL     OW10111   6.573   6.260   2.441
 3071SOL    HW110112   6.640   6.334   2.441
 3071SOL    HW210113   6.571   6.217   2.531
 3072SOL     OW10114   1.919   6.790   6.769
 3072SOL    HW110115   1.885   6.806   6.676
 3072SOL    HW210116   1.979   6.865   6.796
 3073SOL     OW10117   6.191   2.789   4.640
 3073SOL    HW110118   6.233   2.753   4.723
 3073SOL    HW210119   6.240   2.872   4.611
 3074SOL     OW10120   6.020   3.265   1.364
 3074SOL    HW110121   5.986   3.198   1.299
 3074SOL    HW210122   5.955   3.341   1.372
 3075SOL     OW10123   2.582   5.669   2.020
 3075SOL    HW110124   2.622   5.692   2.109
 3075SOL    HW210125   2.651   5.679   1.949
 3076SOL     OW10126   6.581   0.447   4.091
 3076SOL    HW110127   6.559   0.358   4.131
 3076SOL    HW210128   6.647   0.494   4.150
 3077SOL     OW10129   4.927   5.968   2.127
 3077SOL    HW110130   4.982   5.907   2.069
 3077SOL    HW210131   4.899   5.920   2.209
 3078SOL     OW10132   1.069   3.200   2.341
 3078SOL    HW110133   1.165   3.202   2.368
 3078SOL    HW210134   1.016   3.255   2.406
 3079SOL     OW10135   2.071   2.264   3.969
 3079SOL    HW110136   1.988   2.277   3.915
 3079SOL    HW210137   2.052   2.201   4.045
 3080SOL     OW10138   4.822   3.981   3.892
 3080SOL    HW110139   4.801   3.989   3.795
 3080SOL    HW210140   4.782   4.058   3.941
 3081SOL     OW10141   0.403   2.317   6.057
 3081SOL    HW110142   0.439   2.310   5.964
 3081SOL    HW210143   0.306   2.294   6.057
 3082SOL     OW10144   2.843   6.692   4.063
 3082SOL    HW110145   2.932   6.657   4.090
 3082SOL    HW210146   2.788   6.618   4.024
 3083SOL     OW10147   3.958   6.250   3.753
 3083SOL    HW110148   3.966   6.277   3.657
 3083SOL    HW210149   4.011   6.167   3.769
 3084SOL     OW10150   5.574   3.821   4.554
 3084SOL    HW110151   5.533   3.858   4.471
 3084SOL    HW210152   5.561   3.722   4.557
 3085SOL     OW10153   6.987   4.731   1.426
 3085SOL    HW110154   0.000   4.812   1.472
 3085SOL    HW210155   6.890   4.720   1.447
 3086SOL     OW10156   4.091   1.831   1.875
 3086SOL    HW110157   4.067   1.928   1.878
 3086SOL    HW210158   4.119   1.806   1.782
 3087SOL     OW10159   0.422   5.826   3.990
 3087SOL    HW110160   0.472   5.776   3.919
 3087SOL    HW210161   0.482   5.845   4.067
 3088SOL     OW10162   2.219   4.448   5.305
 3088SOL    HW110163   2.195   4.371   5.246
 3088SOL    HW210164   2.139   4.506   5.318
 3089SOL     OW10165   1.233   3.280   0.000
 3089SOL    HW110166   1.174   3.349   6.982
 3089SOL    HW210167   1.223   3.281   0.100
 3090SOL     OW10168   1.582   2.058   2.003
 3090SOL    HW110169   1.552   2.135   1.946
 3090SOL    HW210170   1.639   2.092   2.077
 3091SOL     OW10171   1.915   0.929   1.124
 3091SOL    HW110172   1.987   0.893   1.065
 3091SOL    HW210173   1.953   0.996   1.187
 3092SOL     OW10174   4.763   6.924   0.661
 3092SOL    HW110175   4.737   6.870   0.742
 3092SOL    HW210176   4.682   6.941   0.605
 3093SOL     OW10177   5.139   6.085   5.512
 3093SOL    HW110178   5.152   6.106   5.608
 3093SOL    HW210179   5.070   6.146   5.473
 3094SOL     OW10180   2.826   6.648   4.539
 3094SOL    HW110181   2.774   6.599   4.470
 3094SOL    HW210182   2.923   6.627   4.529
 3095SOL     OW10183   2.265   5.545   5.668
 3095SOL    HW110184   2.217   5.581   5.748
 3095SOL    HW210185   2.198   5.518   5.599
 3096SOL     OW10186   1.758   6.515   4.670
 3096SOL    HW110187   1.804   6.426   4.671
 3096SOL    HW210188   1.745   6.547   4.764
 3097SOL     OW10189   6.588   2.480   0.634
 3097SOL    HW110190   6.605   2.387   0.600
 3097SOL    HW210191   6.626   2.490   0.726
 3098SOL     OW10192   2.865   2.895   1.071
 3098SOL    HW110193   2.939   2.898   1.138
 3098SOL    HW210194   2.902   2.911   0.980
 3099SOL     OW10195   0.621   6.733   2.868
 3099SOL    HW110196   0.670   6.663   2.817
 3099SOL    HW210197   0.682   6.770   2.939
 3100SOL     OW10198   6.544   6.990   4.999
 3100SOL    HW110199   6.551   6.991   4.899
 3100SOL    HW210200   6.464   6.937   5.026
 3101SOL     OW10201   4.778   6.825   6.377
 3101SOL    HW110202   4.713   6.858   6.445
 3101SOL    HW210203   4.756   6.865   6.288
 3102SOL     OW10204   0.104   4.733   2.599
 3102SOL    HW110205   0.129   4.739   2.696
 3102SOL    HW210206   0.021   4.787   2.583
 3103SOL     OW10207   4.217   0.509   2.324
 3103SOL    HW110208   4.301   0.476   2.367
 3103SOL    HW210209   4.239   0.552   2.237
 3104SOL     OW10210   5.282   6.394   5.294
 3104SOL    HW110211   5.357   6.389   5.228
 3104SOL    HW210212   5.195   6.400   5.245
 3105SOL     OW10213   5.877   4.577   2.203
 3105SOL    HW110214   5.938   4.656   2.197
 3105SOL    HW210215   5.802   4.588   2.138
 3106SOL     OW10216   6.041   2.077   2.960
 3106SOL    HW110217   6.087   2.098   3.046
 3106SOL    HW210218   6.001   2.160   2.923
 3107SOL     OW10219   4.166   0.995   4.618
 3107SOL    HW110220   4.214   1.030   4.698
 3107SOL    HW210221   4.114   0.913   4.642
 3108SOL     OW10222   1.042   0.021   4.015
 3108SOL    HW110223   1.024   0.023   4.114
 3108SOL    HW210224   1.140   0.034   3.999
 3109SOL     OW10225   5.348   6.992   2.831
 3109SOL    HW110226   5.433   0.014   2.858
 3109SOL    HW210227   5.324   7.018   2.737
 3110SOL     OW10228   1.708   1.937   3.253
 3110SOL    HW110229   1.792   1.990   3.241
 3110SOL    HW210230   1.632   1.986   3.209
 3111SOL     OW10231   6.010   6.408   3.793
 3111SOL    HW110232   6.068   6.327   3.782
 3111SOL    HW210233   5.956   6.421   3.710
 3112SOL     OW10234   4.689   2.449   6.537
 3112SOL    HW110235   4.623   2.483   6.470
 3112SOL    HW210236   4.661   2.476   6.629
 3113SOL     OW10237   2.106   6.111   3.653
 3113SOL    HW110238   2.090   6.196   3.602
 3113SOL    HW210239   2.130   6.038   3.589
 3114SOL     OW10240   4.210   1.922   0.443
 3114SOL    HW110241   4.250   1.995   0.499
 3114SOL    HW210242   4.270   1.842   0.446
 3115SOL     OW10243   4.250   3.335   6.146
 3115SOL    HW110244   4.343   3.320   6.111
 3115SOL    HW210245   4.245   3.304   6.241
 3116SOL     OW10246   0.281   2.662   6.913
 3116SOL    HW110247   0.351   2.714   6.864
 3116SOL    HW210248   0.303   2.660   7.011
 3117SOL     OW10249   4.228   3.528   5.156
 3117SOL    HW110250   4.205   3.482   5.070
 3117SOL    HW210251   4.151   3.585   5.186
 3118SOL     OW10252   0.159   4.584   1.538
 3118SOL    HW110253   0.108   4.652   1.486
 3118SOL    HW210254   0.249   4.571   1.497
 3119SOL     OW10255   2.031   3.588   5.803
 3119SOL    HW110256   2.027   3.644   5.720
 3119SOL    HW210257   1.955   3.524   5.803
 3120SOL     OW10258   3.183   6.823   4.882
 3120SOL    HW110259   3.102   6.773   4.912
 3120SOL    HW210260   3.170   6.921   4.900
 3121SOL     OW10261   7.003   1.393   3.587
 3121SOL    HW110262   7.009   1.313   3.647
 3121SOL    HW210263   6.907   1.423   3.581
 3122SOL     OW10264   3.331   6.798   6.128
 3122SOL    HW110265   3.269   6.840   6.195
 3122SOL    HW210266   3.280   6.730   6.075
 3123SOL     OW10267   4.360   1.434   4.103
 3123SOL    HW110268   4.350   1.345   4.059
 3123SOL    HW210269   4.456   1.462   4.099
 3124SOL     OW10270   4.203   6.639   4.557
 3124SOL    HW110271   4.256   6.624   4.640
 3124SOL    HW210272   4.106   6.619   4.575
 3125SOL     OW10273   6.531   2.110   5.028
 3125SOL    HW110274   6.517   2.168   4.948
 3125SOL    HW210275   6.615   2.136   5.075
 3126SOL     OW10276   4.405   5.170   6.592
 3126SOL    HW110277   4.313   5.180   6.631
 3126SOL    HW210278   4.472   5.209   6.654
 3127SOL     OW10279   1.115   3.585   3.687
 3127SOL    HW110280   1.120   3.487   3.670
 3127SOL    HW210281   1.207   3.622   3.699
 3128SOL     OW10282   2.229   0.774   6.705
 3128SOL    HW110283   2.260   0.712   6.777
 3128SOL    HW210284   2.160   0.836   6.742
 3129SOL     OW10285   0.407   3.994   6.401
 3129SOL    HW110286   0.369   4.034   6.484
 3129SOL    HW210287   0.477   3.927   6.425
 3130SOL     OW10288   1.955   4.455   1.156
 3130SOL    HW110289   1.903   4.370   1.169
 3130SOL    HW210290   2.049   4.442   1.187
 3131SOL     OW10291   6.997   2.810   1.321
 3131SOL    HW110292   6.996   2.751   1.240
 3131SOL    HW210293   7.001   2.906   1.293
 3132SOL     OW10294   4.567   5.792   5.800
 3132SOL    HW110295   4.648   5.818   5.852
 3132SOL    HW210296   4.502   5.743   5.859
 3133SOL     OW10297   3.690   2.104   3.914
 3133SOL    HW110298   3.590   2.102   3.911
 3133SOL    HW210299   3.726   2.090   3.822
 3134SOL     OW10300   5.120   4.429   1.148
 3134SOL    HW110301   5.146   4.512   1.099
 3134SOL    HW210302   5.196   4.365   1.148
 3135SOL     OW10303   5.444   0.313   5.425
 3135SOL    HW110304   5.443   0.213   5.418
 3135SOL    HW210305   5.490   0.352   5.346
 3136SOL     OW10306   5.600   0.651   1.176
 3136SOL    HW110307   5.591   0.716   1.251
 3136SOL    HW210308   5.662   0.687   1.107
 3137SOL     OW10309   6.273   0.655   2.907
 3137SOL    HW110310   6.342   0.667   2.836
 3137SOL    HW210311   6.200   0.722   2.894
 3138SOL     OW10312   6.067   3.452   4.061
 3138SOL    HW110313   6.067   3.403   4.149
 3138SOL    HW210314   6.084   3.549   4.077
 3139SOL     OW10315   5.045   6.358   0.567
 3139SOL    HW110316   5.014   6.326   0.478
 3139SOL    HW210317   4.973   6.411   0.611
 3140SOL     OW10318   6.057   6.889   6.281
 3140SOL    HW110319   6.065   6.850   6.372
 3140SOL    HW210320   6.148   6.918   6.249
 3141SOL     OW10321   0.027   6.480   6.090
 3141SOL    HW110322   0.076   6.394   6.075
 3141SOL    HW210323   0.085   6.543   6.141
 3142SOL     OW10324   3.708   6.918   1.773
 3142SOL    HW110325   3.711   6.852   1.848
 3142SOL    HW210326   3.771   6.890   1.701
 3143SOL     OW10327   6.700   1.510   6.573
 3143SOL    HW110328   6.732   1.515   6.479
 3143SOL    HW210329   6.602   1.530   6.576
 3144SOL     OW10330   4.151   4.534   1.483
 3144SOL    HW110331   4.076   4.469   1.471
 3144SOL    HW210332   4.218   4.497   1.548
 3145SOL     OW10333   1.989   5.564   1.602
 3145SOL    HW110334   2.009   5.506   1.523
 3145SOL    HW210335   1.894   5.548   1.632
 3146SOL     OW10336   1.430   0.022   2.889
 3146SOL    HW110337   1.434   6.953   2.928
 3146SOL    HW210338   1.520   0.045   2.850
 3147SOL     OW10339   3.024   4.995   0.202
 3147SOL    HW110340   2.932   4.968   0.175
 3147SOL    HW210341   3.090   4.931   0.164
 3148SOL     OW10342   4.921   6.076   4.336
 3148SOL    HW110343   4.922   5.976   4.341
 3148SOL    HW210344   4.946   6.115   4.424
 3149SOL     OW10345   2.705   1.573   6.041
 3149SOL    HW110346   2.606   1.583   6.026
 3149SOL    HW210347   2.728   1.605   6.133
 3150SOL     OW10348   6.601   6.233   3.938
 3150SOL    HW110349   6.612   6.135   3.955
 3150SOL    HW210350   6.595   6.282   4.025
 3151SOL     OW10351   4.231   1.647   6.245
 3151SOL    HW110352   4.300   1.607   6.304
 3151SOL    HW210353   4.275   1.698   6.171
 3152SOL     OW10354   1.305   6.070   0.367
 3152SOL    HW110355   1.364   6.024   0.434
 3152SOL    HW210356   1.339   6.163   0.352
 3153SOL     OW10357   6.544   4.770   2.321
 3153SOL    HW110358   6.552   4.677   2.283
 3153SOL    HW210359   6.449   4.788   2.344
 3154SOL     OW10360   6.344   0.682   6.567
 3154SOL    HW110361   6.392   0.714   6.486
 3154SOL    HW210362   6.410   0.637   6.629
 3155SOL     OW10363   6.578   4.418   1.241
 3155SOL    HW110364   6.484   4.391   1.261
 3155SOL    HW210365   6.621   4.454   1.324
 3156SOL     OW10366   3.266   3.514   3.357
 3156SOL    HW110367   3.353   3.466   3.360
 3156SOL    HW210368   3.205   3.468   3.292
 3157SOL     OW10369   2.234   2.817   4.857
 3157SOL    HW110370   2.279   2.888   4.911
 3157SOL    HW210371   2.276   2.728   4.878
 3158SOL     OW10372   4.261   0.033   2.629
 3158SOL    HW110373   4.166   0.048   2.655
 3158SOL    HW210374   4.266   0.008   2.532
 3159SOL     OW10375   5.446   1.326   0.153
 3159SOL    HW110376   5.383   1.401   0.133
 3159SOL    HW210377   5.535   1.346   0.112
 3160SOL     OW10378   0.396   6.274   4.780
 3160SOL    HW110379   0.362   6.359   4.821
 3160SOL    HW210380   0.322   6.231   4.729
 3161SOL     OW10381   1.672   2.161   3.783
 3161SOL    HW110382   1.591   2.172   3.725
 3161SOL    HW210383   1.677   2.066   3.815
 3162SOL     OW10384   1.233   6.480   1.765
 3162SOL    HW110385   1.241   6.580   1.759
 3162SOL    HW210386   1.144   6.452   1.729
 3163SOL     OW10387   3.414   2.005   6.132
 3163SOL    HW110388   3.436   2.103   6.140
 3163SOL    HW210389   3.373   1.973   6.217
 3164SOL     OW10390   4.463   4.331   1.481
 3164SOL    HW110391   4.375   4.302   1.519
 3164SOL    HW210392   4.523   4.252   1.471
 3165SOL     OW10393   1.076   6.001   0.816
 3165SOL    HW110394   1.023   6.031   0.895
 3165SOL    HW210395   1.072   5.902   0.808
 3166SOL     OW10396   4.527   1.517   5.756
 3166SOL    HW110397   4.515   1.609   5.719
 3166SOL    HW210398   4.561   1.522   5.850
 3167SOL     OW10399   6.726   3.549   1.647
 3167SOL    HW110400   6.638   3.520   1.608
 3167SOL    HW210401   6.724   3.534   1.746
 3168SOL     OW10402   4.900   2.549   6.407
 3168SOL    HW110403   4.977   2.485   6.398
 3168SOL    HW210404   4.825   2.503   6.454
 3169SOL     OW10405   1.687   3.124   4.705
 3169SOL    HW110406   1.635   3.204   4.737
 3169SOL    HW210407   1.625   3.062   4.656
 3170SOL     OW10408   4.132   0.735   1.342
 3170SOL    HW110409   4.055   0.695   1.393
 3170SOL    HW210410   4.209   0.748   1.404
 3171SOL     OW10411   0.611   6.290   1.407
 3171SOL    HW110412   0.527   6.265   1.359
 3171SOL    HW210413   0.608   6.386   1.433
 3172SOL     OW10414   0.385   5.125   6.213
 3172SOL    HW110415   0.383   5.134   6.113
 3172SOL    HW210416   0.294   5.099   6.246
 3173SOL     OW10417   3.154   2.293   0.839
 3173SOL    HW110418   3.083   2.254   0.897
 3173SOL    HW210419   3.234   2.317   0.894
 3174SOL     OW10420   2.845   3.190   6.275
 3174SOL    HW110421   2.866   3.096   6.248
 3174SOL    HW210422   2.746   3.205   6.269
 3175SOL     OW10423   0.312   6.699   0.279
 3175SOL    HW110424   0.317   6.677   0.182
 3175SOL    HW210425   0.382   6.648   0.329
 3176SOL     OW10426   1.933   4.938   5.355
 3176SOL    HW110427   1.987   5.003   5.409
 3176SOL    HW210428   1.990   4.861   5.328
 3177SOL     OW10429   4.648   4.737   4.666
 3177SOL    HW110430   4.643   4.639   4.647
 3177SOL    HW210431   4.602   4.756   4.753
 3178SOL     OW10432   6.521   1.979   0.699
 3178SOL    HW110433   6.455   1.913   0.734
 3178SOL    HW210434   6.529   1.968   0.600
 3179SOL     OW10435   1.887   2.796   2.015
 3179SOL    HW110436   1.935   2.861   1.956
 3179SOL    HW210437   1.847   2.845   2.092
 3180SOL     OW10438   4.677   0.941   6.698
 3180SOL    HW110439   4.710   0.855   6.658
 3180SOL    HW210440   4.661   0.928   6.795
 3181SOL     OW10441   1.110   1.225   2.892
 3181SOL    HW110442   1.152   1.139   2.923
 3181SOL    HW210443   1.013   1.225   2.916
 3182SOL     OW10444   2.113   1.656   4.824
 3182SOL    HW110445   2.117   1.702   4.735
 3182SOL    HW210446   2.104   1.723   4.897
 3183SOL     OW10447   4.357   3.890   1.430
 3183SOL    HW110448   4.416   3.959   1.471
 3183SOL    HW210449   4.287   3.862   1.495
 3184SOL     OW10450   1.360   2.547   2.921
 3184SOL    HW110451   1.292   2.607   2.963
 3184SOL    HW210452   1.365   2.566   2.823
 3185SOL     OW10453   6.043   6.368   7.016
 3185SOL    HW110454   6.016   6.463   0.011
 3185SOL    HW210455   6.001   6.308   0.062
 3186SOL     OW10456   3.778   2.153   2.578
 3186SOL    HW110457   3.854   2.107   2.532
 3186SOL    HW210458   3.714   2.189   2.509
 3187SOL     OW10459   4.507   3.882   0.576
 3187SOL    HW110460   4.507   3.795   0.527
 3187SOL    HW210461   4.456   3.950   0.523
 3188SOL     OW10462   3.972   6.586   5.178
 3188SOL    HW110463   3.947   6.682   5.173
 3188SOL    HW210464   4.000   6.563   5.272
 3189SOL     OW10465   1.828   1.160   1.429
 3189SOL    HW110466   1.865   1.245   1.467
 3189SOL    HW210467   1.894   1.086   1.443
 3190SOL     OW10468   0.182   6.096   1.517
 3190SOL    HW110469   0.191   6.113   1.615
 3190SOL    HW210470   0.172   6.183   1.469
 3191SOL     OW10471   4.424   6.364   0.722
 3191SOL    HW110472   4.464   6.454   0.737
 3191SOL    HW210473   4.444   6.304   0.800
 3192SOL     OW10474   0.080   2.383   1.137
 3192SOL    HW110475   0.043   2.469   1.102
 3192SOL    HW210476   0.047   2.307   1.080
 3193SOL     OW10477   4.009   1.598   5.924
 3193SOL    HW110478   3.926   1.620   5.974
 3193SOL    HW210479   3.988   1.591   5.827
 3194SOL     OW10480   0.858   3.577   5.880
 3194SOL    HW110481   0.783   3.629   5.922
 3194SOL    HW210482   0.837   3.480   5.885
 3195SOL     OW10483   2.338   2.310   3.190
 3195SOL    HW110484   2.388   2.390   3.222
 3195SOL    HW210485   2.281   2.335   3.112
 3196SOL     OW10486   0.052   0.634   5.232
 3196SOL    HW110487   6.977   0.639   5.254
 3196SOL    HW210488   0.063   0.622   5.133
 3197SOL     OW10489   1.649   6.265   3.311
 3197SOL    HW110490   1.730   6.256   3.252
 3197SOL    HW210491   1.568   6.234   3.261
 3198SOL     OW10492   6.397   2.031   5.659
 3198SOL    HW110493   6.493   2.007   5.674
 3198SOL    HW210494   6.345   2.013   5.742
 3199SOL     OW10495   4.738   2.716   2.076
 3199SOL    HW110496   4.669   2.683   2.012
 3199SOL    HW210497   4.736   2.816   2.078
 3200SOL     OW10498   0.026   2.503   2.003
 3200SOL    HW110499   6.998   2.589   1.997
 3200SOL    HW210500   6.985   2.428   2.020
 3201SOL     OW10501   5.432   4.740   4.651
 3201SOL    HW110502   5.443   4.642   4.631
 3201SOL    HW210503   5.346   4.754   4.700
 3202SOL     OW10504   1.545   4.771   2.121
 3202SOL    HW110505   1.508   4.683   2.152
 3202SOL    HW210506   1.548   4.772   2.021
 3203SOL     OW10507   6.025   2.491   0.084
 3203SOL    HW110508   6.093   2.489   0.011
 3203SOL    HW210509   5.936   2.519   0.045
 3204SOL     OW10510   5.011   6.409   1.689
 3204SOL    HW110511   5.025   6.443   1.596
 3204SOL    HW210512   5.079   6.450   1.750
 3205SOL     OW10513   0.607   3.807   6.505
 3205SOL    HW110514   0.659   3.788   6.589
 3205SOL    HW210515   0.663   3.784   6.425
 3206SOL     OW10516   0.207   6.582   5.898
 3206SOL    HW110517   0.122   6.619   5.935
 3206SOL    HW210518   0.193   6.553   5.803
 3207SOL     OW10519   0.351   1.331   5.854
 3207SOL    HW110520   0.301   1.330   5.767
 3207SOL    HW210521   0.287   1.319   5.930
 3208SOL     OW10522   4.956   6.295   5.506
 3208SOL    HW110523   4.949   6.373   5.444
 3208SOL    HW210524   4.883   6.299   5.573
 3209SOL     OW10525   3.412   5.263   3.407
 3209SOL    HW110526   3.324   5.291   3.367
 3209SOL    HW210527   3.451   5.188   3.354
 3210SOL     OW10528   0.932   4.020   2.264
 3210SOL    HW110529   0.941   4.108   2.217
 3210SOL    HW210530   0.853   4.024   2.327
 3211SOL     OW10531   2.572   3.205   0.983
 3211SOL    HW110532   2.554   3.138   1.055
 3211SOL    HW210533   2.485   3.239   0.948
 3212SOL     OW10534   3.527   1.227   0.480
 3212SOL    HW110535   3.472   1.306   0.454
 3212SOL    HW210536   3.551   1.174   0.398
 3213SOL     OW10537   6.182   6.019   2.627
 3213SOL    HW110538   6.166   6.042   2.723
 3213SOL    HW210539   6.181   6.102   2.572
 3214SOL     OW10540   5.305   5.272   0.350
 3214SOL    HW110541   5.390   5.240   0.308
 3214SOL    HW210542   5.271   5.204   0.414
 3215SOL     OW10543   0.581   3.029   1.118
 3215SOL    HW110544   0.560   2.985   1.205
 3215SOL    HW210545   0.676   3.012   1.094
 3216SOL     OW10546   5.474   5.372   1.812
 3216SOL    HW110547   5.447   5.278   1.831
 3216SOL    HW210548   5.484   5.422   1.898
 3217SOL     OW10549   0.390   5.673   2.716
 3217SOL    HW110550   0.484   5.695   2.743
 3217SOL    HW210551   0.334   5.756   2.722
 3218SOL     OW10552   3.996   6.284   3.392
 3218SOL    HW110553   4.081   6.237   3.366
 3218SOL    HW210554   4.011   6.383   3.391
 3219SOL     OW10555   7.005   1.891   3.346
 3219SOL    HW110556   0.057   1.826   3.336
 3219SOL    HW210557   6.964   1.883   3.437
 3220SOL     OW10558   6.455   5.977   5.955
 3220SOL    HW110559   6.435   6.028   5.871
 3220SOL    HW210560   6.502   6.037   6.020
 3221SOL     OW10561   3.363   0.541   1.993
 3221SOL    HW110562   3.386   0.573   2.084
 3221SOL    HW210563   3.289   0.474   1.998
 3222SOL     OW10564   4.398   1.717   3.549
 3222SOL    HW110565   4.427   1.628   3.514
 3222SOL    HW210566   4.425   1.726   3.644
 3223SOL     OW10567   1.895   5.121   6.703
 3223SOL    HW110568   1.834   5.173   6.762
 3223SOL    HW210569   1.976   5.093   6.754
 3224SOL     OW10570   4.002   4.928   6.454
 3224SOL    HW110571   3.955   4.992   6.392
 3224SOL    HW210572   4.072   4.977   6.505
 3225SOL     OW10573   4.471   2.766   5.397
 3225SOL    HW110574   4.567   2.778   5.372
 3225SOL    HW210575   4.422   2.852   5.382
 3226SOL     OW10576   0.957   1.748   4.816
 3226SOL    HW110577   1.051   1.716   4.829
 3226SOL    HW210578   0.904   1.727   4.898
 3227SOL     OW10579   2.924   2.430   6.410
 3227SOL    HW110580   2.913   2.505   6.476
 3227SOL    HW210581   2.970   2.353   6.455
 3228SOL     OW10582   5.681   3.508   3.439
 3228SOL    HW110583   5.744   3.539   3.368
 3228SOL    HW210584   5.732   3.459   3.510
 3229SOL     OW10585   3.460   1.798   5.258
 3229SOL    HW110586   3.429   1.718   5.309
 3229SOL    HW210587   3.547   1.777   5.213
 3230SOL     OW10588   0.917   2.956   3.859
 3230SOL    HW110589   0.965   2.968   3.772
 3230SOL    HW210590   0.960   2.883   3.911
 3231SOL     OW10591   3.021   6.880   2.231
 3231SOL    HW110592   2.969   6.839   2.306
 3231SOL    HW210593   3.001   6.977   2.226
 3232SOL     OW10594   4.184   4.772   3.975
 3232SOL    HW110595   4.207   4.683   3.934
 3232SOL    HW210596   4.229   4.780   4.064
 3233SOL     OW10597   1.996   2.914   1.370
 3233SOL    HW110598   1.997   3.013   1.384
 3233SOL    HW210599   1.903   2.885   1.349
 3234SOL     OW10600   0.024   2.086   0.413
 3234SOL    HW110601   0.015   2.184   0.400
 3234SOL    HW210602   7.009   2.038   0.333
 3235SOL     OW10603   4.522   6.636   1.309
 3235SOL    HW110604   4.583   6.685   1.372
 3235SOL    HW210605   4.573   6.565   1.261
 3236SOL     OW10606   1.644   3.317   0.947
 3236SOL    HW110607   1.567   3.263   0.913
 3236SOL    HW210608   1.646   3.406   0.901
 3237SOL     OW10609   5.471   1.607   4.103
 3237SOL    HW110610   5.434   1.519   4.134
 3237SOL    HW210611   5.485   1.604   4.004
 3238SOL     OW10612   0.176   4.568   0.241
 3238SOL    HW110613   0.202   4.663   0.256
 3238SOL    HW210614   0.105   4.563   0.171
 3239SOL     OW10615   5.536   1.801   0.541
 3239SOL    HW110616   5.437   1.801   0.524
 3239SOL    HW210617   5.573   1.709   0.525
 3240SOL     OW10618   0.624   6.140   4.900
 3240SOL    HW110619   0.546   6.169   4.845
 3240SOL    HW210620   0.706   6.189   4.869
 3241SOL     OW10621   5.000   1.349   4.561
 3241SOL    HW110622   5.064   1.345   4.638
 3241SOL    HW210623   5.044   1.395   4.484
 3242SOL     OW10624   3.131   4.724   1.432
 3242SOL    HW110625   3.095   4.631   1.428
 3242SOL    HW210626   3.198   4.737   1.359
 3243SOL     OW10627   6.365   4.932   7.014
 3243SOL    HW110628   6.399   4.864   6.949
 3243SOL    HW210629   6.283   4.897   0.036
 3244SOL     OW10630   5.044   5.859   0.315
 3244SOL    HW110631   5.106   5.928   0.354
 3244SOL    HW210632   5.029   5.786   0.382
 3245SOL     OW10633   5.064   2.413   5.632
 3245SOL    HW110634   5.041   2.415   5.535
 3245SOL    HW210635   5.089   2.319   5.658
 3246SOL     OW10636   6.397   0.980   3.074
 3246SOL    HW110637   6.348   0.896   3.097
 3246SOL    HW210638   6.422   1.029   3.158
 3247SOL     OW10639   6.543   5.245   3.842
 3247SOL    HW110640   6.503   5.327   3.802
 3247SOL    HW210641   6.589   5.192   3.770
 3248SOL     OW10642   5.921   3.480   1.831
 3248SOL    HW110643   5.899   3.577   1.820
 3248SOL    HW210644   6.009   3.471   1.878
 3249SOL     OW10645   3.711   4.017   5.427
 3249SOL    HW110646   3.748   3.969   5.348
 3249SOL    HW210647   3.624   3.975   5.454
 3250SOL     OW10648   5.776   0.885   2.490
 3250SOL    HW110649   5.717   0.858   2.414
 3250SOL    HW210650   5.785   0.809   2.554
 3251SOL     OW10651   3.909   1.286   2.721
 3251SOL    HW110652   3.814   1.266   2.698
 3251SOL    HW210653   3.911   1.359   2.790
 3252SOL     OW10654   2.841   1.436   2.184
 3252SOL    HW110655   2.858   1.529   2.218
 3252SOL    HW210656   2.743   1.416   2.187
 3253SOL     OW10657   5.192   3.552   2.774
 3253SOL    HW110658   5.107   3.508   2.801
 3253SOL    HW210659   5.248   3.486   2.723
 3254SOL     OW10660   3.967   5.259   5.502
 3254SOL    HW110661   3.946   5.271   5.406
 3254SOL    HW210662   4.061   5.226   5.512
 3255SOL     OW10663   4.467   6.313   1.622
 3255SOL    HW110664   4.408   6.241   1.586
 3255SOL    HW210665   4.435   6.402   1.589
 3256SOL     OW10666   5.563   0.194   6.719
 3256SOL    HW110667   5.558   0.121   6.650
 3256SOL    HW210668   5.478   0.195   6.772
 3257SOL     OW10669   1.476   1.715   1.457
 3257SOL    HW110670   1.531   1.661   1.520
 3257SOL    HW210671   1.403   1.658   1.420
 3258SOL     OW10672   3.899   5.168   2.272
 3258SOL    HW110673   3.873   5.251   2.223
 3258SOL    HW210674   3.994   5.176   2.304
 3259SOL     OW10675   4.720   6.122   4.168
 3259SOL    HW110676   4.793   6.119   4.237
 3259SOL    HW210677   4.631   6.118   4.213
 3260SOL     OW10678   1.935   1.784   1.808
 3260SOL    HW110679   1.838   1.763   1.813
 3260SOL    HW210680   1.948   1.883   1.796
 3261SOL     OW10681   4.499   6.069   0.346
 3261SOL    HW110682   4.470   6.138   0.280
 3261SOL    HW210683   4.470   6.097   0.438
 3262SOL     OW10684   3.140   2.126   2.646
 3262SOL    HW110685   3.146   2.078   2.558
 3262SOL    HW210686   3.076   2.078   2.706
 3263SOL     OW10687   4.714   0.326   3.884
 3263SOL    HW110688   4.784   0.307   3.816
 3263SOL    HW210689   4.653   0.247   3.892
 3264SOL     OW10690   1.194   4.839   0.878
 3264SOL    HW110691   1.188   4.892   0.963
 3264SOL    HW210692   1.202   4.742   0.899
 3265SOL     OW10693   4.407   1.751   6.062
 3265SOL    HW110694   4.347   1.732   5.984
 3265SOL    HW210695   4.503   1.741   6.032
 3266SOL     OW10696   1.140   2.480   0.685
 3266SOL    HW110697   1.137   2.465   0.586
 3266SOL    HW210698   1.173   2.573   0.703
 3267SOL     OW10699   3.723   2.027   0.490
 3267SOL    HW110700   3.660   2.001   0.563
 3267SOL    HW210701   3.744   1.947   0.434
 3268SOL     OW10702   1.212   3.849   6.363
 3268SOL    HW110703   1.145   3.866   6.436
 3268SOL    HW210704   1.198   3.757   6.326
 3269SOL     OW10705   4.434   5.145   1.869
 3269SOL    HW110706   4.435   5.220   1.935
 3269SOL    HW210707   4.406   5.180   1.779
 3270SOL     OW10708   1.632   4.656   4.935
 3270SOL    HW110709   1.660   4.646   4.840
 3270SOL    HW210710   1.623   4.754   4.957
 3271SOL     OW10711   5.399   3.196   3.035
 3271SOL    HW110712   5.486   3.196   2.986
 3271SOL    HW210713   5.328   3.158   2.976
 3272SOL     OW10714   3.181   4.226   0.423
 3272SOL    HW110715   3.110   4.218   0.353
 3272SOL    HW210716   3.195   4.138   0.467
 3273SOL     OW10717   0.982   6.669   2.173
 3273SOL    HW110718   0.983   6.652   2.271
 3273SOL    HW210719   1.033   6.596   2.126
 3274SOL     OW10720   4.049   2.119   0.333
 3274SOL    HW110721   3.976   2.147   0.394
 3274SOL    HW210722   4.083   2.029   0.359
 3275SOL     OW10723   1.309   0.889   6.695
 3275SOL    HW110724   1.400   0.876   6.657
 3275SOL    HW210725   1.276   0.802   6.733
 3276SOL     OW10726   3.124   5.315   6.971
 3276SOL    HW110727   3.187   5.253   7.018
 3276SOL    HW210728   3.122   5.403   7.018
 3277SOL     OW10729   5.410   6.870   6.915
 3277SOL    HW110730   5.487   6.933   6.915
 3277SOL    HW210731   5.351   6.887   6.836
 3278SOL     OW10732   6.610   1.281   5.709
 3278SOL    HW110733   6.623   1.344   5.786
 3278SOL    HW210734   6.577   1.193   5.743
 3279SOL     OW10735   0.388   1.018   1.009
 3279SOL    HW110736   0.325   1.056   0.941
 3279SOL    HW210737   0.364   1.054   1.100
 3280SOL     OW10738   3.095   5.216   5.763
 3280SOL    HW110739   3.146   5.130   5.772
 3280SOL    HW210740   3.043   5.214   5.677
 3281SOL     OW10741   1.818   5.612   0.902
 3281SOL    HW110742   1.744   5.645   0.843
 3281SOL    HW210743   1.816   5.661   0.989
 3282SOL     OW10744   2.209   5.062   4.422
 3282SOL    HW110745   2.258   4.980   4.450
 3282SOL    HW210746   2.171   5.048   4.330
 3283SOL     OW10747   2.873   1.160   1.781
 3283SOL    HW110748   2.932   1.233   1.817
 3283SOL    HW210749   2.835   1.189   1.693
 3284SOL     OW10750   6.320   6.474   6.679
 3284SOL    HW110751   6.222   6.452   6.675
 3284SOL    HW210752   6.343   6.538   6.606
 3285SOL     OW10753   6.181   2.574   3.515
 3285SOL    HW110754   6.111   2.583   3.586
 3285SOL    HW210755   6.208   2.665   3.484
 3286SOL     OW10756   4.052   3.281   3.678
 3286SOL    HW110757   4.061   3.215   3.753
 3286SOL    HW210758   3.994   3.243   3.606
 3287SOL     OW10759   1.484   5.949   0.544
 3287SOL    HW110760   1.577   5.973   0.573
 3287SOL    HW210761   1.430   5.922   0.624
 3288SOL     OW10762   0.971   4.826   6.766
 3288SOL    HW110763   0.877   4.797   6.783
 3288SOL    HW210764   0.995   4.809   6.671
 3289SOL     OW10765   1.900   0.123   5.885
 3289SOL    HW110766   1.954   0.057   5.832
 3289SOL    HW210767   1.859   0.190   5.824
 3290SOL     OW10768   0.398   6.874   1.900
 3290SOL    HW110769   0.386   6.949   1.835
 3290SOL    HW210770   0.309   6.843   1.932
 3291SOL     OW10771   1.243   6.054   6.702
 3291SOL    HW110772   1.339   6.054   6.676
 3291SOL    HW210773   1.201   5.967   6.677
 3292SOL     OW10774   0.220   1.305   6.762
 3292SOL    HW110775   0.307   1.260   6.740
 3292SOL    HW210776   0.157   1.238   6.802
 3293SOL     OW10777   6.348   3.271   2.828
 3293SOL    HW110778   6.353   3.357   2.778
 3293SOL    HW210779   6.431   3.217   2.809
 3294SOL     OW10780   0.373   0.702   6.033
 3294SOL    HW110781   0.373   0.691   5.933
 3294SOL    HW210782   0.316   0.630   6.073
 3295SOL     OW10783   1.422   2.425   1.672
 3295SOL    HW110784   1.356   2.488   1.714
 3295SOL    HW210785   1.373   2.364   1.610
 3296SOL     OW10786   2.187   6.042   1.335
 3296SOL    HW110787   2.106   6.100   1.335
 3296SOL    HW210788   2.258   6.082   1.277
 3297SOL     OW10789   2.765   0.394   5.071
 3297SOL    HW110790   2.711   0.405   5.154
 3297SOL    HW210791   2.850   0.447   5.079
 3298SOL     OW10792   5.992   2.608   3.755
 3298SOL    HW110793   5.954   2.688   3.709
 3298SOL    HW210794   6.011   2.630   3.851
 3299SOL     OW10795   2.175   6.518   3.476
 3299SOL    HW110796   2.101   6.486   3.418
 3299SOL    HW210797   2.150   6.606   3.518
 3300SOL     OW10798   6.998   0.781   5.608
 3300SOL    HW110799   0.004   0.865   5.655
 3300SOL    HW210800   6.900   0.765   5.623
 3301SOL     OW10801   2.162   3.831   3.614
 3301SOL    HW110802   2.104   3.768   3.563
 3301SOL    HW210803   2.145   3.820   3.712
 3302SOL     OW10804   1.445   6.243   4.266
 3302SOL    HW110805   1.482   6.289   4.347
 3302SOL    HW210806   1.471   6.294   4.184
 3303SOL     OW10807   3.644   3.401   1.436
 3303SOL    HW110808   3.673   3.312   1.400
 3303SOL    HW210809   3.575   3.440   1.375
 3304SOL     OW10810   1.609   5.153   3.600
 3304SOL    HW110811   1.689   5.197   3.558
 3304SOL    HW210812   1.583   5.203   3.683
 3305SOL     OW10813   2.613   2.055   2.994
 3305SOL    HW110814   2.643   2.013   3.079
 3305SOL    HW210815   2.677   2.127   2.967
 3306SOL     OW10816   2.397   5.157   3.623
 3306SOL    HW110817   2.372   5.087   3.689
 3306SOL    HW210818   2.337   5.150   3.543
 3307SOL     OW10819   0.654   5.390   6.817
 3307SOL    HW110820   0.634   5.358   6.724
 3307SOL    HW210821   0.572   5.431   6.856
 3308SOL     OW10822   4.726   5.951   6.965
 3308SOL    HW110823   4.665   6.030   6.957
 3308SOL    HW210824   4.804   5.974   0.001
 3309SOL     OW10825   1.046   5.426   2.305
 3309SOL    HW110826   1.021   5.508   2.255
 3309SOL    HW210827   1.037   5.346   2.246
 3310SOL     OW10828   6.998   4.456   4.642
 3310SOL    HW110829   6.937   4.416   4.573
 3310SOL    HW210830   0.044   4.389   4.669
 3311SOL     OW10831   2.844   4.787   1.564
 3311SOL    HW110832   2.907   4.779   1.641
 3311SOL    HW210833   2.894   4.815   1.482
 3312SOL     OW10834   3.473   4.440   6.058
 3312SOL    HW110835   3.553   4.386   6.080
 3312SOL    HW210836   3.397   4.414   6.118
 3313SOL     OW10837   0.026   5.397   2.591
 3313SOL    HW110838   6.984   5.404   2.515
 3313SOL    HW210839   0.114   5.438   2.564
 3314SOL     OW10840   1.675   2.295   5.003
 3314SOL    HW110841   1.688   2.388   4.970
 3314SOL    HW210842   1.685   2.293   5.102
 3315SOL     OW10843   6.369   2.901   4.348
 3315SOL    HW110844   6.394   2.931   4.440
 3315SOL    HW210845   6.420   2.954   4.280
 3316SOL     OW10846   3.389   1.501   5.862
 3316SOL    HW110847   3.457   1.574   5.863
 3316SOL    HW210848   3.299   1.540   5.845
 3317SOL     OW10849   4.950   2.955   1.848
 3317SOL    HW110850   4.873   2.974   1.909
 3317SOL    HW210851   4.959   3.030   1.782
 3318SOL     OW10852   3.039   0.305   0.039
 3318SOL    HW110853   3.043   0.401   0.068
 3318SOL    HW210854   3.121   0.257   0.071
 3319SOL     OW10855   5.803   6.895   3.901
 3319SOL    HW110856   5.800   6.904   4.001
 3319SOL    HW210857   5.726   6.944   3.860
 3320SOL     OW10858   5.230   1.063   5.823
 3320SOL    HW110859   5.192   1.063   5.731
 3320SOL    HW210860   5.273   0.975   5.842
 3321SOL     OW10861   3.395   2.380   1.728
 3321SOL    HW110862   3.380   2.479   1.732
 3321SOL    HW210863   3.481   2.357   1.772
 3322SOL     OW10864   5.225   3.016   1.834
 3322SOL    HW110865   5.131   3.048   1.826
 3322SOL    HW210866   5.226   2.916   1.842
 3323SOL     OW10867   1.775   3.846   0.047
 3323SOL    HW110868   1.706   3.908   0.084
 3323SOL    HW210869   1.819   3.889   6.989
 3324SOL     OW10870   0.994   3.853   6.527
 3324SOL    HW110871   0.974   3.864   6.430
 3324SOL    HW210872   0.925   3.794   6.569
 3325SOL     OW10873   2.432   3.484   6.482
 3325SOL    HW110874   2.341   3.482   6.441
 3325SOL    HW210875   2.461   3.390   6.502
 3326SOL     OW10876   5.149   1.700   1.899
 3326SOL    HW110877   5.081   1.637   1.936
 3326SOL    HW210878   5.111   1.792   1.895
 3327SOL     OW10879   2.829   5.983   1.255
 3327SOL    HW110880   2.890   6.059   1.231
 3327SOL    HW210881   2.798   5.993   1.349
 3328SOL     OW10882   4.255   1.772   2.907
 3328SOL    HW110883   4.214   1.818   2.828
 3328SOL    HW210884   4.208   1.800   2.990
 3329SOL     OW10885   4.725   0.076   5.494
 3329SOL    HW110886   4.690   0.025   5.573
 3329SOL    HW210887   4.794   0.142   5.525
 3330SOL     OW10888   5.348   6.467   2.158
 3330SOL    HW110889   5.371   6.374   2.131
 3330SOL    HW210890   5.380   6.483   2.252
 3331SOL     OW10891   1.505   2.753   2.453
 3331SOL    HW110892   1.493   2.659   2.485
 3331SOL    HW210893   1.599   2.783   2.473
 3332SOL     OW10894   6.838   4.319   6.828
 3332SOL    HW110895   6.903   4.247   6.852
 3332SOL    HW210896   6.786   4.345   6.908
 3333SOL     OW10897   2.674   3.669   6.866
 3333SOL    HW110898   2.630   3.640   6.782
 3333SOL    HW210899   2.702   3.589   6.919
 3334SOL     OW10900   2.204   2.973   2.089
 3334SOL    HW110901   2.265   2.919   2.032
 3334SOL    HW210902   2.159   3.043   2.033
 3335SOL     OW10903   5.149   6.187   6.563
 3335SOL    HW110904   5.087   6.257   6.529
 3335SOL    HW210905   5.191   6.139   6.486
 3336SOL     OW10906   2.496   6.847   3.984
 3336SOL    HW110907   2.443   6.860   4.068
 3336SOL    HW210908   2.592   6.831   4.008
 3337SOL     OW10909   2.789   3.924   1.120
 3337SOL    HW110910   2.696   3.902   1.151
 3337SOL    HW210911   2.850   3.930   1.198
 3338SOL     OW10912   0.237   2.403   1.689
 3338SOL    HW110913   0.249   2.404   1.788
 3338SOL    HW210914   0.319   2.440   1.645
 3339SOL     OW10915   1.672   6.988   6.673
 3339SOL    HW110916   1.660   6.899   6.717
 3339SOL    HW210917   1.636   6.983   6.580
 3340SOL     OW10918   4.094   1.215   4.465
 3340SOL    HW110919   3.999   1.206   4.437
 3340SOL    HW210920   4.122   1.133   4.514
 3341SOL     OW10921   1.993   4.464   3.864
 3341SOL    HW110922   2.082   4.437   3.828
 3341SOL    HW210923   1.958   4.542   3.812
 3342SOL     OW10924   0.786   0.743   2.833
 3342SOL    HW110925   0.764   0.648   2.855
 3342SOL    HW210926   0.709   0.785   2.785
 3343SOL     OW10927   5.489   4.995   6.672
 3343SOL    HW110928   5.411   5.033   6.721
 3343SOL    HW210929   5.456   4.932   6.601
 3344SOL     OW10930   6.131   3.118   4.050
 3344SOL    HW110931   6.169   3.206   4.021
 3344SOL    HW210932   6.181   3.044   4.005
 3345SOL     OW10933   0.817   4.239   6.145
 3345SOL    HW110934   0.749   4.309   6.124
 3345SOL    HW210935   0.804   4.161   6.084
 3346SOL     OW10936   1.571   0.832   6.675
 3346SOL    HW110937   1.612   0.836   6.767
 3346SOL    HW210938   1.643   0.834   6.606
 3347SOL     OW10939   1.378   2.673   6.326
 3347SOL    HW110940   1.370   2.609   6.250
 3347SOL    HW210941   1.438   2.634   6.396
 3348SOL     OW10942   4.049   3.630   4.863
 3348SOL    HW110943   4.104   3.628   4.779
 3348SOL    HW210944   4.002   3.543   4.875
 3349SOL     OW10945   2.157   4.859   3.030
 3349SOL    HW110946   2.192   4.861   2.936
 3349SOL    HW210947   2.234   4.860   3.094
 3350SOL     OW10948   0.401   2.638   6.223
 3350SOL    HW110949   0.490   2.594   6.211
 3350SOL    HW210950   0.329   2.572   6.204
 3351SOL     OW10951   4.734   1.184   2.048
 3351SOL    HW110952   4.743   1.253   1.976
 3351SOL    HW210953   4.799   1.204   2.121
 3352SOL     OW10954   5.836   2.529   1.385
 3352SOL    HW110955   5.756   2.550   1.441
 3352SOL    HW210956   5.852   2.430   1.386
 3353SOL     OW10957   2.330   6.059   0.898
 3353SOL    HW110958   2.282   5.971   0.907
 3353SOL    HW210959   2.405   6.063   0.964
 3354SOL     OW10960   4.304   2.546   5.384
 3354SOL    HW110961   4.209   2.562   5.357
 3354SOL    HW210962   4.355   2.631   5.375
 3355SOL     OW10963   2.187   1.336   6.063
 3355SOL    HW110964   2.093   1.366   6.048
 3355SOL    HW210965   2.195   1.239   6.039
 3356SOL     OW10966   1.471   5.713   6.087
 3356SOL    HW110967   1.536   5.750   6.154
 3356SOL    HW210968   1.380   5.710   6.129
 3357SOL     OW10969   3.564   3.347   2.003
 3357SOL    HW110970   3.602   3.269   2.052
 3357SOL    HW210971   3.578   3.430   2.057
 3358SOL     OW10972   5.118   1.535   3.518
 3358SOL    HW110973   5.032   1.489   3.498
 3358SOL    HW210974   5.115   1.629   3.484
 3359SOL     OW10975   6.714   5.767   3.187
 3359SOL    HW110976   6.638   5.702   3.193
 3359SOL    HW210977   6.681   5.855   3.155
 3360SOL     OW10978   0.965   2.228   6.341
 3360SOL    HW110979   1.059   2.250   6.368
 3360SOL    HW210980   0.966   2.154   6.274
 3361SOL     OW10981   0.805   6.315   4.784
 3361SOL    HW110982   0.889   6.348   4.828
 3361SOL    HW210983   0.808   6.338   4.687
 3362SOL     OW10984   3.914   1.766   2.638
 3362SOL    HW110985   3.829   1.812   2.615
 3362SOL    HW210986   3.901   1.708   2.719
 3363SOL     OW10987   6.992   2.472   1.610
 3363SOL    HW110988   6.963   2.411   1.537
 3363SOL    HW210989   0.066   2.456   1.631
 3364SOL     OW10990   2.468   4.523   3.004
 3364SOL    HW110991   2.491   4.427   2.989
 3364SOL    HW210992   2.453   4.539   3.102
 3365SOL     OW10993   0.418   3.349   4.623
 3365SOL    HW110994   0.494   3.285   4.607
 3365SOL    HW210995   0.333   3.309   4.589
 3366SOL     OW10996   6.140   5.081   3.763
 3366SOL    HW110997   6.072   5.011   3.782
 3366SOL    HW210998   6.206   5.048   3.696
 3367SOL     OW10999   3.257   3.467   2.874
 3367SOL    HW111000   3.320   3.442   2.801
 3367SOL    HW211001   3.266   3.565   2.894
 3368SOL     OW11002   0.906   5.576   6.468
 3368SOL    HW111003   0.846   5.537   6.398
 3368SOL    HW211004   0.880   5.672   6.483
 3369SOL     OW11005   4.524   1.722   1.441
 3369SOL    HW111006   4.621   1.725   1.417
 3369SOL    HW211007   4.472   1.680   1.368
 3370SOL     OW11008   5.889   6.382   1.666
 3370SOL    HW111009   5.922   6.349   1.755
 3370SOL    HW211010   5.791   6.366   1.659
 3371SOL     OW11011   2.244   3.464   1.654
 3371SOL    HW111012   2.287   3.465   1.744
 3371SOL    HW211013   2.165   3.525   1.655
 3372SOL     OW11014   0.428   1.961   6.607
 3372SOL    HW111015   0.488   2.037   6.581
 3372SOL    HW211016   0.401   1.911   6.524
 3373SOL     OW11017   0.219   2.548   3.952
 3373SOL    HW111018   0.215   2.532   4.050
 3373SOL    HW211019   0.183   2.639   3.932
 3374SOL     OW11020   1.084   0.441   3.647
 3374SOL    HW111021   1.054   0.530   3.614
 3374SOL    HW211022   1.106   0.383   3.568
 3375SOL     OW11023   0.100   4.367   0.837
 3375SOL    HW111024   0.123   4.293   0.901
 3375SOL    HW211025   0.019   4.415   0.870
 3376SOL     OW11026   3.350   2.931   4.395
 3376SOL    HW111027   3.273   2.920   4.458
 3376SOL    HW211028   3.428   2.970   4.445
 3377SOL     OW11029   6.554   5.171   5.525
 3377SOL    HW111030   6.474   5.218   5.563
 3377SOL    HW211031   6.558   5.189   5.426
 3378SOL     OW11032   1.119   6.258   6.545
 3378SOL    HW111033   1.135   6.355   6.562
 3378SOL    HW211034   1.157   6.204   6.621
 3379SOL     OW11035   0.682   2.347   4.594
 3379SOL    HW111036   0.687   2.300   4.506
 3379SOL    HW211037   0.730   2.435   4.587
 3380SOL     OW11038   4.393   5.852   5.571
 3380SOL    HW111039   4.347   5.940   5.584
 3380SOL    HW211040   4.454   5.835   5.648
 3381SOL     OW11041   6.869   2.717   1.531
 3381SOL    HW111042   6.923   2.769   1.465
 3381SOL    HW211043   6.914   2.629   1.548
 3382SOL     OW11044   0.486   2.837   6.860
 3382SOL    HW111045   0.480   2.937   6.850
 3382SOL    HW211046   0.571   2.814   6.907
 3383SOL     OW11047   3.254   4.958   0.852
 3383SOL    HW111048   3.260   5.035   0.915
 3383SOL    HW211049   3.209   4.987   0.767
 3384SOL     OW11050   2.333   3.782   0.676
 3384SOL    HW111051   2.357   3.873   0.642
 3384SOL    HW211052   2.258   3.745   0.622
 3385SOL     OW11053   6.280   3.255   4.677
 3385SOL    HW111054   6.301   3.301   4.764
 3385SOL    HW211055   6.296   3.319   4.601
 3386SOL     OW11056   5.959   4.517   7.011
 3386SOL    HW111057   6.054   4.530   6.983
 3386SOL    HW211058   5.948   4.426   0.029
 3387SOL     OW11059   4.986   0.299   3.097
 3387SOL    HW111060   4.922   0.234   3.138
 3387SOL    HW211061   4.956   0.322   3.005
 3388SOL     OW11062   5.269   3.947   2.656
 3388SOL    HW111063   5.363   3.979   2.649
 3388SOL    HW211064   5.238   3.956   2.751
 3389SOL     OW11065   6.574   5.948   6.266
 3389SOL    HW111066   6.502   5.971   6.332
 3389SOL    HW211067   6.637   6.025   6.256
 3390SOL     OW11068   4.531   6.412   6.393
 3390SOL    HW111069   4.482   6.424   6.479
 3390SOL    HW211070   4.475   6.447   6.318
 3391SOL     OW11071   5.010   2.329   3.161
 3391SOL    HW111072   4.932   2.269   3.177
 3391SOL    HW211073   5.055   2.348   3.248
 3392SOL     OW11074   3.213   0.112   4.466
 3392SOL    HW111075   3.169   0.118   4.556
 3392SOL    HW211076   3.208   0.017   4.434
 3393SOL     OW11077   5.998   6.080   0.866
 3393SOL    HW111078   6.021   6.065   0.962
 3393SOL    HW211079   5.996   6.178   0.847
 3394SOL     OW11080   4.400   3.938   0.843
 3394SOL    HW111081   4.426   4.033   0.860
 3394SOL    HW211082   4.446   3.905   0.760
 3395SOL     OW11083   5.117   1.934   3.043
 3395SOL    HW111084   5.050   1.972   3.106
 3395SOL    HW211085   5.106   1.975   2.952
 3396SOL     OW11086   5.473   1.403   3.896
 3396SOL    HW111087   5.469   1.485   3.839
 3396SOL    HW211088   5.557   1.352   3.876
 3397SOL     OW11089   3.555   5.231   6.193
 3397SOL    HW111090   3.582   5.162   6.127
 3397SOL    HW211091   3.636   5.279   6.227
 3398SOL     OW11092   0.969   7.002   5.031
 3398SOL    HW111093   0.936   0.057   5.086
 3398SOL    HW211094   1.063   7.018   5.003
 3399SOL     OW11095   5.778   5.418   3.164
 3399SOL    HW111096   5.781   5.464   3.253
 3399SOL    HW211097   5.704   5.351   3.164
 3400SOL     OW11098   5.880   3.661   0.040
 3400SOL    HW111099   5.869   3.706   6.974
 3400SOL    HW211100   5.939   3.716   0.098
 3401SOL     OW11101   6.218   3.885   6.937
 3401SOL    HW111102   6.241   3.977   6.971
 3401SOL    HW211103   6.137   3.891   6.879
 3402SOL     OW11104   5.858   5.292   7.003
 3402SOL    HW111105   5.863   5.213   0.042
 3402SOL    HW211106   5.872   5.375   0.034
 3403SOL     OW11107   4.807   5.142   6.402
 3403SOL    HW111108   4.773   5.183   6.317
 3403SOL    HW211109   4.894   5.097   6.384
 3404SOL     OW11110   4.916   2.724   6.634
 3404SOL    HW111111   4.935   2.644   6.577
 3404SOL    HW211112   4.819   2.750   6.624
 3405SOL     OW11113   5.896   4.527   6.467
 3405SOL    HW111114   5.930   4.454   6.408
 3405SOL    HW211115   5.971   4.563   6.523
 3406SOL     OW11116   1.541   3.556   2.126
 3406SOL    HW111117   1.545   3.649   2.090
 3406SOL    HW211118   1.633   3.525   2.149
 3407SOL     OW11119   2.316   4.616   0.522
 3407SOL    HW111120   2.270   4.557   0.456
 3407SOL    HW211121   2.393   4.662   0.478
 3408SOL     OW11122   4.915   3.023   4.859
 3408SOL    HW111123   4.837   3.003   4.799
 3408SOL    HW211124   4.881   3.053   4.948
 3409SOL     OW11125   3.826   6.193   0.617
 3409SOL    HW111126   3.825   6.237   0.707
 3409SOL    HW211127   3.919   6.197   0.579
 3410SOL     OW11128   5.848   6.553   1.962
 3410SOL    HW111129   5.776   6.613   1.997
 3410SOL    HW211130   5.914   6.607   1.910
 3411SOL     OW11131   0.782   2.865   0.785
 3411SOL    HW111132   0.684   2.880   0.796
 3411SOL    HW211133   0.814   2.915   0.704
 3412SOL     OW11134   5.057   3.684   1.248
 3412SOL    HW111135   5.004   3.647   1.323
 3412SOL    HW211136   5.148   3.711   1.281
 3413SOL     OW11137   6.378   2.006   6.963
 3413SOL    HW111138   6.320   2.086   6.955
 3413SOL    HW211139   6.472   2.030   6.942
 3414SOL     OW11140   3.142   2.202   5.657
 3414SOL    HW111141   3.209   2.129   5.670
 3414SOL    HW211142   3.142   2.230   5.561
 3415SOL     OW11143   2.630   2.446   4.007
 3415SOL    HW111144   2.571   2.525   3.996
 3415SOL    HW211145   2.592   2.385   4.077
 3416SOL     OW11146   5.923   6.939   6.907
 3416SOL    HW111147   5.969   6.938   6.996
 3416SOL    HW211148   5.826   6.922   6.919
 3417SOL     OW11149   6.981   6.742   3.480
 3417SOL    HW111150   6.949   6.830   3.446
 3417SOL    HW211151   7.000   6.681   3.403
 3418SOL     OW11152   3.837   5.957   3.655
 3418SOL    HW111153   3.896   5.988   3.729
 3418SOL    HW211154   3.744   5.989   3.670
 3419SOL     OW11155   3.625   5.613   6.092
 3419SOL    HW111156   3.724   5.597   6.102
 3419SOL    HW211157   3.610   5.700   6.046
 3420SOL     OW11158   5.183   3.373   4.474
 3420SOL    HW111159   5.162   3.328   4.561
 3420SOL    HW211160   5.098   3.391   4.425
 3421SOL     OW11161   5.650   1.715   3.573
 3421SOL    HW111162   5.596   1.761   3.503
 3421SOL    HW211163   5.732   1.676   3.531
 3422SOL     OW11164   2.430   0.762   0.440
 3422SOL    HW111165   2.517   0.808   0.461
 3422SOL    HW211166   2.438   0.664   0.458
 3423SOL     OW11167   0.207   4.360   6.179
 3423SOL    HW111168   0.206   4.345   6.081
 3423SOL    HW211169   0.233   4.455   6.198
 3424SOL     OW11170   2.713   0.581   1.138
 3424SOL    HW111171   2.688   0.670   1.177
 3424SOL    HW211172   2.767   0.530   1.204
 3425SOL     OW11173   4.971   4.427   1.905
 3425SOL    HW111174   4.991   4.462   1.996
 3425SOL    HW211175   4.911   4.347   1.911
 3426SOL     OW11176   5.033   2.618   0.930
 3426SOL    HW111177   4.993   2.710   0.930
 3426SOL    HW211178   5.043   2.587   0.835
 3427SOL     OW11179   0.871   2.261   2.178
 3427SOL    HW111180   0.793   2.209   2.213
 3427SOL    HW211181   0.856   2.284   2.082
 3428SOL     OW11182   4.243   4.428   6.927
 3428SOL    HW111183   4.213   4.435   6.832
 3428SOL    HW211184   4.332   4.383   6.930
 3429SOL     OW11185   0.620   1.182   1.071
 3429SOL    HW111186   0.681   1.217   1.000
 3429SOL    HW211187   0.554   1.119   1.030
 3430SOL     OW11188   2.377   5.283   5.660
 3430SOL    HW111189   2.342   5.376   5.673
 3430SOL    HW211190   2.463   5.286   5.609
 3431SOL     OW11191   1.405   6.086   1.767
 3431SOL    HW111192   1.379   6.105   1.672
 3431SOL    HW211193   1.503   6.101   1.779
 3432SOL     OW11194   2.634   4.656   6.780
 3432SOL    HW111195   2.631   4.704   6.692
 3432SOL    HW211196   2.673   4.565   6.768
 3433SOL     OW11197   1.668   1.583   5.827
 3433SOL    HW111198   1.592   1.618   5.772
 3433SOL    HW211199   1.633   1.512   5.889
 3434SOL     OW11200   3.878   1.906   1.364
 3434SOL    HW111201   3.793   1.919   1.313
 3434SOL    HW211202   3.858   1.863   1.452
 3435SOL     OW11203   2.403   1.160   0.568
 3435SOL    HW111204   2.458   1.171   0.485
 3435SOL    HW211205   2.307   1.146   0.543
 3436SOL     OW11206   3.376   5.698   0.583
 3436SOL    HW111207   3.346   5.790   0.559
 3436SOL    HW211208   3.472   5.701   0.613
 3437SOL     OW11209   2.400   6.544   5.914
 3437SOL    HW111210   2.379   6.518   5.820
 3437SOL    HW211211   2.346   6.489   5.977
 3438SOL     OW11212   0.638   3.864   1.723
 3438SOL    HW111213   0.644   3.764   1.724
 3438SOL    HW211214   0.720   3.901   1.679
 3439SOL     OW11215   3.253   6.053   4.144
 3439SOL    HW111216   3.220   6.081   4.234
 3439SOL    HW211217   3.266   5.954   4.143
 3440SOL     OW11218   4.094   3.250   2.778
 3440SOL    HW111219   4.114   3.205   2.865
 3440SOL    HW211220   4.057   3.341   2.795
 3441SOL     OW11221   0.375   5.835   6.661
 3441SOL    HW111222   0.341   5.814   6.753
 3441SOL    HW211223   0.439   5.764   6.632
 3442SOL     OW11224   2.763   3.532   1.324
 3442SOL    HW111225   2.786   3.482   1.407
 3442SOL    HW211226   2.760   3.469   1.246
 3443SOL     OW11227   3.572   6.324   1.996
 3443SOL    HW111228   3.636   6.370   2.057
 3443SOL    HW211229   3.501   6.278   2.049
 3444SOL     OW11230   5.047   5.625   1.092
 3444SOL    HW111231   5.006   5.570   1.165
 3444SOL    HW211232   5.009   5.598   1.004
 3445SOL     OW11233   6.663   5.374   3.548
 3445SOL    HW111234   6.670   5.467   3.514
 3445SOL    HW211235   6.582   5.365   3.606
 3446SOL     OW11236   5.833   0.554   1.582
 3446SOL    HW111237   5.879   0.558   1.671
 3446SOL    HW211238   5.734   0.550   1.596
 3447SOL     OW11239   4.921   0.230   0.328
 3447SOL    HW111240   4.979   0.287   0.385
 3447SOL    HW211241   4.912   0.139   0.369
 3448SOL     OW11242   3.320   6.379   6.271
 3448SOL    HW111243   3.374   6.407   6.191
 3448SOL    HW211244   3.316   6.454   6.337
 3449SOL     OW11245   6.058   5.160   4.698
 3449SOL    HW111246   6.015   5.161   4.788
 3449SOL    HW211247   6.047   5.070   4.656
 3450SOL     OW11248   1.356   1.092   6.483
 3450SOL    HW111249   1.345   1.016   6.547
 3450SOL    HW211250   1.322   1.065   6.393
 3451SOL     OW11251   1.723   5.982   0.028
 3451SOL    HW111252   1.660   5.995   0.105
 3451SOL    HW211253   1.680   6.016   6.967
 3452SOL     OW11254   5.908   0.343   6.216
 3452SOL    HW111255   5.947   0.318   6.305
 3452SOL    HW211256   5.825   0.291   6.200
 3453SOL     OW11257   5.952   5.656   6.310
 3453SOL    HW111258   5.890   5.723   6.351
 3453SOL    HW211259   5.997   5.604   6.383
 3454SOL     OW11260   1.356   4.094   4.993
 3454SOL    HW111261   1.340   4.000   5.020
 3454SOL    HW211262   1.269   4.138   4.971
 3455SOL     OW11263   2.770   1.355   4.583
 3455SOL    HW111264   2.811   1.398   4.663
 3455SOL    HW211265   2.776   1.256   4.591
 3456SOL     OW11266   4.666   5.112   2.079
 3456SOL    HW111267   4.603   5.105   2.002
 3456SOL    HW211268   4.672   5.024   2.127
 3457SOL     OW11269   4.088   5.512   4.742
 3457SOL    HW111270   4.111   5.581   4.811
 3457SOL    HW211271   4.006   5.462   4.769
 3458SOL     OW11272   4.707   1.813   2.260
 3458SOL    HW111273   4.634   1.817   2.192
 3458SOL    HW211274   4.685   1.875   2.336
 3459SOL     OW11275   4.883   2.005   3.212
 3459SOL    HW111276   4.825   2.074   3.255
 3459SOL    HW211277   4.838   1.916   3.217
 3460SOL     OW11278   3.029   2.144   5.900
 3460SOL    HW111279   3.035   2.209   5.976
 3460SOL    HW211280   3.088   2.175   5.825
 3461SOL     OW11281   5.500   4.109   6.886
 3461SOL    HW111282   5.465   4.200   6.868
 3461SOL    HW211283   5.532   4.103   6.981
 3462SOL     OW11284   0.705   4.079   5.079
 3462SOL    HW111285   0.680   4.174   5.097
 3462SOL    HW211286   0.628   4.031   5.037
 3463SOL     OW11287   0.711   4.195   0.816
 3463SOL    HW111288   0.613   4.206   0.805
 3463SOL    HW211289   0.738   4.104   0.785
 3464SOL     OW11290   0.535   4.493   6.258
 3464SOL    HW111291   0.466   4.564   6.242
 3464SOL    HW211292   0.559   4.450   6.171
 3465SOL     OW11293   2.498   2.422   2.083
 3465SOL    HW111294   2.544   2.384   2.163
 3465SOL    HW211295   2.566   2.440   2.011
 3466SOL     OW11296   0.103   5.591   6.342
 3466SOL    HW111297   0.080   5.620   6.249
 3466SOL    HW211298   0.200   5.610   6.358
 3467SOL     OW11299   1.384   2.144   6.760
 3467SOL    HW111300   1.436   2.196   6.691
 3467SOL    HW211301   1.443   2.125   6.838
 3468SOL     OW11302   3.741   5.560   2.675
 3468SOL    HW111303   3.774   5.655   2.677
 3468SOL    HW211304   3.649   5.558   2.636
 3469SOL     OW11305   6.063   1.403   3.899
 3469SOL    HW111306   6.073   1.410   3.999
 3469SOL    HW211307   6.074   1.308   3.872
 3470SOL     OW11308   0.057   4.573   1.181
 3470SOL    HW111309   0.020   4.634   1.250
 3470SOL    HW211310   0.151   4.548   1.205
 3471SOL     OW11311   4.100   5.181   4.828
 3471SOL    HW111312   4.082   5.278   4.810
 3471SOL    HW211313   4.021   5.141   4.874
 3472SOL     OW11314   2.543   0.736   3.776
 3472SOL    HW111315   2.488   0.765   3.697
 3472SOL    HW211316   2.598   0.813   3.808
 3473SOL     OW11317   5.677   1.438   5.802
 3473SOL    HW111318   5.712   1.531   5.806
 3473SOL    HW211319   5.748   1.376   5.767
 3474SOL     OW11320   3.009   5.103   1.700
 3474SOL    HW111321   3.019   5.081   1.797
 3474SOL    HW211322   2.915   5.133   1.682
 3475SOL     OW11323   1.208   6.840   4.419
 3475SOL    HW111324   1.254   6.753   4.437
 3475SOL    HW211325   1.276   6.911   4.400
 3476SOL     OW11326   3.655   1.083   4.020
 3476SOL    HW111327   3.742   1.046   3.988
 3476SOL    HW211328   3.580   1.026   3.986
 3477SOL     OW11329   3.063   5.606   1.999
 3477SOL    HW111330   2.972   5.588   1.961
 3477SOL    HW211331   3.060   5.596   2.098
 3478SOL     OW11332   3.039   6.093   5.486
 3478SOL    HW111333   3.060   6.002   5.450
 3478SOL    HW211334   2.942   6.097   5.510
 3479SOL     OW11335   0.281   0.695   3.243
 3479SOL    HW111336   0.268   0.615   3.184
 3479SOL    HW211337   0.290   0.777   3.186
 3480SOL     OW11338   6.747   0.886   4.369
 3480SOL    HW111339   6.707   0.829   4.440
 3480SOL    HW211340   6.681   0.900   4.295
 3481SOL     OW11341   4.599   6.951   6.546
 3481SOL    HW111342   4.564   0.022   6.537
 3481SOL    HW211343   4.600   6.925   6.642
 3482SOL     OW11344   5.267   1.283   1.077
 3482SOL    HW111345   5.215   1.317   1.156
 3482SOL    HW211346   5.305   1.193   1.098
 3483SOL     OW11347   3.134   0.444   0.976
 3483SOL    HW111348   3.074   0.514   1.015
 3483SOL    HW211349   3.105   0.424   0.882
 3484SOL     OW11350   2.833   3.125   1.833
 3484SOL    HW111351   2.764   3.081   1.777
 3484SOL    HW211352   2.798   3.138   1.926
 3485SOL     OW11353   1.428   0.893   4.703
 3485SOL    HW111354   1.356   0.952   4.667
 3485SOL    HW211355   1.489   0.946   4.761
 3486SOL     OW11356   3.191   1.815   2.496
 3486SOL    HW111357   3.286   1.827   2.523
 3486SOL    HW211358   3.185   1.806   2.397
 3487SOL     OW11359   6.071   2.005   6.040
 3487SOL    HW111360   6.101   2.071   6.108
 3487SOL    HW211361   6.032   2.053   5.961
 3488SOL     OW11362   5.915   3.229   4.217
 3488SOL    HW111363   5.995   3.177   4.185
 3488SOL    HW211364   5.840   3.166   4.238
 3489SOL     OW11365   2.963   0.101   0.320
 3489SOL    HW111366   2.951   0.002   0.319
 3489SOL    HW211367   2.934   0.139   0.233
 3490SOL     OW11368   4.578   4.437   0.016
 3490SOL    HW111369   4.614   4.346   0.034
 3490SOL    HW211370   4.594   4.496   0.095
 3491SOL     OW11371   6.694   2.960   5.470
 3491SOL    HW111372   6.645   2.915   5.545
 3491SOL    HW211373   6.753   2.893   5.424
 3492SOL     OW11374   0.457   5.890   0.798
 3492SOL    HW111375   0.525   5.938   0.742
 3492SOL    HW211376   0.476   5.792   0.798
 3493SOL     OW11377   6.478   5.193   6.661
 3493SOL    HW111378   6.549   5.201   6.591
 3493SOL    HW211379   6.514   5.143   6.740
 3494SOL     OW11380   4.165   0.091   0.709
 3494SOL    HW111381   4.250   0.040   0.690
 3494SOL    HW211382   4.181   0.155   0.784
 3495SOL     OW11383   4.642   5.037   2.440
 3495SOL    HW111384   4.690   5.071   2.521
 3495SOL    HW211385   4.655   4.938   2.433
 3496SOL     OW11386   1.245   3.214   1.391
 3496SOL    HW111387   1.323   3.277   1.388
 3496SOL    HW211388   1.278   3.120   1.388
 3497SOL     OW11389   3.861   0.421   2.708
 3497SOL    HW111390   3.813   0.430   2.795
 3497SOL    HW211391   3.921   0.341   2.711
 3498SOL     OW11392   2.896   2.291   1.133
 3498SOL    HW111393   2.967   2.303   1.202
 3498SOL    HW211394   2.853   2.379   1.114
 3499SOL     OW11395   5.292   2.951   4.509
 3499SOL    HW111396   5.368   2.962   4.573
 3499SOL    HW211397   5.287   2.856   4.478
 3500SOL     OW11398   6.916   4.167   5.849
 3500SOL    HW111399   6.972   4.100   5.800
 3500SOL    HW211400   6.867   4.224   5.782
 3501SOL     OW11401   0.423   5.582   4.682
 3501SOL    HW111402   0.422   5.639   4.600
 3501SOL    HW211403   0.397   5.488   4.658
 3502SOL     OW11404   6.791   2.279   2.153
 3502SOL    HW111405   6.709   2.245   2.198
 3502SOL    HW211406   6.792   2.248   2.058
 3503SOL     OW11407   5.511   5.529   5.382
 3503SOL    HW111408   5.495   5.477   5.298
 3503SOL    HW211409   5.428   5.532   5.437
 3504SOL     OW11410   2.613   2.883   1.165
 3504SOL    HW111411   2.592   2.906   1.259
 3504SOL    HW211412   2.708   2.906   1.144
 3505SOL     OW11413   5.987   5.209   5.440
 3505SOL    HW111414   5.902   5.156   5.438
 3505SOL    HW211415   5.966   5.306   5.452
 3506SOL     OW11416   3.718   5.840   4.397
 3506SOL    HW111417   3.811   5.872   4.415
 3506SOL    HW211418   3.656   5.875   4.466
 3507SOL     OW11419   1.790   0.909   6.528
 3507SOL    HW111420   1.889   0.918   6.539
 3507SOL    HW211421   1.748   1.000   6.536
 3508SOL     OW11422   4.515   2.603   6.376
 3508SOL    HW111423   4.528   2.637   6.283
 3508SOL    HW211424   4.458   2.521   6.374
 3509SOL     OW11425   5.507   5.388   6.584
 3509SOL    HW111426   5.563   5.468   6.563
 3509SOL    HW211427   5.516   5.364   6.681
 3510SOL     OW11428   1.865   2.340   1.452
 3510SOL    HW111429   1.926   2.413   1.421
 3510SOL    HW211430   1.800   2.377   1.518
 3511SOL     OW11431   1.207   3.784   6.940
 3511SOL    HW111432   1.125   3.842   6.936
 3511SOL    HW211433   1.252   3.783   6.851
 3512SOL     OW11434   0.796   4.386   0.997
 3512SOL    HW111435   0.770   4.478   0.969
 3512SOL    HW211436   0.762   4.320   0.929
 3513SOL     OW11437   5.913   3.910   0.662
 3513SOL    HW111438   5.983   3.840   0.653
 3513SOL    HW211439   5.860   3.894   0.745
 3514SOL     OW11440   0.943   0.776   1.962
 3514SOL    HW111441   1.006   0.822   2.025
 3514SOL    HW211442   0.889   0.845   1.913
 3515SOL     OW11443   3.911   6.064   2.339
 3515SOL    HW111444   3.825   6.062   2.390
 3515SOL    HW211445   3.987   6.049   2.403
 3516SOL     OW11446   3.686   1.044   1.710
 3516SOL    HW111447   3.659   1.114   1.776
 3516SOL    HW211448   3.786   1.039   1.706
 3517SOL     OW11449   0.419   1.691   7.008
 3517SOL    HW111450   0.341   1.753   7.008
 3517SOL    HW211451   0.497   1.734   0.031
 3518SOL     OW11452   4.646   4.135   5.443
 3518SOL    HW111453   4.721   4.195   5.473
 3518SOL    HW211454   4.677   4.040   5.445
 3519SOL     OW11455   1.359   0.563   6.574
 3519SOL    HW111456   1.400   0.472   6.579
 3519SOL    HW211457   1.399   0.621   6.644
 3520SOL     OW11458   3.906   4.402   1.435
 3520SOL    HW111459   3.823   4.420   1.489
 3520SOL    HW211460   3.883   4.344   1.357
 3521SOL     OW11461   5.936   3.087   1.587
 3521SOL    HW111462   5.959   3.136   1.503
 3521SOL    HW211463   5.840   3.104   1.610
 3522SOL     OW11464   3.130   5.181   2.244
 3522SOL    HW111465   3.118   5.101   2.184
 3522SOL    HW211466   3.228   5.195   2.261
 3523SOL     OW11467   3.134   4.636   5.602
 3523SOL    HW111468   3.132   4.582   5.518
 3523SOL    HW211469   3.051   4.691   5.609
 3524SOL     OW11470   2.558   0.500   1.386
 3524SOL    HW111471   2.551   0.593   1.350
 3524SOL    HW211472   2.644   0.459   1.356
 3525SOL     OW11473   0.881   3.592   1.913
 3525SOL    HW111474   0.861   3.496   1.890
 3525SOL    HW211475   0.914   3.640   1.832
 3526SOL     OW11476   1.105   0.664   3.998
 3526SOL    HW111477   1.086   0.574   4.038
 3526SOL    HW211478   1.052   0.734   4.046
 3527SOL     OW11479   5.170   2.708   5.395
 3527SOL    HW111480   5.244   2.682   5.457
 3527SOL    HW211481   5.107   2.770   5.442
 3528SOL     OW11482   1.031   6.404   3.470
 3528SOL    HW111483   0.941   6.378   3.434
 3528SOL    HW211484   1.059   6.491   3.428
 3529SOL     OW11485   3.687   0.149   5.699
 3529SOL    HW111486   3.661   0.245   5.694
 3529SOL    HW211487   3.608   0.092   5.681
 3530SOL     OW11488   1.969   5.116   2.491
 3530SOL    HW111489   2.000   5.204   2.455
 3530SOL    HW211490   2.005   5.104   2.584
 3531SOL     OW11491   5.197   3.878   0.638
 3531SOL    HW111492   5.127   3.817   0.602
 3531SOL    HW211493   5.225   3.847   0.729
 3532SOL     OW11494   3.349   0.780   0.458
 3532SOL    HW111495   3.332   0.746   0.366
 3532SOL    HW211496   3.377   0.876   0.454
 3533SOL     OW11497   1.438   1.941   3.564
 3533SOL    HW111498   1.412   1.904   3.653
 3533SOL    HW211499   1.520   1.895   3.531
 3534SOL     OW11500   5.721   1.572   5.333
 3534SOL    HW111501   5.716   1.473   5.351
 3534SOL    HW211502   5.674   1.592   5.247
 3535SOL     OW11503   0.106   5.620   0.725
 3535SOL    HW111504   0.112   5.638   0.823
 3535SOL    HW211505   0.040   5.547   0.708
 3536SOL     OW11506   2.008   3.470   3.692
 3536SOL    HW111507   2.066   3.423   3.758
 3536SOL    HW211508   1.991   3.411   3.614
 3537SOL     OW11509   1.979   4.469   0.852
 3537SOL    HW111510   1.935   4.557   0.871
 3537SOL    HW211511   1.909   4.397   0.846
 3538SOL     OW11512   3.060   1.295   3.883
 3538SOL    HW111513   3.031   1.207   3.846
 3538SOL    HW211514   3.112   1.280   3.967
 3539SOL     OW11515   6.271   3.421   5.784
 3539SOL    HW111516   6.355   3.467   5.813
 3539SOL    HW211517   6.200   3.489   5.766
 3540SOL     OW11518   2.142   2.487   6.222
 3540SOL    HW111519   2.099   2.396   6.221
 3540SOL    HW211520   2.230   2.482   6.269
 3541SOL     OW11521   2.559   3.316   0.245
 3541SOL    HW111522   2.530   3.344   0.337
 3541SOL    HW211523   2.503   3.364   0.177
 3542SOL     OW11524   5.517   2.363   0.238
 3542SOL    HW111525   5.508   2.443   0.179
 3542SOL    HW211526   5.609   2.325   0.230
 3543SOL     OW11527   1.576   3.551   2.983
 3543SOL    HW111528   1.668   3.538   3.020
 3543SOL    HW211529   1.518   3.591   3.054
 3544SOL     OW11530   2.308   4.567   6.712
 3544SOL    HW111531   2.395   4.528   6.683
 3544SOL    HW211532   2.317   4.608   6.802
 3545SOL     OW11533   3.823   4.926   0.707
 3545SOL    HW111534   3.897   4.878   0.753
 3545SOL    HW211535   3.735   4.883   0.730
 3546SOL     OW11536   6.093   4.759   3.416
 3546SOL    HW111537   5.994   4.772   3.422
 3546SOL    HW211538   6.137   4.844   3.389
 3547SOL     OW11539   6.323   3.932   4.918
 3547SOL    HW111540   6.332   3.927   5.018
 3547SOL    HW211541   6.324   3.839   4.880
 3548SOL     OW11542   5.724   0.558   5.504
 3548SOL    HW111543   5.749   0.536   5.409
 3548SOL    HW211544   5.803   0.542   5.563
 3549SOL     OW11545   1.705   5.168   6.268
 3549SOL    HW111546   1.666   5.082   6.301
 3549SOL    HW211547   1.749   5.153   6.179
 3550SOL     OW11548   5.591   2.510   5.225
 3550SOL    HW111549   5.588   2.561   5.138
 3550SOL    HW211550   5.499   2.479   5.248
 3551SOL     OW11551   3.436   2.067   5.266
 3551SOL    HW111552   3.470   1.974   5.253
 3551SOL    HW211553   3.373   2.090   5.191
 3552SOL     OW11554   5.991   5.295   2.061
 3552SOL    HW111555   6.010   5.336   2.151
 3552SOL    HW211556   5.942   5.361   2.004
 3553SOL     OW11557   3.410   5.754   6.312
 3553SOL    HW111558   3.348   5.758   6.390
 3553SOL    HW211559   3.480   5.685   6.328
 3554SOL     OW11560   4.133   3.642   0.514
 3554SOL    HW111561   4.056   3.583   0.490
 3554SOL    HW211562   4.145   3.712   0.444
 3555SOL     OW11563   1.759   2.230   4.587
 3555SOL    HW111564   1.715   2.194   4.669
 3555SOL    HW211565   1.689   2.249   4.517
 3556SOL     OW11566   3.807   1.250   4.397
 3556SOL    HW111567   3.850   1.340   4.405
 3556SOL    HW211568   3.716   1.260   4.358
 3557SOL     OW11569   0.953   0.755   3.096
 3557SOL    HW111570   0.949   0.854   3.079
 3557SOL    HW211571   0.861   0.716   3.089
 3558SOL     OW11572   2.726   4.787   0.928
 3558SOL    HW111573   2.708   4.779   0.830
 3558SOL    HW211574   2.641   4.810   0.975
 3559SOL     OW11575   2.135   6.668   4.636
 3559SOL    HW111576   2.070   6.697   4.566
 3559SOL    HW211577   2.190   6.746   4.665
 3560SOL     OW11578   2.249   4.592   3.545
 3560SOL    HW111579   2.173   4.623   3.603
 3560SOL    HW211580   2.245   4.493   3.535
 3561SOL     OW11581   5.075   4.808   5.966
 3561SOL    HW111582   5.000   4.854   6.014
 3561SOL    HW211583   5.124   4.875   5.910
 3562SOL     OW11584   3.550   1.951   4.544
 3562SOL    HW111585   3.506   2.025   4.595
 3562SOL    HW211586   3.492   1.869   4.548
 3563SOL     OW11587   6.068   2.235   6.184
 3563SOL    HW111588   6.052   2.304   6.113
 3563SOL    HW211589   6.024   2.263   6.269
 3564SOL     OW11590   0.404   5.369   3.017
 3564SOL    HW111591   0.378   5.338   3.108
 3564SOL    HW211592   0.376   5.301   2.949
 3565SOL     OW11593   3.608   4.931   2.541
 3565SOL    HW111594   3.527   4.878   2.516
 3565SOL    HW211595   3.599   4.960   2.636
 3566SOL     OW11596   6.363   0.887   5.673
 3566SOL    HW111597   6.422   0.954   5.627
 3566SOL    HW211598   6.388   0.882   5.770
 3567SOL     OW11599   0.163   2.514   6.156
 3567SOL    HW111600   0.179   2.434   6.098
 3567SOL    HW211601   0.136   2.592   6.100
 3568SOL     OW11602   6.149   4.083   5.482
 3568SOL    HW111603   6.054   4.050   5.481
 3568SOL    HW211604   6.211   4.008   5.462
 3569SOL     OW11605   3.072   1.726   5.373
 3569SOL    HW111606   3.060   1.752   5.277
 3569SOL    HW211607   3.116   1.801   5.422
 3570SOL     OW11608   4.918   0.504   6.323
 3570SOL    HW111609   4.874   0.414   6.327
 3570SOL    HW211610   4.981   0.507   6.245
 3571SOL     OW11611   0.371   5.449   6.923
 3571SOL    HW111612   0.319   5.531   6.896
 3571SOL    HW211613   0.407   5.461   7.015
 3572SOL     OW11614   5.478   3.999   3.836
 3572SOL    HW111615   5.425   3.996   3.921
 3572SOL    HW211616   5.517   3.909   3.819
 3573SOL     OW11617   0.253   4.789   4.168
 3573SOL    HW111618   0.175   4.756   4.221
 3573SOL    HW211619   0.287   4.715   4.110
 3574SOL     OW11620   0.559   4.547   0.117
 3574SOL    HW111621   0.536   4.625   0.059
 3574SOL    HW211622   0.510   4.554   0.204
 3575SOL     OW11623   5.399   4.610   3.300
 3575SOL    HW111624   5.409   4.582   3.205
 3575SOL    HW211625   5.379   4.708   3.304
 3576SOL     OW11626   2.188   1.654   5.847
 3576SOL    HW111627   2.232   1.700   5.769
 3576SOL    HW211628   2.154   1.565   5.817
 3577SOL     OW11629   1.385   3.575   5.813
 3577SOL    HW111630   1.446   3.654   5.822
 3577SOL    HW211631   1.416   3.503   5.876
 3578SOL     OW11632   3.914   2.867   0.363
 3578SOL    HW111633   3.863   2.829   0.286
 3578SOL    HW211634   3.963   2.793   0.411
 3579SOL     OW11635   0.288   4.273   4.616
 3579SOL    HW111636   0.372   4.237   4.576
 3579SOL    HW211637   0.249   4.343   4.555
 3580SOL     OW11638   5.919   1.485   1.142
 3580SOL    HW111639   5.900   1.582   1.132
 3580SOL    HW211640   5.843   1.432   1.104
 3581SOL     OW11641   6.076   0.043   4.021
 3581SOL    HW111642   6.129   6.997   4.070
 3581SOL    HW211643   6.114   0.055   3.929
 3582SOL     OW11644   0.840   1.949   5.935
 3582SOL    HW111645   0.816   1.984   6.026
 3582SOL    HW211646   0.786   1.998   5.866
 3583SOL     OW11647   0.789   3.712   6.697
 3583SOL    HW111648   0.804   3.643   6.625
 3583SOL    HW211649   0.814   3.673   6.786
 3584SOL     OW11650   6.084   5.892   6.499
 3584SOL    HW111651   6.097   5.857   6.592
 3584SOL    HW211652   6.001   5.852   6.460
 3585SOL     OW11653   3.800   5.399   5.033
 3585SOL    HW111654   3.829   5.399   4.937
 3585SOL    HW211655   3.717   5.345   5.042
 3586SOL     OW11656   6.879   1.984   5.392
 3586SOL    HW111657   6.865   1.926   5.473
 3586SOL    HW211658   6.811   1.960   5.323
 3587SOL     OW11659   2.542   5.005   0.232
 3587SOL    HW111660   2.566   5.095   0.267
 3587SOL    HW211661   2.494   5.014   0.145
 3588SOL     OW11662   0.656   2.519   4.983
 3588SOL    HW111663   0.612   2.449   5.040
 3588SOL    HW211664   0.591   2.550   4.913
 3589SOL     OW11665   3.787   1.850   4.198
 3589SOL    HW111666   3.836   1.772   4.160
 3589SOL    HW211667   3.835   1.935   4.176
 3590SOL     OW11668   0.217   3.699   5.912
 3590SOL    HW111669   0.216   3.787   5.960
 3590SOL    HW211670   0.123   3.671   5.893
 3591SOL     OW11671   4.586   3.498   6.284
 3591SOL    HW111672   4.677   3.478   6.320
 3591SOL    HW211673   4.527   3.527   6.359
 3592SOL     OW11674   5.994   3.979   3.021
 3592SOL    HW111675   6.004   4.073   2.988
 3592SOL    HW211676   5.943   3.926   2.954
 3593SOL     OW11677   2.121   5.783   4.607
 3593SOL    HW111678   2.103   5.691   4.643
 3593SOL    HW211679   2.114   5.850   4.680
 3594SOL     OW11680   4.042   0.631   2.476
 3594SOL    HW111681   4.118   0.590   2.424
 3594SOL    HW211682   4.051   0.608   2.572
 3595SOL     OW11683   2.295   5.519   6.268
 3595SOL    HW111684   2.279   5.510   6.169
 3595SOL    HW211685   2.258   5.439   6.315
 3596SOL     OW11686   6.355   2.373   2.982
 3596SOL    HW111687   6.412   2.361   2.900
 3596SOL    HW211688   6.406   2.343   3.063
 3597SOL     OW11689   2.654   6.400   4.975
 3597SOL    HW111690   2.624   6.339   4.901
 3597SOL    HW211691   2.698   6.480   4.935
 3598SOL     OW11692   1.306   6.643   6.426
 3598SOL    HW111693   1.403   6.634   6.405
 3598SOL    HW211694   1.291   6.727   6.478
 3599SOL     OW11695   0.575   2.212   5.513
 3599SOL    HW111696   0.584   2.283   5.443
 3599SOL    HW211697   0.492   2.229   5.566
 3600SOL     OW11698   0.873   2.961   0.550
 3600SOL    HW111699   0.853   2.879   0.497
 3600SOL    HW211700   0.811   3.035   0.522
 3601SOL     OW11701   6.753   4.326   0.626
 3601SOL    HW111702   6.729   4.396   0.694
 3601SOL    HW211703   6.826   4.268   0.662
 3602SOL     OW11704   1.487   1.600   0.960
 3602SOL    HW111705   1.412   1.552   0.916
 3602SOL    HW211706   1.514   1.552   1.043
 3603SOL     OW11707   3.515   6.534   4.396
 3603SOL    HW111708   3.605   6.491   4.405
 3603SOL    HW211709   3.516   6.623   4.442
 3604SOL     OW11710   6.623   4.926   4.088
 3604SOL    HW111711   6.540   4.948   4.035
 3604SOL    HW211712   6.611   4.957   4.182
 3605SOL     OW11713   5.381   4.568   5.371
 3605SOL    HW111714   5.305   4.593   5.311
 3605SOL    HW211715   5.453   4.523   5.317
 3606SOL     OW11716   6.861   5.594   5.241
 3606SOL    HW111717   6.952   5.636   5.240
 3606SOL    HW211718   6.836   5.567   5.148
 3607SOL     OW11719   5.217   6.390   0.934
 3607SOL    HW111720   5.238   6.361   0.841
 3607SOL    HW211721   5.262   6.328   0.999
 3608SOL     OW11722   6.485   1.753   1.978
 3608SOL    HW111723   6.545   1.832   1.990
 3608SOL    HW211724   6.495   1.717   1.885
 3609SOL     OW11725   0.410   0.365   3.695
 3609SOL    HW111726   0.444   0.271   3.685
 3609SOL    HW211727   0.342   0.368   3.767
 3610SOL     OW11728   0.795   0.428   5.646
 3610SOL    HW111729   0.855   0.484   5.701
 3610SOL    HW211730   0.833   0.336   5.637
 3611SOL     OW11731   3.933   5.819   5.486
 3611SOL    HW111732   3.978   5.778   5.406
 3611SOL    HW211733   3.888   5.748   5.539
 3612SOL     OW11734   6.350   0.412   5.682
 3612SOL    HW111735   6.435   0.460   5.702
 3612SOL    HW211736   6.277   0.478   5.667
 3613SOL     OW11737   5.555   5.521   1.401
 3613SOL    HW111738   5.540   5.472   1.316
 3613SOL    HW211739   5.505   5.476   1.475
 3614SOL     OW11740   3.446   3.165   2.614
 3614SOL    HW111741   3.541   3.136   2.614
 3614SOL    HW211742   3.437   3.253   2.660
 3615SOL     OW11743   5.230   6.047   0.028
 3615SOL    HW111744   5.313   6.097   0.003
 3615SOL    HW211745   5.162   6.057   6.977
 3616SOL     OW11746   6.910   1.875   5.942
 3616SOL    HW111747   6.956   1.888   5.854
 3616SOL    HW211748   6.932   1.950   6.003
 3617SOL     OW11749   5.003   1.117   6.727
 3617SOL    HW111750   4.926   1.135   6.665
 3617SOL    HW211751   5.069   1.192   6.720
 3618SOL     OW11752   2.127   1.779   5.077
 3618SOL    HW111753   2.039   1.760   5.121
 3618SOL    HW211754   2.143   1.877   5.077
 3619SOL     OW11755   6.474   3.116   3.906
 3619SOL    HW111756   6.429   3.048   3.964
 3619SOL    HW211757   6.410   3.189   3.884
 3620SOL     OW11758   6.127   5.735   5.733
 3620SOL    HW111759   6.189   5.795   5.683
 3620SOL    HW211760   6.033   5.767   5.722
 3621SOL     OW11761   2.725   2.525   5.762
 3621SOL    HW111762   2.697   2.451   5.823
 3621SOL    HW211763   2.644   2.565   5.718
 3622SOL     OW11764   1.921   2.453   3.455
 3622SOL    HW111765   1.852   2.385   3.479
 3622SOL    HW211766   1.886   2.511   3.382
 3623SOL     OW11767   6.179   6.185   3.778
 3623SOL    HW111768   6.276   6.162   3.764
 3623SOL    HW211769   6.123   6.130   3.717
 3624SOL     OW11770   1.291   0.017   2.289
 3624SOL    HW111771   1.331   6.951   2.265
 3624SOL    HW211772   1.194   0.019   2.263
 3625SOL     OW11773   5.724   3.438   6.916
 3625SOL    HW111774   5.801   3.376   6.903
 3625SOL    HW211775   5.759   3.531   6.928
 3626SOL     OW11776   1.403   3.851   5.112
 3626SOL    HW111777   1.492   3.806   5.118
 3626SOL    HW211778   1.331   3.788   5.143
 3627SOL     OW11779   3.568   2.870   3.571
 3627SOL    HW111780   3.604   2.924   3.647
 3627SOL    HW211781   3.621   2.888   3.489
 3628SOL     OW11782   1.764   6.827   1.613
 3628SOL    HW111783   1.678   6.782   1.639
 3628SOL    HW211784   1.776   6.819   1.514
 3629SOL     OW11785   5.880   2.217   4.550
 3629SOL    HW111786   5.890   2.126   4.590
 3629SOL    HW211787   5.970   2.260   4.542
 3630SOL     OW11788   5.045   2.638   3.149
 3630SOL    HW111789   5.125   2.694   3.173
 3630SOL    HW211790   5.066   2.583   3.068
 3631SOL     OW11791   2.326   0.047   3.732
 3631SOL    HW111792   2.360   7.015   3.655
 3631SOL    HW211793   2.261   7.014   3.785
 3632SOL     OW11794   4.918   7.004   0.442
 3632SOL    HW111795   4.887   6.944   0.368
 3632SOL    HW211796   4.864   6.988   0.524
 3633SOL     OW11797   3.284   1.852   5.673
 3633SOL    HW111798   3.255   1.868   5.578
 3633SOL    HW211799   3.213   1.799   5.720
 3634SOL     OW11800   0.778   5.429   4.803
 3634SOL    HW111801   0.827   5.492   4.863
 3634SOL    HW211802   0.701   5.477   4.760
 3635SOL     OW11803   2.713   6.854   6.342
 3635SOL    HW111804   2.647   6.840   6.268
 3635SOL    HW211805   2.676   6.920   6.407
 3636SOL     OW11806   0.569   5.627   6.543
 3636SOL    HW111807   0.555   5.528   6.540
 3636SOL    HW211808   0.603   5.653   6.633
 3637SOL     OW11809   5.948   2.127   1.177
 3637SOL    HW111810   5.930   2.164   1.086
 3637SOL    HW211811   6.046   2.131   1.197
 3638SOL     OW11812   7.008   4.942   4.531
 3638SOL    HW111813   6.908   4.944   4.531
 3638SOL    HW211814   0.016   4.851   4.561
 3639SOL     OW11815   3.546   4.178   1.396
 3639SOL    HW111816   3.581   4.089   1.426
 3639SOL    HW211817   3.554   4.186   1.297
 3640SOL     OW11818   3.625   0.606   0.037
 3640SOL    HW111819   3.691   0.618   6.984
 3640SOL    HW211820   3.660   0.536   0.100
 3641SOL     OW11821   4.788   2.838   4.152
 3641SOL    HW111822   4.693   2.855   4.180
 3641SOL    HW211823   4.803   2.876   4.061
 3642SOL     OW11824   4.972   1.148   0.367
 3642SOL    HW111825   5.040   1.090   0.412
 3642SOL    HW211826   4.880   1.112   0.385
 3643SOL     OW11827   3.249   5.651   4.555
 3643SOL    HW111828   3.271   5.584   4.484
 3643SOL    HW211829   3.188   5.609   4.622
 3644SOL     OW11830   6.390   1.401   1.565
 3644SOL    HW111831   6.350   1.384   1.475
 3644SOL    HW211832   6.424   1.315   1.603
 3645SOL     OW11833   6.918   2.272   3.844
 3645SOL    HW111834   6.895   2.352   3.788
 3645SOL    HW211835   6.841   2.249   3.903
 3646SOL     OW11836   6.661   3.992   6.950
 3646SOL    HW111837   6.715   3.994   6.866
 3646SOL    HW211838   6.573   3.948   6.931
 3647SOL     OW11839   1.917   3.418   6.917
 3647SOL    HW111840   1.963   3.392   6.833
 3647SOL    HW211841   1.957   3.368   6.994
 3648SOL     OW11842   3.226   4.855   3.204
 3648SOL    HW111843   3.137   4.858   3.249
 3648SOL    HW211844   3.214   4.825   3.109
 3649SOL     OW11845   5.151   3.087   2.137
 3649SOL    HW111846   5.106   3.009   2.182
 3649SOL    HW211847   5.090   3.126   2.069
 3650SOL     OW11848   0.707   4.471   0.447
 3650SOL    HW111849   0.762   4.455   0.365
 3650SOL    HW211850   0.617   4.505   0.421
 3651SOL     OW11851   0.528   0.099   3.649
 3651SOL    HW111852   0.615   0.128   3.609
 3651SOL    HW211853   0.541   0.083   3.747
 3652SOL     OW11854   6.302   6.184   2.824
 3652SOL    HW111855   6.206   6.188   2.851
 3652SOL    HW211856   6.358   6.163   2.904
 3653SOL     OW11857   0.295   1.500   4.504
 3653SOL    HW111858   0.313   1.529   4.410
 3653SOL    HW211859   0.230   1.423   4.503
 3654SOL     OW11860   2.706   5.524   0.493
 3654SOL    HW111861   2.659   5.547   0.408
 3654SOL    HW211862   2.756   5.438   0.481
 3655SOL     OW11863   2.648   0.121   3.400
 3655SOL    HW111864   2.594   0.204   3.413
 3655SOL    HW211865   2.604   0.064   3.330
 3656SOL     OW11866   0.964   3.591   2.188
 3656SOL    HW111867   0.980   3.601   2.090
 3656SOL    HW211868   0.883   3.643   2.215
 3657SOL     OW11869   5.002   4.938   6.383
 3657SOL    HW111870   4.978   4.866   6.448
 3657SOL    HW211871   4.990   4.904   6.289
 3658SOL     OW11872   1.805   6.470   4.090
 3658SOL    HW111873   1.888   6.487   4.037
 3658SOL    HW211874   1.826   6.409   4.166
 3659SOL     OW11875   2.229   3.296   5.804
 3659SOL    HW111876   2.218   3.285   5.902
 3659SOL    HW211877   2.161   3.361   5.770
 3660SOL     OW11878   4.801   0.682   2.655
 3660SOL    HW111879   4.813   0.622   2.734
 3660SOL    HW211880   4.773   0.773   2.685
 3661SOL     OW11881   4.485   1.682   6.367
 3661SOL    HW111882   4.468   1.585   6.350
 3661SOL    HW211883   4.535   1.693   6.452
 3662SOL     OW11884   4.309   0.414   3.814
 3662SOL    HW111885   4.388   0.475   3.816
 3662SOL    HW211886   4.249   0.435   3.891
 3663SOL     OW11887   1.730   1.872   0.208
 3663SOL    HW111888   1.732   1.972   0.204
 3663SOL    HW211889   1.809   1.840   0.261
 3664SOL     OW11890   5.079   1.967   1.867
 3664SOL    HW111891   5.123   2.057   1.877
 3664SOL    HW211892   4.998   1.963   1.925
 3665SOL     OW11893   1.875   6.511   5.358
 3665SOL    HW111894   1.951   6.529   5.295
 3665SOL    HW211895   1.797   6.477   5.306
 3666SOL     OW11896   1.503   3.696   3.448
 3666SOL    HW111897   1.501   3.768   3.517
 3666SOL    HW211898   1.576   3.631   3.469
 3667SOL     OW11899   0.102   0.856   1.119
 3667SOL    HW111900   0.141   0.773   1.078
 3667SOL    HW211901   0.047   0.904   1.051
 3668SOL     OW11902   1.397   1.221   2.385
 3668SOL    HW111903   1.416   1.307   2.432
 3668SOL    HW211904   1.443   1.220   2.296
 3669SOL     OW11905   5.787   1.516   3.718
 3669SOL    HW111906   5.737   1.457   3.654
 3669SOL    HW211907   5.752   1.609   3.713
 3670SOL     OW11908   2.027   4.376   0.489
 3670SOL    HW111909   2.067   4.328   0.567
 3670SOL    HW211910   2.100   4.410   0.430
 3671SOL     OW11911   5.868   0.349   3.770
 3671SOL    HW111912   5.857   0.286   3.846
 3671SOL    HW211913   5.909   0.302   3.692
 3672SOL     OW11914   5.591   2.263   1.838
 3672SOL    HW111915   5.495   2.245   1.814
 3672SOL    HW211916   5.643   2.178   1.833
 3673SOL     OW11917   4.225   0.362   6.471
 3673SOL    HW111918   4.300   0.427   6.481
 3673SOL    HW211919   4.166   0.366   6.553
 3674SOL     OW11920   0.312   6.740   5.059
 3674SOL    HW111921   0.267   6.803   4.996
 3674SOL    HW211922   0.242   6.692   5.113
 3675SOL     OW11923   1.219   3.099   4.890
 3675SOL    HW111924   1.170   3.182   4.918
 3675SOL    HW211925   1.311   3.100   4.930
 3676SOL     OW11926   5.145   4.531   4.806
 3676SOL    HW111927   5.050   4.546   4.779
 3676SOL    HW211928   5.149   4.503   4.901
 3677SOL     OW11929   2.306   6.377   3.197
 3677SOL    HW111930   2.236   6.308   3.214
 3677SOL    HW211931   2.264   6.457   3.154
 3678SOL     OW11932   0.156   3.160   4.264
 3678SOL    HW111933   0.076   3.217   4.242
 3678SOL    HW211934   0.229   3.180   4.199
 3679SOL     OW11935   1.795   0.346   3.186
 3679SOL    HW111936   1.877   0.393   3.156
 3679SOL    HW211937   1.715   0.402   3.167
 3680SOL     OW11938   5.640   2.072   3.015
 3680SOL    HW111939   5.622   2.170   3.011
 3680SOL    HW211940   5.714   2.054   3.079
 3681SOL     OW11941   0.588   0.658   5.237
 3681SOL    HW111942   0.589   0.603   5.320
 3681SOL    HW211943   0.562   0.600   5.159
 3682SOL     OW11944   5.429   2.415   6.744
 3682SOL    HW111945   5.480   2.502   6.739
 3682SOL    HW211946   5.336   2.433   6.775
 3683SOL     OW11947   0.025   6.914   3.037
 3683SOL    HW111948   0.010   6.928   3.134
 3683SOL    HW211949   0.047   7.001   2.993
 3684SOL     OW11950   1.567   4.856   6.844
 3684SOL    HW111951   1.610   4.853   6.934
 3684SOL    HW211952   1.490   4.793   6.841
 3685SOL     OW11953   6.719   6.179   5.856
 3685SOL    HW111954   6.646   6.171   5.787
 3685SOL    HW211955   6.804   6.144   5.818
 3686SOL     OW11956   5.781   6.505   2.786
 3686SOL    HW111957   5.819   6.518   2.878
 3686SOL    HW211958   5.683   6.485   2.794
 3687SOL     OW11959   3.900   6.099   5.542
 3687SOL    HW111960   3.935   6.021   5.491
 3687SOL    HW211961   3.976   6.149   5.583
 3688SOL     OW11962   6.760   3.211   6.601
 3688SOL    HW111963   6.827   3.221   6.528
 3688SOL    HW211964   6.672   3.185   6.562
 3689SOL     OW11965   1.837   1.082   6.817
 3689SOL    HW111966   1.790   1.002   6.856
 3689SOL    HW211967   1.770   1.139   6.769
 3690SOL     OW11968   4.818   6.715   0.305
 3690SOL    HW111969   4.871   6.685   0.384
 3690SOL    HW211970   4.864   6.686   0.221
 3691SOL     OW11971   2.996   2.672   0.139
 3691SOL    HW111972   2.898   2.654   0.145
 3691SOL    HW211973   3.012   2.754   0.084
 3692SOL     OW11974   0.912   5.999   4.845
 3692SOL    HW111975   0.851   6.062   4.892
 3692SOL    HW211976   1.007   6.024   4.865
 3693SOL     OW11977   1.978   3.119   2.766
 3693SOL    HW111978   1.890   3.164   2.780
 3693SOL    HW211979   2.032   3.173   2.701
 3694SOL     OW11980   1.036   5.347   2.826
 3694SOL    HW111981   1.009   5.328   2.921
 3694SOL    HW211982   0.971   5.303   2.764
 3695SOL     OW11983   6.824   2.912   2.261
 3695SOL    HW111984   6.831   2.826   2.312
 3695SOL    HW211985   6.862   2.986   2.317
 3696SOL     OW11986   2.946   5.735   5.106
 3696SOL    HW111987   3.032   5.688   5.088
 3696SOL    HW211988   2.959   5.834   5.093
 3697SOL     OW11989   0.050   6.583   3.271
 3697SOL    HW111990   6.999   6.520   3.244
 3697SOL    HW211991   0.095   6.618   3.190
 3698SOL     OW11992   2.037   0.235   4.669
 3698SOL    HW111993   1.978   0.302   4.624
 3698SOL    HW211994   2.020   0.144   4.630
 3699SOL     OW11995   0.420   3.405   3.370
 3699SOL    HW111996   0.410   3.452   3.458
 3699SOL    HW211997   0.344   3.429   3.310
 3700SOL     OW11998   0.371   0.142   4.982
 3700SOL    HW111999   0.367   0.099   5.072
 3700SOL    HW212000   0.296   0.208   4.973
 3701SOL     OW12001   1.434   0.532   3.592
 3701SOL    HW112002   1.520   0.565   3.554
 3701SOL    HW212003   1.360   0.549   3.527
 3702SOL     OW12004   6.233   6.230   2.088
 3702SOL    HW112005   6.234   6.153   2.152
 3702SOL    HW212006   6.318   6.282   2.098
 3703SOL     OW12007   4.256   1.948   6.585
 3703SOL    HW112008   4.255   1.963   6.486
 3703SOL    HW212009   4.165   1.922   6.617
 3704SOL     OW12010   3.538   1.410   1.521
 3704SOL    HW112011   3.456   1.353   1.524
 3704SOL    HW212012   3.582   1.410   1.610
 3705SOL     OW12013   4.691   5.959   3.771
 3705SOL    HW112014   4.781   5.952   3.816
 3705SOL    HW212015   4.622   5.917   3.829
 3706SOL     OW12016   1.649   4.048   5.098
 3706SOL    HW112017   1.587   4.074   5.023
 3706SOL    HW212018   1.596   4.036   5.182
 3707SOL     OW12019   5.429   4.206   5.685
 3707SOL    HW112020   5.515   4.171   5.648
 3707SOL    HW212021   5.419   4.303   5.663
 3708SOL     OW12022   6.881   0.907   6.243
 3708SOL    HW112023   6.924   0.901   6.152
 3708SOL    HW212024   6.824   0.827   6.259
 3709SOL     OW12025   3.830   0.879   0.719
 3709SOL    HW112026   3.884   0.888   0.635
 3709SOL    HW212027   3.839   0.963   0.772
 3710SOL     OW12028   6.992   5.839   6.775
 3710SOL    HW112029   6.984   5.740   6.764
 3710SOL    HW212030   0.034   5.874   6.707
 3711SOL     OW12031   0.804   0.150   2.698
 3711SOL    HW112032   0.761   0.064   2.727
 3711SOL    HW212033   0.773   0.173   2.606
 3712SOL     OW12034   0.389   6.184   6.917
 3712SOL    HW112035   0.381   6.271   6.869
 3712SOL    HW212036   0.463   6.190   6.984
 3713SOL     OW12037   1.799   6.059   4.796
 3713SOL    HW112038   1.721   6.054   4.857
 3713SOL    HW212039   1.785   5.997   4.718
 3714SOL     OW12040   4.287   5.675   5.129
 3714SOL    HW112041   4.330   5.745   5.186
 3714SOL    HW212042   4.251   5.602   5.188
 3715SOL     OW12043   5.766   3.815   2.858
 3715SOL    HW112044   5.814   3.815   2.770
 3715SOL    HW212045   5.745   3.720   2.885
 3716SOL     OW12046   6.197   6.790   5.574
 3716SOL    HW112047   6.139   6.870   5.592
 3716SOL    HW212048   6.160   6.738   5.497
 3717SOL     OW12049   5.503   5.654   6.271
 3717SOL    HW112050   5.428   5.708   6.233
 3717SOL    HW212051   5.538   5.699   6.353
 3718SOL     OW12052   1.725   0.796   6.894
 3718SOL    HW112053   1.795   0.743   6.847
 3718SOL    HW212054   1.715   0.763   6.988
 3719SOL     OW12055   5.628   4.543   1.000
 3719SOL    HW112056   5.682   4.531   1.084
 3719SOL    HW212057   5.645   4.466   0.938
 3720SOL     OW12058   6.328   2.008   5.950
 3720SOL    HW112059   6.386   1.967   6.020
 3720SOL    HW212060   6.239   1.961   5.948
 3721SOL     OW12061   4.870   4.318   1.542
 3721SOL    HW112062   4.853   4.372   1.624
 3721SOL    HW212063   4.895   4.225   1.569
 3722SOL     OW12064   6.348   6.394   1.235
 3722SOL    HW112065   6.392   6.482   1.220
 3722SOL    HW212066   6.250   6.408   1.254
 3723SOL     OW12067   6.498   6.048   2.017
 3723SOL    HW112068   6.533   6.045   2.110
 3723SOL    HW212069   6.444   5.965   2.000
 3724SOL     OW12070   2.187   4.671   5.871
 3724SOL    HW112071   2.107   4.729   5.884
 3724SOL    HW212072   2.158   4.580   5.844
 3725SOL     OW12073   5.927   5.308   0.992
 3725SOL    HW112074   5.944   5.389   0.936
 3725SOL    HW212075   6.013   5.260   1.009
 3726SOL     OW12076   6.400   4.923   0.674
 3726SOL    HW112077   6.488   4.916   0.721
 3726SOL    HW212078   6.352   5.005   0.705
 3727SOL     OW12079   0.019   1.933   5.721
 3727SOL    HW112080   0.055   1.998   5.654
 3727SOL    HW212081   6.996   1.858   5.673
 3728SOL     OW12082   0.975   4.164   6.936
 3728SOL    HW112083   1.060   4.167   6.990
 3728SOL    HW212084   0.968   4.247   6.881
 3729SOL     OW12085   1.079   2.036   3.302
 3729SOL    HW112086   1.156   1.973   3.296
 3729SOL    HW212087   1.025   2.030   3.218
 3730SOL     OW12088   2.769   5.380   6.535
 3730SOL    HW112089   2.842   5.329   6.489
 3730SOL    HW212090   2.802   5.413   6.623
 3731SOL     OW12091   5.201   0.368   1.219
 3731SOL    HW112092   5.197   0.269   1.233
 3731SOL    HW212093   5.154   0.391   1.134
 3732SOL     OW12094   2.051   2.240   6.235
 3732SOL    HW112095   2.143   2.212   6.211
 3732SOL    HW212096   1.989   2.162   6.227
 3733SOL     OW12097   1.329   3.419   2.261
 3733SOL    HW112098   1.397   3.479   2.220
 3733SOL    HW212099   1.238   3.454   2.242
 3734SOL     OW12100   4.533   1.004   2.134
 3734SOL    HW112101   4.494   1.029   2.223
 3734SOL    HW212102   4.614   1.060   2.117
 3735SOL     OW12103   2.666   0.673   3.515
 3735SOL    HW112104   2.591   0.632   3.464
 3735SOL    HW212105   2.639   0.764   3.547
 3736SOL     OW12106   6.554   1.949   0.392
 3736SOL    HW112107   6.644   1.910   0.374
 3736SOL    HW212108   6.493   1.927   0.316
 3737SOL     OW12109   4.713   0.484   3.415
 3737SOL    HW112110   4.635   0.498   3.476
 3737SOL    HW212111   4.750   0.392   3.428
 3738SOL     OW12112   0.203   5.941   2.059
 3738SOL    HW112113   0.272   5.900   2.000
 3738SOL    HW212114   0.248   6.001   2.126
 3739SOL     OW12115   2.597   4.741   1.473
 3739SOL    HW112116   2.693   4.767   1.479
 3739SOL    HW212117   2.555   4.745   1.563
 3740SOL     OW12118   5.633   0.178   0.585
 3740SOL    HW112119   5.534   0.187   0.599
 3740SOL    HW212120   5.660   0.228   0.503
 3741SOL     OW12121   5.040   3.172   1.375
 3741SOL    HW112122   5.035   3.255   1.319
 3741SOL    HW212123   4.958   3.116   1.359
 3742SOL     OW12124   2.552   2.145   6.499
 3742SOL    HW112125   2.608   2.083   6.444
 3742SOL    HW212126   2.599   2.164   6.585
 3743SOL     OW12127   4.980   3.014   0.969
 3743SOL    HW112128   4.895   2.962   0.962
 3743SOL    HW212129   4.958   3.112   0.977
 3744SOL     OW12130   0.534   6.312   2.919
 3744SOL    HW112131   0.583   6.273   2.998
 3744SOL    HW212132   0.578   6.397   2.893
 3745SOL     OW12133   4.002   5.101   1.959
 3745SOL    HW112134   4.017   5.095   2.058
 3745SOL    HW212135   3.922   5.046   1.934
 3746SOL     OW12136   5.570   1.402   2.865
 3746SOL    HW112137   5.529   1.352   2.941
 3746SOL    HW212138   5.498   1.435   2.804
 3747SOL     OW12139   2.876   6.920   5.488
 3747SOL    HW112140   2.837   6.898   5.398
 3747SOL    HW212141   2.916   7.012   5.485
 3748SOL     OW12142   5.736   0.324   1.873
 3748SOL    HW112143   5.724   0.273   1.958
 3748SOL    HW212144   5.771   0.416   1.894
 3749SOL     OW12145   2.001   6.538   3.750
 3749SOL    HW112146   2.087   6.492   3.770
 3749SOL    HW212147   2.015   6.609   3.682
 3750SOL     OW12148   1.189   3.759   0.682
 3750SOL    HW112149   1.180   3.755   0.583
 3750SOL    HW212150   1.145   3.679   0.723
 3751SOL     OW12151   6.718   3.477   1.963
 3751SOL    HW112152   6.623   3.447   1.973
 3751SOL    HW212153   6.748   3.519   2.049
 3752SOL     OW12154   5.429   0.565   6.429
 3752SOL    HW112155   5.523   0.591   6.408
 3752SOL    HW212156   5.368   0.640   6.405
 3753SOL     OW12157   6.327   0.675   5.322
 3753SOL    HW112158   6.231   0.659   5.347
 3753SOL    HW212159   6.382   0.596   5.348
 3754SOL     OW12160   1.770   0.075   1.554
 3754SOL    HW112161   1.861   0.079   1.593
 3754SOL    HW212162   1.705   0.039   1.621
 3755SOL     OW12163   4.884   5.606   4.788
 3755SOL    HW112164   4.946   5.665   4.839
 3755SOL    HW212165   4.930   5.520   4.766
 3756SOL     OW12166   3.234   5.293   6.473
 3756SOL    HW112167   3.268   5.369   6.527
 3756SOL    HW212168   3.198   5.222   6.534
 3757SOL     OW12169   6.234   5.186   1.970
 3757SOL    HW112170   6.173   5.204   2.047
 3757SOL    HW212171   6.299   5.114   1.994
 3758SOL     OW12172   2.102   1.332   4.416
 3758SOL    HW112173   2.051   1.298   4.495
 3758SOL    HW212174   2.197   1.300   4.421
 3759SOL     OW12175   3.922   7.004   5.776
 3759SOL    HW112176   3.921   6.963   5.867
 3759SOL    HW212177   3.853   0.055   5.772
 3760SOL     OW12178   0.525   1.685   4.164
 3760SOL    HW112179   0.501   1.706   4.069
 3760SOL    HW212180   0.478   1.749   4.225
 3761SOL     OW12181   6.519   1.068   5.466
 3761SOL    HW112182   6.604   1.095   5.420
 3761SOL    HW212183   6.464   1.150   5.484
 3762SOL     OW12184   1.375   4.463   1.376
 3762SOL    HW112185   1.351   4.385   1.318
 3762SOL    HW212186   1.433   4.432   1.451
 3763SOL     OW12187   0.236   3.516   6.919
 3763SOL    HW112188   0.173   3.517   6.841
 3763SOL    HW212189   0.253   3.422   6.947
 3764SOL     OW12190   1.392   6.807   2.207
 3764SOL    HW112191   1.402   6.848   2.116
 3764SOL    HW212192   1.468   6.837   2.265
 3765SOL     OW12193   5.676   1.015   1.047
 3765SOL    HW112194   5.675   1.097   1.104
 3765SOL    HW212195   5.745   0.951   1.080
 3766SOL     OW12196   1.866   2.597   4.244
 3766SOL    HW112197   1.841   2.501   4.249
 3766SOL    HW212198   1.784   2.654   4.247
 3767SOL     OW12199   3.297   4.807   6.708
 3767SOL    HW112200   3.201   4.808   6.736
 3767SOL    HW212201   3.351   4.858   6.775
 3768SOL     OW12202   0.687   6.950   4.370
 3768SOL    HW112203   0.749   6.997   4.434
 3768SOL    HW212204   0.622   7.016   4.333
 3769SOL     OW12205   5.913   5.594   5.013
 3769SOL    HW112206   5.829   5.564   4.966
 3769SOL    HW212207   5.906   5.692   5.033
 3770SOL     OW12208   1.242   0.652   6.845
 3770SOL    HW112209   1.194   0.680   6.928
 3770SOL    HW212210   1.201   0.568   6.810
 3771SOL     OW12211   4.957   4.171   0.030
 3771SOL    HW112212   4.976   4.262   0.065
 3771SOL    HW212213   5.012   4.103   0.080
 3772SOL     OW12214   0.501   0.348   0.100
 3772SOL    HW112215   0.562   0.323   0.025
 3772SOL    HW212216   0.503   0.277   0.170
 3773SOL     OW12217   6.008   3.189   5.486
 3773SOL    HW112218   5.992   3.219   5.392
 3773SOL    HW212219   6.085   3.125   5.488
 3774SOL     OW12220   5.704   5.548   1.639
 3774SOL    HW112221   5.642   5.623   1.663
 3774SOL    HW212222   5.684   5.517   1.546
 3775SOL     OW12223   4.862   5.287   2.947
 3775SOL    HW112224   4.799   5.364   2.959
 3775SOL    HW212225   4.928   5.310   2.875
 3776SOL     OW12226   3.490   2.367   6.575
 3776SOL    HW112227   3.551   2.435   6.536
 3776SOL    HW212228   3.397   2.381   6.542
 3777SOL     OW12229   2.702   5.199   3.381
 3777SOL    HW112230   2.788   5.149   3.394
 3777SOL    HW212231   2.657   5.213   3.469
 3778SOL     OW12232   2.405   5.492   3.480
 3778SOL    HW112233   2.447   5.542   3.404
 3778SOL    HW212234   2.471   5.427   3.518
 3779SOL     OW12235   0.763   4.593   1.339
 3779SOL    HW112236   0.837   4.635   1.286
 3779SOL    HW212237   0.714   4.663   1.391
 3780SOL     OW12238   6.177   4.154   4.768
 3780SOL    HW112239   6.211   4.087   4.834
 3780SOL    HW212240   6.098   4.116   4.720
 3781SOL     OW12241   0.777   0.174   3.548
 3781SOL    HW112242   0.794   0.238   3.472
 3781SOL    HW212243   0.805   0.216   3.634
 3782SOL     OW12244   3.611   7.015   2.623
 3782SOL    HW112245   3.543   7.018   2.550
 3782SOL    HW212246   3.696   0.037   2.592
 3783SOL     OW12247   6.161   5.320   4.251
 3783SOL    HW112248   6.203   5.391   4.193
 3783SOL    HW212249   6.083   5.281   4.203
 3784SOL     OW12250   5.089   3.087   2.899
 3784SOL    HW112251   5.045   3.026   2.833
 3784SOL    HW212252   5.045   3.076   2.988
 3785SOL     OW12253   1.517   3.129   4.972
 3785SOL    HW112254   1.536   3.157   5.066
 3785SOL    HW212255   1.574   3.050   4.948
 3786SOL     OW12256   2.163   3.920   3.202
 3786SOL    HW112257   2.079   3.884   3.160
 3786SOL    HW212258   2.225   3.844   3.223
 3787SOL     OW12259   5.585   0.990   1.845
 3787SOL    HW112260   5.551   1.059   1.909
 3787SOL    HW212261   5.510   0.957   1.788
 3788SOL     OW12262   6.830   4.479   4.949
 3788SOL    HW112263   6.907   4.542   4.946
 3788SOL    HW212264   6.758   4.510   4.887
 3789SOL     OW12265   0.245   3.784   3.897
 3789SOL    HW112266   0.161   3.799   3.950
 3789SOL    HW212267   0.278   3.691   3.913
 3790SOL     OW12268   0.863   5.193   6.288
 3790SOL    HW112269   0.846   5.128   6.361
 3790SOL    HW212270   0.897   5.279   6.326
 3791SOL     OW12271   4.781   1.652   6.266
 3791SOL    HW112272   4.726   1.673   6.347
 3791SOL    HW212273   4.842   1.729   6.247
 3792SOL     OW12274   1.194   1.901   3.879
 3792SOL    HW112275   1.239   1.837   3.815
 3792SOL    HW212276   1.198   1.863   3.971
 3793SOL     OW12277   4.402   6.607   1.807
 3793SOL    HW112278   4.478   6.543   1.819
 3793SOL    HW212279   4.367   6.600   1.714
 3794SOL     OW12280   2.908   2.728   1.673
 3794SOL    HW112281   2.957   2.643   1.694
 3794SOL    HW212282   2.810   2.709   1.668
 3795SOL     OW12283   4.724   5.836   1.406
 3795SOL    HW112284   4.695   5.853   1.500
 3795SOL    HW212285   4.693   5.911   1.347
 3796SOL     OW12286   4.254   2.131   2.285
 3796SOL    HW112287   4.257   2.044   2.237
 3796SOL    HW212288   4.238   2.205   2.219
 3797SOL     OW12289   0.392   3.511   2.905
 3797SOL    HW112290   0.394   3.411   2.905
 3797SOL    HW212291   0.481   3.546   2.876
 3798SOL     OW12292   2.201   6.149   2.654
 3798SOL    HW112293   2.184   6.214   2.728
 3798SOL    HW212294   2.163   6.185   2.569
 3799SOL     OW12295   6.724   3.007   3.883
 3799SOL    HW112296   6.625   3.001   3.886
 3799SOL    HW212297   6.760   3.018   3.976
 3800SOL     OW12298   5.527   1.684   3.822
 3800SOL    HW112299   5.592   1.733   3.880
 3800SOL    HW212300   5.562   1.682   3.728
 3801SOL     OW12301   6.046   6.672   1.830
 3801SOL    HW112302   6.051   6.744   1.760
 3801SOL    HW212303   6.127   6.678   1.889
 3802SOL     OW12304   1.199   1.633   1.623
 3802SOL    HW112305   1.174   1.536   1.629
 3802SOL    HW212306   1.251   1.648   1.539
 3803SOL     OW12307   4.154   3.551   2.890
 3803SOL    HW112308   4.210   3.490   2.834
 3803SOL    HW212309   4.110   3.619   2.831
 3804SOL     OW12310   4.139   1.175   3.894
 3804SOL    HW112311   4.182   1.193   3.983
 3804SOL    HW212312   4.194   1.109   3.843
 3805SOL     OW12313   1.890   2.977   1.797
 3805SOL    HW112314   1.927   3.057   1.749
 3805SOL    HW212315   1.905   2.895   1.742
 3806SOL     OW12316   3.219   3.706   5.480
 3806SOL    HW112317   3.198   3.643   5.555
 3806SOL    HW212318   3.285   3.663   5.419
 3807SOL     OW12319   2.354   5.233   3.124
 3807SOL    HW112320   2.404   5.152   3.094
 3807SOL    HW212321   2.347   5.298   3.048
 3808SOL     OW12322   4.158   1.020   0.322
 3808SOL    HW112323   4.257   1.011   0.329
 3808SOL    HW212324   4.121   0.946   0.266
 3809SOL     OW12325   5.502   3.162   1.412
 3809SOL    HW112326   5.472   3.210   1.330
 3809SOL    HW212327   5.431   3.168   1.483
 3810SOL     OW12328   5.809   2.782   3.641
 3810SOL    HW112329   5.774   2.842   3.569
 3810SOL    HW212330   5.734   2.756   3.702
 3811SOL     OW12331   6.983   6.812   4.608
 3811SOL    HW112332   0.055   6.791   4.634
 3811SOL    HW212333   6.970   6.789   4.512
 3812SOL     OW12334   4.126   4.798   5.390
 3812SOL    HW112335   4.037   4.753   5.383
 3812SOL    HW212336   4.156   4.826   5.299
 3813SOL     OW12337   5.715   3.954   0.055
 3813SOL    HW112338   5.730   3.870   0.003
 3813SOL    HW212339   5.616   3.967   0.068
 3814SOL     OW12340   6.516   0.210   5.125
 3814SOL    HW112341   6.597   0.243   5.173
 3814SOL    HW212342   6.542   0.140   5.059
 3815SOL     OW12343   4.101   2.017   0.948
 3815SOL    HW112344   4.144   1.929   0.928
 3815SOL    HW212345   4.043   2.008   1.029
 3816SOL     OW12346   1.026   5.065   6.542
 3816SOL    HW112347   0.939   5.028   6.510
 3816SOL    HW212348   1.084   4.990   6.574
 3817SOL     OW12349   4.909   3.360   2.292
 3817SOL    HW112350   4.954   3.387   2.376
 3817SOL    HW212351   4.861   3.440   2.254
 3818SOL     OW12352   6.572   1.282   0.086
 3818SOL    HW112353   6.602   1.196   0.045
 3818SOL    HW212354   6.634   1.355   0.059
 3819SOL     OW12355   5.858   5.366   2.799
 3819SOL    HW112356   5.796   5.376   2.721
 3819SOL    HW212357   5.859   5.451   2.852
 3820SOL     OW12358   5.179   6.577   4.516
 3820SOL    HW112359   5.230   6.662   4.501
 3820SOL    HW212360   5.198   6.514   4.441
 3821SOL     OW12361   1.440   0.835   2.059
 3821SOL    HW112362   1.385   0.834   2.142
 3821SOL    HW212363   1.417   0.756   2.002
 3822SOL     OW12364   2.118   6.399   0.343
 3822SOL    HW112365   2.098   6.396   0.245
 3822SOL    HW212366   2.044   6.445   0.391
 3823SOL     OW12367   3.359   3.788   6.149
 3823SOL    HW112368   3.262   3.789   6.126
 3823SOL    HW212369   3.391   3.882   6.163
 3824SOL     OW12370   0.374   2.329   0.561
 3824SOL    HW112371   0.463   2.359   0.526
 3824SOL    HW212372   0.342   2.251   0.508
 3825SOL     OW12373   0.462   4.771   6.996
 3825SOL    HW112374   0.490   4.862   0.003
 3825SOL    HW212375   0.375   4.777   6.947
 3826SOL     OW12376   0.714   3.549   0.777
 3826SOL    HW112377   0.672   3.530   0.688
 3826SOL    HW212378   0.642   3.556   0.847
 3827SOL     OW12379   1.196   0.781   1.618
 3827SOL    HW112380   1.279   0.819   1.658
 3827SOL    HW212381   1.130   0.855   1.604
 3828SOL     OW12382   3.246   3.419   3.691
 3828SOL    HW112383   3.269   3.322   3.690
 3828SOL    HW212384   3.307   3.469   3.630
 3829SOL     OW12385   0.490   4.398   2.350
 3829SOL    HW112386   0.563   4.453   2.392
 3829SOL    HW212387   0.518   4.370   2.259
 3830SOL     OW12388   0.956   0.937   5.382
 3830SOL    HW112389   0.920   0.887   5.303
 3830SOL    HW212390   0.932   0.889   5.466
 3831SOL     OW12391   4.599   1.948   2.514
 3831SOL    HW112392   4.676   1.936   2.576
 3831SOL    HW212393   4.576   2.045   2.507
 3832SOL     OW12394   6.676   0.535   2.803
 3832SOL    HW112395   6.760   0.553   2.751
 3832SOL    HW212396   6.673   0.594   2.883
 3833SOL     OW12397   0.361   6.106   6.571
 3833SOL    HW112398   0.275   6.156   6.580
 3833SOL    HW212399   0.354   6.018   6.619
 3834SOL     OW12400   3.382   4.132   0.661
 3834SOL    HW112401   3.344   4.215   0.621
 3834SOL    HW212402   3.326   4.053   0.636
 3835SOL     OW12403   3.963   5.926   4.512
 3835SOL    HW112404   3.962   5.952   4.609
 3835SOL    HW212405   4.055   5.938   4.475
 3836SOL     OW12406   6.980   4.906   6.030
 3836SOL    HW112407   6.917   4.979   6.057
 3836SOL    HW212408   0.044   4.947   5.997
 3837SOL     OW12409   4.717   4.176   6.222
 3837SOL    HW112410   4.765   4.131   6.298
 3837SOL    HW212411   4.784   4.213   6.157
 3838SOL     OW12412   0.663   2.903   3.799
 3838SOL    HW112413   0.756   2.933   3.822
 3838SOL    HW212414   0.664   2.806   3.778
 3839SOL     OW12415   5.655   1.861   2.838
 3839SOL    HW112416   5.660   1.940   2.899
 3839SOL    HW212417   5.625   1.780   2.889
 3840SOL     OW12418   2.981   1.403   6.709
 3840SOL    HW112419   3.072   1.441   6.722
 3840SOL    HW212420   2.975   1.362   6.618
 3841SOL     OW12421   0.137   3.548   4.393
 3841SOL    HW112422   0.210   3.502   4.342
 3841SOL    HW212423   0.155   3.540   4.491
 3842SOL     OW12424   1.611   2.253   2.236
 3842SOL    HW112425   1.677   2.230   2.307
 3842SOL    HW212426   1.615   2.351   2.217
 3843SOL     OW12427   5.604   4.260   2.815
 3843SOL    HW112428   5.568   4.275   2.907
 3843SOL    HW212429   5.541   4.300   2.748
 3844SOL     OW12430   1.106   2.520   5.134
 3844SOL    HW112431   1.131   2.592   5.199
 3844SOL    HW212432   1.136   2.432   5.169
 3845SOL     OW12433   3.308   4.558   5.848
 3845SOL    HW112434   3.349   4.526   5.934
 3845SOL    HW212435   3.305   4.658   5.848
 3846SOL     OW12436   0.295   4.475   3.240
 3846SOL    HW112437   0.221   4.473   3.308
 3846SOL    HW212438   0.289   4.393   3.183
 3847SOL     OW12439   5.075   3.103   4.404
 3847SOL    HW112440   5.108   3.178   4.347
 3847SOL    HW212441   5.153   3.060   4.451
 3848SOL     OW12442   4.619   4.353   2.887
 3848SOL    HW112443   4.565   4.422   2.936
 3848SOL    HW212444   4.619   4.375   2.789
 3849SOL     OW12445   1.153   1.696   5.721
 3849SOL    HW112446   1.063   1.681   5.679
 3849SOL    HW212447   1.214   1.622   5.695
 3850SOL     OW12448   2.542   3.647   1.720
 3850SOL    HW112449   2.504   3.559   1.750
 3850SOL    HW212450   2.641   3.647   1.735
 3851SOL     OW12451   0.810   4.422   3.092
 3851SOL    HW112452   0.791   4.519   3.077
 3851SOL    HW212453   0.754   4.388   3.167
 3852SOL     OW12454   4.089   6.320   4.007
 3852SOL    HW112455   4.110   6.414   4.031
 3852SOL    HW212456   4.042   6.317   3.918
 3853SOL     OW12457   0.552   4.273   3.852
 3853SOL    HW112458   0.591   4.237   3.937
 3853SOL    HW212459   0.583   4.367   3.839
 3854SOL     OW12460   1.462   1.978   2.692
 3854SOL    HW112461   1.408   2.061   2.680
 3854SOL    HW212462   1.524   1.989   2.770
 3855SOL     OW12463   4.998   6.403   6.442
 3855SOL    HW112464   4.912   6.454   6.436
 3855SOL    HW212465   5.058   6.430   6.368
 3856SOL     OW12466   6.860   0.417   6.142
 3856SOL    HW112467   6.882   0.407   6.045
 3856SOL    HW212468   6.865   0.327   6.187
 3857SOL     OW12469   0.714   5.983   6.858
 3857SOL    HW112470   0.695   6.050   6.930
 3857SOL    HW212471   0.782   5.917   6.892
 3858SOL     OW12472   2.537   1.318   5.533
 3858SOL    HW112473   2.603   1.313   5.608
 3858SOL    HW212474   2.500   1.411   5.527
 3859SOL     OW12475   5.544   1.383   1.813
 3859SOL    HW112476   5.476   1.317   1.779
 3859SOL    HW212477   5.504   1.436   1.887
 3860SOL     OW12478   2.009   1.377   3.859
 3860SOL    HW112479   2.007   1.290   3.810
 3860SOL    HW212480   1.995   1.361   3.957
 3861SOL     OW12481   4.564   5.377   3.300
 3861SOL    HW112482   4.493   5.387   3.231
 3861SOL    HW212483   4.522   5.370   3.391
 3862SOL     OW12484   0.536   0.496   5.003
 3862SOL    HW112485   0.547   0.401   5.035
 3862SOL    HW212486   0.445   0.507   4.964
 3863SOL     OW12487   5.664   2.294   6.888
 3863SOL    HW112488   5.621   2.219   6.940
 3863SOL    HW212489   5.596   2.334   6.826
 3864SOL     OW12490   2.333   1.112   5.577
 3864SOL    HW112491   2.407   1.179   5.582
 3864SOL    HW212492   2.245   1.159   5.574
 3865SOL     OW12493   4.207   0.875   0.602
 3865SOL    HW112494   4.213   0.791   0.547
 3865SOL    HW212495   4.114   0.911   0.598
 3866SOL     OW12496   3.680   0.179   0.726
 3866SOL    HW112497   3.699   0.103   0.664
 3866SOL    HW212498   3.585   0.176   0.756
 3867SOL     OW12499   0.809   5.416   4.241
 3867SOL    HW112500   0.880   5.422   4.171
 3867SOL    HW212501   0.753   5.335   4.226
 3868SOL     OW12502   2.609   6.508   0.329
 3868SOL    HW112503   2.582   6.598   0.294
 3868SOL    HW212504   2.611   6.443   0.254
 3869SOL     OW12505   6.107   4.006   4.433
 3869SOL    HW112506   6.166   3.954   4.372
 3869SOL    HW212507   6.126   4.104   4.423
 3870SOL     OW12508   6.262   6.156   0.044
 3870SOL    HW112509   6.228   6.250   0.053
 3870SOL    HW212510   6.354   6.151   0.083
 3871SOL     OW12511   3.802   0.768   3.088
 3871SOL    HW112512   3.768   0.763   2.994
 3871SOL    HW212513   3.870   0.696   3.103
 3872SOL     OW12514   3.730   2.939   4.009
 3872SOL    HW112515   3.638   2.939   4.050
 3872SOL    HW212516   3.794   2.896   4.072
 3873SOL     OW12517   6.860   2.956   0.997
 3873SOL    HW112518   6.948   2.917   0.971
 3873SOL    HW212519   6.787   2.894   0.970
 3874SOL     OW12520   4.550   6.159   6.910
 3874SOL    HW112521   4.545   6.181   7.007
 3874SOL    HW212522   4.555   6.244   6.857
 3875SOL     OW12523   2.080   3.176   2.355
 3875SOL    HW112524   2.062   3.269   2.323
 3875SOL    HW212525   2.174   3.151   2.335
 3876SOL     OW12526   3.716   6.025   1.157
 3876SOL    HW112527   3.642   6.044   1.093
 3876SOL    HW212528   3.702   5.935   1.199
 3877SOL     OW12529   5.461   2.721   0.534
 3877SOL    HW112530   5.394   2.750   0.602
 3877SOL    HW212531   5.424   2.645   0.481
 3878SOL     OW12532   3.424   0.286   4.591
 3878SOL    HW112533   3.381   0.198   4.572
 3878SOL    HW212534   3.518   0.271   4.622
 3879SOL     OW12535   5.788   5.373   1.216
 3879SOL    HW112536   5.850   5.320   1.158
 3879SOL    HW212537   5.697   5.373   1.176
 3880SOL     OW12538   5.570   4.906   4.380
 3880SOL    HW112539   5.613   4.821   4.349
 3880SOL    HW212540   5.577   4.912   4.480
 3881SOL     OW12541   1.265   3.566   1.908
 3881SOL    HW112542   1.220   3.648   1.941
 3881SOL    HW212543   1.200   3.509   1.858
 3882SOL     OW12544   1.401   0.921   5.587
 3882SOL    HW112545   1.359   0.838   5.625
 3882SOL    HW212546   1.500   0.909   5.583
 3883SOL     OW12547   4.236   0.575   3.068
 3883SOL    HW112548   4.283   0.556   3.154
 3883SOL    HW212549   4.137   0.565   3.081
 3884SOL     OW12550   0.193   5.834   3.120
 3884SOL    HW112551   0.184   5.933   3.134
 3884SOL    HW212552   0.109   5.789   3.147
 3885SOL     OW12553   6.267   0.070   2.461
 3885SOL    HW112554   6.187   0.119   2.497
 3885SOL    HW212555   6.339   0.069   2.530
 3886SOL     OW12556   5.859   6.083   4.874
 3886SOL    HW112557   5.800   6.115   4.799
 3886SOL    HW212558   5.921   6.013   4.840
 3887SOL     OW12559   0.317   0.410   6.839
 3887SOL    HW112560   0.237   0.439   6.892
 3887SOL    HW212561   0.324   0.465   6.756
 3888SOL     OW12562   6.388   0.707   4.688
 3888SOL    HW112563   6.354   0.662   4.605
 3888SOL    HW212564   6.316   0.766   4.725
 3889SOL     OW12565   0.616   3.342   6.666
 3889SOL    HW112566   0.561   3.425   6.675
 3889SOL    HW212567   0.555   3.262   6.664
 3890SOL     OW12568   5.529   5.360   2.919
 3890SOL    HW112569   5.602   5.297   2.893
 3890SOL    HW212570   5.552   5.453   2.888
 3891SOL     OW12571   5.807   4.597   4.599
 3891SOL    HW112572   5.731   4.535   4.619
 3891SOL    HW212573   5.886   4.572   4.656
 3892SOL     OW12574   0.197   2.127   1.683
 3892SOL    HW112575   0.278   2.072   1.661
 3892SOL    HW212576   0.221   2.224   1.677
 3893SOL     OW12577   4.695   4.132   0.875
 3893SOL    HW112578   4.777   4.143   0.819
 3893SOL    HW212579   4.717   4.150   0.971
 3894SOL     OW12580   3.582   1.597   1.336
 3894SOL    HW112581   3.578   1.536   1.415
 3894SOL    HW212582   3.612   1.547   1.256
 3895SOL     OW12583   1.539   0.766   5.316
 3895SOL    HW112584   1.466   0.814   5.364
 3895SOL    HW212585   1.509   0.673   5.294
 3896SOL     OW12586   0.185   0.629   6.248
 3896SOL    HW112587   0.103   0.572   6.248
 3896SOL    HW212588   0.185   0.688   6.329
 3897SOL     OW12589   3.435   5.369   2.871
 3897SOL    HW112590   3.489   5.453   2.868
 3897SOL    HW212591   3.360   5.375   2.804
 3898SOL     OW12592   3.770   3.554   5.038
 3898SOL    HW112593   3.770   3.633   4.977
 3898SOL    HW212594   3.830   3.573   5.116
 3899SOL     OW12595   5.595   6.873   4.924
 3899SOL    HW112596   5.622   6.864   5.020
 3899SOL    HW212597   5.672   6.849   4.865
 3900SOL     OW12598   4.845   3.152   3.933
 3900SOL    HW112599   4.795   3.085   3.877
 3900SOL    HW212600   4.892   3.216   3.872
 3901SOL     OW12601   3.053   0.579   5.874
 3901SOL    HW112602   2.995   0.509   5.915
 3901SOL    HW212603   3.074   0.649   5.942
 3902SOL     OW12604   5.545   3.907   2.052
 3902SOL    HW112605   5.630   3.960   2.052
 3902SOL    HW212606   5.467   3.969   2.043
 3903SOL     OW12607   4.174   6.025   0.070
 3903SOL    HW112608   4.092   5.975   0.039
 3903SOL    HW212609   4.254   5.990   0.022
 3904SOL     OW12610   2.085   0.684   5.068
 3904SOL    HW112611   2.118   0.705   5.160
 3904SOL    HW212612   1.992   0.648   5.073
 3905SOL     OW12613   6.954   0.107   5.825
 3905SOL    HW112614   7.022   0.035   5.839
 3905SOL    HW212615   6.869   0.082   5.870
 3906SOL     OW12616   3.923   5.262   5.234
 3906SOL    HW112617   3.880   5.173   5.247
 3906SOL    HW212618   3.869   5.317   5.171
 3907SOL     OW12619   5.635   6.895   5.198
 3907SOL    HW112620   5.556   6.951   5.220
 3907SOL    HW212621   5.719   6.949   5.208
 3908SOL     OW12622   0.847   1.127   0.367
 3908SOL    HW112623   0.929   1.101   0.316
 3908SOL    HW212624   0.795   1.194   0.315
 3909SOL     OW12625   0.325   5.098   5.607
 3909SOL    HW112626   0.288   5.108   5.515
 3909SOL    HW212627   0.332   5.187   5.651
 3910SOL     OW12628   3.374   3.824   1.965
 3910SOL    HW112629   3.306   3.857   2.031
 3910SOL    HW212630   3.334   3.752   1.908
 3911SOL     OW12631   4.277   1.362   0.143
 3911SOL    HW112632   4.286   1.319   0.053
 3911SOL    HW212633   4.187   1.339   0.181
 3912SOL     OW12634   3.780   0.525   6.085
 3912SOL    HW112635   3.716   0.448   6.096
 3912SOL    HW212636   3.794   0.570   6.173
 3913SOL     OW12637   2.375   5.803   6.318
 3913SOL    HW112638   2.309   5.878   6.312
 3913SOL    HW212639   2.327   5.716   6.307
 3914SOL     OW12640   4.125   1.245   1.416
 3914SOL    HW112641   4.101   1.310   1.344
 3914SOL    HW212642   4.126   1.152   1.378
 3915SOL     OW12643   3.812   6.215   1.838
 3915SOL    HW112644   3.721   6.229   1.879
 3915SOL    HW212645   3.802   6.185   1.744
 3916SOL     OW12646   1.788   6.041   3.448
 3916SOL    HW112647   1.727   6.092   3.387
 3916SOL    HW212648   1.819   6.102   3.522
 3917SOL     OW12649   1.250   4.904   6.541
 3917SOL    HW112650   1.306   4.982   6.513
 3917SOL    HW212651   1.270   4.826   6.482
 3918SOL     OW12652   5.226   0.316   2.721
 3918SOL    HW112653   5.189   0.396   2.674
 3918SOL    HW212654   5.317   0.295   2.686
 3919SOL     OW12655   2.963   5.864   6.820
 3919SOL    HW112656   2.919   5.874   6.730
 3919SOL    HW212657   3.010   5.949   6.844
 3920SOL     OW12658   2.473   2.917   6.578
 3920SOL    HW112659   2.417   2.995   6.550
 3920SOL    HW212660   2.556   2.950   6.622
 3921SOL     OW12661   0.080   2.864   0.909
 3921SOL    HW112662   0.133   2.926   0.965
 3921SOL    HW212663   0.065   2.905   0.818
 3922SOL     OW12664   5.928   4.331   1.189
 3922SOL    HW112665   5.985   4.407   1.157
 3922SOL    HW212666   5.925   4.260   1.118
 3923SOL     OW12667   6.752   1.846   0.002
 3923SOL    HW112668   6.723   1.924   6.969
 3923SOL    HW212669   6.674   1.787   0.022
 3924SOL     OW12670   6.980   5.728   3.221
 3924SOL    HW112671   6.887   5.746   3.187
 3924SOL    HW212672   6.980   5.728   3.321
 3925SOL     OW12673   3.631   4.267   1.060
 3925SOL    HW112674   3.679   4.238   0.977
 3925SOL    HW212675   3.532   4.261   1.045
 3926SOL     OW12676   6.553   5.481   2.531
 3926SOL    HW112677   6.620   5.482   2.457
 3926SOL    HW212678   6.508   5.570   2.538
 3927SOL     OW12679   6.846   3.800   3.880
 3927SOL    HW112680   6.758   3.827   3.841
 3927SOL    HW212681   6.902   3.757   3.809
 3928SOL     OW12682   2.719   5.319   4.939
 3928SOL    HW112683   2.734   5.362   5.028
 3928SOL    HW212684   2.694   5.389   4.872
 3929SOL     OW12685   0.670   1.679   5.564
 3929SOL    HW112686   0.644   1.771   5.533
 3929SOL    HW212687   0.605   1.647   5.633
 3930SOL     OW12688   1.993   1.748   4.108
 3930SOL    HW112689   1.974   1.817   4.038
 3930SOL    HW212690   2.084   1.709   4.093
 3931SOL     OW12691   1.848   1.973   2.917
 3931SOL    HW112692   1.760   2.017   2.929
 3931SOL    HW212693   1.836   1.874   2.910
 3932SOL     OW12694   1.664   4.003   2.786
 3932SOL    HW112695   1.575   3.957   2.792
 3932SOL    HW212696   1.703   4.012   2.878
 3933SOL     OW12697   2.192   7.011   6.549
 3933SOL    HW112698   2.242   0.065   6.589
 3933SOL    HW212699   2.142   6.962   6.621
 3934SOL     OW12700   0.297   0.958   1.276
 3934SOL    HW112701   0.307   0.873   1.327
 3934SOL    HW212702   0.211   0.955   1.224
 3935SOL     OW12703   2.169   6.809   6.367
 3935SOL    HW112704   2.227   6.802   6.286
 3935SOL    HW212705   2.187   6.895   6.413
 3936SOL     OW12706   0.364   4.843   5.388
 3936SOL    HW112707   0.325   4.934   5.373
 3936SOL    HW212708   0.435   4.848   5.459
 3937SOL     OW12709   0.155   0.551   2.070
 3937SOL    HW112710   0.058   0.531   2.087
 3937SOL    HW212711   0.194   0.598   2.149
 3938SOL     OW12712   6.799   2.494   3.690
 3938SOL    HW112713   6.811   2.574   3.749
 3938SOL    HW212714   6.795   2.523   3.595
 3939SOL     OW12715   3.179   1.808   2.184
 3939SOL    HW112716   3.240   1.816   2.106
 3939SOL    HW212717   3.095   1.762   2.156
 3940SOL     OW12718   4.410   5.295   2.088
 3940SOL    HW112719   4.321   5.313   2.129
 3940SOL    HW212720   4.460   5.229   2.145
 3941SOL     OW12721   4.984   1.512   6.146
 3941SOL    HW112722   4.923   1.565   6.205
 3941SOL    HW212723   5.001   1.423   6.188
 3942SOL     OW12724   0.347   0.174   5.700
 3942SOL    HW112725   0.332   0.154   5.797
 3942SOL    HW212726   0.375   0.091   5.652
 3943SOL     OW12727   0.961   3.825   2.838
 3943SOL    HW112728   0.979   3.727   2.835
 3943SOL    HW212729   0.934   3.858   2.747
 3944SOL     OW12730   5.893   3.815   5.455
 3944SOL    HW112731   5.929   3.740   5.400
 3944SOL    HW212732   5.793   3.814   5.451
 3945SOL     OW12733   0.914   1.945   2.115
 3945SOL    HW112734   0.960   1.982   2.195
 3945SOL    HW212735   0.969   1.872   2.075
 3946SOL     OW12736   6.287   4.912   5.971
 3946SOL    HW112737   6.209   4.869   5.924
 3946SOL    HW212738   6.337   4.970   5.907
 3947SOL     OW12739   6.033   5.206   1.759
 3947SOL    HW112740   6.113   5.201   1.819
 3947SOL    HW212741   5.968   5.135   1.786
 3948SOL     OW12742   0.909   4.787   1.194
 3948SOL    HW112743   0.974   4.863   1.201
 3948SOL    HW212744   0.837   4.812   1.130
 3949SOL     OW12745   5.789   0.845   3.100
 3949SOL    HW112746   5.857   0.902   3.144
 3949SOL    HW212747   5.833   0.786   3.033
 3950SOL     OW12748   3.040   3.766   1.710
 3950SOL    HW112749   2.948   3.727   1.721
 3950SOL    HW212750   3.108   3.694   1.719
 3951SOL     OW12751   0.303   6.938   0.476
 3951SOL    HW112752   0.388   6.965   0.522
 3951SOL    HW212753   0.326   6.891   0.390
 3952SOL     OW12754   6.918   4.206   4.191
 3952SOL    HW112755   6.948   4.141   4.260
 3952SOL    HW212756   6.900   4.158   4.105
 3953SOL     OW12757   3.250   4.395   1.051
 3953SOL    HW112758   3.296   4.338   0.982
 3953SOL    HW212759   3.169   4.437   1.011
 3954SOL     OW12760   5.942   5.407   5.194
 3954SOL    HW112761   5.928   5.473   5.120
 3954SOL    HW212762   5.971   5.455   5.277
 3955SOL     OW12763   3.620   6.299   6.325
 3955SOL    HW112764   3.601   6.387   6.369
 3955SOL    HW212765   3.582   6.225   6.380
 3956SOL     OW12766   0.243   1.572   2.823
 3956SOL    HW112767   0.300   1.627   2.762
 3956SOL    HW212768   0.293   1.489   2.850
 3957SOL     OW12769   4.745   6.459   3.706
 3957SOL    HW112770   4.690   6.376   3.700
 3957SOL    HW212771   4.840   6.435   3.727
 3958SOL     OW12772   5.660   0.201   6.238
 3958SOL    HW112773   5.660   0.114   6.287
 3958SOL    HW212774   5.580   0.205   6.178
 3959SOL     OW12775   3.740   6.521   1.096
 3959SOL    HW112776   3.642   6.528   1.112
 3959SOL    HW212777   3.769   6.595   1.036
 3960SOL     OW12778   4.578   1.437   6.484
 3960SOL    HW112779   4.668   1.448   6.526
 3960SOL    HW212780   4.585   1.376   6.405
 3961SOL     OW12781   5.395   2.475   2.078
 3961SOL    HW112782   5.296   2.465   2.083
 3961SOL    HW212783   5.419   2.571   2.071
 3962SOL     OW12784   2.052   4.783   6.992
 3962SOL    HW112785   2.151   4.767   7.000
 3962SOL    HW212786   2.004   4.696   7.004
 3963SOL     OW12787   4.919   4.536   4.221
 3963SOL    HW112788   4.949   4.459   4.165
 3963SOL    HW212789   4.820   4.547   4.211
 3964SOL     OW12790   4.841   4.883   3.698
 3964SOL    HW112791   4.764   4.929   3.653
 3964SOL    HW212792   4.894   4.832   3.629
 3965SOL     OW12793   4.248   2.927   6.246
 3965SOL    HW112794   4.209   2.846   6.203
 3965SOL    HW212795   4.175   2.991   6.270
 3966SOL     OW12796   5.862   5.626   0.458
 3966SOL    HW112797   5.930   5.646   0.388
 3966SOL    HW212798   5.807   5.708   0.475
 3967SOL     OW12799   1.305   4.465   2.592
 3967SOL    HW112800   1.388   4.492   2.543
 3967SOL    HW212801   1.284   4.532   2.663
 3968SOL     OW12802   6.231   0.238   1.014
 3968SOL    HW112803   6.231   0.268   0.918
 3968SOL    HW212804   6.151   0.277   1.060
 3969SOL     OW12805   1.645   3.608   2.607
 3969SOL    HW112806   1.592   3.689   2.581
 3969SOL    HW212807   1.583   3.537   2.642
 3970SOL     OW12808   5.597   5.531   4.065
 3970SOL    HW112809   5.530   5.458   4.051
 3970SOL    HW212810   5.686   5.492   4.086
 3971SOL     OW12811   2.519   5.102   1.575
 3971SOL    HW112812   2.454   5.031   1.548
 3971SOL    HW212813   2.603   5.091   1.522
 3972SOL     OW12814   1.500   5.293   0.684
 3972SOL    HW112815   1.549   5.376   0.656
 3972SOL    HW212816   1.547   5.213   0.648
 3973SOL     OW12817   1.070   4.269   5.873
 3973SOL    HW112818   1.154   4.288   5.823
 3973SOL    HW212819   1.005   4.344   5.859
 3974SOL     OW12820   0.878   0.517   4.562
 3974SOL    HW112821   0.785   0.523   4.598
 3974SOL    HW212822   0.882   0.562   4.473
 3975SOL     OW12823   5.419   0.245   6.074
 3975SOL    HW112824   5.349   0.214   6.010
 3975SOL    HW212825   5.376   0.291   6.152
 3976SOL     OW12826   1.134   4.982   1.121
 3976SOL    HW112827   1.092   5.070   1.097
 3976SOL    HW212828   1.230   4.996   1.142
 3977SOL     OW12829   3.155   4.295   5.529
 3977SOL    HW112830   3.162   4.370   5.464
 3977SOL    HW212831   3.158   4.332   5.622
 3978SOL     OW12832   5.462   6.745   4.722
 3978SOL    HW112833   5.519   6.806   4.778
 3978SOL    HW212834   5.506   6.655   4.715
 3979SOL     OW12835   3.046   5.901   1.887
 3979SOL    HW112836   3.003   5.919   1.799
 3979SOL    HW212837   3.047   5.802   1.904
 3980SOL     OW12838   0.362   5.685   6.369
 3980SOL    HW112839   0.445   5.680   6.426
 3980SOL    HW212840   0.323   5.777   6.375
 3981SOL     OW12841   1.850   1.808   6.500
 3981SOL    HW112842   1.932   1.800   6.558
 3981SOL    HW212843   1.809   1.718   6.488
 3982SOL     OW12844   2.346   0.459   4.166
 3982SOL    HW112845   2.389   0.544   4.135
 3982SOL    HW212846   2.331   0.398   4.089
 3983SOL     OW12847   4.353   5.145   4.077
 3983SOL    HW112848   4.422   5.181   4.015
 3983SOL    HW212849   4.397   5.084   4.143
 3984SOL     OW12850   1.209   0.625   3.066
 3984SOL    HW112851   1.118   0.664   3.052
 3984SOL    HW212852   1.279   0.694   3.046
 3985SOL     OW12853   4.019   4.721   6.254
 3985SOL    HW112854   4.065   4.794   6.305
 3985SOL    HW212855   4.065   4.707   6.166
 3986SOL     OW12856   6.405   2.190   2.582
 3986SOL    HW112857   6.399   2.092   2.604
 3986SOL    HW212858   6.477   2.232   2.638
 3987SOL     OW12859   2.981   5.389   4.000
 3987SOL    HW112860   2.997   5.446   4.080
 3987SOL    HW212861   3.065   5.380   3.948
 3988SOL     OW12862   3.889   3.664   6.532
 3988SOL    HW112863   3.845   3.753   6.535
 3988SOL    HW212864   3.865   3.618   6.446
 3989SOL     OW12865   6.572   1.635   7.018
 3989SOL    HW112866   6.543   1.585   0.078
 3989SOL    HW212867   6.499   1.630   6.950
 3990SOL     OW12868   5.657   2.391   2.943
 3990SOL    HW112869   5.610   2.401   2.855
 3990SOL    HW212870   5.638   2.470   3.001
 3991SOL     OW12871   5.774   1.631   2.019
 3991SOL    HW112872   5.845   1.633   1.949
 3991SOL    HW212873   5.817   1.620   2.109
 3992SOL     OW12874   3.705   2.352   0.033
 3992SOL    HW112875   3.622   2.368   7.002
 3992SOL    HW212876   3.696   2.266   0.083
 3993SOL     OW12877   0.540   2.591   3.250
 3993SOL    HW112878   0.631   2.574   3.286
 3993SOL    HW212879   0.529   2.688   3.229
 3994SOL     OW12880   0.506   1.220   6.270
 3994SOL    HW112881   0.569   1.278   6.323
 3994SOL    HW212882   0.428   1.275   6.240
 3995SOL     OW12883   1.474   3.757   4.343
 3995SOL    HW112884   1.518   3.673   4.310
 3995SOL    HW212885   1.467   3.823   4.268
 3996SOL     OW12886   0.897   1.081   4.408
 3996SOL    HW112887   0.850   1.063   4.322
 3996SOL    HW212888   0.905   1.179   4.423
 3997SOL     OW12889   5.117   2.354   3.659
 3997SOL    HW112890   5.054   2.281   3.633
 3997SOL    HW212891   5.083   2.441   3.624
 3998SOL     OW12892   4.009   1.083   2.590
 3998SOL    HW112893   4.004   1.087   2.490
 3998SOL    HW212894   3.990   1.173   2.628
 3999SOL     OW12895   5.507   3.345   3.827
 3999SOL    HW112896   5.558   3.296   3.898
 3999SOL    HW212897   5.507   3.443   3.848
 4000SOL     OW12898   2.789   5.018   2.961
 4000SOL    HW112899   2.774   4.926   2.998
 4000SOL    HW212900   2.745   5.085   3.022
 4001SOL     OW12901   2.498   2.291   4.263
 4001SOL    HW112902   2.448   2.372   4.292
 4001SOL    HW212903   2.434   2.218   4.239
 4002SOL     OW12904   2.840   2.508   0.466
 4002SOL    HW112905   2.889   2.450   0.532
 4002SOL    HW212906   2.837   2.602   0.502
 4003SOL     OW12907   2.978   6.328   4.918
 4003SOL    HW112908   2.934   6.266   4.852
 4003SOL    HW212909   2.922   6.333   5.001
 4004SOL     OW12910   5.969   2.087   4.030
 4004SOL    HW112911   5.909   2.050   4.101
 4004SOL    HW212912   5.931   2.067   3.940
 4005SOL     OW12913   5.736   5.977   0.989
 4005SOL    HW112914   5.659   5.922   1.020
 4005SOL    HW212915   5.804   5.918   0.947
 4006SOL     OW12916   3.976   5.101   2.643
 4006SOL    HW112917   3.944   5.187   2.603
 4006SOL    HW212918   4.075   5.091   2.627
 4007SOL     OW12919   1.095   2.881   1.874
 4007SOL    HW112920   1.082   2.846   1.781
 4007SOL    HW212921   1.193   2.889   1.893
 4008SOL     OW12922   3.449   2.129   4.316
 4008SOL    HW112923   3.472   2.111   4.412
 4008SOL    HW212924   3.440   2.042   4.268
 4009SOL     OW12925   4.858   3.301   0.252
 4009SOL    HW112926   4.765   3.294   0.218
 4009SOL    HW212927   4.889   3.396   0.247
 4010SOL     OW12928   2.228   2.995   1.661
 4010SOL    HW112929   2.208   2.933   1.585
 4010SOL    HW212930   2.319   3.036   1.648
 4011SOL     OW12931   0.781   0.660   1.705
 4011SOL    HW112932   0.829   0.600   1.770
 4011SOL    HW212933   0.776   0.614   1.616
 4012SOL     OW12934   4.457   5.461   1.860
 4012SOL    HW112935   4.457   5.433   1.956
 4012SOL    HW212936   4.364   5.488   1.833
 4013SOL     OW12937   3.270   6.822   0.223
 4013SOL    HW112938   3.292   6.903   0.278
 4013SOL    HW212939   3.198   6.769   0.269
 4014SOL     OW12940   3.940   5.689   2.999
 4014SOL    HW112941   3.900   5.598   3.007
 4014SOL    HW212942   3.955   5.728   3.090
 4015SOL     OW12943   4.529   5.551   6.233
 4015SOL    HW112944   4.513   5.463   6.280
 4015SOL    HW212945   4.571   5.615   6.297
 4016SOL     OW12946   1.945   6.027   6.677
 4016SOL    HW112947   2.036   6.052   6.708
 4016SOL    HW212948   1.939   5.927   6.668
 4017SOL     OW12949   0.278   6.143   1.043
 4017SOL    HW112950   0.302   6.163   0.948
 4017SOL    HW212951   0.179   6.153   1.054
 4018SOL     OW12952   5.039   6.613   2.807
 4018SOL    HW112953   4.969   6.600   2.877
 4018SOL    HW212954   5.105   6.681   2.837
 4019SOL     OW12955   5.662   3.539   2.786
 4019SOL    HW112956   5.607   3.478   2.842
 4019SOL    HW212957   5.604   3.587   2.721
 4020SOL     OW12958   5.718   2.359   5.565
 4020SOL    HW112959   5.813   2.370   5.597
 4020SOL    HW212960   5.701   2.262   5.546
 4021SOL     OW12961   3.045   3.066   5.729
 4021SOL    HW112962   3.022   3.164   5.727
 4021SOL    HW212963   2.976   3.015   5.678
 4022SOL     OW12964   4.246   0.411   0.445
 4022SOL    HW112965   4.157   0.373   0.470
 4022SOL    HW212966   4.317   0.341   0.458
 4023SOL     OW12967   6.447   1.494   5.296
 4023SOL    HW112968   6.371   1.442   5.256
 4023SOL    HW212969   6.455   1.472   5.393
 4024SOL     OW12970   3.512   5.122   4.056
 4024SOL    HW112971   3.525   5.121   4.156
 4024SOL    HW212972   3.580   5.184   4.015
 4025SOL     OW12973   0.976   6.352   4.260
 4025SOL    HW112974   0.910   6.330   4.188
 4025SOL    HW212975   1.042   6.278   4.269
 4026SOL     OW12976   6.348   6.012   4.156
 4026SOL    HW112977   6.346   6.083   4.086
 4026SOL    HW212978   6.280   6.034   4.227
 4027SOL     OW12979   3.435   4.152   2.161
 4027SOL    HW112980   3.455   4.243   2.124
 4027SOL    HW212981   3.369   4.106   2.102
 4028SOL     OW12982   1.233   2.275   4.061
 4028SOL    HW112983   1.277   2.337   4.126
 4028SOL    HW212984   1.212   2.188   4.106
 4029SOL     OW12985   2.348   4.082   6.538
 4029SOL    HW112986   2.419   4.100   6.469
 4029SOL    HW212987   2.387   4.098   6.629
 4030SOL     OW12988   1.602   1.749   6.219
 4030SOL    HW112989   1.646   1.787   6.300
 4030SOL    HW212990   1.661   1.679   6.178
 4031SOL     OW12991   4.632   5.850   2.587
 4031SOL    HW112992   4.594   5.764   2.552
 4031SOL    HW212993   4.727   5.835   2.614
 4032SOL     OW12994   5.788   0.588   2.937
 4032SOL    HW112995   5.782   0.616   2.841
 4032SOL    HW212996   5.873   0.538   2.952
 4033SOL     OW12997   2.969   3.201   3.210
 4033SOL    HW112998   3.028   3.276   3.179
 4033SOL    HW212999   3.017   3.114   3.199
 4034SOL     OW13000   6.016   1.720   4.914
 4034SOL    HW113001   5.935   1.767   4.948
 4034SOL    HW213002   6.038   1.643   4.974
 4035SOL     OW13003   6.784   3.407   1.117
 4035SOL    HW113004   6.774   3.345   1.039
 4035SOL    HW213005   6.751   3.362   1.200
 4036SOL     OW13006   5.625   0.110   2.827
 4036SOL    HW113007   5.708   0.064   2.858
 4036SOL    HW213008   5.648   0.200   2.791
 4037SOL     OW13009   1.899   1.758   0.488
 4037SOL    HW113010   1.873   1.781   0.581
 4037SOL    HW213011   1.999   1.758   0.480
 4038SOL     OW13012   5.052   4.720   1.685
 4038SOL    HW113013   5.069   4.714   1.586
 4038SOL    HW213014   4.966   4.675   1.707
 4039SOL     OW13015   5.412   5.306   1.494
 4039SOL    HW113016   5.428   5.236   1.425
 4039SOL    HW213017   5.341   5.274   1.557
 4040SOL     OW13018   2.936   6.971   6.747
 4040SOL    HW113019   2.989   6.997   6.666
 4040SOL    HW213020   2.889   6.885   6.730
 4041SOL     OW13021   1.650   5.849   1.725
 4041SOL    HW113022   1.710   5.791   1.781
 4041SOL    HW213023   1.665   5.945   1.749
 4042SOL     OW13024   6.436   4.486   3.210
 4042SOL    HW113025   6.498   4.426   3.160
 4042SOL    HW213026   6.429   4.574   3.162
 4043SOL     OW13027   5.374   2.479   4.610
 4043SOL    HW113028   5.279   2.453   4.591
 4043SOL    HW213029   5.397   2.455   4.704
 4044SOL     OW13030   4.699   0.828   4.219
 4044SOL    HW113031   4.717   0.795   4.312
 4044SOL    HW213032   4.786   0.847   4.173
 4045SOL     OW13033   2.936   4.567   6.493
 4045SOL    HW113034   3.027   4.557   6.453
 4045SOL    HW213035   2.873   4.601   6.423
 4046SOL     OW13036   0.658   1.788   3.577
 4046SOL    HW113037   0.632   1.858   3.643
 4046SOL    HW213038   0.743   1.814   3.532
 4047SOL     OW13039   2.914   2.594   1.099
 4047SOL    HW113040   2.877   2.667   1.043
 4047SOL    HW213041   2.881   2.603   1.193
 4048SOL     OW13042   5.782   1.553   1.492
 4048SOL    HW113043   5.686   1.567   1.516
 4048SOL    HW213044   5.815   1.468   1.534
 4049SOL     OW13045   6.082   6.258   6.646
 4049SOL    HW113046   6.156   6.211   6.692
 4049SOL    HW213047   6.095   6.254   6.547
 4050SOL     OW13048   1.893   6.486   0.493
 4050SOL    HW113049   1.803   6.505   0.455
 4050SOL    HW213050   1.891   6.398   0.541
 4051SOL     OW13051   3.609   3.026   0.300
 4051SOL    HW113052   3.558   3.060   0.221
 4051SOL    HW213053   3.646   2.935   0.279
 4052SOL     OW13054   1.217   0.505   1.490
 4052SOL    HW113055   1.218   0.605   1.483
 4052SOL    HW213056   1.308   0.472   1.515
 4053SOL     OW13057   3.293   4.928   4.067
 4053SOL    HW113058   3.360   5.001   4.080
 4053SOL    HW213059   3.292   4.899   3.971
 4054SOL     OW13060   1.521   2.484   1.391
 4054SOL    HW113061   1.612   2.490   1.433
 4054SOL    HW213062   1.500   2.388   1.370
 4055SOL     OW13063   3.190   3.339   5.412
 4055SOL    HW113064   3.116   3.348   5.478
 4055SOL    HW213065   3.192   3.419   5.352
 4056SOL     OW13066   4.066   3.073   6.839
 4056SOL    HW113067   4.147   3.015   6.836
 4056SOL    HW213068   3.984   3.016   6.838
 4057SOL     OW13069   5.050   2.992   0.016
 4057SOL    HW113070   5.114   3.069   0.011
 4057SOL    HW213071   4.957   3.026   0.007
 4058SOL     OW13072   1.081   1.686   4.384
 4058SOL    HW113073   0.990   1.708   4.347
 4058SOL    HW213074   1.070   1.639   4.471
 4059SOL     OW13075   1.946   2.555   2.953
 4059SOL    HW113076   1.968   2.652   2.955
 4059SOL    HW213077   1.870   2.537   3.016
 4060SOL     OW13078   4.238   5.141   5.488
 4060SOL    HW113079   4.291   5.115   5.568
 4060SOL    HW213080   4.262   5.082   5.411
 4061SOL     OW13081   3.454   4.665   1.608
 4061SOL    HW113082   3.496   4.627   1.690
 4061SOL    HW213083   3.468   4.602   1.531
 4062SOL     OW13084   3.612   1.524   3.228
 4062SOL    HW113085   3.541   1.594   3.227
 4062SOL    HW213086   3.575   1.439   3.266
 4063SOL     OW13087   4.844   6.743   5.330
 4063SOL    HW113088   4.817   6.761   5.235
 4063SOL    HW213089   4.912   6.811   5.358
 4064SOL     OW13090   2.087   6.727   2.965
 4064SOL    HW113091   2.082   6.732   3.065
 4064SOL    HW213092   2.096   6.631   2.937
 4065SOL     OW13093   1.457   6.533   0.267
 4065SOL    HW113094   1.402   6.591   0.326
 4065SOL    HW213095   1.530   6.490   0.320
 4066SOL     OW13096   4.965   4.928   2.362
 4066SOL    HW113097   4.917   5.015   2.367
 4066SOL    HW213098   4.956   4.879   2.449
 4067SOL     OW13099   5.960   2.877   2.642
 4067SOL    HW113100   5.863   2.855   2.658
 4067SOL    HW213101   5.972   2.903   2.546
 4068SOL     OW13102   4.658   0.063   4.635
 4068SOL    HW113103   4.652   0.045   4.537
 4068SOL    HW213104   4.573   0.034   4.679
 4069SOL     OW13105   4.077   3.716   6.749
 4069SOL    HW113106   4.007   3.695   6.680
 4069SOL    HW213107   4.131   3.633   6.767
 4070SOL     OW13108   1.424   3.846   2.805
 4070SOL    HW113109   1.380   3.864   2.893
 4070SOL    HW213110   1.477   3.762   2.810
 4071SOL     OW13111   1.351   1.190   5.025
 4071SOL    HW113112   1.332   1.211   4.929
 4071SOL    HW213113   1.374   1.093   5.033
 4072SOL     OW13114   1.450   6.617   3.857
 4072SOL    HW113115   1.362   6.653   3.824
 4072SOL    HW213116   1.434   6.561   3.938
 4073SOL     OW13117   2.445   5.491   5.951
 4073SOL    HW113118   2.485   5.400   5.947
 4073SOL    HW213119   2.346   5.484   5.942
 4074SOL     OW13120   1.456   2.806   2.203
 4074SOL    HW113121   1.465   2.731   2.136
 4074SOL    HW213122   1.466   2.769   2.295
 4075SOL     OW13123   4.746   2.384   2.802
 4075SOL    HW113124   4.676   2.372   2.732
 4075SOL    HW213125   4.809   2.457   2.774
 4076SOL     OW13126   2.622   3.894   5.619
 4076SOL    HW113127   2.541   3.909   5.675
 4076SOL    HW213128   2.596   3.852   5.532
 4077SOL     OW13129   3.181   6.443   0.576
 4077SOL    HW113130   3.102   6.411   0.628
 4077SOL    HW213131   3.173   6.413   0.481
 4078SOL     OW13132   6.861   5.254   1.823
 4078SOL    HW113133   6.778   5.290   1.865
 4078SOL    HW213134   6.888   5.170   1.870
 4079SOL     OW13135   1.550   1.000   3.249
 4079SOL    HW113136   1.517   0.948   3.327
 4079SOL    HW213137   1.574   1.093   3.278
 4080SOL     OW13138   2.484   2.997   0.012
 4080SOL    HW113139   2.411   2.969   0.075
 4080SOL    HW213140   2.564   3.024   0.064
 4081SOL     OW13141   1.689   1.093   4.575
 4081SOL    HW113142   1.663   1.044   4.492
 4081SOL    HW213143   1.653   1.187   4.570
 4082SOL     OW13144   1.571   1.635   0.087
 4082SOL    HW113145   1.644   1.569   0.107
 4082SOL    HW213146   1.597   1.725   0.123
 4083SOL     OW13147   5.846   3.794   3.406
 4083SOL    HW113148   5.849   3.869   3.472
 4083SOL    HW213149   5.871   3.709   3.451
 4084SOL     OW13150   4.808   3.011   3.202
 4084SOL    HW113151   4.857   3.095   3.224
 4084SOL    HW213152   4.782   3.012   3.106
 4085SOL     OW13153   2.786   5.103   1.036
 4085SOL    HW113154   2.867   5.046   1.025
 4085SOL    HW213155   2.726   5.094   0.956
 4086SOL     OW13156   0.446   4.582   0.358
 4086SOL    HW113157   0.473   4.630   0.442
 4086SOL    HW213158   0.346   4.570   0.359
 4087SOL     OW13159   2.327   1.243   2.204
 4087SOL    HW113160   2.279   1.200   2.280
 4087SOL    HW213161   2.276   1.322   2.171
 4088SOL     OW13162   6.240   1.153   5.562
 4088SOL    HW113163   6.257   1.057   5.540
 4088SOL    HW213164   6.229   1.163   5.661
 4089SOL     OW13165   0.261   5.795   4.219
 4089SOL    HW113166   0.209   5.880   4.226
 4089SOL    HW213167   0.295   5.785   4.126
 4090SOL     OW13168   1.845   5.986   5.378
 4090SOL    HW113169   1.874   5.893   5.401
 4090SOL    HW213170   1.749   5.985   5.350
 4091SOL     OW13171   1.348   5.037   0.187
 4091SOL    HW113172   1.284   5.031   0.111
 4091SOL    HW213173   1.298   5.051   0.272
 4092SOL     OW13174   5.103   3.030   4.018
 4092SOL    HW113175   5.014   3.057   3.981
 4092SOL    HW213176   5.143   2.959   3.961
 4093SOL     OW13177   5.461   6.803   1.734
 4093SOL    HW113178   5.559   6.820   1.741
 4093SOL    HW213179   5.444   6.726   1.673
 4094SOL     OW13180   1.106   4.437   0.049
 4094SOL    HW113181   1.062   4.526   0.046
 4094SOL    HW213182   1.169   4.428   6.995
 4095SOL     OW13183   0.883   3.170   0.081
 4095SOL    HW113184   0.883   3.224   7.019
 4095SOL    HW213185   0.791   3.137   0.101
 4096SOL     OW13186   2.242   0.859   6.159
 4096SOL    HW113187   2.287   0.806   6.231
 4096SOL    HW213188   2.204   0.796   6.091
 4097SOL     OW13189   5.827   4.463   5.400
 4097SOL    HW113190   5.874   4.400   5.462
 4097SOL    HW213191   5.858   4.556   5.417
 4098SOL     OW13192   2.260   2.813   1.417
 4098SOL    HW113193   2.162   2.834   1.410
 4098SOL    HW213194   2.274   2.717   1.393
 4099SOL     OW13195   3.466   5.006   0.278
 4099SOL    HW113196   3.553   5.055   0.275
 4099SOL    HW213197   3.481   4.910   0.256
 4100SOL     OW13198   1.245   1.029   4.096
 4100SOL    HW113199   1.320   1.057   4.157
 4100SOL    HW213200   1.280   1.022   4.002
 4101SOL     OW13201   0.168   1.264   6.079
 4101SOL    HW113202   0.069   1.277   6.081
 4101SOL    HW213203   0.195   1.205   6.156
 4102SOL     OW13204   2.215   1.039   0.899
 4102SOL    HW113205   2.239   1.005   0.808
 4102SOL    HW213206   2.198   1.137   0.896
 4103SOL     OW13207   6.977   0.021   1.876
 4103SOL    HW113208   6.925   0.096   1.835
 4103SOL    HW213209   6.928   7.009   1.957
 4104SOL     OW13210   0.200   4.973   3.925
 4104SOL    HW113211   0.122   5.033   3.914
 4104SOL    HW213212   0.169   4.878   3.933
 4105SOL     OW13213   5.114   1.113   2.118
 4105SOL    HW113214   5.098   1.014   2.113
 4105SOL    HW213215   5.084   1.147   2.207
 4106SOL     OW13216   0.402   2.229   3.359
 4106SOL    HW113217   0.478   2.271   3.409
 4106SOL    HW213218   0.409   2.129   3.366
 4107SOL     OW13219   0.679   6.036   0.112
 4107SOL    HW113220   0.744   6.049   0.186
 4107SOL    HW213221   0.632   5.949   0.123
 4108SOL     OW13222   0.019   5.535   4.825
 4108SOL    HW113223   0.007   5.492   4.736
 4108SOL    HW213224   6.978   5.494   4.890
 4109SOL     OW13225   5.325   6.677   4.235
 4109SOL    HW113226   5.311   6.731   4.317
 4109SOL    HW213227   5.298   6.731   4.155
 4110SOL     OW13228   3.633   3.399   6.328
 4110SOL    HW113229   3.573   3.435   6.399
 4110SOL    HW213230   3.722   3.443   6.335
 4111SOL     OW13231   6.332   4.914   6.473
 4111SOL    HW113232   6.284   4.998   6.450
 4111SOL    HW213233   6.321   4.895   6.571
 4112SOL     OW13234   4.942   6.874   4.600
 4112SOL    HW113235   4.925   6.956   4.546
 4112SOL    HW213236   4.991   6.898   4.684
 4113SOL     OW13237   4.756   5.614   4.435
 4113SOL    HW113238   4.793   5.531   4.479
 4113SOL    HW213239   4.664   5.631   4.469
 4114SOL     OW13240   6.420   1.703   3.220
 4114SOL    HW113241   6.410   1.657   3.131
 4114SOL    HW213242   6.486   1.778   3.210
 4115SOL     OW13243   2.938   4.859   3.299
 4115SOL    HW113244   2.882   4.809   3.365
 4115SOL    HW213245   2.962   4.948   3.336
 4116SOL     OW13246   4.508   2.372   3.774
 4116SOL    HW113247   4.584   2.400   3.716
 4116SOL    HW213248   4.422   2.375   3.722
 4117SOL     OW13249   1.693   2.233   3.231
 4117SOL    HW113250   1.612   2.174   3.222
 4117SOL    HW213251   1.766   2.197   3.173
 4118SOL     OW13252   5.545   6.598   6.583
 4118SOL    HW113253   5.459   6.556   6.556
 4118SOL    HW213254   5.607   6.602   6.505
 4119SOL     OW13255   3.145   1.058   3.391
 4119SOL    HW113256   3.142   1.065   3.292
 4119SOL    HW213257   3.109   1.143   3.431
 4120SOL     OW13258   3.775   1.284   6.166
 4120SOL    HW113259   3.841   1.223   6.209
 4120SOL    HW213260   3.758   1.362   6.227
 4121SOL     OW13261   6.450   0.079   2.652
 4121SOL    HW113262   6.474   0.175   2.668
 4121SOL    HW213263   6.533   0.023   2.657
 4122SOL     OW13264   1.802   6.876   5.004
 4122SOL    HW113265   1.734   6.937   5.045
 4122SOL    HW213266   1.892   6.920   5.006
 4123SOL     OW13267   3.994   4.940   4.148
 4123SOL    HW113268   4.018   4.885   4.069
 4123SOL    HW213269   3.898   4.924   4.172
 4124SOL     OW13270   6.794   6.690   1.163
 4124SOL    HW113271   6.838   6.757   1.103
 4124SOL    HW213272   6.822   6.707   1.257
 4125SOL     OW13273   4.584   2.361   2.564
 4125SOL    HW113274   4.662   2.412   2.528
 4125SOL    HW213275   4.551   2.297   2.495
 4126SOL     OW13276   2.079   3.686   2.605
 4126SOL    HW113277   2.079   3.636   2.692
 4126SOL    HW213278   2.010   3.645   2.544
 4127SOL     OW13279   5.343   2.425   5.317
 4127SOL    HW113280   5.244   2.423   5.303
 4127SOL    HW213281   5.367   2.367   5.395
 4128SOL     OW13282   0.835   3.499   1.324
 4128SOL    HW113283   0.745   3.529   1.292
 4128SOL    HW213284   0.900   3.501   1.248
 4129SOL     OW13285   3.441   1.188   0.764
 4129SOL    HW113286   3.503   1.110   0.753
 4129SOL    HW213287   3.470   1.263   0.705
 4130SOL     OW13288   6.160   2.287   0.482
 4130SOL    HW113289   6.097   2.211   0.500
 4130SOL    HW213290   6.179   2.293   0.384
 4131SOL     OW13291   6.824   1.602   3.038
 4131SOL    HW113292   6.762   1.524   3.029
 4131SOL    HW213293   6.884   1.606   2.957
 4132SOL     OW13294   5.479   4.027   4.785
 4132SOL    HW113295   5.510   4.049   4.878
 4132SOL    HW213296   5.556   4.036   4.721
 4133SOL     OW13297   4.050   6.541   1.531
 4133SOL    HW113298   4.027   6.497   1.618
 4133SOL    HW213299   3.993   6.503   1.459
 4134SOL     OW13300   2.143   3.687   0.487
 4134SOL    HW113301   2.169   3.661   0.394
 4134SOL    HW213302   2.066   3.631   0.517
 4135SOL     OW13303   0.325   2.519   2.383
 4135SOL    HW113304   0.236   2.566   2.381
 4135SOL    HW213305   0.311   2.421   2.374
 4136SOL     OW13306   1.233   4.173   2.263
 4136SOL    HW113307   1.244   4.254   2.205
 4136SOL    HW213308   1.139   4.171   2.298
 4137SOL     OW13309   1.537   3.267   6.528
 4137SOL    HW113310   1.541   3.251   6.627
 4137SOL    HW213311   1.593   3.200   6.480
 4138SOL     OW13312   3.866   5.017   1.564
 4138SOL    HW113313   3.854   4.923   1.594
 4138SOL    HW213314   3.962   5.043   1.572
 4139SOL     OW13315   1.355   1.739   3.744
 4139SOL    HW113316   1.381   1.696   3.658
 4139SOL    HW213317   1.416   1.708   3.817
 4140SOL     OW13318   3.091   1.807   4.101
 4140SOL    HW113319   3.049   1.720   4.075
 4140SOL    HW213320   3.171   1.790   4.158
 4141SOL     OW13321   5.372   0.010   1.101
 4141SOL    HW113322   5.412   0.074   1.035
 4141SOL    HW213323   5.327   6.958   1.052
 4142SOL     OW13324   6.074   3.863   1.567
 4142SOL    HW113325   6.121   3.951   1.567
 4142SOL    HW213326   6.123   3.799   1.508
 4143SOL     OW13327   5.610   2.748   0.294
 4143SOL    HW113328   5.582   2.739   0.390
 4143SOL    HW213329   5.709   2.748   0.288
 4144SOL     OW13330   4.758   1.408   6.810
 4144SOL    HW113331   4.777   1.399   6.712
 4144SOL    HW213332   4.685   1.476   6.824
 4145SOL     OW13333   0.761   6.371   0.369
 4145SOL    HW113334   0.669   6.335   0.350
 4145SOL    HW213335   0.782   6.443   0.303
 4146SOL     OW13336   6.694   0.766   3.557
 4146SOL    HW113337   6.727   0.845   3.506
 4146SOL    HW213338   6.632   0.713   3.500
 4147SOL     OW13339   4.699   4.440   6.501
 4147SOL    HW113340   4.793   4.409   6.484
 4147SOL    HW213341   4.638   4.403   6.431
 4148SOL     OW13342   2.955   0.428   5.630
 4148SOL    HW113343   3.001   0.471   5.708
 4148SOL    HW213344   2.977   0.478   5.546
 4149SOL     OW13345   0.342   3.352   1.512
 4149SOL    HW113346   0.334   3.285   1.438
 4149SOL    HW213347   0.431   3.343   1.555
 4150SOL     OW13348   0.100   1.812   5.250
 4150SOL    HW113349   0.060   1.778   5.165
 4150SOL    HW213350   0.123   1.735   5.309
 4151SOL     OW13351   2.751   6.069   6.160
 4151SOL    HW113352   2.741   5.973   6.134
 4151SOL    HW213353   2.703   6.127   6.095
 4152SOL     OW13354   3.711   5.572   1.702
 4152SOL    HW113355   3.769   5.651   1.724
 4152SOL    HW213356   3.769   5.491   1.691
 4153SOL     OW13357   6.123   5.123   1.483
 4153SOL    HW113358   6.127   5.168   1.572
 4153SOL    HW213359   6.208   5.140   1.433
 4154SOL     OW13360   0.175   6.212   3.900
 4154SOL    HW113361   0.258   6.209   3.956
 4154SOL    HW213362   0.104   6.263   3.949
 4155SOL     OW13363   0.249   1.542   0.813
 4155SOL    HW113364   0.320   1.603   0.779
 4155SOL    HW213365   0.279   1.447   0.803
 4156SOL     OW13366   6.478   5.773   4.890
 4156SOL    HW113367   6.467   5.726   4.978
 4156SOL    HW213368   6.566   5.821   4.889
 4157SOL     OW13369   5.070   6.224   3.419
 4157SOL    HW113370   5.030   6.307   3.380
 4157SOL    HW213371   5.128   6.248   3.497
 4158SOL     OW13372   0.992   2.778   2.358
 4158SOL    HW113373   0.950   2.710   2.298
 4158SOL    HW213374   1.044   2.842   2.302
 4159SOL     OW13375   2.154   2.487   3.599
 4159SOL    HW113376   2.206   2.517   3.519
 4159SOL    HW213377   2.057   2.480   3.576
 4160SOL     OW13378   5.711   6.643   0.128
 4160SOL    HW113379   5.785   6.661   0.063
 4160SOL    HW213380   5.738   6.675   0.219
 4161SOL     OW13381   1.722   1.992   1.673
 4161SOL    HW113382   1.666   2.066   1.710
 4161SOL    HW213383   1.685   1.904   1.703
 4162SOL     OW13384   6.238   5.873   0.387
 4162SOL    HW113385   6.254   5.813   0.465
 4162SOL    HW213386   6.241   5.968   0.417
 4163SOL     OW13387   5.955   1.395   3.372
 4163SOL    HW113388   5.898   1.406   3.290
 4163SOL    HW213389   6.044   1.438   3.356
 4164SOL     OW13390   1.248   0.099   4.660
 4164SOL    HW113391   1.267   0.183   4.711
 4164SOL    HW213392   1.157   0.065   4.685
 4165SOL     OW13393   4.969   0.276   5.597
 4165SOL    HW113394   4.992   0.269   5.500
 4165SOL    HW213395   5.049   0.305   5.648
 4166SOL     OW13396   5.028   1.354   1.569
 4166SOL    HW113397   4.931   1.380   1.570
 4166SOL    HW213398   5.037   1.260   1.604
 4167SOL     OW13399   3.431   4.994   6.916
 4167SOL    HW113400   3.474   4.905   6.906
 4167SOL    HW213401   3.461   5.055   6.843
 4168SOL     OW13402   0.081   3.912   1.256
 4168SOL    HW113403   0.043   3.853   1.327
 4168SOL    HW213404   0.023   3.908   1.174
 4169SOL     OW13405   6.056   4.632   5.047
 4169SOL    HW113406   6.125   4.561   5.060
 4169SOL    HW213407   6.067   4.704   5.115
 4170SOL     OW13408   4.821   2.999   5.162
 4170SOL    HW113409   4.811   2.905   5.128
 4170SOL    HW213410   4.747   3.020   5.225
 4171SOL     OW13411   6.781   4.905   1.273
 4171SOL    HW113412   6.731   4.848   1.337
 4171SOL    HW213413   6.854   4.852   1.230
 4172SOL     OW13414   2.161   2.526   0.218
 4172SOL    HW113415   2.166   2.448   0.155
 4172SOL    HW213416   2.200   2.607   0.175
 4173SOL     OW13417   5.452   3.361   4.884
 4173SOL    HW113418   5.361   3.343   4.924
 4173SOL    HW213419   5.488   3.447   4.922
 4174SOL     OW13420   4.885   1.585   2.245
 4174SOL    HW113421   4.959   1.600   2.310
 4174SOL    HW213422   4.821   1.662   2.248
 4175SOL     OW13423   1.925   4.482   4.722
 4175SOL    HW113424   2.003   4.520   4.673
 4175SOL    HW213425   1.949   4.471   4.819
 4176SOL     OW13426   4.129   6.709   1.115
 4176SOL    HW113427   4.199   6.737   1.181
 4176SOL    HW213428   4.135   6.611   1.098
 4177SOL     OW13429   5.677   4.874   5.374
 4177SOL    HW113430   5.695   4.887   5.277
 4177SOL    HW213431   5.579   4.872   5.390
 4178SOL     OW13432   4.310   6.916   3.745
 4178SOL    HW113433   4.350   6.839   3.795
 4178SOL    HW213434   4.266   6.979   3.809
 4179SOL     OW13435   5.158   3.948   3.343
 4179SOL    HW113436   5.236   3.886   3.332
 4179SOL    HW213437   5.122   3.973   3.254
 4180SOL     OW13438   4.692   2.551   0.388
 4180SOL    HW113439   4.627   2.627   0.385
 4180SOL    HW213440   4.645   2.466   0.364
 4181SOL     OW13441   4.246   0.650   0.147
 4181SOL    HW113442   4.186   0.573   0.124
 4181SOL    HW213443   4.195   0.736   0.140
 4182SOL     OW13444   0.425   5.334   3.469
 4182SOL    HW113445   0.380   5.248   3.493
 4182SOL    HW213446   0.411   5.353   3.372
 4183SOL     OW13447   2.822   1.930   0.910
 4183SOL    HW113448   2.749   1.974   0.963
 4183SOL    HW213449   2.791   1.842   0.876
 4184SOL     OW13450   3.508   6.812   2.301
 4184SOL    HW113451   3.531   6.750   2.377
 4184SOL    HW213452   3.475   6.898   2.338
 4185SOL     OW13453   0.527   4.578   3.262
 4185SOL    HW113454   0.439   4.530   3.259
 4185SOL    HW213455   0.533   4.641   3.185
 4186SOL     OW13456   2.107   5.039   6.856
 4186SOL    HW113457   2.153   5.020   6.769
 4186SOL    HW213458   2.090   4.954   6.905
 4187SOL     OW13459   2.385   3.098   5.703
 4187SOL    HW113460   2.334   3.175   5.740
 4187SOL    HW213461   2.368   3.017   5.759
 4188SOL     OW13462   5.442   0.511   4.928
 4188SOL    HW113463   5.345   0.526   4.948
 4188SOL    HW213464   5.464   0.550   4.839
 4189SOL     OW13465   3.216   5.048   4.510
 4189SOL    HW113466   3.150   5.017   4.579
 4189SOL    HW213467   3.203   4.996   4.426
 4190SOL     OW13468   0.912   0.468   1.480
 4190SOL    HW113469   0.891   0.406   1.555
 4190SOL    HW213470   1.008   0.495   1.484
 4191SOL     OW13471   4.907   4.615   4.662
 4191SOL    HW113472   4.967   4.609   4.582
 4191SOL    HW213473   4.850   4.697   4.655
 4192SOL     OW13474   0.669   1.690   3.117
 4192SOL    HW113475   0.677   1.712   3.020
 4192SOL    HW213476   0.710   1.763   3.172
 4193SOL     OW13477   5.826   0.394   0.978
 4193SOL    HW113478   5.790   0.482   0.946
 4193SOL    HW213479   5.896   0.410   1.047
 4194SOL     OW13480   4.856   0.456   4.317
 4194SOL    HW113481   4.801   0.413   4.389
 4194SOL    HW213482   4.806   0.451   4.230
 4195SOL     OW13483   4.081   5.473   1.604
 4195SOL    HW113484   4.041   5.484   1.513
 4195SOL    HW213485   4.069   5.379   1.635
 4196SOL     OW13486   6.279   2.830   2.717
 4196SOL    HW113487   6.298   2.926   2.697
 4196SOL    HW213488   6.183   2.811   2.698
 4197SOL     OW13489   4.791   5.656   5.921
 4197SOL    HW113490   4.722   5.596   5.880
 4197SOL    HW213491   4.839   5.707   5.849
 4198SOL     OW13492   5.717   2.113   0.670
 4198SOL    HW113493   5.814   2.128   0.690
 4198SOL    HW213494   5.664   2.191   0.704
 4199SOL     OW13495   1.141   2.684   5.825
 4199SOL    HW113496   1.168   2.741   5.901
 4199SOL    HW213497   1.065   2.624   5.852
 4200SOL     OW13498   3.217   0.253   6.214
 4200SOL    HW113499   3.133   0.203   6.192
 4200SOL    HW213500   3.224   0.335   6.157
 4201SOL     OW13501   5.431   6.893   3.442
 4201SOL    HW113502   5.427   6.827   3.367
 4201SOL    HW213503   5.363   6.964   3.428
 4202SOL     OW13504   3.252   5.365   6.174
 4202SOL    HW113505   3.292   5.303   6.241
 4202SOL    HW213506   3.204   5.439   6.222
 4203SOL     OW13507   4.158   3.995   0.497
 4203SOL    HW113508   4.078   4.036   0.453
 4203SOL    HW213509   4.240   4.045   0.469
 4204SOL     OW13510   4.126   3.720   4.129
 4204SOL    HW113511   4.216   3.764   4.130
 4204SOL    HW213512   4.119   3.660   4.050
 4205SOL     OW13513   4.423   6.412   4.192
 4205SOL    HW113514   4.518   6.437   4.207
 4205SOL    HW213515   4.416   6.314   4.178
 4206SOL     OW13516   6.055   1.246   5.360
 4206SOL    HW113517   6.026   1.339   5.381
 4206SOL    HW213518   6.099   1.205   5.440
 4207SOL     OW13519   2.230   2.371   2.047
 4207SOL    HW113520   2.327   2.389   2.064
 4207SOL    HW213521   2.196   2.434   1.977
 4208SOL     OW13522   6.971   3.603   5.436
 4208SOL    HW113523   7.005   3.534   5.372
 4208SOL    HW213524   6.915   3.669   5.387
 4209SOL     OW13525   6.944   6.534   3.993
 4209SOL    HW113526   6.988   6.562   3.908
 4209SOL    HW213527   7.007   6.549   4.069
 4210SOL     OW13528   3.809   3.693   2.405
 4210SOL    HW113529   3.906   3.704   2.384
 4210SOL    HW213530   3.761   3.778   2.387
 4211SOL     OW13531   3.668   0.944   5.934
 4211SOL    HW113532   3.628   0.873   5.876
 4211SOL    HW213533   3.683   0.907   6.026
 4212SOL     OW13534   6.168   2.354   2.498
 4212SOL    HW113535   6.255   2.309   2.518
 4212SOL    HW213536   6.095   2.286   2.493
 4213SOL     OW13537   2.483   0.300   2.309
 4213SOL    HW113538   2.443   0.221   2.356
 4213SOL    HW213539   2.419   0.377   2.312
 4214SOL     OW13540   0.819   5.739   5.425
 4214SOL    HW113541   0.832   5.704   5.332
 4214SOL    HW213542   0.905   5.731   5.476
 4215SOL     OW13543   4.531   0.107   6.017
 4215SOL    HW113544   4.470   0.165   6.072
 4215SOL    HW213545   4.482   0.024   5.990
 4216SOL     OW13546   1.839   1.004   3.180
 4216SOL    HW113547   1.916   1.055   3.216
 4216SOL    HW213548   1.753   1.047   3.209
 4217SOL     OW13549   1.277   0.984   2.924
 4217SOL    HW113550   1.212   0.944   2.859
 4217SOL    HW213551   1.319   0.910   2.978
 4218SOL     OW13552   3.339   1.190   1.517
 4218SOL    HW113553   3.292   1.127   1.579
 4218SOL    HW213554   3.366   1.143   1.434
 4219SOL     OW13555   4.032   5.780   4.001
 4219SOL    HW113556   3.966   5.845   4.039
 4219SOL    HW213557   3.991   5.733   3.923
 4220SOL     OW13558   6.822   3.312   3.496
 4220SOL    HW113559   6.761   3.313   3.417
 4220SOL    HW213560   6.772   3.284   3.578
 4221SOL     OW13561   6.051   5.285   6.351
 4221SOL    HW113562   5.960   5.302   6.315
 4221SOL    HW213563   6.104   5.232   6.284
 4222SOL     OW13564   0.388   1.547   1.946
 4222SOL    HW113565   0.443   1.617   1.991
 4222SOL    HW213566   0.354   1.482   2.014
 4223SOL     OW13567   3.529   3.466   0.280
 4223SOL    HW113568   3.585   3.515   0.346
 4223SOL    HW213569   3.569   3.474   0.189
 4224SOL     OW13570   5.285   4.674   4.081
 4224SOL    HW113571   5.340   4.753   4.110
 4224SOL    HW213572   5.339   4.616   4.020
 4225SOL     OW13573   2.387   2.538   5.273
 4225SOL    HW113574   2.346   2.616   5.226
 4225SOL    HW213575   2.474   2.565   5.315
 4226SOL     OW13576   0.534   6.982   2.751
 4226SOL    HW113577   0.501   6.971   2.658
 4226SOL    HW213578   0.588   6.901   2.777
 4227SOL     OW13579   3.699   5.278   1.489
 4227SOL    HW113580   3.652   5.350   1.540
 4227SOL    HW213581   3.770   5.238   1.546
 4228SOL     OW13582   1.186   5.504   5.230
 4228SOL    HW113583   1.274   5.525   5.273
 4228SOL    HW213584   1.194   5.418   5.179
 4229SOL     OW13585   4.698   6.133   6.025
 4229SOL    HW113586   4.702   6.195   6.103
 4229SOL    HW213587   4.766   6.160   5.957
 4230SOL     OW13588   0.498   5.970   2.839
 4230SOL    HW113589   0.400   5.981   2.855
 4230SOL    HW213590   0.514   5.940   2.745
 4231SOL     OW13591   5.611   6.854   5.960
 4231SOL    HW113592   5.514   6.847   5.984
 4231SOL    HW213593   5.664   6.790   6.016
 4232SOL     OW13594   0.224   4.657   3.559
 4232SOL    HW113595   0.322   4.673   3.555
 4232SOL    HW213596   0.199   4.587   3.492
 4233SOL     OW13597   6.113   0.176   6.012
 4233SOL    HW113598   6.056   0.246   6.055
 4233SOL    HW213599   6.174   0.219   5.945
 4234SOL     OW13600   2.330   5.583   4.961
 4234SOL    HW113601   2.376   5.497   4.937
 4234SOL    HW213602   2.399   5.655   4.973
 4235SOL     OW13603   5.372   4.225   6.175
 4235SOL    HW113604   5.415   4.218   6.265
 4235SOL    HW213605   5.381   4.138   6.126
 4236SOL     OW13606   6.445   3.518   2.149
 4236SOL    HW113607   6.454   3.598   2.090
 4236SOL    HW213608   6.355   3.519   2.194
 4237SOL     OW13609   5.309   5.876   3.428
 4237SOL    HW113610   5.386   5.850   3.371
 4237SOL    HW213611   5.341   5.895   3.521
 4238SOL     OW13612   2.116   6.222   2.378
 4238SOL    HW113613   2.023   6.250   2.400
 4238SOL    HW213614   2.166   6.299   2.339
 4239SOL     OW13615   5.087   0.977   2.497
 4239SOL    HW113616   5.033   1.014   2.573
 4239SOL    HW213617   5.046   0.891   2.465
 4240SOL     OW13618   2.388   5.704   0.451
 4240SOL    HW113619   2.429   5.788   0.416
 4240SOL    HW213620   2.390   5.706   0.551
 4241SOL     OW13621   6.009   0.789   0.281
 4241SOL    HW113622   5.991   0.862   0.346
 4241SOL    HW213623   6.105   0.790   0.253
 4242SOL     OW13624   3.467   1.899   4.179
 4242SOL    HW113625   3.408   1.823   4.205
 4242SOL    HW213626   3.563   1.876   4.198
 4243SOL     OW13627   6.622   3.139   2.438
 4243SOL    HW113628   6.601   3.227   2.479
 4243SOL    HW213629   6.641   3.151   2.340
 4244SOL     OW13630   4.297   4.417   1.718
 4244SOL    HW113631   4.361   4.353   1.760
 4244SOL    HW213632   4.317   4.510   1.749
 4245SOL     OW13633   6.710   1.050   6.391
 4245SOL    HW113634   6.772   1.007   6.325
 4245SOL    HW213635   6.690   1.144   6.361
 4246SOL     OW13636   6.939   4.134   3.222
 4246SOL    HW113637   6.855   4.117   3.170
 4246SOL    HW213638   6.957   4.055   3.282
 4247SOL     OW13639   2.535   6.399   3.695
 4247SOL    HW113640   2.477   6.412   3.614
 4247SOL    HW213641   2.631   6.397   3.666
 4248SOL     OW13642   3.430   1.359   3.633
 4248SOL    HW113643   3.505   1.421   3.657
 4248SOL    HW213644   3.449   1.268   3.670
 4249SOL     OW13645   5.984   2.944   4.506
 4249SOL    HW113646   6.026   2.940   4.415
 4249SOL    HW213647   5.987   2.853   4.547
 4250SOL     OW13648   6.620   4.644   2.679
 4250SOL    HW113649   6.528   4.608   2.690
 4250SOL    HW213650   6.662   4.657   2.769
 4251SOL     OW13651   5.625   4.715   1.393
 4251SOL    HW113652   5.694   4.776   1.353
 4251SOL    HW213653   5.663   4.624   1.405
 4252SOL     OW13654   5.570   6.065   5.843
 4252SOL    HW113655   5.526   5.987   5.799
 4252SOL    HW213656   5.576   6.048   5.941
 4253SOL     OW13657   3.648   6.469   0.686
 4253SOL    HW113658   3.640   6.566   0.661
 4253SOL    HW213659   3.568   6.420   0.653
 4254SOL     OW13660   0.786   2.980   2.071
 4254SOL    HW113661   0.789   2.981   1.971
 4254SOL    HW213662   0.876   2.956   2.107
 4255SOL     OW13663   6.154   3.941   3.637
 4255SOL    HW113664   6.198   3.852   3.639
 4255SOL    HW213665   6.223   4.013   3.647
 4256SOL     OW13666   2.271   6.685   6.997
 4256SOL    HW113667   2.294   6.618   0.045
 4256SOL    HW213668   2.205   6.645   6.933
 4257SOL     OW13669   2.576   0.504   4.474
 4257SOL    HW113670   2.568   0.445   4.554
 4257SOL    HW213671   2.591   0.448   4.392
 4258SOL     OW13672   4.916   6.584   0.717
 4258SOL    HW113673   4.961   6.644   0.783
 4258SOL    HW213674   4.872   6.508   0.766
 4259SOL     OW13675   2.773   1.261   0.648
 4259SOL    HW113676   2.791   1.174   0.695
 4259SOL    HW213677   2.857   1.314   0.642
 4260SOL     OW13678   5.106   0.371   0.484
 4260SOL    HW113679   5.125   0.381   0.582
 4260SOL    HW213680   5.191   0.382   0.433
 4261SOL     OW13681   1.900   6.841   1.976
 4261SOL    HW113682   1.807   6.812   1.952
 4261SOL    HW213683   1.936   6.900   1.904
 4262SOL     OW13684   0.530   4.838   5.602
 4262SOL    HW113685   0.537   4.745   5.638
 4262SOL    HW213686   0.543   4.903   5.676
 4263SOL     OW13687   2.415   6.426   3.451
 4263SOL    HW113688   2.399   6.396   3.356
 4263SOL    HW213689   2.329   6.459   3.490
 4264SOL     OW13690   0.324   2.748   2.856
 4264SOL    HW113691   0.325   2.656   2.815
 4264SOL    HW213692   0.267   2.808   2.800
 4265SOL     OW13693   5.333   1.499   0.600
 4265SOL    HW113694   5.338   1.554   0.684
 4265SOL    HW213695   5.309   1.558   0.523
 4266SOL     OW13696   1.767   5.282   0.305
 4266SOL    HW113697   1.857   5.260   0.267
 4266SOL    HW213698   1.738   5.372   0.272
 4267SOL     OW13699   1.914   3.289   4.796
 4267SOL    HW113700   2.001   3.299   4.749
 4267SOL    HW213701   1.854   3.229   4.742
 4268SOL     OW13702   1.289   6.137   6.204
 4268SOL    HW113703   1.257   6.056   6.254
 4268SOL    HW213704   1.323   6.204   6.270
 4269SOL     OW13705   2.402   0.707   1.699
 4269SOL    HW113706   2.360   0.773   1.763
 4269SOL    HW213707   2.336   0.636   1.678
 4270SOL     OW13708   4.119   3.557   3.919
 4270SOL    HW113709   4.103   3.459   3.927
 4270SOL    HW213710   4.110   3.585   3.823
 4271SOL     OW13711   6.587   0.918   6.580
 4271SOL    HW113712   6.521   0.972   6.631
 4271SOL    HW213713   6.632   0.975   6.512
 4272SOL     OW13714   6.433   2.993   4.608
 4272SOL    HW113715   6.513   2.950   4.650
 4272SOL    HW213716   6.428   3.089   4.637
 4273SOL     OW13717   4.451   6.554   4.994
 4273SOL    HW113718   4.417   6.460   4.984
 4273SOL    HW213719   4.456   6.597   4.904
 4274SOL     OW13720   1.125   6.195   1.865
 4274SOL    HW113721   1.201   6.168   1.805
 4274SOL    HW213722   1.055   6.239   1.810
 4275SOL     OW13723   6.608   0.625   3.876
 4275SOL    HW113724   6.594   0.548   3.938
 4275SOL    HW213725   6.522   0.675   3.866
 4276SOL     OW13726   2.094   5.135   3.092
 4276SOL    HW113727   2.180   5.186   3.086
 4276SOL    HW213728   2.111   5.038   3.075
 4277SOL     OW13729   6.332   4.515   4.265
 4277SOL    HW113730   6.284   4.499   4.179
 4277SOL    HW213731   6.329   4.432   4.321
 4278SOL     OW13732   0.066   0.242   4.267
 4278SOL    HW113733   7.017   0.191   4.314
 4278SOL    HW213734   0.024   0.308   4.204
 4279SOL     OW13735   3.273   1.045   4.231
 4279SOL    HW113736   3.271   0.977   4.157
 4279SOL    HW213737   3.348   1.023   4.294
 4280SOL     OW13738   4.806   0.244   6.275
 4280SOL    HW113739   4.725   0.190   6.255
 4280SOL    HW213740   4.846   0.214   6.362
 4281SOL     OW13741   0.762   5.035   3.842
 4281SOL    HW113742   0.798   4.995   3.758
 4281SOL    HW213743   0.685   5.096   3.820
 4282SOL     OW13744   3.652   4.246   6.109
 4282SOL    HW113745   3.748   4.240   6.136
 4282SOL    HW213746   3.644   4.237   6.010
 4283SOL     OW13747   1.520   0.794   3.728
 4283SOL    HW113748   1.440   0.744   3.761
 4283SOL    HW213749   1.576   0.733   3.671
 4284SOL     OW13750   4.255   4.671   1.855
 4284SOL    HW113751   4.159   4.674   1.826
 4284SOL    HW213752   4.305   4.748   1.816
 4285SOL     OW13753   0.600   0.794   6.172
 4285SOL    HW113754   0.512   0.785   6.126
 4285SOL    HW213755   0.632   0.704   6.201
 4286SOL     OW13756   4.905   5.968   6.065
 4286SOL    HW113757   4.821   6.017   6.045
 4286SOL    HW213758   4.901   5.930   6.157
 4287SOL     OW13759   5.673   2.500   6.442
 4287SOL    HW113760   5.635   2.560   6.513
 4287SOL    HW213761   5.681   2.552   6.357
 4288SOL     OW13762   0.821   6.218   3.667
 4288SOL    HW113763   0.877   6.224   3.584
 4288SOL    HW213764   0.737   6.270   3.653
 4289SOL     OW13765   6.907   2.848   0.432
 4289SOL    HW113766   6.829   2.802   0.473
 4289SOL    HW213767   6.883   2.943   0.410
 4290SOL     OW13768   1.478   6.779   2.615
 4290SOL    HW113769   1.524   6.768   2.703
 4290SOL    HW213770   1.453   6.690   2.579
 4291SOL     OW13771   4.094   3.525   1.600
 4291SOL    HW113772   4.165   3.458   1.577
 4291SOL    HW213773   4.099   3.602   1.536
 4292SOL     OW13774   6.324   4.124   0.059
 4292SOL    HW113775   6.406   4.163   0.100
 4292SOL    HW213776   6.244   4.174   0.091
 4293SOL     OW13777   2.048   3.331   0.366
 4293SOL    HW113778   2.083   3.264   0.431
 4293SOL    HW213779   2.018   3.284   0.283
 4294SOL     OW13780   2.686   3.069   6.766
 4294SOL    HW113781   2.740   3.111   6.693
 4294SOL    HW213782   2.741   3.063   6.849
 4295SOL     OW13783   4.014   5.179   3.720
 4295SOL    HW113784   4.041   5.275   3.727
 4295SOL    HW213785   4.087   5.121   3.756
 4296SOL     OW13786   4.234   0.678   0.431
 4296SOL    HW113787   4.227   0.579   0.445
 4296SOL    HW213788   4.189   0.703   0.345
 4297SOL     OW13789   5.103   0.866   6.716
 4297SOL    HW113790   5.172   0.850   6.788
 4297SOL    HW213791   5.059   0.954   6.732
 4298SOL     OW13792   3.610   5.770   0.728
 4298SOL    HW113793   3.655   5.856   0.753
 4298SOL    HW213794   3.651   5.695   0.779
 4299SOL     OW13795   1.182   2.521   6.654
 4299SOL    HW113796   1.099   2.567   6.622
 4299SOL    HW213797   1.215   2.567   6.737
 4300SOL     OW13798   4.177   0.331   6.958
 4300SOL    HW113799   4.130   0.279   0.008
 4300SOL    HW213800   4.269   0.354   6.989
 4301SOL     OW13801   3.942   1.379   1.559
 4301SOL    HW113802   3.979   1.370   1.652
 4301SOL    HW213803   3.987   1.313   1.499
 4302SOL     OW13804   1.446   6.444   6.045
 4302SOL    HW113805   1.396   6.461   6.131
 4302SOL    HW213806   1.398   6.489   5.970
 4303SOL     OW13807   6.752   4.914   4.557
 4303SOL    HW113808   6.755   4.827   4.606
 4303SOL    HW213809   6.679   4.911   4.488
 4304SOL     OW13810   3.110   3.967   3.204
 4304SOL    HW113811   3.186   4.008   3.153
 4304SOL    HW213812   3.079   3.885   3.157
 4305SOL     OW13813   6.307   0.628   4.431
 4305SOL    HW113814   6.266   0.537   4.444
 4305SOL    HW213815   6.380   0.621   4.363
 4306SOL     OW13816   5.833   3.807   6.630
 4306SOL    HW113817   5.821   3.741   6.556
 4306SOL    HW213818   5.743   3.838   6.662
 4307SOL     OW13819   3.915   4.170   6.188
 4307SOL    HW113820   3.912   4.115   6.104
 4307SOL    HW213821   3.990   4.138   6.246
 4308SOL     OW13822   5.889   5.463   6.730
 4308SOL    HW113823   5.895   5.410   6.815
 4308SOL    HW213824   5.885   5.400   6.652
 4309SOL     OW13825   0.805   1.344   0.075
 4309SOL    HW113826   0.714   1.360   0.114
 4309SOL    HW213827   0.824   1.246   0.077
 4310SOL     OW13828   1.480   2.888   2.794
 4310SOL    HW113829   1.435   2.871   2.707
 4310SOL    HW213830   1.422   2.947   2.850
 4311SOL     OW13831   1.826   6.172   3.126
 4311SOL    HW113832   1.828   6.076   3.154
 4311SOL    HW213833   1.845   6.177   3.028
 4312SOL     OW13834   1.348   4.518   0.957
 4312SOL    HW113835   1.255   4.533   0.925
 4312SOL    HW213836   1.405   4.485   0.882
 4313SOL     OW13837   4.957   1.541   1.982
 4313SOL    HW113838   5.002   1.454   1.962
 4313SOL    HW213839   4.936   1.547   2.079
 4314SOL     OW13840   5.977   0.842   3.915
 4314SOL    HW113841   6.062   0.810   3.957
 4314SOL    HW213842   5.933   0.767   3.866
 4315SOL     OW13843   2.357   0.118   1.524
 4315SOL    HW113844   2.366   0.203   1.473
 4315SOL    HW213845   2.326   0.045   1.462
 4316SOL     OW13846   5.205   0.306   2.048
 4316SOL    HW113847   5.249   0.359   1.975
 4316SOL    HW213848   5.143   0.366   2.099
 4317SOL     OW13849   4.664   1.777   4.621
 4317SOL    HW113850   4.590   1.710   4.612
 4317SOL    HW213851   4.658   1.821   4.710
 4318SOL     OW13852   0.591   3.988   4.707
 4318SOL    HW113853   0.525   3.914   4.719
 4318SOL    HW213854   0.551   4.059   4.650
 4319SOL     OW13855   2.020   2.599   0.828
 4319SOL    HW113856   1.998   2.518   0.774
 4319SOL    HW213857   2.117   2.620   0.819
 4320SOL     OW13858   6.475   5.917   1.435
 4320SOL    HW113859   6.562   5.966   1.441
 4320SOL    HW213860   6.400   5.978   1.459
 4321SOL     OW13861   0.080   6.892   5.810
 4321SOL    HW113862   0.132   6.881   5.725
 4321SOL    HW213863   0.028   6.809   5.827
 4322SOL     OW13864   6.503   2.645   6.437
 4322SOL    HW113865   6.537   2.556   6.466
 4322SOL    HW213866   6.580   2.701   6.405
 4323SOL     OW13867   4.706   3.826   0.880
 4323SOL    HW113868   4.689   3.921   0.853
 4323SOL    HW213869   4.653   3.805   0.962
 4324SOL     OW13870   5.564   4.249   6.362
 4324SOL    HW113871   5.546   4.265   6.459
 4324SOL    HW213872   5.642   4.303   6.333
 4325SOL     OW13873   2.566   1.447   1.413
 4325SOL    HW113874   2.474   1.474   1.385
 4325SOL    HW213875   2.600   1.512   1.481
 4326SOL     OW13876   4.840   4.913   5.209
 4326SOL    HW113877   4.877   4.857   5.134
 4326SOL    HW213878   4.757   4.960   5.178
 4327SOL     OW13879   5.658   5.945   1.910
 4327SOL    HW113880   5.660   6.043   1.931
 4327SOL    HW213881   5.698   5.894   1.986
 4328SOL     OW13882   4.691   3.650   5.493
 4328SOL    HW113883   4.616   3.599   5.452
 4328SOL    HW213884   4.761   3.667   5.424
 4329SOL     OW13885   4.305   1.459   5.951
 4329SOL    HW113886   4.216   1.431   5.986
 4329SOL    HW213887   4.293   1.528   5.879
 4330SOL     OW13888   2.484   0.210   5.020
 4330SOL    HW113889   2.407   0.198   4.958
 4330SOL    HW213890   2.479   0.301   5.062
 4331SOL     OW13891   5.438   2.321   1.505
 4331SOL    HW113892   5.458   2.223   1.501
 4331SOL    HW213893   5.394   2.350   1.420
 4332SOL     OW13894   5.196   4.399   2.318
 4332SOL    HW113895   5.141   4.444   2.389
 4332SOL    HW213896   5.226   4.310   2.352
 4333SOL     OW13897   3.718   0.164   5.185
 4333SOL    HW113898   3.690   0.156   5.089
 4333SOL    HW213899   3.815   0.141   5.194
 4334SOL     OW13900   1.775   2.817   2.505
 4334SOL    HW113901   1.819   2.876   2.573
 4334SOL    HW213902   1.802   2.846   2.413
 4335SOL     OW13903   3.715   3.463   2.535
 4335SOL    HW113904   3.685   3.396   2.467
 4335SOL    HW213905   3.777   3.529   2.492
 4336SOL     OW13906   2.136   6.620   6.772
 4336SOL    HW113907   2.047   6.664   6.768
 4336SOL    HW213908   2.172   6.609   6.679
 4337SOL     OW13909   0.337   4.498   0.756
 4337SOL    HW113910   0.258   4.454   0.799
 4337SOL    HW213911   0.307   4.583   0.712
 4338SOL     OW13912   5.549   5.715   4.976
 4338SOL    HW113913   5.601   5.657   4.914
 4338SOL    HW213914   5.608   5.788   5.011
 4339SOL     OW13915   5.476   3.420   5.203
 4339SOL    HW113916   5.480   3.498   5.141
 4339SOL    HW213917   5.407   3.355   5.170
 4340SOL     OW13918   6.566   3.536   1.354
 4340SOL    HW113919   6.620   3.452   1.349
 4340SOL    HW213920   6.565   3.581   1.265
 4341SOL     OW13921   0.747   5.854   1.921
 4341SOL    HW113922   0.771   5.761   1.891
 4341SOL    HW213923   0.823   5.916   1.901
 4342SOL     OW13924   5.858   3.692   4.297
 4342SOL    HW113925   5.927   3.715   4.228
 4342SOL    HW213926   5.781   3.647   4.253
 4343SOL     OW13927   2.560   5.870   5.611
 4343SOL    HW113928   2.507   5.853   5.694
 4343SOL    HW213929   2.505   5.849   5.531
 4344SOL     OW13930   1.352   5.089   2.679
 4344SOL    HW113931   1.264   5.067   2.722
 4344SOL    HW213932   1.352   5.054   2.585
 4345SOL     OW13933   2.853   3.234   5.326
 4345SOL    HW113934   2.947   3.228   5.295
 4345SOL    HW213935   2.813   3.142   5.330
 4346SOL     OW13936   1.876   2.906   2.271
 4346SOL    HW113937   1.975   2.898   2.280
 4346SOL    HW213938   1.847   2.999   2.290
 4347SOL     OW13939   6.097   6.942   2.898
 4347SOL    HW113940   6.055   6.860   2.937
 4347SOL    HW213941   6.188   6.918   2.862
 4348SOL     OW13942   7.002   4.362   2.932
 4348SOL    HW113943   0.047   4.290   2.915
 4348SOL    HW213944   7.001   4.426   2.855
 4349SOL     OW13945   7.003   1.657   2.842
 4349SOL    HW113946   0.079   1.638   2.842
 4349SOL    HW213947   6.988   1.754   2.860
 4350SOL     OW13948   5.062   1.655   4.207
 4350SOL    HW113949   5.041   1.588   4.278
 4350SOL    HW213950   5.138   1.713   4.237
 4351SOL     OW13951   2.297   5.538   1.381
 4351SOL    HW113952   2.338   5.608   1.322
 4351SOL    HW213953   2.370   5.486   1.426
 4352SOL     OW13954   0.701   3.230   2.586
 4352SOL    HW113955   0.628   3.289   2.552
 4352SOL    HW213956   0.672   3.134   2.583
 4353SOL     OW13957   3.417   3.476   6.537
 4353SOL    HW113958   3.412   3.384   6.575
 4353SOL    HW213959   3.325   3.512   6.524
 4354SOL     OW13960   2.365   0.206   5.731
 4354SOL    HW113961   2.446   0.178   5.679
 4354SOL    HW213962   2.299   0.248   5.669
 4355SOL     OW13963   2.957   0.153   2.223
 4355SOL    HW113964   3.038   0.189   2.270
 4355SOL    HW213965   2.876   0.169   2.278
 4356SOL     OW13966   5.345   4.137   0.680
 4356SOL    HW113967   5.248   4.126   0.657
 4356SOL    HW213968   5.379   4.054   0.724
 4357SOL     OW13969   6.539   0.795   0.311
 4357SOL    HW113970   6.458   0.847   0.337
 4357SOL    HW213971   6.609   0.857   0.275
 4358SOL     OW13972   0.546   6.286   0.130
 4358SOL    HW113973   0.610   6.361   0.146
 4358SOL    HW213974   0.597   6.201   0.117
 4359SOL     OW13975   2.339   1.970   6.647
 4359SOL    HW113976   2.410   2.041   6.652
 4359SOL    HW213977   2.266   2.001   6.586
 4360SOL     OW13978   1.278   2.166   3.801
 4360SOL    HW113979   1.251   2.070   3.805
 4360SOL    HW213980   1.259   2.210   3.889
 4361SOL     OW13981   2.320   3.094   1.121
 4361SOL    HW113982   2.268   3.161   1.068
 4361SOL    HW213983   2.258   3.024   1.157
 4362SOL     OW13984   5.789   5.669   3.047
 4362SOL    HW113985   5.855   5.673   2.972
 4362SOL    HW213986   5.791   5.579   3.088
 4363SOL     OW13987   4.972   3.034   0.559
 4363SOL    HW113988   4.903   2.969   0.592
 4363SOL    HW213989   4.968   3.039   0.459
 4364SOL     OW13990   3.059   4.007   4.636
 4364SOL    HW113991   3.158   4.010   4.619
 4364SOL    HW213992   3.041   3.962   4.723
 4365SOL     OW13993   2.349   1.545   1.710
 4365SOL    HW113994   2.339   1.553   1.809
 4365SOL    HW213995   2.325   1.631   1.666
 4366SOL     OW13996   6.487   6.814   0.163
 4366SOL    HW113997   6.423   6.842   0.234
 4366SOL    HW213998   6.471   6.718   0.138
 4367SOL     OW13999   2.532   4.532   5.002
 4367SOL    HW114000   2.533   4.465   5.076
 4367SOL    HW214001   2.562   4.621   5.037
 4368SOL     OW14002   3.828   4.240   1.232
 4368SOL    HW114003   3.757   4.275   1.171
 4368SOL    HW214004   3.818   4.141   1.242
 4369SOL     OW14005   4.392   5.418   3.084
 4369SOL    HW114006   4.410   5.324   3.054
 4369SOL    HW214007   4.314   5.455   3.033
 4370SOL     OW14008   4.481   5.357   2.525
 4370SOL    HW114009   4.462   5.443   2.478
 4370SOL    HW214010   4.466   5.281   2.462
 4371SOL     OW14011   0.999   2.219   1.490
 4371SOL    HW114012   1.086   2.235   1.536
 4371SOL    HW214013   0.943   2.156   1.544
 4372SOL     OW14014   3.273   1.490   2.853
 4372SOL    HW114015   3.280   1.395   2.823
 4372SOL    HW214016   3.233   1.493   2.945
 4373SOL     OW14017   6.790   2.471   6.462
 4373SOL    HW114018   6.791   2.558   6.510
 4373SOL    HW214019   6.883   2.437   6.451
 4374SOL     OW14020   1.420   1.921   1.831
 4374SOL    HW114021   1.497   1.950   1.887
 4374SOL    HW214022   1.335   1.927   1.884
 4375SOL     OW14023   4.073   0.196   2.974
 4375SOL    HW114024   4.148   0.220   2.913
 4375SOL    HW214025   4.103   0.202   3.069
 4376SOL     OW14026   7.019   6.375   1.237
 4376SOL    HW114027   0.042   6.438   1.173
 4376SOL    HW214028   0.022   6.281   1.214
 4377SOL     OW14029   5.380   4.243   0.982
 4377SOL    HW114030   5.286   4.223   1.009
 4377SOL    HW214031   5.387   4.338   0.954
 4378SOL     OW14032   2.362   2.067   2.858
 4378SOL    HW114033   2.454   2.059   2.896
 4378SOL    HW214034   2.295   2.061   2.931
 4379SOL     OW14035   2.167   1.503   2.406
 4379SOL    HW114036   2.149   1.580   2.467
 4379SOL    HW214037   2.197   1.424   2.461
 4380SOL     OW14038   1.035   6.972   2.156
 4380SOL    HW114039   0.940   7.002   2.165
 4380SOL    HW214040   1.037   6.873   2.145
 4381SOL     OW14041   0.607   5.538   5.052
 4381SOL    HW114042   0.607   5.458   4.993
 4381SOL    HW214043   0.598   5.510   5.147
 4382SOL     OW14044   0.499   3.033   5.202
 4382SOL    HW114045   0.543   2.955   5.247
 4382SOL    HW214046   0.474   3.101   5.272
 4383SOL     OW14047   0.887   2.827   6.607
 4383SOL    HW114048   0.957   2.866   6.547
 4383SOL    HW214049   0.906   2.853   6.702
 4384SOL     OW14050   5.598   0.431   4.714
 4384SOL    HW114051   5.660   0.477   4.650
 4384SOL    HW214052   5.644   0.417   4.801
 4385SOL     OW14053   5.798   2.328   5.204
 4385SOL    HW114054   5.714   2.380   5.193
 4385SOL    HW214055   5.791   2.240   5.158
 4386SOL     OW14056   1.568   4.168   5.665
 4386SOL    HW114057   1.516   4.160   5.581
 4386SOL    HW214058   1.538   4.248   5.716
 4387SOL     OW14059   6.971   2.114   1.580
 4387SOL    HW114060   0.035   2.082   1.619
 4387SOL    HW214061   6.990   2.184   1.511
 4388SOL     OW14062   4.421   2.349   6.085
 4388SOL    HW114063   4.433   2.358   6.184
 4388SOL    HW214064   4.388   2.257   6.064
 4389SOL     OW14065   6.217   3.214   1.532
 4389SOL    HW114066   6.135   3.221   1.476
 4389SOL    HW214067   6.253   3.305   1.550
 4390SOL     OW14068   3.596   6.860   1.362
 4390SOL    HW114069   3.645   6.898   1.283
 4390SOL    HW214070   3.642   6.777   1.392
 4391SOL     OW14071   2.095   5.695   6.975
 4391SOL    HW114072   2.043   5.610   6.967
 4391SOL    HW214073   2.180   5.686   6.924
 4392SOL     OW14074   6.557   3.122   5.248
 4392SOL    HW114075   6.611   3.058   5.303
 4392SOL    HW214076   6.581   3.216   5.273
 4393SOL     OW14077   6.195   0.760   2.265
 4393SOL    HW114078   6.219   0.733   2.172
 4393SOL    HW214079   6.139   0.843   2.262
 4394SOL     OW14080   6.524   5.476   2.105
 4394SOL    HW114081   6.578   5.545   2.153
 4394SOL    HW214082   6.430   5.510   2.093
 4395SOL     OW14083   1.682   0.075   2.017
 4395SOL    HW114084   1.681   6.998   2.013
 4395SOL    HW214085   1.640   0.112   1.934
 4396SOL     OW14086   2.372   1.861   4.366
 4396SOL    HW114087   2.419   1.857   4.454
 4396SOL    HW214088   2.412   1.794   4.304
 4397SOL     OW14089   1.373   2.406   4.273
 4397SOL    HW114090   1.302   2.401   4.343
 4397SOL    HW214091   1.458   2.441   4.314
 4398SOL     OW14092   0.558   3.910   5.614
 4398SOL    HW114093   0.643   3.859   5.605
 4398SOL    HW214094   0.574   4.006   5.592
 4399SOL     OW14095   3.135   6.898   2.739
 4399SOL    HW114096   3.072   6.823   2.760
 4399SOL    HW214097   3.083   6.978   2.708
 4400SOL     OW14098   2.458   6.353   5.629
 4400SOL    HW114099   2.535   6.398   5.583
 4400SOL    HW214100   2.492   6.282   5.691
 4401SOL     OW14101   2.799   6.797   5.741
 4401SOL    HW114102   2.768   6.768   5.650
 4401SOL    HW214103   2.752   6.881   5.767
 4402SOL     OW14104   1.886   1.324   2.439
 4402SOL    HW114105   1.915   1.414   2.471
 4402SOL    HW214106   1.853   1.331   2.345
 4403SOL     OW14107   1.094   0.815   0.517
 4403SOL    HW114108   1.084   0.758   0.599
 4403SOL    HW214109   1.026   0.887   0.518
 4404SOL     OW14110   1.521   5.807   5.817
 4404SOL    HW114111   1.525   5.768   5.909
 4404SOL    HW214112   1.440   5.865   5.810
 4405SOL     OW14113   1.875   3.913   2.015
 4405SOL    HW114114   1.860   4.004   1.975
 4405SOL    HW214115   1.832   3.909   2.105
 4406SOL     OW14116   0.840   2.886   1.069
 4406SOL    HW114117   0.863   2.849   0.979
 4406SOL    HW214118   0.897   2.966   1.088
 4407SOL     OW14119   6.659   5.337   0.857
 4407SOL    HW114120   6.575   5.316   0.807
 4407SOL    HW214121   6.676   5.436   0.854
 4408SOL     OW14122   2.644   0.048   1.127
 4408SOL    HW114123   2.602   7.016   1.055
 4408SOL    HW214124   2.617   0.013   1.216
 4409SOL     OW14125   4.412   1.338   2.170
 4409SOL    HW114126   4.467   1.335   2.086
 4409SOL    HW214127   4.466   1.379   2.243
 4410SOL     OW14128   1.162   4.766   0.049
 4410SOL    HW114129   1.066   4.756   0.021
 4410SOL    HW214130   1.200   4.847   0.004
 4411SOL     OW14131   3.610   4.296   5.323
 4411SOL    HW114132   3.656   4.212   5.349
 4411SOL    HW214133   3.676   4.371   5.321
 4412SOL     OW14134   4.335   6.177   4.010
 4412SOL    HW114135   4.240   6.208   4.021
 4412SOL    HW214136   4.371   6.150   4.099
 4413SOL     OW14137   5.652   4.416   4.365
 4413SOL    HW114138   5.620   4.349   4.298
 4413SOL    HW214139   5.733   4.380   4.412
 4414SOL     OW14140   3.480   5.673   1.299
 4414SOL    HW114141   3.553   5.731   1.334
 4414SOL    HW214142   3.499   5.578   1.323
 4415SOL     OW14143   5.074   2.696   0.568
 4415SOL    HW114144   5.094   2.719   0.473
 4415SOL    HW214145   5.129   2.754   0.628
 4416SOL     OW14146   3.938   1.969   3.953
 4416SOL    HW114147   3.840   1.989   3.960
 4416SOL    HW214148   3.985   2.047   3.910
 4417SOL     OW14149   5.476   3.720   4.073
 4417SOL    HW114150   5.388   3.687   4.108
 4417SOL    HW214151   5.506   3.798   4.128
 4418SOL     OW14152   6.111   1.915   2.035
 4418SOL    HW114153   6.016   1.945   2.023
 4418SOL    HW214154   6.173   1.991   2.015
 4419SOL     OW14155   5.814   6.780   6.159
 4419SOL    HW114156   5.861   6.828   6.233
 4419SOL    HW214157   5.879   6.718   6.114
 4420SOL     OW14158   4.162   1.342   2.062
 4420SOL    HW114159   4.161   1.243   2.072
 4420SOL    HW214160   4.247   1.379   2.098
 4421SOL     OW14161   1.814   1.515   4.722
 4421SOL    HW114162   1.736   1.530   4.783
 4421SOL    HW214163   1.878   1.592   4.729
 4422SOL     OW14164   1.380   4.191   0.095
 4422SOL    HW114165   1.347   4.254   0.166
 4422SOL    HW214166   1.327   4.204   0.012
 4423SOL     OW14167   0.179   3.413   5.374
 4423SOL    HW114168   0.147   3.346   5.441
 4423SOL    HW214169   0.216   3.493   5.421
 4424SOL     OW14170   5.481   0.654   4.367
 4424SOL    HW114171   5.430   0.634   4.283
 4424SOL    HW214172   5.533   0.574   4.395
 4425SOL     OW14173   2.516   4.506   0.278
 4425SOL    HW114174   2.590   4.555   0.232
 4425SOL    HW214175   2.550   4.419   0.312
 4426SOL     OW14176   0.763   1.052   4.176
 4426SOL    HW114177   0.744   0.967   4.127
 4426SOL    HW214178   0.845   1.095   4.138
 4427SOL     OW14179   6.540   6.018   2.332
 4427SOL    HW114180   6.556   5.954   2.407
 4427SOL    HW214181   6.536   6.112   2.367
 4428SOL     OW14182   4.058   1.022   3.395
 4428SOL    HW114183   4.124   1.053   3.327
 4428SOL    HW214184   4.104   0.962   3.461
 4429SOL     OW14185   3.288   6.999   2.216
 4429SOL    HW114186   3.302   0.002   2.121
 4429SOL    HW214187   3.212   6.934   2.223
 4430SOL     OW14188   4.857   4.965   5.491
 4430SOL    HW114189   4.862   4.951   5.392
 4430SOL    HW214190   4.882   5.060   5.512
 4431SOL     OW14191   2.665   1.289   2.946
 4431SOL    HW114192   2.687   1.385   2.931
 4431SOL    HW214193   2.692   1.263   3.039
 4432SOL     OW14194   2.765   3.397   5.885
 4432SOL    HW114195   2.674   3.410   5.923
 4432SOL    HW214196   2.780   3.463   5.811
 4433SOL     OW14197   5.731   1.814   4.350
 4433SOL    HW114198   5.700   1.782   4.440
 4433SOL    HW214199   5.737   1.736   4.288
 4434SOL     OW14200   5.703   1.143   2.512
 4434SOL    HW114201   5.734   1.051   2.487
 4434SOL    HW214202   5.768   1.183   2.577
 4435SOL     OW14203   4.296   3.951   1.123
 4435SOL    HW114204   4.334   3.908   1.205
 4435SOL    HW214205   4.294   3.884   1.049
 4436SOL     OW14206   4.383   0.714   1.437
 4436SOL    HW114207   4.457   0.653   1.466
 4436SOL    HW214208   4.393   0.737   1.341
 4437SOL     OW14209   0.961   2.988   2.781
 4437SOL    HW114210   0.886   3.039   2.738
 4437SOL    HW214211   1.004   2.928   2.713
 4438SOL     OW14212   4.899   0.126   6.521
 4438SOL    HW114213   4.942   0.041   6.490
 4438SOL    HW214214   4.936   0.152   6.610
 4439SOL     OW14215   6.936   4.027   1.839
 4439SOL    HW114216   6.918   4.119   1.872
 4439SOL    HW214217   0.013   4.012   1.834
 4440SOL     OW14218   2.604   4.454   0.687
 4440SOL    HW114219   2.596   4.544   0.729
 4440SOL    HW214220   2.629   4.387   0.757
 4441SOL     OW14221   0.896   1.544   2.245
 4441SOL    HW114222   0.803   1.514   2.225
 4441SOL    HW214223   0.895   1.609   2.321
 4442SOL     OW14224   1.756   5.010   4.253
 4442SOL    HW114225   1.819   4.991   4.178
 4442SOL    HW214226   1.804   5.055   4.327
 4443SOL     OW14227   1.675   3.432   5.621
 4443SOL    HW114228   1.584   3.428   5.662
 4443SOL    HW214229   1.744   3.415   5.691
 4444SOL     OW14230   3.506   4.043   6.203
 4444SOL    HW114231   3.575   3.972   6.195
 4444SOL    HW214232   3.540   4.127   6.160
 4445SOL     OW14233   1.960   6.331   6.794
 4445SOL    HW114234   1.895   6.256   6.777
 4445SOL    HW214235   1.917   6.418   6.769
 4446SOL     OW14236   5.038   1.856   1.334
 4446SOL    HW114237   5.116   1.802   1.303
 4446SOL    HW214238   5.067   1.915   1.410
 4447SOL     OW14239   5.052   4.563   6.083
 4447SOL    HW114240   5.005   4.537   5.999
 4447SOL    HW214241   5.078   4.660   6.078
 4448SOL     OW14242   2.341   4.687   1.403
 4448SOL    HW114243   2.326   4.590   1.422
 4448SOL    HW214244   2.438   4.702   1.382
 4449SOL     OW14245   5.202   1.239   6.027
 4449SOL    HW114246   5.176   1.209   6.119
 4449SOL    HW214247   5.215   1.158   5.969
 4450SOL     OW14248   3.921   2.524   6.112
 4450SOL    HW114249   3.859   2.554   6.040
 4450SOL    HW214250   3.963   2.437   6.086
 4451SOL     OW14251   5.138   4.441   3.576
 4451SOL    HW114252   5.160   4.373   3.646
 4451SOL    HW214253   5.098   4.396   3.497
 4452SOL     OW14254   5.881   5.895   4.283
 4452SOL    HW114255   5.830   5.809   4.282
 4452SOL    HW214256   5.889   5.930   4.189
 4453SOL     OW14257   1.246   2.573   1.476
 4453SOL    HW114258   1.344   2.563   1.454
 4453SOL    HW214259   1.192   2.546   1.396
 4454SOL     OW14260   1.275   1.611   0.060
 4454SOL    HW114261   1.261   1.610   0.159
 4454SOL    HW214262   1.353   1.554   0.037
 4455SOL     OW14263   5.267   5.806   5.797
 4455SOL    HW114264   5.225   5.716   5.810
 4455SOL    HW214265   5.206   5.877   5.833
 4456SOL     OW14266   2.401   6.144   3.037
 4456SOL    HW114267   2.382   6.130   3.135
 4456SOL    HW214268   2.499   6.142   3.022
 4457SOL     OW14269   3.596   1.279   2.872
 4457SOL    HW114270   3.643   1.201   2.912
 4457SOL    HW214271   3.640   1.364   2.903
 4458SOL     OW14272   2.173   2.979   0.430
 4458SOL    HW114273   2.119   3.048   0.477
 4458SOL    HW214274   2.161   2.890   0.474
 4459SOL     OW14275   3.910   1.988   4.729
 4459SOL    HW114276   3.865   2.029   4.650
 4459SOL    HW214277   3.922   2.057   4.801
 4460SOL     OW14278   1.562   3.302   6.992
 4460SOL    HW114279   1.464   3.313   6.977
 4460SOL    HW214280   1.612   3.357   6.925
 4461SOL     OW14281   2.086   0.816   0.939
 4461SOL    HW114282   2.136   0.730   0.946
 4461SOL    HW214283   2.149   0.889   0.912
 4462SOL     OW14284   6.400   4.532   1.931
 4462SOL    HW114285   6.400   4.481   2.017
 4462SOL    HW214286   6.485   4.583   1.923
 4463SOL     OW14287   4.792   0.731   0.589
 4463SOL    HW114288   4.857   0.781   0.647
 4463SOL    HW214289   4.830   0.641   0.568
 4464SOL     OW14290   6.836   5.533   0.384
 4464SOL    HW114291   6.764   5.514   0.316
 4464SOL    HW214292   6.879   5.620   0.363
 4465SOL     OW14293   3.983   5.140   1.301
 4465SOL    HW114294   3.916   5.120   1.372
 4465SOL    HW214295   3.937   5.176   1.220
 4466SOL     OW14296   1.383   1.848   2.970
 4466SOL    HW114297   1.391   1.794   3.054
 4466SOL    HW214298   1.474   1.864   2.932
 4467SOL     OW14299   1.612   5.855   3.230
 4467SOL    HW114300   1.674   5.778   3.214
 4467SOL    HW214301   1.518   5.822   3.239
 4468SOL     OW14302   1.313   4.066   0.484
 4468SOL    HW114303   1.383   4.061   0.555
 4468SOL    HW214304   1.329   3.994   0.416
 4469SOL     OW14305   3.290   0.785   1.759
 4469SOL    HW114306   3.302   0.751   1.853
 4469SOL    HW214307   3.371   0.763   1.705
 4470SOL     OW14308   0.527   1.723   2.109
 4470SOL    HW114309   0.564   1.647   2.163
 4470SOL    HW214310   0.561   1.809   2.145
 4471SOL     OW14311   1.207   2.328   6.469
 4471SOL    HW114312   1.204   2.415   6.520
 4471SOL    HW214313   1.301   2.297   6.462
 4472SOL     OW14314   0.795   2.945   1.753
 4472SOL    HW114315   0.894   2.940   1.737
 4472SOL    HW214316   0.753   3.003   1.683
 4473SOL     OW14317   5.703   3.021   4.294
 4473SOL    HW114318   5.610   2.987   4.278
 4473SOL    HW214319   5.715   3.040   4.392
 4474SOL     OW14320   2.575   6.999   2.087
 4474SOL    HW114321   2.538   0.069   2.091
 4474SOL    HW214322   2.674   7.003   2.079
 4475SOL     OW14323   1.198   4.350   2.059
 4475SOL    HW114324   1.199   4.339   1.960
 4475SOL    HW214325   1.252   4.430   2.085
 4476SOL     OW14326   6.074   0.826   3.112
 4476SOL    HW114327   6.152   0.769   3.138
 4476SOL    HW214328   6.046   0.803   3.018
 4477SOL     OW14329   1.297   0.318   5.311
 4477SOL    HW114330   1.258   0.407   5.287
 4477SOL    HW214331   1.238   0.272   5.377
 4478SOL     OW14332   3.175   0.332   2.351
 4478SOL    HW114333   3.187   0.346   2.253
 4478SOL    HW214334   3.120   0.406   2.389
 4479SOL     OW14335   0.658   2.196   1.338
 4479SOL    HW114336   0.714   2.266   1.383
 4479SOL    HW214337   0.606   2.238   1.264
 4480SOL     OW14338   0.272   4.494   5.056
 4480SOL    HW114339   0.211   4.549   4.999
 4480SOL    HW214340   0.270   4.399   5.025
 4481SOL     OW14341   3.150   5.219   4.869
 4481SOL    HW114342   3.214   5.287   4.905
 4481SOL    HW214343   3.102   5.175   4.946
 4482SOL     OW14344   1.879   3.029   5.198
 4482SOL    HW114345   1.882   3.046   5.099
 4482SOL    HW214346   1.784   3.009   5.224
 4483SOL     OW14347   6.180   2.480   2.237
 4483SOL    HW114348   6.263   2.534   2.225
 4483SOL    HW214349   6.178   2.442   2.329
 4484SOL     OW14350   3.593   2.124   6.538
 4484SOL    HW114351   3.539   2.208   6.545
 4484SOL    HW214352   3.536   2.046   6.564
 4485SOL     OW14353   5.759   2.555   4.498
 4485SOL    HW114354   5.854   2.580   4.517
 4485SOL    HW214355   5.757   2.478   4.434
 4486SOL     OW14356   6.316   5.613   5.374
 4486SOL    HW114357   6.408   5.629   5.408
 4486SOL    HW214358   6.273   5.538   5.424
 4487SOL     OW14359   2.841   2.908   6.357
 4487SOL    HW114360   2.850   2.809   6.368
 4487SOL    HW214361   2.746   2.935   6.370
 4488SOL     OW14362   0.560   3.577   5.544
 4488SOL    HW114363   0.546   3.668   5.507
 4488SOL    HW214364   0.510   3.568   5.630
 4489SOL     OW14365   5.327   5.550   4.957
 4489SOL    HW114366   5.411   5.600   4.980
 4489SOL    HW214367   5.255   5.616   4.935
 4490SOL     OW14368   5.375   1.874   1.863
 4490SOL    HW114369   5.445   1.803   1.874
 4490SOL    HW214370   5.284   1.834   1.880
 4491SOL     OW14371   0.135   3.442   3.634
 4491SOL    HW114372   0.074   3.518   3.610
 4491SOL    HW214373   0.230   3.473   3.629
 4492SOL     OW14374   5.737   4.513   2.781
 4492SOL    HW114375   5.719   4.432   2.836
 4492SOL    HW214376   5.683   4.509   2.697
 4493SOL     OW14377   5.255   5.787   4.483
 4493SOL    HW114378   5.159   5.785   4.456
 4493SOL    HW214379   5.308   5.729   4.421
 4494SOL     OW14380   0.358   1.161   6.547
 4494SOL    HW114381   0.396   1.074   6.579
 4494SOL    HW214382   0.429   1.232   6.550
 4495SOL     OW14383   4.160   0.115   3.915
 4495SOL    HW114384   4.086   0.121   3.848
 4495SOL    HW214385   4.188   0.207   3.942
 4496SOL     OW14386   5.600   6.536   1.031
 4496SOL    HW114387   5.562   6.461   0.977
 4496SOL    HW214388   5.534   6.565   1.100
 4497SOL     OW14389   4.473   2.192   6.603
 4497SOL    HW114390   4.449   2.104   6.562
 4497SOL    HW214391   4.390   2.237   6.636
 4498SOL     OW14392   0.007   3.833   6.839
 4498SOL    HW114393   0.073   3.893   6.793
 4498SOL    HW214394   0.042   3.739   6.840
 4499SOL     OW14395   6.208   3.322   3.870
 4499SOL    HW114396   6.240   3.376   3.792
 4499SOL    HW214397   6.150   3.379   3.928
 4500SOL     OW14398   3.407   3.398   5.047
 4500SOL    HW114399   3.494   3.359   5.079
 4500SOL    HW214400   3.366   3.336   4.981
 4501SOL     OW14401   6.815   3.833   3.214
 4501SOL    HW114402   6.809   3.911   3.277
 4501SOL    HW214403   6.736   3.833   3.154
 4502SOL     OW14404   0.702   2.746   6.998
 4502SOL    HW114405   0.739   2.807   0.046
 4502SOL    HW214406   0.769   2.736   6.924
 4503SOL     OW14407   3.497   6.958   1.605
 4503SOL    HW114408   3.572   6.945   1.670
 4503SOL    HW214409   3.527   6.929   1.514
 4504SOL     OW14410   0.304   0.735   4.677
 4504SOL    HW114411   0.225   0.794   4.696
 4504SOL    HW214412   0.293   0.693   4.587
 4505SOL     OW14413   6.039   4.857   2.133
 4505SOL    HW114414   5.953   4.833   2.087
 4505SOL    HW214415   6.113   4.853   2.066
 4506SOL     OW14416   4.850   2.709   3.320
 4506SOL    HW114417   4.921   2.650   3.281
 4506SOL    HW214418   4.845   2.794   3.268
 4507SOL     OW14419   6.353   4.215   3.829
 4507SOL    HW114420   6.344   4.170   3.741
 4507SOL    HW214421   6.439   4.266   3.833
 4508SOL     OW14422   1.492   5.102   6.733
 4508SOL    HW114423   1.406   5.117   6.782
 4508SOL    HW214424   1.524   5.009   6.749
 4509SOL     OW14425   4.723   2.366   3.059
 4509SOL    HW114426   4.737   2.371   2.961
 4509SOL    HW214427   4.681   2.451   3.092
 4510SOL     OW14428   4.323   2.134   4.125
 4510SOL    HW114429   4.387   2.206   4.099
 4510SOL    HW214430   4.230   2.162   4.099
 4511SOL     OW14431   5.769   3.665   6.417
 4511SOL    HW114432   5.753   3.566   6.411
 4511SOL    HW214433   5.709   3.713   6.353
 4512SOL     OW14434   2.854   0.908   5.958
 4512SOL    HW114435   2.763   0.883   5.993
 4512SOL    HW214436   2.844   0.958   5.872
 4513SOL     OW14437   0.586   4.837   6.034
 4513SOL    HW114438   0.670   4.798   6.071
 4513SOL    HW214439   0.519   4.847   6.107
 4514SOL     OW14440   2.890   2.619   5.961
 4514SOL    HW114441   2.946   2.696   5.928
 4514SOL    HW214442   2.840   2.579   5.884
 4515SOL     OW14443   5.998   1.864   5.513
 4515SOL    HW114444   6.002   1.950   5.563
 4515SOL    HW214445   6.091   1.826   5.505
 4516SOL     OW14446   2.427   0.106   0.229
 4516SOL    HW114447   2.513   0.073   0.189
 4516SOL    HW214448   2.352   0.045   0.201
 4517SOL     OW14449   4.615   6.379   6.758
 4517SOL    HW114450   4.675   6.332   6.693
 4517SOL    HW214451   4.537   6.419   6.709
 4518SOL     OW14452   6.989   0.048   2.301
 4518SOL    HW114453   0.025   0.098   2.237
 4518SOL    HW214454   7.018   6.975   2.306
 4519SOL     OW14455   5.515   0.219   0.988
 4519SOL    HW114456   5.485   0.315   0.995
 4519SOL    HW214457   5.600   0.215   0.936
 4520SOL     OW14458   3.881   6.348   6.241
 4520SOL    HW114459   3.902   6.350   6.143
 4520SOL    HW214460   3.785   6.325   6.254
 4521SOL     OW14461   5.952   2.096   5.654
 4521SOL    HW114462   5.876   2.084   5.718
 4521SOL    HW214463   5.991   2.188   5.665
 4522SOL     OW14464   5.801   5.445   3.667
 4522SOL    HW114465   5.705   5.471   3.674
 4522SOL    HW214466   5.854   5.496   3.735
 4523SOL     OW14467   1.183   4.547   0.294
 4523SOL    HW114468   1.172   4.515   0.200
 4523SOL    HW214469   1.272   4.517   0.329
 4524SOL     OW14470   6.406   2.964   2.413
 4524SOL    HW114471   6.486   3.023   2.409
 4524SOL    HW214472   6.334   3.001   2.355
 4525SOL     OW14473   4.464   2.455   5.609
 4525SOL    HW114474   4.450   2.476   5.706
 4525SOL    HW214475   4.403   2.512   5.553
 4526SOL     OW14476   6.909   0.222   6.449
 4526SOL    HW114477   6.882   0.277   6.528
 4526SOL    HW214478   7.000   0.183   6.464
 4527SOL     OW14479   6.898   0.577   2.636
 4527SOL    HW114480   6.936   0.491   2.603
 4527SOL    HW214481   6.907   0.647   2.565
 4528SOL     OW14482   4.837   0.426   6.639
 4528SOL    HW114483   4.886   0.513   6.632
 4528SOL    HW214484   4.901   0.354   6.668
 4529SOL     OW14485   1.821   0.559   5.010
 4529SOL    HW114486   1.795   0.618   5.087
 4529SOL    HW214487   1.755   0.483   5.003
 4530SOL     OW14488   2.513   5.773   4.000
 4530SOL    HW114489   2.540   5.720   3.920
 4530SOL    HW214490   2.568   5.744   4.079
 4531SOL     OW14491   0.551   2.979   5.561
 4531SOL    HW114492   0.634   3.023   5.595
 4531SOL    HW214493   0.472   3.039   5.576
 4532SOL     OW14494   6.621   1.848   2.450
 4532SOL    HW114495   6.624   1.844   2.350
 4532SOL    HW214496   6.687   1.916   2.482
 4533SOL     OW14497   1.891   1.131   2.652
 4533SOL    HW114498   1.796   1.100   2.660
 4533SOL    HW214499   1.898   1.198   2.579
 4534SOL     OW14500   5.921   4.210   5.347
 4534SOL    HW114501   5.962   4.220   5.438
 4534SOL    HW214502   5.912   4.300   5.304
 4535SOL     OW14503   3.427   0.627   2.267
 4535SOL    HW114504   3.349   0.649   2.325
 4535SOL    HW214505   3.488   0.706   2.261
 4536SOL     OW14506   3.985   1.552   5.034
 4536SOL    HW114507   3.985   1.454   5.014
 4536SOL    HW214508   3.914   1.572   5.101
 4537SOL     OW14509   3.895   3.384   1.248
 4537SOL    HW114510   3.862   3.293   1.273
 4537SOL    HW214511   3.852   3.414   1.164
 4538SOL     OW14512   2.254   0.537   2.310
 4538SOL    HW114513   2.288   0.582   2.393
 4538SOL    HW214514   2.244   0.605   2.237
 4539SOL     OW14515   3.219   6.035   4.786
 4539SOL    HW114516   3.306   6.066   4.825
 4539SOL    HW214517   3.236   5.999   4.694
 4540SOL     OW14518   2.452   2.355   6.853
 4540SOL    HW114519   2.480   2.373   6.758
 4540SOL    HW214520   2.533   2.361   6.912
 4541SOL     OW14521   5.450   1.881   6.253
 4541SOL    HW114522   5.459   1.786   6.282
 4541SOL    HW214523   5.445   1.886   6.153
 4542SOL     OW14524   0.375   2.701   1.651
 4542SOL    HW114525   0.436   2.642   1.597
 4542SOL    HW214526   0.425   2.736   1.731
 4543SOL     OW14527   4.932   2.499   0.705
 4543SOL    HW114528   4.972   2.557   0.634
 4543SOL    HW214529   4.917   2.407   0.668
 4544SOL     OW14530   3.565   6.040   6.884
 4544SOL    HW114531   3.555   5.941   6.882
 4544SOL    HW214532   3.521   6.076   6.966
 4545SOL     OW14533   6.105   2.978   4.258
 4545SOL    HW114534   6.194   2.939   4.280
 4545SOL    HW214535   6.113   3.036   4.177
 4546SOL     OW14536   2.595   0.377   4.229
 4546SOL    HW114537   2.619   0.300   4.170
 4546SOL    HW214538   2.501   0.406   4.210
 4547SOL     OW14539   6.342   1.757   0.737
 4547SOL    HW114540   6.322   1.659   0.734
 4547SOL    HW214541   6.256   1.808   0.750
 4548SOL     OW14542   2.064   2.197   3.367
 4548SOL    HW114543   2.040   2.290   3.395
 4548SOL    HW214544   2.162   2.182   3.383
 4549SOL     OW14545   5.534   4.043   2.633
 4549SOL    HW114546   5.573   4.084   2.716
 4549SOL    HW214547   5.606   4.028   2.566
 4550SOL     OW14548   0.944   4.691   3.261
 4550SOL    HW114549   1.014   4.660   3.325
 4550SOL    HW214550   0.861   4.714   3.311
 4551SOL     OW14551   0.702   3.500   4.393
 4551SOL    HW114552   0.798   3.528   4.395
 4551SOL    HW214553   0.697   3.402   4.374
 4552SOL     OW14554   5.397   2.048   0.842
 4552SOL    HW114555   5.410   2.038   0.941
 4552SOL    HW214556   5.474   2.006   0.794
 4553SOL     OW14557   4.674   4.168   0.025
 4553SOL    HW114558   4.655   4.070   0.027
 4553SOL    HW214559   4.772   4.184   0.039
 4554SOL     OW14560   6.729   0.019   2.361
 4554SOL    HW114561   6.680   6.992   2.289
 4554SOL    HW214562   6.826   0.023   2.338
 4555SOL     OW14563   1.905   1.671   5.702
 4555SOL    HW114564   1.824   1.624   5.737
 4555SOL    HW214565   1.987   1.622   5.730
 4556SOL     OW14566   5.571   4.016   5.025
 4556SOL    HW114567   5.480   4.009   5.065
 4556SOL    HW214568   5.628   3.941   5.059
 4557SOL     OW14569   4.610   5.531   4.199
 4557SOL    HW114570   4.675   5.565   4.267
 4557SOL    HW214571   4.659   5.481   4.128
 4558SOL     OW14572   0.082   4.687   4.572
 4558SOL    HW114573   0.152   4.692   4.643
 4558SOL    HW214574   0.022   4.609   4.590
 4559SOL     OW14575   6.996   3.384   2.697
 4559SOL    HW114576   0.025   3.464   2.726
 4559SOL    HW214577   6.957   3.400   2.606
 4560SOL     OW14578   5.634   3.701   1.045
 4560SOL    HW114579   5.599   3.774   1.105
 4560SOL    HW214580   5.694   3.641   1.098
 4561SOL     OW14581   3.165   2.128   3.451
 4561SOL    HW114582   3.157   2.092   3.358
 4561SOL    HW214583   3.074   2.148   3.487
 4562SOL     OW14584   1.791   6.757   0.305
 4562SOL    HW114585   1.761   6.719   0.217
 4562SOL    HW214586   1.711   6.785   0.358
 4563SOL     OW14587   0.094   3.246   1.342
 4563SOL    HW114588   0.058   3.339   1.340
 4563SOL    HW214589   0.021   3.181   1.320
 4564SOL     OW14590   0.131   6.379   2.059
 4564SOL    HW114591   0.219   6.421   2.035
 4564SOL    HW214592   0.139   6.330   2.146
 4565SOL     OW14593   1.365   0.558   4.333
 4565SOL    HW114594   1.361   0.458   4.327
 4565SOL    HW214595   1.407   0.594   4.250
 4566SOL     OW14596   0.261   3.231   0.775
 4566SOL    HW114597   0.301   3.300   0.715
 4566SOL    HW214598   0.322   3.213   0.851
 4567SOL     OW14599   6.380   1.599   6.851
 4567SOL    HW114600   6.329   1.683   6.867
 4567SOL    HW214601   6.387   1.583   6.752
 4568SOL     OW14602   1.612   3.796   5.416
 4568SOL    HW114603   1.671   3.779   5.495
 4568SOL    HW214604   1.668   3.812   5.335
 4569SOL     OW14605   2.678   0.445   3.125
 4569SOL    HW114606   2.755   0.456   3.188
 4569SOL    HW214607   2.607   0.511   3.147
 4570SOL     OW14608   6.744   6.262   2.160
 4570SOL    HW114609   6.792   6.333   2.212
 4570SOL    HW214610   6.708   6.300   2.075
 4571SOL     OW14611   4.480   3.877   6.448
 4571SOL    HW114612   4.545   3.940   6.489
 4571SOL    HW214613   4.396   3.874   6.503
 4572SOL     OW14614   2.080   0.991   6.415
 4572SOL    HW114615   2.149   1.058   6.446
 4572SOL    HW214616   2.127   0.911   6.377
 4573SOL     OW14617   6.924   0.083   0.435
 4573SOL    HW114618   6.907   0.044   0.344
 4573SOL    HW214619   6.839   0.120   0.472
 4574SOL     OW14620   6.002   4.084   0.444
 4574SOL    HW114621   5.957   4.020   0.506
 4574SOL    HW214622   6.023   4.168   0.492
 4575SOL     OW14623   5.918   0.230   5.621
 4575SOL    HW114624   5.940   0.322   5.653
 4575SOL    HW214625   5.822   0.210   5.643
 4576SOL     OW14626   3.509   5.651   5.480
 4576SOL    HW114627   3.433   5.690   5.532
 4576SOL    HW214628   3.574   5.608   5.544
 4577SOL     OW14629   0.971   2.321   4.254
 4577SOL    HW114630   1.024   2.405   4.268
 4577SOL    HW214631   0.875   2.345   4.239
 4578SOL     OW14632   0.870   2.249   5.160
 4578SOL    HW114633   0.811   2.173   5.185
 4578SOL    HW214634   0.923   2.225   5.078
 4579SOL     OW14635   4.173   0.190   3.210
 4579SOL    HW114636   4.266   0.152   3.210
 4579SOL    HW214637   4.175   0.279   3.255
 4580SOL     OW14638   5.555   3.708   0.692
 4580SOL    HW114639   5.618   3.703   0.615
 4580SOL    HW214640   5.583   3.782   0.753
 4581SOL     OW14641   1.768   6.007   2.240
 4581SOL    HW114642   1.790   6.037   2.333
 4581SOL    HW214643   1.777   5.908   2.233
 4582SOL     OW14644   4.484   0.439   4.427
 4582SOL    HW114645   4.481   0.458   4.329
 4582SOL    HW214646   4.423   0.502   4.475
 4583SOL     OW14647   3.156   2.010   6.834
 4583SOL    HW114648   3.173   2.060   6.919
 4583SOL    HW214649   3.119   1.920   6.855
 4584SOL     OW14650   1.744   5.088   5.247
 4584SOL    HW114651   1.697   5.051   5.167
 4584SOL    HW214652   1.806   5.019   5.284
 4585SOL     OW14653   1.258   5.523   3.144
 4585SOL    HW114654   1.270   5.462   3.066
 4585SOL    HW214655   1.340   5.519   3.202
 4586SOL     OW14656   4.066   4.415   1.019
 4586SOL    HW114657   4.099   4.334   0.971
 4586SOL    HW214658   3.968   4.407   1.034
 4587SOL     OW14659   3.747   4.037   3.239
 4587SOL    HW114660   3.816   4.025   3.310
 4587SOL    HW214661   3.662   3.992   3.267
 4588SOL     OW14662   2.628   3.145   5.575
 4588SOL    HW114663   2.660   3.235   5.546
 4588SOL    HW214664   2.540   3.154   5.622
 4589SOL     OW14665   5.782   0.842   1.931
 4589SOL    HW114666   5.797   0.881   2.022
 4589SOL    HW214667   5.712   0.895   1.883
 4590SOL     OW14668   4.457   5.305   1.569
 4590SOL    HW114669   4.549   5.266   1.567
 4590SOL    HW214670   4.458   5.393   1.616
 4591SOL     OW14671   1.538   0.431   4.721
 4591SOL    HW114672   1.556   0.524   4.688
 4591SOL    HW214673   1.555   0.366   4.646
 4592SOL     OW14674   2.789   1.459   3.297
 4592SOL    HW114675   2.744   1.381   3.254
 4592SOL    HW214676   2.812   1.435   3.392
 4593SOL     OW14677   5.024   6.184   2.003
 4593SOL    HW114678   4.975   6.100   2.026
 4593SOL    HW214679   5.100   6.162   1.941
 4594SOL     OW14680   2.868   0.947   3.248
 4594SOL    HW114681   2.849   0.852   3.223
 4594SOL    HW214682   2.845   0.961   3.345
 4595SOL     OW14683   4.666   2.662   5.816
 4595SOL    HW114684   4.702   2.730   5.880
 4595SOL    HW214685   4.735   2.591   5.802
 4596SOL     OW14686   6.849   0.775   2.428
 4596SOL    HW114687   6.896   0.858   2.460
 4596SOL    HW214688   6.801   0.794   2.343
 4597SOL     OW14689   3.175   5.601   6.767
 4597SOL    HW114690   3.265   5.576   6.801
 4597SOL    HW214691   3.111   5.610   6.844
 4598SOL     OW14692   1.362   5.675   0.947
 4598SOL    HW114693   1.347   5.578   0.964
 4598SOL    HW214694   1.372   5.691   0.849
 4599SOL     OW14695   1.166   5.023   0.671
 4599SOL    HW114696   1.202   4.966   0.745
 4599SOL    HW214697   1.074   4.994   0.648
 4600SOL     OW14698   0.367   5.934   5.426
 4600SOL    HW114699   0.287   5.884   5.460
 4600SOL    HW214700   0.448   5.876   5.437
 4601SOL     OW14701   1.449   1.541   5.182
 4601SOL    HW114702   1.447   1.622   5.125
 4601SOL    HW214703   1.361   1.493   5.175
 4602SOL     OW14704   3.413   6.437   0.263
 4602SOL    HW114705   3.485   6.375   0.295
 4602SOL    HW214706   3.438   6.473   0.173
 4603SOL     OW14707   3.959   6.069   1.033
 4603SOL    HW114708   4.038   6.116   1.073
 4603SOL    HW214709   3.888   6.059   1.102
 4604SOL     OW14710   4.475   0.311   6.946
 4604SOL    HW114711   4.495   0.374   6.871
 4604SOL    HW214712   4.475   0.217   6.912
 4605SOL     OW14713   1.289   6.170   2.286
 4605SOL    HW114714   1.227   6.094   2.309
 4605SOL    HW214715   1.311   6.167   2.189
 4606SOL     OW14716   0.646   6.694   2.360
 4606SOL    HW114717   0.604   6.615   2.318
 4606SOL    HW214718   0.673   6.760   2.290
 4607SOL     OW14719   2.105   3.354   3.025
 4607SOL    HW114720   2.125   3.256   3.015
 4607SOL    HW214721   2.147   3.387   3.110
 4608SOL     OW14722   0.208   5.290   3.953
 4608SOL    HW114723   0.154   5.209   3.974
 4608SOL    HW214724   0.293   5.263   3.908
 4609SOL     OW14725   5.234   4.998   6.787
 4609SOL    HW114726   5.216   4.903   6.763
 4609SOL    HW214727   5.236   5.007   6.887
 4610SOL     OW14728   5.163   1.598   0.286
 4610SOL    HW114729   5.168   1.652   0.370
 4610SOL    HW214730   5.102   1.643   0.221
 4611SOL     OW14731   0.884   6.755   6.081
 4611SOL    HW114732   0.830   6.700   6.017
 4611SOL    HW214733   0.981   6.735   6.068
 4612SOL     OW14734   2.153   6.452   0.761
 4612SOL    HW114735   2.215   6.423   0.688
 4612SOL    HW214736   2.171   6.547   0.784
 4613SOL     OW14737   1.323   5.532   2.387
 4613SOL    HW114738   1.242   5.476   2.402
 4613SOL    HW214739   1.394   5.477   2.344
 4614SOL     OW14740   5.848   3.337   3.590
 4614SOL    HW114741   5.803   3.264   3.642
 4614SOL    HW214742   5.946   3.318   3.585
 4615SOL     OW14743   1.050   1.392   0.574
 4615SOL    HW114744   1.029   1.388   0.476
 4615SOL    HW214745   1.143   1.427   0.587
 4616SOL     OW14746   6.553   1.270   4.426
 4616SOL    HW114747   6.556   1.324   4.341
 4616SOL    HW214748   6.599   1.183   4.412
 4617SOL     OW14749   1.117   1.852   2.860
 4617SOL    HW114750   1.208   1.843   2.899
 4617SOL    HW214751   1.093   1.769   2.810
 4618SOL     OW14752   2.497   3.294   5.340
 4618SOL    HW114753   2.434   3.364   5.307
 4618SOL    HW214754   2.490   3.213   5.282
 4619SOL     OW14755   2.993   6.051   3.612
 4619SOL    HW114756   3.086   6.014   3.611
 4619SOL    HW214757   2.944   6.014   3.691
 4620SOL     OW14758   0.865   5.074   0.750
 4620SOL    HW114759   0.817   5.010   0.810
 4620SOL    HW214760   0.896   5.025   0.668
 4621SOL     OW14761   5.012   0.534   2.131
 4621SOL    HW114762   4.915   0.541   2.155
 4621SOL    HW214763   5.021   0.515   2.033
 4622SOL     OW14764   4.372   4.922   0.767
 4622SOL    HW114765   4.414   5.006   0.799
 4622SOL    HW214766   4.379   4.852   0.838
 4623SOL     OW14767   4.998   6.048   1.645
 4623SOL    HW114768   5.042   6.097   1.570
 4623SOL    HW214769   4.929   6.107   1.687
 4624SOL     OW14770   3.416   6.828   2.775
 4624SOL    HW114771   3.425   6.867   2.684
 4624SOL    HW214772   3.375   6.896   2.836
 4625SOL     OW14773   1.664   5.243   1.673
 4625SOL    HW114774   1.578   5.194   1.658
 4625SOL    HW214775   1.732   5.213   1.606
 4626SOL     OW14776   4.604   3.710   1.682
 4626SOL    HW114777   4.514   3.746   1.708
 4626SOL    HW214778   4.594   3.621   1.639
 4627SOL     OW14779   2.031   5.310   4.897
 4627SOL    HW114780   2.040   5.216   4.930
 4627SOL    HW214781   1.937   5.324   4.864
 4628SOL     OW14782   4.613   4.442   4.880
 4628SOL    HW114783   4.524   4.463   4.919
 4628SOL    HW214784   4.605   4.436   4.780
 4629SOL     OW14785   2.487   5.549   5.500
 4629SOL    HW114786   2.435   5.562   5.584
 4629SOL    HW214787   2.470   5.625   5.438
 4630SOL     OW14788   1.997   5.808   2.396
 4630SOL    HW114789   2.004   5.763   2.485
 4630SOL    HW214790   1.911   5.782   2.352
 4631SOL     OW14791   1.263   5.877   3.450
 4631SOL    HW114792   1.325   5.951   3.475
 4631SOL    HW214793   1.172   5.897   3.487
 4632SOL     OW14794   2.304   4.287   2.283
 4632SOL    HW114795   2.397   4.322   2.273
 4632SOL    HW214796   2.244   4.336   2.220
 4633SOL     OW14797   5.817   0.805   4.204
 4633SOL    HW114798   5.880   0.836   4.275
 4633SOL    HW214799   5.822   0.705   4.196
 4634SOL     OW14800   2.873   3.856   5.024
 4634SOL    HW114801   2.788   3.872   4.973
 4634SOL    HW214802   2.881   3.759   5.045
 4635SOL     OW14803   4.498   4.071   1.612
 4635SOL    HW114804   4.586   4.025   1.620
 4635SOL    HW214805   4.473   4.113   1.699
 4636SOL     OW14806   1.765   4.061   0.696
 4636SOL    HW114807   1.765   4.043   0.598
 4636SOL    HW214808   1.792   3.978   0.745
 4637SOL     OW14809   0.961   6.712   1.038
 4637SOL    HW114810   0.958   6.812   1.043
 4637SOL    HW214811   0.907   6.682   0.959
 4638SOL     OW14812   4.048   5.318   0.245
 4638SOL    HW114813   4.113   5.391   0.265
 4638SOL    HW214814   3.959   5.340   0.287
 4639SOL     OW14815   3.364   3.218   6.401
 4639SOL    HW114816   3.410   3.299   6.364
 4639SOL    HW214817   3.313   3.172   6.328
 4640SOL     OW14818   5.222   4.039   4.703
 4640SOL    HW114819   5.173   4.100   4.766
 4640SOL    HW214820   5.319   4.039   4.726
 4641SOL     OW14821   2.536   0.698   4.676
 4641SOL    HW114822   2.578   0.615   4.715
 4641SOL    HW214823   2.501   0.677   4.584
 4642SOL     OW14824   1.180   0.168   2.882
 4642SOL    HW114825   1.218   0.257   2.858
 4642SOL    HW214826   1.253   0.100   2.884
 4643SOL     OW14827   6.640   1.616   0.316
 4643SOL    HW114828   6.541   1.628   0.319
 4643SOL    HW214829   6.685   1.705   0.312
 4644SOL     OW14830   0.842   0.216   5.099
 4644SOL    HW114831   0.757   0.254   5.136
 4644SOL    HW214832   0.873   0.272   5.022
 4645SOL     OW14833   1.206   0.755   4.395
 4645SOL    HW114834   1.147   0.741   4.474
 4645SOL    HW214835   1.258   0.671   4.377
 4646SOL     OW14836   2.220   5.712   3.443
 4646SOL    HW114837   2.184   5.721   3.350
 4646SOL    HW214838   2.272   5.627   3.450
 4647SOL     OW14839   1.845   0.315   2.721
 4647SOL    HW114840   1.748   0.308   2.740
 4647SOL    HW214841   1.859   0.331   2.623
 4648SOL     OW14842   3.904   1.008   3.151
 4648SOL    HW114843   3.948   1.024   3.239
 4648SOL    HW214844   3.822   0.952   3.164
 4649SOL     OW14845   5.676   0.818   0.433
 4649SOL    HW114846   5.660   0.916   0.446
 4649SOL    HW214847   5.617   0.784   0.360
 4650SOL     OW14848   4.806   5.715   1.895
 4650SOL    HW114849   4.774   5.768   1.816
 4650SOL    HW214850   4.902   5.736   1.912
 4651SOL     OW14851   6.316   3.247   6.163
 4651SOL    HW114852   6.415   3.252   6.174
 4651SOL    HW214853   6.289   3.151   6.149
 4652SOL     OW14854   6.765   6.341   4.634
 4652SOL    HW114855   6.702   6.410   4.600
 4652SOL    HW214856   6.765   6.342   4.734
 4653SOL     OW14857   5.505   6.175   1.327
 4653SOL    HW114858   5.589   6.228   1.320
 4653SOL    HW214859   5.526   6.081   1.354
 4654SOL     OW14860   0.543   5.957   6.078
 4654SOL    HW114861   0.496   5.970   6.165
 4654SOL    HW214862   0.590   6.042   6.053
 4655SOL     OW14863   6.320   3.337   1.230
 4655SOL    HW114864   6.302   3.327   1.328
 4655SOL    HW214865   6.233   3.335   1.181
 4656SOL     OW14866   1.413   0.920   1.695
 4656SOL    HW114867   1.435   0.945   1.789
 4656SOL    HW214868   1.491   0.937   1.636
 4657SOL     OW14869   4.514   6.192   1.873
 4657SOL    HW114870   4.497   6.255   1.949
 4657SOL    HW214871   4.497   6.239   1.787
 4658SOL     OW14872   3.001   0.535   4.596
 4658SOL    HW114873   2.952   0.575   4.674
 4658SOL    HW214874   2.972   0.440   4.585
 4659SOL     OW14875   2.829   4.688   6.256
 4659SOL    HW114876   2.775   4.604   6.247
 4659SOL    HW214877   2.897   4.692   6.183
 4660SOL     OW14878   0.963   6.123   4.558
 4660SOL    HW114879   0.898   6.049   4.542
 4660SOL    HW214880   0.921   6.210   4.535
 4661SOL     OW14881   3.129   5.095   6.694
 4661SOL    HW114882   3.111   5.035   6.772
 4661SOL    HW214883   3.075   5.179   6.704
 4662SOL     OW14884   2.600   0.147   5.612
 4662SOL    HW114885   2.619   0.236   5.651
 4662SOL    HW214886   2.644   0.138   5.523
 4663SOL     OW14887   0.410   0.772   1.688
 4663SOL    HW114888   0.444   0.866   1.677
 4663SOL    HW214889   0.474   0.720   1.745
 4664SOL     OW14890   1.259   0.917   0.321
 4664SOL    HW114891   1.201   0.868   0.387
 4664SOL    HW214892   1.212   1.002   0.293
 4665SOL     OW14893   3.564   6.912   6.163
 4665SOL    HW114894   3.640   6.848   6.177
 4665SOL    HW214895   3.478   6.862   6.163
 4666SOL     OW14896   2.317   2.916   0.225
 4666SOL    HW114897   2.263   2.939   0.306
 4666SOL    HW214898   2.267   2.849   0.170
 4667SOL     OW14899   6.489   3.834   1.702
 4667SOL    HW114900   6.581   3.834   1.741
 4667SOL    HW214901   6.447   3.744   1.715
 4668SOL     OW14902   4.868   1.462   3.823
 4668SOL    HW114903   4.939   1.395   3.843
 4668SOL    HW214904   4.885   1.545   3.876
 4669SOL     OW14905   4.942   6.013   0.116
 4669SOL    HW114906   4.999   5.973   0.188
 4669SOL    HW214907   4.991   6.087   0.072
 4670SOL     OW14908   1.076   2.559   6.257
 4670SOL    HW114909   1.108   2.638   6.204
 4670SOL    HW214910   1.150   2.494   6.268
 4671SOL     OW14911   1.024   3.097   6.685
 4671SOL    HW114912   0.965   3.177   6.694
 4671SOL    HW214913   1.034   3.074   6.588
 4672SOL     OW14914   2.779   4.957   6.332
 4672SOL    HW114915   2.770   4.861   6.307
 4672SOL    HW214916   2.709   5.010   6.283
 4673SOL     OW14917   4.978   6.951   1.363
 4673SOL    HW114918   4.893   6.962   1.414
 4673SOL    HW214919   5.048   6.913   1.422
 4674SOL     OW14920   5.187   1.442   0.012
 4674SOL    HW114921   5.115   1.486   6.982
 4674SOL    HW214922   5.149   1.362   0.060
 4675SOL     OW14923   3.130   1.069   0.513
 4675SOL    HW114924   3.229   1.066   0.518
 4675SOL    HW214925   3.091   1.024   0.593
 4676SOL     OW14926   0.063   6.552   4.227
 4676SOL    HW114927   0.080   6.456   4.246
 4676SOL    HW214928   0.121   6.609   4.285
 4677SOL     OW14929   2.845   1.002   0.277
 4677SOL    HW114930   2.813   1.060   0.202
 4677SOL    HW214931   2.921   1.047   0.324
 4678SOL     OW14932   2.253   4.699   2.749
 4678SOL    HW114933   2.220   4.624   2.805
 4678SOL    HW214934   2.348   4.720   2.774
 4679SOL     OW14935   3.765   1.368   0.198
 4679SOL    HW114936   3.701   1.312   0.251
 4679SOL    HW214937   3.767   1.461   0.234
 4680SOL     OW14938   1.785   0.603   1.976
 4680SOL    HW114939   1.860   0.626   1.914
 4680SOL    HW214940   1.756   0.685   2.025
 4681SOL     OW14941   6.058   5.403   5.720
 4681SOL    HW114942   5.966   5.404   5.759
 4681SOL    HW214943   6.122   5.445   5.785
 4682SOL     OW14944   4.248   4.072   6.146
 4682SOL    HW114945   4.309   4.112   6.077
 4682SOL    HW214946   4.247   4.131   6.227
 4683SOL     OW14947   4.639   4.717   2.492
 4683SOL    HW114948   4.559   4.705   2.551
 4683SOL    HW214949   4.645   4.639   2.430
 4684SOL     OW14950   6.907   1.747   4.473
 4684SOL    HW114951   6.982   1.812   4.468
 4684SOL    HW214952   6.820   1.796   4.468
 4685SOL     OW14953   0.253   6.391   5.104
 4685SOL    HW114954   0.290   6.304   5.135
 4685SOL    HW214955   0.287   6.411   5.012
 4686SOL     OW14956   5.544   5.589   0.448
 4686SOL    HW114957   5.632   5.606   0.494
 4686SOL    HW214958   5.558   5.592   0.349
 4687SOL     OW14959   0.015   4.827   5.506
 4687SOL    HW114960   0.070   4.884   5.445
 4687SOL    HW214961   6.969   4.777   5.452
 4688SOL     OW14962   6.459   3.429   5.352
 4688SOL    HW114963   6.508   3.421   5.439
 4688SOL    HW214964   6.525   3.447   5.279
 4689SOL     OW14965   6.121   0.513   0.402
 4689SOL    HW114966   6.067   0.471   0.476
 4689SOL    HW214967   6.061   0.566   0.343
 4690SOL     OW14968   1.529   0.914   0.010
 4690SOL    HW114969   1.456   0.876   0.068
 4690SOL    HW214970   1.561   0.844   6.969
 4691SOL     OW14971   3.120   4.885   2.153
 4691SOL    HW114972   3.043   4.829   2.185
 4691SOL    HW214973   3.185   4.896   2.228
 4692SOL     OW14974   6.749   5.876   2.477
 4692SOL    HW114975   6.781   5.930   2.556
 4692SOL    HW214976   6.827   5.828   2.437
 4693SOL     OW14977   0.761   0.979   3.442
 4693SOL    HW114978   0.752   0.882   3.417
 4693SOL    HW214979   0.671   1.015   3.468
 4694SOL     OW14980   3.069   0.808   0.260
 4694SOL    HW114981   3.127   0.837   0.336
 4694SOL    HW214982   3.009   0.884   0.234
 4695SOL     OW14983   2.620   2.972   1.736
 4695SOL    HW114984   2.555   3.043   1.707
 4695SOL    HW214985   2.615   2.894   1.674
 4696SOL     OW14986   0.287   4.242   5.630
 4696SOL    HW114987   0.241   4.173   5.574
 4696SOL    HW214988   0.287   4.329   5.581
 4697SOL     OW14989   1.998   2.893   0.878
 4697SOL    HW114990   2.036   2.933   0.795
 4697SOL    HW214991   1.953   2.807   0.856
 4698SOL     OW14992   3.618   5.859   2.649
 4698SOL    HW114993   3.537   5.801   2.642
 4698SOL    HW214994   3.651   5.860   2.743
 4699SOL     OW14995   0.827   5.907   2.165
 4699SOL    HW114996   0.875   5.995   2.164
 4699SOL    HW214997   0.787   5.890   2.075
 4700SOL     OW14998   6.500   1.653   2.602
 4700SOL    HW114999   6.543   1.722   2.544
 4700SOL    HW215000   6.552   1.567   2.594
 4701SOL     OW15001   1.996   1.878   1.282
 4701SOL    HW115002   1.910   1.875   1.332
 4701SOL    HW215003   1.993   1.951   1.213
 4702SOL     OW15004   5.670   4.654   6.544
 4702SOL    HW115005   5.750   4.603   6.516
 4702SOL    HW215006   5.616   4.600   6.609
 4703SOL     OW15007   1.478   2.611   1.974
 4703SOL    HW115008   1.550   2.651   1.917
 4703SOL    HW215009   1.389   2.637   1.937
 4704SOL     OW15010   1.276   6.769   6.978
 4704SOL    HW115011   1.268   6.670   6.968
 4704SOL    HW215012   1.306   6.809   6.892
 4705SOL     OW15013   3.609   3.285   2.337
 4705SOL    HW115014   3.685   3.223   2.322
 4705SOL    HW215015   3.523   3.238   2.319
 4706SOL     OW15016   3.568   6.544   6.445
 4706SOL    HW115017   3.611   6.570   6.531
 4706SOL    HW215018   3.498   6.611   6.421
 4707SOL     OW15019   2.340   5.697   0.715
 4707SOL    HW115020   2.244   5.670   0.724
 4707SOL    HW215021   2.374   5.728   0.804
 4708SOL     OW15022   1.571   2.644   6.545
 4708SOL    HW115023   1.550   2.709   6.618
 4708SOL    HW215024   1.669   2.631   6.539
 4709SOL     OW15025   4.024   5.643   5.293
 4709SOL    HW115026   3.959   5.640   5.217
 4709SOL    HW215027   4.079   5.559   5.293
 4710SOL     OW15028   3.749   1.395   5.873
 4710SOL    HW115029   3.743   1.307   5.922
 4710SOL    HW215030   3.751   1.469   5.940
 4711SOL     OW15031   5.552   0.674   1.851
 4711SOL    HW115032   5.633   0.726   1.878
 4711SOL    HW215033   5.574   0.618   1.771
 4712SOL     OW15034   3.016   4.170   0.191
 4712SOL    HW115035   3.043   4.248   0.136
 4712SOL    HW215036   2.920   4.147   0.171
 4713SOL     OW15037   3.192   3.940   1.119
 4713SOL    HW115038   3.292   3.947   1.126
 4713SOL    HW215039   3.156   3.900   1.203
 4714SOL     OW15040   1.678   2.400   6.980
 4714SOL    HW115041   1.764   2.434   6.941
 4714SOL    HW215042   1.662   2.306   6.949
 4715SOL     OW15043   6.774   3.018   1.843
 4715SOL    HW115044   6.775   2.921   1.817
 4715SOL    HW215045   6.842   3.034   1.914
 4716SOL     OW15046   4.218   6.099   6.199
 4716SOL    HW115047   4.180   6.074   6.288
 4716SOL    HW215048   4.225   6.018   6.141
 4717SOL     OW15049   0.163   0.010   3.315
 4717SOL    HW115050   0.069   7.011   3.289
 4717SOL    HW215051   0.178   0.109   3.311
 4718SOL     OW15052   5.142   1.959   6.875
 4718SOL    HW115053   5.198   1.877   6.890
 4718SOL    HW215054   5.123   1.969   6.778
 4719SOL     OW15055   5.187   3.119   2.481
 4719SOL    HW115056   5.275   3.073   2.488
 4719SOL    HW215057   5.186   3.176   2.399
 4720SOL     OW15058   1.731   5.968   5.678
 4720SOL    HW115059   1.805   5.902   5.684
 4720SOL    HW215060   1.655   5.940   5.737
 4721SOL     OW15061   6.749   2.538   0.824
 4721SOL    HW115062   6.830   2.596   0.811
 4721SOL    HW215063   6.776   2.456   0.874
 4722SOL     OW15064   1.165   5.588   6.831
 4722SOL    HW115065   1.225   5.580   6.752
 4722SOL    HW215066   1.069   5.582   6.801
 4723SOL     OW15067   1.940   4.788   5.899
 4723SOL    HW115068   1.943   4.804   5.998
 4723SOL    HW215069   1.877   4.713   5.879
 4724SOL     OW15070   4.862   5.986   2.946
 4724SOL    HW115071   4.777   6.016   2.988
 4724SOL    HW215072   4.934   6.053   2.964
 4725SOL     OW15073   6.527   6.628   2.170
 4725SOL    HW115074   6.625   6.647   2.167
 4725SOL    HW215075   6.488   6.662   2.255
 4726SOL     OW15076   2.296   3.040   6.415
 4726SOL    HW115077   2.261   3.026   6.323
 4726SOL    HW215078   2.242   2.988   6.480
 4727SOL     OW15079   0.380   6.473   6.807
 4727SOL    HW115080   0.479   6.460   6.800
 4727SOL    HW215081   0.348   6.529   6.732
 4728SOL     OW15082   5.130   0.587   0.160
 4728SOL    HW115083   5.044   0.624   0.196
 4728SOL    HW215084   5.183   0.547   0.235
 4729SOL     OW15085   2.665   1.554   1.847
 4729SOL    HW115086   2.664   1.623   1.919
 4729SOL    HW215087   2.589   1.490   1.861
 4730SOL     OW15088   2.737   5.662   4.968
 4730SOL    HW115089   2.726   5.727   4.893
 4730SOL    HW215090   2.809   5.695   5.030
 4731SOL     OW15091   4.182   0.237   6.028
 4731SOL    HW115092   4.092   0.247   6.070
 4731SOL    HW215093   4.207   0.322   5.982
 4732SOL     OW15094   0.275   3.933   5.611
 4732SOL    HW115095   0.261   3.984   5.526
 4732SOL    HW215096   0.371   3.937   5.637
 4733SOL     OW15097   1.340   4.427   3.589
 4733SOL    HW115098   1.247   4.425   3.552
 4733SOL    HW215099   1.347   4.363   3.666
 4734SOL     OW15100   5.258   2.833   6.606
 4734SOL    HW115101   5.210   2.822   6.693
 4734SOL    HW215102   5.245   2.752   6.550
 4735SOL     OW15103   1.126   5.969   4.061
 4735SOL    HW115104   1.105   6.039   4.130
 4735SOL    HW215105   1.225   5.957   4.056
 4736SOL     OW15106   0.157   1.634   6.054
 4736SOL    HW115107   0.143   1.536   6.040
 4736SOL    HW215108   0.125   1.660   6.145
 4737SOL     OW15109   1.292   4.743   2.449
 4737SOL    HW115110   1.228   4.714   2.520
 4737SOL    HW215111   1.385   4.746   2.487
 4738SOL     OW15112   6.954   5.970   2.863
 4738SOL    HW115113   6.885   5.985   2.935
 4738SOL    HW215114   0.016   5.937   2.904
 4739SOL     OW15115   4.945   6.495   3.378
 4739SOL    HW115116   4.875   6.533   3.318
 4739SOL    HW215117   4.913   6.497   3.472
 4740SOL     OW15118   0.651   1.514   0.672
 4740SOL    HW115119   0.582   1.460   0.623
 4740SOL    HW215120   0.742   1.484   0.645
 4741SOL     OW15121   3.754   3.173   1.351
 4741SOL    HW115122   3.711   3.105   1.292
 4741SOL    HW215123   3.778   3.131   1.438
 4742SOL     OW15124   2.385   6.308   5.159
 4742SOL    HW115125   2.418   6.332   5.068
 4742SOL    HW215126   2.286   6.297   5.157
 4743SOL     OW15127   2.280   4.237   3.039
 4743SOL    HW115128   2.240   4.148   3.059
 4743SOL    HW215129   2.228   4.282   2.966
 4744SOL     OW15130   2.246   5.037   1.065
 4744SOL    HW115131   2.337   5.025   1.025
 4744SOL    HW215132   2.241   4.985   1.150
 4745SOL     OW15133   3.164   4.478   6.400
 4745SOL    HW115134   3.150   4.386   6.363
 4745SOL    HW215135   3.218   4.472   6.484
 4746SOL     OW15136   4.423   6.704   3.873
 4746SOL    HW115137   4.468   6.771   3.933
 4746SOL    HW215138   4.356   6.652   3.926
 4747SOL     OW15139   0.865   3.558   0.392
 4747SOL    HW115140   0.845   3.615   0.313
 4747SOL    HW215141   0.917   3.610   0.459
 4748SOL     OW15142   1.713   5.950   1.134
 4748SOL    HW115143   1.746   5.856   1.147
 4748SOL    HW215144   1.788   6.007   1.102
 4749SOL     OW15145   2.139   6.332   6.424
 4749SOL    HW115146   2.169   6.403   6.488
 4749SOL    HW215147   2.219   6.289   6.382
 4750SOL     OW15148   6.983   3.442   5.188
 4750SOL    HW115149   6.982   3.459   5.090
 4750SOL    HW215150   0.054   3.424   5.218
 4751SOL     OW15151   4.341   2.411   2.698
 4751SOL    HW115152   4.280   2.463   2.638
 4751SOL    HW215153   4.427   2.392   2.650
 4752SOL     OW15154   4.413   1.031   0.001
 4752SOL    HW115155   4.325   1.060   6.986
 4752SOL    HW215156   4.479   1.105   7.013
 4753SOL     OW15157   0.632   0.483   3.858
 4753SOL    HW115158   0.650   0.580   3.875
 4753SOL    HW215159   0.577   0.473   3.776
 4754SOL     OW15160   5.378   3.748   4.857
 4754SOL    HW115161   5.401   3.844   4.838
 4754SOL    HW215162   5.345   3.705   4.772
 4755SOL     OW15163   2.856   1.410   0.368
 4755SOL    HW115164   2.891   1.494   0.408
 4755SOL    HW215165   2.756   1.408   0.375
 4756SOL     OW15166   5.621   3.625   5.773
 4756SOL    HW115167   5.671   3.567   5.708
 4756SOL    HW215168   5.683   3.656   5.844
 4757SOL     OW15169   2.168   2.013   1.445
 4757SOL    HW115170   2.141   1.953   1.370
 4757SOL    HW215171   2.087   2.042   1.496
 4758SOL     OW15172   1.652   6.421   2.736
 4758SOL    HW115173   1.667   6.508   2.783
 4758SOL    HW215174   1.619   6.353   2.801
 4759SOL     OW15175   0.995   4.730   6.089
 4759SOL    HW115176   1.011   4.825   6.062
 4759SOL    HW215177   1.052   4.708   6.168
 4760SOL     OW15178   2.602   1.730   0.431
 4760SOL    HW115179   2.603   1.712   0.332
 4760SOL    HW215180   2.677   1.791   0.455
 4761SOL     OW15181   1.353   0.261   0.770
 4761SOL    HW115182   1.256   0.249   0.793
 4761SOL    HW215183   1.406   0.274   0.853
 4762SOL     OW15184   1.191   5.800   2.619
 4762SOL    HW115185   1.121   5.735   2.651
 4762SOL    HW215186   1.201   5.792   2.520
 4763SOL     OW15187   5.521   0.651   2.509
 4763SOL    HW115188   5.456   0.581   2.539
 4763SOL    HW215189   5.480   0.741   2.518
 4764SOL     OW15190   4.441   3.605   5.287
 4764SOL    HW115191   4.520   3.589   5.228
 4764SOL    HW215192   4.357   3.577   5.239
 4765SOL     OW15193   3.534   0.982   5.383
 4765SOL    HW115194   3.522   1.019   5.292
 4765SOL    HW215195   3.590   0.899   5.378
 4766SOL     OW15196   6.148   5.955   4.386
 4766SOL    HW115197   6.201   5.877   4.420
 4766SOL    HW215198   6.070   5.922   4.333
 4767SOL     OW15199   3.303   4.894   5.246
 4767SOL    HW115200   3.213   4.861   5.273
 4767SOL    HW215201   3.305   4.910   5.147
 4768SOL     OW15202   3.483   2.712   6.200
 4768SOL    HW115203   3.402   2.696   6.256
 4768SOL    HW215204   3.485   2.648   6.124
 4769SOL     OW15205   4.798   5.760   0.649
 4769SOL    HW115206   4.742   5.799   0.576
 4769SOL    HW215207   4.744   5.696   0.703
 4770SOL     OW15208   0.421   2.338   4.488
 4770SOL    HW115209   0.498   2.362   4.546
 4770SOL    HW215210   0.409   2.408   4.417
 4771SOL     OW15211   3.017   6.578   6.294
 4771SOL    HW115212   3.057   6.587   6.202
 4771SOL    HW215213   2.960   6.496   6.297
 4772SOL     OW15214   3.668   4.616   0.348
 4772SOL    HW115215   3.592   4.664   0.304
 4772SOL    HW215216   3.747   4.677   0.354
 4773SOL     OW15217   0.442   5.323   5.718
 4773SOL    HW115218   0.540   5.302   5.712
 4773SOL    HW215219   0.421   5.399   5.656
 4774SOL     OW15220   1.623   3.749   1.304
 4774SOL    HW115221   1.574   3.690   1.240
 4774SOL    HW215222   1.570   3.758   1.388
 4775SOL     OW15223   4.941   6.078   3.242
 4775SOL    HW115224   4.842   6.081   3.258
 4775SOL    HW215225   4.989   6.112   3.322
 4776SOL     OW15226   0.856   1.151   4.941
 4776SOL    HW115227   0.862   1.212   4.862
 4776SOL    HW215228   0.939   1.159   4.996
 4777SOL     OW15229   1.769   5.342   0.825
 4777SOL    HW115230   1.779   5.423   0.882
 4777SOL    HW215231   1.679   5.301   0.839
 4778SOL     OW15232   0.018   2.590   4.613
 4778SOL    HW115233   0.008   2.682   4.575
 4778SOL    HW215234   0.083   2.593   4.690
 4779SOL     OW15235   5.150   0.141   3.320
 4779SOL    HW115236   5.222   0.173   3.259
 4779SOL    HW215237   5.086   0.215   3.338
 4780SOL     OW15238   5.975   2.647   6.627
 4780SOL    HW115239   5.959   2.573   6.562
 4780SOL    HW215240   6.072   2.655   6.646
 4781SOL     OW15241   2.784   5.261   1.697
 4781SOL    HW115242   2.689   5.232   1.711
 4781SOL    HW215243   2.786   5.353   1.659
 4782SOL     OW15244   6.057   5.690   6.701
 4782SOL    HW115245   6.094   5.634   6.628
 4782SOL    HW215246   5.979   5.643   6.743
 4783SOL     OW15247   5.455   3.415   6.843
 4783SOL    HW115248   5.468   3.436   6.746
 4783SOL    HW215249   5.544   3.417   6.890
 4784SOL     OW15250   6.234   2.285   6.428
 4784SOL    HW115251   6.297   2.312   6.355
 4784SOL    HW215252   6.283   2.227   6.494
 4785SOL     OW15253   0.045   6.389   2.765
 4785SOL    HW115254   0.089   6.354   2.848
 4785SOL    HW215255   6.995   6.453   2.790
 4786SOL     OW15256   2.666   0.057   0.126
 4786SOL    HW115257   2.721   7.013   0.074
 4786SOL    HW215258   2.716   0.142   0.136
 4787SOL     OW15259   3.438   1.747   3.252
 4787SOL    HW115260   3.436   1.802   3.169
 4787SOL    HW215261   3.492   1.794   3.322
 4788SOL     OW15262   0.038   5.964   0.955
 4788SOL    HW115263   6.975   5.984   0.908
 4788SOL    HW215264   0.107   5.935   0.889
 4789SOL     OW15265   5.247   1.637   1.637
 4789SOL    HW115266   5.234   1.648   1.735
 4789SOL    HW215267   5.164   1.597   1.597
 4790SOL     OW15268   5.784   1.708   5.785
 4790SOL    HW115269   5.797   1.737   5.690
 4790SOL    HW215270   5.871   1.677   5.823
 4791SOL     OW15271   0.146   2.892   1.806
 4791SOL    HW115272   0.237   2.858   1.785
 4791SOL    HW215273   0.079   2.819   1.792
 4792SOL     OW15274   2.288   4.329   4.618
 4792SOL    HW115275   2.295   4.304   4.715
 4792SOL    HW215276   2.240   4.257   4.569
 4793SOL     OW15277   1.652   3.726   5.121
 4793SOL    HW115278   1.640   3.640   5.073
 4793SOL    HW215279   1.674   3.798   5.056
 4794SOL     OW15280   4.462   6.928   4.767
 4794SOL    HW115281   4.499   6.962   4.853
 4794SOL    HW215282   4.362   6.922   4.773
 4795SOL     OW15283   6.713   1.363   4.199
 4795SOL    HW115284   6.763   1.440   4.239
 4795SOL    HW215285   6.753   1.277   4.229
 4796SOL     OW15286   4.242   0.709   6.066
 4796SOL    HW115287   4.211   0.671   6.153
 4796SOL    HW215288   4.219   0.806   6.061
 4797SOL     OW15289   0.575   6.688   4.340
 4797SOL    HW115290   0.568   6.786   4.358
 4797SOL    HW215291   0.582   6.673   4.241
 4798SOL     OW15292   6.871   5.105   5.784
 4798SOL    HW115293   6.822   5.023   5.813
 4798SOL    HW215294   6.915   5.147   5.864
 4799SOL     OW15295   4.569   1.215   0.729
 4799SOL    HW115296   4.639   1.145   0.714
 4799SOL    HW215297   4.515   1.226   0.646
 4800SOL     OW15298   1.512   4.084   6.810
 4800SOL    HW115299   1.492   4.016   6.880
 4800SOL    HW215300   1.464   4.060   6.725
 4801SOL     OW15301   3.083   2.434   6.988
 4801SOL    HW115302   3.151   2.507   6.982
 4801SOL    HW215303   3.052   2.425   0.060
 4802SOL     OW15304   0.384   6.385   1.615
 4802SOL    HW115305   0.427   6.298   1.590
 4802SOL    HW215306   0.316   6.410   1.546
 4803SOL     OW15307   0.047   4.082   0.952
 4803SOL    HW115308   0.039   4.141   1.033
 4803SOL    HW215309   0.116   4.011   0.969
 4804SOL     OW15310   6.830   6.755   1.480
 4804SOL    HW115311   6.794   6.676   1.529
 4804SOL    HW215312   6.918   6.782   1.519
 4805SOL     OW15313   6.486   1.466   2.353
 4805SOL    HW115314   6.504   1.452   2.450
 4805SOL    HW215315   6.408   1.527   2.341
 4806SOL     OW15316   0.752   4.199   2.868
 4806SOL    HW115317   0.753   4.114   2.920
 4806SOL    HW215318   0.799   4.270   2.919
 4807SOL     OW15319   0.626   4.396   6.011
 4807SOL    HW115320   0.674   4.474   5.973
 4807SOL    HW215321   0.599   4.334   5.937
 4808SOL     OW15322   4.284   5.398   0.880
 4808SOL    HW115323   4.249   5.466   0.816
 4808SOL    HW215324   4.346   5.442   0.945
 4809SOL     OW15325   3.780   4.713   1.336
 4809SOL    HW115326   3.873   4.748   1.332
 4809SOL    HW215327   3.733   4.731   1.250
 4810SOL     OW15328   1.668   4.187   3.324
 4810SOL    HW115329   1.681   4.168   3.227
 4810SOL    HW215330   1.606   4.266   3.335
 4811SOL     OW15331   3.919   3.491   2.730
 4811SOL    HW115332   3.846   3.495   2.662
 4811SOL    HW215333   3.915   3.572   2.789
 4812SOL     OW15334   0.580   0.587   2.583
 4812SOL    HW115335   0.592   0.527   2.662
 4812SOL    HW215336   0.669   0.602   2.539
 4813SOL     OW15337   5.982   1.806   6.777
 4813SOL    HW115338   5.957   1.713   6.751
 4813SOL    HW215339   5.943   1.870   6.711
 4814SOL     OW15340   6.877   3.210   1.573
 4814SOL    HW115341   6.942   3.270   1.620
 4814SOL    HW215342   6.844   3.141   1.637
 4815SOL     OW15343   5.505   4.326   3.051
 4815SOL    HW115344   5.504   4.426   3.049
 4815SOL    HW215345   5.587   4.294   3.098
 4816SOL     OW15346   2.054   5.426   1.313
 4816SOL    HW115347   2.067   5.355   1.244
 4816SOL    HW215348   2.135   5.484   1.317
 4817SOL     OW15349   2.624   0.780   1.297
 4817SOL    HW115350   2.639   0.867   1.250
 4817SOL    HW215351   2.684   0.774   1.376
 4818SOL     OW15352   0.750   1.491   3.901
 4818SOL    HW115353   0.797   1.459   3.984
 4818SOL    HW215354   0.690   1.418   3.867
 4819SOL     OW15355   2.624   2.473   1.505
 4819SOL    HW115356   2.624   2.464   1.605
 4819SOL    HW215357   2.635   2.383   1.463
 4820SOL     OW15358   6.794   1.830   0.361
 4820SOL    HW115359   6.848   1.887   0.299
 4820SOL    HW215360   6.848   1.810   0.443
 4821SOL     OW15361   0.038   0.231   1.156
 4821SOL    HW115362   7.005   0.149   1.169
 4821SOL    HW215363   0.104   0.240   1.230
 4822SOL     OW15364   1.911   2.996   3.732
 4822SOL    HW115365   2.007   2.971   3.748
 4822SOL    HW215366   1.894   3.003   3.634
 4823SOL     OW15367   0.347   1.845   4.291
 4823SOL    HW115368   0.282   1.820   4.363
 4823SOL    HW215369   0.313   1.925   4.242
 4824SOL     OW15370   5.696   2.003   4.135
 4824SOL    HW115371   5.654   2.067   4.199
 4824SOL    HW215372   5.717   1.918   4.183
 4825SOL     OW15373   1.997   2.717   4.447
 4825SOL    HW115374   2.003   2.814   4.423
 4825SOL    HW215375   1.983   2.663   4.364
 4826SOL     OW15376   7.000   0.494   6.387
 4826SOL    HW115377   6.984   0.417   6.326
 4826SOL    HW215378   6.958   0.476   6.476
 4827SOL     OW15379   5.663   1.218   1.214
 4827SOL    HW115380   5.621   1.213   1.305
 4827SOL    HW215381   5.611   1.282   1.157
 4828SOL     OW15382   5.816   2.945   1.025
 4828SOL    HW115383   5.744   2.991   0.973
 4828SOL    HW215384   5.776   2.872   1.080
 4829SOL     OW15385   3.883   6.588   6.858
 4829SOL    HW115386   3.853   6.540   6.940
 4829SOL    HW215387   3.983   6.591   6.855
 4830SOL     OW15388   5.224   6.270   3.623
 4830SOL    HW115389   5.250   6.365   3.636
 4830SOL    HW215390   5.270   6.213   3.691
 4831SOL     OW15391   6.941   5.170   6.233
 4831SOL    HW115392   6.870   5.188   6.300
 4831SOL    HW215393   6.952   5.249   6.173
 4832SOL     OW15394   2.479   2.712   5.593
 4832SOL    HW115395   2.540   2.663   5.531
 4832SOL    HW215396   2.444   2.794   5.547
 4833SOL     OW15397   4.951   1.014   2.825
 4833SOL    HW115398   5.013   0.940   2.799
 4833SOL    HW215399   4.960   1.032   2.923
 4834SOL     OW15400   3.700   0.649   0.678
 4834SOL    HW115401   3.737   0.556   0.672
 4834SOL    HW215402   3.769   0.710   0.717
 4835SOL     OW15403   0.944   1.204   6.215
 4835SOL    HW115404   0.946   1.142   6.293
 4835SOL    HW215405   0.853   1.203   6.174
 4836SOL     OW15406   5.006   3.276   3.740
 4836SOL    HW115407   4.986   3.267   3.643
 4836SOL    HW215408   5.104   3.263   3.755
 4837SOL     OW15409   4.773   3.314   1.431
 4837SOL    HW115410   4.714   3.313   1.351
 4837SOL    HW215411   4.737   3.251   1.500
 4838SOL     OW15412   1.329   4.860   1.841
 4838SOL    HW115413   1.313   4.765   1.816
 4838SOL    HW215414   1.337   4.868   1.941
 4839SOL     OW15415   1.144   3.520   5.628
 4839SOL    HW115416   1.220   3.503   5.691
 4839SOL    HW215417   1.102   3.608   5.648
 4840SOL     OW15418   0.893   6.555   5.327
 4840SOL    HW115419   0.860   6.464   5.353
 4840SOL    HW215420   0.859   6.578   5.236
 4841SOL     OW15421   2.738   6.029   1.521
 4841SOL    HW115422   2.775   5.949   1.568
 4841SOL    HW215423   2.644   6.044   1.550
 4842SOL     OW15424   3.359   4.918   1.937
 4842SOL    HW115425   3.302   4.875   2.007
 4842SOL    HW215426   3.453   4.888   1.947
 4843SOL     OW15427   6.002   3.468   0.564
 4843SOL    HW115428   6.054   3.383   0.559
 4843SOL    HW215429   5.994   3.508   0.473
 4844SOL     OW15430   6.732   3.466   5.856
 4844SOL    HW115431   6.800   3.415   5.803
 4844SOL    HW215432   6.735   3.437   5.952
 4845SOL     OW15433   6.806   5.912   4.416
 4845SOL    HW115434   6.742   5.940   4.489
 4845SOL    HW215435   6.862   5.836   4.449
 4846SOL     OW15436   6.947   3.558   3.447
 4846SOL    HW115437   6.959   3.576   3.349
 4846SOL    HW215438   6.928   3.461   3.461
 4847SOL     OW15439   3.359   1.243   5.398
 4847SOL    HW115440   3.285   1.287   5.449
 4847SOL    HW215441   3.433   1.218   5.461
 4848SOL     OW15442   1.331   1.246   3.846
 4848SOL    HW115443   1.244   1.200   3.829
 4848SOL    HW215444   1.314   1.331   3.896
 4849SOL     OW15445   1.001   6.352   6.167
 4849SOL    HW115446   1.044   6.300   6.241
 4849SOL    HW215447   1.002   6.297   6.083
 4850SOL     OW15448   3.944   1.440   2.944
 4850SOL    HW115449   4.038   1.464   2.968
 4850SOL    HW215450   3.895   1.523   2.916
 4851SOL     OW15451   3.983   6.124   5.194
 4851SOL    HW115452   3.889   6.144   5.223
 4851SOL    HW215453   4.030   6.209   5.172
 4852SOL     OW15454   0.964   0.319   5.326
 4852SOL    HW115455   0.938   0.264   5.247
 4852SOL    HW215456   0.947   0.267   5.410
 4853SOL     OW15457   2.812   1.230   3.163
 4853SOL    HW115458   2.810   1.133   3.187
 4853SOL    HW215459   2.895   1.272   3.199
 4854SOL     OW15460   5.583   6.983   2.542
 4854SOL    HW115461   5.489   7.009   2.562
 4854SOL    HW215462   5.645   0.011   2.603
 4855SOL     OW15463   6.049   2.686   2.391
 4855SOL    HW115464   6.134   2.677   2.340
 4855SOL    HW215465   6.065   2.668   2.488
 4856SOL     OW15466   1.683   4.219   2.606
 4856SOL    HW115467   1.678   4.142   2.671
 4856SOL    HW215468   1.594   4.230   2.561
 4857SOL     OW15469   1.741   2.559   6.015
 4857SOL    HW115470   1.688   2.533   5.934
 4857SOL    HW215471   1.833   2.519   6.009
 4858SOL     OW15472   0.894   1.320   4.741
 4858SOL    HW115473   0.855   1.391   4.682
 4858SOL    HW215474   0.966   1.272   4.691
 4859SOL     OW15475   1.388   0.989   4.368
 4859SOL    HW115476   1.483   0.958   4.364
 4859SOL    HW215477   1.331   0.915   4.403
 4860SOL     OW15478   4.016   4.631   1.733
 4860SOL    HW115479   4.047   4.559   1.671
 4860SOL    HW215480   3.948   4.688   1.688
 4861SOL     OW15481   5.195   4.507   0.161
 4861SOL    HW115482   5.098   4.491   0.139
 4861SOL    HW215483   5.221   4.451   0.240
 4862SOL     OW15484   2.896   4.797   4.810
 4862SOL    HW115485   2.881   4.749   4.897
 4862SOL    HW215486   2.852   4.887   4.814
 4863SOL     OW15487   5.999   4.084   2.219
 4863SOL    HW115488   5.923   4.028   2.187
 4863SOL    HW215489   6.086   4.039   2.199
 4864SOL     OW15490   3.841   1.210   3.426
 4864SOL    HW115491   3.920   1.151   3.414
 4864SOL    HW215492   3.827   1.265   3.344
 4865SOL     OW15493   2.236   0.870   5.402
 4865SOL    HW115494   2.269   0.962   5.423
 4865SOL    HW215495   2.137   0.866   5.415
 4866SOL     OW15496   0.109   2.034   0.838
 4866SOL    HW115497   0.206   2.058   0.848
 4866SOL    HW215498   0.100   1.940   0.807
 4867SOL     OW15499   3.868   4.932   2.927
 4867SOL    HW115500   3.893   4.843   2.964
 4867SOL    HW215501   3.878   4.930   2.827
 4868SOL     OW15502   6.488   4.893   2.638
 4868SOL    HW115503   6.398   4.859   2.610
 4868SOL    HW215504   6.554   4.818   2.635
 4869SOL     OW15505   1.406   1.622   2.265
 4869SOL    HW115506   1.453   1.692   2.210
 4869SOL    HW215507   1.329   1.664   2.313
 4870SOL     OW15508   0.739   6.173   1.649
 4870SOL    HW115509   0.726   6.183   1.550
 4870SOL    HW215510   0.655   6.140   1.690
 4871SOL     OW15511   1.530   1.053   3.842
 4871SOL    HW115512   1.526   0.972   3.783
 4871SOL    HW215513   1.456   1.115   3.818
 4872SOL     OW15514   5.943   6.904   3.468
 4872SOL    HW115515   5.930   6.868   3.560
 4872SOL    HW215516   6.034   6.945   3.461
 4873SOL     OW15517   6.392   5.460   4.108
 4873SOL    HW115518   6.479   5.419   4.135
 4873SOL    HW215519   6.407   5.554   4.078
 4874SOL     OW15520   6.201   3.585   2.268
 4874SOL    HW115521   6.187   3.511   2.334
 4874SOL    HW215522   6.115   3.605   2.221
 4875SOL     OW15523   5.728   1.804   0.733
 4875SOL    HW115524   5.649   1.825   0.675
 4875SOL    HW215525   5.740   1.878   0.800
 4876SOL     OW15526   6.084   2.432   3.040
 4876SOL    HW115527   6.175   2.420   3.000
 4876SOL    HW215528   6.015   2.404   2.973
 4877SOL     OW15529   1.534   1.927   6.016
 4877SOL    HW115530   1.559   1.866   6.092
 4877SOL    HW215531   1.603   1.920   5.944
 4878SOL     OW15532   6.202   0.824   1.985
 4878SOL    HW115533   6.151   0.902   1.949
 4878SOL    HW215534   6.144   0.742   1.982
 4879SOL     OW15535   4.462   1.326   2.780
 4879SOL    HW115536   4.440   1.419   2.750
 4879SOL    HW215537   4.394   1.296   2.847
 4880SOL     OW15538   5.315   3.199   0.086
 4880SOL    HW115539   5.311   3.252   0.171
 4880SOL    HW215540   5.358   3.254   0.014
 4881SOL     OW15541   1.203   1.335   6.852
 4881SOL    HW115542   1.184   1.434   6.849
 4881SOL    HW215543   1.142   1.287   6.790
 4882SOL     OW15544   4.737   0.338   4.560
 4882SOL    HW115545   4.702   0.249   4.588
 4882SOL    HW215546   4.660   0.399   4.539
 4883SOL     OW15547   5.087   4.806   1.404
 4883SOL    HW115548   5.180   4.795   1.437
 4883SOL    HW215549   5.067   4.903   1.390
 4884SOL     OW15550   2.927   6.196   1.637
 4884SOL    HW115551   2.857   6.143   1.588
 4884SOL    HW215552   2.971   6.259   1.574
 4885SOL     OW15553   2.240   5.203   1.446
 4885SOL    HW115554   2.198   5.174   1.531
 4885SOL    HW215555   2.232   5.303   1.437
 4886SOL     OW15556   1.506   5.799   1.492
 4886SOL    HW115557   1.574   5.809   1.564
 4886SOL    HW215558   1.451   5.882   1.486
 4887SOL     OW15559   0.273   6.948   1.500
 4887SOL    HW115560   0.223   0.008   1.528
 4887SOL    HW215561   0.290   6.890   1.579
 4888SOL     OW15562   2.878   0.276   4.549
 4888SOL    HW115563   2.792   0.250   4.504
 4888SOL    HW215564   2.897   0.211   4.623
 4889SOL     OW15565   6.755   1.907   5.147
 4889SOL    HW115566   6.692   1.961   5.091
 4889SOL    HW215567   6.763   1.815   5.108
 4890SOL     OW15568   7.021   0.811   6.024
 4890SOL    HW115569   0.070   0.881   6.009
 4890SOL    HW215570   0.033   0.723   5.992
 4891SOL     OW15571   1.844   4.695   0.293
 4891SOL    HW115572   1.824   4.791   0.272
 4891SOL    HW215573   1.877   4.688   0.387
 4892SOL     OW15574   3.204   5.634   2.231
 4892SOL    HW115575   3.226   5.537   2.229
 4892SOL    HW215576   3.278   5.683   2.278
 4893SOL     OW15577   6.502   2.710   1.639
 4893SOL    HW115578   6.479   2.614   1.653
 4893SOL    HW215579   6.535   2.723   1.545
 4894SOL     OW15580   3.263   0.545   2.852
 4894SOL    HW115581   3.174   0.587   2.865
 4894SOL    HW215582   3.304   0.579   2.767
 4895SOL     OW15583   0.813   5.139   4.420
 4895SOL    HW115584   0.782   5.159   4.327
 4895SOL    HW215585   0.835   5.042   4.427
 4896SOL     OW15586   1.914   4.375   1.894
 4896SOL    HW115587   1.874   4.459   1.928
 4896SOL    HW215588   2.000   4.356   1.941
 4897SOL     OW15589   1.789   4.503   5.799
 4897SOL    HW115590   1.699   4.465   5.778
 4897SOL    HW215591   1.836   4.526   5.714
 4898SOL     OW15592   4.323   0.630   4.557
 4898SOL    HW115593   4.355   0.644   4.651
 4898SOL    HW215594   4.322   0.718   4.509
 4899SOL     OW15595   5.557   5.653   2.889
 4899SOL    HW115596   5.483   5.708   2.928
 4899SOL    HW215597   5.645   5.683   2.928
 4900SOL     OW15598   3.127   6.213   5.250
 4900SOL    HW115599   3.197   6.166   5.195
 4900SOL    HW215600   3.126   6.175   5.342
 4901SOL     OW15601   2.854   1.286   5.233
 4901SOL    HW115602   2.927   1.343   5.196
 4901SOL    HW215603   2.893   1.218   5.296
 4902SOL     OW15604   2.080   2.020   5.291
 4902SOL    HW115605   2.044   1.929   5.312
 4902SOL    HW215606   2.178   2.014   5.273
 4903SOL     OW15607   3.833   5.623   0.602
 4903SOL    HW115608   3.774   5.703   0.594
 4903SOL    HW215609   3.843   5.598   0.698
 4904SOL     OW15610   2.478   0.546   5.079
 4904SOL    HW115611   2.521   0.507   5.160
 4904SOL    HW215612   2.513   0.638   5.062
 4905SOL     OW15613   3.354   0.838   3.209
 4905SOL    HW115614   3.419   0.913   3.196
 4905SOL    HW215615   3.395   0.752   3.178
 4906SOL     OW15616   5.381   1.543   6.718
 4906SOL    HW115617   5.477   1.525   6.742
 4906SOL    HW215618   5.336   1.590   6.794
 4907SOL     OW15619   4.116   6.476   2.185
 4907SOL    HW115620   4.053   6.403   2.161
 4907SOL    HW215621   4.176   6.447   2.260
 4908SOL     OW15622   6.044   6.345   0.336
 4908SOL    HW115623   6.000   6.287   0.268
 4908SOL    HW215624   6.028   6.308   0.427
 4909SOL     OW15625   0.469   6.847   3.838
 4909SOL    HW115626   0.507   6.797   3.760
 4909SOL    HW215627   0.522   6.931   3.852
 4910SOL     OW15628   5.095   1.063   4.803
 4910SOL    HW115629   5.111   1.124   4.881
 4910SOL    HW215630   5.171   1.072   4.738
 4911SOL     OW15631   1.707   3.984   3.518
 4911SOL    HW115632   1.802   4.000   3.544
 4911SOL    HW215633   1.679   4.054   3.452
 4912SOL     OW15634   5.522   1.007   5.765
 4912SOL    HW115635   5.493   1.102   5.766
 4912SOL    HW215636   5.477   0.959   5.690
 4913SOL     OW15637   3.969   3.113   5.256
 4913SOL    HW115638   3.924   3.200   5.279
 4913SOL    HW215639   3.943   3.086   5.164
 4914SOL     OW15640   3.612   0.161   4.908
 4914SOL    HW115641   3.536   0.123   4.856
 4914SOL    HW215642   3.678   0.203   4.845
 4915SOL     OW15643   3.220   6.053   5.783
 4915SOL    HW115644   3.215   6.036   5.882
 4915SOL    HW215645   3.128   6.045   5.744
 4916SOL     OW15646   1.402   0.653   4.091
 4916SOL    HW115647   1.313   0.690   4.063
 4916SOL    HW215648   1.425   0.575   4.033
 4917SOL     OW15649   2.460   5.372   1.574
 4917SOL    HW115650   2.466   5.275   1.549
 4917SOL    HW215651   2.458   5.381   1.674
 4918SOL     OW15652   5.186   6.320   2.515
 4918SOL    HW115653   5.197   6.306   2.417
 4918SOL    HW215654   5.091   6.303   2.541
 4919SOL     OW15655   3.794   2.430   0.712
 4919SOL    HW115656   3.717   2.414   0.774
 4919SOL    HW215657   3.840   2.516   0.736
 4920SOL     OW15658   5.215   0.023   4.395
 4920SOL    HW115659   5.246   0.050   4.304
 4920SOL    HW215660   5.115   0.026   4.397
 4921SOL     OW15661   0.905   5.165   0.372
 4921SOL    HW115662   0.826   5.226   0.379
 4921SOL    HW215663   0.898   5.109   0.290
 4922SOL     OW15664   2.961   2.063   5.039
 4922SOL    HW115665   2.886   2.118   5.075
 4922SOL    HW215666   3.036   2.123   5.011
 4923SOL     OW15667   3.628   1.606   2.568
 4923SOL    HW115668   3.649   1.661   2.488
 4923SOL    HW215669   3.712   1.566   2.604
 4924SOL     OW15670   3.727   1.311   4.883
 4924SOL    HW115671   3.693   1.263   4.802
 4924SOL    HW215672   3.708   1.408   4.875
 4925SOL     OW15673   6.430   6.971   2.296
 4925SOL    HW115674   6.366   7.010   2.362
 4925SOL    HW215675   6.468   6.886   2.332
 4926SOL     OW15676   5.266   0.903   0.701
 4926SOL    HW115677   5.312   0.874   0.785
 4926SOL    HW215678   5.167   0.904   0.716
 4927SOL     OW15679   3.424   3.897   4.673
 4927SOL    HW115680   3.492   3.942   4.731
 4927SOL    HW215681   3.390   3.815   4.719
 4928SOL     OW15682   2.094   7.003   6.826
 4928SOL    HW115683   2.182   6.974   6.862
 4928SOL    HW215684   2.087   0.080   6.829
 4929SOL     OW15685   6.609   6.981   4.707
 4929SOL    HW115686   6.517   7.008   4.682
 4929SOL    HW215687   6.630   6.892   4.666
 4930SOL     OW15688   5.627   0.906   2.824
 4930SOL    HW115689   5.588   0.973   2.761
 4930SOL    HW215690   5.599   0.927   2.917
 4931SOL     OW15691   6.914   7.005   1.071
 4931SOL    HW115692   6.975   6.944   1.021
 4931SOL    HW215693   6.840   0.012   1.012
 4932SOL     OW15694   3.559   3.114   1.794
 4932SOL    HW115695   3.524   3.090   1.884
 4932SOL    HW215696   3.658   3.123   1.797
 4933SOL     OW15697   2.230   6.432   2.253
 4933SOL    HW115698   2.324   6.441   2.220
 4933SOL    HW215699   2.205   6.515   2.304
 4934SOL     OW15700   3.163   5.480   2.999
 4934SOL    HW115701   3.253   5.446   3.027
 4934SOL    HW215702   3.118   5.524   3.076
 4935SOL     OW15703   1.617   1.981   6.453
 4935SOL    HW115704   1.553   1.946   6.521
 4935SOL    HW215705   1.709   1.946   6.473
 4936SOL     OW15706   2.948   4.920   1.324
 4936SOL    HW115707   3.031   4.887   1.368
 4936SOL    HW215708   2.953   4.902   1.226
 4937SOL     OW15709   5.597   3.153   6.012
 4937SOL    HW115710   5.684   3.139   5.964
 4937SOL    HW215711   5.532   3.196   5.950
 4938SOL     OW15712   1.798   5.092   5.738
 4938SOL    HW115713   1.894   5.076   5.762
 4938SOL    HW215714   1.764   5.015   5.684
 4939SOL     OW15715   5.673   2.323   4.732
 4939SOL    HW115716   5.743   2.305   4.663
 4939SOL    HW215717   5.607   2.249   4.732
 4940SOL     OW15718   0.468   1.221   4.703
 4940SOL    HW115719   0.486   1.209   4.605
 4940SOL    HW215720   0.429   1.136   4.740
 4941SOL     OW15721   4.677   1.894   5.996
 4941SOL    HW115722   4.774   1.918   5.997
 4941SOL    HW215723   4.636   1.924   5.910
 4942SOL     OW15724   4.870   2.484   5.835
 4942SOL    HW115725   4.930   2.458   5.759
 4942SOL    HW215726   4.925   2.526   5.907
 4943SOL     OW15727   4.511   3.470   6.858
 4943SOL    HW115728   4.542   3.383   6.819
 4943SOL    HW215729   4.580   3.541   6.841
 4944SOL     OW15730   2.123   4.293   2.035
 4944SOL    HW115731   2.210   4.323   1.997
 4944SOL    HW215732   2.132   4.200   2.071
 4945SOL     OW15733   0.893   0.835   3.790
 4945SOL    HW115734   0.965   0.904   3.790
 4945SOL    HW215735   0.924   0.753   3.742
 4946SOL     OW15736   0.576   3.069   0.378
 4946SOL    HW115737   0.550   3.065   0.475
 4946SOL    HW215738   0.564   3.162   0.345
 4947SOL     OW15739   2.014   0.952   1.421
 4947SOL    HW115740   2.043   0.858   1.404
 4947SOL    HW215741   2.095   1.012   1.425
 4948SOL     OW15742   2.000   1.650   2.654
 4948SOL    HW115743   1.979   1.587   2.729
 4948SOL    HW215744   2.064   1.720   2.685
 4949SOL     OW15745   4.393   6.522   6.624
 4949SOL    HW115746   4.298   6.498   6.606
 4949SOL    HW215747   4.397   6.602   6.684
 4950SOL     OW15748   3.068   5.298   4.371
 4950SOL    HW115749   3.110   5.253   4.292
 4950SOL    HW215750   3.011   5.232   4.420
 4951SOL     OW15751   5.148   1.369   4.864
 4951SOL    HW115752   5.143   1.468   4.869
 4951SOL    HW215753   5.140   1.330   4.956
 4952SOL     OW15754   0.085   0.908   5.048
 4952SOL    HW115755   0.087   0.893   4.949
 4952SOL    HW215756   0.137   0.835   5.093
 4953SOL     OW15757   2.098   6.418   1.994
 4953SOL    HW115758   1.999   6.414   2.003
 4953SOL    HW215759   2.136   6.466   2.074
 4954SOL     OW15760   4.226   4.103   6.697
 4954SOL    HW115761   4.251   4.189   6.654
 4954SOL    HW215762   4.139   4.113   6.745
 4955SOL     OW15763   2.609   6.281   6.747
 4955SOL    HW115764   2.599   6.307   6.843
 4955SOL    HW215765   2.578   6.187   6.734
 4956SOL     OW15766   2.449   6.602   5.273
 4956SOL    HW115767   2.505   6.635   5.197
 4956SOL    HW215768   2.434   6.504   5.264
 4957SOL     OW15769   6.370   1.913   2.646
 4957SOL    HW115770   6.410   1.830   2.606
 4957SOL    HW215771   6.288   1.888   2.697
 4958SOL     OW15772   6.720   5.823   5.120
 4958SOL    HW115773   6.633   5.773   5.120
 4958SOL    HW215774   6.784   5.779   5.183
 4959SOL     OW15775   6.622   1.814   6.648
 4959SOL    HW115776   6.663   1.905   6.645
 4959SOL    HW215777   6.525   1.820   6.628
 4960SOL     OW15778   3.470   5.632   3.367
 4960SOL    HW115779   3.477   5.729   3.392
 4960SOL    HW215780   3.548   5.582   3.405
 4961SOL     OW15781   4.917   1.456   5.886
 4961SOL    HW115782   4.945   1.455   5.982
 4961SOL    HW215783   4.898   1.550   5.858
 4962SOL     OW15784   6.367   2.854   0.724
 4962SOL    HW115785   6.333   2.947   0.712
 4962SOL    HW215786   6.363   2.829   0.821
 4963SOL     OW15787   6.687   5.913   6.810
 4963SOL    HW115788   6.769   5.879   6.855
 4963SOL    HW215789   6.658   5.849   6.739
 4964SOL     OW15790   3.726   0.105   3.887
 4964SOL    HW115791   3.656   0.163   3.927
 4964SOL    HW215792   3.743   0.027   3.948
 4965SOL     OW15793   0.101   0.586   3.453
 4965SOL    HW115794   0.082   0.504   3.508
 4965SOL    HW215795   0.109   0.559   3.357
 4966SOL     OW15796   1.977   0.550   5.351
 4966SOL    HW115797   1.968   0.643   5.387
 4966SOL    HW215798   2.051   0.503   5.398
 4967SOL     OW15799   4.203   3.269   5.889
 4967SOL    HW115800   4.275   3.323   5.844
 4967SOL    HW215801   4.211   3.279   5.988
 4968SOL     OW15802   5.572   2.443   3.677
 4968SOL    HW115803   5.629   2.525   3.662
 4968SOL    HW215804   5.548   2.402   3.589
 4969SOL     OW15805   2.312   0.932   2.306
 4969SOL    HW115806   2.272   0.894   2.223
 4969SOL    HW215807   2.410   0.949   2.290
 4970SOL     OW15808   1.531   2.195   4.430
 4970SOL    HW115809   1.476   2.265   4.383
 4970SOL    HW215810   1.478   2.110   4.436
 4971SOL     OW15811   5.954   6.125   3.443
 4971SOL    HW115812   5.910   6.192   3.382
 4971SOL    HW215813   5.887   6.056   3.470
 4972SOL     OW15814   1.673   3.266   0.208
 4972SOL    HW115815   1.608   3.218   0.268
 4972SOL    HW215816   1.627   3.296   0.125
 4973SOL     OW15817   0.324   0.370   2.202
 4973SOL    HW115818   0.259   0.410   2.137
 4973SOL    HW215819   0.368   0.443   2.254
 4974SOL     OW15820   5.855   4.818   1.294
 4974SOL    HW115821   5.870   4.835   1.392
 4974SOL    HW215822   5.847   4.905   1.246
 4975SOL     OW15823   5.533   5.365   6.214
 4975SOL    HW115824   5.507   5.457   6.246
 4975SOL    HW215825   5.485   5.296   6.267
 4976SOL     OW15826   3.132   0.101   4.771
 4976SOL    HW115827   3.136   0.200   4.787
 4976SOL    HW215828   3.036   0.071   4.768
 4977SOL     OW15829   4.405   4.070   0.345
 4977SOL    HW115830   4.373   4.093   0.253
 4977SOL    HW215831   4.500   4.099   0.356
 4978SOL     OW15832   6.531   3.722   5.305
 4978SOL    HW115833   6.533   3.725   5.405
 4978SOL    HW215834   6.507   3.630   5.275
 4979SOL     OW15835   0.510   0.918   5.212
 4979SOL    HW115836   0.420   0.880   5.189
 4979SOL    HW215837   0.567   0.848   5.253
 4980SOL     OW15838   4.546   6.839   3.451
 4980SOL    HW115839   4.508   6.793   3.372
 4980SOL    HW215840   4.531   6.783   3.533
 4981SOL     OW15841   4.880   5.384   6.248
 4981SOL    HW115842   4.792   5.353   6.212
 4981SOL    HW215843   4.946   5.308   6.245
 4982SOL     OW15844   2.025   2.312   6.864
 4982SOL    HW115845   1.957   2.350   6.801
 4982SOL    HW215846   2.058   2.225   6.829
 4983SOL     OW15847   5.431   2.440   4.280
 4983SOL    HW115848   5.357   2.504   4.299
 4983SOL    HW215849   5.430   2.366   4.348
 4984SOL     OW15850   5.832   4.021   4.323
 4984SOL    HW115851   5.815   4.102   4.380
 4984SOL    HW215852   5.916   3.976   4.354
 4985SOL     OW15853   5.878   6.508   3.042
 4985SOL    HW115854   5.962   6.473   3.082
 4985SOL    HW215855   5.822   6.551   3.113
 4986SOL     OW15856   6.232   4.377   2.890
 4986SOL    HW115857   6.143   4.331   2.888
 4986SOL    HW215858   6.301   4.315   2.927
 4987SOL     OW15859   1.045   1.681   0.911
 4987SOL    HW115860   0.959   1.702   0.865
 4987SOL    HW215861   1.111   1.648   0.844
 4988SOL     OW15862   6.053   1.557   3.627
 4988SOL    HW115863   6.135   1.502   3.610
 4988SOL    HW215864   5.998   1.513   3.697
 4989SOL     OW15865   5.037   0.533   1.350
 4989SOL    HW115866   4.946   0.492   1.356
 4989SOL    HW215867   5.102   0.464   1.317
 4990SOL     OW15868   1.463   1.506   5.470
 4990SOL    HW115869   1.376   1.468   5.504
 4990SOL    HW215870   1.465   1.499   5.370
 4991SOL     OW15871   0.624   3.615   4.058
 4991SOL    HW115872   0.659   3.637   3.967
 4991SOL    HW215873   0.698   3.623   4.125
 4992SOL     OW15874   4.736   0.782   4.487
 4992SOL    HW115875   4.714   0.691   4.520
 4992SOL    HW215876   4.815   0.817   4.537
 4993SOL     OW15877   3.907   5.260   4.380
 4993SOL    HW115878   3.936   5.346   4.422
 4993SOL    HW215879   3.896   5.273   4.281
 4994SOL     OW15880   1.321   0.571   2.631
 4994SOL    HW115881   1.399   0.633   2.629
 4994SOL    HW215882   1.341   0.492   2.573
 4995SOL     OW15883   6.779   2.580   6.165
 4995SOL    HW115884   6.750   2.636   6.242
 4995SOL    HW215885   6.762   2.483   6.185
 4996SOL     OW15886   1.627   1.136   2.750
 4996SOL    HW115887   1.545   1.130   2.693
 4996SOL    HW215888   1.603   1.178   2.838
 4997SOL     OW15889   6.226   2.004   3.227
 4997SOL    HW115890   6.280   2.034   3.149
 4997SOL    HW215891   6.222   1.904   3.228
 4998SOL     OW15892   2.047   3.685   5.196
 4998SOL    HW115893   2.083   3.774   5.223
 4998SOL    HW215894   2.005   3.640   5.276
 4999SOL     OW15895   5.634   5.084   1.238
 4999SOL    HW115896   5.582   5.077   1.323
 4999SOL    HW215897   5.731   5.089   1.258
 5000SOL     OW15898   1.817   0.221   4.358
 5000SOL    HW115899   1.801   0.229   4.260
 5000SOL    HW215900   1.903   0.172   4.374
 5001SOL     OW15901   1.534   4.706   6.487
 5001SOL    HW115902   1.556   4.635   6.420
 5001SOL    HW215903   1.614   4.726   6.543
 5002SOL     OW15904   1.665   3.126   2.688
 5002SOL    HW115905   1.633   3.047   2.741
 5002SOL    HW215906   1.589   3.165   2.637
 5003SOL     OW15907   2.572   6.701   2.976
 5003SOL    HW115908   2.592   6.766   2.903
 5003SOL    HW215909   2.499   6.639   2.948
 5004SOL     OW15910   2.992   4.850   5.786
 5004SOL    HW115911   3.082   4.893   5.781
 5004SOL    HW215912   2.944   4.864   5.699
 5005SOL     OW15913   3.586   2.429   0.892
 5005SOL    HW115914   3.492   2.406   0.918
 5005SOL    HW215915   3.600   2.527   0.899
 5006SOL     OW15916   5.273   6.573   6.835
 5006SOL    HW115917   5.335   6.606   6.906
 5006SOL    HW215918   5.323   6.514   6.773
 5007SOL     OW15919   2.074   0.307   6.580
 5007SOL    HW115920   2.091   0.277   6.486
 5007SOL    HW215921   2.064   0.406   6.582
 5008SOL     OW15922   6.302   0.487   3.340
 5008SOL    HW115923   6.284   0.494   3.439
 5008SOL    HW215924   6.235   0.426   3.299
 5009SOL     OW15925   1.920   6.180   1.694
 5009SOL    HW115926   1.968   6.258   1.654
 5009SOL    HW215927   1.918   6.105   1.627
 5010SOL     OW15928   3.197   3.002   3.179
 5010SOL    HW115929   3.263   2.968   3.246
 5010SOL    HW215930   3.245   3.042   3.101
 5011SOL     OW15931   2.086   3.412   2.136
 5011SOL    HW115932   2.025   3.342   2.099
 5011SOL    HW215933   2.106   3.480   2.066
 5012SOL     OW15934   4.706   3.445   5.907
 5012SOL    HW115935   4.705   3.469   5.810
 5012SOL    HW215936   4.613   3.437   5.941
 5013SOL     OW15937   5.039   1.798   0.136
 5013SOL    HW115938   5.040   1.851   0.051
 5013SOL    HW215939   5.009   1.857   0.211
 5014SOL     OW15940   5.531   4.349   0.711
 5014SOL    HW115941   5.616   4.298   0.724
 5014SOL    HW215942   5.453   4.287   0.722
 5015SOL     OW15943   4.544   1.974   4.277
 5015SOL    HW115944   4.590   2.023   4.351
 5015SOL    HW215945   4.539   2.034   4.196
 5016SOL     OW15946   2.786   1.548   1.256
 5016SOL    HW115947   2.726   1.587   1.326
 5016SOL    HW215948   2.816   1.620   1.194
 5017SOL     OW15949   1.730   2.790   0.136
 5017SOL    HW115950   1.758   2.765   0.044
 5017SOL    HW215951   1.801   2.763   0.202
 5018SOL     OW15952   0.686   4.338   1.273
 5018SOL    HW115953   0.692   4.429   1.314
 5018SOL    HW215954   0.728   4.340   1.182
 5019SOL     OW15955   2.226   4.461   0.312
 5019SOL    HW115956   2.192   4.438   0.221
 5019SOL    HW215957   2.326   4.460   0.312
 5020SOL     OW15958   4.592   6.457   6.058
 5020SOL    HW115959   4.529   6.389   6.021
 5020SOL    HW215960   4.649   6.414   6.129
 5021SOL     OW15961   1.722   1.887   5.806
 5021SOL    HW115962   1.800   1.838   5.767
 5021SOL    HW215963   1.638   1.836   5.787
 5022SOL     OW15964   2.093   0.438   0.318
 5022SOL    HW115965   2.153   0.408   0.244
 5022SOL    HW215966   2.132   0.519   0.361
 5023SOL     OW15967   6.644   2.724   1.385
 5023SOL    HW115968   6.642   2.792   1.311
 5023SOL    HW215969   6.723   2.742   1.444
 5024SOL     OW15970   6.746   4.398   3.095
 5024SOL    HW115971   6.833   4.378   3.050
 5024SOL    HW215972   6.760   4.469   3.164
 5025SOL     OW15973   4.405   2.038   1.925
 5025SOL    HW115974   4.446   2.126   1.952
 5025SOL    HW215975   4.339   2.053   1.851
 5026SOL     OW15976   5.711   5.545   6.542
 5026SOL    HW115977   5.666   5.634   6.551
 5026SOL    HW215978   5.769   5.529   6.621
 5027SOL     OW15979   0.198   0.117   2.161
 5027SOL    HW115980   0.247   0.196   2.199
 5027SOL    HW215981   0.259   0.038   2.160
 5028SOL     OW15982   0.417   0.091   2.965
 5028SOL    HW115983   0.459   0.054   2.882
 5028SOL    HW215984   0.439   0.031   3.042
 5029SOL     OW15985   6.350   3.628   4.097
 5029SOL    HW115986   6.411   3.696   4.135
 5029SOL    HW215987   6.403   3.560   4.045
 5030SOL     OW15988   6.802   0.334   0.023
 5030SOL    HW115989   6.883   0.379   7.009
 5030SOL    HW215990   6.777   0.257   6.986
 5031SOL     OW15991   5.498   0.849   4.714
 5031SOL    HW115992   5.414   0.795   4.706
 5031SOL    HW215993   5.572   0.804   4.664
 5032SOL     OW15994   1.386   3.985   1.494
 5032SOL    HW115995   1.304   3.944   1.454
 5032SOL    HW215996   1.365   4.019   1.586
 5033SOL     OW15997   1.406   4.560   6.687
 5033SOL    HW115998   1.435   4.619   6.612
 5033SOL    HW215999   1.459   4.475   6.684
 5034SOL     OW16000   6.618   2.668   2.961
 5034SOL    HW116001   6.677   2.741   2.994
 5034SOL    HW216002   6.664   2.580   2.975
 5035SOL     OW16003   6.113   4.154   0.892
 5035SOL    HW116004   6.184   4.094   0.928
 5035SOL    HW216005   6.028   4.140   0.944
 5036SOL     OW16006   6.999   4.846   0.136
 5036SOL    HW116007   0.050   4.847   0.204
 5036SOL    HW216008   6.920   4.798   0.172
 5037SOL     OW16009   4.912   2.365   2.510
 5037SOL    HW116010   4.864   2.279   2.526
 5037SOL    HW216011   5.010   2.352   2.524
 5038SOL     OW16012   1.878   5.353   5.602
 5038SOL    HW116013   1.864   5.261   5.638
 5038SOL    HW216014   1.971   5.362   5.567
 5039SOL     OW16015   2.259   3.813   5.467
 5039SOL    HW116016   2.225   3.864   5.388
 5039SOL    HW216017   2.356   3.792   5.453
 5040SOL     OW16018   2.043   4.461   6.109
 5040SOL    HW116019   2.127   4.481   6.160
 5040SOL    HW216020   2.067   4.435   6.015
 5041SOL     OW16021   1.487   3.344   1.345
 5041SOL    HW116022   1.566   3.285   1.361
 5041SOL    HW216023   1.494   3.426   1.401
 5042SOL     OW16024   0.008   2.875   6.728
 5042SOL    HW116025   7.019   2.825   6.814
 5042SOL    HW216026   6.993   2.967   6.738
 5043SOL     OW16027   3.179   0.960   5.704
 5043SOL    HW116028   3.178   1.060   5.695
 5043SOL    HW216029   3.232   0.934   5.785
 5044SOL     OW16030   5.944   0.220   2.800
 5044SOL    HW116031   5.936   0.153   2.874
 5044SOL    HW216032   6.021   0.281   2.818
 5045SOL     OW16033   5.330   2.742   6.923
 5045SOL    HW116034   5.231   2.740   6.923
 5045SOL    HW216035   5.362   2.836   6.914
 5046SOL     OW16036   3.518   4.112   4.933
 5046SOL    HW116037   3.515   4.121   5.033
 5046SOL    HW216038   3.427   4.126   4.896
 5047SOL     OW16039   6.860   2.174   2.400
 5047SOL    HW116040   6.866   2.247   2.332
 5047SOL    HW216041   6.869   2.085   2.355
 5048SOL     OW16042   0.011   2.119   1.073
 5048SOL    HW116043   6.938   2.088   1.078
 5048SOL    HW216044   0.053   2.082   0.990
 5049SOL     OW16045   0.092   1.568   4.140
 5049SOL    HW116046   0.136   1.482   4.168
 5049SOL    HW216047   0.161   1.630   4.104
 5050SOL     OW16048   1.159   1.192   2.092
 5050SOL    HW116049   1.179   1.284   2.127
 5050SOL    HW216050   1.214   1.174   2.011
 5051SOL     OW16051   4.419   3.593   0.564
 5051SOL    HW116052   4.328   3.630   0.585
 5051SOL    HW216053   4.469   3.580   0.650
 5052SOL     OW16054   2.605   4.941   5.841
 5052SOL    HW116055   2.564   4.995   5.768
 5052SOL    HW216056   2.607   4.995   5.926
 5053SOL     OW16057   1.988   4.028   3.497
 5053SOL    HW116058   2.047   4.076   3.433
 5053SOL    HW216059   2.031   3.942   3.524
 5054SOL     OW16060   3.656   5.810   4.771
 5054SOL    HW116061   3.735   5.758   4.737
 5054SOL    HW216062   3.579   5.748   4.786
 5055SOL     OW16063   0.318   1.228   5.059
 5055SOL    HW116064   0.380   1.303   5.082
 5055SOL    HW216065   0.371   1.150   5.026
 5056SOL     OW16066   6.384   4.134   0.541
 5056SOL    HW116067   6.330   4.073   0.482
 5056SOL    HW216068   6.479   4.105   0.541
 5057SOL     OW16069   0.866   5.759   3.749
 5057SOL    HW116070   0.867   5.659   3.742
 5057SOL    HW216071   0.941   5.797   3.695
 5058SOL     OW16072   2.328   4.191   6.166
 5058SOL    HW116073   2.412   4.164   6.213
 5058SOL    HW216074   2.320   4.290   6.166
 5059SOL     OW16075   5.481   3.339   4.132
 5059SOL    HW116076   5.392   3.364   4.096
 5059SOL    HW216077   5.505   3.246   4.102
 5060SOL     OW16078   0.207   2.507   5.445
 5060SOL    HW116079   0.262   2.576   5.397
 5060SOL    HW216080   0.110   2.525   5.428
 5061SOL     OW16081   3.089   3.034   3.773
 5061SOL    HW116082   3.053   2.968   3.707
 5061SOL    HW216083   3.036   3.119   3.769
 5062SOL     OW16084   5.561   1.295   2.123
 5062SOL    HW116085   5.656   1.282   2.095
 5062SOL    HW216086   5.525   1.379   2.083
 5063SOL     OW16087   0.998   5.972   1.813
 5063SOL    HW116088   0.989   5.973   1.713
 5063SOL    HW216089   1.069   6.037   1.841
 5064SOL     OW16090   5.072   5.044   1.227
 5064SOL    HW116091   5.036   5.096   1.304
 5064SOL    HW216092   5.172   5.042   1.232
 5065SOL     OW16093   1.683   1.464   3.115
 5065SOL    HW116094   1.652   1.554   3.083
 5065SOL    HW216095   1.643   1.393   3.058
 5066SOL     OW16096   2.968   4.222   1.735
 5066SOL    HW116097   2.953   4.231   1.637
 5066SOL    HW216098   2.955   4.311   1.779
 5067SOL     OW16099   4.283   1.251   2.955
 5067SOL    HW116100   4.205   1.188   2.956
 5067SOL    HW216101   4.256   1.337   2.999
 5068SOL     OW16102   3.374   5.494   0.391
 5068SOL    HW116103   3.382   5.584   0.434
 5068SOL    HW216104   3.459   5.444   0.405
 5069SOL     OW16105   2.176   2.988   6.189
 5069SOL    HW116106   2.113   3.065   6.201
 5069SOL    HW216107   2.156   2.942   6.102
 5070SOL     OW16108   5.650   4.750   4.930
 5070SOL    HW116109   5.682   4.667   4.976
 5070SOL    HW216110   5.551   4.759   4.942
 5071SOL     OW16111   4.198   2.243   3.494
 5071SOL    HW116112   4.195   2.192   3.580
 5071SOL    HW216113   4.248   2.328   3.507
 5072SOL     OW16114   1.632   0.996   1.557
 5072SOL    HW116115   1.646   1.052   1.639
 5072SOL    HW216116   1.690   1.031   1.483
 5073SOL     OW16117   1.708   5.056   1.014
 5073SOL    HW116118   1.796   5.047   0.968
 5073SOL    HW216119   1.664   4.966   1.021
 5074SOL     OW16120   4.115   2.212   1.855
 5074SOL    HW116121   4.149   2.229   1.948
 5074SOL    HW216122   4.096   2.299   1.810
 5075SOL     OW16123   1.185   2.280   6.935
 5075SOL    HW116124   1.127   2.358   6.914
 5075SOL    HW216125   1.226   2.245   6.851
 5076SOL     OW16126   5.745   6.947   0.593
 5076SOL    HW116127   5.844   6.956   0.583
 5076SOL    HW216128   5.705   0.015   0.610
 5077SOL     OW16129   0.456   3.615   5.820
 5077SOL    HW116130   0.528   3.645   5.882
 5077SOL    HW216131   0.382   3.682   5.819
 5078SOL     OW16132   0.650   1.278   4.324
 5078SOL    HW116133   0.583   1.297   4.252
 5078SOL    HW216134   0.712   1.205   4.294
 5079SOL     OW16135   2.388   2.945   5.480
 5079SOL    HW116136   2.406   2.974   5.386
 5079SOL    HW216137   2.405   3.022   5.542
 5080SOL     OW16138   5.612   5.704   5.776
 5080SOL    HW116139   5.519   5.728   5.748
 5080SOL    HW216140   5.659   5.659   5.700
 5081SOL     OW16141   3.051   4.705   6.041
 5081SOL    HW116142   3.013   4.727   5.951
 5081SOL    HW216143   3.098   4.786   6.078
 5082SOL     OW16144   5.316   0.398   0.328
 5082SOL    HW116145   5.345   0.321   0.271
 5082SOL    HW216146   5.392   0.462   0.339
 5083SOL     OW16147   3.171   0.321   2.051
 5083SOL    HW116148   3.218   0.244   2.006
 5083SOL    HW216149   3.093   0.350   1.996
 5084SOL     OW16150   1.019   4.785   4.032
 5084SOL    HW116151   1.107   4.779   3.984
 5084SOL    HW216152   1.034   4.822   4.124
 5085SOL     OW16153   0.191   2.925   5.402
 5085SOL    HW116154   0.247   2.842   5.400
 5085SOL    HW216155   0.141   2.933   5.316
 5086SOL     OW16156   1.060   4.441   2.957
 5086SOL    HW116157   0.968   4.433   2.995
 5086SOL    HW216158   1.114   4.505   3.012
 5087SOL     OW16159   0.253   5.367   1.272
 5087SOL    HW116160   0.316   5.290   1.284
 5087SOL    HW216161   0.297   5.451   1.303
 5088SOL     OW16162   5.108   6.896   3.259
 5088SOL    HW116163   5.087   6.894   3.161
 5088SOL    HW216164   5.118   6.991   3.289
 5089SOL     OW16165   5.951   4.648   4.148
 5089SOL    HW116166   5.992   4.731   4.185
 5089SOL    HW216167   5.998   4.623   4.063
 5090SOL     OW16168   1.800   1.864   2.246
 5090SOL    HW116169   1.818   1.952   2.202
 5090SOL    HW216170   1.815   1.873   2.345
 5091SOL     OW16171   6.719   0.888   1.570
 5091SOL    HW116172   6.704   0.801   1.617
 5091SOL    HW216173   6.633   0.938   1.563
 5092SOL     OW16174   3.367   3.180   3.600
 5092SOL    HW116175   3.295   3.118   3.568
 5092SOL    HW216176   3.427   3.132   3.663
 5093SOL     OW16177   3.590   1.158   1.022
 5093SOL    HW116178   3.552   1.251   1.016
 5093SOL    HW216179   3.682   1.158   0.981
 5094SOL     OW16180   2.566   5.997   6.374
 5094SOL    HW116181   2.618   6.023   6.292
 5094SOL    HW216182   2.513   5.914   6.354
 5095SOL     OW16183   0.207   2.387   2.916
 5095SOL    HW116184   0.148   2.454   2.962
 5095SOL    HW216185   0.280   2.359   2.979
 5096SOL     OW16186   4.701   4.846   6.752
 5096SOL    HW116187   4.678   4.749   6.756
 5096SOL    HW216188   4.689   4.879   6.658
 5097SOL     OW16189   0.381   6.661   0.006
 5097SOL    HW116190   0.322   6.730   6.987
 5097SOL    HW216191   0.383   6.579   6.971
 5098SOL     OW16192   3.052   1.282   2.160
 5098SOL    HW116193   3.118   1.306   2.232
 5098SOL    HW216194   2.967   1.332   2.176
 5099SOL     OW16195   0.750   6.678   1.776
 5099SOL    HW116196   0.658   6.707   1.749
 5099SOL    HW216197   0.746   6.626   1.861
 5100SOL     OW16198   3.330   5.422   4.430
 5100SOL    HW116199   3.294   5.329   4.427
 5100SOL    HW216200   3.430   5.419   4.422
 5101SOL     OW16201   4.183   0.002   5.838
 5101SOL    HW116202   4.172   0.071   5.909
 5101SOL    HW216203   4.101   7.021   5.782
 5102SOL     OW16204   5.546   6.085   4.338
 5102SOL    HW116205   5.577   6.178   4.318
 5102SOL    HW216206   5.617   6.036   4.389
 5103SOL     OW16207   0.477   1.378   4.152
 5103SOL    HW116208   0.380   1.353   4.158
 5103SOL    HW216209   0.484   1.475   4.127
 5104SOL     OW16210   2.598   6.959   1.737
 5104SOL    HW116211   2.508   6.923   1.763
 5104SOL    HW216212   2.601   0.035   1.754
 5105SOL     OW16213   3.260   2.857   0.263
 5105SOL    HW116214   3.345   2.806   0.248
 5105SOL    HW216215   3.251   2.879   0.360
 5106SOL     OW16216   4.446   1.347   1.441
 5106SOL    HW116217   4.411   1.409   1.371
 5106SOL    HW216218   4.450   1.394   1.529
 5107SOL     OW16219   4.753   2.519   1.486
 5107SOL    HW116220   4.684   2.488   1.551
 5107SOL    HW216221   4.783   2.441   1.429
 5108SOL     OW16222   3.970   3.851   4.965
 5108SOL    HW116223   4.044   3.891   5.020
 5108SOL    HW216224   4.007   3.776   4.910
 5109SOL     OW16225   0.992   2.105   0.472
 5109SOL    HW116226   0.910   2.058   0.441
 5109SOL    HW216227   1.073   2.056   0.439
 5110SOL     OW16228   0.662   0.444   6.246
 5110SOL    HW116229   0.704   0.516   6.300
 5110SOL    HW216230   0.733   0.392   6.198
 5111SOL     OW16231   1.659   0.972   4.279
 5111SOL    HW116232   1.723   1.044   4.251
 5111SOL    HW216233   1.630   0.919   4.199
 5112SOL     OW16234   0.854   0.433   2.794
 5112SOL    HW116235   0.832   0.343   2.758
 5112SOL    HW216236   0.913   0.482   2.729
 5113SOL     OW16237   1.281   5.451   1.251
 5113SOL    HW116238   1.365   5.475   1.299
 5113SOL    HW216239   1.301   5.439   1.153
 5114SOL     OW16240   4.031   0.021   6.745
 5114SOL    HW116241   4.083   6.968   6.705
 5114SOL    HW216242   4.021   0.005   6.844
 5115SOL     OW16243   1.488   5.034   3.054
 5115SOL    HW116244   1.572   5.008   3.101
 5115SOL    HW216245   1.496   5.127   3.020
 5116SOL     OW16246   0.938   6.285   0.555
 5116SOL    HW116247   0.868   6.313   0.490
 5116SOL    HW216248   0.905   6.206   0.607
 5117SOL     OW16249   0.803   3.926   4.078
 5117SOL    HW116250   0.843   3.882   4.159
 5117SOL    HW216251   0.766   4.015   4.104
 5118SOL     OW16252   5.424   0.697   6.815
 5118SOL    HW116253   5.397   0.608   6.777
 5118SOL    HW216254   5.358   0.726   6.883
 5119SOL     OW16255   4.582   1.137   2.663
 5119SOL    HW116256   4.523   1.200   2.714
 5119SOL    HW216257   4.649   1.188   2.611
 5120SOL     OW16258   4.220   7.008   5.069
 5120SOL    HW116259   4.297   6.980   5.126
 5120SOL    HW216260   4.202   6.938   5.000
 5121SOL     OW16261   3.512   2.876   6.961
 5121SOL    HW116262   3.438   2.926   6.916
 5121SOL    HW216263   3.526   2.789   6.915
 5122SOL     OW16264   3.428   6.215   3.526
 5122SOL    HW116265   3.482   6.286   3.482
 5122SOL    HW216266   3.333   6.247   3.537
 5123SOL     OW16267   5.116   1.744   4.506
 5123SOL    HW116268   5.182   1.813   4.475
 5123SOL    HW216269   5.028   1.759   4.460
 5124SOL     OW16270   1.448   5.936   5.007
 5124SOL    HW116271   1.489   6.022   5.037
 5124SOL    HW216272   1.487   5.860   5.059
 5125SOL     OW16273   6.498   2.876   3.610
 5125SOL    HW116274   6.573   2.836   3.558
 5125SOL    HW216275   6.513   2.861   3.707
 5126SOL     OW16276   6.802   6.044   6.567
 5126SOL    HW116277   6.853   5.999   6.493
 5126SOL    HW216278   6.746   5.977   6.614
 5127SOL     OW16279   0.148   3.905   0.092
 5127SOL    HW116280   0.053   3.927   0.069
 5127SOL    HW216281   0.206   3.918   0.012
 5128SOL     OW16282   0.368   0.588   0.154
 5128SOL    HW116283   0.411   0.635   0.231
 5128SOL    HW216284   0.421   0.507   0.130
 5129SOL     OW16285   6.351   6.865   2.799
 5129SOL    HW116286   6.376   6.942   2.741
 5129SOL    HW216287   6.374   6.779   2.753
 5130SOL     OW16288   6.947   5.590   2.753
 5130SOL    HW116289   6.990   5.679   2.745
 5130SOL    HW216290   7.014   5.518   2.735
 5131SOL     OW16291   2.090   4.048   4.026
 5131SOL    HW116292   2.026   4.124   4.035
 5131SOL    HW216293   2.100   4.001   4.114
 5132SOL     OW16294   3.848   2.906   6.480
 5132SOL    HW116295   3.824   2.848   6.402
 5132SOL    HW216296   3.803   2.995   6.471
 5133SOL     OW16297   1.760   4.995   0.230
 5133SOL    HW116298   1.755   5.057   0.308
 5133SOL    HW216299   1.855   4.968   0.214
 5134SOL     OW16300   0.342   3.141   1.956
 5134SOL    HW116301   0.312   3.046   1.962
 5134SOL    HW216302   0.285   3.198   2.015
 5135SOL     OW16303   5.934   2.597   5.168
 5135SOL    HW116304   5.859   2.530   5.178
 5135SOL    HW216305   5.895   2.687   5.148
 5136SOL     OW16306   4.622   0.480   6.225
 5136SOL    HW116307   4.644   0.525   6.139
 5136SOL    HW216308   4.694   0.415   6.249
 5137SOL     OW16309   5.243   3.453   6.043
 5137SOL    HW116310   5.211   3.535   5.995
 5137SOL    HW216311   5.340   3.440   6.025
 5138SOL     OW16312   2.773   2.940   5.994
 5138SOL    HW116313   2.711   3.012   5.961
 5138SOL    HW216314   2.736   2.899   6.077
 5139SOL     OW16315   2.112   0.021   3.020
 5139SOL    HW116316   2.057   6.967   2.987
 5139SOL    HW216317   2.134   0.082   2.944
 5140SOL     OW16318   3.975   2.351   0.100
 5140SOL    HW116319   3.878   2.373   0.086
 5140SOL    HW216320   4.031   2.418   0.051
 5141SOL     OW16321   6.760   3.662   0.482
 5141SOL    HW116322   6.857   3.649   0.500
 5141SOL    HW216323   6.711   3.577   0.503
 5142SOL     OW16324   6.118   0.419   3.908
 5142SOL    HW116325   6.056   0.432   3.986
 5142SOL    HW216326   6.064   0.399   3.826
 5143SOL     OW16327   6.890   4.435   4.314
 5143SOL    HW116328   6.889   4.346   4.270
 5143SOL    HW216329   6.801   4.452   4.358
 5144SOL     OW16330   1.240   4.892   6.096
 5144SOL    HW116331   1.244   4.818   6.163
 5144SOL    HW216332   1.156   4.945   6.109
 5145SOL     OW16333   2.509   5.088   5.320
 5145SOL    HW116334   2.497   4.989   5.315
 5145SOL    HW216335   2.544   5.113   5.410
 5146SOL     OW16336   3.860   4.135   5.128
 5146SOL    HW116337   3.765   4.122   5.099
 5146SOL    HW216338   3.885   4.063   5.192
 5147SOL     OW16339   6.459   4.711   3.049
 5147SOL    HW116340   6.476   4.809   3.046
 5147SOL    HW216341   6.381   4.689   2.990
 5148SOL     OW16342   0.934   6.046   1.080
 5148SOL    HW116343   1.002   6.105   1.124
 5148SOL    HW216344   0.848   6.050   1.131
 5149SOL     OW16345   6.362   6.125   3.464
 5149SOL    HW116346   6.455   6.161   3.470
 5149SOL    HW216347   6.363   6.026   3.469
 5150SOL     OW16348   2.210   4.796   2.491
 5150SOL    HW116349   2.224   4.895   2.489
 5150SOL    HW216350   2.216   4.764   2.586
 5151SOL     OW16351   5.338   2.272   0.696
 5151SOL    HW116352   5.346   2.250   0.599
 5151SOL    HW216353   5.355   2.189   0.750
 5152SOL     OW16354   1.874   4.569   0.035
 5152SOL    HW116355   1.792   4.543   7.006
 5152SOL    HW216356   1.848   4.607   0.123
 5153SOL     OW16357   2.379   0.431   6.881
 5153SOL    HW116358   2.353   0.521   6.916
 5153SOL    HW216359   2.318   0.362   6.920
 5154SOL     OW16360   1.069   2.990   6.403
 5154SOL    HW116361   1.155   2.942   6.385
 5154SOL    HW216362   1.034   3.030   6.318
 5155SOL     OW16363   4.219   6.954   2.398
 5155SOL    HW116364   4.156   0.003   2.368
 5155SOL    HW216365   4.173   6.865   2.394
 5156SOL     OW16366   6.577   3.166   6.184
 5156SOL    HW116367   6.624   3.236   6.130
 5156SOL    HW216368   6.628   3.080   6.177
 5157SOL     OW16369   4.214   2.066   3.697
 5157SOL    HW116370   4.226   2.039   3.792
 5157SOL    HW216371   4.188   1.986   3.642
 5158SOL     OW16372   3.560   0.824   1.616
 5158SOL    HW116373   3.615   0.889   1.668
 5158SOL    HW216374   3.609   0.736   1.612
 5159SOL     OW16375   6.816   3.293   4.102
 5159SOL    HW116376   6.818   3.356   4.024
 5159SOL    HW216377   6.838   3.201   4.072
 5160SOL     OW16378   0.134   4.423   3.452
 5160SOL    HW116379   0.157   4.337   3.497
 5160SOL    HW216380   0.051   4.461   3.493
 5161SOL     OW16381   1.607   3.385   4.808
 5161SOL    HW116382   1.643   3.394   4.901
 5161SOL    HW216383   1.656   3.447   4.748
 5162SOL     OW16384   1.464   5.508   3.330
 5162SOL    HW116385   1.554   5.549   3.341
 5162SOL    HW216386   1.469   5.410   3.352
 5163SOL     OW16387   3.789   5.975   0.824
 5163SOL    HW116388   3.842   5.991   0.907
 5163SOL    HW216389   3.819   6.038   0.752
 5164SOL     OW16390   4.441   2.966   6.533
 5164SOL    HW116391   4.451   3.026   6.453
 5164SOL    HW216392   4.374   2.894   6.513
 5165SOL     OW16393   6.130   4.590   5.418
 5165SOL    HW116394   6.086   4.598   5.507
 5165SOL    HW216395   6.092   4.659   5.356
 5166SOL     OW16396   6.725   5.501   2.906
 5166SOL    HW116397   6.705   5.552   2.990
 5166SOL    HW216398   6.806   5.540   2.862
 5167SOL     OW16399   6.420   5.716   5.805
 5167SOL    HW116400   6.326   5.708   5.771
 5167SOL    HW216401   6.421   5.772   5.887
 5168SOL     OW16402   5.206   3.620   3.149
 5168SOL    HW116403   5.264   3.675   3.210
 5168SOL    HW216404   5.247   3.616   3.058
 5169SOL     OW16405   4.212   1.822   5.579
 5169SOL    HW116406   4.238   1.918   5.568
 5169SOL    HW216407   4.132   1.803   5.522
 5170SOL     OW16408   0.174   4.265   5.199
 5170SOL    HW116409   0.107   4.338   5.216
 5170SOL    HW216410   0.139   4.204   5.128
 5171SOL     OW16411   1.607   5.847   4.013
 5171SOL    HW116412   1.617   5.843   3.913
 5171SOL    HW216413   1.622   5.756   4.051
 5172SOL     OW16414   6.944   2.550   2.731
 5172SOL    HW116415   6.920   2.557   2.828
 5172SOL    HW216416   6.876   2.494   2.684
 5173SOL     OW16417   5.806   4.604   6.196
 5173SOL    HW116418   5.853   4.569   6.277
 5173SOL    HW216419   5.864   4.595   6.116
 5174SOL     OW16420   2.500   4.961   3.050
 5174SOL    HW116421   2.572   5.029   3.034
 5174SOL    HW216422   2.519   4.879   2.997
 5175SOL     OW16423   1.908   3.877   6.765
 5175SOL    HW116424   1.848   3.955   6.783
 5175SOL    HW216425   1.986   3.907   6.709
 5176SOL     OW16426   4.107   3.273   6.660
 5176SOL    HW116427   4.126   3.185   6.705
 5176SOL    HW216428   4.155   3.346   6.709
 5177SOL     OW16429   5.138   0.448   6.515
 5177SOL    HW116430   5.063   0.472   6.453
 5177SOL    HW216431   5.171   0.530   6.562
 5178SOL     OW16432   1.168   3.636   1.440
 5178SOL    HW116433   1.088   3.585   1.472
 5178SOL    HW216434   1.251   3.592   1.472
 5179SOL     OW16435   3.951   6.027   4.778
 5179SOL    HW116436   3.934   5.981   4.865
 5179SOL    HW216437   3.945   6.126   4.790
 5180SOL     OW16438   3.234   2.539   0.295
 5180SOL    HW116439   3.251   2.445   0.263
 5180SOL    HW216440   3.142   2.567   0.267
 5181SOL     OW16441   4.955   2.054   2.528
 5181SOL    HW116442   4.911   1.965   2.526
 5181SOL    HW216443   5.053   2.043   2.543
 5182SOL     OW16444   3.795   4.722   1.601
 5182SOL    HW116445   3.727   4.685   1.665
 5182SOL    HW216446   3.767   4.702   1.507
 5183SOL     OW16447   3.670   1.219   2.574
 5183SOL    HW116448   3.576   1.250   2.584
 5183SOL    HW216449   3.706   1.251   2.486
 5184SOL     OW16450   0.218   2.525   4.217
 5184SOL    HW116451   0.153   2.469   4.270
 5184SOL    HW216452   0.285   2.565   4.278
 5185SOL     OW16453   5.557   0.915   2.283
 5185SOL    HW116454   5.500   0.879   2.209
 5185SOL    HW216455   5.500   0.928   2.365
 5186SOL     OW16456   6.094   3.310   1.060
 5186SOL    HW116457   6.014   3.363   1.031
 5186SOL    HW216458   6.068   3.214   1.072
 5187SOL     OW16459   0.274   0.453   3.912
 5187SOL    HW116460   0.185   0.424   3.877
 5187SOL    HW216461   0.289   0.549   3.891
 5188SOL     OW16462   0.460   5.389   0.463
 5188SOL    HW116463   0.422   5.474   0.499
 5188SOL    HW216464   0.475   5.325   0.537
 5189SOL     OW16465   5.098   5.047   0.944
 5189SOL    HW116466   5.061   5.082   1.030
 5189SOL    HW216467   5.092   4.948   0.942
 5190SOL     OW16468   6.963   3.358   4.334
 5190SOL    HW116469   0.015   3.424   4.327
 5190SOL    HW216470   6.928   3.338   4.242
 5191SOL     OW16471   4.308   0.477   1.835
 5191SOL    HW116472   4.277   0.571   1.821
 5191SOL    HW216473   4.340   0.466   1.929
 5192SOL     OW16474   2.737   5.774   3.141
 5192SOL    HW116475   2.707   5.870   3.132
 5192SOL    HW216476   2.824   5.770   3.189
 5193SOL     OW16477   5.391   4.456   4.670
 5193SOL    HW116478   5.326   4.487   4.739
 5193SOL    HW216479   5.352   4.380   4.618
 5194SOL     OW16480   4.031   0.831   0.142
 5194SOL    HW116481   4.022   0.864   0.048
 5194SOL    HW216482   3.990   0.740   0.150
 5195SOL     OW16483   6.692   5.955   3.932
 5195SOL    HW116484   6.747   5.967   4.014
 5195SOL    HW216485   6.746   5.910   3.862
 5196SOL     OW16486   1.397   3.870   0.823
 5196SOL    HW116487   1.318   3.834   0.773
 5196SOL    HW216488   1.418   3.963   0.792
 5197SOL     OW16489   1.605   5.722   5.113
 5197SOL    HW116490   1.682   5.692   5.056
 5197SOL    HW216491   1.552   5.642   5.142
 5198SOL     OW16492   4.122   6.632   3.733
 5198SOL    HW116493   4.149   6.617   3.829
 5198SOL    HW216494   4.160   6.559   3.677
 5199SOL     OW16495   1.182   6.507   6.848
 5199SOL    HW116496   1.102   6.494   6.788
 5199SOL    HW216497   1.265   6.481   6.799
 5200SOL     OW16498   1.435   1.808   5.438
 5200SOL    HW116499   1.343   1.847   5.428
 5200SOL    HW216500   1.428   1.709   5.446
 5201SOL     OW16501   6.295   6.225   4.017
 5201SOL    HW116502   6.250   6.212   3.928
 5201SOL    HW216503   6.343   6.312   4.017
 5202SOL     OW16504   5.747   4.317   5.781
 5202SOL    HW116505   5.699   4.404   5.789
 5202SOL    HW216506   5.697   4.257   5.719
 5203SOL     OW16507   2.268   0.661   6.967
 5203SOL    HW116508   2.184   0.619   7.001
 5203SOL    HW216509   2.313   0.711   0.018
 5204SOL     OW16510   3.843   6.473   0.076
 5204SOL    HW116511   3.897   6.520   0.147
 5204SOL    HW216512   3.857   6.374   0.084
 5205SOL     OW16513   6.802   6.005   0.241
 5205SOL    HW116514   6.865   6.037   0.170
 5205SOL    HW216515   6.743   6.081   0.269
 5206SOL     OW16516   0.134   5.347   6.452
 5206SOL    HW116517   0.098   5.265   6.408
 5206SOL    HW216518   0.124   5.425   6.391
 5207SOL     OW16519   1.121   0.283   3.412
 5207SOL    HW116520   1.102   0.192   3.447
 5207SOL    HW216521   1.149   0.277   3.316
 5208SOL     OW16522   4.479   2.525   6.723
 5208SOL    HW116523   4.504   2.436   6.762
 5208SOL    HW216524   4.392   2.518   6.675
 5209SOL     OW16525   5.502   0.778   1.470
 5209SOL    HW116526   5.598   0.806   1.473
 5209SOL    HW216527   5.454   0.815   1.549
 5210SOL     OW16528   4.672   3.424   0.932
 5210SOL    HW116529   4.689   3.437   1.030
 5210SOL    HW216530   4.611   3.496   0.900
 5211SOL     OW16531   4.250   1.690   5.212
 5211SOL    HW116532   4.268   1.614   5.150
 5211SOL    HW216533   4.165   1.672   5.262
 5212SOL     OW16534   1.714   3.155   1.354
 5212SOL    HW116535   1.742   3.179   1.447
 5212SOL    HW216536   1.687   3.059   1.351
 5213SOL     OW16537   4.273   3.676   1.023
 5213SOL    HW116538   4.209   3.645   1.094
 5213SOL    HW216539   4.228   3.671   0.934
 5214SOL     OW16540   5.630   2.730   5.795
 5214SOL    HW116541   5.602   2.662   5.727
 5214SOL    HW216542   5.550   2.784   5.822
 5215SOL     OW16543   0.563   4.693   4.234
 5215SOL    HW116544   0.589   4.624   4.302
 5215SOL    HW216545   0.485   4.745   4.268
 5216SOL     OW16546   4.713   5.091   1.281
 5216SOL    HW116547   4.710   4.996   1.251
 5216SOL    HW216548   4.780   5.102   1.354
 5217SOL     OW16549   3.403   5.513   4.124
 5217SOL    HW116550   3.384   5.483   4.218
 5217SOL    HW216551   3.488   5.470   4.093
 5218SOL     OW16552   0.751   1.381   1.515
 5218SOL    HW116553   0.737   1.305   1.451
 5218SOL    HW216554   0.771   1.465   1.464
 5219SOL     OW16555   3.689   1.562   4.769
 5219SOL    HW116556   3.605   1.588   4.721
 5219SOL    HW216557   3.752   1.639   4.768
 5220SOL     OW16558   1.621   5.308   3.123
 5220SOL    HW116559   1.563   5.280   3.200
 5220SOL    HW216560   1.714   5.271   3.136
 5221SOL     OW16561   6.602   0.906   2.870
 5221SOL    HW116562   6.544   0.907   2.951
 5221SOL    HW216563   6.588   0.821   2.820
 5222SOL     OW16564   3.796   6.719   1.986
 5222SOL    HW116565   3.779   6.641   2.046
 5222SOL    HW216566   3.892   6.745   1.991
 5223SOL     OW16567   0.021   2.724   6.950
 5223SOL    HW116568   0.106   2.701   6.903
 5223SOL    HW216569   0.037   2.730   0.026
 5224SOL     OW16570   6.758   2.521   4.653
 5224SOL    HW116571   6.851   2.528   4.615
 5224SOL    HW216572   6.751   2.578   4.735
 5225SOL     OW16573   6.423   1.103   3.319
 5225SOL    HW116574   6.387   1.116   3.412
 5225SOL    HW216575   6.523   1.112   3.322
 5226SOL     OW16576   0.320   6.903   4.081
 5226SOL    HW116577   0.345   7.000   4.077
 5226SOL    HW216578   0.353   6.856   3.999
 5227SOL     OW16579   0.193   4.253   5.900
 5227SOL    HW116580   0.218   4.170   5.950
 5227SOL    HW216581   0.237   4.252   5.810
 5228SOL     OW16582   0.815   2.327   0.046
 5228SOL    HW116583   0.893   2.270   0.072
 5228SOL    HW216584   0.735   2.268   0.032
 5229SOL     OW16585   3.094   6.661   0.369
 5229SOL    HW116586   3.084   6.655   0.469
 5229SOL    HW216587   3.112   6.570   0.332
 5230SOL     OW16588   6.777   5.976   1.901
 5230SOL    HW116589   6.767   5.974   2.000
 5230SOL    HW216590   6.706   5.919   1.859
 5231SOL     OW16591   4.692   2.429   3.571
 5231SOL    HW116592   4.786   2.437   3.536
 5231SOL    HW216593   4.628   2.425   3.495
 5232SOL     OW16594   1.016   4.019   5.694
 5232SOL    HW116595   1.080   4.089   5.725
 5232SOL    HW216596   1.053   3.928   5.715
 5233SOL     OW16597   3.453   0.829   2.901
 5233SOL    HW116598   3.385   0.901   2.891
 5233SOL    HW216599   3.422   0.763   2.969
 5234SOL     OW16600   2.573   2.522   6.375
 5234SOL    HW116601   2.629   2.582   6.318
 5234SOL    HW216602   2.507   2.474   6.318
 5235SOL     OW16603   1.761   2.188   0.726
 5235SOL    HW116604   1.731   2.097   0.757
 5235SOL    HW216605   1.690   2.255   0.745
 5236SOL     OW16606   3.579   5.539   1.995
 5236SOL    HW116607   3.482   5.525   1.973
 5236SOL    HW216608   3.633   5.527   1.912
 5237SOL     OW16609   1.286   0.690   4.879
 5237SOL    HW116610   1.244   0.775   4.910
 5237SOL    HW216611   1.358   0.712   4.813
 5238SOL     OW16612   0.338   5.048   0.283
 5238SOL    HW116613   0.387   5.058   0.197
 5238SOL    HW216614   0.270   5.120   0.292
 5239SOL     OW16615   3.681   2.574   6.494
 5239SOL    HW116616   3.696   2.627   6.410
 5239SOL    HW216617   3.758   2.588   6.557
 5240SOL     OW16618   3.410   2.325   5.347
 5240SOL    HW116619   3.427   2.227   5.338
 5240SOL    HW216620   3.346   2.354   5.275
 5241SOL     OW16621   0.515   6.124   3.983
 5241SOL    HW116622   0.547   6.052   4.045
 5241SOL    HW216623   0.594   6.175   3.948
 5242SOL     OW16624   6.084   6.522   1.274
 5242SOL    HW116625   5.994   6.509   1.233
 5242SOL    HW216626   6.108   6.619   1.270
 5243SOL     OW16627   2.010   5.430   1.857
 5243SOL    HW116628   1.919   5.460   1.829
 5243SOL    HW216629   2.052   5.499   1.915
 5244SOL     OW16630   3.587   4.552   0.019
 5244SOL    HW116631   3.515   4.483   0.028
 5244SOL    HW216632   3.663   4.513   6.988
 5245SOL     OW16633   3.593   4.381   0.437
 5245SOL    HW116634   3.638   4.377   0.526
 5245SOL    HW216635   3.616   4.467   0.392
 5246SOL     OW16636   6.625   2.802   2.125
 5246SOL    HW116637   6.588   2.739   2.193
 5246SOL    HW216638   6.699   2.854   2.165
 5247SOL     OW16639   2.893   0.387   6.371
 5247SOL    HW116640   2.845   0.338   6.444
 5247SOL    HW216641   2.945   0.321   6.316
 5248SOL     OW16642   6.453   2.290   3.217
 5248SOL    HW116643   6.462   2.204   3.268
 5248SOL    HW216644   6.369   2.336   3.245
 5249SOL     OW16645   0.698   5.760   6.234
 5249SOL    HW116646   0.721   5.826   6.305
 5249SOL    HW216647   0.640   5.804   6.165
 5250SOL     OW16648   1.079   5.954   0.283
 5250SOL    HW116649   1.163   5.965   0.335
 5250SOL    HW216650   1.083   6.009   0.200
 5251SOL     OW16651   1.062   2.996   0.156
 5251SOL    HW116652   0.989   3.045   0.108
 5251SOL    HW216653   1.102   3.055   0.225
 5252SOL     OW16654   2.967   6.254   0.805
 5252SOL    HW116655   2.885   6.289   0.850
 5252SOL    HW216656   2.942   6.178   0.744
 5253SOL     OW16657   6.799   3.763   4.933
 5253SOL    HW116658   6.812   3.847   4.985
 5253SOL    HW216659   6.748   3.784   4.849
 5254SOL     OW16660   5.124   0.773   3.190
 5254SOL    HW116661   5.182   0.737   3.118
 5254SOL    HW216662   5.039   0.808   3.151
 5255SOL     OW16663   5.534   2.113   5.232
 5255SOL    HW116664   5.512   2.016   5.236
 5255SOL    HW216665   5.597   2.136   5.306
 5256SOL     OW16666   5.164   1.910   4.059
 5256SOL    HW116667   5.215   1.855   4.125
 5256SOL    HW216668   5.157   1.860   3.972
 5257SOL     OW16669   5.341   6.626   1.574
 5257SOL    HW116670   5.310   6.541   1.531
 5257SOL    HW216671   5.274   6.698   1.557
 5258SOL     OW16672   6.143   3.284   2.214
 5258SOL    HW116673   6.210   3.210   2.203
 5258SOL    HW216674   6.051   3.246   2.210
 5259SOL     OW16675   4.961   6.099   2.419
 5259SOL    HW116676   5.032   6.117   2.351
 5259SOL    HW216677   4.985   6.017   2.471
 5260SOL     OW16678   4.858   3.516   0.677
 5260SOL    HW116679   4.952   3.504   0.708
 5260SOL    HW216680   4.797   3.520   0.757
 5261SOL     OW16681   6.651   4.006   5.702
 5261SOL    HW116682   6.628   3.909   5.698
 5261SOL    HW216683   6.568   4.059   5.722
 5262SOL     OW16684   1.989   1.627   3.682
 5262SOL    HW116685   2.054   1.640   3.607
 5262SOL    HW216686   1.990   1.531   3.711
 5263SOL     OW16687   1.930   1.238   2.884
 5263SOL    HW116688   1.926   1.196   2.793
 5263SOL    HW216689   1.923   1.167   2.954
 5264SOL     OW16690   6.328   2.205   2.110
 5264SOL    HW116691   6.357   2.295   2.076
 5264SOL    HW216692   6.303   2.147   2.032
 5265SOL     OW16693   6.301   3.742   3.848
 5265SOL    HW116694   6.379   3.803   3.834
 5265SOL    HW216695   6.303   3.705   3.941
 5266SOL     OW16696   3.313   5.526   0.117
 5266SOL    HW116697   3.322   5.498   0.212
 5266SOL    HW216698   3.345   5.621   0.106
 5267SOL     OW16699   4.918   1.816   5.162
 5267SOL    HW116700   5.007   1.827   5.207
 5267SOL    HW216701   4.847   1.803   5.231
 5268SOL     OW16702   5.794   0.919   0.123
 5268SOL    HW116703   5.886   0.881   0.130
 5268SOL    HW216704   5.730   0.858   0.171
 5269SOL     OW16705   0.904   6.399   2.503
 5269SOL    HW116706   0.919   6.497   2.496
 5269SOL    HW216707   0.915   6.370   2.598
 5270SOL     OW16708   5.386   0.862   1.700
 5270SOL    HW116709   5.416   0.786   1.757
 5270SOL    HW216710   5.294   0.891   1.729
 5271SOL     OW16711   6.230   5.144   5.360
 5271SOL    HW116712   6.269   5.099   5.441
 5271SOL    HW216713   6.134   5.165   5.377
 5272SOL     OW16714   3.465   6.361   1.761
 5272SOL    HW116715   3.513   6.328   1.842
 5272SOL    HW216716   3.407   6.438   1.786
 5273SOL     OW16717   0.547   3.096   3.240
 5273SOL    HW116718   0.644   3.072   3.232
 5273SOL    HW216719   0.523   3.105   3.337
 5274SOL     OW16720   6.211   0.365   2.754
 5274SOL    HW116721   6.270   0.285   2.745
 5274SOL    HW216722   6.207   0.413   2.666
 5275SOL     OW16723   3.900   2.250   0.532
 5275SOL    HW116724   3.874   2.307   0.610
 5275SOL    HW216725   3.860   2.159   0.543
 5276SOL     OW16726   1.815   0.353   0.626
 5276SOL    HW116727   1.750   0.428   0.635
 5276SOL    HW216728   1.890   0.366   0.690
 5277SOL     OW16729   2.131   1.500   2.130
 5277SOL    HW116730   2.147   1.502   2.229
 5277SOL    HW216731   2.053   1.559   2.108
 5278SOL     OW16732   5.537   6.148   3.438
 5278SOL    HW116733   5.501   6.225   3.489
 5278SOL    HW216734   5.461   6.097   3.396
 5279SOL     OW16735   2.356   5.372   0.035
 5279SOL    HW116736   2.371   5.431   0.114
 5279SOL    HW216737   2.420   5.395   6.984
 5280SOL     OW16738   3.169   5.762   4.884
 5280SOL    HW116739   3.172   5.859   4.863
 5280SOL    HW216740   3.104   5.716   4.823
 5281SOL     OW16741   6.754   1.459   2.254
 5281SOL    HW116742   6.744   1.506   2.167
 5281SOL    HW216743   6.667   1.461   2.304
 5282SOL     OW16744   3.578   1.667   3.599
 5282SOL    HW116745   3.663   1.655   3.652
 5282SOL    HW216746   3.589   1.744   3.536
 5283SOL     OW16747   4.237   6.209   2.111
 5283SOL    HW116748   4.315   6.243   2.163
 5283SOL    HW216749   4.235   6.252   2.021
 5284SOL     OW16750   4.612   4.351   3.316
 5284SOL    HW116751   4.599   4.270   3.373
 5284SOL    HW216752   4.671   4.329   3.239
 5285SOL     OW16753   2.448   4.679   4.118
 5285SOL    HW116754   2.440   4.581   4.140
 5285SOL    HW216755   2.360   4.714   4.089
 5286SOL     OW16756   1.953   4.645   0.551
 5286SOL    HW116757   2.014   4.676   0.624
 5286SOL    HW216758   1.970   4.548   0.533
 5287SOL     OW16759   3.221   0.883   7.001
 5287SOL    HW116760   3.133   0.921   0.008
 5287SOL    HW216761   3.227   0.788   0.008
 5288SOL     OW16762   2.789   0.203   1.582
 5288SOL    HW116763   2.821   0.201   1.487
 5288SOL    HW216764   2.812   0.292   1.622
 5289SOL     OW16765   2.046   5.313   6.255
 5289SOL    HW116766   1.978   5.333   6.184
 5289SOL    HW216767   2.000   5.289   6.340
 5290SOL     OW16768   2.654   5.339   5.448
 5290SOL    HW116769   2.567   5.388   5.449
 5290SOL    HW216770   2.702   5.358   5.362
 5291SOL     OW16771   2.235   6.021   5.677
 5291SOL    HW116772   2.309   6.031   5.744
 5291SOL    HW216773   2.210   6.112   5.642
 5292SOL     OW16774   5.826   2.734   6.851
 5292SOL    HW116775   5.813   2.658   6.914
 5292SOL    HW216776   5.884   2.705   6.774
 5293SOL     OW16777   0.493   1.023   4.947
 5293SOL    HW116778   0.519   0.980   4.861
 5293SOL    HW216779   0.542   0.978   5.022
 5294SOL     OW16780   4.844   3.618   6.083
 5294SOL    HW116781   4.779   3.691   6.102
 5294SOL    HW216782   4.804   3.552   6.019
 5295SOL     OW16783   6.620   1.426   2.901
 5295SOL    HW116784   6.675   1.433   2.818
 5295SOL    HW216785   6.625   1.332   2.936
 5296SOL     OW16786   1.895   5.783   6.614
 5296SOL    HW116787   1.799   5.793   6.640
 5296SOL    HW216788   1.905   5.705   6.552
 5297SOL     OW16789   1.586   1.853   1.239
 5297SOL    HW116790   1.539   1.793   1.304
 5297SOL    HW216791   1.543   1.943   1.240
 5298SOL     OW16792   6.803   5.979   2.194
 5298SOL    HW116793   6.769   5.935   2.276
 5298SOL    HW216794   6.774   6.075   2.193
 5299SOL     OW16795   3.038   2.070   1.012
 5299SOL    HW116796   3.011   2.143   1.074
 5299SOL    HW216797   2.957   2.018   0.984
 5300SOL     OW16798   0.085   5.812   2.627
 5300SOL    HW116799   0.147   5.830   2.703
 5300SOL    HW216800   0.133   5.758   2.558
 5301SOL     OW16801   4.504   1.359   0.298
 5301SOL    HW116802   4.556   1.444   0.313
 5301SOL    HW216803   4.427   1.378   0.237
 5302SOL     OW16804   6.052   5.361   3.313
 5302SOL    HW116805   6.040   5.325   3.406
 5302SOL    HW216806   5.977   5.423   3.292
 5303SOL     OW16807   6.791   6.871   3.774
 5303SOL    HW116808   6.722   6.871   3.846
 5303SOL    HW216809   6.834   6.781   3.770
 5304SOL     OW16810   6.380   2.387   6.233
 5304SOL    HW116811   6.403   2.345   6.146
 5304SOL    HW216812   6.349   2.481   6.218
 5305SOL     OW16813   1.462   0.474   3.875
 5305SOL    HW116814   1.491   0.500   3.782
 5305SOL    HW216815   1.536   0.422   3.918
 5306SOL     OW16816   2.065   6.604   5.188
 5306SOL    HW116817   2.120   6.671   5.237
 5306SOL    HW216818   2.067   6.625   5.090
 5307SOL     OW16819   3.871   6.343   6.549
 5307SOL    HW116820   3.834   6.359   6.457
 5307SOL    HW216821   3.804   6.372   6.617
 5308SOL     OW16822   0.396   0.514   4.207
 5308SOL    HW116823   0.370   0.460   4.127
 5308SOL    HW216824   0.493   0.536   4.202
 5309SOL     OW16825   4.020   3.834   3.288
 5309SOL    HW116826   4.108   3.786   3.284
 5309SOL    HW216827   4.000   3.860   3.382
 5310SOL     OW16828   5.126   2.479   2.079
 5310SOL    HW116829   5.095   2.508   2.170
 5310SOL    HW216830   5.055   2.499   2.012
 5311SOL     OW16831   0.359   5.942   0.023
 5311SOL    HW116832   0.291   5.959   0.095
 5311SOL    HW216833   0.372   6.026   6.992
 5312SOL     OW16834   0.134   5.126   2.427
 5312SOL    HW116835   0.093   5.154   2.340
 5312SOL    HW216836   0.062   5.100   2.491
 5313SOL     OW16837   0.554   5.028   0.076
 5313SOL    HW116838   0.616   4.963   0.120
 5313SOL    HW216839   0.604   5.111   0.053
 5314SOL     OW16840   4.874   5.162   0.827
 5314SOL    HW116841   4.844   5.171   0.732
 5314SOL    HW216842   4.973   5.153   0.830
 5315SOL     OW16843   4.618   4.413   1.730
 5315SOL    HW116844   4.562   4.410   1.647
 5315SOL    HW216845   4.584   4.345   1.795
 5316SOL     OW16846   0.132   5.580   4.335
 5316SOL    HW116847   0.067   5.536   4.274
 5316SOL    HW216848   0.178   5.655   4.288
 5317SOL     OW16849   5.688   1.184   4.165
 5317SOL    HW116850   5.609   1.170   4.225
 5317SOL    HW216851   5.656   1.208   4.074
 5318SOL     OW16852   6.772   2.159   4.780
 5318SOL    HW116853   6.692   2.101   4.792
 5318SOL    HW216854   6.782   2.182   4.683
 5319SOL     OW16855   4.852   6.778   6.804
 5319SOL    HW116856   4.918   6.840   6.846
 5319SOL    HW216857   4.901   6.698   6.767
 5320SOL     OW16858   6.223   5.066   0.234
 5320SOL    HW116859   6.190   5.160   0.226
 5320SOL    HW216860   6.322   5.067   0.250
 5321SOL     OW16861   0.557   5.025   3.414
 5321SOL    HW116862   0.458   5.029   3.398
 5321SOL    HW216863   0.601   5.100   3.364
 5322SOL     OW16864   3.689   6.646   6.673
 5322SOL    HW116865   3.686   6.746   6.680
 5322SOL    HW216866   3.745   6.609   6.747
 5323SOL     OW16867   4.620   2.950   1.109
 5323SOL    HW116868   4.595   2.937   1.013
 5323SOL    HW216869   4.541   2.983   1.160
 5324SOL     OW16870   3.784   2.501   1.693
 5324SOL    HW116871   3.727   2.559   1.634
 5324SOL    HW216872   3.725   2.438   1.744
 5325SOL     OW16873   5.746   0.262   3.236
 5325SOL    HW116874   5.647   0.250   3.227
 5325SOL    HW216875   5.772   0.353   3.205
 5326SOL     OW16876   6.205   4.979   2.581
 5326SOL    HW116877   6.111   4.951   2.564
 5326SOL    HW216878   6.209   5.038   2.662
 5327SOL     OW16879   0.392   6.133   5.654
 5327SOL    HW116880   0.321   6.204   5.659
 5327SOL    HW216881   0.375   6.075   5.574
 5328SOL     OW16882   3.381   2.316   5.831
 5328SOL    HW116883   3.354   2.220   5.828
 5328SOL    HW216884   3.304   2.373   5.803
 5329SOL     OW16885   6.681   3.660   0.810
 5329SOL    HW116886   6.779   3.653   0.793
 5329SOL    HW216887   6.665   3.683   0.906
 5330SOL     OW16888   3.660   4.240   6.855
 5330SOL    HW116889   3.672   4.265   6.759
 5330SOL    HW216890   3.567   4.206   6.869
 5331SOL     OW16891   4.811   1.957   0.775
 5331SOL    HW116892   4.750   1.999   0.842
 5331SOL    HW216893   4.885   2.020   0.752
 5332SOL     OW16894   6.563   4.436   7.016
 5332SOL    HW116895   6.578   4.349   0.041
 5332SOL    HW216896   6.478   4.477   0.025
 5333SOL     OW16897   1.781   0.958   3.634
 5333SOL    HW116898   1.803   0.893   3.562
 5333SOL    HW216899   1.744   0.909   3.713
 5334SOL     OW16900   4.742   5.156   4.671
 5334SOL    HW116901   4.768   5.100   4.750
 5334SOL    HW216902   4.712   5.246   4.702
 5335SOL     OW16903   6.751   4.199   2.081
 5335SOL    HW116904   6.653   4.179   2.079
 5335SOL    HW216905   6.785   4.188   2.174
 5336SOL     OW16906   1.937   1.944   3.906
 5336SOL    HW116907   1.996   2.004   3.851
 5336SOL    HW216908   1.873   1.896   3.845
 5337SOL     OW16909   5.814   4.791   2.009
 5337SOL    HW116910   5.747   4.749   1.948
 5337SOL    HW216911   5.797   4.890   2.015
 5338SOL     OW16912   5.512   2.595   0.070
 5338SOL    HW116913   5.457   2.643   0.001
 5338SOL    HW216914   5.540   2.660   0.141
 5339SOL     OW16915   5.635   1.982   1.592
 5339SOL    HW116916   5.690   2.029   1.661
 5339SOL    HW216917   5.635   1.883   1.610
 5340SOL     OW16918   5.236   3.878   1.642
 5340SOL    HW116919   5.321   3.930   1.651
 5340SOL    HW216920   5.228   3.814   1.719
 5341SOL     OW16921   4.419   4.678   4.421
 5341SOL    HW116922   4.462   4.714   4.503
 5341SOL    HW216923   4.322   4.705   4.420
 5342SOL     OW16924   4.721   6.367   5.223
 5342SOL    HW116925   4.639   6.310   5.227
 5342SOL    HW216926   4.695   6.461   5.200
 5343SOL     OW16927   3.626   3.500   4.736
 5343SOL    HW116928   3.685   3.547   4.802
 5343SOL    HW216929   3.652   3.404   4.732
 5344SOL     OW16930   0.122   1.424   6.383
 5344SOL    HW116931   0.107   1.326   6.397
 5344SOL    HW216932   0.134   1.469   6.471
 5345SOL     OW16933   5.015   1.262   0.129
 5345SOL    HW116934   5.003   1.202   0.208
 5345SOL    HW216935   4.974   1.220   0.049
 5346SOL     OW16936   2.952   5.041   4.036
 5346SOL    HW116937   2.910   4.974   4.098
 5346SOL    HW216938   2.885   5.069   3.967
 5347SOL     OW16939   0.089   3.172   3.604
 5347SOL    HW116940   0.108   3.268   3.621
 5347SOL    HW216941   0.043   3.162   3.516
 5348SOL     OW16942   0.063   1.176   5.125
 5348SOL    HW116943   0.071   1.078   5.106
 5348SOL    HW216944   0.149   1.221   5.102
 5349SOL     OW16945   2.360   2.762   1.776
 5349SOL    HW116946   2.320   2.835   1.721
 5349SOL    HW216947   2.459   2.765   1.770
 5350SOL     OW16948   1.876   6.744   5.621
 5350SOL    HW116949   1.809   6.737   5.547
 5350SOL    HW216950   1.843   6.695   5.701
 5351SOL     OW16951   0.293   4.532   2.141
 5351SOL    HW116952   0.222   4.558   2.206
 5351SOL    HW216953   0.383   4.542   2.184
 5352SOL     OW16954   2.356   4.285   2.568
 5352SOL    HW116955   2.363   4.188   2.591
 5352SOL    HW216956   2.334   4.294   2.470
 5353SOL     OW16957   3.669   5.346   3.252
 5353SOL    HW116958   3.703   5.267   3.201
 5353SOL    HW216959   3.573   5.330   3.277
 5354SOL     OW16960   2.788   4.439   7.004
 5354SOL    HW116961   2.745   4.508   0.040
 5354SOL    HW216962   2.719   4.372   6.976
 5355SOL     OW16963   4.593   5.623   5.449
 5355SOL    HW116964   4.498   5.594   5.464
 5355SOL    HW216965   4.645   5.613   5.534
 5356SOL     OW16966   6.968   3.101   2.042
 5356SOL    HW116967   7.009   3.112   1.951
 5356SOL    HW216968   0.018   3.090   2.110
 5357SOL     OW16969   4.112   4.837   2.107
 5357SOL    HW116970   4.186   4.904   2.108
 5357SOL    HW216971   4.137   4.761   2.046
 5358SOL     OW16972   4.668   2.032   0.211
 5358SOL    HW116973   4.695   1.940   0.240
 5358SOL    HW216974   4.605   2.024   0.133
 5359SOL     OW16975   2.336   2.304   6.470
 5359SOL    HW116976   2.418   2.256   6.502
 5359SOL    HW216977   2.263   2.238   6.454
 5360SOL     OW16978   5.469   5.914   2.980
 5360SOL    HW116979   5.549   5.963   2.945
 5360SOL    HW216980   5.393   5.977   2.993
 5361SOL     OW16981   2.981   6.349   3.084
 5361SOL    HW116982   2.905   6.407   3.114
 5361SOL    HW216983   3.018   6.384   2.999
 5362SOL     OW16984   6.433   6.745   2.439
 5362SOL    HW116985   6.466   6.702   2.523
 5362SOL    HW216986   6.335   6.761   2.447
 5363SOL     OW16987   5.477   6.225   4.630
 5363SOL    HW116988   5.389   6.184   4.608
 5363SOL    HW216989   5.550   6.164   4.599
 5364SOL     OW16990   5.411   0.768   2.066
 5364SOL    HW116991   5.454   0.746   1.979
 5364SOL    HW216992   5.330   0.824   2.050
 5365SOL     OW16993   2.946   3.522   2.175
 5365SOL    HW116994   2.935   3.617   2.146
 5365SOL    HW216995   2.926   3.514   2.272
 5366SOL     OW16996   6.616   0.163   1.953
 5366SOL    HW116997   6.655   0.248   1.917
 5366SOL    HW216998   6.555   0.123   1.885
 5367SOL     OW16999   5.754   0.156   0.860
 5367SOL    HW117000   5.778   0.245   0.898
 5367SOL    HW217001   5.711   0.168   0.771
 5368SOL     OW17002   0.072   5.757   2.227
 5368SOL    HW117003   0.100   5.837   2.173
 5368SOL    HW217004   0.138   5.743   2.301
 5369SOL     OW17005   2.918   5.815   1.655
 5369SOL    HW117006   2.887   5.720   1.654
 5369SOL    HW217007   3.003   5.822   1.604
 5370SOL     OW17008   4.157   3.247   1.859
 5370SOL    HW117009   4.204   3.161   1.877
 5370SOL    HW217010   4.183   3.281   1.768
 5371SOL     OW17011   0.231   5.096   5.346
 5371SOL    HW117012   0.139   5.131   5.327
 5371SOL    HW217013   0.295   5.131   5.277
 5372SOL     OW17014   1.074   0.311   2.426
 5372SOL    HW117015   1.093   0.219   2.461
 5372SOL    HW217016   0.978   0.317   2.398
 5373SOL     OW17017   3.760   6.695   6.192
 5373SOL    HW117018   3.850   6.673   6.154
 5373SOL    HW217019   3.770   6.722   6.288
 5374SOL     OW17020   2.433   4.381   1.159
 5374SOL    HW117021   2.421   4.475   1.127
 5374SOL    HW217022   2.344   4.340   1.177
 5375SOL     OW17023   0.797   6.085   5.252
 5375SOL    HW117024   0.794   6.078   5.351
 5375SOL    HW217025   0.759   6.173   5.223
 5376SOL     OW17026   1.165   2.458   2.199
 5376SOL    HW117027   1.138   2.419   2.287
 5376SOL    HW217028   1.255   2.422   2.173
 5377SOL     OW17029   2.295   0.947   3.134
 5377SOL    HW117030   2.382   0.955   3.182
 5377SOL    HW217031   2.298   1.003   3.051
 5378SOL     OW17032   6.062   0.617   0.731
 5378SOL    HW117033   6.036   0.528   0.693
 5378SOL    HW217034   5.982   0.677   0.732
 5379SOL     OW17035   0.954   3.319   5.574
 5379SOL    HW117036   0.952   3.263   5.656
 5379SOL    HW217037   1.003   3.404   5.593
 5380SOL     OW17038   3.101   7.020   1.178
 5380SOL    HW117039   3.178   6.956   1.180
 5380SOL    HW217040   3.135   0.091   1.170
 5381SOL     OW17041   6.064   5.862   2.131
 5381SOL    HW117042   6.033   5.927   2.200
 5381SOL    HW217043   6.160   5.879   2.109
 5382SOL     OW17044   3.353   2.106   2.836
 5382SOL    HW117045   3.305   2.194   2.842
 5382SOL    HW217046   3.341   2.068   2.744
 5383SOL     OW17047   1.023   3.049   4.683
 5383SOL    HW117048   1.093   3.005   4.738
 5383SOL    HW217049   0.955   3.092   4.742
 5384SOL     OW17050   4.440   5.614   4.944
 5384SOL    HW117051   4.537   5.631   4.959
 5384SOL    HW217052   4.388   5.642   5.024
 5385SOL     OW17053   6.615   2.499   5.766
 5385SOL    HW117054   6.524   2.465   5.744
 5385SOL    HW217055   6.684   2.436   5.731
 5386SOL     OW17056   5.467   2.354   4.020
 5386SOL    HW117057   5.439   2.258   4.025
 5386SOL    HW217058   5.473   2.392   4.112
 5387SOL     OW17059   2.934   6.644   3.278
 5387SOL    HW117060   2.869   6.634   3.203
 5387SOL    HW217061   3.025   6.661   3.240
 5388SOL     OW17062   1.490   6.521   2.552
 5388SOL    HW117063   1.560   6.493   2.617
 5388SOL    HW217064   1.512   6.485   2.461
 5389SOL     OW17065   4.272   2.099   4.443
 5389SOL    HW117066   4.178   2.132   4.437
 5389SOL    HW217067   4.307   2.080   4.352
 5390SOL     OW17068   5.192   3.650   4.414
 5390SOL    HW117069   5.100   3.689   4.418
 5390SOL    HW217070   5.205   3.587   4.491
 5391SOL     OW17071   2.824   2.281   7.019
 5391SOL    HW117072   2.763   2.357   6.996
 5391SOL    HW217073   2.873   2.302   0.082
 5392SOL     OW17074   4.794   2.976   2.615
 5392SOL    HW117075   4.729   2.957   2.542
 5392SOL    HW217076   4.832   3.068   2.603
 5393SOL     OW17077   4.565   0.403   5.409
 5393SOL    HW117078   4.505   0.462   5.355
 5393SOL    HW217079   4.509   0.346   5.469
 5394SOL     OW17080   0.678   6.056   1.241
 5394SOL    HW117081   0.589   6.034   1.202
 5394SOL    HW217082   0.675   6.147   1.282
 5395SOL     OW17083   4.925   0.996   1.419
 5395SOL    HW117084   4.921   0.950   1.331
 5395SOL    HW217085   4.850   1.062   1.427
 5396SOL     OW17086   5.219   6.126   1.811
 5396SOL    HW117087   5.267   6.060   1.869
 5396SOL    HW217088   5.154   6.078   1.752
 5397SOL     OW17089   6.641   1.987   1.963
 5397SOL    HW117090   6.691   2.058   1.913
 5397SOL    HW217091   6.699   1.951   2.036
 5398SOL     OW17092   3.840   1.821   3.472
 5398SOL    HW117093   3.929   1.819   3.518
 5398SOL    HW217094   3.849   1.787   3.379
 5399SOL     OW17095   2.252   6.416   6.103
 5399SOL    HW117096   2.291   6.342   6.159
 5399SOL    HW217097   2.155   6.425   6.124
 5400SOL     OW17098   3.469   3.194   1.034
 5400SOL    HW117099   3.530   3.122   0.998
 5400SOL    HW217100   3.445   3.172   1.128
 5401SOL     OW17101   4.854   4.474   3.343
 5401SOL    HW117102   4.905   4.404   3.393
 5401SOL    HW217103   4.765   4.438   3.316
 5402SOL     OW17104   3.418   6.312   0.602
 5402SOL    HW117105   3.335   6.368   0.598
 5402SOL    HW217106   3.400   6.229   0.654
 5403SOL     OW17107   5.003   2.969   6.252
 5403SOL    HW117108   5.049   3.030   6.316
 5403SOL    HW217109   4.913   3.006   6.229
 5404SOL     OW17110   0.661   0.560   0.903
 5404SOL    HW117111   0.658   0.623   0.826
 5404SOL    HW217112   0.606   0.479   0.883
 5405SOL     OW17113   5.714   4.782   0.234
 5405SOL    HW117114   5.651   4.771   0.158
 5405SOL    HW217115   5.761   4.696   0.252
 5406SOL     OW17116   1.791   0.911   4.764
 5406SOL    HW117117   1.734   0.931   4.843
 5406SOL    HW217118   1.771   0.977   4.691
 5407SOL     OW17119   2.789   1.276   1.527
 5407SOL    HW117120   2.721   1.333   1.480
 5407SOL    HW217121   2.832   1.214   1.461
 5408SOL     OW17122   3.830   1.768   4.895
 5408SOL    HW117123   3.905   1.717   4.936
 5408SOL    HW217124   3.865   1.847   4.846
 5409SOL     OW17125   6.273   2.088   1.862
 5409SOL    HW117126   6.362   2.126   1.835
 5409SOL    HW217127   6.228   2.050   1.781
 5410SOL     OW17128   0.390   2.795   0.820
 5410SOL    HW117129   0.437   2.750   0.896
 5410SOL    HW217130   0.316   2.852   0.856
 5411SOL     OW17131   5.602   4.275   0.226
 5411SOL    HW117132   5.566   4.320   0.307
 5411SOL    HW217133   5.552   4.190   0.209
 5412SOL     OW17134   2.153   1.440   6.368
 5412SOL    HW117135   2.105   1.366   6.415
 5412SOL    HW217136   2.212   1.401   6.298
 5413SOL     OW17137   6.949   0.373   5.885
 5413SOL    HW117138   6.965   0.278   5.859
 5413SOL    HW217139   6.957   0.432   5.805
 5414SOL     OW17140   6.985   4.455   5.810
 5414SOL    HW117141   0.059   4.481   5.797
 5414SOL    HW217142   6.979   4.359   5.836
 5415SOL     OW17143   2.970   5.700   0.378
 5415SOL    HW117144   2.918   5.637   0.321
 5415SOL    HW217145   3.039   5.650   0.430
 5416SOL     OW17146   3.384   5.116   4.729
 5416SOL    HW117147   3.310   5.172   4.766
 5416SOL    HW217148   3.359   5.084   4.637
 5417SOL     OW17149   4.060   6.779   4.113
 5417SOL    HW117150   4.034   6.874   4.095
 5417SOL    HW217151   3.989   6.718   4.077
 5418SOL     OW17152   5.705   4.834   4.653
 5418SOL    HW117153   5.622   4.802   4.698
 5418SOL    HW217154   5.763   4.756   4.631
 5419SOL     OW17155   4.019   6.654   0.236
 5419SOL    HW117156   3.999   6.675   0.331
 5419SOL    HW217157   4.060   6.733   0.192
 5420SOL     OW17158   1.578   1.482   1.595
 5420SOL    HW117159   1.647   1.431   1.544
 5420SOL    HW217160   1.520   1.419   1.646
 5421SOL     OW17161   3.004   5.372   2.400
 5421SOL    HW117162   3.044   5.293   2.355
 5421SOL    HW217163   2.906   5.355   2.417
 5422SOL     OW17164   2.342   5.659   4.253
 5422SOL    HW117165   2.433   5.669   4.214
 5422SOL    HW217166   2.349   5.635   4.350
 5423SOL     OW17167   6.258   5.469   1.786
 5423SOL    HW117168   6.177   5.485   1.730
 5423SOL    HW217169   6.251   5.381   1.833
 5424SOL     OW17170   5.091   3.811   4.784
 5424SOL    HW117171   5.178   3.767   4.803
 5424SOL    HW217172   5.047   3.837   4.870
 5425SOL     OW17173   6.234   2.867   4.953
 5425SOL    HW117174   6.239   2.942   5.018
 5425SOL    HW217175   6.142   2.862   4.913
 5426SOL     OW17176   4.822   5.330   2.119
 5426SOL    HW117177   4.786   5.237   2.116
 5426SOL    HW217178   4.767   5.384   2.183
 5427SOL     OW17179   4.555   3.149   0.422
 5427SOL    HW117180   4.500   3.219   0.378
 5427SOL    HW217181   4.633   3.191   0.469
 5428SOL     OW17182   5.217   5.900   2.363
 5428SOL    HW117183   5.230   5.990   2.322
 5428SOL    HW217184   5.292   5.840   2.336
 5429SOL     OW17185   2.736   6.905   4.505
 5429SOL    HW117186   2.778   6.925   4.417
 5429SOL    HW217187   2.776   6.822   4.543
 5430SOL     OW17188   1.937   3.333   5.713
 5430SOL    HW117189   1.994   3.309   5.635
 5430SOL    HW217190   1.919   3.251   5.768
 5431SOL     OW17191   3.442   5.063   6.429
 5431SOL    HW117192   3.524   5.014   6.460
 5431SOL    HW217193   3.465   5.118   6.349
 5432SOL     OW17194   5.699   5.854   0.514
 5432SOL    HW117195   5.718   5.949   0.539
 5432SOL    HW217196   5.601   5.839   0.513
 5433SOL     OW17197   1.277   6.804   1.279
 5433SOL    HW117198   1.308   6.873   1.214
 5433SOL    HW217199   1.186   6.827   1.311
 5434SOL     OW17200   4.727   0.932   4.805
 5434SOL    HW117201   4.778   0.878   4.738
 5434SOL    HW217202   4.751   1.029   4.795
 5435SOL     OW17203   6.212   3.557   0.765
 5435SOL    HW117204   6.169   3.613   0.836
 5435SOL    HW217205   6.142   3.513   0.709
 5436SOL     OW17206   0.249   5.489   3.642
 5436SOL    HW117207   0.329   5.431   3.622
 5436SOL    HW217208   0.165   5.436   3.629
 5437SOL     OW17209   3.406   4.767   6.390
 5437SOL    HW117210   3.340   4.808   6.453
 5437SOL    HW217211   3.360   4.745   6.304
 5438SOL     OW17212   5.465   4.874   1.839
 5438SOL    HW117213   5.474   4.868   1.938
 5438SOL    HW217214   5.399   4.805   1.808
 5439SOL     OW17215   0.815   3.767   0.219
 5439SOL    HW117216   0.868   3.831   0.275
 5439SOL    HW217217   0.823   3.792   0.122
 5440SOL     OW17218   5.883   0.029   3.220
 5440SOL    HW117219   5.888   6.996   3.303
 5440SOL    HW217220   5.850   0.120   3.242
 5441SOL     OW17221   5.680   3.215   3.365
 5441SOL    HW117222   5.631   3.186   3.447
 5441SOL    HW217223   5.678   3.315   3.358
 5442SOL     OW17224   4.505   0.574   3.874
 5442SOL    HW117225   4.503   0.658   3.929
 5442SOL    HW217226   4.599   0.540   3.871
 5443SOL     OW17227   4.659   6.893   4.053
 5443SOL    HW117228   4.561   6.901   4.075
 5443SOL    HW217229   4.687   6.797   4.058
 5444SOL     OW17230   0.016   2.008   4.430
 5444SOL    HW117231   6.967   2.069   4.465
 5444SOL    HW217232   0.103   2.057   4.426
 5445SOL     OW17233   5.222   4.955   4.841
 5445SOL    HW117234   5.225   5.055   4.831
 5445SOL    HW217235   5.171   4.916   4.765
 5446SOL     OW17236   6.458   4.678   4.560
 5446SOL    HW117237   6.453   4.681   4.660
 5446SOL    HW217238   6.380   4.729   4.522
 5447SOL     OW17239   2.507   1.195   1.456
 5447SOL    HW117240   2.502   1.186   1.556
 5447SOL    HW217241   2.539   1.287   1.433
 5448SOL     OW17242   4.334   5.446   3.865
 5448SOL    HW117243   4.394   5.371   3.892
 5448SOL    HW217244   4.359   5.529   3.915
 5449SOL     OW17245   3.027   1.362   1.822
 5449SOL    HW117246   3.018   1.453   1.862
 5449SOL    HW217247   3.098   1.311   1.870
 5450SOL     OW17248   3.387   5.935   1.620
 5450SOL    HW117249   3.423   6.012   1.567
 5450SOL    HW217250   3.452   5.910   1.692
 5451SOL     OW17251   1.466   6.766   2.960
 5451SOL    HW117252   1.474   6.775   3.059
 5451SOL    HW217253   1.392   6.702   2.938
 5452SOL     OW17254   1.778   4.678   1.104
 5452SOL    HW117255   1.856   4.618   1.123
 5452SOL    HW217256   1.693   4.625   1.109
 5453SOL     OW17257   5.020   3.892   2.164
 5453SOL    HW117258   4.996   3.989   2.170
 5453SOL    HW217259   5.105   3.875   2.215
 5454SOL     OW17260   5.916   6.367   2.144
 5454SOL    HW117261   5.875   6.438   2.087
 5454SOL    HW217262   6.002   6.337   2.103
 5455SOL     OW17263   0.862   1.510   2.848
 5455SOL    HW117264   0.859   1.503   2.748
 5455SOL    HW217265   0.807   1.588   2.877
 5456SOL     OW17266   5.234   0.775   6.970
 5456SOL    HW117267   5.185   0.703   7.020
 5456SOL    HW217268   5.267   0.844   0.012
 5457SOL     OW17269   6.334   1.916   0.193
 5457SOL    HW117270   6.351   1.933   0.096
 5457SOL    HW217271   6.255   1.968   0.224
 5458SOL     OW17272   6.448   5.214   1.144
 5458SOL    HW117273   6.474   5.310   1.130
 5458SOL    HW217274   6.519   5.155   1.104
 5459SOL     OW17275   2.173   5.093   5.521
 5459SOL    HW117276   2.210   5.144   5.598
 5459SOL    HW217277   2.210   5.129   5.435
 5460SOL     OW17278   2.220   1.521   1.448
 5460SOL    HW117279   2.296   1.534   1.513
 5460SOL    HW217280   2.133   1.533   1.496
 5461SOL     OW17281   1.227   1.404   5.675
 5461SOL    HW117282   1.181   1.387   5.762
 5461SOL    HW217283   1.238   1.317   5.626
 5462SOL     OW17284   5.538   5.905   0.016
 5462SOL    HW117285   5.467   5.901   6.968
 5462SOL    HW217286   5.552   6.000   0.044
 5463SOL     OW17287   6.202   1.990   6.368
 5463SOL    HW117288   6.204   2.090   6.365
 5463SOL    HW217289   6.238   1.953   6.283
 5464SOL     OW17290   6.495   5.667   5.126
 5464SOL    HW117291   6.408   5.661   5.175
 5464SOL    HW217292   6.558   5.598   5.162
 5465SOL     OW17293   6.481   6.788   3.033
 5465SOL    HW117294   6.401   6.770   3.089
 5465SOL    HW217295   6.451   6.822   2.943
 5466SOL     OW17296   5.344   2.944   5.593
 5466SOL    HW117297   5.251   2.978   5.581
 5466SOL    HW217298   5.403   2.983   5.522
 5467SOL     OW17299   5.805   3.617   3.822
 5467SOL    HW117300   5.813   3.542   3.887
 5467SOL    HW217301   5.836   3.587   3.732
 5468SOL     OW17302   6.965   2.647   3.486
 5468SOL    HW117303   0.007   2.649   3.562
 5468SOL    HW217304   6.977   2.728   3.429
 5469SOL     OW17305   2.163   6.806   5.875
 5469SOL    HW117306   2.107   6.774   5.798
 5469SOL    HW217307   2.184   6.903   5.862
 5470SOL     OW17308   4.231   5.073   3.814
 5470SOL    HW117309   4.313   5.117   3.777
 5470SOL    HW217310   4.218   5.101   3.909
 5471SOL     OW17311   6.025   0.224   2.249
 5471SOL    HW117312   6.019   0.202   2.346
 5471SOL    HW217313   6.003   0.320   2.235
 5472SOL     OW17314   3.095   2.768   5.824
 5472SOL    HW117315   3.029   2.777   5.749
 5472SOL    HW217316   3.105   2.857   5.869
 5473SOL     OW17317   1.761   4.823   0.630
 5473SOL    HW117318   1.792   4.918   0.637
 5473SOL    HW217319   1.837   4.766   0.598
 5474SOL     OW17320   1.034   5.884   3.565
 5474SOL    HW117321   0.971   5.884   3.487
 5474SOL    HW217322   1.021   5.968   3.618
 5475SOL     OW17323   1.804   1.865   0.741
 5475SOL    HW117324   1.722   1.846   0.688
 5475SOL    HW217325   1.787   1.844   0.837
 5476SOL     OW17326   3.032   5.082   5.083
 5476SOL    HW117327   2.942   5.079   5.041
 5476SOL    HW217328   3.030   5.031   5.169
 5477SOL     OW17329   1.544   4.489   2.932
 5477SOL    HW117330   1.556   4.475   3.030
 5477SOL    HW217331   1.454   4.530   2.915
 5478SOL     OW17332   5.084   5.740   6.050
 5478SOL    HW117333   5.019   5.692   6.109
 5478SOL    HW217334   5.046   5.829   6.024
 5479SOL     OW17335   4.359   0.844   4.333
 5479SOL    HW117336   4.398   0.934   4.353
 5479SOL    HW217337   4.432   0.781   4.308
 5480SOL     OW17338   6.124   5.375   4.995
 5480SOL    HW117339   6.062   5.442   4.953
 5480SOL    HW217340   6.077   5.331   5.071
 5481SOL     OW17341   5.044   0.591   4.524
 5481SOL    HW117342   5.001   0.583   4.434
 5481SOL    HW217343   4.973   0.605   4.593
 5482SOL     OW17344   3.172   4.065   2.059
 5482SOL    HW117345   3.117   4.018   1.989
 5482SOL    HW217346   3.128   4.151   2.082
 5483SOL     OW17347   6.156   2.634   5.310
 5483SOL    HW117348   6.074   2.601   5.264
 5483SOL    HW217349   6.204   2.557   5.353
 5484SOL     OW17350   6.039   0.372   3.415
 5484SOL    HW117351   5.950   0.416   3.415
 5484SOL    HW217352   6.066   0.349   3.509
 5485SOL     OW17353   2.860   0.023   4.726
 5485SOL    HW117354   2.798   0.030   4.804
 5485SOL    HW217355   2.816   6.995   4.652
 5486SOL     OW17356   2.397   6.710   3.768
 5486SOL    HW117357   2.428   6.776   3.836
 5486SOL    HW217358   2.307   6.676   3.793
 5487SOL     OW17359   5.594   3.855   6.744
 5487SOL    HW117360   5.561   3.945   6.774
 5487SOL    HW217361   5.547   3.783   6.795
 5488SOL     OW17362   4.896   1.618   0.578
 5488SOL    HW117363   4.946   1.575   0.503
 5488SOL    HW217364   4.848   1.548   0.630
 5489SOL     OW17365   1.355   3.899   1.786
 5489SOL    HW117366   1.390   3.831   1.722
 5489SOL    HW217367   1.271   3.866   1.828
 5490SOL     OW17368   3.884   0.190   0.910
 5490SOL    HW117369   3.800   0.216   0.861
 5490SOL    HW217370   3.961   0.242   0.874
 5491SOL     OW17371   1.307   4.084   6.267
 5491SOL    HW117372   1.276   3.998   6.309
 5491SOL    HW217373   1.228   4.138   6.239
 5492SOL     OW17374   1.480   1.775   5.733
 5492SOL    HW117375   1.483   1.809   5.639
 5492SOL    HW217376   1.388   1.741   5.753
 5493SOL     OW17377   3.543   3.469   4.477
 5493SOL    HW117378   3.573   3.503   4.566
 5493SOL    HW217379   3.587   3.381   4.458
 5494SOL     OW17380   6.593   2.266   0.311
 5494SOL    HW117381   6.538   2.183   0.306
 5494SOL    HW217382   6.641   2.269   0.399
 5495SOL     OW17383   3.147   2.869   1.767
 5495SOL    HW117384   3.132   2.782   1.720
 5495SOL    HW217385   3.059   2.902   1.803
 5496SOL     OW17386   2.562   6.452   2.667
 5496SOL    HW117387   2.541   6.382   2.599
 5496SOL    HW217388   2.622   6.413   2.737
 5497SOL     OW17389   0.124   2.183   3.551
 5497SOL    HW117390   0.041   2.229   3.519
 5497SOL    HW217391   0.204   2.228   3.513
 5498SOL     OW17392   5.211   0.516   0.740
 5498SOL    HW117393   5.215   0.614   0.719
 5498SOL    HW217394   5.304   0.478   0.739
 5499SOL     OW17395   1.183   1.000   3.792
 5499SOL    HW117396   1.128   1.028   3.713
 5499SOL    HW217397   1.226   0.912   3.773
 5500SOL     OW17398   1.378   5.984   0.059
 5500SOL    HW117399   1.418   5.945   0.142
 5500SOL    HW217400   1.310   5.919   0.022
 5501SOL     OW17401   3.431   0.132   0.839
 5501SOL    HW117402   3.350   0.167   0.792
 5501SOL    HW217403   3.405   0.056   0.899
 5502SOL     OW17404   5.557   4.595   6.099
 5502SOL    HW117405   5.649   4.610   6.135
 5502SOL    HW217406   5.536   4.497   6.100
 5503SOL     OW17407   0.169   4.187   2.866
 5503SOL    HW117408   0.226   4.197   2.947
 5503SOL    HW217409   0.121   4.099   2.869
 5504SOL     OW17410   3.170   1.219   5.683
 5504SOL    HW117411   3.158   1.297   5.621
 5504SOL    HW217412   3.258   1.227   5.729
 5505SOL     OW17413   2.713   5.384   4.623
 5505SOL    HW117414   2.683   5.480   4.631
 5505SOL    HW217415   2.796   5.380   4.568
 5506SOL     OW17416   6.696   0.763   5.599
 5506SOL    HW117417   6.661   0.692   5.659
 5506SOL    HW217418   6.632   0.780   5.525
 5507SOL     OW17419   2.336   6.951   2.767
 5507SOL    HW117420   2.407   6.898   2.814
 5507SOL    HW217421   2.376   0.014   2.734
 5508SOL     OW17422   2.507   1.239   6.977
 5508SOL    HW117423   2.557   1.281   6.902
 5508SOL    HW217424   2.571   1.215   0.028
 5509SOL     OW17425   0.738   6.497   0.124
 5509SOL    HW117426   0.687   6.582   0.110
 5509SOL    HW217427   0.836   6.515   0.116
 5510SOL     OW17428   5.380   6.101   0.703
 5510SOL    HW117429   5.430   6.095   0.790
 5510SOL    HW217430   5.340   6.192   0.695
 5511SOL     OW17431   2.867   0.144   4.056
 5511SOL    HW117432   2.925   0.220   4.025
 5511SOL    HW217433   2.887   0.062   4.001
 5512SOL     OW17434   6.181   2.148   0.868
 5512SOL    HW117435   6.239   2.193   0.800
 5512SOL    HW217436   6.103   2.207   0.890
 5513SOL     OW17437   4.131   4.401   6.299
 5513SOL    HW117438   4.099   4.321   6.349
 5513SOL    HW217439   4.075   4.413   6.217
 5514SOL     OW17440   4.944   5.630   2.515
 5514SOL    HW117441   5.000   5.641   2.433
 5514SOL    HW217442   4.924   5.720   2.554
 5515SOL     OW17443   0.520   4.120   1.706
 5515SOL    HW117444   0.600   4.178   1.724
 5515SOL    HW217445   0.551   4.028   1.683
 5516SOL     OW17446   1.154   2.467   0.400
 5516SOL    HW117447   1.170   2.377   0.358
 5516SOL    HW217448   1.220   2.532   0.365
 5517SOL     OW17449   2.390   2.503   2.566
 5517SOL    HW117450   2.373   2.446   2.486
 5517SOL    HW217451   2.405   2.445   2.646
 5518SOL     OW17452   6.476   6.428   6.392
 5518SOL    HW117453   6.410   6.360   6.360
 5518SOL    HW217454   6.568   6.402   6.362
 5519SOL     OW17455   5.221   3.292   3.217
 5519SOL    HW117456   5.241   3.389   3.204
 5519SOL    HW217457   5.295   3.238   3.177
 5520SOL     OW17458   6.921   4.865   2.872
 5520SOL    HW117459   6.842   4.803   2.874
 5520SOL    HW217460   6.941   4.890   2.777
 5521SOL     OW17461   3.936   6.046   2.690
 5521SOL    HW117462   3.853   6.083   2.647
 5521SOL    HW217463   3.963   6.106   2.766
 5522SOL     OW17464   1.284   4.297   0.701
 5522SOL    HW117465   1.345   4.368   0.666
 5522SOL    HW217466   1.191   4.334   0.709
 5523SOL     OW17467   3.188   6.682   3.153
 5523SOL    HW117468   3.187   6.774   3.115
 5523SOL    HW217469   3.187   6.615   3.079
 5524SOL     OW17470   6.850   5.385   4.642
 5524SOL    HW117471   6.902   5.323   4.582
 5524SOL    HW217472   6.813   5.333   4.719
 5525SOL     OW17473   0.157   3.754   0.324
 5525SOL    HW117474   0.148   3.782   0.228
 5525SOL    HW217475   0.209   3.824   0.373
 5526SOL     OW17476   5.736   4.226   4.928
 5526SOL    HW117477   5.819   4.246   4.981
 5526SOL    HW217478   5.674   4.171   4.984
 5527SOL     OW17479   0.800   4.188   3.709
 5527SOL    HW117480   0.822   4.197   3.806
 5527SOL    HW217481   0.774   4.278   3.672
 5528SOL     OW17482   1.019   1.727   6.492
 5528SOL    HW117483   1.107   1.774   6.489
 5528SOL    HW217484   0.986   1.713   6.398
 5529SOL     OW17485   2.221   6.973   4.494
 5529SOL    HW117486   2.240   6.998   4.399
 5529SOL    HW217487   2.299   6.924   4.533
 5530SOL     OW17488   0.092   2.633   2.490
 5530SOL    HW117489   0.114   2.711   2.548
 5530SOL    HW217490   0.025   2.574   2.536
 5531SOL     OW17491   3.758   3.611   3.096
 5531SOL    HW117492   3.779   3.709   3.085
 5531SOL    HW217493   3.844   3.559   3.092
 5532SOL     OW17494   1.121   1.166   1.300
 5532SOL    HW117495   1.167   1.177   1.388
 5532SOL    HW217496   1.059   1.243   1.285
 5533SOL     OW17497   3.241   1.008   2.849
 5533SOL    HW117498   3.299   1.084   2.818
 5533SOL    HW217499   3.182   0.978   2.774
 5534SOL     OW17500   0.739   3.067   5.968
 5534SOL    HW117501   0.675   3.022   6.030
 5534SOL    HW217502   0.742   3.018   5.881
 5535SOL     OW17503   0.430   3.081   3.494
 5535SOL    HW117504   0.379   2.997   3.476
 5535SOL    HW217505   0.381   3.158   3.453
 5536SOL     OW17506   3.731   1.522   4.146
 5536SOL    HW117507   3.794   1.521   4.224
 5536SOL    HW217508   3.777   1.483   4.066
 5537SOL     OW17509   3.089   0.953   4.576
 5537SOL    HW117510   3.160   1.017   4.604
 5537SOL    HW217511   3.131   0.875   4.529
 5538SOL     OW17512   3.204   0.389   4.739
 5538SOL    HW117513   3.133   0.441   4.692
 5538SOL    HW217514   3.285   0.382   4.680
 5539SOL     OW17515   1.211   2.735   0.726
 5539SOL    HW117516   1.303   2.740   0.687
 5539SOL    HW217517   1.171   2.827   0.727
 5540SOL     OW17518   5.841   3.763   2.400
 5540SOL    HW117519   5.886   3.759   2.311
 5540SOL    HW217520   5.855   3.677   2.449
 5541SOL     OW17521   5.309   2.111   6.295
 5541SOL    HW117522   5.366   2.176   6.345
 5541SOL    HW217523   5.366   2.035   6.264
 5542SOL     OW17524   5.487   6.155   6.195
 5542SOL    HW117525   5.535   6.070   6.170
 5542SOL    HW217526   5.549   6.214   6.246
 5543SOL     OW17527   2.543   5.279   6.401
 5543SOL    HW117528   2.564   5.251   6.307
 5543SOL    HW217529   2.627   5.301   6.449
 5544SOL     OW17530   4.986   5.758   6.443
 5544SOL    HW117531   4.930   5.836   6.417
 5544SOL    HW217532   4.930   5.675   6.440
 5545SOL     OW17533   4.475   1.288   3.271
 5545SOL    HW117534   4.561   1.240   3.288
 5545SOL    HW217535   4.430   1.247   3.191
 5546SOL     OW17536   1.379   6.957   4.180
 5546SOL    HW117537   1.450   6.887   4.178
 5546SOL    HW217538   1.383   7.007   4.266
 5547SOL     OW17539   4.046   0.414   4.858
 5547SOL    HW117540   4.017   0.362   4.778
 5547SOL    HW217541   4.118   0.363   4.906
 5548SOL     OW17542   5.658   3.122   4.910
 5548SOL    HW117543   5.586   3.190   4.899
 5548SOL    HW217544   5.619   3.036   4.943
 5549SOL     OW17545   4.297   4.705   0.951
 5549SOL    HW117546   4.270   4.683   1.045
 5549SOL    HW217547   4.379   4.653   0.927
 5550SOL     OW17548   2.454   4.465   2.150
 5550SOL    HW117549   2.465   4.505   2.059
 5550SOL    HW217550   2.367   4.495   2.190
 5551SOL     OW17551   1.562   6.197   2.947
 5551SOL    HW117552   1.610   6.116   2.913
 5551SOL    HW217553   1.524   6.177   3.038
 5552SOL     OW17554   6.748   0.012   6.498
 5552SOL    HW117555   6.778   0.099   6.459
 5552SOL    HW217556   6.687   6.989   6.433
 5553SOL     OW17557   5.144   6.032   6.782
 5553SOL    HW117558   5.099   5.943   6.779
 5553SOL    HW217559   5.145   6.072   6.690
 5554SOL     OW17560   4.249   2.338   6.635
 5554SOL    HW117561   4.210   2.371   6.549
 5554SOL    HW217562   4.177   2.300   6.693
 5555SOL     OW17563   1.189   4.189   2.909
 5555SOL    HW117564   1.131   4.123   2.957
 5555SOL    HW217565   1.155   4.282   2.925
 5556SOL     OW17566   6.540   2.061   3.354
 5556SOL    HW117567   6.455   2.009   3.361
 5556SOL    HW217568   6.587   2.061   3.442
 5557SOL     OW17569   3.958   6.826   2.816
 5557SOL    HW117570   3.916   6.846   2.905
 5557SOL    HW217571   4.055   6.804   2.829
 5558SOL     OW17572   3.656   3.536   5.862
 5558SOL    HW117573   3.724   3.465   5.877
 5558SOL    HW217574   3.596   3.508   5.787
 5559SOL     OW17575   1.747   0.272   1.372
 5559SOL    HW117576   1.739   0.190   1.428
 5559SOL    HW217577   1.768   0.246   1.278
 5560SOL     OW17578   0.788   4.995   2.045
 5560SOL    HW117579   0.797   5.007   2.143
 5560SOL    HW217580   0.874   4.958   2.008
 5561SOL     OW17581   1.688   1.437   4.209
 5561SOL    HW117582   1.596   1.472   4.191
 5561SOL    HW217583   1.739   1.503   4.264
 5562SOL     OW17584   4.080   2.724   6.574
 5562SOL    HW117585   4.168   2.718   6.526
 5562SOL    HW217586   4.024   2.794   6.530
 5563SOL     OW17587   3.875   4.880   2.539
 5563SOL    HW117588   3.791   4.866   2.592
 5563SOL    HW217589   3.915   4.969   2.564
 5564SOL     OW17590   4.741   0.206   0.990
 5564SOL    HW117591   4.684   0.131   0.957
 5564SOL    HW217592   4.684   0.281   1.023
 5565SOL     OW17593   4.325   2.043   5.989
 5565SOL    HW117594   4.339   1.944   5.998
 5565SOL    HW217595   4.246   2.070   6.043
 5566SOL     OW17596   1.408   4.078   6.543
 5566SOL    HW117597   1.319   4.091   6.498
 5566SOL    HW217598   1.463   4.014   6.489
 5567SOL     OW17599   0.064   2.649   1.092
 5567SOL    HW117600   0.069   2.717   1.019
 5567SOL    HW217601   0.153   2.642   1.137
 5568SOL     OW17602   4.874   2.309   3.887
 5568SOL    HW117603   4.866   2.241   3.814
 5568SOL    HW217604   4.789   2.362   3.892
 5569SOL     OW17605   2.075   2.229   2.753
 5569SOL    HW117606   2.139   2.172   2.701
 5569SOL    HW217607   1.984   2.186   2.753
 5570SOL     OW17608   6.389   3.930   5.211
 5570SOL    HW117609   6.427   3.839   5.228
 5570SOL    HW217610   6.434   3.996   5.271
 5571SOL     OW17611   6.592   5.779   0.686
 5571SOL    HW117612   6.662   5.814   0.623
 5571SOL    HW217613   6.603   5.824   0.775
 5572SOL     OW17614   1.351   2.555   4.900
 5572SOL    HW117615   1.309   2.519   4.983
 5572SOL    HW217616   1.366   2.653   4.910
 5573SOL     OW17617   2.104   5.416   5.465
 5573SOL    HW117618   2.192   5.383   5.429
 5573SOL    HW217619   2.052   5.458   5.391
 5574SOL     OW17620   6.988   1.913   2.315
 5574SOL    HW117621   0.017   1.911   2.400
 5574SOL    HW217622   0.001   1.843   2.252
 5575SOL     OW17623   6.400   1.265   0.705
 5575SOL    HW117624   6.438   1.316   0.628
 5575SOL    HW217625   6.317   1.218   0.677
 5576SOL     OW17626   0.934   4.594   1.586
 5576SOL    HW117627   0.885   4.617   1.669
 5576SOL    HW217628   0.878   4.534   1.529
 5577SOL     OW17629   2.931   3.290   5.625
 5577SOL    HW117630   2.899   3.242   5.543
 5577SOL    HW217631   2.863   3.357   5.653
 5578SOL     OW17632   3.276   3.766   0.728
 5578SOL    HW117633   3.195   3.768   0.786
 5578SOL    HW217634   3.282   3.678   0.681
 5579SOL     OW17635   0.705   2.929   0.192
 5579SOL    HW117636   0.648   2.981   0.254
 5579SOL    HW217637   0.770   2.873   0.245
 5580SOL     OW17638   5.439   2.662   5.558
 5580SOL    HW117639   5.413   2.757   5.576
 5580SOL    HW217640   5.529   2.660   5.514
 5581SOL     OW17641   1.388   6.468   1.527
 5581SOL    HW117642   1.348   6.466   1.619
 5581SOL    HW217643   1.463   6.402   1.523
 5582SOL     OW17644   2.863   3.478   5.205
 5582SOL    HW117645   2.864   3.395   5.259
 5582SOL    HW217646   2.925   3.468   5.126
 5583SOL     OW17647   4.880   0.421   2.533
 5583SOL    HW117648   4.863   0.430   2.435
 5583SOL    HW217649   4.819   0.483   2.583
 5584SOL     OW17650   5.715   5.003   4.027
 5584SOL    HW117651   5.727   5.047   3.938
 5584SOL    HW217652   5.730   4.905   4.018
 5585SOL     OW17653   5.397   5.911   3.699
 5585SOL    HW117654   5.433   5.954   3.782
 5585SOL    HW217655   5.378   5.814   3.717
 5586SOL     OW17656   0.628   2.172   6.600
 5586SOL    HW117657   0.709   2.118   6.576
 5586SOL    HW217658   0.655   2.267   6.616
 5587SOL     OW17659   4.245   6.680   2.042
 5587SOL    HW117660   4.198   6.609   2.094
 5587SOL    HW217661   4.315   6.638   1.984
 5588SOL     OW17662   1.812   5.714   3.012
 5588SOL    HW117663   1.713   5.720   3.000
 5588SOL    HW217664   1.848   5.644   2.951
 5589SOL     OW17665   6.299   3.839   5.534
 5589SOL    HW117666   6.398   3.829   5.525
 5589SOL    HW217667   6.254   3.752   5.513
 5590SOL     OW17668   6.965   6.191   4.112
 5590SOL    HW117669   6.934   6.215   4.019
 5590SOL    HW217670   6.889   6.201   4.176
 5591SOL     OW17671   5.425   1.638   0.198
 5591SOL    HW117672   5.396   1.731   0.219
 5591SOL    HW217673   5.346   1.576   0.200
 5592SOL     OW17674   0.018   5.253   2.201
 5592SOL    HW117675   0.048   5.288   2.112
 5592SOL    HW217676   6.980   5.320   2.245
 5593SOL     OW17677   0.553   3.329   6.952
 5593SOL    HW117678   0.649   3.335   6.924
 5593SOL    HW217679   0.523   3.418   6.988
 5594SOL     OW17680   4.193   1.006   6.108
 5594SOL    HW117681   4.270   1.007   6.044
 5594SOL    HW217682   4.193   1.090   6.162
 5595SOL     OW17683   6.620   0.702   4.543
 5595SOL    HW117684   6.626   0.607   4.512
 5595SOL    HW217685   6.532   0.718   4.586
 5596SOL     OW17686   4.789   0.609   3.187
 5596SOL    HW117687   4.814   0.706   3.191
 5596SOL    HW217688   4.751   0.581   3.275
 5597SOL     OW17689   5.184   2.542   4.888
 5597SOL    HW117690   5.284   2.543   4.892
 5597SOL    HW217691   5.153   2.592   4.807
 5598SOL     OW17692   5.994   3.611   3.568
 5598SOL    HW117693   6.058   3.675   3.609
 5598SOL    HW217694   6.036   3.521   3.560
 5599SOL     OW17695   0.788   2.394   1.419
 5599SOL    HW117696   0.869   2.335   1.429
 5599SOL    HW217697   0.817   2.488   1.404
 5600SOL     OW17698   1.908   0.861   1.682
 5600SOL    HW117699   1.932   0.764   1.671
 5600SOL    HW217700   1.939   0.912   1.602
 5601SOL     OW17701   2.350   0.725   6.361
 5601SOL    HW117702   2.377   0.777   6.442
 5601SOL    HW217703   2.355   0.627   6.381
 5602SOL     OW17704   6.922   1.659   1.384
 5602SOL    HW117705   6.899   1.677   1.288
 5602SOL    HW217706   7.021   1.642   1.391
 5603SOL     OW17707   5.954   2.462   0.598
 5603SOL    HW117708   6.032   2.422   0.550
 5603SOL    HW217709   5.951   2.426   0.691
 5604SOL     OW17710   5.915   1.986   4.653
 5604SOL    HW117711   5.955   1.982   4.744
 5604SOL    HW217712   5.869   1.899   4.633
 5605SOL     OW17713   6.264   1.309   5.216
 5605SOL    HW117714   6.172   1.281   5.243
 5605SOL    HW217715   6.313   1.229   5.180
 5606SOL     OW17716   4.967   6.339   0.085
 5606SOL    HW117717   5.054   6.388   0.079
 5606SOL    HW217718   4.926   6.356   0.174
 5607SOL     OW17719   6.273   1.178   2.911
 5607SOL    HW117720   6.194   1.153   2.856
 5607SOL    HW217721   6.296   1.103   2.973
 5608SOL     OW17722   5.559   0.544   3.993
 5608SOL    HW117723   5.572   0.516   3.898
 5608SOL    HW217724   5.551   0.644   3.997
 5609SOL     OW17725   3.367   6.123   1.281
 5609SOL    HW117726   3.423   6.150   1.360
 5609SOL    HW217727   3.387   6.028   1.258
 5610SOL     OW17728   4.981   5.428   1.287
 5610SOL    HW117729   5.004   5.405   1.381
 5610SOL    HW217730   4.946   5.347   1.240
 5611SOL     OW17731   0.604   6.041   3.111
 5611SOL    HW117732   0.569   5.966   3.055
 5611SOL    HW217733   0.575   6.028   3.206
 5612SOL     OW17734   3.888   2.174   5.938
 5612SOL    HW117735   3.889   2.098   5.873
 5612SOL    HW217736   3.974   2.225   5.929
 5613SOL     OW17737   6.632   5.362   4.091
 5613SOL    HW117738   6.651   5.303   4.169
 5613SOL    HW217739   6.595   5.308   4.016
 5614SOL     OW17740   4.313   2.081   4.716
 5614SOL    HW117741   4.303   2.171   4.759
 5614SOL    HW217742   4.293   2.088   4.618
 5615SOL     OW17743   6.838   1.611   3.829
 5615SOL    HW117744   6.877   1.529   3.871
 5615SOL    HW217745   6.741   1.596   3.811
 5616SOL     OW17746   2.755   2.378   4.843
 5616SOL    HW117747   2.697   2.336   4.772
 5616SOL    HW217748   2.756   2.477   4.831
 5617SOL     OW17749   2.755   6.043   5.516
 5617SOL    HW117750   2.696   6.106   5.466
 5617SOL    HW217751   2.708   5.955   5.528
 5618SOL     OW17752   0.224   4.151   3.523
 5618SOL    HW117753   0.229   4.074   3.587
 5618SOL    HW217754   0.285   4.224   3.553
 5619SOL     OW17755   3.687   4.130   4.691
 5619SOL    HW117756   3.635   4.114   4.775
 5619SOL    HW217757   3.785   4.133   4.712
 5620SOL     OW17758   4.245   3.323   0.924
 5620SOL    HW117759   4.164   3.343   0.869
 5620SOL    HW217760   4.255   3.224   0.933
 5621SOL     OW17761   2.565   2.836   0.318
 5621SOL    HW117762   2.475   2.856   0.279
 5621SOL    HW217763   2.632   2.902   0.284
 5622SOL     OW17764   5.203   0.403   5.765
 5622SOL    HW117765   5.216   0.308   5.793
 5622SOL    HW217766   5.283   0.457   5.792
 5623SOL     OW17767   3.958   5.911   5.024
 5623SOL    HW117768   3.951   5.984   5.092
 5623SOL    HW217769   3.890   5.841   5.044
 5624SOL     OW17770   0.568   4.596   3.536
 5624SOL    HW117771   0.563   4.692   3.564
 5624SOL    HW217772   0.568   4.591   3.436
 5625SOL     OW17773   5.847   0.025   5.222
 5625SOL    HW117774   5.912   0.091   5.183
 5625SOL    HW217775   5.884   7.011   5.307
 5626SOL     OW17776   2.308   6.056   4.832
 5626SOL    HW117777   2.324   6.138   4.887
 5626SOL    HW217778   2.211   6.033   4.835
 5627SOL     OW17779   0.346   5.268   6.616
 5627SOL    HW117780   0.317   5.261   6.711
 5627SOL    HW217781   0.267   5.289   6.558
 5628SOL     OW17782   1.781   2.397   2.612
 5628SOL    HW117783   1.844   2.473   2.628
 5628SOL    HW217784   1.829   2.325   2.562
 5629SOL     OW17785   3.764   3.673   2.048
 5629SOL    HW117786   3.732   3.615   2.123
 5629SOL    HW217787   3.706   3.754   2.041
 5630SOL     OW17788   2.160   3.502   6.362
 5630SOL    HW117789   2.142   3.591   6.404
 5630SOL    HW217790   2.154   3.510   6.262
 5631SOL     OW17791   4.804   1.869   1.673
 5631SOL    HW117792   4.772   1.786   1.719
 5631SOL    HW217793   4.879   1.909   1.726
 5632SOL     OW17794   2.691   2.302   5.964
 5632SOL    HW117795   2.751   2.285   6.042
 5632SOL    HW217796   2.597   2.277   5.989
 5633SOL     OW17797   6.221   4.846   4.489
 5633SOL    HW117798   6.145   4.892   4.535
 5633SOL    HW217799   6.193   4.816   4.398
 5634SOL     OW17800   2.316   5.002   3.960
 5634SOL    HW117801   2.224   5.036   3.942
 5634SOL    HW217802   2.311   4.911   4.002
 5635SOL     OW17803   1.854   5.081   6.033
 5635SOL    HW117804   1.947   5.066   6.001
 5635SOL    HW217805   1.791   5.021   5.983
 5636SOL     OW17806   4.700   6.609   5.096
 5636SOL    HW117807   4.601   6.608   5.080
 5636SOL    HW217808   4.748   6.608   5.008
 5637SOL     OW17809   5.441   0.545   2.924
 5637SOL    HW117810   5.513   0.512   2.984
 5637SOL    HW217811   5.382   0.469   2.897
 5638SOL     OW17812   6.342   3.851   0.666
 5638SOL    HW117813   6.306   3.875   0.575
 5638SOL    HW217814   6.310   3.759   0.690
 5639SOL     OW17815   1.062   0.835   2.793
 5639SOL    HW117816   0.984   0.773   2.800
 5639SOL    HW217817   1.037   0.915   2.739
 5640SOL     OW17818   3.690   0.488   3.813
 5640SOL    HW117819   3.594   0.505   3.836
 5640SOL    HW217820   3.723   0.559   3.751
 5641SOL     OW17821   0.908   5.293   5.008
 5641SOL    HW117822   0.855   5.290   4.923
 5641SOL    HW217823   0.846   5.280   5.085
 5642SOL     OW17824   2.263   6.440   4.485
 5642SOL    HW117825   2.211   6.510   4.536
 5642SOL    HW217826   2.238   6.349   4.518
 5643SOL     OW17827   4.127   1.332   4.709
 5643SOL    HW117828   4.135   1.431   4.719
 5643SOL    HW217829   4.090   1.311   4.619
 5644SOL     OW17830   2.965   0.123   5.093
 5644SOL    HW117831   2.948   0.222   5.098
 5644SOL    HW217832   3.056   0.103   5.129
 5645SOL     OW17833   6.387   5.025   3.618
 5645SOL    HW117834   6.483   5.000   3.630
 5645SOL    HW217835   6.374   5.062   3.526
 5646SOL     OW17836   1.831   5.401   4.070
 5646SOL    HW117837   1.759   5.465   4.094
 5646SOL    HW217838   1.881   5.373   4.152
 5647SOL     OW17839   4.875   5.243   1.111
 5647SOL    HW117840   4.849   5.237   1.015
 5647SOL    HW217841   4.816   5.183   1.165
 5648SOL     OW17842   1.923   6.873   2.776
 5648SOL    HW117843   1.979   6.819   2.838
 5648SOL    HW217844   1.975   6.894   2.693
 5649SOL     OW17845   0.861   0.700   4.355
 5649SOL    HW117846   0.840   0.764   4.429
 5649SOL    HW217847   0.924   0.743   4.291
 5650SOL     OW17848   0.390   5.378   0.929
 5650SOL    HW117849   0.452   5.300   0.943
 5650SOL    HW217850   0.295   5.347   0.934
 5651SOL     OW17851   1.510   0.397   1.733
 5651SOL    HW117852   1.562   0.404   1.649
 5651SOL    HW217853   1.571   0.407   1.812
 5652SOL     OW17854   6.206   0.062   1.693
 5652SOL    HW117855   6.236   0.123   1.619
 5652SOL    HW217856   6.132   0.106   1.743
 5653SOL     OW17857   6.418   6.126   6.522
 5653SOL    HW117858   6.464   6.192   6.581
 5653SOL    HW217859   6.408   6.039   6.569
 5654SOL     OW17860   0.263   6.111   5.241
 5654SOL    HW117861   0.252   6.070   5.150
 5654SOL    HW217862   0.306   6.044   5.302
 5655SOL     OW17863   1.020   3.869   3.947
 5655SOL    HW117864   0.936   3.882   3.999
 5655SOL    HW217865   0.998   3.825   3.859
 5656SOL     OW17866   7.002   3.445   6.272
 5656SOL    HW117867   0.047   3.503   6.318
 5656SOL    HW217868   0.009   3.426   6.179
 5657SOL     OW17869   6.453   2.306   0.074
 5657SOL    HW117870   6.519   2.346   0.139
 5657SOL    HW217871   6.370   2.279   0.123
 5658SOL     OW17872   3.733   3.863   6.662
 5658SOL    HW117873   3.669   3.820   6.599
 5658SOL    HW217874   3.704   3.847   6.756
 5659SOL     OW17875   3.638   3.038   4.962
 5659SOL    HW117876   3.554   2.991   4.933
 5659SOL    HW217877   3.617   3.102   5.036
 5660SOL     OW17878   4.489   0.043   6.849
 5660SOL    HW117879   4.479   0.070   6.753
 5660SOL    HW217880   4.538   6.979   6.855
 5661SOL     OW17881   1.224   6.068   4.926
 5661SOL    HW117882   1.166   6.084   5.005
 5661SOL    HW217883   1.308   6.022   4.954
 5662SOL     OW17884   2.801   5.914   3.747
 5662SOL    HW117885   2.812   5.816   3.762
 5662SOL    HW217886   2.704   5.938   3.757
 5663SOL     OW17887   1.890   2.551   0.248
 5663SOL    HW117888   1.986   2.532   0.265
 5663SOL    HW217889   1.837   2.466   0.256
 5664SOL     OW17890   6.613   3.557   4.966
 5664SOL    HW117891   6.675   3.634   4.955
 5664SOL    HW217892   6.589   3.520   4.875
 5665SOL     OW17893   2.156   0.761   0.401
 5665SOL    HW117894   2.255   0.745   0.393
 5665SOL    HW217895   2.124   0.813   0.323
 5666SOL     OW17896   6.270   0.087   3.186
 5666SOL    HW117897   6.318   0.020   3.130
 5666SOL    HW217898   6.336   0.153   3.223
 5667SOL     OW17899   1.552   5.367   4.447
 5667SOL    HW117900   1.644   5.395   4.418
 5667SOL    HW217901   1.485   5.432   4.410
 5668SOL     OW17902   5.242   2.961   3.681
 5668SOL    HW117903   5.201   2.896   3.744
 5668SOL    HW217904   5.231   2.928   3.587
 5669SOL     OW17905   6.945   3.552   0.854
 5669SOL    HW117906   6.976   3.469   0.807
 5669SOL    HW217907   6.991   3.559   0.943
 5670SOL     OW17908   0.691   3.804   3.857
 5670SOL    HW117909   0.764   3.761   3.805
 5670SOL    HW217910   0.729   3.845   3.940
 5671SOL     OW17911   6.184   6.068   6.080
 5671SOL    HW117912   6.093   6.091   6.045
 5671SOL    HW217913   6.241   6.034   6.005
 5672SOL     OW17914   4.204   3.787   0.306
 5672SOL    HW117915   4.164   3.828   0.224
 5672SOL    HW217916   4.278   3.846   0.340
 5673SOL     OW17917   1.772   6.761   1.306
 5673SOL    HW117918   1.804   6.797   1.219
 5673SOL    HW217919   1.731   6.671   1.293
 5674SOL     OW17920   0.487   4.563   5.234
 5674SOL    HW117921   0.424   4.548   5.158
 5674SOL    HW217922   0.464   4.500   5.309
 5675SOL     OW17923   4.039   3.008   5.931
 5675SOL    HW117924   4.104   3.081   5.908
 5675SOL    HW217925   4.079   2.919   5.906
 5676SOL     OW17926   2.957   1.975   2.791
 5676SOL    HW117927   2.906   1.889   2.784
 5676SOL    HW217928   2.947   2.012   2.884
 5677SOL     OW17929   0.610   1.198   0.699
 5677SOL    HW117930   0.698   1.234   0.727
 5677SOL    HW217931   0.604   1.101   0.725
 5678SOL     OW17932   4.270   6.644   2.735
 5678SOL    HW117933   4.269   6.719   2.802
 5678SOL    HW217934   4.188   6.588   2.748
 5679SOL     OW17935   6.754   1.216   3.840
 5679SOL    HW117936   6.701   1.146   3.887
 5679SOL    HW217937   6.700   1.300   3.834
 5680SOL     OW17938   1.663   5.594   6.534
 5680SOL    HW117939   1.747   5.574   6.483
 5680SOL    HW217940   1.618   5.509   6.559
 5681SOL     OW17941   0.566   3.608   1.263
 5681SOL    HW117942   0.504   3.634   1.337
 5681SOL    HW217943   0.627   3.685   1.243
 5682SOL     OW17944   2.131   5.527   4.749
 5682SOL    HW117945   2.225   5.537   4.782
 5682SOL    HW217946   2.079   5.471   4.813
 5683SOL     OW17947   3.924   1.354   5.650
 5683SOL    HW117948   3.840   1.369   5.702
 5683SOL    HW217949   3.979   1.283   5.695
 5684SOL     OW17950   2.423   3.919   5.794
 5684SOL    HW117951   2.346   3.943   5.853
 5684SOL    HW217952   2.418   3.822   5.769
 5685SOL     OW17953   1.848   1.562   3.327
 5685SOL    HW117954   1.803   1.515   3.251
 5685SOL    HW217955   1.859   1.500   3.404
 5686SOL     OW17956   3.016   1.618   6.453
 5686SOL    HW117957   3.007   1.523   6.421
 5686SOL    HW217958   3.111   1.634   6.480
 5687SOL     OW17959   0.243   5.202   6.858
 5687SOL    HW117960   0.170   5.173   6.919
 5687SOL    HW217961   0.279   5.291   6.888
 5688SOL     OW17962   0.918   2.560   2.220
 5688SOL    HW117963   1.013   2.532   2.210
 5688SOL    HW217964   0.859   2.480   2.217
 5689SOL     OW17965   3.191   1.496   1.317
 5689SOL    HW117966   3.173   1.499   1.416
 5689SOL    HW217967   3.107   1.472   1.268
 5690SOL     OW17968   2.178   5.980   6.878
 5690SOL    HW117969   2.250   5.974   6.947
 5690SOL    HW217970   2.107   5.912   6.897
 5691SOL     OW17971   3.941   0.393   2.347
 5691SOL    HW117972   4.033   0.427   2.365
 5691SOL    HW217973   3.944   0.326   2.272
 5692SOL     OW17974   5.609   4.040   0.458
 5692SOL    HW117975   5.651   4.025   0.368
 5692SOL    HW217976   5.666   4.102   0.512
 5693SOL     OW17977   4.653   1.301   2.980
 5693SOL    HW117978   4.651   1.384   3.035
 5693SOL    HW217979   4.589   1.310   2.904
 5694SOL     OW17980   1.319   1.408   2.931
 5694SOL    HW117981   1.250   1.479   2.950
 5694SOL    HW217982   1.273   1.322   2.910
 5695SOL     OW17983   1.714   2.021   4.244
 5695SOL    HW117984   1.682   1.933   4.210
 5695SOL    HW217985   1.655   2.051   4.319
 5696SOL     OW17986   0.821   1.344   3.489
 5696SOL    HW117987   0.887   1.269   3.478
 5696SOL    HW217988   0.800   1.382   3.399
 5697SOL     OW17989   6.274   2.487   1.392
 5697SOL    HW117990   6.219   2.569   1.407
 5697SOL    HW217991   6.265   2.425   1.470
 5698SOL     OW17992   1.089   4.922   4.270
 5698SOL    HW117993   1.066   5.003   4.215
 5698SOL    HW217994   1.185   4.927   4.297
 5699SOL     OW17995   1.113   2.333   3.240
 5699SOL    HW117996   1.172   2.362   3.315
 5699SOL    HW217997   1.060   2.253   3.267
 5700SOL     OW17998   6.183   0.024   3.443
 5700SOL    HW117999   6.194   0.027   3.343
 5700SOL    HW218000   6.200   0.115   3.481
 5701SOL     OW18001   0.676   0.120   1.162
 5701SOL    HW118002   0.654   0.044   1.223
 5701SOL    HW218003   0.690   0.203   1.217
 5702SOL     OW18004   2.714   5.358   4.103
 5702SOL    HW118005   2.808   5.356   4.070
 5702SOL    HW218006   2.660   5.289   4.054
 5703SOL     OW18007   6.503   4.732   1.098
 5703SOL    HW118008   6.488   4.771   1.188
 5703SOL    HW218009   6.601   4.721   1.082
 5704SOL     OW18010   4.831   3.961   3.110
 5704SOL    HW118011   4.775   3.886   3.072
 5704SOL    HW218012   4.834   3.953   3.209
 5705SOL     OW18013   4.937   6.671   0.072
 5705SOL    HW118014   4.964   6.761   0.039
 5705SOL    HW218015   5.019   6.615   0.086
 5706SOL     OW18016   0.171   3.264   2.144
 5706SOL    HW118017   0.159   3.249   2.243
 5706SOL    HW218018   0.092   3.314   2.108
 5707SOL     OW18019   0.078   6.503   0.703
 5707SOL    HW118020   0.050   6.599   0.709
 5707SOL    HW218021   0.173   6.498   0.671
 5708SOL     OW18022   5.074   5.804   1.961
 5708SOL    HW118023   5.166   5.844   1.972
 5708SOL    HW218024   5.082   5.714   1.918
 5709SOL     OW18025   0.939   1.030   2.612
 5709SOL    HW118026   0.872   1.090   2.656
 5709SOL    HW218027   1.010   1.085   2.568
 5710SOL     OW18028   3.171   2.973   1.140
 5710SOL    HW118029   3.162   3.073   1.134
 5710SOL    HW218030   3.127   2.941   1.224
 5711SOL     OW18031   5.370   1.145   2.997
 5711SOL    HW118032   5.400   1.222   3.053
 5711SOL    HW218033   5.439   1.073   2.997
 5712SOL     OW18034   6.356   0.338   0.129
 5712SOL    HW118035   6.289   0.406   0.158
 5712SOL    HW218036   6.308   0.257   0.094
 5713SOL     OW18037   3.330   3.521   1.559
 5713SOL    HW118038   3.398   3.446   1.560
 5713SOL    HW218039   3.284   3.523   1.471
 5714SOL     OW18040   0.493   5.214   0.664
 5714SOL    HW118041   0.551   5.257   0.733
 5714SOL    HW218042   0.524   5.120   0.648
 5715SOL     OW18043   0.607   1.099   2.533
 5715SOL    HW118044   0.658   1.079   2.617
 5715SOL    HW218045   0.669   1.098   2.455
 5716SOL     OW18046   1.546   4.967   6.395
 5716SOL    HW118047   1.591   4.925   6.474
 5716SOL    HW218048   1.551   4.904   6.317
 5717SOL     OW18049   1.896   4.738   0.880
 5717SOL    HW118050   1.880   4.800   0.803
 5717SOL    HW218051   1.811   4.723   0.929
 5718SOL     OW18052   0.424   3.099   6.896
 5718SOL    HW118053   0.485   3.178   6.911
 5718SOL    HW218054   0.334   3.120   6.934
 5719SOL     OW18055   2.092   2.676   6.810
 5719SOL    HW118056   2.062   2.749   6.749
 5719SOL    HW218057   2.151   2.613   6.760
 5720SOL     OW18058   2.420   5.870   5.014
 5720SOL    HW118059   2.353   5.867   5.088
 5720SOL    HW218060   2.385   5.928   4.940
 5721SOL     OW18061   6.460   3.487   1.071
 5721SOL    HW118062   6.511   3.432   1.004
 5721SOL    HW218063   6.398   3.427   1.122
 5722SOL     OW18064   0.084   2.127   5.075
 5722SOL    HW118065   0.024   2.135   4.995
 5722SOL    HW218066   0.178   2.108   5.044
 5723SOL     OW18067   4.407   3.395   0.389
 5723SOL    HW118068   4.412   3.469   0.455
 5723SOL    HW218069   4.360   3.427   0.306
 5724SOL     OW18070   5.170   3.241   4.179
 5724SOL    HW118071   5.188   3.318   4.117
 5724SOL    HW218072   5.161   3.157   4.125
 5725SOL     OW18073   6.096   4.869   4.235
 5725SOL    HW118074   6.011   4.915   4.261
 5725SOL    HW218075   6.167   4.937   4.219
 5726SOL     OW18076   0.014   5.337   4.219
 5726SOL    HW118077   0.056   5.256   4.180
 5726SOL    HW218078   6.983   5.384   4.149
 5727SOL     OW18079   6.430   2.350   4.270
 5727SOL    HW118080   6.477   2.344   4.359
 5727SOL    HW218081   6.347   2.294   4.272
 5728SOL     OW18082   4.432   6.883   6.026
 5728SOL    HW118083   4.503   6.835   5.974
 5728SOL    HW218084   4.345   6.834   6.017
 5729SOL     OW18085   1.949   0.638   0.121
 5729SOL    HW118086   1.964   0.580   0.201
 5729SOL    HW218087   1.854   0.669   0.119
 5730SOL     OW18088   5.023   4.631   6.428
 5730SOL    HW118089   4.957   4.586   6.369
 5730SOL    HW218090   5.114   4.624   6.388
 5731SOL     OW18091   0.761   6.894   3.041
 5731SOL    HW118092   0.680   6.916   3.095
 5731SOL    HW218093   0.817   6.976   3.029
 5732SOL     OW18094   0.175   5.549   3.917
 5732SOL    HW118095   0.209   5.568   3.825
 5732SOL    HW218096   0.144   5.454   3.922
 5733SOL     OW18097   3.628   6.713   5.895
 5733SOL    HW118098   3.652   6.722   5.992
 5733SOL    HW218099   3.599   6.619   5.877
 5734SOL     OW18100   0.908   0.285   4.836
 5734SOL    HW118101   0.877   0.375   4.805
 5734SOL    HW218102   0.886   0.216   4.767
 5735SOL     OW18103   4.143   1.814   1.598
 5735SOL    HW118104   4.080   1.736   1.591
 5735SOL    HW218105   4.167   1.845   1.506
 5736SOL     OW18106   6.227   3.906   0.418
 5736SOL    HW118107   6.219   3.856   0.331
 5736SOL    HW218108   6.166   3.986   0.416
 5737SOL     OW18109   5.740   6.348   0.735
 5737SOL    HW118110   5.701   6.321   0.823
 5737SOL    HW218111   5.755   6.447   0.734
 5738SOL     OW18112   2.059   2.292   5.858
 5738SOL    HW118113   2.042   2.274   5.761
 5738SOL    HW218114   2.048   2.207   5.909
 5739SOL     OW18115   1.522   0.578   5.759
 5739SOL    HW118116   1.524   0.483   5.789
 5739SOL    HW218117   1.430   0.615   5.769
 5740SOL     OW18118   4.489   4.280   0.752
 5740SOL    HW118119   4.430   4.331   0.815
 5740SOL    HW218120   4.548   4.218   0.804
 5741SOL     OW18121   1.287   4.884   4.930
 5741SOL    HW118122   1.233   4.966   4.910
 5741SOL    HW218123   1.311   4.839   4.844
 5742SOL     OW18124   5.223   6.825   2.446
 5742SOL    HW118125   5.163   6.748   2.468
 5742SOL    HW218126   5.314   6.789   2.423
 5743SOL     OW18127   2.650   6.021   5.071
 5743SOL    HW118128   2.564   5.970   5.060
 5743SOL    HW218129   2.711   6.001   4.994
 5744SOL     OW18130   4.738   0.396   1.839
 5744SOL    HW118131   4.698   0.344   1.915
 5744SOL    HW218132   4.764   0.333   1.765
 5745SOL     OW18133   3.233   0.837   3.893
 5745SOL    HW118134   3.221   0.750   3.846
 5745SOL    HW218135   3.224   0.824   3.991
 5746SOL     OW18136   5.725   0.082   1.542
 5746SOL    HW118137   5.810   0.126   1.516
 5746SOL    HW218138   5.653   0.151   1.553
 5747SOL     OW18139   6.948   5.036   2.646
 5747SOL    HW118140   6.883   5.103   2.681
 5747SOL    HW218141   6.913   4.997   2.561
 5748SOL     OW18142   1.614   5.680   0.744
 5748SOL    HW118143   1.547   5.663   0.673
 5748SOL    HW218144   1.653   5.771   0.733
 5749SOL     OW18145   1.882   0.432   4.547
 5749SOL    HW118146   1.824   0.374   4.489
 5749SOL    HW218147   1.826   0.471   4.621
 5750SOL     OW18148   5.868   5.492   4.282
 5750SOL    HW118149   5.778   5.467   4.318
 5750SOL    HW218150   5.915   5.410   4.251
 5751SOL     OW18151   2.198   2.974   4.656
 5751SOL    HW118152   2.228   2.915   4.730
 5751SOL    HW218153   2.102   3.000   4.670
 5752SOL     OW18154   6.587   0.320   6.656
 5752SOL    HW118155   6.551   0.344   6.746
 5752SOL    HW218156   6.511   0.300   6.594
 5753SOL     OW18157   3.176   3.933   5.685
 5753SOL    HW118158   3.079   3.945   5.665
 5753SOL    HW218159   3.214   3.861   5.627
 5754SOL     OW18160   5.962   4.258   1.449
 5754SOL    HW118161   5.973   4.348   1.492
 5754SOL    HW218162   5.970   4.268   1.349
 5755SOL     OW18163   2.813   3.592   5.700
 5755SOL    HW118164   2.756   3.655   5.752
 5755SOL    HW218165   2.810   3.617   5.603
 5756SOL     OW18166   6.138   6.470   3.100
 5756SOL    HW118167   6.180   6.551   3.141
 5756SOL    HW218168   6.200   6.392   3.110
 5757SOL     OW18169   6.684   6.954   2.631
 5757SOL    HW118170   6.688   6.857   2.655
 5757SOL    HW218171   6.678   6.963   2.532
 5758SOL     OW18172   3.255   1.321   4.107
 5758SOL    HW118173   3.301   1.401   4.071
 5758SOL    HW218174   3.318   1.267   4.162
 5759SOL     OW18175   4.447   1.820   6.753
 5759SOL    HW118176   4.449   1.903   6.808
 5759SOL    HW218177   4.383   1.831   6.677
 5760SOL     OW18178   0.968   5.143   1.345
 5760SOL    HW118179   1.057   5.111   1.379
 5760SOL    HW218180   0.980   5.187   1.256
 5761SOL     OW18181   5.607   6.964   6.265
 5761SOL    HW118182   5.517   6.924   6.248
 5761SOL    HW218183   5.670   6.938   6.192
 5762SOL     OW18184   5.019   6.707   0.490
 5762SOL    HW118185   4.977   6.700   0.581
 5762SOL    HW218186   5.108   6.753   0.498
 5763SOL     OW18187   0.136   0.296   0.407
 5763SOL    HW118188   0.064   0.354   0.367
 5763SOL    HW218189   0.109   0.200   0.400
 5764SOL     OW18190   5.513   4.295   6.624
 5764SOL    HW118191   5.521   4.384   6.669
 5764SOL    HW218192   5.417   4.267   6.623
 5765SOL     OW18193   6.494   4.027   6.325
 5765SOL    HW118194   6.453   4.047   6.414
 5765SOL    HW218195   6.423   3.997   6.261
 5766SOL     OW18196   2.184   2.090   0.429
 5766SOL    HW118197   2.239   2.153   0.484
 5766SOL    HW218198   2.224   2.081   0.338
 5767SOL     OW18199   2.096   6.885   0.627
 5767SOL    HW118200   2.196   6.876   0.624
 5767SOL    HW218201   2.064   6.927   0.542
 5768SOL     OW18202   0.135   6.680   3.026
 5768SOL    HW118203   0.221   6.677   2.975
 5768SOL    HW218204   0.097   6.773   3.022
 5769SOL     OW18205   3.137   6.759   3.877
 5769SOL    HW118206   3.105   6.825   3.945
 5769SOL    HW218207   3.230   6.731   3.898
 5770SOL     OW18208   0.222   6.779   0.744
 5770SOL    HW118209   0.243   6.867   0.701
 5770SOL    HW218210   0.245   6.704   0.682
 5771SOL     OW18211   0.848   5.637   2.230
 5771SOL    HW118212   0.848   5.581   2.147
 5771SOL    HW218213   0.824   5.731   2.205
 5772SOL     OW18214   5.979   2.701   0.736
 5772SOL    HW118215   5.986   2.634   0.662
 5772SOL    HW218216   5.920   2.663   0.808
 5773SOL     OW18217   4.983   0.669   3.954
 5773SOL    HW118218   4.904   0.673   3.893
 5773SOL    HW218219   5.059   0.622   3.907
 5774SOL     OW18220   2.755   5.109   3.806
 5774SOL    HW118221   2.766   5.037   3.737
 5774SOL    HW218222   2.804   5.191   3.777
 5775SOL     OW18223   1.533   6.713   1.606
 5775SOL    HW118224   1.507   6.632   1.553
 5775SOL    HW218225   1.459   6.736   1.670
 5776SOL     OW18226   6.654   1.005   5.819
 5776SOL    HW118227   6.577   0.990   5.882
 5776SOL    HW218228   6.663   0.925   5.760
 5777SOL     OW18229   6.089   0.202   4.466
 5777SOL    HW118230   6.017   0.252   4.417
 5777SOL    HW218231   6.064   0.193   4.562
 5778SOL     OW18232   1.846   6.919   1.066
 5778SOL    HW118233   1.828   7.011   1.101
 5778SOL    HW218234   1.775   6.894   0.999
 5779SOL     OW18235   3.891   1.037   1.151
 5779SOL    HW118236   3.972   0.978   1.153
 5779SOL    HW218237   3.875   1.075   1.242
 5780SOL     OW18238   5.760   5.656   2.634
 5780SOL    HW118239   5.679   5.680   2.687
 5780SOL    HW218240   5.753   5.562   2.603
 5781SOL     OW18241   1.455   4.487   4.565
 5781SOL    HW118242   1.509   4.518   4.486
 5781SOL    HW218243   1.368   4.449   4.533
 5782SOL     OW18244   1.647   0.880   1.029
 5782SOL    HW118245   1.625   0.794   0.983
 5782SOL    HW218246   1.746   0.888   1.039
 5783SOL     OW18247   1.981   1.572   1.233
 5783SOL    HW118248   2.015   1.536   1.146
 5783SOL    HW218249   1.971   1.671   1.226
 5784SOL     OW18250   0.531   6.602   0.460
 5784SOL    HW118251   0.543   6.519   0.407
 5784SOL    HW218252   0.608   6.665   0.442
 5785SOL     OW18253   1.759   2.197   1.244
 5785SOL    HW118254   1.661   2.185   1.257
 5785SOL    HW218255   1.800   2.232   1.328
 5786SOL     OW18256   1.083   3.933   0.930
 5786SOL    HW118257   1.096   3.943   0.832
 5786SOL    HW218258   1.130   3.850   0.962
 5787SOL     OW18259   4.888   2.284   4.584
 5787SOL    HW118260   4.892   2.211   4.516
 5787SOL    HW218261   4.799   2.281   4.630
 5788SOL     OW18262   2.804   0.428   1.328
 5788SOL    HW118263   2.849   0.455   1.413
 5788SOL    HW218264   2.818   0.330   1.313
 5789SOL     OW18265   3.175   2.697   6.436
 5789SOL    HW118266   3.083   2.729   6.459
 5789SOL    HW218267   3.215   2.758   6.366
 5790SOL     OW18268   6.649   5.666   5.412
 5790SOL    HW118269   6.728   5.653   5.352
 5790SOL    HW218270   6.670   5.634   5.504
 5791SOL     OW18271   2.775   1.576   2.767
 5791SOL    HW118272   2.871   1.583   2.740
 5791SOL    HW218273   2.738   1.667   2.786
 5792SOL     OW18274   4.795   3.920   3.385
 5792SOL    HW118275   4.771   4.015   3.403
 5792SOL    HW218276   4.782   3.865   3.468
 5793SOL     OW18277   5.842   1.281   5.657
 5793SOL    HW118278   5.936   1.290   5.691
 5793SOL    HW218279   5.812   1.186   5.668
 5794SOL     OW18280   3.572   0.213   6.882
 5794SOL    HW118281   3.494   0.273   6.897
 5794SOL    HW218282   3.636   0.257   6.819
 5795SOL     OW18283   0.331   6.271   1.294
 5795SOL    HW118284   0.310   6.227   1.207
 5795SOL    HW218285   0.344   6.369   1.279
 5796SOL     OW18286   4.838   0.711   6.720
 5796SOL    HW118287   4.924   0.761   6.725
 5796SOL    HW218288   4.813   0.676   6.811
 5797SOL     OW18289   5.549   1.018   0.046
 5797SOL    HW118290   5.544   1.098   7.007
 5797SOL    HW218291   5.636   1.020   0.095
 5798SOL     OW18292   0.772   3.841   4.546
 5798SOL    HW118293   0.708   3.892   4.603
 5798SOL    HW218294   0.794   3.754   4.589
 5799SOL     OW18295   0.479   0.513   2.854
 5799SOL    HW118296   0.457   0.425   2.811
 5799SOL    HW218297   0.523   0.496   2.943
 5800SOL     OW18298   0.782   0.290   1.635
 5800SOL    HW118299   0.721   0.218   1.666
 5800SOL    HW218300   0.742   0.379   1.658
 5801SOL     OW18301   2.227   2.600   3.838
 5801SOL    HW118302   2.200   2.563   3.750
 5801SOL    HW218303   2.147   2.607   3.898
 5802SOL     OW18304   5.895   3.594   2.612
 5802SOL    HW118305   5.983   3.559   2.642
 5802SOL    HW218306   5.822   3.554   2.667
 5803SOL     OW18307   1.054   5.043   3.616
 5803SOL    HW118308   1.105   5.072   3.697
 5803SOL    HW218309   0.986   4.975   3.643
 5804SOL     OW18310   6.659   6.248   3.668
 5804SOL    HW118311   6.635   6.235   3.764
 5804SOL    HW218312   6.689   6.342   3.654
 5805SOL     OW18313   1.586   2.896   0.803
 5805SOL    HW118314   1.612   2.970   0.741
 5805SOL    HW218315   1.541   2.824   0.751
 5806SOL     OW18316   0.038   4.665   4.921
 5806SOL    HW118317   0.035   4.731   4.995
 5806SOL    HW218318   0.115   4.685   4.861
 5807SOL     OW18319   1.558   6.089   0.904
 5807SOL    HW118320   1.616   6.064   0.982
 5807SOL    HW218321   1.480   6.143   0.936
 5808SOL     OW18322   6.564   6.981   5.333
 5808SOL    HW118323   6.585   6.949   5.425
 5808SOL    HW218324   6.468   6.961   5.312
 5809SOL     OW18325   6.969   2.428   5.802
 5809SOL    HW118326   6.939   2.524   5.796
 5809SOL    HW218327   6.889   2.368   5.799
 5810SOL     OW18328   4.084   0.376   5.172
 5810SOL    HW118329   4.140   0.452   5.206
 5810SOL    HW218330   4.135   0.326   5.102
 5811SOL     OW18331   2.634   2.254   5.533
 5811SOL    HW118332   2.697   2.235   5.457
 5811SOL    HW218333   2.679   2.235   5.620
 5812SOL     OW18334   5.447   3.690   6.126
 5812SOL    HW118335   5.381   3.726   6.060
 5812SOL    HW218336   5.479   3.600   6.094
 5813SOL     OW18337   3.221   6.352   1.304
 5813SOL    HW118338   3.257   6.258   1.302
 5813SOL    HW218339   3.191   6.378   1.212
 5814SOL     OW18340   0.024   2.067   1.889
 5814SOL    HW118341   7.021   1.971   1.872
 5814SOL    HW218342   0.087   2.098   1.819
 5815SOL     OW18343   5.410   1.828   4.506
 5815SOL    HW118344   5.460   1.898   4.556
 5815SOL    HW218345   5.430   1.738   4.545
 5816SOL     OW18346   6.642   4.980   2.176
 5816SOL    HW118347   6.576   4.971   2.102
 5816SOL    HW218348   6.624   4.910   2.245
 5817SOL     OW18349   5.861   4.722   5.501
 5817SOL    HW118350   5.806   4.788   5.450
 5817SOL    HW218351   5.840   4.729   5.598
 5818SOL     OW18352   0.378   5.907   4.896
 5818SOL    HW118353   0.416   5.900   4.804
 5818SOL    HW218354   0.452   5.910   4.963
 5819SOL     OW18355   2.944   5.199   6.385
 5819SOL    HW118356   3.041   5.218   6.371
 5819SOL    HW218357   2.931   5.101   6.398
 5820SOL     OW18358   4.564   4.800   2.111
 5820SOL    HW118359   4.664   4.804   2.123
 5820SOL    HW218360   4.533   4.705   2.117
 5821SOL     OW18361   6.300   1.088   1.769
 5821SOL    HW118362   6.224   1.136   1.813
 5821SOL    HW218363   6.271   0.997   1.741
 5822SOL     OW18364   1.492   2.501   2.596
 5822SOL    HW118365   1.581   2.459   2.613
 5822SOL    HW218366   1.442   2.448   2.527
 5823SOL     OW18367   2.415   6.316   4.829
 5823SOL    HW118368   2.330   6.364   4.848
 5823SOL    HW218369   2.452   6.348   4.742
 5824SOL     OW18370   0.982   0.063   3.034
 5824SOL    HW118371   0.961   0.147   3.085
 5824SOL    HW218372   1.046   0.085   2.961
 5825SOL     OW18373   0.270   5.638   4.895
 5825SOL    HW118374   0.320   5.612   4.813
 5825SOL    HW218375   0.174   5.611   4.887
 5826SOL     OW18376   0.394   6.810   5.833
 5826SOL    HW118377   0.387   6.856   5.922
 5826SOL    HW218378   0.347   6.722   5.838
 5827SOL     OW18379   1.155   3.571   4.852
 5827SOL    HW118380   1.241   3.542   4.893
 5827SOL    HW218381   1.172   3.602   4.758
 5828SOL     OW18382   4.451   0.802   3.466
 5828SOL    HW118383   4.471   0.721   3.411
 5828SOL    HW218384   4.492   0.882   3.423
 5829SOL     OW18385   1.526   0.672   4.568
 5829SOL    HW118386   1.488   0.647   4.479
 5829SOL    HW218387   1.491   0.762   4.595
 5830SOL     OW18388   4.381   6.111   5.630
 5830SOL    HW118389   4.413   6.124   5.723
 5830SOL    HW218390   4.457   6.123   5.566
 5831SOL     OW18391   1.203   1.928   5.393
 5831SOL    HW118392   1.195   1.978   5.307
 5831SOL    HW218393   1.127   1.952   5.453
 5832SOL     OW18394   3.500   4.569   1.189
 5832SOL    HW118395   3.468   4.650   1.237
 5832SOL    HW218396   3.431   4.539   1.122
 5833SOL     OW18397   3.973   3.298   5.624
 5833SOL    HW118398   4.031   3.251   5.690
 5833SOL    HW218399   4.003   3.393   5.616
 5834SOL     OW18400   6.500   3.576   6.695
 5834SOL    HW118401   6.461   3.573   6.603
 5834SOL    HW218402   6.542   3.487   6.716
 5835SOL     OW18403   6.114   2.099   2.284
 5835SOL    HW118404   6.196   2.134   2.238
 5835SOL    HW218405   6.132   2.006   2.317
 5836SOL     OW18406   2.758   6.734   1.793
 5836SOL    HW118407   2.703   6.816   1.806
 5836SOL    HW218408   2.709   6.670   1.734
 5837SOL     OW18409   3.935   3.812   6.973
 5837SOL    HW118410   3.994   3.852   0.020
 5837SOL    HW218411   3.988   3.795   6.890
 5838SOL     OW18412   2.594   1.411   1.078
 5838SOL    HW118413   2.664   1.436   1.145
 5838SOL    HW218414   2.542   1.333   1.111
 5839SOL     OW18415   0.582   2.716   1.076
 5839SOL    HW118416   0.676   2.749   1.070
 5839SOL    HW218417   0.576   2.626   1.032
 5840SOL     OW18418   0.293   3.914   1.061
 5840SOL    HW118419   0.267   3.822   1.030
 5840SOL    HW218420   0.285   3.919   1.160
 5841SOL     OW18421   5.233   0.647   1.493
 5841SOL    HW118422   5.311   0.655   1.431
 5841SOL    HW218423   5.153   0.615   1.442
 5842SOL     OW18424   4.257   1.925   1.367
 5842SOL    HW118425   4.320   1.993   1.405
 5842SOL    HW218426   4.310   1.851   1.326
 5843SOL     OW18427   2.090   3.619   1.114
 5843SOL    HW118428   2.032   3.655   1.188
 5843SOL    HW218429   2.081   3.677   1.033
 5844SOL     OW18430   1.141   6.441   5.302
 5844SOL    HW118431   1.178   6.412   5.390
 5844SOL    HW218432   1.056   6.492   5.316
 5845SOL     OW18433   1.042   0.423   2.100
 5845SOL    HW118434   1.063   0.502   2.158
 5845SOL    HW218435   1.112   0.352   2.112
 5846SOL     OW18436   6.027   3.565   5.707
 5846SOL    HW118437   6.025   3.597   5.613
 5846SOL    HW218438   5.945   3.510   5.725
 5847SOL     OW18439   2.674   2.412   1.790
 5847SOL    HW118440   2.643   2.317   1.785
 5847SOL    HW218441   2.754   2.417   1.849
 5848SOL     OW18442   1.826   6.065   4.068
 5848SOL    HW118443   1.741   6.013   4.058
 5848SOL    HW218444   1.901   6.015   4.024
 5849SOL     OW18445   2.249   6.780   5.348
 5849SOL    HW118446   2.314   6.707   5.327
 5849SOL    HW218447   2.297   6.868   5.348
 5850SOL     OW18448   0.748   3.285   1.532
 5850SOL    HW118449   0.754   3.369   1.478
 5850SOL    HW218450   0.780   3.303   1.626
 5851SOL     OW18451   5.569   3.743   3.818
 5851SOL    HW118452   5.522   3.744   3.906
 5851SOL    HW218453   5.656   3.695   3.827
 5852SOL     OW18454   4.648   6.101   2.756
 5852SOL    HW118455   4.614   6.026   2.700
 5852SOL    HW218456   4.621   6.086   2.851
 5853SOL     OW18457   4.731   5.839   5.540
 5853SOL    HW118458   4.677   5.775   5.486
 5853SOL    HW218459   4.671   5.890   5.601
 5854SOL     OW18460   4.370   4.774   5.551
 5854SOL    HW118461   4.290   4.825   5.519
 5854SOL    HW218462   4.360   4.678   5.526
 5855SOL     OW18463   1.618   2.719   4.285
 5855SOL    HW118464   1.535   2.768   4.260
 5855SOL    HW218465   1.595   2.642   4.345
 5856SOL     OW18466   1.182   6.835   2.717
 5856SOL    HW118467   1.279   6.855   2.708
 5856SOL    HW218468   1.168   6.767   2.788
 5857SOL     OW18469   6.314   3.047   5.172
 5857SOL    HW118470   6.271   3.131   5.138
 5857SOL    HW218471   6.406   3.068   5.205
 5858SOL     OW18472   2.417   2.331   2.866
 5858SOL    HW118473   2.333   2.372   2.902
 5858SOL    HW218474   2.405   2.233   2.855
 5859SOL     OW18475   6.240   6.082   1.509
 5859SOL    HW118476   6.176   6.155   1.486
 5859SOL    HW218477   6.293   6.108   1.590
 5860SOL     OW18478   0.543   4.835   3.636
 5860SOL    HW118479   0.526   4.844   3.734
 5860SOL    HW218480   0.539   4.925   3.593
 5861SOL     OW18481   5.146   0.526   4.954
 5861SOL    HW118482   5.081   0.473   4.900
 5861SOL    HW218483   5.107   0.547   5.044
 5862SOL     OW18484   6.381   5.754   1.713
 5862SOL    HW118485   6.305   5.788   1.658
 5862SOL    HW218486   6.363   5.660   1.741
 5863SOL     OW18487   3.287   1.132   4.553
 5863SOL    HW118488   3.321   1.213   4.602
 5863SOL    HW218489   3.365   1.079   4.519
 5864SOL     OW18490   3.575   3.789   2.614
 5864SOL    HW118491   3.582   3.752   2.522
 5864SOL    HW218492   3.625   3.731   2.678
 5865SOL     OW18493   5.425   0.107   5.652
 5865SOL    HW118494   5.463   0.159   5.728
 5865SOL    HW218495   5.498   0.057   5.605
 5866SOL     OW18496   3.397   2.689   0.649
 5866SOL    HW118497   3.316   2.666   0.704
 5866SOL    HW218498   3.473   2.710   0.710
 5867SOL     OW18499   1.869   2.354   1.811
 5867SOL    HW118500   1.892   2.432   1.869
 5867SOL    HW218501   1.942   2.285   1.818
 5868SOL     OW18502   1.203   2.191   5.744
 5868SOL    HW118503   1.165   2.109   5.787
 5868SOL    HW218504   1.215   2.262   5.813
 5869SOL     OW18505   1.869   4.300   3.513
 5869SOL    HW118506   1.783   4.286   3.463
 5869SOL    HW218507   1.919   4.214   3.517
 5870SOL     OW18508   4.100   5.832   5.769
 5870SOL    HW118509   4.092   5.929   5.744
 5870SOL    HW218510   4.155   5.785   5.701
 5871SOL     OW18511   4.074   3.771   2.431
 5871SOL    HW118512   4.065   3.838   2.505
 5871SOL    HW218513   4.104   3.683   2.469
 5872SOL     OW18514   4.161   6.453   1.059
 5872SOL    HW118515   4.177   6.401   0.975
 5872SOL    HW218516   4.152   6.390   1.136
 5873SOL     OW18517   2.991   6.055   2.537
 5873SOL    HW118518   2.905   6.081   2.493
 5873SOL    HW218519   3.064   6.057   2.469
 5874SOL     OW18520   2.199   4.666   5.056
 5874SOL    HW118521   2.291   4.628   5.070
 5874SOL    HW218522   2.132   4.592   5.058
 5875SOL     OW18523   3.751   1.806   0.344
 5875SOL    HW118524   3.837   1.755   0.346
 5875SOL    HW218525   3.675   1.745   0.361
 5876SOL     OW18526   3.960   3.449   2.152
 5876SOL    HW118527   3.897   3.392   2.100
 5876SOL    HW218528   4.015   3.392   2.213
 5877SOL     OW18529   6.360   6.369   0.301
 5877SOL    HW118530   6.307   6.304   0.354
 5877SOL    HW218531   6.303   6.447   0.276
 5878SOL     OW18532   0.798   6.124   3.915
 5878SOL    HW118533   0.808   6.177   3.831
 5878SOL    HW218534   0.829   6.180   3.993
 5879SOL     OW18535   0.895   3.292   0.327
 5879SOL    HW118536   0.897   3.392   0.327
 5879SOL    HW218537   0.905   3.258   0.234
 5880SOL     OW18538   2.882   4.173   0.508
 5880SOL    HW118539   2.947   4.154   0.582
 5880SOL    HW218540   2.852   4.087   0.467
 5881SOL     OW18541   0.085   5.097   3.262
 5881SOL    HW118542   0.058   5.015   3.313
 5881SOL    HW218543   0.038   5.097   3.173
 5882SOL     OW18544   6.731   6.050   1.457
 5882SOL    HW118545   6.801   5.978   1.449
 5882SOL    HW218546   6.772   6.138   1.435
 5883SOL     OW18547   0.886   1.728   6.888
 5883SOL    HW118548   0.814   1.789   6.854
 5883SOL    HW218549   0.853   1.680   6.969
 5884SOL     OW18550   2.520   1.321   4.172
 5884SOL    HW118551   2.498   1.268   4.090
 5884SOL    HW218552   2.573   1.402   4.146
 5885SOL     OW18553   0.269   0.317   2.485
 5885SOL    HW118554   0.230   0.341   2.396
 5885SOL    HW218555   0.301   0.400   2.530
 5886SOL     OW18556   0.462   1.894   5.217
 5886SOL    HW118557   0.403   1.942   5.152
 5886SOL    HW218558   0.510   1.820   5.169
 5887SOL     OW18559   3.387   1.105   3.709
 5887SOL    HW118560   3.424   1.047   3.781
 5887SOL    HW218561   3.310   1.058   3.665
 5888SOL     OW18562   2.485   0.620   2.770
 5888SOL    HW118563   2.528   0.688   2.710
 5888SOL    HW218564   2.420   0.666   2.831
 5889SOL     OW18565   1.371   6.191   1.194
 5889SOL    HW118566   1.371   6.094   1.172
 5889SOL    HW218567   1.383   6.245   1.111
 5890SOL     OW18568   1.424   0.041   4.890
 5890SOL    HW118569   1.364   0.057   4.812
 5890SOL    HW218570   1.499   0.106   4.889
 5891SOL     OW18571   3.025   2.978   6.109
 5891SOL    HW118572   2.946   2.965   6.049
 5891SOL    HW218573   3.004   2.941   6.200
 5892SOL     OW18574   0.751   5.368   1.300
 5892SOL    HW118575   0.745   5.270   1.321
 5892SOL    HW218576   0.843   5.401   1.322
 5893SOL     OW18577   1.563   3.959   4.166
 5893SOL    HW118578   1.566   4.051   4.127
 5893SOL    HW218579   1.655   3.933   4.197
 5894SOL     OW18580   0.512   5.669   3.716
 5894SOL    HW118581   0.470   5.660   3.625
 5894SOL    HW218582   0.576   5.746   3.715
 5895SOL     OW18583   4.906   3.328   4.150
 5895SOL    HW118584   5.003   3.308   4.165
 5895SOL    HW218585   4.865   3.255   4.096
 5896SOL     OW18586   4.217   1.275   0.960
 5896SOL    HW118587   4.219   1.312   0.867
 5896SOL    HW218588   4.306   1.236   0.982
 5897SOL     OW18589   3.738   0.557   1.589
 5897SOL    HW118590   3.741   0.553   1.489
 5897SOL    HW218591   3.683   0.481   1.624
 5898SOL     OW18592   2.106   6.630   3.232
 5898SOL    HW118593   2.011   6.615   3.259
 5898SOL    HW218594   2.166   6.614   3.310
 5899SOL     OW18595   4.888   6.482   5.786
 5899SOL    HW118596   4.907   6.549   5.714
 5899SOL    HW218597   4.832   6.408   5.750
 5900SOL     OW18598   4.842   5.626   3.489
 5900SOL    HW118599   4.771   5.656   3.424
 5900SOL    HW218600   4.918   5.586   3.438
 5901SOL     OW18601   2.981   0.560   0.159
 5901SOL    HW118602   2.941   0.520   0.241
 5901SOL    HW218603   3.017   0.651   0.181
 5902SOL     OW18604   6.985   2.057   6.627
 5902SOL    HW118605   7.010   2.092   6.537
 5902SOL    HW218606   7.016   1.962   6.636
 5903SOL     OW18607   4.148   3.945   0.752
 5903SOL    HW118608   4.239   3.944   0.795
 5903SOL    HW218609   4.158   3.959   0.654
 5904SOL     OW18610   1.101   3.380   1.801
 5904SOL    HW118611   1.058   3.335   1.724
 5904SOL    HW218612   1.075   3.334   1.886
 5905SOL     OW18613   6.409   6.400   2.676
 5905SOL    HW118614   6.359   6.393   2.589
 5905SOL    HW218615   6.406   6.312   2.723
 5906SOL     OW18616   4.646   1.738   4.159
 5906SOL    HW118617   4.616   1.825   4.118
 5906SOL    HW218618   4.651   1.749   4.258
 5907SOL     OW18619   1.493   5.580   1.854
 5907SOL    HW118620   1.507   5.656   1.917
 5907SOL    HW218621   1.395   5.559   1.848
 5908SOL     OW18622   0.863   2.363   6.555
 5908SOL    HW118623   0.840   2.431   6.486
 5908SOL    HW218624   0.909   2.285   6.512
 5909SOL     OW18625   0.031   4.970   1.167
 5909SOL    HW118626   0.122   4.931   1.155
 5909SOL    HW218627   0.005   5.018   1.083
 5910SOL     OW18628   0.808   3.006   3.237
 5910SOL    HW118629   0.846   2.936   3.176
 5910SOL    HW218630   0.848   3.095   3.215
 5911SOL     OW18631   6.734   6.339   6.346
 5911SOL    HW118632   6.732   6.308   6.442
 5911SOL    HW218633   6.804   6.409   6.336
 5912SOL     OW18634   6.748   0.367   5.213
 5912SOL    HW118635   6.755   0.462   5.242
 5912SOL    HW218636   6.779   0.358   5.118
 5913SOL     OW18637   4.578   3.318   6.514
 5913SOL    HW118638   4.512   3.383   6.476
 5913SOL    HW218639   4.567   3.229   6.469
 5914SOL     OW18640   0.975   5.876   6.924
 5914SOL    HW118641   1.004   5.966   6.890
 5914SOL    HW218642   1.038   5.846   6.995
 5915SOL     OW18643   4.631   6.222   1.423
 5915SOL    HW118644   4.583   6.139   1.394
 5915SOL    HW218645   4.589   6.256   1.507
 5916SOL     OW18646   6.622   6.142   2.695
 5916SOL    HW118647   6.720   6.122   2.695
 5916SOL    HW218648   6.598   6.193   2.778
 5917SOL     OW18649   3.023   3.783   4.480
 5917SOL    HW118650   3.007   3.865   4.536
 5917SOL    HW218651   3.121   3.770   4.469
 5918SOL     OW18652   2.061   5.040   5.844
 5918SOL    HW118653   2.156   5.040   5.812
 5918SOL    HW218654   2.035   4.948   5.873
 5919SOL     OW18655   2.982   3.238   2.497
 5919SOL    HW118656   3.037   3.169   2.450
 5919SOL    HW218657   2.930   3.194   2.571
 5920SOL     OW18658   5.305   0.743   5.982
 5920SOL    HW118659   5.224   0.784   5.940
 5920SOL    HW218660   5.315   0.777   6.076
 5921SOL     OW18661   4.056   5.274   6.499
 5921SOL    HW118662   4.102   5.315   6.420
 5921SOL    HW218663   4.116   5.281   6.579
 5922SOL     OW18664   6.215   4.270   4.380
 5922SOL    HW118665   6.155   4.292   4.302
 5922SOL    HW218666   6.203   4.339   4.451
 5923SOL     OW18667   6.781   1.182   2.221
 5923SOL    HW118668   6.837   1.156   2.143
 5923SOL    HW218669   6.779   1.282   2.229
 5924SOL     OW18670   6.014   0.172   2.512
 5924SOL    HW118671   5.979   0.078   2.518
 5924SOL    HW218672   5.972   0.227   2.585
 5925SOL     OW18673   3.401   6.598   1.871
 5925SOL    HW118674   3.371   6.567   1.961
 5925SOL    HW218675   3.365   6.690   1.853
 5926SOL     OW18676   4.093   4.782   2.404
 5926SOL    HW118677   4.111   4.808   2.309
 5926SOL    HW218678   3.999   4.806   2.428
 5927SOL     OW18679   1.072   4.813   2.305
 5927SOL    HW118680   1.059   4.906   2.339
 5927SOL    HW218681   1.145   4.768   2.357
 5928SOL     OW18682   3.648   6.940   0.890
 5928SOL    HW118683   3.555   6.909   0.870
 5928SOL    HW218684   3.647   7.002   0.968
 5929SOL     OW18685   5.941   0.509   5.693
 5929SOL    HW118686   6.026   0.562   5.692
 5929SOL    HW218687   5.900   0.513   5.784
 5930SOL     OW18688   0.695   3.261   3.010
 5930SOL    HW118689   0.707   3.303   2.921
 5930SOL    HW218690   0.604   3.220   3.016
 5931SOL     OW18691   6.755   6.656   2.701
 5931SOL    HW118692   6.821   6.621   2.768
 5931SOL    HW218693   6.800   6.665   2.612
 5932SOL     OW18694   3.638   0.024   0.476
 5932SOL    HW118695   3.577   0.051   0.402
 5932SOL    HW218696   3.669   6.952   0.462
 5933SOL     OW18697   6.597   4.982   4.354
 5933SOL    HW118698   6.516   4.987   4.413
 5933SOL    HW218699   6.631   5.075   4.338
 5934SOL     OW18700   3.782   2.618   5.375
 5934SOL    HW118701   3.863   2.562   5.394
 5934SOL    HW218702   3.808   2.715   5.373
 5935SOL     OW18703   0.516   5.119   6.449
 5935SOL    HW118704   0.481   5.114   6.356
 5935SOL    HW218705   0.448   5.164   6.508
 5936SOL     OW18706   3.064   3.339   1.531
 5936SOL    HW118707   3.130   3.281   1.483
 5936SOL    HW218708   3.074   3.327   1.630
 5937SOL     OW18709   6.259   3.048   2.153
 5937SOL    HW118710   6.205   2.963   2.152
 5937SOL    HW218711   6.320   3.049   2.074
 5938SOL     OW18712   6.084   5.717   4.024
 5938SOL    HW118713   6.037   5.804   4.041
 5938SOL    HW218714   6.106   5.674   4.112
 5939SOL     OW18715   2.530   5.978   3.814
 5939SOL    HW118716   2.475   5.966   3.731
 5939SOL    HW218717   2.493   5.920   3.887
 5940SOL     OW18718   4.354   5.147   3.375
 5940SOL    HW118719   4.315   5.064   3.334
 5940SOL    HW218720   4.289   5.222   3.364
 5941SOL     OW18721   5.345   3.393   2.644
 5941SOL    HW118722   5.337   3.299   2.678
 5941SOL    HW218723   5.400   3.395   2.561
 5942SOL     OW18724   5.456   3.728   6.919
 5942SOL    HW118725   5.456   3.649   6.981
 5942SOL    HW218726   5.373   3.781   6.932
 5943SOL     OW18727   3.607   3.689   6.189
 5943SOL    HW118728   3.520   3.713   6.147
 5943SOL    HW218729   3.644   3.606   6.147
 5944SOL     OW18730   0.340   2.312   0.062
 5944SOL    HW118731   0.387   2.242   0.115
 5944SOL    HW218732   0.334   2.396   0.116
 5945SOL     OW18733   6.988   5.094   5.244
 5945SOL    HW118734   6.972   5.098   5.343
 5945SOL    HW218735   6.910   5.051   5.200
 5946SOL     OW18736   3.367   3.834   6.605
 5946SOL    HW118737   3.388   3.840   6.703
 5946SOL    HW218738   3.446   3.796   6.556
 5947SOL     OW18739   3.118   3.415   3.116
 5947SOL    HW118740   3.060   3.495   3.134
 5947SOL    HW218741   3.161   3.424   3.026
 5948SOL     OW18742   4.263   4.630   2.552
 5948SOL    HW118743   4.332   4.569   2.513
 5948SOL    HW218744   4.200   4.659   2.479
 5949SOL     OW18745   5.346   5.000   1.167
 5949SOL    HW118746   5.328   4.902   1.165
 5949SOL    HW218747   5.437   5.018   1.129
 5950SOL     OW18748   5.603   1.942   4.856
 5950SOL    HW118749   5.656   1.988   4.927
 5950SOL    HW218750   5.586   2.006   4.780
 5951SOL     OW18751   1.099   5.799   4.656
 5951SOL    HW118752   1.015   5.793   4.709
 5951SOL    HW218753   1.136   5.891   4.661
 5952SOL     OW18754   4.675   6.046   3.340
 5952SOL    HW118755   4.667   6.018   3.244
 5952SOL    HW218756   4.725   5.976   3.391
 5953SOL     OW18757   6.742   4.281   5.078
 5953SOL    HW118758   6.647   4.266   5.053
 5953SOL    HW218759   6.780   4.355   5.023
 5954SOL     OW18760   6.544   5.304   5.189
 5954SOL    HW118761   6.487   5.315   5.108
 5954SOL    HW218762   6.531   5.213   5.227
 5955SOL     OW18763   4.824   5.434   1.870
 5955SOL    HW118764   4.834   5.397   1.962
 5955SOL    HW218765   4.817   5.533   1.874
 5956SOL     OW18766   5.386   2.084   4.097
 5956SOL    HW118767   5.433   2.052   4.015
 5956SOL    HW218768   5.317   2.017   4.124
 5957SOL     OW18769   3.395   1.709   4.606
 5957SOL    HW118770   3.356   1.740   4.692
 5957SOL    HW218771   3.330   1.651   4.558
 5958SOL     OW18772   4.226   0.291   2.755
 5958SOL    HW118773   4.272   0.363   2.702
 5958SOL    HW218774   4.231   0.204   2.706
 5959SOL     OW18775   4.348   2.982   5.804
 5959SOL    HW118776   4.287   3.036   5.745
 5959SOL    HW218777   4.397   2.915   5.749
 5960SOL     OW18778   3.336   5.941   4.573
 5960SOL    HW118779   3.336   5.844   4.548
 5960SOL    HW218780   3.429   5.977   4.566
 5961SOL     OW18781   4.952   1.455   2.716
 5961SOL    HW118782   4.854   1.439   2.700
 5961SOL    HW218783   4.964   1.495   2.807
 5962SOL     OW18784   5.414   5.931   6.803
 5962SOL    HW118785   5.379   5.839   6.788
 5962SOL    HW218786   5.347   5.999   6.773
 5963SOL     OW18787   3.050   3.934   6.292
 5963SOL    HW118788   3.085   3.861   6.233
 5963SOL    HW218789   2.962   3.906   6.329
 5964SOL     OW18790   1.611   6.764   4.599
 5964SOL    HW118791   1.548   6.758   4.676
 5964SOL    HW218792   1.649   6.673   4.579
 5965SOL     OW18793   2.286   1.375   0.056
 5965SOL    HW118794   2.356   1.323   0.008
 5965SOL    HW218795   2.315   1.470   0.065
 5966SOL     OW18796   2.245   6.582   6.530
 5966SOL    HW118797   2.344   6.586   6.544
 5966SOL    HW218798   2.220   6.644   6.455
 5967SOL     OW18799   2.547   0.635   5.647
 5967SOL    HW118800   2.474   0.631   5.578
 5967SOL    HW218801   2.568   0.730   5.667
 5968SOL     OW18802   5.161   2.208   7.012
 5968SOL    HW118803   5.125   2.129   6.963
 5968SOL    HW218804   5.102   2.228   0.068
 5969SOL     OW18805   6.130   0.706   6.718
 5969SOL    HW118806   6.212   0.691   6.662
 5969SOL    HW218807   6.137   0.794   6.764
 5970SOL     OW18808   6.917   4.916   1.697
 5970SOL    HW118809   6.949   4.980   1.628
 5970SOL    HW218810   6.972   4.927   1.780
 5971SOL     OW18811   7.016   0.737   1.342
 5971SOL    HW118812   6.982   0.805   1.408
 5971SOL    HW218813   0.031   0.784   1.262
 5972SOL     OW18814   4.630   5.739   6.390
 5972SOL    HW118815   4.641   5.838   6.381
 5972SOL    HW218816   4.702   5.693   6.338
 5973SOL     OW18817   1.584   2.705   2.974
 5973SOL    HW118818   1.568   2.755   2.889
 5973SOL    HW218819   1.514   2.634   2.985
 5974SOL     OW18820   5.240   6.477   0.347
 5974SOL    HW118821   5.165   6.463   0.412
 5974SOL    HW218822   5.272   6.571   0.352
 5975SOL     OW18823   4.199   6.775   0.801
 5975SOL    HW118824   4.284   6.725   0.817
 5975SOL    HW218825   4.122   6.711   0.808
 5976SOL     OW18826   3.823   2.916   5.441
 5976SOL    HW118827   3.894   2.970   5.397
 5976SOL    HW218828   3.833   2.921   5.540
 5977SOL     OW18829   1.412   5.672   0.568
 5977SOL    HW118830   1.317   5.657   0.597
 5977SOL    HW218831   1.417   5.757   0.514
 5978SOL     OW18832   3.463   5.483   1.573
 5978SOL    HW118833   3.387   5.525   1.622
 5978SOL    HW218834   3.540   5.547   1.568
 5979SOL     OW18835   6.528   0.500   2.111
 5979SOL    HW118836   6.583   0.544   2.181
 5979SOL    HW218837   6.494   0.413   2.146
 5980SOL     OW18838   4.017   3.776   1.417
 5980SOL    HW118839   3.957   3.828   1.478
 5980SOL    HW218840   4.053   3.837   1.347
 5981SOL     OW18841   4.693   1.816   0.399
 5981SOL    HW118842   4.668   1.827   0.495
 5981SOL    HW218843   4.675   1.722   0.370
 5982SOL     OW18844   5.850   2.125   2.734
 5982SOL    HW118845   5.820   2.037   2.770
 5982SOL    HW218846   5.884   2.114   2.641
 5983SOL     OW18847   0.974   1.370   4.403
 5983SOL    HW118848   1.033   1.388   4.481
 5983SOL    HW218849   1.031   1.354   4.322
 5984SOL     OW18850   5.124   6.679   3.419
 5984SOL    HW118851   5.126   6.754   3.354
 5984SOL    HW218852   5.061   6.608   3.387
 5985SOL     OW18853   0.040   3.140   3.334
 5985SOL    HW118854   0.117   3.148   3.270
 5985SOL    HW218855   6.993   3.208   3.311
 5986SOL     OW18856   3.138   3.741   5.096
 5986SOL    HW118857   3.131   3.797   5.014
 5986SOL    HW218858   3.224   3.761   5.143
 5987SOL     OW18859   4.762   0.489   4.072
 5987SOL    HW118860   4.747   0.425   3.996
 5987SOL    HW218861   4.844   0.543   4.055
 5988SOL     OW18862   4.485   0.462   5.755
 5988SOL    HW118863   4.575   0.461   5.711
 5988SOL    HW218864   4.421   0.409   5.699
 5989SOL     OW18865   2.180   5.486   5.980
 5989SOL    HW118866   2.101   5.535   5.942
 5989SOL    HW218867   2.150   5.396   6.012
 5990SOL     OW18868   3.247   3.524   0.613
 5990SOL    HW118869   3.298   3.447   0.573
 5990SOL    HW218870   3.149   3.509   0.600
 5991SOL     OW18871   4.118   5.915   6.464
 5991SOL    HW118872   4.152   5.933   6.557
 5991SOL    HW218873   4.046   5.980   6.441
 5992SOL     OW18874   3.516   0.322   1.891
 5992SOL    HW118875   3.524   0.306   1.793
 5992SOL    HW218876   3.448   0.394   1.908
 5993SOL     OW18877   4.257   4.109   5.703
 5993SOL    HW118878   4.310   4.064   5.631
 5993SOL    HW218879   4.307   4.105   5.789
 5994SOL     OW18880   6.883   2.179   6.826
 5994SOL    HW118881   6.937   2.142   6.750
 5994SOL    HW218882   6.934   2.169   6.911
 5995SOL     OW18883   4.848   3.076   2.279
 5995SOL    HW118884   4.858   3.174   2.293
 5995SOL    HW218885   4.820   3.059   2.184
 5996SOL     OW18886   0.418   5.916   1.154
 5996SOL    HW118887   0.366   5.982   1.100
 5996SOL    HW218888   0.386   5.824   1.134
 5997SOL     OW18889   0.656   5.665   2.767
 5997SOL    HW118890   0.733   5.719   2.735
 5997SOL    HW218891   0.680   5.568   2.765
 5998SOL     OW18892   6.406   1.875   2.203
 5998SOL    HW118893   6.428   1.816   2.125
 5998SOL    HW218894   6.472   1.950   2.207
 5999SOL     OW18895   2.714   3.198   1.458
 5999SOL    HW118896   2.656   3.195   1.378
 5999SOL    HW218897   2.794   3.139   1.444
 6000SOL     OW18898   1.525   6.259   0.075
 6000SOL    HW118899   1.579   6.290   7.019
 6000SOL    HW218900   1.433   6.236   0.045
 6001SOL     OW18901   6.964   5.250   6.603
 6001SOL    HW118902   0.018   5.296   6.558
 6001SOL    HW218903   6.960   5.278   6.699
 6002SOL     OW18904   5.925   6.616   6.556
 6002SOL    HW118905   6.009   6.663   6.530
 6002SOL    HW218906   5.942   6.557   6.635
 6003SOL     OW18907   5.916   1.897   5.171
 6003SOL    HW118908   5.983   1.860   5.236
 6003SOL    HW218909   5.852   1.826   5.145
 6004SOL     OW18910   6.567   3.587   3.661
 6004SOL    HW118911   6.545   3.493   3.685
 6004SOL    HW218912   6.631   3.588   3.585
 6005SOL     OW18913   5.676   5.121   4.737
 6005SOL    HW118914   5.707   5.026   4.729
 6005SOL    HW218915   5.596   5.135   4.680
 6006SOL     OW18916   2.261   0.783   4.802
 6006SOL    HW118917   2.344   0.744   4.762
 6006SOL    HW218918   2.226   0.720   4.872
 6007SOL     OW18919   6.500   3.171   5.841
 6007SOL    HW118920   6.486   3.249   5.902
 6007SOL    HW218921   6.430   3.172   5.770
 6008SOL     OW18922   2.873   5.008   6.040
 6008SOL    HW118923   2.928   4.988   5.959
 6008SOL    HW218924   2.927   4.989   6.122
 6009SOL     OW18925   3.896   0.374   4.005
 6009SOL    HW118926   3.836   0.424   3.943
 6009SOL    HW218927   3.854   0.287   4.030
 6010SOL     OW18928   0.571   4.552   3.805
 6010SOL    HW118929   0.627   4.623   3.849
 6010SOL    HW218930   0.592   4.549   3.707
 6011SOL     OW18931   6.091   3.236   3.293
 6011SOL    HW118932   6.015   3.276   3.241
 6011SOL    HW218933   6.060   3.152   3.338
 6012SOL     OW18934   5.820   0.818   0.674
 6012SOL    HW118935   5.779   0.826   0.583
 6012SOL    HW218936   5.794   0.897   0.729
 6013SOL     OW18937   4.702   0.943   2.789
 6013SOL    HW118938   4.651   1.015   2.742
 6013SOL    HW218939   4.795   0.975   2.807
 6014SOL     OW18940   3.958   3.943   3.546
 6014SOL    HW118941   3.905   3.874   3.596
 6014SOL    HW218942   3.990   4.013   3.610
 6015SOL     OW18943   5.893   4.157   4.673
 6015SOL    HW118944   5.866   4.065   4.702
 6015SOL    HW218945   5.834   4.224   4.717
 6016SOL     OW18946   6.616   1.289   6.283
 6016SOL    HW118947   6.690   1.355   6.302
 6016SOL    HW218948   6.530   1.324   6.320
 6017SOL     OW18949   6.269   5.063   4.214
 6017SOL    HW118950   6.313   5.031   4.130
 6017SOL    HW218951   6.265   5.163   4.213
 6018SOL     OW18952   3.435   1.253   5.758
 6018SOL    HW118953   3.501   1.225   5.829
 6018SOL    HW218954   3.419   1.351   5.765
 6019SOL     OW18955   0.850   3.134   4.878
 6019SOL    HW118956   0.789   3.213   4.878
 6019SOL    HW218957   0.876   3.111   4.971
 6020SOL     OW18958   0.695   4.818   0.196
 6020SOL    HW118959   0.611   4.776   0.230
 6020SOL    HW218960   0.764   4.818   0.268
 6021SOL     OW18961   4.487   0.603   3.251
 6021SOL    HW118962   4.532   0.673   3.196
 6021SOL    HW218963   4.547   0.524   3.261
 6022SOL     OW18964   6.847   1.900   3.580
 6022SOL    HW118965   6.774   1.833   3.583
 6022SOL    HW218966   6.905   1.890   3.661
 6023SOL     OW18967   5.080   1.132   1.714
 6023SOL    HW118968   4.999   1.122   1.772
 6023SOL    HW218969   5.103   1.043   1.674
 6024SOL     OW18970   1.106   4.761   1.471
 6024SOL    HW118971   1.116   4.715   1.383
 6024SOL    HW218972   1.047   4.707   1.531
 6025SOL     OW18973   2.905   2.095   3.594
 6025SOL    HW118974   2.927   2.001   3.571
 6025SOL    HW218975   2.892   2.103   3.693
 6026SOL     OW18976   0.287   5.759   5.191
 6026SOL    HW118977   0.298   5.725   5.098
 6026SOL    HW218978   0.344   5.841   5.203
 6027SOL     OW18979   0.025   3.438   6.001
 6027SOL    HW118980   0.064   3.403   5.915
 6027SOL    HW218981   7.021   3.534   5.988
 6028SOL     OW18982   5.689   4.403   1.344
 6028SOL    HW118983   5.770   4.362   1.302
 6028SOL    HW218984   5.608   4.349   1.320
 6029SOL     OW18985   2.983   6.558   3.760
 6029SOL    HW118986   2.889   6.589   3.768
 6029SOL    HW218987   3.045   6.636   3.763
 6030SOL     OW18988   4.533   4.946   3.661
 6030SOL    HW118989   4.486   5.033   3.651
 6030SOL    HW218990   4.507   4.903   3.748
 6031SOL     OW18991   3.085   5.637   3.841
 6031SOL    HW118992   3.140   5.555   3.859
 6031SOL    HW218993   3.111   5.676   3.753
 6032SOL     OW18994   2.401   4.970   2.531
 6032SOL    HW118995   2.484   5.023   2.513
 6032SOL    HW218996   2.417   4.875   2.506
 6033SOL     OW18997   2.169   3.078   2.960
 6033SOL    HW118998   2.245   3.024   2.925
 6033SOL    HW218999   2.104   3.095   2.886
 6034SOL     OW19000   1.224   0.877   5.359
 6034SOL    HW119001   1.279   0.935   5.420
 6034SOL    HW219002   1.130   0.911   5.357
 6035SOL     OW19003   1.432   1.292   1.768
 6035SOL    HW119004   1.419   1.222   1.839
 6035SOL    HW219005   1.393   1.379   1.799
 6036SOL     OW19006   5.061   5.217   2.211
 6036SOL    HW119007   5.063   5.228   2.311
 6036SOL    HW219008   4.987   5.273   2.174
 6037SOL     OW19009   4.006   0.357   0.547
 6037SOL    HW119010   3.920   0.312   0.523
 6037SOL    HW219011   3.992   0.418   0.624
 6038SOL     OW19012   1.667   2.704   6.246
 6038SOL    HW119013   1.642   2.665   6.158
 6038SOL    HW219014   1.591   2.759   6.281
 6039SOL     OW19015   3.789   3.287   2.873
 6039SOL    HW119016   3.840   3.365   2.836
 6039SOL    HW219017   3.790   3.212   2.806
 6040SOL     OW19018   1.450   1.453   1.259
 6040SOL    HW119019   1.428   1.357   1.242
 6040SOL    HW219020   1.545   1.460   1.289
 6041SOL     OW19021   3.047   1.813   5.107
 6041SOL    HW119022   3.136   1.786   5.069
 6041SOL    HW219023   3.009   1.888   5.053
 6042SOL     OW19024   4.239   6.874   2.911
 6042SOL    HW119025   4.260   6.949   2.848
 6042SOL    HW219026   4.223   6.911   3.003
 6043SOL     OW19027   0.630   6.758   5.021
 6043SOL    HW119028   0.680   6.845   5.017
 6043SOL    HW219029   0.536   6.775   5.049
 6044SOL     OW19030   2.079   2.495   1.353
 6044SOL    HW119031   2.177   2.500   1.331
 6044SOL    HW219032   2.026   2.489   1.269
 6045SOL     OW19033   5.390   3.801   3.321
 6045SOL    HW119034   5.479   3.842   3.300
 6045SOL    HW219035   5.404   3.713   3.367
 6046SOL     OW19036   3.408   2.386   1.448
 6046SOL    HW119037   3.439   2.309   1.391
 6046SOL    HW219038   3.438   2.371   1.542
 6047SOL     OW19039   5.178   1.927   1.586
 6047SOL    HW119040   5.141   1.978   1.663
 6047SOL    HW219041   5.228   1.847   1.620
 6048SOL     OW19042   4.652   5.250   5.304
 6048SOL    HW119043   4.627   5.327   5.245
 6048SOL    HW219044   4.707   5.283   5.381
 6049SOL     OW19045   4.449   4.062   6.872
 6049SOL    HW119046   4.536   4.019   6.850
 6049SOL    HW219047   4.386   4.054   6.795
 6050SOL     OW19048   2.408   5.327   6.651
 6050SOL    HW119049   2.394   5.237   6.691
 6050SOL    HW219050   2.462   5.319   6.568
 6051SOL     OW19051   2.089   0.238   2.832
 6051SOL    HW119052   2.091   0.272   2.926
 6051SOL    HW219053   2.007   0.273   2.786
 6052SOL     OW19054   4.846   1.384   1.148
 6052SOL    HW119055   4.870   1.476   1.117
 6052SOL    HW219056   4.749   1.381   1.171
 6053SOL     OW19057   4.388   1.035   5.911
 6053SOL    HW119058   4.385   0.992   5.820
 6053SOL    HW219059   4.483   1.054   5.936
 6054SOL     OW19060   2.456   3.713   0.019
 6054SOL    HW119061   2.497   3.759   6.963
 6054SOL    HW219062   2.358   3.733   0.022
 6055SOL     OW19063   5.344   6.127   5.336
 6055SOL    HW119064   5.284   6.078   5.400
 6055SOL    HW219065   5.317   6.223   5.332
 6056SOL     OW19066   4.706   3.331   5.322
 6056SOL    HW119067   4.741   3.354   5.413
 6056SOL    HW219068   4.689   3.415   5.271
 6057SOL     OW19069   0.156   1.142   2.263
 6057SOL    HW119070   0.094   1.120   2.189
 6057SOL    HW219071   0.244   1.098   2.247
 6058SOL     OW19072   5.086   3.562   0.806
 6058SOL    HW119073   5.179   3.533   0.828
 6058SOL    HW219074   5.048   3.614   0.882
 6059SOL     OW19075   4.649   5.238   6.194
 6059SOL    HW119076   4.586   5.179   6.143
 6059SOL    HW219077   4.605   5.265   6.280
 6060SOL     OW19078   2.581   3.228   6.218
 6060SOL    HW119079   2.548   3.320   6.241
 6060SOL    HW219080   2.548   3.203   6.127
 6061SOL     OW19081   5.167   3.607   0.270
 6061SOL    HW119082   5.184   3.660   0.352
 6061SOL    HW219083   5.079   3.635   0.230
 6062SOL     OW19084   2.612   1.396   5.820
 6062SOL    HW119085   2.566   1.467   5.768
 6062SOL    HW219086   2.639   1.432   5.909
 6063SOL     OW19087   4.811   2.567   6.146
 6063SOL    HW119088   4.873   2.491   6.126
 6063SOL    HW219089   4.809   2.585   6.244
 6064SOL     OW19090   1.722   0.578   1.052
 6064SOL    HW119091   1.699   0.617   1.141
 6064SOL    HW219092   1.804   0.521   1.061
 6065SOL     OW19093   0.856   5.912   2.635
 6065SOL    HW119094   0.857   5.841   2.564
 6065SOL    HW219095   0.949   5.926   2.669
 6066SOL     OW19096   5.442   1.377   5.405
 6066SOL    HW119097   5.378   1.391   5.481
 6066SOL    HW219098   5.444   1.459   5.348
 6067SOL     OW19099   4.952   0.663   5.595
 6067SOL    HW119100   4.863   0.684   5.636
 6067SOL    HW219101   4.974   0.732   5.526
 6068SOL     OW19102   4.643   2.652   4.534
 6068SOL    HW119103   4.636   2.749   4.514
 6068SOL    HW219104   4.610   2.634   4.626
 6069SOL     OW19105   5.762   3.322   5.091
 6069SOL    HW119106   5.753   3.259   5.014
 6069SOL    HW219107   5.687   3.308   5.156
 6070SOL     OW19108   2.833   2.631   1.365
 6070SOL    HW119109   2.742   2.619   1.403
 6070SOL    HW219110   2.898   2.653   1.437
 6071SOL     OW19111   6.755   5.908   4.853
 6071SOL    HW119112   6.764   5.890   4.951
 6071SOL    HW219113   6.763   5.822   4.802
 6072SOL     OW19114   0.517   0.199   1.746
 6072SOL    HW119115   0.423   0.173   1.768
 6072SOL    HW219116   0.556   0.250   1.823
 6073SOL     OW19117   5.265   2.845   0.708
 6073SOL    HW119118   5.262   2.921   0.644
 6073SOL    HW219119   5.273   2.880   0.802
 6074SOL     OW19120   1.063   5.494   2.574
 6074SOL    HW119121   1.029   5.455   2.488
 6074SOL    HW219122   1.139   5.438   2.608
 6075SOL     OW19123   4.593   6.702   5.939
 6075SOL    HW119124   4.592   6.609   5.976
 6075SOL    HW219125   4.683   6.720   5.898
 6076SOL     OW19126   3.297   4.931   3.498
 6076SOL    HW119127   3.274   4.893   3.409
 6076SOL    HW219128   3.298   5.031   3.493
 6077SOL     OW19129   6.247   5.491   1.324
 6077SOL    HW119130   6.239   5.502   1.225
 6077SOL    HW219131   6.275   5.397   1.345
 6078SOL     OW19132   5.257   5.043   0.056
 6078SOL    HW119133   5.349   5.023   0.091
 6078SOL    HW219134   5.255   5.135   0.017
 6079SOL     OW19135   4.973   3.490   5.448
 6079SOL    HW119136   5.039   3.450   5.385
 6079SOL    HW219137   4.928   3.568   5.405
 6080SOL     OW19138   0.113   5.657   1.004
 6080SOL    HW119139   0.078   5.731   1.061
 6080SOL    HW219140   0.207   5.636   1.031
 6081SOL     OW19141   6.938   2.700   5.710
 6081SOL    HW119142   7.002   2.776   5.720
 6081SOL    HW219143   6.866   2.707   5.780
 6082SOL     OW19144   2.964   0.088   2.974
 6082SOL    HW119145   3.057   0.080   3.008
 6082SOL    HW219146   2.965   0.100   2.875
 6083SOL     OW19147   6.269   6.150   0.494
 6083SOL    HW119148   6.171   6.162   0.509
 6083SOL    HW219149   6.316   6.143   0.582
 6084SOL     OW19150   1.135   0.102   2.586
 6084SOL    HW119151   1.113   0.007   2.604
 6084SOL    HW219152   1.159   0.148   2.672
 6085SOL     OW19153   0.436   0.076   0.177
 6085SOL    HW119154   0.411   0.069   0.080
 6085SOL    HW219155   0.357   0.105   0.230
 6086SOL     OW19156   2.733   1.801   5.682
 6086SOL    HW119157   2.785   1.739   5.741
 6086SOL    HW219158   2.767   1.895   5.694
 6087SOL     OW19159   3.492   6.198   1.517
 6087SOL    HW119160   3.477   6.276   1.577
 6087SOL    HW219161   3.587   6.197   1.486
 6088SOL     OW19162   5.588   6.586   4.380
 6088SOL    HW119163   5.507   6.619   4.332
 6088SOL    HW219164   5.657   6.659   4.384
 6089SOL     OW19165   5.472   2.430   2.712
 6089SOL    HW119166   5.432   2.520   2.697
 6089SOL    HW219167   5.529   2.406   2.633
 6090SOL     OW19168   2.436   5.324   4.594
 6090SOL    HW119169   2.531   5.331   4.623
 6090SOL    HW219170   2.386   5.266   4.659
 6091SOL     OW19171   2.595   1.307   6.721
 6091SOL    HW119172   2.613   1.394   6.676
 6091SOL    HW219173   2.638   1.233   6.670
 6092SOL     OW19174   4.274   0.872   3.033
 6092SOL    HW119175   4.283   0.775   3.015
 6092SOL    HW219176   4.226   0.916   2.957
 6093SOL     OW19177   2.361   2.653   2.263
 6093SOL    HW119178   2.304   2.591   2.317
 6093SOL    HW219179   2.452   2.614   2.252
 6094SOL     OW19180   1.115   6.020   2.751
 6094SOL    HW119181   1.148   5.946   2.692
 6094SOL    HW219182   1.192   6.081   2.773
 6095SOL     OW19183   4.857   4.786   0.305
 6095SOL    HW119184   4.945   4.831   0.286
 6095SOL    HW219185   4.787   4.824   0.244
 6096SOL     OW19186   6.109   0.318   3.150
 6096SOL    HW119187   6.075   0.340   3.241
 6096SOL    HW219188   6.158   0.230   3.153
 6097SOL     OW19189   1.674   5.515   2.501
 6097SOL    HW119190   1.715   5.429   2.532
 6097SOL    HW219191   1.578   5.501   2.478
 6098SOL     OW19192   0.204   1.349   5.354
 6098SOL    HW119193   0.304   1.347   5.348
 6098SOL    HW219194   0.166   1.277   5.295
 6099SOL     OW19195   5.333   5.841   6.135
 6099SOL    HW119196   5.262   5.801   6.078
 6099SOL    HW219197   5.369   5.923   6.090
 6100SOL     OW19198   5.339   6.339   1.714
 6100SOL    HW119199   5.280   6.268   1.751
 6100SOL    HW219200   5.375   6.395   1.788
 6101SOL     OW19201   0.164   2.793   3.122
 6101SOL    HW119202   0.252   2.809   3.079
 6101SOL    HW219203   0.167   2.825   3.217
 6102SOL     OW19204   3.376   5.771   3.079
 6102SOL    HW119205   3.409   5.727   3.162
 6102SOL    HW219206   3.331   5.857   3.103
 6103SOL     OW19207   5.548   1.667   1.907
 6103SOL    HW119208   5.643   1.661   1.939
 6103SOL    HW219209   5.489   1.613   1.967
 6104SOL     OW19210   5.337   6.786   5.446
 6104SOL    HW119211   5.393   6.759   5.524
 6104SOL    HW219212   5.380   6.757   5.361
 6105SOL     OW19213   2.685   5.643   6.466
 6105SOL    HW119214   2.653   5.601   6.381
 6105SOL    HW219215   2.714   5.571   6.529
 6106SOL     OW19216   1.617   4.795   5.879
 6106SOL    HW119217   1.660   4.845   5.803
 6106SOL    HW219218   1.655   4.703   5.884
 6107SOL     OW19219   4.697   5.999   5.023
 6107SOL    HW119220   4.717   6.010   5.121
 6107SOL    HW219221   4.601   6.020   5.006
 6108SOL     OW19222   2.401   2.738   2.704
 6108SOL    HW119223   2.426   2.651   2.662
 6108SOL    HW219224   2.381   2.805   2.632
 6109SOL     OW19225   5.403   1.468   4.967
 6109SOL    HW119226   5.434   1.376   4.993
 6109SOL    HW219227   5.330   1.497   5.028
 6110SOL     OW19228   2.799   3.739   0.915
 6110SOL    HW119229   2.705   3.708   0.903
 6110SOL    HW219230   2.802   3.807   0.989
 6111SOL     OW19231   1.345   3.185   2.342
 6111SOL    HW119232   1.349   3.281   2.315
 6111SOL    HW219233   1.425   3.137   2.305
 6112SOL     OW19234   3.514   0.297   2.631
 6112SOL    HW119235   3.564   0.375   2.593
 6112SOL    HW219236   3.557   0.212   2.603
 6113SOL     OW19237   2.753   1.975   6.095
 6113SOL    HW119238   2.832   1.927   6.055
 6113SOL    HW219239   2.670   1.946   6.048
 6114SOL     OW19240   5.368   4.654   2.472
 6114SOL    HW119241   5.323   4.595   2.406
 6114SOL    HW219242   5.303   4.724   2.503
 6115SOL     OW19243   6.316   0.335   4.422
 6115SOL    HW119244   6.359   0.366   4.507
 6115SOL    HW219245   6.235   0.280   4.444
 6116SOL     OW19246   3.718   1.918   6.072
 6116SOL    HW119247   3.773   1.993   6.035
 6116SOL    HW219248   3.638   1.956   6.119
 6117SOL     OW19249   1.760   1.233   3.671
 6117SOL    HW119250   1.773   1.135   3.657
 6117SOL    HW219251   1.662   1.253   3.677
 6118SOL     OW19252   5.835   0.818   1.105
 6118SOL    HW119253   5.908   0.874   1.068
 6118SOL    HW219254   5.874   0.741   1.155
 6119SOL     OW19255   0.625   3.551   0.077
 6119SOL    HW119256   0.557   3.598   0.133
 6119SOL    HW219257   0.716   3.588   0.096
 6120SOL     OW19258   2.665   6.161   5.745
 6120SOL    HW119259   2.686   6.102   5.667
 6120SOL    HW219260   2.735   6.232   5.753
 6121SOL     OW19261   0.884   3.490   5.067
 6121SOL    HW119262   0.806   3.434   5.090
 6121SOL    HW219263   0.859   3.587   5.074
 6122SOL     OW19264   3.939   5.009   0.484
 6122SOL    HW119265   3.990   5.090   0.513
 6122SOL    HW219266   3.902   4.963   0.565
 6123SOL     OW19267   5.019   6.795   6.514
 6123SOL    HW119268   5.021   6.729   6.589
 6123SOL    HW219269   4.934   6.785   6.463
 6124SOL     OW19270   1.326   6.577   5.786
 6124SOL    HW119271   1.237   6.621   5.775
 6124SOL    HW219272   1.314   6.478   5.780
 6125SOL     OW19273   1.828   3.773   0.395
 6125SOL    HW119274   1.765   3.757   0.319
 6125SOL    HW219275   1.835   3.872   0.412
 6126SOL     OW19276   6.997   0.919   4.105
 6126SOL    HW119277   0.006   0.825   4.091
 6126SOL    HW219278   6.912   0.933   4.056
 6127SOL     OW19279   3.127   6.928   0.651
 6127SOL    HW119280   3.046   6.875   0.625
 6127SOL    HW219281   3.120   6.954   0.748
 6128SOL     OW19282   6.375   5.289   0.473
 6128SOL    HW119283   6.446   5.248   0.415
 6128SOL    HW219284   6.310   5.339   0.416
 6129SOL     OW19285   0.273   2.985   2.459
 6129SOL    HW119286   0.353   2.967   2.401
 6129SOL    HW219287   0.291   2.952   2.552
 6130SOL     OW19288   5.061   2.572   2.359
 6130SOL    HW119289   5.007   2.490   2.376
 6130SOL    HW219290   5.001   2.652   2.358
 6131SOL     OW19291   0.488   1.571   3.584
 6131SOL    HW119292   0.526   1.479   3.590
 6131SOL    HW219293   0.562   1.637   3.574
 6132SOL     OW19294   4.213   2.138   6.958
 6132SOL    HW119295   4.171   2.192   6.885
 6132SOL    HW219296   4.154   2.139   0.017
 6133SOL     OW19297   2.142   3.432   3.311
 6133SOL    HW119298   2.081   3.369   3.359
 6133SOL    HW219299   2.204   3.476   3.376
 6134SOL     OW19300   4.163   5.894   6.750
 6134SOL    HW119301   4.085   5.923   6.806
 6134SOL    HW219302   4.246   5.894   6.806
 6135SOL     OW19303   0.419   6.168   0.811
 6135SOL    HW119304   0.431   6.069   0.819
 6135SOL    HW219305   0.503   6.214   0.840
 6136SOL     OW19306   1.694   2.711   1.844
 6136SOL    HW119307   1.740   2.712   1.755
 6136SOL    HW219308   1.757   2.746   1.914
 6137SOL     OW19309   6.959   3.892   2.087
 6137SOL    HW119310   6.995   3.981   2.113
 6137SOL    HW219311   6.933   3.893   1.990
 6138SOL     OW19312   3.996   0.065   2.749
 6138SOL    HW119313   3.945   7.002   2.751
 6138SOL    HW219314   4.018   0.092   2.843
 6139SOL     OW19315   1.170   6.961   5.861
 6139SOL    HW119316   1.211   6.961   5.770
 6139SOL    HW219317   1.085   7.015   5.860
 6140SOL     OW19318   1.350   0.539   2.161
 6140SOL    HW119319   1.360   0.564   2.064
 6140SOL    HW219320   1.357   0.440   2.171
 6141SOL     OW19321   0.728   6.952   5.910
 6141SOL    HW119322   0.645   7.009   5.913
 6141SOL    HW219323   0.704   6.860   5.877
 6142SOL     OW19324   0.176   6.255   6.051
 6142SOL    HW119325   0.256   6.267   6.111
 6142SOL    HW219326   0.202   6.202   5.971
 6143SOL     OW19327   6.720   3.280   1.371
 6143SOL    HW119328   6.778   3.273   1.452
 6143SOL    HW219329   6.673   3.193   1.356
 6144SOL     OW19330   5.275   4.921   4.472
 6144SOL    HW119331   5.356   4.867   4.451
 6144SOL    HW219332   5.243   4.966   4.389
 6145SOL     OW19333   5.276   5.103   4.199
 6145SOL    HW119334   5.179   5.107   4.175
 6145SOL    HW219335   5.328   5.164   4.139
 6146SOL     OW19336   3.717   5.458   3.758
 6146SOL    HW119337   3.691   5.361   3.757
 6146SOL    HW219338   3.635   5.515   3.759
 6147SOL     OW19339   2.351   2.264   5.268
 6147SOL    HW119340   2.413   2.342   5.259
 6147SOL    HW219341   2.262   2.296   5.301
 6148SOL     OW19342   3.929   6.753   4.873
 6148SOL    HW119343   3.840   6.776   4.912
 6148SOL    HW219344   3.924   6.663   4.828
 6149SOL     OW19345   2.220   6.742   1.444
 6149SOL    HW119346   2.140   6.691   1.410
 6149SOL    HW219347   2.281   6.679   1.491
 6150SOL     OW19348   6.037   4.447   0.470
 6150SOL    HW119349   6.088   4.532   0.484
 6150SOL    HW219350   6.072   4.377   0.531
 6151SOL     OW19351   6.036   4.881   6.383
 6151SOL    HW119352   6.106   4.835   6.438
 6151SOL    HW219353   5.950   4.883   6.435
 6152SOL     OW19354   0.444   5.744   4.453
 6152SOL    HW119355   0.537   5.732   4.418
 6152SOL    HW219356   0.381   5.758   4.376
 6153SOL     OW19357   5.478   4.276   1.262
 6153SOL    HW119358   5.456   4.286   1.165
 6153SOL    HW219359   5.407   4.221   1.307
 6154SOL     OW19360   6.377   2.604   2.574
 6154SOL    HW119361   6.319   2.522   2.581
 6154SOL    HW219362   6.335   2.679   2.624
 6155SOL     OW19363   1.684   1.265   3.292
 6155SOL    HW119364   1.761   1.274   3.355
 6155SOL    HW219365   1.695   1.330   3.216
 6156SOL     OW19366   4.872   4.571   2.196
 6156SOL    HW119367   4.864   4.663   2.157
 6156SOL    HW219368   4.880   4.579   2.296
 6157SOL     OW19369   6.602   2.047   3.622
 6157SOL    HW119370   6.600   2.143   3.651
 6157SOL    HW219371   6.693   2.023   3.589
 6158SOL     OW19372   4.027   2.279   6.798
 6158SOL    HW119373   4.023   2.379   6.788
 6158SOL    HW219374   3.964   2.251   6.872
 6159SOL     OW19375   4.416   1.774   1.076
 6159SOL    HW119376   4.399   1.863   1.034
 6159SOL    HW219377   4.514   1.755   1.078
 6160SOL     OW19378   5.614   0.383   6.910
 6160SOL    HW119379   5.539   0.323   6.885
 6160SOL    HW219380   5.695   0.328   6.933
 6161SOL     OW19381   5.807   2.272   6.361
 6161SOL    HW119382   5.763   2.182   6.364
 6161SOL    HW219383   5.745   2.340   6.401
 6162SOL     OW19384   6.234   6.548   3.833
 6162SOL    HW119385   6.145   6.502   3.829
 6162SOL    HW219386   6.278   6.543   3.743
 6163SOL     OW19387   5.863   6.654   1.545
 6163SOL    HW119388   5.900   6.566   1.575
 6163SOL    HW219389   5.934   6.725   1.553
 6164SOL     OW19390   3.647   3.807   3.707
 6164SOL    HW119391   3.599   3.893   3.689
 6164SOL    HW219392   3.667   3.800   3.804
 6165SOL     OW19393   3.990   1.177   6.319
 6165SOL    HW119394   3.993   1.241   6.396
 6165SOL    HW219395   4.021   1.087   6.349
 6166SOL     OW19396   5.671   1.539   6.799
 6166SOL    HW119397   5.677   1.610   6.870
 6166SOL    HW219398   5.761   1.526   6.758
 6167SOL     OW19399   0.807   5.114   2.994
 6167SOL    HW119400   0.804   5.015   2.987
 6167SOL    HW219401   0.815   5.155   2.903
 6168SOL     OW19402   1.808   3.367   3.110
 6168SOL    HW119403   1.759   3.281   3.122
 6168SOL    HW219404   1.898   3.349   3.071
 6169SOL     OW19405   1.194   1.557   0.333
 6169SOL    HW119406   1.116   1.503   0.303
 6169SOL    HW219407   1.164   1.650   0.357
 6170SOL     OW19408   2.901   3.927   5.624
 6170SOL    HW119409   2.911   3.957   5.530
 6170SOL    HW219410   2.804   3.911   5.644
 6171SOL     OW19411   1.847   3.845   0.826
 6171SOL    HW119412   1.797   3.863   0.911
 6171SOL    HW219413   1.940   3.815   0.848
 6172SOL     OW19414   1.512   1.610   3.959
 6172SOL    HW119415   1.442   1.569   4.017
 6172SOL    HW219416   1.573   1.538   3.925
 6173SOL     OW19417   6.349   5.231   2.320
 6173SOL    HW119418   6.386   5.139   2.337
 6173SOL    HW219419   6.407   5.299   2.364
 6174SOL     OW19420   5.500   5.617   3.467
 6174SOL    HW119421   5.403   5.597   3.481
 6174SOL    HW219422   5.510   5.689   3.399
 6175SOL     OW19423   4.630   0.799   3.681
 6175SOL    HW119424   4.581   0.803   3.594
 6175SOL    HW219425   4.602   0.876   3.739
 6176SOL     OW19426   5.867   3.194   6.833
 6176SOL    HW119427   5.933   3.203   6.908
 6176SOL    HW219428   5.789   3.140   6.863
 6177SOL     OW19429   4.977   1.111   1.161
 6177SOL    HW119430   4.927   1.197   1.173
 6177SOL    HW219431   5.003   1.075   1.250
 6178SOL     OW19432   4.931   4.678   3.209
 6178SOL    HW119433   4.910   4.601   3.270
 6178SOL    HW219434   4.882   4.759   3.241
 6179SOL     OW19435   6.420   5.025   4.563
 6179SOL    HW119436   6.381   5.112   4.535
 6179SOL    HW219437   6.352   4.953   4.554
 6180SOL     OW19438   3.818   5.433   0.363
 6180SOL    HW119439   3.846   5.514   0.416
 6180SOL    HW219440   3.721   5.417   0.376
 6181SOL     OW19441   3.968   6.590   0.739
 6181SOL    HW119442   4.039   6.524   0.759
 6181SOL    HW219443   3.913   6.606   0.822
 6182SOL     OW19444   5.512   3.438   6.025
 6182SOL    HW119445   5.501   3.447   5.926
 6182SOL    HW219446   5.608   3.424   6.047
 6183SOL     OW19447   2.058   0.589   3.172
 6183SOL    HW119448   2.128   0.595   3.244
 6183SOL    HW219449   2.081   0.514   3.110
 6184SOL     OW19450   1.619   6.703   5.927
 6184SOL    HW119451   1.650   6.798   5.926
 6184SOL    HW219452   1.526   6.698   5.891
 6185SOL     OW19453   6.851   3.690   6.599
 6185SOL    HW119454   6.940   3.650   6.620
 6185SOL    HW219455   6.778   3.634   6.638
 6186SOL     OW19456   6.303   6.664   5.841
 6186SOL    HW119457   6.259   6.644   5.929
 6186SOL    HW219458   6.317   6.763   5.833
 6187SOL     OW19459   4.396   4.880   3.206
 6187SOL    HW119460   4.481   4.914   3.166
 6187SOL    HW219461   4.329   4.861   3.134
 6188SOL     OW19462   2.514   6.943   0.922
 6188SOL    HW119463   2.501   6.889   0.839
 6188SOL    HW219464   2.426   6.978   0.955
 6189SOL     OW19465   4.833   4.135   4.208
 6189SOL    HW119466   4.830   4.199   4.285
 6189SOL    HW219467   4.898   4.062   4.228
 6190SOL     OW19468   6.966   3.728   5.898
 6190SOL    HW119469   6.996   3.803   5.839
 6190SOL    HW219470   6.896   3.761   5.961
 6191SOL     OW19471   4.006   2.547   6.761
 6191SOL    HW119472   4.051   2.591   6.839
 6191SOL    HW219473   4.030   2.595   6.677
 6192SOL     OW19474   3.281   3.080   6.617
 6192SOL    HW119475   3.256   2.984   6.605
 6192SOL    HW219476   3.328   3.112   6.535
 6193SOL     OW19477   5.360   1.209   2.416
 6193SOL    HW119478   5.416   1.290   2.396
 6193SOL    HW219479   5.416   1.127   2.403
 6194SOL     OW19480   1.446   6.813   0.774
 6194SOL    HW119481   1.479   6.762   0.853
 6194SOL    HW219482   1.346   6.809   0.772
 6195SOL     OW19483   4.211   6.522   5.869
 6195SOL    HW119484   4.283   6.453   5.876
 6195SOL    HW219485   4.213   6.563   5.778
 6196SOL     OW19486   5.899   2.324   1.645
 6196SOL    HW119487   5.877   2.255   1.714
 6196SOL    HW219488   5.878   2.289   1.554
 6197SOL     OW19489   4.751   4.609   0.954
 6197SOL    HW119490   4.673   4.584   1.010
 6197SOL    HW219491   4.740   4.571   0.862
 6198SOL     OW19492   3.529   6.014   2.099
 6198SOL    HW119493   3.490   6.038   2.010
 6198SOL    HW219494   3.576   5.926   2.092
 6199SOL     OW19495   1.095   0.554   0.673
 6199SOL    HW119496   1.181   0.507   0.654
 6199SOL    HW219497   1.081   0.560   0.772
 6200SOL     OW19498   1.701   1.504   5.153
 6200SOL    HW119499   1.741   1.413   5.157
 6200SOL    HW219500   1.607   1.501   5.188
 6201SOL     OW19501   1.024   3.745   5.015
 6201SOL    HW119502   1.053   3.680   4.944
 6201SOL    HW219503   1.089   3.742   5.091
 6202SOL     OW19504   4.070   1.610   2.222
 6202SOL    HW119505   4.123   1.534   2.185
 6202SOL    HW219506   4.011   1.647   2.150
 6203SOL     OW19507   6.376   6.815   3.472
 6203SOL    HW119508   6.468   6.853   3.482
 6203SOL    HW219509   6.309   6.888   3.484
 6204SOL     OW19510   1.391   5.600   4.402
 6204SOL    HW119511   1.381   5.660   4.323
 6204SOL    HW219512   1.301   5.581   4.441
 6205SOL     OW19513   6.516   6.040   0.149
 6205SOL    HW119514   6.530   5.944   0.173
 6205SOL    HW219515   6.532   6.053   0.051
 6206SOL     OW19516   6.963   1.025   2.469
 6206SOL    HW119517   6.986   1.075   2.385
 6206SOL    HW219518   7.003   1.073   2.547
 6207SOL     OW19519   1.726   5.358   4.889
 6207SOL    HW119520   1.648   5.335   4.947
 6207SOL    HW219521   1.762   5.447   4.915
 6208SOL     OW19522   5.912   1.930   6.515
 6208SOL    HW119523   5.875   1.964   6.428
 6208SOL    HW219524   5.959   2.005   6.562
 6209SOL     OW19525   4.901   5.413   0.331
 6209SOL    HW119526   4.974   5.427   0.264
 6209SOL    HW219527   4.902   5.318   0.362
 6210SOL     OW19528   5.140   3.851   3.583
 6210SOL    HW119529   5.210   3.802   3.635
 6210SOL    HW219530   5.175   3.873   3.492
 6211SOL     OW19531   3.171   6.322   5.628
 6211SOL    HW119532   3.234   6.275   5.689
 6211SOL    HW219533   3.106   6.256   5.591
 6212SOL     OW19534   1.989   4.904   3.495
 6212SOL    HW119535   2.084   4.892   3.525
 6212SOL    HW219536   1.966   5.001   3.496
 6213SOL     OW19537   5.700   0.074   0.135
 6213SOL    HW119538   5.723   0.167   0.107
 6213SOL    HW219539   5.662   0.025   0.057
 6214SOL     OW19540   4.557   4.986   4.943
 6214SOL    HW119541   4.501   5.050   4.890
 6214SOL    HW219542   4.512   4.896   4.946
 6215SOL     OW19543   4.404   1.075   1.419
 6215SOL    HW119544   4.306   1.061   1.410
 6215SOL    HW219545   4.424   1.173   1.425
 6216SOL     OW19546   5.982   1.479   2.178
 6216SOL    HW119547   6.070   1.486   2.132
 6216SOL    HW219548   5.997   1.468   2.277
 6217SOL     OW19549   0.795   3.327   1.799
 6217SOL    HW119550   0.869   3.262   1.814
 6217SOL    HW219551   0.726   3.317   1.870
 6218SOL     OW19552   4.378   5.638   5.968
 6218SOL    HW119553   4.431   5.554   5.956
 6218SOL    HW219554   4.374   5.662   6.065
 6219SOL     OW19555   0.436   2.645   4.385
 6219SOL    HW119556   0.484   2.632   4.471
 6219SOL    HW219557   0.497   2.620   4.309
 6220SOL     OW19558   1.379   2.533   5.269
 6220SOL    HW119559   1.427   2.537   5.357
 6220SOL    HW219560   1.381   2.439   5.235
 6221SOL     OW19561   5.940   5.551   0.047
 6221SOL    HW119562   5.901   5.588   6.985
 6221SOL    HW219563   5.993   5.622   0.094
 6222SOL     OW19564   0.611   6.526   1.105
 6222SOL    HW119565   0.558   6.529   1.020
 6222SOL    HW219566   0.697   6.478   1.089
 6223SOL     OW19567   0.394   5.306   4.278
 6223SOL    HW119568   0.391   5.211   4.249
 6223SOL    HW219569   0.333   5.318   4.356
 6224SOL     OW19570   2.439   1.620   6.017
 6224SOL    HW119571   2.370   1.572   5.962
 6224SOL    HW219572   2.415   1.612   6.114
 6225SOL     OW19573   3.436   3.872   6.885
 6225SOL    HW119574   3.350   3.844   6.928
 6225SOL    HW219575   3.512   3.851   6.946
 6226SOL     OW19576   5.994   1.499   5.100
 6226SOL    HW119577   6.029   1.408   5.076
 6226SOL    HW219578   5.894   1.498   5.096
 6227SOL     OW19579   3.698   6.005   5.687
 6227SOL    HW119580   3.607   5.989   5.649
 6227SOL    HW219581   3.755   6.050   5.618
 6228SOL     OW19582   1.253   2.387   3.476
 6228SOL    HW119583   1.324   2.327   3.512
 6228SOL    HW219584   1.233   2.459   3.543
 6229SOL     OW19585   7.021   2.161   2.992
 6229SOL    HW119586   0.043   2.239   2.949
 6229SOL    HW219587   0.050   2.133   3.073
 6230SOL     OW19588   1.259   1.502   3.927
 6230SOL    HW119589   1.189   1.565   3.960
 6230SOL    HW219590   1.300   1.539   3.843
 6231SOL     OW19591   5.914   5.075   1.201
 6231SOL    HW119592   5.904   5.032   1.111
 6231SOL    HW219593   5.986   5.145   1.197
 6232SOL     OW19594   6.934   0.877   0.671
 6232SOL    HW119595   6.883   0.891   0.586
 6232SOL    HW219596   6.962   0.781   0.677
 6233SOL     OW19597   6.344   0.940   0.486
 6233SOL    HW119598   6.293   1.004   0.543
 6233SOL    HW219599   6.314   0.846   0.505
 6234SOL     OW19600   5.951   1.522   5.484
 6234SOL    HW119601   5.892   1.570   5.419
 6234SOL    HW219602   5.896   1.457   5.537
 6235SOL     OW19603   1.396   6.996   1.561
 6235SOL    HW119604   1.441   6.955   1.482
 6235SOL    HW219605   1.301   6.964   1.566
 6236SOL     OW19606   0.867   3.813   0.576
 6236SOL    HW119607   0.903   3.747   0.641
 6236SOL    HW219608   0.930   3.890   0.568
 6237SOL     OW19609   3.441   6.834   7.007
 6237SOL    HW119610   3.523   6.777   7.017
 6237SOL    HW219611   3.392   6.837   0.072
 6238SOL     OW19612   4.236   4.960   2.578
 6238SOL    HW119613   4.242   4.864   2.550
 6238SOL    HW219614   4.308   5.012   2.532
 6239SOL     OW19615   2.544   0.266   2.043
 6239SOL    HW119616   2.550   0.276   2.142
 6239SOL    HW219617   2.632   0.238   2.006
 6240SOL     OW19618   2.497   3.453   5.993
 6240SOL    HW119619   2.404   3.417   5.999
 6240SOL    HW219620   2.527   3.482   6.085
 6241SOL     OW19621   3.917   7.006   1.956
 6241SOL    HW119622   3.883   0.071   1.992
 6241SOL    HW219623   3.874   6.988   1.867
 6242SOL     OW19624   5.248   1.029   3.309
 6242SOL    HW119625   5.214   1.094   3.241
 6242SOL    HW219626   5.225   0.936   3.280
 6243SOL     OW19627   6.185   6.852   4.176
 6243SOL    HW119628   6.181   6.762   4.220
 6243SOL    HW219629   6.199   6.922   4.245
 6244SOL     OW19630   0.505   2.644   2.225
 6244SOL    HW119631   0.591   2.603   2.258
 6244SOL    HW219632   0.428   2.599   2.269
 6245SOL     OW19633   1.440   3.872   0.335
 6245SOL    HW119634   1.368   3.855   0.267
 6245SOL    HW219635   1.471   3.785   0.373
 6246SOL     OW19636   2.100   1.984   5.726
 6246SOL    HW119637   2.064   2.041   5.652
 6246SOL    HW219638   2.152   1.908   5.688
 6247SOL     OW19639   1.167   6.351   4.631
 6247SOL    HW119640   1.109   6.351   4.713
 6247SOL    HW219641   1.125   6.409   4.561
 6248SOL     OW19642   3.375   3.324   0.458
 6248SOL    HW119643   3.416   3.377   0.384
 6248SOL    HW219644   3.337   3.239   0.420
 6249SOL     OW19645   0.443   3.901   0.748
 6249SOL    HW119646   0.382   3.939   0.818
 6249SOL    HW219647   0.520   3.855   0.793
 6250SOL     OW19648   6.849   6.295   6.926
 6250SOL    HW119649   6.802   6.301   6.838
 6250SOL    HW219650   6.900   6.209   6.930
 6251SOL     OW19651   4.347   5.327   7.011
 6251SOL    HW119652   4.298   5.409   0.019
 6251SOL    HW219653   4.417   5.353   6.945
 6252SOL     OW19654   1.426   6.745   5.289
 6252SOL    HW119655   1.353   6.803   5.253
 6252SOL    HW219656   1.431   6.756   5.388
 6253SOL     OW19657   2.065   3.987   2.902
 6253SOL    HW119658   2.018   3.901   2.918
 6253SOL    HW219659   2.021   4.060   2.955
 6254SOL     OW19660   5.345   1.656   0.805
 6254SOL    HW119661   5.394   1.648   0.892
 6254SOL    HW219662   5.248   1.674   0.823
 6255SOL     OW19663   3.104   0.258   0.675
 6255SOL    HW119664   3.107   0.207   0.589
 6255SOL    HW219665   3.107   0.193   0.752
 6256SOL     OW19666   3.349   5.187   1.871
 6256SOL    HW119667   3.367   5.092   1.898
 6256SOL    HW219668   3.336   5.191   1.772
 6257SOL     OW19669   4.882   2.483   6.880
 6257SOL    HW119670   4.859   2.444   6.969
 6257SOL    HW219671   4.884   2.582   6.886
 6258SOL     OW19672   3.972   6.851   3.640
 6258SOL    HW119673   3.907   6.827   3.713
 6258SOL    HW219674   4.046   6.784   3.639
 6259SOL     OW19675   2.380   2.590   0.399
 6259SOL    HW119676   2.331   2.543   0.325
 6259SOL    HW219677   2.460   2.537   0.425
 6260SOL     OW19678   3.119   5.580   0.591
 6260SOL    HW119679   3.213   5.614   0.593
 6260SOL    HW219680   3.120   5.483   0.565
 6261SOL     OW19681   4.097   0.881   6.654
 6261SOL    HW119682   4.153   0.806   6.621
 6261SOL    HW219683   4.001   0.866   6.627
 6262SOL     OW19684   2.199   5.971   0.495
 6262SOL    HW119685   2.173   6.021   0.413
 6262SOL    HW219686   2.116   5.940   0.543
 6263SOL     OW19687   6.736   0.514   4.956
 6263SOL    HW119688   6.645   0.549   4.980
 6263SOL    HW219689   6.788   0.586   4.911
 6264SOL     OW19690   1.339   6.509   2.145
 6264SOL    HW119691   1.240   6.497   2.149
 6264SOL    HW219692   1.362   6.604   2.166
 6265SOL     OW19693   3.335   3.745   0.122
 6265SOL    HW119694   3.428   3.749   0.161
 6265SOL    HW219695   3.270   3.781   0.188
 6266SOL     OW19696   4.001   0.780   4.695
 6266SOL    HW119697   3.970   0.726   4.772
 6266SOL    HW219698   3.927   0.839   4.663
 6267SOL     OW19699   2.526   0.445   6.662
 6267SOL    HW119700   2.464   0.431   6.740
 6267SOL    HW219701   2.560   0.539   6.664
 6268SOL     OW19702   3.402   6.951   3.615
 6268SOL    HW119703   3.427   6.969   3.520
 6268SOL    HW219704   3.304   6.935   3.622
 6269SOL     OW19705   7.019   6.501   1.882
 6269SOL    HW119706   0.042   6.443   1.950
 6269SOL    HW219707   6.999   6.447   1.800
 6270SOL     OW19708   1.733   0.425   5.428
 6270SOL    HW119709   1.708   0.347   5.371
 6270SOL    HW219710   1.809   0.474   5.386
 6271SOL     OW19711   6.638   2.100   6.933
 6271SOL    HW119712   6.597   2.173   6.987
 6271SOL    HW219713   6.720   2.135   6.886
 6272SOL     OW19714   0.247   2.007   6.822
 6272SOL    HW119715   0.327   2.015   6.763
 6272SOL    HW219716   0.205   2.097   6.834
 6273SOL     OW19717   1.519   6.373   2.305
 6273SOL    HW119718   1.453   6.414   2.243
 6273SOL    HW219719   1.497   6.276   2.317
 6274SOL     OW19720   2.870   5.328   5.908
 6274SOL    HW119721   2.875   5.303   6.005
 6274SOL    HW219722   2.957   5.310   5.864
 6275SOL     OW19723   2.136   6.671   5.559
 6275SOL    HW119724   2.159   6.696   5.465
 6275SOL    HW219725   2.037   6.678   5.573
 6276SOL     OW19726   2.384   4.340   3.292
 6276SOL    HW119727   2.319   4.314   3.363
 6276SOL    HW219728   2.384   4.270   3.220
 6277SOL     OW19729   5.538   3.419   2.084
 6277SOL    HW119730   5.469   3.365   2.132
 6277SOL    HW219731   5.594   3.359   2.027
 6278SOL     OW19732   5.211   6.341   4.386
 6278SOL    HW119733   5.266   6.259   4.400
 6278SOL    HW219734   5.123   6.331   4.431
 6279SOL     OW19735   3.796   0.230   0.022
 6279SOL    HW119736   3.857   0.154   7.019
 6279SOL    HW219737   3.706   0.216   7.002
 6280SOL     OW19738   1.108   2.277   5.300
 6280SOL    HW119739   1.080   2.286   5.396
 6280SOL    HW219740   1.027   2.278   5.242
 6281SOL     OW19741   1.211   5.158   3.364
 6281SOL    HW119742   1.225   5.209   3.450
 6281SOL    HW219743   1.127   5.104   3.371
 6282SOL     OW19744   1.474   6.549   4.930
 6282SOL    HW119745   1.541   6.522   4.999
 6282SOL    HW219746   1.480   6.647   4.914
 6283SOL     OW19747   6.799   3.231   5.454
 6283SOL    HW119748   6.764   3.138   5.465
 6283SOL    HW219749   6.863   3.234   5.377
 6284SOL     OW19750   1.562   5.774   4.507
 6284SOL    HW119751   1.514   5.698   4.463
 6284SOL    HW219752   1.500   5.853   4.513
 6285SOL     OW19753   6.975   3.758   4.378
 6285SOL    HW119754   7.007   3.837   4.430
 6285SOL    HW219755   0.025   3.689   4.374
 6286SOL     OW19756   5.749   1.881   3.857
 6286SOL    HW119757   5.780   1.880   3.952
 6286SOL    HW219758   5.826   1.864   3.796
 6287SOL     OW19759   3.705   4.909   3.943
 6287SOL    HW119760   3.794   4.877   3.913
 6287SOL    HW219761   3.637   4.896   3.871
 6288SOL     OW19762   4.730   4.464   2.624
 6288SOL    HW119763   4.695   4.389   2.568
 6288SOL    HW219764   4.830   4.458   2.629
 6289SOL     OW19765   1.855   4.673   1.418
 6289SOL    HW119766   1.861   4.687   1.319
 6289SOL    HW219767   1.946   4.682   1.458
 6290SOL     OW19768   6.888   4.682   5.317
 6290SOL    HW119769   6.799   4.636   5.317
 6290SOL    HW219770   6.950   4.636   5.254
 6291SOL     OW19771   3.703   3.213   4.756
 6291SOL    HW119772   3.799   3.240   4.749
 6291SOL    HW219773   3.692   3.147   4.830
 6292SOL     OW19774   1.581   2.496   4.438
 6292SOL    HW119775   1.663   2.451   4.401
 6292SOL    HW219776   1.576   2.480   4.536
 6293SOL     OW19777   3.573   1.114   0.237
 6293SOL    HW119778   3.636   1.039   0.221
 6293SOL    HW219779   3.481   1.088   0.209
 6294SOL     OW19780   3.946   4.913   4.648
 6294SOL    HW119781   3.891   4.942   4.570
 6294SOL    HW219782   3.929   4.975   4.725
 6295SOL     OW19783   5.633   4.850   5.933
 6295SOL    HW119784   5.614   4.912   6.010
 6295SOL    HW219785   5.563   4.863   5.863
 6296SOL     OW19786   0.525   0.130   5.940
 6296SOL    HW119787   0.525   0.228   5.958
 6296SOL    HW219788   0.435   0.092   5.963
 6297SOL     OW19789   4.538   6.831   4.356
 6297SOL    HW119790   4.575   6.740   4.336
 6297SOL    HW219791   4.446   6.823   4.393
 6298SOL     OW19792   1.484   2.797   6.741
 6298SOL    HW119793   1.513   2.734   6.814
 6298SOL    HW219794   1.421   2.864   6.779
 6299SOL     OW19795   5.624   1.822   6.892
 6299SOL    HW119796   5.553   1.836   6.822
 6299SOL    HW219797   5.671   1.909   6.909
 6300SOL     OW19798   6.344   0.604   0.820
 6300SOL    HW119799   6.398   0.638   0.743
 6300SOL    HW219800   6.253   0.645   0.817
 6301SOL     OW19801   3.731   0.462   0.281
 6301SOL    HW119802   3.698   0.408   0.359
 6301SOL    HW219803   3.823   0.495   0.300
 6302SOL     OW19804   2.510   0.660   3.141
 6302SOL    HW119805   2.565   0.744   3.149
 6302SOL    HW219806   2.456   0.664   3.057
 6303SOL     OW19807   1.418   1.605   4.499
 6303SOL    HW119808   1.502   1.649   4.532
 6303SOL    HW219809   1.351   1.675   4.474
 6304SOL     OW19810   2.375   0.760   1.429
 6304SOL    HW119811   2.395   0.764   1.527
 6304SOL    HW219812   2.457   0.786   1.377
 6305SOL     OW19813   6.108   6.794   1.277
 6305SOL    HW119814   6.166   6.860   1.229
 6305SOL    HW219815   6.012   6.815   1.258
 6306SOL     OW19816   0.343   4.588   3.985
 6306SOL    HW119817   0.295   4.502   4.000
 6306SOL    HW219818   0.440   4.569   3.968
 6307SOL     OW19819   4.239   4.120   5.349
 6307SOL    HW119820   4.162   4.181   5.367
 6307SOL    HW219821   4.227   4.036   5.403
 6308SOL     OW19822   1.984   2.578   4.692
 6308SOL    HW119823   1.998   2.623   4.604
 6308SOL    HW219824   1.986   2.479   4.680
 6309SOL     OW19825   5.237   4.633   5.769
 6309SOL    HW119826   5.164   4.637   5.837
 6309SOL    HW219827   5.207   4.678   5.685
 6310SOL     OW19828   1.655   5.958   2.844
 6310SOL    HW119829   1.598   5.913   2.913
 6310SOL    HW219830   1.700   5.888   2.788
 6311SOL     OW19831   4.303   1.080   5.546
 6311SOL    HW119832   4.326   1.162   5.600
 6311SOL    HW219833   4.322   1.098   5.449
 6312SOL     OW19834   6.203   5.548   5.904
 6312SOL    HW119835   6.188   5.549   6.003
 6312SOL    HW219836   6.159   5.627   5.862
 6313SOL     OW19837   1.295   6.597   4.483
 6313SOL    HW119838   1.341   6.546   4.555
 6313SOL    HW219839   1.349   6.593   4.399
 6314SOL     OW19840   3.374   6.520   1.448
 6314SOL    HW119841   3.331   6.547   1.534
 6314SOL    HW219842   3.314   6.456   1.399
 6315SOL     OW19843   1.868   2.833   5.638
 6315SOL    HW119844   1.808   2.758   5.608
 6315SOL    HW219845   1.950   2.834   5.582
 6316SOL     OW19846   4.439   1.190   6.712
 6316SOL    HW119847   4.397   1.281   6.711
 6316SOL    HW219848   4.514   1.190   6.778
 6317SOL     OW19849   4.688   6.054   2.350
 6317SOL    HW119850   4.683   5.960   2.384
 6317SOL    HW219851   4.779   6.091   2.368
 6318SOL     OW19852   3.999   1.273   4.950
 6318SOL    HW119853   3.905   1.278   4.915
 6318SOL    HW219854   4.062   1.308   4.881
 6319SOL     OW19855   6.324   1.385   4.289
 6319SOL    HW119856   6.348   1.329   4.368
 6319SOL    HW219857   6.301   1.477   4.318
 6320SOL     OW19858   5.723   5.611   5.528
 6320SOL    HW119859   5.710   5.707   5.503
 6320SOL    HW219860   5.662   5.553   5.473
 6321SOL     OW19861   3.149   3.207   0.716
 6321SOL    HW119862   3.105   3.289   0.754
 6321SOL    HW219863   3.211   3.233   0.642
 6322SOL     OW19864   1.529   2.072   7.000
 6322SOL    HW119865   1.448   2.014   7.003
 6322SOL    HW219866   1.588   2.052   0.056
 6323SOL     OW19867   3.350   2.774   1.980
 6323SOL    HW119868   3.317   2.762   1.886
 6323SOL    HW219869   3.296   2.717   2.041
 6324SOL     OW19870   5.169   6.945   6.742
 6324SOL    HW119871   5.162   6.882   6.665
 6324SOL    HW219872   5.206   0.010   6.710
 6325SOL     OW19873   2.117   1.807   2.281
 6325SOL    HW119874   2.215   1.811   2.298
 6325SOL    HW219875   2.100   1.810   2.183
 6326SOL     OW19876   4.732   4.857   1.839
 6326SOL    HW119877   4.677   4.843   1.921
 6326SOL    HW219878   4.773   4.771   1.812
 6327SOL     OW19879   6.912   0.271   4.599
 6327SOL    HW119880   6.915   0.368   4.575
 6327SOL    HW219881   7.001   0.243   4.636
 6328SOL     OW19882   3.138   2.739   0.797
 6328SOL    HW119883   3.168   2.834   0.798
 6328SOL    HW219884   3.038   2.736   0.796
 6329SOL     OW19885   1.995   2.676   4.004
 6329SOL    HW119886   2.036   2.761   4.037
 6329SOL    HW219887   1.960   2.623   4.082
 6330SOL     OW19888   4.602   0.735   1.146
 6330SOL    HW119889   4.668   0.660   1.154
 6330SOL    HW219890   4.518   0.702   1.103
 6331SOL     OW19891   6.284   2.982   6.145
 6331SOL    HW119892   6.337   2.930   6.077
 6331SOL    HW219893   6.323   2.967   6.236
 6332SOL     OW19894   6.348   3.473   1.531
 6332SOL    HW119895   6.344   3.522   1.618
 6332SOL    HW219896   6.430   3.502   1.481
 6333SOL     OW19897   4.804   6.001   5.302
 6333SOL    HW119898   4.885   6.051   5.274
 6333SOL    HW219899   4.828   5.933   5.372
 6334SOL     OW19900   3.197   0.414   1.362
 6334SOL    HW119901   3.214   0.359   1.444
 6334SOL    HW219902   3.124   0.479   1.381
 6335SOL     OW19903   4.445   0.936   0.486
 6335SOL    HW119904   4.456   0.908   0.390
 6335SOL    HW219905   4.349   0.926   0.512
 6336SOL     OW19906   0.835   2.381   5.739
 6336SOL    HW119907   0.805   2.332   5.821
 6336SOL    HW219908   0.788   2.468   5.733
 6337SOL     OW19909   5.127   4.323   6.217
 6337SOL    HW119910   5.112   4.407   6.166
 6337SOL    HW219911   5.226   4.307   6.227
 6338SOL     OW19912   3.732   1.767   4.452
 6338SOL    HW119913   3.748   1.804   4.360
 6338SOL    HW219914   3.666   1.826   4.500
 6339SOL     OW19915   1.704   4.090   3.075
 6339SOL    HW119916   1.707   4.002   3.122
 6339SOL    HW219917   1.614   4.101   3.031
 6340SOL     OW19918   1.441   5.354   2.638
 6340SOL    HW119919   1.530   5.360   2.684
 6340SOL    HW219920   1.409   5.259   2.640
 6341SOL     OW19921   0.974   4.072   4.482
 6341SOL    HW119922   1.018   4.111   4.562
 6341SOL    HW219923   0.904   4.007   4.512
 6342SOL     OW19924   1.867   1.368   1.631
 6342SOL    HW119925   1.943   1.350   1.694
 6342SOL    HW219926   1.871   1.463   1.601
 6343SOL     OW19927   4.657   1.781   6.570
 6343SOL    HW119928   4.594   1.804   6.644
 6343SOL    HW219929   4.751   1.795   6.601
 6344SOL     OW19930   5.413   2.892   5.168
 6344SOL    HW119931   5.481   2.857   5.104
 6344SOL    HW219932   5.328   2.841   5.157
 6345SOL     OW19933   5.675   2.797   2.612
 6345SOL    HW119934   5.701   2.738   2.688
 6345SOL    HW219935   5.710   2.759   2.526
 6346SOL     OW19936   6.798   4.729   3.682
 6346SOL    HW119937   6.850   4.682   3.611
 6346SOL    HW219938   6.748   4.662   3.736
 6347SOL     OW19939   2.284   0.259   0.648
 6347SOL    HW119940   2.250   0.168   0.624
 6347SOL    HW219941   2.369   0.251   0.699
 6348SOL     OW19942   0.674   4.197   5.410
 6348SOL    HW119943   0.755   4.179   5.355
 6348SOL    HW219944   0.700   4.204   5.506
 6349SOL     OW19945   2.278   0.234   1.990
 6349SOL    HW119946   2.369   0.267   2.013
 6349SOL    HW219947   2.242   0.179   2.065
 6350SOL     OW19948   1.836   5.218   3.878
 6350SOL    HW119949   1.831   5.259   3.969
 6350SOL    HW219950   1.767   5.146   3.870
 6351SOL     OW19951   6.293   3.531   3.697
 6351SOL    HW119952   6.387   3.514   3.668
 6351SOL    HW219953   6.291   3.609   3.759
 6352SOL     OW19954   3.602   6.027   4.566
 6352SOL    HW119955   3.588   6.116   4.610
 6352SOL    HW219956   3.637   5.961   4.632
 6353SOL     OW19957   0.477   0.391   5.991
 6353SOL    HW119958   0.518   0.423   6.077
 6353SOL    HW219959   0.497   0.457   5.918
 6354SOL     OW19960   1.914   5.901   3.149
 6354SOL    HW119961   1.854   5.838   3.099
 6354SOL    HW219962   1.919   5.874   3.245
 6355SOL     OW19963   0.778   4.958   6.506
 6355SOL    HW119964   0.840   4.880   6.500
 6355SOL    HW219965   0.686   4.930   6.481
 6356SOL     OW19966   4.120   5.451   2.098
 6356SOL    HW119967   4.137   5.516   2.024
 6356SOL    HW219968   4.021   5.435   2.106
 6357SOL     OW19969   5.567   3.722   2.581
 6357SOL    HW119970   5.493   3.788   2.598
 6357SOL    HW219971   5.602   3.735   2.488
 6358SOL     OW19972   0.795   2.034   6.212
 6358SOL    HW119973   0.804   1.986   6.299
 6358SOL    HW219974   0.742   2.118   6.226
 6359SOL     OW19975   5.714   6.566   6.363
 6359SOL    HW119976   5.793   6.590   6.420
 6359SOL    HW219977   5.715   6.622   6.280
 6360SOL     OW19978   1.244   4.026   3.845
 6360SOL    HW119979   1.216   4.004   3.752
 6360SOL    HW219980   1.179   3.987   3.910
 6361SOL     OW19981   6.473   0.133   1.046
 6361SOL    HW119982   6.395   0.193   1.057
 6361SOL    HW219983   6.556   0.178   1.079
 6362SOL     OW19984   0.070   6.356   0.281
 6362SOL    HW119985   0.006   6.320   0.350
 6362SOL    HW219986   0.047   6.452   0.262
 6363SOL     OW19987   2.771   4.755   3.459
 6363SOL    HW119988   2.802   4.793   3.547
 6363SOL    HW219989   2.682   4.712   3.471
 6364SOL     OW19990   3.449   1.360   6.095
 6364SOL    HW119991   3.404   1.416   6.026
 6364SOL    HW219992   3.491   1.280   6.052
 6365SOL     OW19993   5.330   7.011   3.780
 6365SOL    HW119994   5.425   0.015   3.764
 6365SOL    HW219995   5.280   7.011   3.693
 6366SOL     OW19996   0.886   6.298   5.917
 6366SOL    HW119997   0.872   6.238   5.996
 6366SOL    HW219998   0.810   6.286   5.852
 6367SOL     OW19999   4.295   0.782   5.209
 6367SOL    HW120000   4.241   0.803   5.290
 6367SOL    HW220001   4.291   0.859   5.145
 6368SOL     OW20002   3.715   4.931   3.427
 6368SOL    HW120003   3.766   4.849   3.451
 6368SOL    HW220004   3.774   5.011   3.436
 6369SOL     OW20005   2.092   5.430   3.922
 6369SOL    HW120006   2.159   5.412   3.994
 6369SOL    HW220007   2.001   5.405   3.955
 6370SOL     OW20008   0.628   3.464   3.235
 6370SOL    HW120009   0.665   3.396   3.173
 6370SOL    HW220010   0.546   3.428   3.279
 6371SOL     OW20011   5.220   4.071   4.362
 6371SOL    HW120012   5.223   4.141   4.291
 6371SOL    HW220013   5.269   4.103   4.443
 6372SOL     OW20014   2.066   0.099   2.455
 6372SOL    HW120015   1.976   0.134   2.428
 6372SOL    HW220016   2.055   0.011   2.501
 6373SOL     OW20017   5.087   4.049   3.091
 6373SOL    HW120018   5.074   4.141   3.054
 6373SOL    HW220019   5.000   4.001   3.092
 6374SOL     OW20020   3.313   4.172   3.540
 6374SOL    HW120021   3.258   4.241   3.495
 6374SOL    HW220022   3.259   4.127   3.611
 6375SOL     OW20023   6.654   1.991   4.062
 6375SOL    HW120024   6.707   1.910   4.087
 6375SOL    HW220025   6.633   1.989   3.965
 6376SOL     OW20026   6.094   2.411   5.019
 6376SOL    HW120027   6.076   2.501   5.060
 6376SOL    HW220028   6.020   2.388   4.956
 6377SOL     OW20029   6.201   1.794   5.834
 6377SOL    HW120030   6.290   1.753   5.855
 6377SOL    HW220031   6.206   1.841   5.746
 6378SOL     OW20032   4.550   5.263   3.908
 6378SOL    HW120033   4.620   5.277   3.978
 6378SOL    HW220034   4.593   5.249   3.819
 6379SOL     OW20035   1.700   3.515   4.131
 6379SOL    HW120036   1.666   3.485   4.220
 6379SOL    HW220037   1.725   3.612   4.136
 6380SOL     OW20038   0.469   1.859   5.691
 6380SOL    HW120039   0.400   1.894   5.755
 6380SOL    HW220040   0.424   1.808   5.618
 6381SOL     OW20041   3.460   3.283   1.619
 6381SOL    HW120042   3.547   3.324   1.590
 6381SOL    HW220043   3.477   3.222   1.697
 6382SOL     OW20044   1.257   1.194   1.062
 6382SOL    HW120045   1.354   1.170   1.062
 6382SOL    HW220046   1.220   1.185   1.154
 6383SOL     OW20047   1.536   1.524   2.784
 6383SOL    HW120048   1.584   1.507   2.697
 6383SOL    HW220049   1.465   1.455   2.797
 6384SOL     OW20050   5.894   3.715   1.724
 6384SOL    HW120051   5.964   3.737   1.656
 6384SOL    HW220052   5.810   3.765   1.701
 6385SOL     OW20053   6.966   4.596   4.027
 6385SOL    HW120054   6.969   4.673   3.964
 6385SOL    HW220055   6.983   4.629   4.121
 6386SOL     OW20056   2.096   4.376   5.864
 6386SOL    HW120057   2.020   4.311   5.861
 6386SOL    HW220058   2.174   4.338   5.813
 6387SOL     OW20059   0.721   1.350   6.391
 6387SOL    HW120060   0.807   1.303   6.368
 6387SOL    HW220061   0.713   1.434   6.338
 6388SOL     OW20062   4.141   4.971   1.124
 6388SOL    HW120063   4.084   4.965   1.042
 6388SOL    HW220064   4.088   5.009   1.200
 6389SOL     OW20065   0.486   5.909   2.573
 6389SOL    HW120066   0.423   5.973   2.530
 6389SOL    HW220067   0.579   5.923   2.537
 6390SOL     OW20068   0.372   1.770   5.461
 6390SOL    HW120069   0.411   1.683   5.432
 6390SOL    HW220070   0.381   1.837   5.387
 6391SOL     OW20071   2.373   0.304   5.981
 6391SOL    HW120072   2.276   0.287   5.999
 6391SOL    HW220073   2.394   0.281   5.886
 6392SOL     OW20074   2.872   6.103   3.216
 6392SOL    HW120075   2.927   6.172   3.169
 6392SOL    HW220076   2.830   6.144   3.297
 6393SOL     OW20077   6.703   6.904   2.038
 6393SOL    HW120078   6.696   7.003   2.030
 6393SOL    HW220079   6.627   6.861   1.989
 6394SOL     OW20080   2.195   4.929   0.813
 6394SOL    HW120081   2.183   4.969   0.904
 6394SOL    HW220082   2.208   4.830   0.822
 6395SOL     OW20083   6.784   2.264   0.847
 6395SOL    HW120084   6.784   2.272   0.747
 6395SOL    HW220085   6.697   2.226   0.877
 6396SOL     OW20086   4.900   3.161   5.916
 6396SOL    HW120087   4.844   3.148   5.998
 6396SOL    HW220088   4.867   3.241   5.865
 6397SOL     OW20089   5.514   2.668   6.684
 6397SOL    HW120090   5.479   2.709   6.600
 6397SOL    HW220091   5.452   2.689   6.760
 6398SOL     OW20092   3.218   0.199   0.421
 6398SOL    HW120093   3.260   0.109   0.431
 6398SOL    HW220094   3.154   0.198   0.344
 6399SOL     OW20095   0.935   6.131   6.366
 6399SOL    HW120096   0.952   6.197   6.439
 6399SOL    HW220097   1.012   6.067   6.360
 6400SOL     OW20098   2.472   5.991   1.676
 6400SOL    HW120099   2.408   5.952   1.610
 6400SOL    HW220100   2.428   6.066   1.724
 6401SOL     OW20101   0.058   5.072   4.185
 6401SOL    HW120102   0.148   5.027   4.181
 6401SOL    HW220103   7.009   5.002   4.182
 6402SOL     OW20104   4.143   1.746   2.476
 6402SOL    HW120105   4.119   1.721   2.382
 6402SOL    HW220106   4.059   1.759   2.529
 6403SOL     OW20107   6.898   6.569   6.308
 6403SOL    HW120108   6.921   6.534   6.217
 6403SOL    HW220109   6.899   6.669   6.307
 6404SOL     OW20110   4.564   1.830   2.009
 6404SOL    HW120111   4.489   1.876   1.961
 6404SOL    HW220112   4.601   1.758   1.950
 6405SOL     OW20113   2.905   0.627   3.790
 6405SOL    HW120114   2.921   0.657   3.884
 6405SOL    HW220115   2.933   0.699   3.727
 6406SOL     OW20116   1.303   2.301   3.041
 6406SOL    HW120117   1.327   2.391   3.004
 6406SOL    HW220118   1.227   2.310   3.105
 6407SOL     OW20119   2.803   5.973   4.051
 6407SOL    HW120120   2.879   6.035   4.033
 6407SOL    HW220121   2.740   5.973   3.973
 6408SOL     OW20122   5.675   2.579   0.816
 6408SOL    HW120123   5.631   2.568   0.727
 6408SOL    HW220124   5.628   2.648   0.869
 6409SOL     OW20125   6.969   4.871   3.389
 6409SOL    HW120126   7.009   4.812   3.320
 6409SOL    HW220127   6.869   4.872   3.379
 6410SOL     OW20128   1.441   1.448   0.417
 6410SOL    HW120129   1.364   1.496   0.375
 6410SOL    HW220130   1.522   1.507   0.417
 6411SOL     OW20131   0.957   2.320   3.008
 6411SOL    HW120132   0.998   2.326   3.099
 6411SOL    HW220133   1.029   2.322   2.939
 6412SOL     OW20134   0.402   2.342   5.057
 6412SOL    HW120135   0.448   2.259   5.089
 6412SOL    HW220136   0.369   2.329   4.964
 6413SOL     OW20137   4.374   4.622   3.799
 6413SOL    HW120138   4.437   4.660   3.866
 6413SOL    HW220139   4.422   4.604   3.713
 6414SOL     OW20140   5.953   1.059   0.402
 6414SOL    HW120141   5.926   1.129   0.469
 6414SOL    HW220142   5.880   1.046   0.336
 6415SOL     OW20143   1.682   3.118   3.105
 6415SOL    HW120144   1.596   3.138   3.057
 6415SOL    HW220145   1.724   3.036   3.064
 6416SOL     OW20146   1.204   1.419   6.264
 6416SOL    HW120147   1.157   1.343   6.310
 6416SOL    HW220148   1.150   1.448   6.184
 6417SOL     OW20149   6.374   4.966   2.055
 6417SOL    HW120150   6.348   4.899   1.986
 6417SOL    HW220151   6.368   4.924   2.146
 6418SOL     OW20152   4.818   4.592   1.764
 6418SOL    HW120153   4.737   4.546   1.727
 6418SOL    HW220154   4.863   4.532   1.830
 6419SOL     OW20155   2.356   4.807   3.208
 6419SOL    HW120156   2.386   4.730   3.265
 6419SOL    HW220157   2.436   4.855   3.171
 6420SOL     OW20158   3.556   4.721   5.336
 6420SOL    HW120159   3.479   4.771   5.298
 6420SOL    HW220160   3.557   4.732   5.436
 6421SOL     OW20161   5.308   0.771   2.990
 6421SOL    HW120162   5.378   0.840   3.009
 6421SOL    HW220163   5.353   0.689   2.953
 6422SOL     OW20164   0.270   0.762   3.953
 6422SOL    HW120165   0.231   0.838   3.901
 6422SOL    HW220166   0.324   0.798   4.029
 6423SOL     OW20167   4.871   5.391   2.427
 6423SOL    HW120168   4.901   5.449   2.502
 6423SOL    HW220169   4.775   5.410   2.407
 6424SOL     OW20170   6.948   6.088   5.747
 6424SOL    HW120171   6.998   6.013   5.704
 6424SOL    HW220172   7.003   6.171   5.743
 6425SOL     OW20173   6.452   5.914   2.653
 6425SOL    HW120174   6.354   5.929   2.663
 6425SOL    HW220175   6.499   6.002   2.650
 6426SOL     OW20176   0.999   4.883   3.016
 6426SOL    HW120177   0.974   4.814   3.084
 6426SOL    HW220178   1.084   4.928   3.043
 6427SOL     OW20179   3.099   3.131   5.236
 6427SOL    HW120180   3.165   3.125   5.161
 6427SOL    HW220181   3.134   3.193   5.306
 6428SOL     OW20182   5.870   3.296   6.590
 6428SOL    HW120183   5.872   3.248   6.679
 6428SOL    HW220184   5.913   3.238   6.521
 6429SOL     OW20185   2.171   1.775   6.086
 6429SOL    HW120186   2.075   1.780   6.114
 6429SOL    HW220187   2.179   1.721   6.002
 6430SOL     OW20188   5.791   1.014   2.146
 6430SOL    HW120189   5.707   0.991   2.194
 6430SOL    HW220190   5.788   1.110   2.119
 6431SOL     OW20191   5.023   6.467   4.028
 6431SOL    HW120192   5.079   6.438   4.105
 6431SOL    HW220193   4.961   6.393   4.002
 6432SOL     OW20194   3.882   4.417   6.503
 6432SOL    HW120195   3.978   4.430   6.527
 6432SOL    HW220196   3.850   4.494   6.448
 6433SOL     OW20197   2.524   4.328   7.002
 6433SOL    HW120198   2.453   4.393   0.008
 6433SOL    HW220199   2.483   4.257   6.945
 6434SOL     OW20200   2.000   3.778   0.187
 6434SOL    HW120201   1.979   3.788   0.284
 6434SOL    HW220202   1.918   3.795   0.133
 6435SOL     OW20203   4.269   6.540   0.088
 6435SOL    HW120204   4.221   6.456   0.065
 6435SOL    HW220205   4.224   6.584   0.166
 6436SOL     OW20206   1.952   3.686   3.556
 6436SOL    HW120207   1.891   3.672   3.478
 6436SOL    HW220208   1.961   3.601   3.607
 6437SOL     OW20209   2.347   1.419   0.910
 6437SOL    HW120210   2.375   1.428   1.005
 6437SOL    HW220211   2.428   1.413   0.851
 6438SOL     OW20212   0.139   4.001   6.662
 6438SOL    HW120213   0.066   4.004   6.593
 6438SOL    HW220214   0.225   4.031   6.620
 6439SOL     OW20215   5.111   0.876   1.599
 6439SOL    HW120216   5.056   0.910   1.523
 6439SOL    HW220217   5.136   0.781   1.582
 6440SOL     OW20218   2.274   1.517   6.801
 6440SOL    HW120219   2.243   1.431   6.842
 6440SOL    HW220220   2.290   1.584   6.874
 6441SOL     OW20221   0.831   6.370   1.973
 6441SOL    HW120222   0.739   6.335   1.990
 6441SOL    HW220223   0.898   6.297   1.986
 6442SOL     OW20224   2.240   0.582   4.554
 6442SOL    HW120225   2.263   0.635   4.472
 6442SOL    HW220226   2.260   0.636   4.635
 6443SOL     OW20227   3.761   2.463   5.695
 6443SOL    HW120228   3.796   2.481   5.604
 6443SOL    HW220229   3.706   2.380   5.694
 6444SOL     OW20230   6.782   2.722   3.822
 6444SOL    HW120231   6.692   2.763   3.834
 6444SOL    HW220232   6.852   2.794   3.823
 6445SOL     OW20233   4.260   3.467   5.453
 6445SOL    HW120234   4.343   3.513   5.423
 6445SOL    HW220235   4.233   3.400   5.384
 6446SOL     OW20236   1.904   1.424   5.964
 6446SOL    HW120237   1.833   1.357   5.988
 6446SOL    HW220238   1.917   1.488   6.040
 6447SOL     OW20239   6.762   4.628   3.227
 6447SOL    HW120240   6.681   4.686   3.233
 6447SOL    HW220241   6.833   4.675   3.174
 6448SOL     OW20242   4.746   5.768   2.301
 6448SOL    HW120243   4.836   5.725   2.291
 6448SOL    HW220244   4.684   5.732   2.230
 6449SOL     OW20245   2.513   4.714   0.732
 6449SOL    HW120246   2.417   4.697   0.755
 6449SOL    HW220247   2.520   4.747   0.638
 6450SOL     OW20248   0.499   3.606   0.973
 6450SOL    HW120249   0.417   3.662   0.982
 6450SOL    HW220250   0.494   3.528   1.035
 6451SOL     OW20251   2.240   0.222   4.859
 6451SOL    HW120252   2.184   0.216   4.776
 6451SOL    HW220253   2.210   0.301   4.913
 6452SOL     OW20254   3.595   6.755   4.628
 6452SOL    HW120255   3.631   6.734   4.719
 6452SOL    HW220256   3.497   6.773   4.634
 6453SOL     OW20257   2.376   6.230   1.167
 6453SOL    HW120258   2.408   6.294   1.237
 6453SOL    HW220259   2.316   6.278   1.103
 6454SOL     OW20260   2.297   2.225   3.692
 6454SOL    HW120261   2.396   2.234   3.677
 6454SOL    HW220262   2.253   2.313   3.672
 6455SOL     OW20263   0.112   2.479   3.687
 6455SOL    HW120264   0.065   2.390   3.680
 6455SOL    HW220265   0.174   2.478   3.765
 6456SOL     OW20266   1.964   0.458   3.574
 6456SOL    HW120267   1.961   0.360   3.592
 6456SOL    HW220268   2.059   0.490   3.577
 6457SOL     OW20269   5.072   1.710   0.765
 6457SOL    HW120270   5.015   1.646   0.713
 6457SOL    HW220271   5.024   1.798   0.773
 6458SOL     OW20272   0.765   6.938   3.447
 6458SOL    HW120273   0.719   6.887   3.520
 6458SOL    HW220274   0.766   0.013   3.470
 6459SOL     OW20275   6.330   4.455   0.297
 6459SOL    HW120276   6.262   4.383   0.283
 6459SOL    HW220277   6.316   4.527   0.229
 6460SOL     OW20278   5.109   6.004   5.864
 6460SOL    HW120279   5.015   6.023   5.894
 6460SOL    HW220280   5.154   6.090   5.842
 6461SOL     OW20281   2.635   5.034   5.557
 6461SOL    HW120282   2.678   5.106   5.612
 6461SOL    HW220283   2.691   4.951   5.561
 6462SOL     OW20284   2.413   2.626   4.979
 6462SOL    HW120285   2.456   2.547   5.022
 6462SOL    HW220286   2.468   2.708   4.999
 6463SOL     OW20287   6.898   3.487   0.202
 6463SOL    HW120288   6.798   3.481   0.202
 6463SOL    HW220289   6.927   3.560   0.264
 6464SOL     OW20290   1.355   5.194   4.520
 6464SOL    HW120291   1.289   5.220   4.450
 6464SOL    HW220292   1.440   5.244   4.505
 6465SOL     OW20293   6.359   2.778   2.978
 6465SOL    HW120294   6.448   2.732   2.983
 6465SOL    HW220295   6.343   2.809   2.884
 6466SOL     OW20296   1.678   1.272   6.031
 6466SOL    HW120297   1.649   1.190   5.982
 6466SOL    HW220298   1.634   1.274   6.121
 6467SOL     OW20299   3.201   0.769   6.626
 6467SOL    HW120300   3.262   0.817   6.689
 6467SOL    HW220301   3.239   0.680   6.604
 6468SOL     OW20302   3.845   6.352   0.866
 6468SOL    HW120303   3.823   6.386   0.957
 6468SOL    HW220304   3.790   6.401   0.798
 6469SOL     OW20305   4.816   0.574   4.704
 6469SOL    HW120306   4.807   0.478   4.677
 6469SOL    HW220307   4.808   0.582   4.803
 6470SOL     OW20308   6.443   4.551   0.510
 6470SOL    HW120309   6.363   4.606   0.532
 6470SOL    HW220310   6.423   4.496   0.429
 6471SOL     OW20311   6.441   6.176   5.772
 6471SOL    HW120312   6.427   6.274   5.770
 6471SOL    HW220313   6.458   6.142   5.680
 6472SOL     OW20314   0.683   5.475   1.042
 6472SOL    HW120315   0.678   5.575   1.052
 6472SOL    HW220316   0.709   5.434   1.129
 6473SOL     OW20317   3.310   1.672   4.251
 6473SOL    HW120318   3.361   1.605   4.197
 6473SOL    HW220319   3.265   1.625   4.327
 6474SOL     OW20320   2.396   4.206   5.545
 6474SOL    HW120321   2.304   4.193   5.509
 6474SOL    HW220322   2.463   4.191   5.473
 6475SOL     OW20323   6.536   5.373   4.494
 6475SOL    HW120324   6.563   5.421   4.578
 6475SOL    HW220325   6.438   5.353   4.497
 6476SOL     OW20326   4.419   3.317   1.162
 6476SOL    HW120327   4.373   3.317   1.073
 6476SOL    HW220328   4.423   3.224   1.197
 6477SOL     OW20329   6.157   4.883   1.211
 6477SOL    HW120330   6.139   4.900   1.114
 6477SOL    HW220331   6.107   4.950   1.266
 6478SOL     OW20332   3.682   6.559   1.764
 6478SOL    HW120333   3.661   6.610   1.847
 6478SOL    HW220334   3.608   6.494   1.744
 6479SOL     OW20335   3.898   5.640   3.820
 6479SOL    HW120336   3.819   5.579   3.820
 6479SOL    HW220337   3.976   5.593   3.778
 6480SOL     OW20338   3.181   2.492   5.786
 6480SOL    HW120339   3.113   2.446   5.727
 6480SOL    HW220340   3.151   2.585   5.803
 6481SOL     OW20341   3.695   2.207   1.608
 6481SOL    HW120342   3.674   2.251   1.695
 6481SOL    HW220343   3.624   2.140   1.586
 6482SOL     OW20344   6.800   0.648   5.322
 6482SOL    HW120345   6.708   0.686   5.313
 6482SOL    HW220346   6.839   0.677   5.410
 6483SOL     OW20347   1.103   6.197   1.228
 6483SOL    HW120348   1.199   6.223   1.238
 6483SOL    HW220349   1.046   6.257   1.283
 6484SOL     OW20350   3.558   0.250   1.629
 6484SOL    HW120351   3.573   0.265   1.531
 6484SOL    HW220352   3.596   0.162   1.656
 6485SOL     OW20353   1.926   4.693   3.328
 6485SOL    HW120354   1.947   4.781   3.370
 6485SOL    HW220355   1.935   4.700   3.229
 6486SOL     OW20356   2.075   4.561   4.312
 6486SOL    HW120357   2.099   4.561   4.409
 6486SOL    HW220358   2.106   4.475   4.270
 6487SOL     OW20359   0.024   6.453   4.984
 6487SOL    HW120360   0.100   6.442   5.048
 6487SOL    HW220361   6.960   6.452   5.034
 6488SOL     OW20362   3.696   6.162   5.018
 6488SOL    HW120363   3.698   6.173   5.117
 6488SOL    HW220364   3.696   6.064   4.995
 6489SOL     OW20365   2.934   2.696   6.548
 6489SOL    HW120366   2.926   2.660   6.641
 6489SOL    HW220367   2.891   2.786   6.543
 6490SOL     OW20368   3.971   1.528   6.258
 6490SOL    HW120369   4.059   1.576   6.262
 6490SOL    HW220370   3.921   1.558   6.177
 6491SOL     OW20371   4.048   1.320   0.274
 6491SOL    HW120372   3.955   1.322   0.239
 6491SOL    HW220373   4.056   1.251   0.346
 6492SOL     OW20374   5.701   4.979   0.658
 6492SOL    HW120375   5.742   5.065   0.689
 6492SOL    HW220376   5.769   4.926   0.608
 6493SOL     OW20377   1.376   5.431   4.851
 6493SOL    HW120378   1.311   5.380   4.794
 6493SOL    HW220379   1.344   5.525   4.862
 6494SOL     OW20380   0.206   1.104   3.550
 6494SOL    HW120381   0.111   1.085   3.573
 6494SOL    HW220382   0.232   1.193   3.586
 6495SOL     OW20383   5.329   6.426   4.136
 6495SOL    HW120384   5.322   6.524   4.156
 6495SOL    HW220385   5.297   6.374   4.215
 6496SOL     OW20386   6.964   0.317   2.603
 6496SOL    HW120387   6.867   0.293   2.593
 6496SOL    HW220388   7.007   0.320   2.513
 6497SOL     OW20389   2.379   2.741   1.123
 6497SOL    HW120390   2.460   2.800   1.120
 6497SOL    HW220391   2.297   2.798   1.132
 6498SOL     OW20392   2.173   3.850   4.590
 6498SOL    HW120393   2.201   3.891   4.677
 6498SOL    HW220394   2.197   3.753   4.590
 6499SOL     OW20395   5.400   2.275   5.063
 6499SOL    HW120396   5.443   2.217   5.132
 6499SOL    HW220397   5.311   2.237   5.038
 6500SOL     OW20398   6.981   4.340   3.808
 6500SOL    HW120399   6.938   4.328   3.897
 6500SOL    HW220400   0.030   4.410   3.814
 6501SOL     OW20401   6.241   2.741   6.702
 6501SOL    HW120402   6.308   2.796   6.652
 6501SOL    HW220403   6.194   2.799   6.768
 6502SOL     OW20404   6.406   3.025   1.547
 6502SOL    HW120405   6.347   3.105   1.540
 6502SOL    HW220406   6.472   3.038   1.622
 6503SOL     OW20407   4.384   1.415   3.589
 6503SOL    HW120408   4.434   1.360   3.523
 6503SOL    HW220409   4.287   1.391   3.586
 6504SOL     OW20410   4.851   5.968   6.344
 6504SOL    HW120411   4.788   5.983   6.420
 6504SOL    HW220412   4.913   6.046   6.336
 6505SOL     OW20413   5.311   5.746   1.517
 6505SOL    HW120414   5.373   5.822   1.496
 6505SOL    HW220415   5.241   5.740   1.446
 6506SOL     OW20416   6.525   3.027   2.044
 6506SOL    HW120417   6.587   3.095   2.083
 6506SOL    HW220418   6.555   2.936   2.070
 6507SOL     OW20419   2.319   4.913   5.876
 6507SOL    HW120420   2.273   4.826   5.861
 6507SOL    HW220421   2.410   4.897   5.913
 6508SOL     OW20422   2.129   0.571   2.765
 6508SOL    HW120423   2.036   0.600   2.786
 6508SOL    HW220424   2.126   0.488   2.710
 6509SOL     OW20425   2.995   1.689   4.629
 6509SOL    HW120426   3.082   1.729   4.657
 6509SOL    HW220427   2.981   1.705   4.531
 6510SOL     OW20428   0.401   4.385   6.748
 6510SOL    HW120429   0.394   4.362   6.846
 6510SOL    HW220430   0.344   4.464   6.728
 6511SOL     OW20431   4.495   1.339   4.662
 6511SOL    HW120432   4.489   1.436   4.684
 6511SOL    HW220433   4.451   1.322   4.574
 6512SOL     OW20434   4.965   6.913   2.360
 6512SOL    HW120435   5.059   6.893   2.388
 6512SOL    HW220436   4.961   6.925   2.261
 6513SOL     OW20437   3.213   4.842   2.899
 6513SOL    HW120438   3.148   4.779   2.857
 6513SOL    HW220439   3.173   4.934   2.904
 6514SOL     OW20440   5.411   1.114   3.768
 6514SOL    HW120441   5.367   1.112   3.858
 6514SOL    HW220442   5.346   1.150   3.701
 6515SOL     OW20443   0.446   5.518   4.079
 6515SOL    HW120444   0.367   5.526   4.018
 6515SOL    HW220445   0.417   5.477   4.166
 6516SOL     OW20446   0.420   3.127   1.692
 6516SOL    HW120447   0.384   3.145   1.784
 6516SOL    HW220448   0.345   3.130   1.626
 6517SOL     OW20449   6.585   0.579   0.471
 6517SOL    HW120450   6.598   0.613   0.564
 6517SOL    HW220451   6.571   0.655   0.409
 6518SOL     OW20452   0.077   6.936   6.721
 6518SOL    HW120453   7.000   6.947   6.723
 6518SOL    HW220454   0.117   7.004   6.659
 6519SOL     OW20455   2.546   1.764   3.396
 6519SOL    HW120456   2.598   1.768   3.481
 6519SOL    HW220457   2.520   1.857   3.368
 6520SOL     OW20458   5.567   5.186   2.053
 6520SOL    HW120459   5.477   5.156   2.084
 6520SOL    HW220460   5.596   5.266   2.105
 6521SOL     OW20461   1.768   3.104   4.339
 6521SOL    HW120462   1.692   3.093   4.404
 6521SOL    HW220463   1.732   3.109   4.246
 6522SOL     OW20464   3.919   4.771   0.341
 6522SOL    HW120465   3.983   4.739   0.271
 6522SOL    HW220466   3.929   4.869   0.354
 6523SOL     OW20467   3.656   0.915   6.924
 6523SOL    HW120468   3.666   0.899   7.022
 6523SOL    HW220469   3.716   0.989   6.896
 6524SOL     OW20470   2.821   3.607   1.774
 6524SOL    HW120471   2.837   3.527   1.715
 6524SOL    HW220472   2.871   3.596   1.860
 6525SOL     OW20473   1.153   4.615   3.393
 6525SOL    HW120474   1.170   4.675   3.471
 6525SOL    HW220475   1.149   4.520   3.424
 6526SOL     OW20476   2.056   0.089   6.254
 6526SOL    HW120477   1.968   0.042   6.259
 6526SOL    HW220478   2.108   0.071   6.338
 6527SOL     OW20479   0.486   2.789   4.886
 6527SOL    HW120480   0.575   2.832   4.872
 6527SOL    HW220481   0.426   2.852   4.936
 6528SOL     OW20482   0.098   1.100   4.255
 6528SOL    HW120483   0.184   1.068   4.294
 6528SOL    HW220484   0.055   1.026   4.203
 6529SOL     OW20485   0.800   1.434   2.589
 6529SOL    HW120486   0.885   1.416   2.539
 6529SOL    HW220487   0.723   1.426   2.527
 6530SOL     OW20488   0.076   3.539   1.389
 6530SOL    HW120489   0.093   3.502   1.480
 6530SOL    HW220490   0.023   3.624   1.397
 6531SOL     OW20491   5.569   3.590   4.990
 6531SOL    HW120492   5.512   3.660   4.946
 6531SOL    HW220493   5.658   3.586   4.943
 6532SOL     OW20494   6.059   0.410   6.799
 6532SOL    HW120495   5.983   0.473   6.786
 6532SOL    HW220496   6.140   0.444   6.751
 6533SOL     OW20497   4.763   6.069   0.579
 6533SOL    HW120498   4.664   6.083   0.582
 6533SOL    HW220499   4.785   5.995   0.515
 6534SOL     OW20500   3.388   4.203   0.924
 6534SOL    HW120501   3.419   4.119   0.968
 6534SOL    HW220502   3.377   4.187   0.826
 6535SOL     OW20503   6.305   4.036   4.075
 6535SOL    HW120504   6.318   4.090   3.993
 6535SOL    HW220505   6.208   4.014   4.087
 6536SOL     OW20506   1.112   1.952   5.866
 6536SOL    HW120507   1.099   1.879   5.798
 6536SOL    HW220508   1.031   1.958   5.924
 6537SOL     OW20509   6.667   5.325   6.897
 6537SOL    HW120510   6.633   5.398   6.837
 6537SOL    HW220511   6.589   5.282   6.943
 6538SOL     OW20512   2.895   4.076   6.886
 6538SOL    HW120513   2.938   4.164   6.902
 6538SOL    HW220514   2.962   4.011   6.849
 6539SOL     OW20515   3.788   0.584   6.363
 6539SOL    HW120516   3.708   0.614   6.415
 6539SOL    HW220517   3.868   0.586   6.423
 6540SOL     OW20518   5.107   1.356   5.424
 6540SOL    HW120519   5.022   1.356   5.370
 6540SOL    HW220520   5.088   1.321   5.515
 6541SOL     OW20521   4.387   1.156   5.257
 6541SOL    HW120522   4.344   1.097   5.189
 6541SOL    HW220523   4.333   1.239   5.269
 6542SOL     OW20524   6.593   4.248   4.657
 6542SOL    HW120525   6.530   4.179   4.621
 6542SOL    HW220526   6.544   4.308   4.721
 6543SOL     OW20527   5.790   3.385   6.010
 6543SOL    HW120528   5.871   3.405   6.064
 6543SOL    HW220529   5.812   3.315   5.941
 6544SOL     OW20530   0.266   6.350   2.980
 6544SOL    HW120531   0.262   6.443   3.017
 6544SOL    HW220532   0.359   6.331   2.947
 6545SOL     OW20533   5.438   1.913   6.720
 6545SOL    HW120534   5.395   1.989   6.771
 6545SOL    HW220535   5.395   1.904   6.631
 6546SOL     OW20536   3.615   4.793   6.904
 6546SOL    HW120537   3.573   4.714   6.949
 6546SOL    HW220538   3.711   4.772   6.885
 6547SOL     OW20539   4.735   1.075   5.961
 6547SOL    HW120540   4.667   1.093   6.031
 6547SOL    HW220541   4.746   1.157   5.903
 6548SOL     OW20542   1.107   3.484   6.917
 6548SOL    HW120543   1.146   3.559   6.970
 6548SOL    HW220544   1.121   3.500   6.820
 6549SOL     OW20545   4.488   1.187   0.982
 6549SOL    HW120546   4.514   1.218   0.891
 6549SOL    HW220547   4.527   1.097   0.999
 6550SOL     OW20548   0.631   6.783   3.612
 6550SOL    HW120549   0.693   6.748   3.682
 6550SOL    HW220550   0.592   6.707   3.560
 6551SOL     OW20551   1.864   5.022   2.849
 6551SOL    HW120552   1.774   5.061   2.827
 6551SOL    HW220553   1.867   4.926   2.820
 6552SOL     OW20554   2.456   6.963   5.385
 6552SOL    HW120555   2.396   0.020   5.395
 6552SOL    HW220556   2.458   6.911   5.470
 6553SOL     OW20557   0.464   1.548   3.233
 6553SOL    HW120558   0.456   1.562   3.332
 6553SOL    HW220559   0.520   1.621   3.194
 6554SOL     OW20560   5.904   1.047   5.201
 6554SOL    HW120561   5.809   1.072   5.186
 6554SOL    HW220562   5.941   1.100   5.277
 6555SOL     OW20563   0.279   1.852   2.112
 6555SOL    HW120564   0.264   1.940   2.066
 6555SOL    HW220565   0.371   1.819   2.092
 6556SOL     OW20566   4.537   4.695   5.184
 6556SOL    HW120567   4.593   4.721   5.105
 6556SOL    HW220568   4.521   4.775   5.241
 6557SOL     OW20569   3.131   5.909   1.003
 6557SOL    HW120570   3.167   5.912   1.096
 6557SOL    HW220571   3.068   5.831   0.994
 6558SOL     OW20572   6.248   4.722   0.595
 6558SOL    HW120573   6.195   4.800   0.562
 6558SOL    HW220574   6.324   4.755   0.651
 6559SOL     OW20575   6.873   4.084   6.446
 6559SOL    HW120576   6.848   4.063   6.352
 6559SOL    HW220577   6.938   4.161   6.447
 6560SOL     OW20578   4.356   4.406   0.954
 6560SOL    HW120579   4.258   4.423   0.970
 6560SOL    HW220580   4.395   4.361   1.035
 6561SOL     OW20581   3.380   4.075   2.410
 6561SOL    HW120582   3.399   3.977   2.404
 6561SOL    HW220583   3.414   4.120   2.327
 6562SOL     OW20584   5.355   3.963   0.416
 6562SOL    HW120585   5.300   3.908   0.479
 6562SOL    HW220586   5.445   3.979   0.456
 6563SOL     OW20587   6.680   6.259   0.158
 6563SOL    HW120588   6.735   6.267   0.075
 6563SOL    HW220589   6.597   6.208   0.138
 6564SOL     OW20590   6.591   4.048   2.859
 6564SOL    HW120591   6.657   4.061   2.933
 6564SOL    HW220592   6.637   4.061   2.771
 6565SOL     OW20593   6.674   2.705   4.148
 6565SOL    HW120594   6.643   2.624   4.096
 6565SOL    HW220595   6.661   2.688   4.246
 6566SOL     OW20596   3.374   6.397   2.641
 6566SOL    HW120597   3.315   6.477   2.626
 6566SOL    HW220598   3.446   6.395   2.571
 6567SOL     OW20599   4.152   1.765   0.935
 6567SOL    HW120600   4.078   1.766   1.003
 6567SOL    HW220601   4.235   1.727   0.976
 6568SOL     OW20602   4.973   0.186   3.760
 6568SOL    HW120603   4.947   0.089   3.766
 6568SOL    HW220604   4.962   0.217   3.666
 6569SOL     OW20605   2.861   3.820   6.457
 6569SOL    HW120606   2.859   3.732   6.504
 6569SOL    HW220607   2.832   3.892   6.519
 6570SOL     OW20608   4.107   6.653   2.466
 6570SOL    HW120609   4.023   6.708   2.462
 6570SOL    HW220610   4.148   6.662   2.556
 6571SOL     OW20611   2.705   5.394   2.404
 6571SOL    HW120612   2.727   5.487   2.435
 6571SOL    HW220613   2.612   5.392   2.367
 6572SOL     OW20614   6.645   5.582   5.671
 6572SOL    HW120615   6.670   5.487   5.688
 6572SOL    HW220616   6.563   5.605   5.723
 6573SOL     OW20617   3.062   1.666   1.898
 6573SOL    HW120618   2.975   1.691   1.941
 6573SOL    HW220619   3.133   1.730   1.928
 6574SOL     OW20620   3.094   6.267   2.666
 6574SOL    HW120621   3.190   6.278   2.643
 6574SOL    HW220622   3.054   6.194   2.609
 6575SOL     OW20623   1.243   0.771   2.252
 6575SOL    HW120624   1.279   0.680   2.231
 6575SOL    HW220625   1.266   0.796   2.346
 6576SOL     OW20626   2.166   5.974   6.282
 6576SOL    HW120627   2.208   6.005   6.196
 6576SOL    HW220628   2.114   6.050   6.323
 6577SOL     OW20629   0.587   1.934   3.827
 6577SOL    HW120630   0.648   1.959   3.902
 6577SOL    HW220631   0.569   1.836   3.829
 6578SOL     OW20632   0.620   4.334   3.265
 6578SOL    HW120633   0.590   4.429   3.268
 6578SOL    HW220634   0.600   4.290   3.353
 6579SOL     OW20635   0.142   3.808   4.782
 6579SOL    HW120636   0.216   3.815   4.715
 6579SOL    HW220637   0.054   3.824   4.736
 6580SOL     OW20638   6.510   1.542   1.073
 6580SOL    HW120639   6.443   1.477   1.039
 6580SOL    HW220640   6.602   1.506   1.058
 6581SOL     OW20641   3.026   1.096   0.012
 6581SOL    HW120642   3.060   1.141   6.952
 6581SOL    HW220643   3.018   1.163   0.086
 6582SOL     OW20644   1.447   1.077   1.351
 6582SOL    HW120645   1.354   1.094   1.382
 6582SOL    HW220646   1.503   1.046   1.427
 6583SOL     OW20647   4.222   0.250   4.971
 6583SOL    HW120648   4.275   0.265   4.888
 6583SOL    HW220649   4.221   0.152   4.993
 6584SOL     OW20650   5.169   1.655   6.583
 6584SOL    HW120651   5.254   1.630   6.629
 6584SOL    HW220652   5.183   1.738   6.528
 6585SOL     OW20653   0.179   0.043   0.272
 6585SOL    HW120654   0.196   7.021   0.359
 6585SOL    HW220655   0.110   7.014   0.220
 6586SOL     OW20656   6.329   1.570   6.141
 6586SOL    HW120657   6.269   1.651   6.139
 6586SOL    HW220658   6.358   1.549   6.048
 6587SOL     OW20659   2.591   6.136   5.303
 6587SOL    HW120660   2.616   6.102   5.212
 6587SOL    HW220661   2.522   6.208   5.294
 6588SOL     OW20662   1.609   3.594   1.820
 6588SOL    HW120663   1.541   3.573   1.890
 6588SOL    HW220664   1.667   3.514   1.805
 6589SOL     OW20665   4.693   0.372   0.236
 6589SOL    HW120666   4.664   0.443   0.301
 6589SOL    HW220667   4.788   0.347   0.254
 6590SOL     OW20668   0.973   1.229   5.488
 6590SOL    HW120669   0.941   1.143   5.529
 6590SOL    HW220670   1.050   1.210   5.427
 6591SOL     OW20671   5.550   6.236   2.563
 6591SOL    HW120672   5.570   6.275   2.653
 6591SOL    HW220673   5.545   6.137   2.570
 6592SOL     OW20674   5.689   6.635   3.827
 6592SOL    HW120675   5.745   6.704   3.874
 6592SOL    HW220676   5.646   6.575   3.894
 6593SOL     OW20677   2.311   1.922   3.900
 6593SOL    HW120678   2.266   1.844   3.941
 6593SOL    HW220679   2.250   1.964   3.832
 6594SOL     OW20680   3.772   1.422   6.922
 6594SOL    HW120681   3.789   1.390   7.015
 6594SOL    HW220682   3.674   1.439   6.910
 6595SOL     OW20683   0.790   2.410   0.741
 6595SOL    HW120684   0.851   2.471   0.792
 6595SOL    HW220685   0.830   2.389   0.652
 6596SOL     OW20686   3.318   6.814   4.628
 6596SOL    HW120687   3.262   6.821   4.710
 6596SOL    HW220688   3.259   6.819   4.547
 6597SOL     OW20689   2.400   5.950   2.519
 6597SOL    HW120690   2.360   5.895   2.446
 6597SOL    HW220691   2.334   6.019   2.549
 6598SOL     OW20692   1.031   7.021   4.271
 6598SOL    HW120693   0.959   7.000   4.338
 6598SOL    HW220694   1.119   6.987   4.305
 6599SOL     OW20695   4.600   6.521   5.631
 6599SOL    HW120696   4.552   6.586   5.690
 6599SOL    HW220697   4.621   6.566   5.543
 6600SOL     OW20698   5.077   5.186   6.257
 6600SOL    HW120699   5.122   5.162   6.343
 6600SOL    HW220700   5.146   5.197   6.185
 6601SOL     OW20701   1.134   1.545   5.400
 6601SOL    HW120702   1.042   1.516   5.428
 6601SOL    HW220703   1.150   1.639   5.430
 6602SOL     OW20704   0.683   1.654   1.863
 6602SOL    HW120705   0.769   1.668   1.814
 6602SOL    HW220706   0.666   1.732   1.924
 6603SOL     OW20707   0.426   2.779   3.616
 6603SOL    HW120708   0.354   2.763   3.549
 6603SOL    HW220709   0.510   2.804   3.569
 6604SOL     OW20710   2.499   6.632   0.691
 6604SOL    HW120711   2.431   6.589   0.631
 6604SOL    HW220712   2.591   6.608   0.660
 6605SOL     OW20713   5.664   3.843   1.660
 6605SOL    HW120714   5.589   3.878   1.716
 6605SOL    HW220715   5.627   3.815   1.571
 6606SOL     OW20716   6.806   6.747   2.234
 6606SOL    HW120717   6.811   6.652   2.202
 6606SOL    HW220718   6.768   6.804   2.161
 6607SOL     OW20719   1.696   2.487   2.164
 6607SOL    HW120720   1.684   2.546   2.083
 6607SOL    HW220721   1.757   2.532   2.229
 6608SOL     OW20722   5.455   6.187   2.276
 6608SOL    HW120723   5.526   6.206   2.208
 6608SOL    HW220724   5.496   6.188   2.368
 6609SOL     OW20725   4.743   0.600   6.017
 6609SOL    HW120726   4.790   0.545   5.948
 6609SOL    HW220727   4.664   0.645   5.976
 6610SOL     OW20728   2.803   1.326   6.208
 6610SOL    HW120729   2.797   1.342   6.109
 6610SOL    HW220730   2.788   1.411   6.257
 6611SOL     OW20731   5.866   2.888   4.148
 6611SOL    HW120732   5.955   2.883   4.193
 6611SOL    HW220733   5.801   2.938   4.205
 6612SOL     OW20734   6.319   2.114   6.664
 6612SOL    HW120735   6.283   2.142   6.753
 6612SOL    HW220736   6.379   2.036   6.674
 6613SOL     OW20737   6.254   0.119   5.177
 6613SOL    HW120738   6.344   0.162   5.172
 6613SOL    HW220739   6.263   0.027   5.214
 6614SOL     OW20740   5.415   6.282   0.272
 6614SOL    HW120741   5.332   6.334   0.293
 6614SOL    HW220742   5.495   6.336   0.298
 6615SOL     OW20743   0.590   4.626   2.989
 6615SOL    HW120744   0.524   4.668   2.927
 6615SOL    HW220745   0.584   4.526   2.981
 6616SOL     OW20746   4.138   1.189   5.798
 6616SOL    HW120747   4.094   1.223   5.881
 6616SOL    HW220748   4.205   1.119   5.822
 6617SOL     OW20749   3.674   5.215   2.722
 6617SOL    HW120750   3.748   5.282   2.729
 6617SOL    HW220751   3.625   5.210   2.809
 6618SOL     OW20752   1.421   3.511   2.764
 6618SOL    HW120753   1.344   3.452   2.787
 6618SOL    HW220754   1.478   3.524   2.845
 6619SOL     OW20755   6.487   0.678   4.191
 6619SOL    HW120756   6.477   0.585   4.154
 6619SOL    HW220757   6.569   0.720   4.152
 6620SOL     OW20758   1.788   2.726   5.110
 6620SOL    HW120759   1.775   2.797   5.040
 6620SOL    HW220760   1.885   2.712   5.126
 6621SOL     OW20761   2.116   3.776   6.410
 6621SOL    HW120762   2.199   3.795   6.358
 6621SOL    HW220763   2.110   3.838   6.489
 6622SOL     OW20764   5.999   0.263   1.718
 6622SOL    HW120765   5.922   0.236   1.777
 6622SOL    HW220766   5.965   0.316   1.641
 6623SOL     OW20767   2.587   3.497   6.688
 6623SOL    HW120768   2.517   3.502   6.617
 6623SOL    HW220769   2.574   3.414   6.742
 6624SOL     OW20770   1.543   6.378   4.047
 6624SOL    HW120771   1.635   6.416   4.043
 6624SOL    HW220772   1.542   6.288   4.003
 6625SOL     OW20773   5.313   1.997   5.855
 6625SOL    HW120774   5.398   2.035   5.893
 6625SOL    HW220775   5.310   1.899   5.872
 6626SOL     OW20776   4.330   5.397   5.501
 6626SOL    HW120777   4.307   5.301   5.485
 6626SOL    HW220778   4.302   5.422   5.593
 6627SOL     OW20779   2.422   0.696   5.396
 6627SOL    HW120780   2.338   0.750   5.387
 6627SOL    HW220781   2.497   0.742   5.349
 6628SOL     OW20782   4.615   4.460   4.578
 6628SOL    HW120783   4.523   4.453   4.540
 6628SOL    HW220784   4.682   4.453   4.505
 6629SOL     OW20785   3.920   6.199   0.069
 6629SOL    HW120786   3.942   6.108   0.103
 6629SOL    HW220787   3.933   6.203   6.993
 6630SOL     OW20788   3.710   1.383   1.738
 6630SOL    HW120789   3.718   1.352   1.833
 6630SOL    HW220790   3.790   1.352   1.687
 6631SOL     OW20791   2.835   0.003   2.479
 6631SOL    HW120792   2.881   6.938   2.493
 6631SOL    HW220793   2.736   7.010   2.476
 6632SOL     OW20794   0.687   5.647   1.372
 6632SOL    HW120795   0.668   5.559   1.327
 6632SOL    HW220796   0.649   5.645   1.465
 6633SOL     OW20797   0.657   4.019   6.259
 6633SOL    HW120798   0.563   4.027   6.291
 6633SOL    HW220799   0.718   4.066   6.322
 6634SOL     OW20800   6.039   2.574   4.506
 6634SOL    HW120801   6.104   2.645   4.534
 6634SOL    HW220802   6.084   2.485   4.512
 6635SOL     OW20803   4.237   4.786   2.965
 6635SOL    HW120804   4.196   4.817   2.879
 6635SOL    HW220805   4.167   4.783   3.036
 6636SOL     OW20806   4.639   1.966   5.664
 6636SOL    HW120807   4.576   1.892   5.642
 6636SOL    HW220808   4.589   2.042   5.706
 6637SOL     OW20809   1.321   6.829   6.687
 6637SOL    HW120810   1.417   6.804   6.696
 6637SOL    HW220811   1.313   6.915   6.638
 6638SOL     OW20812   3.375   4.124   3.926
 6638SOL    HW120813   3.320   4.120   4.009
 6638SOL    HW220814   3.472   4.131   3.950
 6639SOL     OW20815   6.012   5.200   6.613
 6639SOL    HW120816   5.917   5.169   6.617
 6639SOL    HW220817   6.034   5.225   6.518
 6640SOL     OW20818   1.211   1.423   5.190
 6640SOL    HW120819   1.151   1.438   5.111
 6640SOL    HW220820   1.177   1.474   5.269
 6641SOL     OW20821   2.820   2.060   6.853
 6641SOL    HW120822   2.840   2.119   6.931
 6641SOL    HW220823   2.780   2.115   6.780
 6642SOL     OW20824   2.872   5.198   6.913
 6642SOL    HW120825   2.963   5.227   6.943
 6642SOL    HW220826   2.879   5.109   6.869
 6643SOL     OW20827   6.913   5.554   6.798
 6643SOL    HW120828   6.919   5.458   6.826
 6643SOL    HW220829   6.891   5.559   6.700
 6644SOL     OW20830   2.901   4.746   2.190
 6644SOL    HW120831   2.880   4.713   2.098
 6644SOL    HW220832   2.843   4.698   2.257
 6645SOL     OW20833   6.832   4.766   0.842
 6645SOL    HW120834   6.757   4.829   0.821
 6645SOL    HW220835   6.802   4.672   0.828
 6646SOL     OW20836   3.706   6.898   4.968
 6646SOL    HW120837   3.642   6.844   4.915
 6646SOL    HW220838   3.763   6.953   4.906
 6647SOL     OW20839   4.147   1.074   2.069
 6647SOL    HW120840   4.125   1.058   2.165
 6647SOL    HW220841   4.241   1.046   2.051
 6648SOL     OW20842   3.782   6.299   2.660
 6648SOL    HW120843   3.811   6.316   2.754
 6648SOL    HW220844   3.762   6.386   2.615
 6649SOL     OW20845   5.573   0.871   6.685
 6649SOL    HW120846   5.529   0.803   6.744
 6649SOL    HW220847   5.656   0.905   6.729
 6650SOL     OW20848   2.784   1.790   4.760
 6650SOL    HW120849   2.858   1.745   4.711
 6650SOL    HW220850   2.766   1.740   4.845
 6651SOL     OW20851   2.075   1.689   6.644
 6651SOL    HW120852   2.152   1.633   6.614
 6651SOL    HW220853   2.018   1.636   6.707
 6652SOL     OW20854   6.967   4.145   0.658
 6652SOL    HW120855   6.992   4.121   0.752
 6652SOL    HW220856   6.924   4.066   0.614
 6653SOL     OW20857   3.547   2.808   2.282
 6653SOL    HW120858   3.552   2.714   2.247
 6653SOL    HW220859   3.550   2.872   2.206
 6654SOL     OW20860   1.692   3.384   1.531
 6654SOL    HW120861   1.770   3.434   1.494
 6654SOL    HW220862   1.703   3.374   1.630
 6655SOL     OW20863   2.010   6.982   1.750
 6655SOL    HW120864   1.965   6.934   1.675
 6655SOL    HW220865   2.109   6.984   1.734
 6656SOL     OW20866   5.837   2.070   1.761
 6656SOL    HW120867   5.909   2.047   1.696
 6656SOL    HW220868   5.864   2.039   1.853
 6657SOL     OW20869   5.669   5.926   6.669
 6657SOL    HW120870   5.755   5.962   6.705
 6657SOL    HW220871   5.595   5.946   6.733
 6658SOL     OW20872   6.006   1.249   5.026
 6658SOL    HW120873   5.999   1.166   5.081
 6658SOL    HW220874   6.082   1.239   4.961
 6659SOL     OW20875   1.901   2.179   0.478
 6659SOL    HW120876   1.862   2.165   0.568
 6659SOL    HW220877   1.989   2.132   0.472
 6660SOL     OW20878   0.683   5.308   0.327
 6660SOL    HW120879   0.743   5.386   0.312
 6660SOL    HW220880   0.601   5.338   0.376
 6661SOL     OW20881   1.408   6.464   4.687
 6661SOL    HW120882   1.319   6.431   4.718
 6661SOL    HW220883   1.459   6.500   4.765
 6662SOL     OW20884   1.108   1.138   0.265
 6662SOL    HW120885   1.146   1.144   0.173
 6662SOL    HW220886   1.172   1.176   0.331
 6663SOL     OW20887   0.036   5.357   3.505
 6663SOL    HW120888   0.121   5.310   3.526
 6663SOL    HW220889   0.001   5.326   3.417
 6664SOL     OW20890   2.394   6.303   0.068
 6664SOL    HW120891   2.384   6.271   0.162
 6664SOL    HW220892   2.333   6.251   0.008
 6665SOL     OW20893   1.699   0.102   3.089
 6665SOL    HW120894   1.690   0.021   3.147
 6665SOL    HW220895   1.726   0.180   3.144
 6666SOL     OW20896   5.397   6.818   6.585
 6666SOL    HW120897   5.453   6.735   6.589
 6666SOL    HW220898   5.456   6.898   6.591
 6667SOL     OW20899   6.921   5.873   6.372
 6667SOL    HW120900   6.954   5.910   6.285
 6667SOL    HW220901   6.997   5.868   6.437
 6668SOL     OW20902   6.576   5.701   2.277
 6668SOL    HW120903   6.493   5.707   2.332
 6668SOL    HW220904   6.656   5.702   2.337
 6669SOL     OW20905   1.680   2.777   3.724
 6669SOL    HW120906   1.756   2.836   3.699
 6669SOL    HW220907   1.714   2.687   3.749
 6670SOL     OW20908   3.596   2.232   5.657
 6670SOL    HW120909   3.523   2.248   5.724
 6670SOL    HW220910   3.567   2.162   5.592
 6671SOL     OW20911   5.859   5.272   1.479
 6671SOL    HW120912   5.828   5.318   1.395
 6671SOL    HW220913   5.942   5.220   1.460
 6672SOL     OW20914   0.294   2.182   5.702
 6672SOL    HW120915   0.363   2.169   5.773
 6672SOL    HW220916   0.272   2.279   5.695
 6673SOL     OW20917   4.924   6.213   3.963
 6673SOL    HW120918   4.844   6.184   4.016
 6673SOL    HW220919   5.007   6.175   4.004
 6674SOL     OW20920   1.162   5.325   5.592
 6674SOL    HW120921   1.172   5.226   5.584
 6674SOL    HW220922   1.075   5.353   5.552
 6675SOL     OW20923   4.330   3.755   1.751
 6675SOL    HW120924   4.276   3.690   1.805
 6675SOL    HW220925   4.275   3.835   1.731
 6676SOL     OW20926   6.841   4.697   5.704
 6676SOL    HW120927   6.885   4.609   5.722
 6676SOL    HW220928   6.908   4.762   5.669
 6677SOL     OW20929   1.089   1.950   6.162
 6677SOL    HW120930   0.992   1.976   6.157
 6677SOL    HW220931   1.098   1.851   6.152
 6678SOL     OW20932   2.422   3.244   6.920
 6678SOL    HW120933   2.400   3.297   7.002
 6678SOL    HW220934   2.441   3.149   6.946
 6679SOL     OW20935   2.492   2.125   3.965
 6679SOL    HW120936   2.433   2.206   3.974
 6679SOL    HW220937   2.454   2.065   3.895
 6680SOL     OW20938   4.385   0.237   6.256
 6680SOL    HW120939   4.322   0.254   6.331
 6680SOL    HW220940   4.350   0.279   6.172
 6681SOL     OW20941   4.693   5.534   0.768
 6681SOL    HW120942   4.624   5.505   0.701
 6681SOL    HW220943   4.659   5.515   0.861
 6682SOL     OW20944   1.864   4.733   2.801
 6682SOL    HW120945   1.886   4.712   2.706
 6682SOL    HW220946   1.880   4.653   2.858
 6683SOL     OW20947   5.523   3.103   5.471
 6683SOL    HW120948   5.567   3.083   5.384
 6683SOL    HW220949   5.586   3.084   5.546
 6684SOL     OW20950   2.950   6.217   1.171
 6684SOL    HW120951   2.893   6.236   1.091
 6684SOL    HW220952   3.046   6.210   1.143
 6685SOL     OW20953   5.736   3.221   6.269
 6685SOL    HW120954   5.694   3.213   6.179
 6685SOL    HW220955   5.828   3.182   6.266
 6686SOL     OW20956   5.430   5.749   4.696
 6686SOL    HW120957   5.351   5.785   4.646
 6686SOL    HW220958   5.398   5.699   4.777
 6687SOL     OW20959   0.549   2.492   0.893
 6687SOL    HW120960   0.481   2.531   0.831
 6687SOL    HW220961   0.632   2.471   0.842
 6688SOL     OW20962   6.936   4.364   1.938
 6688SOL    HW120963   7.002   4.433   1.970
 6688SOL    HW220964   6.879   4.336   2.015
 6689SOL     OW20965   4.217   3.493   0.177
 6689SOL    HW120966   4.124   3.459   0.165
 6689SOL    HW220967   4.214   3.578   0.230
 6690SOL     OW20968   2.417   1.210   1.194
 6690SOL    HW120969   2.444   1.203   1.290
 6690SOL    HW220970   2.379   1.122   1.164
 6691SOL     OW20971   3.201   6.594   0.994
 6691SOL    HW120972   3.285   6.602   1.048
 6691SOL    HW220973   3.137   6.667   1.021
 6692SOL     OW20974   4.116   3.892   5.502
 6692SOL    HW120975   4.029   3.911   5.548
 6692SOL    HW220976   4.171   3.831   5.559
 6693SOL     OW20977   4.513   3.671   6.044
 6693SOL    HW120978   4.539   3.588   6.093
 6693SOL    HW220979   4.454   3.727   6.102
 6694SOL     OW20980   5.177   5.071   0.502
 6694SOL    HW120981   5.271   5.039   0.503
 6694SOL    HW220982   5.115   4.996   0.526
 6695SOL     OW20983   2.698   1.738   6.614
 6695SOL    HW120984   2.603   1.741   6.644
 6695SOL    HW220985   2.702   1.717   6.516
 6696SOL     OW20986   1.310   3.115   6.696
 6696SOL    HW120987   1.303   3.169   6.612
 6696SOL    HW220988   1.220   3.111   6.741
 6697SOL     OW20989   4.797   2.973   2.905
 6697SOL    HW120990   4.803   2.878   2.936
 6697SOL    HW220991   4.755   2.976   2.815
 6698SOL     OW20992   3.208   2.608   1.064
 6698SOL    HW120993   3.115   2.590   1.095
 6698SOL    HW220994   3.206   2.637   0.968
 6699SOL     OW20995   3.549   5.488   6.321
 6699SOL    HW120996   3.621   5.526   6.262
 6699SOL    HW220997   3.508   5.409   6.276
 6700SOL     OW20998   6.978   6.121   1.152
 6700SOL    HW120999   7.019   6.052   1.092
 6700SOL    HW221000   6.881   6.132   1.129
 6701SOL     OW21001   5.607   2.897   1.371
 6701SOL    HW121002   5.590   2.993   1.395
 6701SOL    HW221003   5.595   2.840   1.452
 6702SOL     OW21004   3.042   2.483   1.691
 6702SOL    HW121005   3.029   2.412   1.622
 6702SOL    HW221006   2.981   2.465   1.769
 6703SOL     OW21007   6.190   2.326   0.215
 6703SOL    HW121008   6.138   2.400   0.173
 6703SOL    HW221009   6.168   2.240   0.169
 6704SOL     OW21010   4.421   1.731   2.524
 6704SOL    HW121011   4.476   1.808   2.491
 6704SOL    HW221012   4.325   1.746   2.501
 6705SOL     OW21013   6.958   2.322   1.381
 6705SOL    HW121014   6.862   2.302   1.361
 6705SOL    HW221015   7.008   2.336   1.295
 6706SOL     OW21016   0.975   4.191   1.813
 6706SOL    HW121017   0.950   4.132   1.890
 6706SOL    HW221018   1.054   4.247   1.838
 6707SOL     OW21019   0.197   6.461   3.453
 6707SOL    HW121020   0.142   6.415   3.522
 6707SOL    HW221021   0.142   6.530   3.406
 6708SOL     OW21022   0.420   5.417   2.649
 6708SOL    HW121023   0.493   5.452   2.591
 6708SOL    HW221024   0.387   5.491   2.709
 6709SOL     OW21025   3.028   6.778   1.833
 6709SOL    HW121026   2.930   6.789   1.815
 6709SOL    HW221027   3.041   6.749   1.927
 6710SOL     OW21028   2.823   0.952   5.575
 6710SOL    HW121029   2.795   1.030   5.630
 6710SOL    HW221030   2.850   0.877   5.635
 6711SOL     OW21031   5.549   4.707   0.034
 6711SOL    HW121032   5.462   4.724   0.081
 6711SOL    HW221033   5.566   4.608   0.030
 6712SOL     OW21034   4.835   5.180   0.462
 6712SOL    HW121035   4.846   5.199   0.560
 6712SOL    HW221036   4.749   5.220   0.430
 6713SOL     OW21037   2.422   1.535   2.009
 6713SOL    HW121038   2.479   1.482   2.072
 6713SOL    HW221039   2.329   1.540   2.045
 6714SOL     OW21040   5.774   0.626   6.797
 6714SOL    HW121041   5.701   0.588   6.854
 6714SOL    HW221042   5.766   0.588   6.704
 6715SOL     OW21043   0.573   0.155   6.621
 6715SOL    HW121044   0.568   0.179   6.525
 6715SOL    HW221045   0.611   0.063   6.631
 6716SOL     OW21046   0.472   5.579   2.144
 6716SOL    HW121047   0.533   5.505   2.117
 6716SOL    HW221048   0.380   5.562   2.108
 6717SOL     OW21049   4.292   3.160   0.650
 6717SOL    HW121050   4.273   3.249   0.692
 6717SOL    HW221051   4.380   3.163   0.603
 6718SOL     OW21052   4.724   6.900   6.128
 6718SOL    HW121053   4.706   6.809   6.090
 6718SOL    HW221054   4.662   6.967   6.088
 6719SOL     OW21055   1.269   6.885   6.100
 6719SOL    HW121056   1.228   6.795   6.113
 6719SOL    HW221057   1.245   6.920   6.009
 6720SOL     OW21058   0.630   5.529   3.365
 6720SOL    HW121059   0.588   5.615   3.393
 6720SOL    HW221060   0.596   5.455   3.422
 6721SOL     OW21061   6.451   0.417   5.390
 6721SOL    HW121062   6.434   0.381   5.481
 6721SOL    HW221063   6.482   0.343   5.330
 6722SOL     OW21064   6.595   3.196   1.726
 6722SOL    HW121065   6.629   3.145   1.805
 6722SOL    HW221066   6.668   3.203   1.658
 6723SOL     OW21067   2.095   6.593   2.575
 6723SOL    HW121068   2.012   6.538   2.569
 6723SOL    HW221069   2.139   6.577   2.664
 6724SOL     OW21070   1.162   3.546   6.018
 6724SOL    HW121071   1.065   3.563   5.998
 6724SOL    HW221072   1.217   3.623   5.987
 6725SOL     OW21073   0.858   4.029   1.020
 6725SOL    HW121074   0.886   4.054   1.113
 6725SOL    HW221075   0.936   3.990   0.971
 6726SOL     OW21076   1.000   2.121   4.899
 6726SOL    HW121077   0.933   2.173   4.847
 6726SOL    HW221078   0.956   2.042   4.943
 6727SOL     OW21079   6.202   3.948   5.771
 6727SOL    HW121080   6.110   3.973   5.742
 6727SOL    HW221081   6.259   3.930   5.690
 6728SOL     OW21082   4.843   1.522   4.365
 6728SOL    HW121083   4.828   1.480   4.275
 6728SOL    HW221084   4.818   1.457   4.437
 6729SOL     OW21085   0.025   1.447   2.097
 6729SOL    HW121086   7.014   1.459   2.004
 6729SOL    HW221087   0.094   1.375   2.098
 6730SOL     OW21088   2.750   6.350   6.550
 6730SOL    HW121089   2.760   6.449   6.542
 6730SOL    HW221090   2.682   6.328   6.619
 6731SOL     OW21091   1.549   4.568   1.150
 6731SOL    HW121092   1.486   4.545   1.076
 6731SOL    HW221093   1.532   4.508   1.228
 6732SOL     OW21094   4.184   5.326   6.248
 6732SOL    HW121095   4.175   5.393   6.174
 6732SOL    HW221096   4.216   5.239   6.210
 6733SOL     OW21097   3.867   5.331   0.767
 6733SOL    HW121098   3.783   5.280   0.784
 6733SOL    HW221099   3.942   5.267   0.751
 6734SOL     OW21100   6.748   2.710   4.846
 6734SOL    HW121101   6.735   2.701   4.944
 6734SOL    HW221102   6.844   2.726   4.826
 6735SOL     OW21103   0.071   5.357   5.152
 6735SOL    HW121104   0.075   5.347   5.053
 6735SOL    HW221105   0.024   5.279   5.192
 6736SOL     OW21106   2.376   3.455   0.084
 6736SOL    HW121107   2.419   3.538   0.046
 6736SOL    HW221108   2.292   3.480   0.132
 6737SOL     OW21109   1.982   2.513   1.099
 6737SOL    HW121110   2.001   2.570   1.020
 6737SOL    HW221111   1.883   2.500   1.109
 6738SOL     OW21112   2.082   4.013   2.372
 6738SOL    HW121113   2.036   4.101   2.370
 6738SOL    HW221114   2.093   3.983   2.467
 6739SOL     OW21115   3.864   5.022   6.210
 6739SOL    HW121116   3.882   5.055   6.118
 6739SOL    HW221117   3.770   4.989   6.216
 6740SOL     OW21118   1.496   1.349   4.608
 6740SOL    HW121119   1.493   1.434   4.557
 6740SOL    HW221120   1.541   1.364   4.696
 6741SOL     OW21121   4.559   1.148   6.137
 6741SOL    HW121122   4.460   1.133   6.143
 6741SOL    HW221123   4.582   1.235   6.180
 6742SOL     OW21124   6.771   5.294   2.644
 6742SOL    HW121125   6.745   5.351   2.722
 6742SOL    HW221126   6.823   5.348   2.578
 6743SOL     OW21127   4.267   4.518   0.512
 6743SOL    HW121128   4.340   4.587   0.521
 6743SOL    HW221129   4.179   4.562   0.528
 6744SOL     OW21130   5.075   5.471   5.419
 6744SOL    HW121131   5.100   5.557   5.373
 6744SOL    HW221132   5.070   5.487   5.518
 6745SOL     OW21133   0.744   6.608   2.051
 6745SOL    HW121134   0.818   6.655   2.099
 6745SOL    HW221135   0.772   6.515   2.028
 6746SOL     OW21136   1.037   1.126   3.221
 6746SOL    HW121137   0.946   1.092   3.195
 6746SOL    HW221138   1.089   1.052   3.264
 6747SOL     OW21139   5.352   6.656   5.064
 6747SOL    HW121140   5.321   6.614   4.978
 6747SOL    HW221141   5.429   6.604   5.101
 6748SOL     OW21142   1.447   0.791   3.073
 6748SOL    HW121143   1.512   0.807   2.999
 6748SOL    HW221144   1.455   0.864   3.141
 6749SOL     OW21145   2.863   5.512   0.216
 6749SOL    HW121146   2.780   5.555   0.182
 6749SOL    HW221147   2.853   5.412   0.215
 6750SOL     OW21148   4.541   0.787   5.026
 6750SOL    HW121149   4.486   0.788   5.109
 6750SOL    HW221150   4.612   0.857   5.032
 6751SOL     OW21151   3.792   1.600   3.722
 6751SOL    HW121152   3.805   1.502   3.734
 6751SOL    HW221153   3.869   1.649   3.761
 6752SOL     OW21154   6.632   3.405   2.563
 6752SOL    HW121155   6.536   3.427   2.583
 6752SOL    HW221156   6.664   3.460   2.487
 6753SOL     OW21157   4.625   0.983   6.350
 6753SOL    HW121158   4.672   0.899   6.377
 6753SOL    HW221159   4.639   1.000   6.252
 6754SOL     OW21160   6.412   1.554   6.573
 6754SOL    HW121161   6.418   1.645   6.532
 6754SOL    HW221162   6.338   1.503   6.530
 6755SOL     OW21163   4.535   1.909   3.375
 6755SOL    HW121164   4.483   1.831   3.411
 6755SOL    HW221165   4.478   1.991   3.377
 6756SOL     OW21166   4.855   4.325   4.393
 6756SOL    HW121167   4.915   4.385   4.341
 6756SOL    HW221168   4.902   4.297   4.477
 6757SOL     OW21169   5.017   6.786   0.875
 6757SOL    HW121170   5.104   6.746   0.900
 6757SOL    HW221171   4.994   6.859   0.940
 6758SOL     OW21172   6.181   3.671   1.405
 6758SOL    HW121173   6.101   3.655   1.346
 6758SOL    HW221174   6.206   3.585   1.449
 6759SOL     OW21175   1.369   3.709   4.594
 6759SOL    HW121176   1.397   3.708   4.498
 6759SOL    HW221177   1.351   3.804   4.622
 6760SOL     OW21178   6.469   4.986   4.836
 6760SOL    HW121179   6.379   4.968   4.876
 6760SOL    HW221180   6.461   4.989   4.736
 6761SOL     OW21181   5.570   2.829   6.415
 6761SOL    HW121182   5.536   2.922   6.429
 6761SOL    HW221183   5.668   2.831   6.399
 6762SOL     OW21184   6.960   5.627   3.517
 6762SOL    HW121185   6.987   5.533   3.497
 6762SOL    HW221186   0.016   5.678   3.553
 6763SOL     OW21187   6.488   5.852   3.612
 6763SOL    HW121188   6.587   5.858   3.630
 6763SOL    HW221189   6.439   5.855   3.699
 6764SOL     OW21190   2.795   4.930   6.840
 6764SOL    HW121191   2.854   4.870   6.786
 6764SOL    HW221192   2.701   4.924   6.806
 6765SOL     OW21193   5.137   5.518   3.619
 6765SOL    HW121194   5.166   5.567   3.538
 6765SOL    HW221195   5.102   5.428   3.593
 6766SOL     OW21196   3.521   6.936   6.747
 6766SOL    HW121197   3.504   6.870   6.821
 6766SOL    HW221198   3.505   0.006   6.781
 6767SOL     OW21199   0.785   2.132   0.784
 6767SOL    HW121200   0.704   2.076   0.765
 6767SOL    HW221201   0.764   2.228   0.766
 6768SOL     OW21202   1.131   6.957   3.751
 6768SOL    HW121203   1.058   6.976   3.817
 6768SOL    HW221204   1.219   6.982   3.791
 6769SOL     OW21205   2.956   0.937   5.180
 6769SOL    HW121206   3.007   0.964   5.098
 6769SOL    HW221207   2.956   1.012   5.246
 6770SOL     OW21208   6.599   2.310   3.715
 6770SOL    HW121209   6.520   2.370   3.727
 6770SOL    HW221210   6.683   2.364   3.714
 6771SOL     OW21211   3.737   2.077   3.266
 6771SOL    HW121212   3.663   2.143   3.275
 6771SOL    HW221213   3.823   2.118   3.298
 6772SOL     OW21214   5.538   1.414   2.436
 6772SOL    HW121215   5.596   1.332   2.434
 6772SOL    HW221216   5.595   1.495   2.452
 6773SOL     OW21217   0.161   6.555   1.084
 6773SOL    HW121218   0.225   6.535   1.158
 6773SOL    HW221219   0.154   6.654   1.072
 6774SOL     OW21220   1.646   2.108   4.803
 6774SOL    HW121221   1.735   2.061   4.807
 6774SOL    HW221222   1.635   2.164   4.885
 6775SOL     OW21223   0.785   2.326   3.453
 6775SOL    HW121224   0.833   2.240   3.470
 6775SOL    HW221225   0.697   2.325   3.500
 6776SOL     OW21226   4.003   3.697   1.777
 6776SOL    HW121227   4.017   3.784   1.730
 6776SOL    HW221228   4.024   3.621   1.715
 6777SOL     OW21229   4.623   5.471   1.030
 6777SOL    HW121230   4.606   5.380   1.068
 6777SOL    HW221231   4.673   5.526   1.098
 6778SOL     OW21232   5.853   3.161   2.714
 6778SOL    HW121233   5.903   3.076   2.695
 6778SOL    HW221234   5.914   3.226   2.759
 6779SOL     OW21235   4.928   4.349   6.404
 6779SOL    HW121236   4.997   4.332   6.475
 6779SOL    HW221237   4.964   4.320   6.315
 6780SOL     OW21238   2.115   3.956   2.634
 6780SOL    HW121239   2.099   3.857   2.639
 6780SOL    HW221240   2.111   3.994   2.726
 6781SOL     OW21241   6.642   1.310   3.489
 6781SOL    HW121242   6.674   1.400   3.458
 6781SOL    HW221243   6.686   1.238   3.436
 6782SOL     OW21244   1.014   0.999   3.557
 6782SOL    HW121245   1.060   0.937   3.493
 6782SOL    HW221246   0.918   1.009   3.530
 6783SOL     OW21247   0.813   4.121   4.773
 6783SOL    HW121248   0.735   4.069   4.739
 6783SOL    HW221249   0.848   4.079   4.856
 6784SOL     OW21250   2.357   4.115   1.706
 6784SOL    HW121251   2.452   4.130   1.680
 6784SOL    HW221252   2.315   4.202   1.733
 6785SOL     OW21253   5.843   4.747   5.779
 6785SOL    HW121254   5.827   4.649   5.775
 6785SOL    HW221255   5.787   4.787   5.852
 6786SOL     OW21256   6.496   2.678   0.124
 6786SOL    HW121257   6.498   2.623   0.208
 6786SOL    HW221258   6.535   2.625   0.049
 6787SOL     OW21259   3.069   2.325   1.341
 6787SOL    HW121260   3.031   2.277   1.419
 6787SOL    HW221261   3.161   2.358   1.364
 6788SOL     OW21262   0.427   3.712   2.501
 6788SOL    HW121263   0.389   3.795   2.542
 6788SOL    HW221264   0.352   3.653   2.471
 6789SOL     OW21265   7.004   4.971   4.836
 6789SOL    HW121266   7.014   4.886   4.889
 6789SOL    HW221267   7.000   4.949   4.739
 6790SOL     OW21268   0.044   4.267   6.440
 6790SOL    HW121269   7.015   4.353   6.442
 6790SOL    HW221270   0.136   4.285   6.407
 6791SOL     OW21271   4.699   1.695   2.959
 6791SOL    HW121272   4.652   1.716   2.874
 6791SOL    HW221273   4.649   1.734   3.036
 6792SOL     OW21274   4.207   6.619   5.609
 6792SOL    HW121275   4.280   6.676   5.572
 6792SOL    HW221276   4.130   6.677   5.636
 6793SOL     OW21277   3.234   1.737   6.989
 6793SOL    HW121278   3.235   1.638   7.006
 6793SOL    HW221279   3.139   1.768   6.981
 6794SOL     OW21280   4.938   1.060   5.543
 6794SOL    HW121281   4.866   1.085   5.478
 6794SOL    HW221282   4.982   1.143   5.577
 6795SOL     OW21283   1.163   6.819   0.761
 6795SOL    HW121284   1.143   6.882   0.836
 6795SOL    HW221285   1.116   6.850   0.678
 6796SOL     OW21286   5.395   1.121   2.014
 6796SOL    HW121287   5.455   1.189   2.056
 6796SOL    HW221288   5.300   1.139   2.040
 6797SOL     OW21289   6.726   2.237   1.281
 6797SOL    HW121290   6.664   2.303   1.323
 6797SOL    HW221291   6.676   2.183   1.214
 6798SOL     OW21292   5.466   0.036   1.787
 6798SOL    HW121293   5.491   6.961   1.792
 6798SOL    HW221294   5.544   0.088   1.752
 6799SOL     OW21295   5.724   0.694   2.683
 6799SOL    HW121296   5.704   0.778   2.733
 6799SOL    HW221297   5.642   0.663   2.635
 6800SOL     OW21298   2.188   2.394   1.604
 6800SOL    HW121299   2.167   2.448   1.522
 6800SOL    HW221300   2.214   2.301   1.576
 6801SOL     OW21301   1.183   6.690   3.795
 6801SOL    HW121302   1.149   6.781   3.774
 6801SOL    HW221303   1.116   6.641   3.850
 6802SOL     OW21304   3.381   5.988   0.587
 6802SOL    HW121305   3.387   6.052   0.664
 6802SOL    HW221306   3.287   5.982   0.555
 6803SOL     OW21307   5.248   3.883   0.012
 6803SOL    HW121308   5.211   3.885   0.105
 6803SOL    HW221309   5.175   3.862   6.970
 6804SOL     OW21310   3.049   5.096   2.929
 6804SOL    HW121311   3.089   5.142   2.850
 6804SOL    HW221312   2.955   5.070   2.908
 6805SOL     OW21313   0.537   4.861   6.507
 6805SOL    HW121314   0.516   4.954   6.477
 6805SOL    HW221315   0.451   4.814   6.531
 6806SOL     OW21316   6.827   1.139   4.324
 6806SOL    HW121317   6.785   1.051   4.347
 6806SOL    HW221318   6.925   1.127   4.309
 6807SOL     OW21319   3.460   3.336   3.341
 6807SOL    HW121320   3.430   3.271   3.410
 6807SOL    HW221321   3.483   3.287   3.257
 6808SOL     OW21322   5.273   1.272   5.160
 6808SOL    HW121323   5.292   1.296   5.255
 6808SOL    HW221324   5.284   1.173   5.147
 6809SOL     OW21325   6.464   3.774   1.049
 6809SOL    HW121326   6.454   3.675   1.033
 6809SOL    HW221327   6.559   3.800   1.033
 6810SOL     OW21328   3.347   0.845   3.485
 6810SOL    HW121329   3.253   0.879   3.478
 6810SOL    HW221330   3.377   0.812   3.396
 6811SOL     OW21331   6.868   2.817   2.630
 6811SOL    HW121332   6.768   2.823   2.624
 6811SOL    HW221333   6.892   2.759   2.709
 6812SOL     OW21334   3.281   3.523   4.391
 6812SOL    HW121335   3.376   3.510   4.419
 6812SOL    HW221336   3.275   3.602   4.329
 6813SOL     OW21337   5.468   3.902   2.318
 6813SOL    HW121338   5.400   3.844   2.362
 6813SOL    HW221339   5.460   3.893   2.218
 6814SOL     OW21340   4.369   1.492   6.658
 6814SOL    HW121341   4.410   1.533   6.739
 6814SOL    HW221342   4.440   1.468   6.593
 6815SOL     OW21343   1.537   5.345   6.591
 6815SOL    HW121344   1.538   5.344   6.491
 6815SOL    HW221345   1.533   5.251   6.625
 6816SOL     OW21346   6.668   1.878   4.475
 6816SOL    HW121347   6.604   1.877   4.399
 6816SOL    HW221348   6.617   1.889   4.561
 6817SOL     OW21349   2.337   2.731   4.227
 6817SOL    HW121350   2.342   2.774   4.317
 6817SOL    HW221351   2.331   2.631   4.238
 6818SOL     OW21352   1.973   6.372   6.088
 6818SOL    HW121353   1.919   6.300   6.045
 6818SOL    HW221354   1.913   6.432   6.142
 6819SOL     OW21355   4.910   6.298   2.667
 6819SOL    HW121356   4.866   6.210   2.679
 6819SOL    HW221357   4.883   6.338   2.579
 6820SOL     OW21358   1.629   6.367   1.519
 6820SOL    HW121359   1.668   6.370   1.611
 6820SOL    HW221360   1.627   6.272   1.487
 6821SOL     OW21361   4.725   2.476   5.423
 6821SOL    HW121362   4.732   2.575   5.409
 6821SOL    HW221363   4.695   2.458   5.516
 6822SOL     OW21364   0.064   2.417   6.431
 6822SOL    HW121365   0.069   2.455   6.339
 6822SOL    HW221366   0.130   2.464   6.490
 6823SOL     OW21367   5.590   3.928   6.488
 6823SOL    HW121368   5.601   4.028   6.483
 6823SOL    HW221369   5.569   3.902   6.582
 6824SOL     OW21370   1.127   1.589   6.858
 6824SOL    HW121371   1.158   1.589   6.953
 6824SOL    HW221372   1.054   1.656   6.847
 6825SOL     OW21373   6.879   6.063   0.806
 6825SOL    HW121374   6.883   6.162   0.813
 6825SOL    HW221375   6.923   6.034   0.720
 6826SOL     OW21376   0.883   3.261   3.207
 6826SOL    HW121377   0.907   3.348   3.250
 6826SOL    HW221378   0.809   3.276   3.141
 6827SOL     OW21379   4.806   4.973   5.806
 6827SOL    HW121380   4.804   4.979   5.706
 6827SOL    HW221381   4.824   4.878   5.832
 6828SOL     OW21382   3.357   1.221   2.764
 6828SOL    HW121383   3.362   1.273   2.679
 6828SOL    HW221384   3.438   1.242   2.820
 6829SOL     OW21385   5.394   0.014   5.259
 6829SOL    HW121386   5.301   0.041   5.233
 6829SOL    HW221387   5.391   6.977   5.339
 6830SOL     OW21388   6.267   1.387   3.493
 6830SOL    HW121389   6.328   1.340   3.556
 6830SOL    HW221390   6.280   1.351   3.401
 6831SOL     OW21391   0.816   1.322   5.744
 6831SOL    HW121392   0.866   1.273   5.672
 6831SOL    HW221393   0.729   1.275   5.761
 6832SOL     OW21394   2.891   3.068   6.985
 6832SOL    HW121395   2.930   3.136   6.924
 6832SOL    HW221396   2.964   3.013   0.003
 6833SOL     OW21397   3.395   5.502   5.954
 6833SOL    HW121398   3.469   5.551   6.000
 6833SOL    HW221399   3.347   5.444   6.020
 6834SOL     OW21400   4.877   0.139   0.757
 6834SOL    HW121401   4.825   0.062   0.720
 6834SOL    HW221402   4.834   0.170   0.842
 6835SOL     OW21403   3.791   1.644   5.197
 6835SOL    HW121404   3.736   1.566   5.225
 6835SOL    HW221405   3.736   1.705   5.139
 6836SOL     OW21406   1.717   4.386   6.494
 6836SOL    HW121407   1.668   4.383   6.581
 6836SOL    HW221408   1.805   4.433   6.507
 6837SOL     OW21409   1.355   1.111   2.716
 6837SOL    HW121410   1.346   1.079   2.810
 6837SOL    HW221411   1.296   1.191   2.702
 6838SOL     OW21412   2.875   4.289   5.348
 6838SOL    HW121413   2.896   4.314   5.443
 6838SOL    HW221414   2.888   4.370   5.290
 6839SOL     OW21415   5.340   1.986   3.660
 6839SOL    HW121416   5.389   1.946   3.738
 6839SOL    HW221417   5.338   2.086   3.669
 6840SOL     OW21418   2.248   6.553   4.994
 6840SOL    HW121419   2.184   6.616   4.951
 6840SOL    HW221420   2.206   6.513   5.076
 6841SOL     OW21421   4.180   4.989   1.579
 6841SOL    HW121422   4.270   4.971   1.619
 6841SOL    HW221423   4.159   4.917   1.512
 6842SOL     OW21424   1.403   2.139   6.346
 6842SOL    HW121425   1.498   2.109   6.348
 6842SOL    HW221426   1.368   2.135   6.252
 6843SOL     OW21427   4.493   0.865   1.676
 6843SOL    HW121428   4.583   0.845   1.637
 6843SOL    HW221429   4.421   0.844   1.610
 6844SOL     OW21430   5.450   5.999   3.967
 6844SOL    HW121431   5.543   5.968   3.943
 6844SOL    HW221432   5.404   5.929   4.021
 6845SOL     OW21433   4.893   3.923   1.921
 6845SOL    HW121434   4.952   3.933   2.002
 6845SOL    HW221435   4.855   3.830   1.919
 6846SOL     OW21436   3.804   3.269   0.940
 6846SOL    HW121437   3.787   3.178   0.978
 6846SOL    HW221438   3.727   3.329   0.960
 6847SOL     OW21439   5.443   4.244   2.187
 6847SOL    HW121440   5.388   4.191   2.251
 6847SOL    HW221441   5.504   4.305   2.237
 6848SOL     OW21442   1.724   5.445   3.764
 6848SOL    HW121443   1.792   5.455   3.691
 6848SOL    HW221444   1.762   5.388   3.837
 6849SOL     OW21445   3.302   5.745   4.054
 6849SOL    HW121446   3.223   5.713   4.002
 6849SOL    HW221447   3.355   5.667   4.087
 6850SOL     OW21448   5.576   2.658   3.025
 6850SOL    HW121449   5.480   2.650   3.000
 6850SOL    HW221450   5.625   2.710   2.955
 6851SOL     OW21451   1.686   4.642   4.690
 6851SOL    HW121452   1.767   4.583   4.695
 6851SOL    HW221453   1.631   4.615   4.611
 6852SOL     OW21454   1.016   4.383   1.155
 6852SOL    HW121455   1.073   4.345   1.082
 6852SOL    HW221456   0.921   4.385   1.126
 6853SOL     OW21457   6.603   4.190   0.078
 6853SOL    HW121458   6.636   4.120   0.014
 6853SOL    HW221459   6.665   4.195   0.156
 6854SOL     OW21460   5.588   0.894   6.013
 6854SOL    HW121461   5.508   0.835   6.027
 6854SOL    HW221462   5.576   0.946   5.929
 6855SOL     OW21463   3.505   6.649   2.930
 6855SOL    HW121464   3.531   6.695   3.015
 6855SOL    HW221465   3.483   6.718   2.861
 6856SOL     OW21466   5.049   4.756   5.592
 6856SOL    HW121467   4.977   4.720   5.653
 6856SOL    HW221468   5.011   4.831   5.538
 6857SOL     OW21469   3.176   0.969   6.386
 6857SOL    HW121470   3.085   0.953   6.346
 6857SOL    HW221471   3.182   0.922   6.474
 6858SOL     OW21472   4.157   3.322   4.954
 6858SOL    HW121473   4.244   3.274   4.942
 6858SOL    HW221474   4.086   3.275   4.901
 6859SOL     OW21475   1.381   6.283   0.886
 6859SOL    HW121476   1.306   6.251   0.829
 6859SOL    HW221477   1.415   6.370   0.850
 6860SOL     OW21478   5.939   4.907   2.452
 6860SOL    HW121479   5.850   4.861   2.448
 6860SOL    HW221480   5.973   4.921   2.359
 6861SOL     OW21481   5.931   3.900   1.237
 6861SOL    HW121482   5.933   3.803   1.260
 6861SOL    HW221483   5.837   3.934   1.239
 6862SOL     OW21484   2.476   4.550   4.535
 6862SOL    HW121485   2.431   4.460   4.537
 6862SOL    HW221486   2.523   4.566   4.621
 6863SOL     OW21487   5.732   1.480   5.019
 6863SOL    HW121488   5.675   1.407   5.057
 6863SOL    HW221489   5.756   1.458   4.924
 6864SOL     OW21490   3.565   5.903   3.991
 6864SOL    HW121491   3.484   5.877   4.043
 6864SOL    HW221492   3.613   5.977   4.038
 6865SOL     OW21493   6.173   4.979   3.304
 6865SOL    HW121494   6.164   4.955   3.208
 6865SOL    HW221495   6.224   5.065   3.313
 6866SOL     OW21496   6.092   4.260   1.845
 6866SOL    HW121497   6.116   4.348   1.805
 6866SOL    HW221498   6.000   4.234   1.815
 6867SOL     OW21499   1.162   4.616   1.260
 6867SOL    HW121500   1.247   4.569   1.282
 6867SOL    HW221501   1.096   4.550   1.223
 6868SOL     OW21502   1.812   5.679   4.958
 6868SOL    HW121503   1.786   5.679   4.862
 6868SOL    HW221504   1.902   5.722   4.969
 6869SOL     OW21505   5.855   2.824   5.503
 6869SOL    HW121506   5.911   2.866   5.433
 6869SOL    HW221507   5.819   2.737   5.469
 6870SOL     OW21508   6.251   3.872   2.627
 6870SOL    HW121509   6.246   3.839   2.533
 6870SOL    HW221510   6.287   3.965   2.628
 6871SOL     OW21511   6.229   4.775   1.940
 6871SOL    HW121512   6.287   4.696   1.961
 6871SOL    HW221513   6.180   4.758   1.854
 6872SOL     OW21514   2.012   3.197   1.348
 6872SOL    HW121515   1.926   3.240   1.322
 6872SOL    HW221516   2.089   3.254   1.319
 6873SOL     OW21517   5.785   3.448   5.623
 6873SOL    HW121518   5.769   3.367   5.680
 6873SOL    HW221519   5.736   3.437   5.536
 6874SOL     OW21520   0.547   4.184   3.486
 6874SOL    HW121521   0.558   4.101   3.540
 6874SOL    HW221522   0.479   4.243   3.529
 6875SOL     OW21523   1.886   2.075   3.574
 6875SOL    HW121524   1.918   2.089   3.480
 6875SOL    HW221525   1.964   2.053   3.632
 6876SOL     OW21526   3.737   5.015   6.605
 6876SOL    HW121527   3.712   4.918   6.598
 6876SOL    HW221528   3.799   5.040   6.531
 6877SOL     OW21529   2.450   4.121   6.815
 6877SOL    HW121530   2.381   4.081   6.875
 6877SOL    HW221531   2.532   4.063   6.815
 6878SOL     OW21532   2.362   2.151   5.546
 6878SOL    HW121533   2.458   2.172   5.524
 6878SOL    HW221534   2.307   2.234   5.535
 6879SOL     OW21535   1.059   1.880   0.095
 6879SOL    HW121536   0.976   1.837   0.061
 6879SOL    HW221537   1.041   1.975   0.118
 6880SOL     OW21538   2.293   3.453   5.208
 6880SOL    HW121539   2.214   3.514   5.209
 6880SOL    HW221540   2.267   3.366   5.166
 6881SOL     OW21541   6.644   4.464   2.296
 6881SOL    HW121542   6.628   4.440   2.392
 6881SOL    HW221543   6.564   4.439   2.241
 6882SOL     OW21544   2.124   0.546   5.700
 6882SOL    HW121545   2.192   0.486   5.658
 6882SOL    HW221546   2.159   0.577   5.789
 6883SOL     OW21547   3.474   0.901   1.035
 6883SOL    HW121548   3.538   0.976   1.047
 6883SOL    HW221549   3.487   0.834   1.109
 6884SOL     OW21550   1.961   3.805   4.393
 6884SOL    HW121551   2.036   3.838   4.450
 6884SOL    HW221552   1.875   3.815   4.443
 6885SOL     OW21553   3.274   5.448   3.916
 6885SOL    HW121554   3.283   5.349   3.907
 6885SOL    HW221555   3.318   5.478   4.000
 6886SOL     OW21556   6.744   1.204   2.500
 6886SOL    HW121557   6.807   1.144   2.452
 6886SOL    HW221558   6.789   1.291   2.519
 6887SOL     OW21559   4.938   6.674   5.610
 6887SOL    HW121560   4.886   6.683   5.525
 6887SOL    HW221561   5.028   6.634   5.589
 6888SOL     OW21562   5.705   6.289   6.368
 6888SOL    HW121563   5.739   6.382   6.355
 6888SOL    HW221564   5.667   6.280   6.460
 6889SOL     OW21565   0.848   2.767   5.542
 6889SOL    HW121566   0.773   2.724   5.592
 6889SOL    HW221567   0.903   2.696   5.498
 6890SOL     OW21568   2.702   5.995   0.939
 6890SOL    HW121569   2.756   6.077   0.957
 6890SOL    HW221570   2.638   5.979   1.014
 6891SOL     OW21571   2.155   3.967   4.856
 6891SOL    HW121572   2.159   3.873   4.890
 6891SOL    HW221573   2.226   4.022   4.900
 6892SOL     OW21574   3.933   0.816   3.738
 6892SOL    HW121575   3.913   0.865   3.653
 6892SOL    HW221576   4.016   0.762   3.727
 6893SOL     OW21577   5.717   6.363   1.316
 6893SOL    HW121578   5.722   6.462   1.318
 6893SOL    HW221579   5.792   6.326   1.261
 6894SOL     OW21580   6.425   5.781   6.932
 6894SOL    HW121581   6.357   5.802   7.003
 6894SOL    HW221582   6.403   5.832   6.849
 6895SOL     OW21583   2.822   5.250   0.176
 6895SOL    HW121584   2.874   5.165   0.179
 6895SOL    HW221585   2.786   5.264   0.084
 6896SOL     OW21586   3.354   6.992   4.085
 6896SOL    HW121587   3.409   0.012   4.157
 6896SOL    HW221588   3.414   6.946   4.020
 6897SOL     OW21589   2.770   4.107   6.579
 6897SOL    HW121590   2.729   4.080   6.666
 6897SOL    HW221591   2.783   4.206   6.578
 6898SOL     OW21592   3.647   1.935   1.746
 6898SOL    HW121593   3.732   1.984   1.766
 6898SOL    HW221594   3.591   1.932   1.829
 6899SOL     OW21595   4.627   6.907   0.194
 6899SOL    HW121596   4.552   6.871   0.139
 6899SOL    HW221597   4.685   6.832   0.224
 6900SOL     OW21598   6.014   0.719   6.228
 6900SOL    HW121599   6.010   0.685   6.322
 6900SOL    HW221600   5.921   0.736   6.195
 6901SOL     OW21601   0.526   0.225   6.363
 6901SOL    HW121602   0.492   0.162   6.293
 6901SOL    HW221603   0.573   0.301   6.318
 6902SOL     OW21604   0.171   5.884   0.733
 6902SOL    HW121605   0.269   5.867   0.743
 6902SOL    HW221606   0.124   5.798   0.714
 6903SOL     OW21607   4.042   4.374   5.925
 6903SOL    HW121608   4.056   4.277   5.907
 6903SOL    HW221609   3.944   4.394   5.926
 6904SOL     OW21610   6.938   1.387   3.962
 6904SOL    HW121611   6.870   1.314   3.952
 6904SOL    HW221612   6.949   1.410   4.059
 6905SOL     OW21613   6.639   6.747   6.790
 6905SOL    HW121614   6.544   6.721   6.809
 6905SOL    HW221615   6.699   6.703   6.856
 6906SOL     OW21616   4.336   1.130   4.093
 6906SOL    HW121617   4.401   1.099   4.023
 6906SOL    HW221618   4.370   1.103   4.183
 6907SOL     OW21619   4.544   1.365   1.176
 6907SOL    HW121620   4.514   1.296   1.111
 6907SOL    HW221621   4.527   1.332   1.269
 6908SOL     OW21622   1.225   6.964   5.326
 6908SOL    HW121623   1.230   7.006   5.236
 6908SOL    HW221624   1.165   6.884   5.322
 6909SOL     OW21625   5.215   4.672   0.992
 6909SOL    HW121626   5.261   4.695   1.078
 6909SOL    HW221627   5.270   4.604   0.942
 6910SOL     OW21628   6.565   2.326   2.763
 6910SOL    HW121629   6.634   2.274   2.814
 6910SOL    HW221630   6.610   2.401   2.713
 6911SOL     OW21631   3.786   6.903   3.016
 6911SOL    HW121632   3.742   6.964   2.950
 6911SOL    HW221633   3.716   6.847   3.061
 6912SOL     OW21634   4.761   5.020   1.617
 6912SOL    HW121635   4.693   4.979   1.556
 6912SOL    HW221636   4.766   4.967   1.702
 6913SOL     OW21637   5.179   4.984   5.291
 6913SOL    HW121638   5.217   5.074   5.313
 6913SOL    HW221639   5.112   4.993   5.218
 6914SOL     OW21640   6.527   4.723   6.868
 6914SOL    HW121641   6.529   4.670   6.782
 6914SOL    HW221642   6.582   4.675   6.937
 6915SOL     OW21643   6.860   4.656   1.749
 6915SOL    HW121644   6.906   4.653   1.838
 6915SOL    HW221645   6.872   4.746   1.708
 6916SOL     OW21646   6.210   3.766   0.175
 6916SOL    HW121647   6.225   3.671   0.150
 6916SOL    HW221648   6.232   3.825   0.098
 6917SOL     OW21649   3.554   5.324   0.484
 6917SOL    HW121650   3.549   5.296   0.579
 6917SOL    HW221651   3.589   5.248   0.429
 6918SOL     OW21652   1.040   4.106   4.209
 6918SOL    HW121653   1.008   4.083   4.301
 6918SOL    HW221654   1.126   4.057   4.192
 6919SOL     OW21655   0.615   5.802   3.449
 6919SOL    HW121656   0.707   5.838   3.433
 6919SOL    HW221657   0.547   5.872   3.428
 6920SOL     OW21658   4.098   5.454   5.714
 6920SOL    HW121659   4.015   5.406   5.684
 6920SOL    HW221660   4.108   5.539   5.662
 6921SOL     OW21661   5.127   5.893   3.135
 6921SOL    HW121662   5.195   5.943   3.081
 6921SOL    HW221663   5.049   5.952   3.154
 6922SOL     OW21664   1.519   6.031   6.622
 6922SOL    HW121665   1.518   5.937   6.655
 6922SOL    HW221666   1.568   6.035   6.535
 6923SOL     OW21667   5.449   0.134   3.365
 6923SOL    HW121668   5.459   0.117   3.267
 6923SOL    HW221669   5.505   0.069   3.416
 6924SOL     OW21670   0.558   4.351   6.496
 6924SOL    HW121671   0.488   4.282   6.514
 6924SOL    HW221672   0.541   4.394   6.407
 6925SOL     OW21673   3.612   6.030   4.243
 6925SOL    HW121674   3.562   6.097   4.298
 6925SOL    HW221675   3.638   5.952   4.301
 6926SOL     OW21676   3.327   3.179   2.323
 6926SOL    HW121677   3.258   3.199   2.253
 6926SOL    HW221678   3.294   3.105   2.381
 6927SOL     OW21679   6.058   3.621   5.988
 6927SOL    HW121680   6.116   3.702   5.980
 6927SOL    HW221681   6.029   3.591   5.897
 6928SOL     OW21682   6.322   6.715   1.032
 6928SOL    HW121683   6.295   6.653   0.958
 6928SOL    HW221684   6.261   6.794   1.033
 6929SOL     OW21685   4.964   5.498   0.843
 6929SOL    HW121686   4.878   5.514   0.796
 6929SOL    HW221687   4.992   5.402   0.830
 6930SOL     OW21688   0.176   6.712   1.675
 6930SOL    HW121689   0.150   6.668   1.761
 6930SOL    HW221690   0.094   6.750   1.632
 6931SOL     OW21691   0.842   0.681   2.225
 6931SOL    HW121692   0.856   0.682   2.126
 6931SOL    HW221693   0.905   0.746   2.268
 6932SOL     OW21694   4.227   1.336   0.683
 6932SOL    HW121695   4.295   1.275   0.640
 6932SOL    HW221696   4.258   1.431   0.675
 6933SOL     OW21697   3.511   6.387   5.366
 6933SOL    HW121698   3.548   6.428   5.449
 6933SOL    HW221699   3.476   6.460   5.307
 6934SOL     OW21700   4.559   4.202   5.707
 6934SOL    HW121701   4.630   4.140   5.738
 6934SOL    HW221702   4.553   4.200   5.607
 6935SOL     OW21703   4.231   6.146   3.296
 6935SOL    HW121704   4.221   6.131   3.394
 6935SOL    HW221705   4.255   6.242   3.279
 6936SOL     OW21706   6.566   2.500   2.347
 6936SOL    HW121707   6.485   2.544   2.308
 6936SOL    HW221708   6.567   2.404   2.321
 6937SOL     OW21709   6.417   6.627   6.897
 6937SOL    HW121710   6.460   6.573   6.969
 6937SOL    HW221711   6.404   6.570   6.816
 6938SOL     OW21712   4.948   4.122   5.482
 6938SOL    HW121713   5.042   4.106   5.511
 6938SOL    HW221714   4.897   4.037   5.482
 6939SOL     OW21715   6.907   4.440   2.215
 6939SOL    HW121716   6.819   4.416   2.255
 6939SOL    HW221717   6.897   4.521   2.157
 6940SOL     OW21718   5.030   1.417   0.453
 6940SOL    HW121719   5.002   1.329   0.415
 6940SOL    HW221720   5.101   1.457   0.395
 6941SOL     OW21721   3.899   2.966   3.055
 6941SOL    HW121722   3.969   2.895   3.054
 6941SOL    HW221723   3.942   3.056   3.046
 6942SOL     OW21724   6.622   2.919   0.675
 6942SOL    HW121725   6.662   2.864   0.748
 6942SOL    HW221726   6.524   2.900   0.669
 6943SOL     OW21727   4.662   6.192   0.146
 6943SOL    HW121728   4.630   6.249   0.222
 6943SOL    HW221729   4.760   6.176   0.156
 6944SOL     OW21730   1.211   4.628   5.628
 6944SOL    HW121731   1.262   4.610   5.544
 6944SOL    HW221732   1.275   4.657   5.700
 6945SOL     OW21733   5.886   2.958   6.459
 6945SOL    HW121734   5.918   2.930   6.369
 6945SOL    HW221735   5.961   2.952   6.525
 6946SOL     OW21736   6.253   6.028   2.309
 6946SOL    HW121737   6.251   5.966   2.387
 6946SOL    HW221738   6.347   6.036   2.275
 6947SOL     OW21739   3.407   0.047   4.779
 6947SOL    HW121740   3.402   7.011   4.697
 6947SOL    HW221741   3.315   0.081   4.800
 6948SOL     OW21742   6.227   0.706   0.539
 6948SOL    HW121743   6.199   0.641   0.469
 6948SOL    HW221744   6.170   0.694   0.621
 6949SOL     OW21745   5.599   0.165   4.142
 6949SOL    HW121746   5.602   0.159   4.242
 6949SOL    HW221747   5.514   0.209   4.114
 6950SOL     OW21748   2.547   0.006   2.965
 6950SOL    HW121749   2.608   0.085   2.973
 6950SOL    HW221750   2.472   0.016   3.030
 6951SOL     OW21751   5.657   5.976   6.091
 6951SOL    HW121752   5.755   5.988   6.077
 6951SOL    HW221753   5.636   5.879   6.099
 6952SOL     OW21754   6.707   6.053   3.500
 6952SOL    HW121755   6.739   6.107   3.423
 6952SOL    HW221756   6.675   6.114   3.573
 6953SOL     OW21757   5.022   6.906   6.990
 6953SOL    HW121758   5.079   6.917   6.909
 6953SOL    HW221759   4.965   6.987   7.003
 6954SOL     OW21760   0.982   3.618   4.074
 6954SOL    HW121761   1.012   3.690   4.011
 6954SOL    HW221762   0.936   3.659   4.153
 6955SOL     OW21763   6.692   0.268   2.487
 6955SOL    HW121764   6.667   0.353   2.442
 6955SOL    HW221765   6.693   0.193   2.421
 6956SOL     OW21766   4.588   6.319   2.588
 6956SOL    HW121767   4.629   6.238   2.628
 6956SOL    HW221768   4.573   6.303   2.490
 6957SOL     OW21769   6.108   4.762   1.653
 6957SOL    HW121770   6.017   4.794   1.627
 6957SOL    HW221771   6.177   4.811   1.600
 6958SOL     OW21772   3.052   3.856   5.338
 6958SOL    HW121773   3.110   3.813   5.408
 6958SOL    HW221774   3.063   3.807   5.251
 6959SOL     OW21775   2.615   0.947   4.493
 6959SOL    HW121776   2.566   0.863   4.514
 6959SOL    HW221777   2.569   1.024   4.536
 6960SOL     OW21778   0.980   5.356   0.791
 6960SOL    HW121779   1.077   5.347   0.770
 6960SOL    HW221780   0.932   5.272   0.765
 6961SOL     OW21781   0.167   2.924   4.376
 6961SOL    HW121782   0.151   3.006   4.322
 6961SOL    HW221783   0.219   2.858   4.321
 6962SOL     OW21784   5.092   5.252   2.488
 6962SOL    HW121785   5.005   5.290   2.455
 6962SOL    HW221786   5.103   5.275   2.585
 6963SOL     OW21787   6.893   5.449   0.639
 6963SOL    HW121788   6.906   5.350   0.630
 6963SOL    HW221789   6.863   5.487   0.551
 6964SOL     OW21790   4.758   4.893   4.180
 6964SOL    HW121791   4.833   4.890   4.247
 6964SOL    HW221792   4.783   4.838   4.101
 6965SOL     OW21793   0.972   3.743   5.710
 6965SOL    HW121794   0.902   3.777   5.647
 6965SOL    HW221795   0.927   3.695   5.786
 6966SOL     OW21796   6.531   2.549   3.269
 6966SOL    HW121797   6.464   2.602   3.215
 6966SOL    HW221798   6.516   2.452   3.255
 6967SOL     OW21799   1.847   1.293   5.263
 6967SOL    HW121800   1.792   1.338   5.333
 6967SOL    HW221801   1.939   1.331   5.263
 6968SOL     OW21802   3.579   6.617   2.489
 6968SOL    HW121803   3.667   6.600   2.534
 6968SOL    HW221804   3.560   6.544   2.423
 6969SOL     OW21805   3.459   2.027   1.466
 6969SOL    HW121806   3.412   1.944   1.437
 6969SOL    HW221807   3.547   2.034   1.418
 6970SOL     OW21808   4.724   3.586   0.453
 6970SOL    HW121809   4.767   3.536   0.529
 6970SOL    HW221810   4.631   3.553   0.441
 6971SOL     OW21811   6.467   4.161   2.116
 6971SOL    HW121812   6.434   4.076   2.157
 6971SOL    HW221813   6.472   4.150   2.017
 6972SOL     OW21814   5.624   5.391   4.406
 6972SOL    HW121815   5.603   5.309   4.353
 6972SOL    HW221816   5.540   5.425   4.449
 6973SOL     OW21817   0.890   4.035   5.276
 6973SOL    HW121818   0.960   4.106   5.281
 6973SOL    HW221819   0.838   4.044   5.191
 6974SOL     OW21820   3.274   3.147   2.873
 6974SOL    HW121821   3.313   3.137   2.782
 6974SOL    HW221822   3.216   3.229   2.876
 6975SOL     OW21823   2.957   0.143   6.222
 6975SOL    HW121824   2.918   0.107   6.137
 6975SOL    HW221825   2.968   0.068   6.287
 6976SOL     OW21826   4.208   4.822   5.952
 6976SOL    HW121827   4.230   4.726   5.938
 6976SOL    HW221828   4.150   4.854   5.877
 6977SOL     OW21829   5.075   2.283   1.697
 6977SOL    HW121830   5.054   2.380   1.709
 6977SOL    HW221831   5.166   2.264   1.735
 6978SOL     OW21832   6.203   2.161   1.229
 6978SOL    HW121833   6.237   2.126   1.316
 6978SOL    HW221834   6.268   2.227   1.192
 6979SOL     OW21835   1.236   5.288   0.710
 6979SOL    HW121836   1.201   5.209   0.660
 6979SOL    HW221837   1.335   5.297   0.693
 6980SOL     OW21838   1.952   0.749   3.454
 6980SOL    HW121839   1.909   0.746   3.364
 6980SOL    HW221840   1.934   0.665   3.504
 6981SOL     OW21841   2.239   3.132   6.754
 6981SOL    HW121842   2.297   3.146   6.834
 6981SOL    HW221843   2.209   3.220   6.718
 6982SOL     OW21844   0.882   1.402   4.120
 6982SOL    HW121845   0.871   1.400   4.220
 6982SOL    HW221846   0.971   1.363   4.096
 6983SOL     OW21847   5.783   2.187   3.740
 6983SOL    HW121848   5.772   2.256   3.811
 6983SOL    HW221849   5.701   2.185   3.682
 6984SOL     OW21850   2.030   2.311   4.611
 6984SOL    HW121851   1.943   2.267   4.631
 6984SOL    HW221852   2.049   2.303   4.513
 6985SOL     OW21853   3.832   5.303   1.725
 6985SOL    HW121854   3.769   5.230   1.753
 6985SOL    HW221855   3.926   5.271   1.734
 6986SOL     OW21856   1.860   6.490   6.386
 6986SOL    HW121857   1.936   6.433   6.417
 6986SOL    HW221858   1.884   6.587   6.395
 6987SOL     OW21859   1.126   1.649   6.004
 6987SOL    HW121860   1.213   1.663   6.051
 6987SOL    HW221861   1.136   1.675   5.908
 6988SOL     OW21862   6.196   0.893   5.184
 6988SOL    HW121863   6.098   0.882   5.167
 6988SOL    HW221864   6.234   0.809   5.223
 6989SOL     OW21865   0.407   3.522   3.609
 6989SOL    HW121866   0.420   3.621   3.602
 6989SOL    HW221867   0.460   3.487   3.686
 6990SOL     OW21868   5.300   1.980   0.345
 6990SOL    HW121869   5.305   2.079   0.359
 6990SOL    HW221870   5.354   1.955   0.265
 6991SOL     OW21871   2.454   4.595   3.826
 6991SOL    HW121872   2.486   4.638   3.911
 6991SOL    HW221873   2.390   4.656   3.780
 6992SOL     OW21874   5.955   6.328   4.944
 6992SOL    HW121875   5.921   6.235   4.933
 6992SOL    HW221876   5.886   6.384   4.989
 6993SOL     OW21877   6.847   0.602   2.118
 6993SOL    HW121878   6.872   0.695   2.146
 6993SOL    HW221879   6.755   0.602   2.079
 6994SOL     OW21880   0.738   2.902   4.788
 6994SOL    HW121881   0.755   2.986   4.839
 6994SOL    HW221882   0.813   2.886   4.724
 6995SOL     OW21883   6.279   5.366   5.555
 6995SOL    HW121884   6.190   5.378   5.598
 6995SOL    HW221885   6.278   5.284   5.498
 6996SOL     OW21886   2.003   0.938   4.966
 6996SOL    HW121887   1.971   0.939   4.871
 6996SOL    HW221888   2.035   0.846   4.988
 6997SOL     OW21889   5.719   5.880   5.127
 6997SOL    HW121890   5.699   5.880   5.225
 6997SOL    HW221891   5.818   5.877   5.112
 6998SOL     OW21892   1.897   2.085   2.087
 6998SOL    HW121893   1.907   2.078   1.988
 6998SOL    HW221894   1.923   2.176   2.118
 6999SOL     OW21895   2.141   2.065   6.868
 6999SOL    HW121896   2.225   2.064   6.813
 6999SOL    HW221897   2.133   1.979   6.919
 7000SOL     OW21898   6.515   5.338   2.770
 7000SOL    HW121899   6.541   5.367   2.677
 7000SOL    HW221900   6.557   5.399   2.837
 7001SOL     OW21901   2.688   3.001   5.321
 7001SOL    HW121902   2.620   2.995   5.248
 7001SOL    HW221903   2.646   3.038   5.404
 7002SOL     OW21904   2.096   5.121   2.731
 7002SOL    HW121905   2.193   5.098   2.742
 7002SOL    HW221906   2.041   5.063   2.790
 7003SOL     OW21907   3.740   5.789   0.303
 7003SOL    HW121908   3.652   5.742   0.296
 7003SOL    HW221909   3.725   5.884   0.332
 7004SOL     OW21910   2.154   4.984   1.833
 7004SOL    HW121911   2.067   4.941   1.860
 7004SOL    HW221912   2.221   4.971   1.906
 7005SOL     OW21913   0.657   6.287   6.206
 7005SOL    HW121914   0.719   6.231   6.151
 7005SOL    HW221915   0.670   6.383   6.184
 7006SOL     OW21916   5.388   4.770   4.977
 7006SOL    HW121917   5.336   4.830   4.916
 7006SOL    HW221918   5.335   4.753   5.060
 7007SOL     OW21919   4.824   6.968   3.430
 7007SOL    HW121920   4.888   6.929   3.496
 7007SOL    HW221921   4.732   6.932   3.447
 7008SOL     OW21922   1.789   5.514   4.414
 7008SOL    HW121923   1.871   5.482   4.366
 7008SOL    HW221924   1.816   5.561   4.498
 7009SOL     OW21925   5.723   5.698   2.354
 7009SOL    HW121926   5.732   5.771   2.286
 7009SOL    HW221927   5.779   5.720   2.434
 7010SOL     OW21928   4.366   3.709   5.790
 7010SOL    HW121929   4.429   3.715   5.868
 7010SOL    HW221930   4.272   3.722   5.821
 7011SOL     OW21931   2.071   0.603   6.531
 7011SOL    HW121932   2.131   0.666   6.580
 7011SOL    HW221933   2.070   0.626   6.434
 7012SOL     OW21934   1.979   0.860   2.233
 7012SOL    HW121935   2.028   0.879   2.318
 7012SOL    HW221936   2.031   0.795   2.178
 7013SOL     OW21937   0.392   6.517   0.926
 7013SOL    HW121938   0.320   6.526   0.995
 7013SOL    HW221939   0.352   6.483   0.840
 7014SOL     OW21940   4.770   2.817   1.482
 7014SOL    HW121941   4.827   2.861   1.413
 7014SOL    HW221942   4.757   2.721   1.458
 7015SOL     OW21943   5.748   5.164   2.461
 7015SOL    HW121944   5.709   5.092   2.403
 7015SOL    HW221945   5.813   5.123   2.525
 7016SOL     OW21946   3.850   4.842   2.198
 7016SOL    HW121947   3.933   4.847   2.142
 7016SOL    HW221948   3.773   4.814   2.141
 7017SOL     OW21949   1.827   6.661   2.247
 7017SOL    HW121950   1.914   6.706   2.268
 7017SOL    HW221951   1.755   6.697   2.306
 7018SOL     OW21952   6.257   4.481   5.127
 7018SOL    HW121953   6.326   4.553   5.136
 7018SOL    HW221954   6.259   4.423   5.208
 7019SOL     OW21955   3.180   4.493   6.809
 7019SOL    HW121956   3.201   4.457   6.718
 7019SOL    HW221957   3.237   4.573   6.827
 7020SOL     OW21958   6.157   6.775   6.520
 7020SOL    HW121959   6.143   6.792   6.618
 7020SOL    HW221960   6.253   6.755   6.503
 7021SOL     OW21961   2.154   1.213   5.302
 7021SOL    HW121962   2.243   1.173   5.280
 7021SOL    HW221963   2.159   1.312   5.292
 7022SOL     OW21964   4.577   5.224   1.100
 7022SOL    HW121965   4.480   5.225   1.125
 7022SOL    HW221966   4.630   5.181   1.173
 7023SOL     OW21967   0.551   2.279   3.596
 7023SOL    HW121968   0.520   2.373   3.581
 7023SOL    HW221969   0.520   2.248   3.686
 7024SOL     OW21970   1.597   5.274   5.883
 7024SOL    HW121971   1.537   5.212   5.933
 7024SOL    HW221972   1.661   5.220   5.828
 7025SOL     OW21973   2.806   1.002   6.840
 7025SOL    HW121974   2.847   0.922   6.797
 7025SOL    HW221975   2.863   1.033   6.916
 7026SOL     OW21976   2.893   1.743   2.136
 7026SOL    HW121977   2.892   1.726   2.235
 7026SOL    HW221978   2.810   1.792   2.110
 7027SOL     OW21979   2.714   4.788   3.113
 7027SOL    HW121980   2.674   4.697   3.118
 7027SOL    HW221981   2.762   4.808   3.199
 7028SOL     OW21982   6.255   6.999   4.428
 7028SOL    HW121983   6.187   0.049   4.434
 7028SOL    HW221984   6.312   7.000   4.510
 7029SOL     OW21985   4.131   6.447   6.627
 7029SOL    HW121986   4.118   6.467   6.725
 7029SOL    HW221987   4.063   6.380   6.598
 7030SOL     OW21988   6.343   2.455   5.758
 7030SOL    HW121989   6.289   2.537   5.778
 7030SOL    HW221990   6.283   2.382   5.726
 7031SOL     OW21991   2.267   6.164   4.572
 7031SOL    HW121992   2.337   6.136   4.637
 7031SOL    HW221993   2.209   6.085   4.550
 7032SOL     OW21994   3.775   6.509   3.770
 7032SOL    HW121995   3.803   6.510   3.674
 7032SOL    HW221996   3.693   6.452   3.779
 7033SOL     OW21997   0.185   1.987   3.741
 7033SOL    HW121998   0.144   2.063   3.691
 7033SOL    HW221999   0.116   1.947   3.803
 7034SOL     OW22000   6.453   0.709   2.716
 7034SOL    HW122001   6.532   0.648   2.712
 7034SOL    HW222002   6.415   0.720   2.624
 7035SOL     OW22003   1.282   6.746   1.735
 7035SOL    HW122004   1.230   6.802   1.669
 7035SOL    HW222005   1.318   6.806   1.807
 7036SOL     OW22006   6.962   0.529   1.765
 7036SOL    HW122007   6.957   0.580   1.679
 7036SOL    HW222008   0.035   0.513   1.789
 7037SOL     OW22009   1.162   0.777   6.206
 7037SOL    HW122010   1.219   0.714   6.260
 7037SOL    HW222011   1.068   0.773   6.238
 7038SOL     OW22012   1.429   3.209   4.215
 7038SOL    HW122013   1.396   3.200   4.309
 7038SOL    HW222014   1.391   3.292   4.174
 7039SOL     OW22015   3.022   5.336   1.088
 7039SOL    HW122016   2.962   5.416   1.082
 7039SOL    HW222017   3.008   5.278   1.008
 7040SOL     OW22018   5.751   1.742   5.004
 7040SOL    HW122019   5.672   1.778   4.955
 7040SOL    HW222020   5.742   1.643   5.014
 7041SOL     OW22021   0.537   1.986   2.918
 7041SOL    HW122022   0.546   2.040   2.835
 7041SOL    HW222023   0.444   1.995   2.954
 7042SOL     OW22024   5.515   5.329   6.831
 7042SOL    HW122025   5.599   5.277   6.816
 7042SOL    HW222026   5.520   5.378   6.918
 7043SOL     OW22027   2.128   3.037   3.500
 7043SOL    HW122028   2.163   2.954   3.543
 7043SOL    HW222029   2.147   3.035   3.402
 7044SOL     OW22030   4.913   4.740   2.580
 7044SOL    HW122031   4.926   4.785   2.668
 7044SOL    HW222032   4.815   4.722   2.566
 7045SOL     OW22033   4.978   5.633   2.222
 7045SOL    HW122034   5.039   5.685   2.162
 7045SOL    HW222035   5.014   5.540   2.233
 7046SOL     OW22036   3.569   1.876   3.434
 7046SOL    HW122037   3.659   1.898   3.396
 7046SOL    HW222038   3.536   1.953   3.489
 7047SOL     OW22039   0.907   2.308   2.619
 7047SOL    HW122040   0.936   2.391   2.666
 7047SOL    HW222041   0.833   2.264   2.670
 7048SOL     OW22042   0.251   5.396   1.739
 7048SOL    HW122043   0.303   5.481   1.732
 7048SOL    HW222044   0.187   5.390   1.663
 7049SOL     OW22045   2.283   1.633   1.191
 7049SOL    HW122046   2.252   1.585   1.273
 7049SOL    HW222047   2.229   1.603   1.113
 7050SOL     OW22048   3.980   3.756   2.813
 7050SOL    HW122049   3.941   3.805   2.891
 7050SOL    HW222050   3.951   3.801   2.728
 7051SOL     OW22051   0.210   1.072   0.827
 7051SOL    HW122052   0.215   1.036   0.733
 7051SOL    HW222053   0.117   1.062   0.861
 7052SOL     OW22054   6.274   2.899   3.960
 7052SOL    HW122055   6.345   2.850   3.910
 7052SOL    HW222056   6.233   2.838   4.028
 7053SOL     OW22057   0.790   3.245   4.522
 7053SOL    HW122058   0.831   3.322   4.571
 7053SOL    HW222059   0.852   3.167   4.525
 7054SOL     OW22060   1.153   5.868   1.226
 7054SOL    HW122061   1.234   5.908   1.184
 7054SOL    HW222062   1.071   5.911   1.187
 7055SOL     OW22063   3.750   6.198   5.303
 7055SOL    HW122064   3.781   6.159   5.390
 7055SOL    HW222065   3.662   6.244   5.317
 7056SOL     OW22066   5.976   5.860   2.484
 7056SOL    HW122067   5.884   5.901   2.479
 7056SOL    HW222068   6.040   5.926   2.523
 7057SOL     OW22069   1.323   5.615   3.534
 7057SOL    HW122070   1.290   5.707   3.511
 7057SOL    HW222071   1.363   5.572   3.452
 7058SOL     OW22072   6.380   5.882   6.620
 7058SOL    HW122073   6.313   5.863   6.548
 7058SOL    HW222074   6.459   5.822   6.608
 7059SOL     OW22075   0.028   0.921   3.246
 7059SOL    HW122076   0.004   0.860   3.171
 7059SOL    HW222077   0.082   0.997   3.211
 7060SOL     OW22078   4.052   0.056   1.691
 7060SOL    HW122079   4.072   0.151   1.716
 7060SOL    HW222080   4.080   7.017   1.765
 7061SOL     OW22081   0.244   3.149   3.847
 7061SOL    HW122082   0.182   3.140   3.769
 7061SOL    HW222083   0.333   3.109   3.823
 7062SOL     OW22084   5.441   1.283   5.719
 7062SOL    HW122085   5.534   1.318   5.735
 7062SOL    HW222086   5.376   1.334   5.775
 7063SOL     OW22087   0.378   0.226   1.227
 7063SOL    HW122088   0.467   0.210   1.269
 7063SOL    HW222089   0.315   0.264   1.295
 7064SOL     OW22090   3.970   2.005   2.172
 7064SOL    HW122091   3.943   2.035   2.081
 7064SOL    HW222092   4.064   1.972   2.170
 7065SOL     OW22093   3.862   3.451   6.691
 7065SOL    HW122094   3.871   3.520   6.620
 7065SOL    HW222095   3.950   3.404   6.704
 7066SOL     OW22096   4.617   0.452   0.785
 7066SOL    HW122097   4.559   0.375   0.759
 7066SOL    HW222098   4.587   0.534   0.736
 7067SOL     OW22099   1.852   1.765   5.249
 7067SOL    HW122100   1.817   1.683   5.202
 7067SOL    HW222101   1.779   1.833   5.254
 7068SOL     OW22102   0.713   4.198   4.396
 7068SOL    HW122103   0.731   4.295   4.412
 7068SOL    HW222104   0.797   4.146   4.409
 7069SOL     OW22105   5.805   2.471   4.212
 7069SOL    HW122106   5.770   2.564   4.206
 7069SOL    HW222107   5.803   2.428   4.122
 7070SOL     OW22108   6.815   6.749   5.016
 7070SOL    HW122109   6.843   6.687   4.942
 7070SOL    HW222110   6.844   6.842   4.993
 7071SOL     OW22111   1.601   6.244   6.115
 7071SOL    HW122112   1.546   6.184   6.173
 7071SOL    HW222113   1.543   6.316   6.077
 7072SOL     OW22114   0.385   6.262   6.205
 7072SOL    HW122115   0.337   6.309   6.279
 7072SOL    HW222116   0.483   6.265   6.222
 7073SOL     OW22117   5.536   6.495   4.643
 7073SOL    HW122118   5.544   6.517   4.546
 7073SOL    HW222119   5.509   6.399   4.653
 7074SOL     OW22120   4.252   2.367   1.303
 7074SOL    HW122121   4.319   2.310   1.255
 7074SOL    HW222122   4.165   2.364   1.253
 7075SOL     OW22123   1.101   5.701   5.419
 7075SOL    HW122124   1.159   5.778   5.389
 7075SOL    HW222125   1.109   5.626   5.353
 7076SOL     OW22126   4.819   2.039   6.443
 7076SOL    HW122127   4.752   1.986   6.390
 7076SOL    HW222128   4.799   2.136   6.433
 7077SOL     OW22129   2.299   4.321   4.928
 7077SOL    HW122130   2.379   4.378   4.949
 7077SOL    HW222131   2.299   4.241   4.988
 7078SOL     OW22132   6.205   0.694   1.133
 7078SOL    HW122133   6.219   0.723   1.228
 7078SOL    HW222134   6.264   0.748   1.073
 7079SOL     OW22135   6.473   6.787   5.573
 7079SOL    HW122136   6.378   6.782   5.604
 7079SOL    HW222137   6.494   6.707   5.517
 7080SOL     OW22138   3.384   2.150   4.621
 7080SOL    HW122139   3.295   2.116   4.589
 7080SOL    HW222140   3.377   2.248   4.640
 7081SOL     OW22141   2.850   1.607   6.826
 7081SOL    HW122142   2.883   1.532   6.769
 7081SOL    HW222143   2.800   1.673   6.770
 7082SOL     OW22144   6.282   4.278   6.860
 7082SOL    HW122145   6.312   4.231   6.943
 7082SOL    HW222146   6.338   4.360   6.846
 7083SOL     OW22147   3.309   1.051   0.187
 7083SOL    HW122148   3.276   1.005   0.104
 7083SOL    HW222149   3.245   1.124   0.213
 7084SOL     OW22150   0.099   6.786   5.526
 7084SOL    HW122151   0.115   6.732   5.444
 7084SOL    HW222152   0.033   6.859   5.506
 7085SOL     OW22153   1.897   1.639   2.083
 7085SOL    HW122154   1.857   1.704   2.148
 7085SOL    HW222155   1.889   1.675   1.990
 7086SOL     OW22156   4.716   1.039   5.357
 7086SOL    HW122157   4.720   1.078   5.265
 7086SOL    HW222158   4.686   0.944   5.352
 7087SOL     OW22159   5.654   4.332   3.875
 7087SOL    HW122160   5.697   4.402   3.817
 7087SOL    HW222161   5.685   4.242   3.847
 7088SOL     OW22162   5.364   2.262   3.703
 7088SOL    HW122163   5.271   2.297   3.690
 7088SOL    HW222164   5.425   2.337   3.727
 7089SOL     OW22165   3.680   2.361   5.359
 7089SOL    HW122166   3.711   2.449   5.395
 7089SOL    HW222167   3.582   2.351   5.373
 7090SOL     OW22168   2.309   1.558   6.542
 7090SOL    HW122169   2.240   1.521   6.480
 7090SOL    HW222170   2.292   1.524   6.635
 7091SOL     OW22171   0.204   1.842   0.057
 7091SOL    HW122172   0.209   1.923   7.022
 7091SOL    HW222173   0.135   1.779   0.021
 7092SOL     OW22174   4.315   2.745   6.444
 7092SOL    HW122175   4.284   2.772   6.353
 7092SOL    HW222176   4.405   2.701   6.436
 7093SOL     OW22177   2.967   3.654   3.135
 7093SOL    HW122178   2.925   3.692   3.217
 7093SOL    HW222179   2.942   3.708   3.055
 7094SOL     OW22180   0.928   5.362   5.418
 7094SOL    HW122181   0.984   5.357   5.335
 7094SOL    HW222182   0.856   5.293   5.413
 7095SOL     OW22183   3.447   4.131   6.510
 7095SOL    HW122184   3.530   4.183   6.530
 7095SOL    HW222185   3.450   4.099   6.415
 7096SOL     OW22186   6.140   0.717   3.689
 7096SOL    HW122187   6.164   0.766   3.605
 7096SOL    HW222188   6.044   0.690   3.686
 7097SOL     OW22189   6.008   1.274   1.365
 7097SOL    HW122190   5.945   1.307   1.294
 7097SOL    HW222191   5.985   1.179   1.388
 7098SOL     OW22192   0.662   0.493   4.291
 7098SOL    HW122193   0.723   0.464   4.217
 7098SOL    HW222194   0.709   0.558   4.349
 7099SOL     OW22195   2.912   0.654   5.083
 7099SOL    HW122196   2.865   0.665   4.995
 7099SOL    HW222197   2.937   0.744   5.119
 7100SOL     OW22198   5.747   3.230   1.169
 7100SOL    HW122199   5.824   3.172   1.143
 7100SOL    HW222200   5.667   3.172   1.185
 7101SOL     OW22201   1.800   0.640   4.735
 7101SOL    HW122202   1.792   0.622   4.834
 7101SOL    HW222203   1.794   0.738   4.718
 7102SOL     OW22204   4.631   0.448   1.045
 7102SOL    HW122205   4.637   0.439   0.946
 7102SOL    HW222206   4.539   0.424   1.076
 7103SOL     OW22207   4.613   4.851   1.478
 7103SOL    HW122208   4.558   4.889   1.405
 7103SOL    HW222209   4.682   4.789   1.439
 7104SOL     OW22210   1.084   3.326   5.003
 7104SOL    HW122211   1.015   3.394   5.024
 7104SOL    HW222212   1.165   3.372   4.965
 7105SOL     OW22213   3.081   2.883   5.357
 7105SOL    HW122214   3.086   2.964   5.299
 7105SOL    HW222215   3.141   2.812   5.320
 7106SOL     OW22216   2.940   3.783   2.888
 7106SOL    HW122217   3.038   3.793   2.872
 7106SOL    HW222218   2.905   3.707   2.832
 7107SOL     OW22219   3.036   1.604   0.957
 7107SOL    HW122220   2.968   1.653   1.012
 7107SOL    HW222221   2.991   1.534   0.903
 7108SOL     OW22222   3.909   6.624   2.674
 7108SOL    HW122223   3.948   6.546   2.723
 7108SOL    HW222224   3.929   6.708   2.725
 7109SOL     OW22225   3.859   0.295   6.468
 7109SOL    HW122226   3.950   0.305   6.508
 7109SOL    HW222227   3.863   0.318   6.370
 7110SOL     OW22228   3.605   6.047   3.677
 7110SOL    HW122229   3.538   6.116   3.650
 7110SOL    HW222230   3.637   6.066   3.770
 7111SOL     OW22231   2.157   2.257   4.370
 7111SOL    HW122232   2.180   2.220   4.280
 7111SOL    HW222233   2.226   2.228   4.437
 7112SOL     OW22234   2.178   5.870   4.183
 7112SOL    HW122235   2.240   5.797   4.210
 7112SOL    HW222236   2.151   5.858   4.087
 7113SOL     OW22237   3.250   4.144   4.829
 7113SOL    HW122238   3.198   4.206   4.771
 7113SOL    HW222239   3.188   4.089   4.885
 7114SOL     OW22240   3.638   6.607   1.490
 7114SOL    HW122241   3.655   6.607   1.589
 7114SOL    HW222242   3.541   6.593   1.473
 7115SOL     OW22243   5.333   3.282   2.203
 7115SOL    HW122244   5.282   3.203   2.170
 7115SOL    HW222245   5.394   3.253   2.277
 7116SOL     OW22246   5.340   4.211   3.675
 7116SOL    HW122247   5.398   4.148   3.728
 7116SOL    HW222248   5.346   4.187   3.578
 7117SOL     OW22249   6.836   6.611   4.774
 7117SOL    HW122250   6.935   6.601   4.762
 7117SOL    HW222251   6.798   6.664   4.698
 7118SOL     OW22252   2.346   4.133   0.660
 7118SOL    HW122253   2.271   4.191   0.691
 7118SOL    HW222254   2.410   4.119   0.735
 7119SOL     OW22255   4.901   1.553   3.191
 7119SOL    HW122256   4.805   1.550   3.220
 7119SOL    HW222257   4.915   1.631   3.130
 7120SOL     OW22258   3.987   2.028   2.449
 7120SOL    HW122259   3.981   2.026   2.349
 7120SOL    HW222260   4.048   1.955   2.479
 7121SOL     OW22261   2.231   6.671   2.368
 7121SOL    HW122262   2.183   6.738   2.311
 7121SOL    HW222263   2.170   6.638   2.440
 7122SOL     OW22264   0.581   0.563   5.787
 7122SOL    HW122265   0.642   0.502   5.736
 7122SOL    HW222266   0.632   0.644   5.816
 7123SOL     OW22267   2.228   4.622   2.260
 7123SOL    HW122268   2.158   4.641   2.192
 7123SOL    HW222269   2.218   4.684   2.337
 7124SOL     OW22270   6.938   2.367   0.472
 7124SOL    HW122271   7.016   2.376   0.534
 7124SOL    HW222272   6.933   2.447   0.412
 7125SOL     OW22273   6.550   6.816   0.885
 7125SOL    HW122274   6.548   6.716   0.876
 7125SOL    HW222275   6.469   6.846   0.935
 7126SOL     OW22276   3.664   4.144   0.288
 7126SOL    HW122277   3.624   4.233   0.269
 7126SOL    HW222278   3.681   4.135   0.386
 7127SOL     OW22279   1.937   6.274   4.661
 7127SOL    HW122280   2.005   6.237   4.598
 7127SOL    HW222281   1.886   6.200   4.703
 7128SOL     OW22282   2.873   4.994   0.478
 7128SOL    HW122283   2.857   4.913   0.536
 7128SOL    HW222284   2.906   4.964   0.389
 7129SOL     OW22285   2.307   1.291   0.328
 7129SOL    HW122286   2.303   1.313   0.230
 7129SOL    HW222287   2.220   1.315   0.371
 7130SOL     OW22288   3.828   4.693   5.290
 7130SOL    HW122289   3.729   4.711   5.294
 7130SOL    HW222290   3.848   4.608   5.339
 7131SOL     OW22291   2.555   1.419   0.335
 7131SOL    HW122292   2.546   1.501   0.280
 7131SOL    HW222293   2.475   1.360   0.322
 7132SOL     OW22294   3.628   3.533   0.047
 7132SOL    HW122295   3.705   3.480   0.010
 7132SOL    HW222296   3.640   3.630   0.025
 7133SOL     OW22297   5.220   6.115   4.595
 7133SOL    HW122298   5.206   6.017   4.581
 7133SOL    HW222299   5.132   6.158   4.615
 7134SOL     OW22300   5.641   6.358   1.857
 7134SOL    HW122301   5.564   6.416   1.885
 7134SOL    HW222302   5.727   6.409   1.869
 7135SOL     OW22303   1.356   2.964   2.535
 7135SOL    HW122304   1.331   3.049   2.488
 7135SOL    HW222305   1.404   2.904   2.472
 7136SOL     OW22306   1.493   2.120   1.231
 7136SOL    HW122307   1.536   2.103   1.142
 7136SOL    HW222308   1.403   2.162   1.217
 7137SOL     OW22309   4.510   0.620   0.048
 7137SOL    HW122310   4.420   0.659   0.067
 7137SOL    HW222311   4.500   0.523   0.024
 7138SOL     OW22312   1.530   2.960   0.204
 7138SOL    HW122313   1.618   2.917   0.184
 7138SOL    HW222314   1.481   2.977   0.118
 7139SOL     OW22315   4.998   4.066   2.591
 7139SOL    HW122316   5.043   3.976   2.598
 7139SOL    HW222317   4.930   4.063   2.518
 7140SOL     OW22318   5.597   3.993   4.202
 7140SOL    HW122319   5.565   4.083   4.171
 7140SOL    HW222320   5.688   4.002   4.241
 7141SOL     OW22321   3.173   5.770   1.530
 7141SOL    HW122322   3.197   5.690   1.586
 7141SOL    HW222323   3.235   5.845   1.551
 7142SOL     OW22324   4.575   7.000   3.796
 7142SOL    HW122325   4.478   0.003   3.791
 7142SOL    HW222326   4.594   6.963   3.887
 7143SOL     OW22327   1.381   3.306   6.225
 7143SOL    HW122328   1.289   3.284   6.257
 7143SOL    HW222329   1.448   3.274   6.292
 7144SOL     OW22330   1.459   1.603   3.537
 7144SOL    HW122331   1.539   1.657   3.511
 7144SOL    HW222332   1.426   1.552   3.458
 7145SOL     OW22333   4.265   6.878   6.777
 7145SOL    HW122334   4.323   6.955   6.800
 7145SOL    HW222335   4.279   6.852   6.681
 7146SOL     OW22336   2.104   0.858   0.132
 7146SOL    HW122337   2.104   0.894   0.039
 7146SOL    HW222338   2.067   0.765   0.131
 7147SOL     OW22339   6.509   6.395   3.276
 7147SOL    HW122340   6.532   6.454   3.354
 7147SOL    HW222341   6.410   6.393   3.265
 7148SOL     OW22342   0.676   6.984   0.192
 7148SOL    HW122343   0.759   0.016   0.182
 7148SOL    HW222344   0.596   0.022   0.199
 7149SOL     OW22345   6.473   6.655   2.680
 7149SOL    HW122346   6.446   6.560   2.698
 7149SOL    HW222347   6.572   6.664   2.691
 7150SOL     OW22348   3.455   1.816   2.571
 7150SOL    HW122349   3.514   1.737   2.585
 7150SOL    HW222350   3.499   1.879   2.507
 7151SOL     OW22351   1.614   6.460   0.464
 7151SOL    HW122352   1.597   6.470   0.562
 7151SOL    HW222353   1.600   6.365   0.437
 7152SOL     OW22354   1.044   1.450   4.951
 7152SOL    HW122355   0.993   1.413   4.873
 7152SOL    HW222356   0.983   1.506   5.007
 7153SOL     OW22357   3.202   5.407   2.556
 7153SOL    HW122358   3.139   5.388   2.481
 7153SOL    HW222359   3.152   5.448   2.632
 7154SOL     OW22360   3.858   0.636   4.159
 7154SOL    HW122361   3.942   0.690   4.168
 7154SOL    HW222362   3.878   0.552   4.109
 7155SOL     OW22363   2.215   4.431   1.528
 7155SOL    HW122364   2.162   4.373   1.589
 7155SOL    HW222365   2.307   4.393   1.516
 7156SOL     OW22366   0.253   4.690   4.763
 7156SOL    HW122367   0.307   4.773   4.779
 7156SOL    HW222368   0.313   4.610   4.769
 7157SOL     OW22369   6.251   4.673   0.988
 7157SOL    HW122370   6.328   4.691   1.049
 7157SOL    HW222371   6.269   4.591   0.935
 7158SOL     OW22372   1.334   0.393   2.835
 7158SOL    HW122373   1.321   0.478   2.785
 7158SOL    HW222374   1.420   0.351   2.808
 7159SOL     OW22375   0.308   4.138   2.513
 7159SOL    HW122376   0.257   4.221   2.490
 7159SOL    HW222377   0.371   4.157   2.589
 7160SOL     OW22378   5.529   0.947   3.068
 7160SOL    HW122379   5.500   0.979   3.157
 7160SOL    HW222380   5.621   0.907   3.075
 7161SOL     OW22381   2.861   3.634   4.777
 7161SOL    HW122382   2.876   3.535   4.782
 7161SOL    HW222383   2.765   3.652   4.755
 7162SOL     OW22384   2.439   5.760   5.811
 7162SOL    HW122385   2.368   5.784   5.878
 7162SOL    HW222386   2.476   5.670   5.833
 7163SOL     OW22387   2.908   6.440   2.701
 7163SOL    HW122388   2.993   6.395   2.674
 7163SOL    HW222389   2.849   6.374   2.748
 7164SOL     OW22390   1.804   1.021   3.930
 7164SOL    HW122391   1.799   1.047   4.027
 7164SOL    HW222392   1.718   1.044   3.885
 7165SOL     OW22393   6.777   1.448   1.454
 7165SOL    HW122394   6.752   1.408   1.366
 7165SOL    HW222395   6.829   1.532   1.439
 7166SOL     OW22396   5.721   3.014   0.255
 7166SOL    HW122397   5.682   2.926   0.283
 7166SOL    HW222398   5.753   3.008   0.160
 7167SOL     OW22399   4.906   3.641   4.567
 7167SOL    HW122400   4.920   3.612   4.661
 7167SOL    HW222401   4.892   3.560   4.509
 7168SOL     OW22402   1.447   2.965   3.644
 7168SOL    HW122403   1.362   2.977   3.695
 7168SOL    HW222404   1.525   2.970   3.706
 7169SOL     OW22405   0.431   3.564   5.082
 7169SOL    HW122406   0.433   3.511   5.167
 7169SOL    HW222407   0.366   3.639   5.091
 7170SOL     OW22408   5.260   6.111   3.024
 7170SOL    HW122409   5.277   6.205   2.992
 7170SOL    HW222410   5.259   6.110   3.124
 7171SOL     OW22411   5.743   4.164   6.717
 7171SOL    HW122412   5.678   4.219   6.664
 7171SOL    HW222413   5.693   4.113   6.788
 7172SOL     OW22414   1.786   0.762   5.188
 7172SOL    HW122415   1.697   0.770   5.234
 7172SOL    HW222416   1.844   0.839   5.215
 7173SOL     OW22417   6.889   4.622   6.006
 7173SOL    HW122418   6.911   4.719   5.994
 7173SOL    HW222419   6.924   4.570   5.928
 7174SOL     OW22420   1.065   4.262   0.250
 7174SOL    HW122421   1.081   4.331   0.179
 7174SOL    HW222422   1.076   4.305   0.340
 7175SOL     OW22423   5.264   3.207   6.782
 7175SOL    HW122424   5.332   3.279   6.797
 7175SOL    HW222425   5.306   3.117   6.794
 7176SOL     OW22426   1.052   6.014   3.053
 7176SOL    HW122427   1.078   6.034   2.958
 7176SOL    HW222428   1.023   5.919   3.060
 7177SOL     OW22429   2.224   6.654   4.046
 7177SOL    HW122430   2.250   6.739   4.092
 7177SOL    HW222431   2.236   6.577   4.109
 7178SOL     OW22432   2.129   3.355   5.499
 7178SOL    HW122433   2.227   3.361   5.518
 7178SOL    HW222434   2.106   3.261   5.472
 7179SOL     OW22435   1.691   3.793   4.475
 7179SOL    HW122436   1.607   3.803   4.422
 7179SOL    HW222437   1.669   3.758   4.566
 7180SOL     OW22438   1.429   4.319   6.436
 7180SOL    HW122439   1.524   4.342   6.457
 7180SOL    HW222440   1.403   4.238   6.488
 7181SOL     OW22441   2.149   5.687   0.327
 7181SOL    HW122442   2.133   5.724   0.236
 7181SOL    HW222443   2.242   5.710   0.357
 7182SOL     OW22444   1.227   3.076   5.612
 7182SOL    HW122445   1.188   3.009   5.549
 7182SOL    HW222446   1.315   3.042   5.646
 7183SOL     OW22447   2.125   6.099   0.273
 7183SOL    HW122448   2.116   6.188   0.230
 7183SOL    HW222449   2.081   6.030   0.217
 7184SOL     OW22450   0.510   0.831   2.955
 7184SOL    HW122451   0.503   0.852   2.858
 7184SOL    HW222452   0.468   0.905   3.008
 7185SOL     OW22453   5.734   0.436   5.257
 7185SOL    HW122454   5.674   0.357   5.241
 7185SOL    HW222455   5.828   0.411   5.234
 7186SOL     OW22456   6.513   0.010   6.745
 7186SOL    HW122457   6.560   0.074   6.684
 7186SOL    HW222458   6.565   6.947   6.751
 7187SOL     OW22459   3.322   4.057   0.141
 7187SOL    HW122460   3.247   4.086   0.201
 7187SOL    HW222461   3.315   3.958   0.126
 7188SOL     OW22462   6.226   6.707   0.561
 7188SOL    HW122463   6.322   6.731   0.550
 7188SOL    HW222464   6.199   6.643   0.489
 7189SOL     OW22465   6.911   1.065   5.866
 7189SOL    HW122466   6.813   1.049   5.857
 7189SOL    HW222467   6.953   0.992   5.920
 7190SOL     OW22468   6.555   4.063   3.300
 7190SOL    HW122469   6.566   4.003   3.379
 7190SOL    HW222470   6.461   4.058   3.267
 7191SOL     OW22471   0.181   4.073   3.275
 7191SOL    HW122472   0.110   4.121   3.225
 7191SOL    HW222473   0.193   4.115   3.365
 7192SOL     OW22474   3.570   5.109   5.944
 7192SOL    HW122475   3.608   5.195   5.911
 7192SOL    HW222476   3.628   5.033   5.915
 7193SOL     OW22477   1.956   2.574   2.342
 7193SOL    HW122478   1.941   2.568   2.440
 7193SOL    HW222479   1.977   2.669   2.317
 7194SOL     OW22480   2.514   2.130   0.582
 7194SOL    HW122481   2.600   2.084   0.559
 7194SOL    HW222482   2.440   2.064   0.584
 7195SOL     OW22483   0.282   4.941   6.788
 7195SOL    HW122484   0.216   4.936   6.863
 7195SOL    HW222485   0.297   5.037   6.763
 7196SOL     OW22486   3.297   4.239   1.556
 7196SOL    HW122487   3.259   4.188   1.633
 7196SOL    HW222488   3.378   4.192   1.521
 7197SOL     OW22489   6.681   2.050   5.811
 7197SOL    HW122490   6.642   2.096   5.891
 7197SOL    HW222491   6.753   1.987   5.840
 7198SOL     OW22492   0.605   0.982   6.412
 7198SOL    HW122493   0.617   0.920   6.334
 7198SOL    HW222494   0.565   1.068   6.381
 7199SOL     OW22495   2.110   0.392   2.523
 7199SOL    HW122496   2.160   0.422   2.442
 7199SOL    HW222497   2.109   0.292   2.526
 7200SOL     OW22498   2.392   1.965   0.082
 7200SOL    HW122499   2.314   1.904   0.093
 7200SOL    HW222500   2.464   1.920   0.030
 7201SOL     OW22501   1.413   5.809   4.229
 7201SOL    HW122502   1.402   5.889   4.287
 7201SOL    HW222503   1.499   5.817   4.178
 7202SOL     OW22504   4.499   0.674   5.928
 7202SOL    HW122505   4.414   0.723   5.910
 7202SOL    HW222506   4.514   0.606   5.856
 7203SOL     OW22507   0.310   2.407   1.280
 7203SOL    HW122508   0.219   2.421   1.242
 7203SOL    HW222509   0.311   2.434   1.376
 7204SOL     OW22510   6.963   7.005   5.530
 7204SOL    HW122511   6.917   0.066   5.497
 7204SOL    HW222512   6.943   6.992   5.627
 7205SOL     OW22513   0.768   5.490   3.119
 7205SOL    HW122514   0.854   5.441   3.131
 7205SOL    HW222515   0.725   5.504   3.208
 7206SOL     OW22516   1.739   0.581   0.784
 7206SOL    HW122517   1.816   0.641   0.761
 7206SOL    HW222518   1.745   0.553   0.879
 7207SOL     OW22519   3.611   0.216   2.136
 7207SOL    HW122520   3.591   0.120   2.116
 7207SOL    HW222521   3.614   0.268   2.050
 7208SOL     OW22522   4.224   6.588   4.016
 7208SOL    HW122523   4.169   6.655   4.066
 7208SOL    HW222524   4.281   6.536   4.080
 7209SOL     OW22525   3.231   3.792   2.250
 7209SOL    HW122526   3.154   3.827   2.197
 7209SOL    HW222527   3.224   3.693   2.258
 7210SOL     OW22528   4.416   6.961   4.105
 7210SOL    HW122529   4.367   6.949   4.191
 7210SOL    HW222530   4.437   0.035   4.091
 7211SOL     OW22531   2.595   5.597   4.171
 7211SOL    HW122532   2.623   5.503   4.155
 7211SOL    HW222533   2.656   5.639   4.239
 7212SOL     OW22534   0.799   6.722   3.812
 7212SOL    HW122535   0.851   6.652   3.860
 7212SOL    HW222536   0.797   6.806   3.867
 7213SOL     OW22537   6.111   0.080   6.514
 7213SOL    HW122538   6.128   7.020   6.460
 7213SOL    HW222539   6.172   0.080   6.594
 7214SOL     OW22540   1.054   6.433   4.898
 7214SOL    HW122541   1.112   6.515   4.900
 7214SOL    HW222542   1.057   6.388   4.987
 7215SOL     OW22543   0.227   3.196   4.553
 7215SOL    HW122544   0.191   3.164   4.465
 7215SOL    HW222545   0.167   3.164   4.627
 7216SOL     OW22546   2.377   5.969   0.040
 7216SOL    HW122547   2.431   5.886   0.028
 7216SOL    HW222548   2.353   5.979   0.137
 7217SOL     OW22549   1.922   4.206   2.761
 7217SOL    HW122550   1.866   4.272   2.710
 7217SOL    HW222551   1.901   4.113   2.729
 7218SOL     OW22552   5.078   2.441   5.361
 7218SOL    HW122553   5.042   2.444   5.268
 7218SOL    HW222554   5.091   2.534   5.396
 7219SOL     OW22555   4.586   6.268   4.455
 7219SOL    HW122556   4.667   6.326   4.443
 7219SOL    HW222557   4.585   6.232   4.548
 7220SOL     OW22558   0.541   5.923   4.228
 7220SOL    HW122559   0.459   5.930   4.284
 7220SOL    HW222560   0.578   5.830   4.235
 7221SOL     OW22561   4.800   4.918   4.494
 7221SOL    HW122562   4.772   5.007   4.530
 7221SOL    HW222563   4.721   4.857   4.491
 7222SOL     OW22564   6.427   0.528   1.803
 7222SOL    HW122565   6.456   0.522   1.898
 7222SOL    HW222566   6.345   0.472   1.789
 7223SOL     OW22567   2.766   2.008   1.261
 7223SOL    HW122568   2.677   1.982   1.223
 7223SOL    HW222569   2.752   2.058   1.346
 7224SOL     OW22570   5.464   2.157   4.345
 7224SOL    HW122571   5.564   2.157   4.342
 7224SOL    HW222572   5.428   2.135   4.254
 7225SOL     OW22573   0.930   5.904   5.890
 7225SOL    HW122574   0.989   5.838   5.845
 7225SOL    HW222575   0.984   5.983   5.919
 7226SOL     OW22576   0.269   0.713   0.558
 7226SOL    HW122577   0.199   0.771   0.601
 7226SOL    HW222578   0.253   0.618   0.583
 7227SOL     OW22579   1.045   2.092   0.754
 7227SOL    HW122580   0.956   2.091   0.800
 7227SOL    HW222581   1.032   2.101   0.655
 7228SOL     OW22582   0.313   0.928   1.901
 7228SOL    HW122583   0.382   0.855   1.906
 7228SOL    HW222584   0.230   0.892   1.858
 7229SOL     OW22585   0.805   6.867   4.846
 7229SOL    HW122586   0.856   6.884   4.762
 7229SOL    HW222587   0.838   6.927   4.918
 7230SOL     OW22588   5.289   5.410   4.502
 7230SOL    HW122589   5.225   5.442   4.432
 7230SOL    HW222590   5.247   5.418   4.592
 7231SOL     OW22591   4.601   6.555   0.217
 7231SOL    HW122592   4.679   6.593   0.267
 7231SOL    HW222593   4.617   6.564   0.119
 7232SOL     OW22594   4.977   5.465   3.270
 7232SOL    HW122595   5.041   5.388   3.267
 7232SOL    HW222596   4.996   5.526   3.193
 7233SOL     OW22597   7.020   2.394   4.422
 7233SOL    HW122598   6.928   2.390   4.381
 7233SOL    HW222599   7.022   2.464   4.493
 7234SOL     OW22600   5.603   3.159   3.608
 7234SOL    HW122601   5.545   3.237   3.633
 7234SOL    HW222602   5.658   3.132   3.687
 7235SOL     OW22603   6.275   4.166   3.277
 7235SOL    HW122604   6.199   4.104   3.294
 7235SOL    HW222605   6.241   4.253   3.241
 7236SOL     OW22606   2.884   1.710   3.286
 7236SOL    HW122607   2.980   1.725   3.259
 7236SOL    HW222608   2.871   1.613   3.307
 7237SOL     OW22609   6.309   6.895   5.293
 7237SOL    HW122610   6.336   6.842   5.213
 7237SOL    HW222611   6.328   6.842   5.376
 7238SOL     OW22612   2.542   1.949   1.126
 7238SOL    HW122613   2.603   2.013   1.079
 7238SOL    HW222614   2.447   1.977   1.110
 7239SOL     OW22615   2.504   1.317   3.259
 7239SOL    HW122616   2.458   1.382   3.318
 7239SOL    HW222617   2.457   1.314   3.170
 7240SOL     OW22618   2.353   4.453   6.176
 7240SOL    HW122619   2.341   4.511   6.257
 7240SOL    HW222620   2.354   4.511   6.094
 7241SOL     OW22621   3.347   0.621   7.007
 7241SOL    HW122622   3.338   0.581   0.076
 7241SOL    HW222623   3.442   0.613   6.977
 7242SOL     OW22624   6.872   5.755   0.230
 7242SOL    HW122625   6.851   5.852   0.244
 7242SOL    HW222626   6.813   5.718   0.159
 7243SOL     OW22627   0.269   4.769   5.981
 7243SOL    HW122628   0.259   4.694   5.915
 7243SOL    HW222629   0.237   4.854   5.940
 7244SOL     OW22630   5.161   0.747   1.032
 7244SOL    HW122631   5.147   0.653   1.000
 7244SOL    HW222632   5.246   0.783   0.994
 7245SOL     OW22633   0.711   2.040   5.310
 7245SOL    HW122634   0.620   2.020   5.274
 7245SOL    HW222635   0.702   2.083   5.400
 7246SOL     OW22636   5.944   6.892   5.014
 7246SOL    HW122637   5.887   6.856   4.941
 7246SOL    HW222638   5.887   6.944   5.078
 7247SOL     OW22639   3.399   6.512   3.557
 7247SOL    HW122640   3.475   6.575   3.569
 7247SOL    HW222641   3.323   6.559   3.512
 7248SOL     OW22642   3.743   1.075   2.944
 7248SOL    HW122643   3.737   0.996   2.883
 7248SOL    HW222644   3.814   1.059   3.012
 7249SOL     OW22645   5.500   5.029   1.464
 7249SOL    HW122646   5.450   4.944   1.448
 7249SOL    HW222647   5.524   5.035   1.561
 7250SOL     OW22648   4.113   5.484   6.001
 7250SOL    HW122649   4.087   5.463   5.907
 7250SOL    HW222650   4.189   5.549   6.001
 7251SOL     OW22651   0.245   6.339   5.453
 7251SOL    HW122652   0.197   6.272   5.397
 7251SOL    HW222653   0.344   6.324   5.445
 7252SOL     OW22654   3.695   3.171   3.648
 7252SOL    HW122655   3.635   3.134   3.718
 7252SOL    HW222656   3.784   3.124   3.651
 7253SOL     OW22657   2.248   6.908   0.176
 7253SOL    HW122658   2.239   6.843   0.101
 7253SOL    HW222659   2.245   6.859   0.263
 7254SOL     OW22660   4.678   5.520   5.200
 7254SOL    HW122661   4.677   5.588   5.126
 7254SOL    HW222662   4.676   5.566   5.288
 7255SOL     OW22663   3.510   3.845   0.860
 7255SOL    HW122664   3.424   3.841   0.809
 7255SOL    HW222665   3.579   3.789   0.814
 7256SOL     OW22666   5.061   4.931   4.633
 7256SOL    HW122667   4.969   4.923   4.594
 7256SOL    HW222668   5.127   4.945   4.560
 7257SOL     OW22669   4.763   2.893   3.838
 7257SOL    HW122670   4.787   2.890   3.741
 7257SOL    HW222671   4.723   2.805   3.865
 7258SOL     OW22672   3.910   1.470   3.495
 7258SOL    HW122673   3.859   1.396   3.451
 7258SOL    HW222674   3.848   1.522   3.554
 7259SOL     OW22675   3.859   3.934   1.582
 7259SOL    HW122676   3.865   4.026   1.621
 7259SOL    HW222677   3.775   3.890   1.614
 7260SOL     OW22678   3.383   1.898   3.020
 7260SOL    HW122679   3.378   1.981   2.965
 7260SOL    HW222680   3.425   1.825   2.965
 7261SOL     OW22681   2.654   2.876   0.802
 7261SOL    HW122682   2.635   2.842   0.894
 7261SOL    HW222683   2.569   2.909   0.760
 7262SOL     OW22684   5.154   2.058   4.442
 7262SOL    HW122685   5.244   2.102   4.438
 7262SOL    HW222686   5.094   2.099   4.373
 7263SOL     OW22687   0.244   6.039   2.518
 7263SOL    HW122688   0.161   6.054   2.464
 7263SOL    HW222689   0.224   6.053   2.615
 7264SOL     OW22690   6.343   1.358   6.994
 7264SOL    HW122691   6.429   1.346   0.022
 7264SOL    HW222692   6.344   1.448   6.949
 7265SOL     OW22693   5.807   5.418   5.808
 7265SOL    HW122694   5.712   5.390   5.792
 7265SOL    HW222695   5.808   5.497   5.868
 7266SOL     OW22696   4.188   0.555   0.902
 7266SOL    HW122697   4.217   0.650   0.885
 7266SOL    HW222698   4.091   0.554   0.926
 7267SOL     OW22699   0.191   4.864   5.685
 7267SOL    HW122700   0.271   4.902   5.639
 7267SOL    HW222701   0.117   4.851   5.619
 7268SOL     OW22702   4.604   4.854   3.413
 7268SOL    HW122703   4.531   4.861   3.345
 7268SOL    HW222704   4.583   4.911   3.492
 7269SOL     OW22705   6.678   6.182   1.174
 7269SOL    HW122706   6.652   6.085   1.178
 7269SOL    HW222707   6.692   6.217   1.267
 7270SOL     OW22708   1.206   2.574   3.679
 7270SOL    HW122709   1.168   2.536   3.764
 7270SOL    HW222710   1.295   2.616   3.698
 7271SOL     OW22711   6.874   4.872   4.175
 7271SOL    HW122712   6.819   4.815   4.236
 7271SOL    HW222713   6.833   4.872   4.084
 7272SOL     OW22714   5.820   4.548   2.502
 7272SOL    HW122715   5.908   4.526   2.545
 7272SOL    HW222716   5.822   4.518   2.407
 7273SOL     OW22717   5.572   4.573   2.107
 7273SOL    HW122718   5.561   4.506   2.032
 7273SOL    HW222719   5.573   4.525   2.194
 7274SOL     OW22720   0.697   6.642   5.914
 7274SOL    HW122721   0.716   6.607   5.822
 7274SOL    HW222722   0.609   6.607   5.946
 7275SOL     OW22723   6.986   0.939   1.539
 7275SOL    HW122724   6.993   1.020   1.481
 7275SOL    HW222725   6.892   0.928   1.569
 7276SOL     OW22726   3.204   1.482   3.782
 7276SOL    HW122727   3.144   1.412   3.822
 7276SOL    HW222728   3.285   1.438   3.742
 7277SOL     OW22729   5.518   1.148   5.010
 7277SOL    HW122730   5.580   1.114   4.939
 7277SOL    HW222731   5.431   1.098   5.006
 7278SOL     OW22732   3.168   2.023   3.173
 7278SOL    HW122733   3.092   2.060   3.119
 7278SOL    HW222734   3.247   2.010   3.114
 7279SOL     OW22735   4.268   3.840   6.594
 7279SOL    HW122736   4.215   3.782   6.656
 7279SOL    HW222737   4.223   3.929   6.586
 7280SOL     OW22738   6.115   2.182   5.135
 7280SOL    HW122739   6.074   2.173   5.226
 7280SOL    HW222740   6.106   2.276   5.104
 7281SOL     OW22741   2.537   0.337   0.388
 7281SOL    HW122742   2.570   0.415   0.336
 7281SOL    HW222743   2.482   0.278   0.329
 7282SOL     OW22744   6.741   6.451   1.035
 7282SOL    HW122745   6.766   6.532   1.088
 7282SOL    HW222746   6.725   6.374   1.098
 7283SOL     OW22747   2.488   6.464   2.164
 7283SOL    HW122748   2.513   6.519   2.243
 7283SOL    HW222749   2.567   6.454   2.103
 7284SOL     OW22750   6.529   2.998   4.154
 7284SOL    HW122751   6.594   2.922   4.164
 7284SOL    HW222752   6.563   3.077   4.205
 7285SOL     OW22753   5.247   3.646   1.795
 7285SOL    HW122754   5.193   3.595   1.862
 7285SOL    HW222755   5.340   3.658   1.830
 7286SOL     OW22756   0.854   1.281   0.759
 7286SOL    HW122757   0.889   1.193   0.791
 7286SOL    HW222758   0.907   1.312   0.680
 7287SOL     OW22759   6.638   3.212   4.297
 7287SOL    HW122760   6.565   3.278   4.314
 7287SOL    HW222761   6.700   3.247   4.228
 7288SOL     OW22762   1.580   3.094   2.254
 7288SOL    HW122763   1.612   3.019   2.195
 7288SOL    HW222764   1.646   3.109   2.328
 7289SOL     OW22765   6.362   2.687   2.320
 7289SOL    HW122766   6.374   2.656   2.415
 7289SOL    HW222767   6.388   2.784   2.314
 7290SOL     OW22768   3.097   1.006   4.981
 7290SOL    HW122769   3.186   1.052   4.976
 7290SOL    HW222770   3.026   1.068   4.947
 7291SOL     OW22771   3.991   6.751   0.497
 7291SOL    HW122772   3.971   6.714   0.588
 7291SOL    HW222773   3.994   6.851   0.502
 7292SOL     OW22774   2.079   6.930   3.347
 7292SOL    HW122775   2.003   6.876   3.311
 7292SOL    HW222776   2.112   6.993   3.277
 7293SOL     OW22777   1.866   1.039   6.254
 7293SOL    HW122778   1.945   1.006   6.306
 7293SOL    HW222779   1.783   0.990   6.284
 7294SOL     OW22780   2.932   4.471   1.187
 7294SOL    HW122781   2.964   4.502   1.098
 7294SOL    HW222782   2.999   4.409   1.227
 7295SOL     OW22783   6.729   4.136   1.454
 7295SOL    HW122784   6.727   4.188   1.369
 7295SOL    HW222785   6.776   4.188   1.524
 7296SOL     OW22786   4.350   5.237   2.809
 7296SOL    HW122787   4.390   5.329   2.805
 7296SOL    HW222788   4.423   5.169   2.810
 7297SOL     OW22789   2.545   6.936   2.520
 7297SOL    HW122790   2.524   6.853   2.469
 7297SOL    HW222791   2.476   7.006   2.501
 7298SOL     OW22792   5.507   5.167   0.175
 7298SOL    HW122793   5.499   5.255   0.129
 7298SOL    HW222794   5.592   5.164   0.227
 7299SOL     OW22795   0.914   1.444   0.983
 7299SOL    HW122796   0.885   1.398   0.899
 7299SOL    HW222797   1.000   1.492   0.967
 7300SOL     OW22798   0.949   4.949   1.580
 7300SOL    HW122799   0.984   4.866   1.537
 7300SOL    HW222800   0.989   5.030   1.536
 7301SOL     OW22801   6.816   0.949   5.089
 7301SOL    HW122802   6.915   0.951   5.095
 7301SOL    HW222803   6.785   0.858   5.061
 7302SOL     OW22804   6.582   1.717   4.814
 7302SOL    HW122805   6.625   1.637   4.772
 7302SOL    HW222806   6.550   1.692   4.906
 7303SOL     OW22807   3.409   0.836   6.809
 7303SOL    HW122808   3.492   0.874   6.851
 7303SOL    HW222809   3.343   0.814   6.880
 7304SOL     OW22810   2.094   5.204   1.690
 7304SOL    HW122811   2.063   5.274   1.755
 7304SOL    HW222812   2.128   5.125   1.739
 7305SOL     OW22813   5.612   2.540   1.545
 7305SOL    HW122814   5.550   2.470   1.510
 7305SOL    HW222815   5.602   2.547   1.644
 7306SOL     OW22816   3.676   1.730   2.075
 7306SOL    HW122817   3.663   1.829   2.069
 7306SOL    HW222818   3.587   1.685   2.080
 7307SOL     OW22819   3.907   6.448   2.405
 7307SOL    HW122820   3.953   6.510   2.468
 7307SOL    HW222821   3.968   6.372   2.382
 7308SOL     OW22822   0.035   1.519   3.325
 7308SOL    HW122823   0.008   1.490   3.417
 7308SOL    HW222824   0.084   1.606   3.331
 7309SOL     OW22825   2.169   6.074   2.140
 7309SOL    HW122826   2.086   6.062   2.085
 7309SOL    HW222827   2.147   6.125   2.222
 7310SOL     OW22828   1.606   3.738   5.816
 7310SOL    HW122829   1.657   3.701   5.737
 7310SOL    HW222830   1.641   3.829   5.838
 7311SOL     OW22831   1.175   0.380   0.355
 7311SOL    HW122832   1.188   0.282   0.371
 7311SOL    HW222833   1.175   0.399   0.257
 7312SOL     OW22834   0.608   1.436   4.821
 7312SOL    HW122835   0.671   1.483   4.760
 7312SOL    HW222836   0.604   1.339   4.797
 7313SOL     OW22837   2.782   1.457   0.885
 7313SOL    HW122838   2.707   1.454   0.952
 7313SOL    HW222839   2.836   1.373   0.892
 7314SOL     OW22840   0.187   3.322   6.497
 7314SOL    HW122841   0.225   3.344   6.407
 7314SOL    HW222842   0.201   3.225   6.517
 7315SOL     OW22843   6.135   5.404   2.273
 7315SOL    HW122844   6.149   5.463   2.352
 7315SOL    HW222845   6.210   5.338   2.268
 7316SOL     OW22846   3.120   2.267   6.147
 7316SOL    HW122847   3.189   2.226   6.207
 7316SOL    HW222848   3.125   2.367   6.155
 7317SOL     OW22849   3.741   1.362   2.341
 7317SOL    HW122850   3.708   1.294   2.276
 7317SOL    HW222851   3.780   1.439   2.292
 7318SOL     OW22852   3.378   6.578   2.177
 7318SOL    HW122853   3.430   6.657   2.209
 7318SOL    HW222854   3.396   6.500   2.236
 7319SOL     OW22855   6.128   3.204   6.476
 7319SOL    HW122856   6.146   3.193   6.378
 7319SOL    HW222857   6.128   3.301   6.500
 7320SOL     OW22858   0.056   3.782   0.794
 7320SOL    HW122859   0.038   3.836   0.876
 7320SOL    HW222860   7.010   3.710   0.785
 7321SOL     OW22861   1.736   6.505   6.070
 7321SOL    HW122862   1.669   6.433   6.051
 7321SOL    HW222863   1.697   6.593   6.045
 7322SOL     OW22864   0.269   3.155   3.203
 7322SOL    HW122865   0.265   3.206   3.116
 7322SOL    HW222866   0.364   3.131   3.223
 7323SOL     OW22867   2.908   1.760   1.124
 7323SOL    HW122868   2.902   1.835   1.059
 7323SOL    HW222869   2.931   1.797   1.214
 7324SOL     OW22870   6.049   4.405   2.626
 7324SOL    HW122871   6.012   4.315   2.602
 7324SOL    HW222872   6.147   4.406   2.610
 7325SOL     OW22873   2.678   0.393   5.680
 7325SOL    HW122874   2.618   0.471   5.664
 7325SOL    HW222875   2.773   0.420   5.669
 7326SOL     OW22876   4.491   0.511   6.467
 7326SOL    HW122877   4.470   0.608   6.453
 7326SOL    HW222878   4.532   0.473   6.384
 7327SOL     OW22879   5.769   3.382   4.000
 7327SOL    HW122880   5.865   3.405   3.992
 7327SOL    HW222881   5.736   3.406   4.091
 7328SOL     OW22882   4.092   6.154   5.951
 7328SOL    HW122883   4.013   6.093   5.958
 7328SOL    HW222884   4.138   6.160   6.040
 7329SOL     OW22885   1.019   2.462   6.921
 7329SOL    HW122886   0.970   2.516   6.852
 7329SOL    HW222887   0.954   2.403   6.969
 7330SOL     OW22888   3.061   2.871   1.359
 7330SOL    HW122889   3.143   2.816   1.374
 7330SOL    HW222890   3.016   2.889   1.446
 7331SOL     OW22891   4.703   0.299   2.098
 7331SOL    HW122892   4.761   0.357   2.155
 7331SOL    HW222893   4.663   0.227   2.153
 7332SOL     OW22894   4.038   4.444   0.075
 7332SOL    HW122895   3.957   4.457   0.017
 7332SOL    HW222896   4.119   4.434   0.017
 7333SOL     OW22897   6.352   3.198   3.273
 7333SOL    HW122898   6.256   3.222   3.293
 7333SOL    HW222899   6.358   3.101   3.253
 7334SOL     OW22900   2.783   5.762   5.773
 7334SOL    HW122901   2.715   5.814   5.721
 7334SOL    HW222902   2.854   5.728   5.711
 7335SOL     OW22903   0.347   3.250   2.874
 7335SOL    HW122904   0.386   3.201   2.796
 7335SOL    HW222905   0.248   3.244   2.872
 7336SOL     OW22906   2.465   6.409   1.355
 7336SOL    HW122907   2.558   6.383   1.380
 7336SOL    HW222908   2.411   6.423   1.438
 7337SOL     OW22909   2.879   2.976   1.555
 7337SOL    HW122910   2.885   3.048   1.624
 7337SOL    HW222911   2.879   2.887   1.601
 7338SOL     OW22912   6.178   2.330   1.610
 7338SOL    HW122913   6.202   2.241   1.570
 7338SOL    HW222914   6.083   2.329   1.641
 7339SOL     OW22915   0.168   6.547   5.639
 7339SOL    HW122916   0.106   6.615   5.600
 7339SOL    HW222917   0.212   6.496   5.565
 7340SOL     OW22918   4.146   1.744   6.851
 7340SOL    HW122919   4.097   1.807   6.790
 7340SOL    HW222920   4.245   1.762   6.844
 7341SOL     OW22921   1.509   5.251   5.011
 7341SOL    HW122922   1.460   5.217   5.091
 7341SOL    HW222923   1.456   5.323   4.967
 7342SOL     OW22924   6.405   0.288   0.523
 7342SOL    HW122925   6.432   0.369   0.471
 7342SOL    HW222926   6.480   0.259   0.582
 7343SOL     OW22927   5.459   3.104   2.379
 7343SOL    HW122928   5.510   3.096   2.465
 7343SOL    HW222929   5.504   3.050   2.308
 7344SOL     OW22930   1.788   6.983   6.280
 7344SOL    HW122931   1.767   6.962   6.184
 7344SOL    HW222932   1.705   7.012   6.326
 7345SOL     OW22933   4.712   5.465   5.689
 7345SOL    HW122934   4.767   5.413   5.624
 7345SOL    HW222935   4.644   5.405   5.731
 7346SOL     OW22936   4.035   4.005   1.237
 7346SOL    HW122937   4.045   4.074   1.308
 7346SOL    HW222938   4.125   3.981   1.200
 7347SOL     OW22939   6.789   2.431   1.778
 7347SOL    HW122940   6.859   2.470   1.718
 7347SOL    HW222941   6.796   2.474   1.868
 7348SOL     OW22942   1.479   3.918   3.642
 7348SOL    HW122943   1.574   3.944   3.625
 7348SOL    HW222944   1.422   3.999   3.644
 7349SOL     OW22945   3.725   1.766   1.535
 7349SOL    HW122946   3.674   1.807   1.610
 7349SOL    HW222947   3.663   1.743   1.460
 7350SOL     OW22948   0.531   3.138   3.734
 7350SOL    HW122949   0.518   3.122   3.636
 7350SOL    HW222950   0.596   3.071   3.770
 7351SOL     OW22951   4.186   5.248   6.739
 7351SOL    HW122952   4.229   5.334   6.768
 7351SOL    HW222953   4.167   5.191   6.819
 7352SOL     OW22954   1.651   2.359   3.480
 7352SOL    HW122955   1.584   2.315   3.540
 7352SOL    HW222956   1.654   2.311   3.392
 7353SOL     OW22957   0.685   1.182   5.156
 7353SOL    HW122958   0.720   1.155   5.066
 7353SOL    HW222959   0.620   1.113   5.188
 7354SOL     OW22960   0.438   0.923   6.627
 7354SOL    HW122961   0.519   0.951   6.677
 7354SOL    HW222962   0.462   0.908   6.531
 7355SOL     OW22963   2.079   6.304   0.097
 7355SOL    HW122964   2.088   6.283   0.000
 7355SOL    HW222965   2.047   6.398   0.108
 7356SOL     OW22966   5.128   2.404   6.530
 7356SOL    HW122967   5.140   2.397   6.629
 7356SOL    HW222968   5.209   2.368   6.484
 7357SOL     OW22969   4.154   1.001   1.286
 7357SOL    HW122970   4.134   0.906   1.310
 7357SOL    HW222971   4.212   1.003   1.205
 7358SOL     OW22972   2.163   2.067   2.529
 7358SOL    HW122973   2.241   2.090   2.471
 7358SOL    HW222974   2.087   2.037   2.472
 7359SOL     OW22975   3.740   2.230   1.069
 7359SOL    HW122976   3.839   2.231   1.051
 7359SOL    HW222977   3.696   2.301   1.014
 7360SOL     OW22978   2.786   2.088   5.359
 7360SOL    HW122979   2.736   2.091   5.272
 7360SOL    HW222980   2.804   1.994   5.384
 7361SOL     OW22981   4.835   6.384   2.048
 7361SOL    HW122982   4.786   6.428   1.973
 7361SOL    HW222983   4.894   6.312   2.012
 7362SOL     OW22984   0.205   6.698   4.652
 7362SOL    HW122985   0.276   6.638   4.616
 7362SOL    HW222986   0.247   6.776   4.697
 7363SOL     OW22987   4.130   1.815   0.204
 7363SOL    HW122988   4.159   1.880   0.274
 7363SOL    HW222989   4.211   1.773   0.162
 7364SOL     OW22990   3.883   6.829   1.295
 7364SOL    HW122991   3.880   6.906   1.232
 7364SOL    HW222992   3.968   6.779   1.284
 7365SOL     OW22993   1.523   5.781   2.103
 7365SOL    HW122994   1.521   5.828   2.191
 7365SOL    HW222995   1.607   5.728   2.095
 7366SOL     OW22996   1.163   5.511   0.502
 7366SOL    HW122997   1.146   5.455   0.421
 7366SOL    HW222998   1.174   5.451   0.582
 7367SOL     OW22999   4.135   3.564   1.239
 7367SOL    HW123000   4.107   3.471   1.217
 7367SOL    HW223001   4.062   3.610   1.290
 7368SOL     OW23002   3.279   2.961   3.964
 7368SOL    HW123003   3.239   3.016   3.891
 7368SOL    HW223004   3.211   2.946   4.036
 7369SOL     OW23005   4.999   3.248   0.729
 7369SOL    HW123006   5.096   3.256   0.752
 7369SOL    HW223007   4.987   3.181   0.656
 7370SOL     OW23008   2.175   0.919   5.709
 7370SOL    HW123009   2.244   0.955   5.646
 7370SOL    HW223010   2.091   0.974   5.701
 7371SOL     OW23011   3.053   5.542   4.234
 7371SOL    HW123012   3.086   5.612   4.297
 7371SOL    HW223013   3.054   5.453   4.280
 7372SOL     OW23014   3.095   0.617   5.418
 7372SOL    HW123015   3.159   0.595   5.343
 7372SOL    HW223016   3.143   0.669   5.488
 7373SOL     OW23017   4.671   1.644   3.668
 7373SOL    HW123018   4.678   1.551   3.706
 7373SOL    HW223019   4.615   1.701   3.728
 7374SOL     OW23020   2.635   2.593   5.413
 7374SOL    HW123021   2.683   2.666   5.365
 7374SOL    HW223022   2.697   2.515   5.425
 7375SOL     OW23023   1.874   2.309   3.743
 7375SOL    HW123024   1.793   2.263   3.778
 7375SOL    HW223025   1.898   2.270   3.654
 7376SOL     OW23026   3.780   2.162   0.256
 7376SOL    HW123027   3.742   2.137   0.345
 7376SOL    HW223028   3.875   2.132   0.250
 7377SOL     OW23029   4.359   5.910   1.826
 7377SOL    HW123030   4.264   5.899   1.855
 7377SOL    HW223031   4.404   5.979   1.882
 7378SOL     OW23032   7.021   2.209   4.160
 7378SOL    HW123033   6.985   2.268   4.232
 7378SOL    HW223034   6.981   2.236   4.072
 7379SOL     OW23035   4.207   1.834   3.169
 7379SOL    HW123036   4.128   1.799   3.220
 7379SOL    HW223037   4.245   1.913   3.218
 7380SOL     OW23038   0.063   3.209   5.520
 7380SOL    HW123039   0.039   3.187   5.425
 7380SOL    HW223040   0.019   3.143   5.581
 7381SOL     OW23041   4.934   3.192   2.554
 7381SOL    HW123042   5.023   3.153   2.528
 7381SOL    HW223043   4.901   3.250   2.479
 7382SOL     OW23044   0.043   5.400   5.584
 7382SOL    HW123045   0.077   5.472   5.524
 7382SOL    HW223046   0.013   5.322   5.530
 7383SOL     OW23047   0.398   0.006   2.508
 7383SOL    HW123048   0.401   6.989   2.416
 7383SOL    HW223049   0.336   0.085   2.509
 7384SOL     OW23050   4.936   0.728   1.863
 7384SOL    HW123051   4.992   0.645   1.858
 7384SOL    HW223052   4.849   0.707   1.908
 7385SOL     OW23053   3.771   6.477   2.149
 7385SOL    HW123054   3.803   6.513   2.237
 7385SOL    HW223055   3.836   6.409   2.115
 7386SOL     OW23056   0.359   2.713   5.344
 7386SOL    HW123057   0.441   2.767   5.324
 7386SOL    HW223058   0.326   2.669   5.261
 7387SOL     OW23059   4.203   6.868   4.811
 7387SOL    HW123060   4.193   6.909   4.720
 7387SOL    HW223061   4.131   6.801   4.826
 7388SOL     OW23062   6.780   5.809   3.620
 7388SOL    HW123063   6.861   5.753   3.600
 7388SOL    HW223064   6.786   5.895   3.569
 7389SOL     OW23065   0.959   4.755   6.479
 7389SOL    HW123066   1.037   4.697   6.454
 7389SOL    HW223067   0.874   4.702   6.473
 7390SOL     OW23068   1.645   1.626   6.509
 7390SOL    HW123069   1.547   1.610   6.501
 7390SOL    HW223070   1.667   1.661   6.600
 7391SOL     OW23071   4.762   4.631   5.026
 7391SOL    HW123072   4.696   4.589   4.963
 7391SOL    HW223073   4.818   4.697   4.975
 7392SOL     OW23074   2.843   6.082   6.466
 7392SOL    HW123075   2.840   6.077   6.366
 7392SOL    HW223076   2.788   6.159   6.497
 7393SOL     OW23077   6.077   5.542   1.576
 7393SOL    HW123078   6.071   5.641   1.590
 7393SOL    HW223079   6.124   5.524   1.489
 7394SOL     OW23080   3.021   2.522   6.178
 7394SOL    HW123081   2.954   2.536   6.106
 7394SOL    HW223082   2.974   2.509   6.266
 7395SOL     OW23083   1.222   1.194   0.035
 7395SOL    HW123084   1.310   1.195   0.083
 7395SOL    HW223085   1.231   1.245   6.971
 7396SOL     OW23086   1.159   0.974   6.915
 7396SOL    HW123087   1.220   0.946   6.841
 7396SOL    HW223088   1.196   1.056   6.959
 7397SOL     OW23089   5.436   5.146   4.595
 7397SOL    HW123090   5.385   5.070   4.554
 7397SOL    HW223091   5.389   5.232   4.576
 7398SOL     OW23092   3.155   4.869   4.303
 7398SOL    HW123093   3.060   4.841   4.289
 7398SOL    HW223094   3.200   4.880   4.215
 7399SOL     OW23095   0.528   3.370   5.358
 7399SOL    HW123096   0.559   3.438   5.424
 7399SOL    HW223097   0.478   3.298   5.406
 7400SOL     OW23098   3.094   3.868   6.633
 7400SOL    HW123099   3.188   3.858   6.601
 7400SOL    HW223100   3.031   3.857   6.556
 7401SOL     OW23101   0.578   1.338   3.656
 7401SOL    HW123102   0.583   1.305   3.750
 7401SOL    HW223103   0.665   1.321   3.610
 7402SOL     OW23104   1.515   6.244   4.543
 7402SOL    HW123105   1.474   6.325   4.586
 7402SOL    HW223106   1.584   6.205   4.603
 7403SOL     OW23107   1.741   3.396   2.795
 7403SOL    HW123108   1.674   3.443   2.852
 7403SOL    HW223109   1.705   3.306   2.769
 7404SOL     OW23110   2.078   5.819   1.622
 7404SOL    HW123111   2.052   5.725   1.601
 7404SOL    HW223112   2.174   5.833   1.599
 7405SOL     OW23113   1.699   5.115   4.726
 7405SOL    HW123114   1.775   5.120   4.662
 7405SOL    HW223115   1.683   5.206   4.765
 7406SOL     OW23116   1.585   3.911   2.328
 7406SOL    HW123117   1.535   3.892   2.244
 7406SOL    HW223118   1.522   3.912   2.406
 7407SOL     OW23119   0.102   6.152   4.727
 7407SOL    HW123120   0.109   6.125   4.631
 7407SOL    HW223121   0.028   6.218   4.738
 7408SOL     OW23122   1.172   4.109   5.483
 7408SOL    HW123123   1.095   4.068   5.531
 7408SOL    HW223124   1.241   4.039   5.463
 7409SOL     OW23125   0.261   0.370   4.414
 7409SOL    HW123126   0.193   0.316   4.363
 7409SOL    HW223127   0.318   0.420   4.349
 7410SOL     OW23128   6.924   4.522   0.955
 7410SOL    HW123129   6.968   4.515   1.044
 7410SOL    HW223130   6.904   4.617   0.934
 7411SOL     OW23131   3.339   6.485   4.631
 7411SOL    HW123132   3.348   6.542   4.712
 7411SOL    HW223133   3.429   6.469   4.591
 7412SOL     OW23134   3.929   1.148   1.751
 7412SOL    HW123135   3.938   1.226   1.814
 7412SOL    HW223136   4.020   1.120   1.720
 7413SOL     OW23137   6.717   5.238   4.318
 7413SOL    HW123138   6.814   5.239   4.342
 7413SOL    HW223139   6.666   5.294   4.384
 7414SOL     OW23140   0.110   0.148   2.985
 7414SOL    HW123141   0.198   0.099   2.984
 7414SOL    HW223142   0.110   0.217   2.913
 7415SOL     OW23143   0.636   3.940   3.353
 7415SOL    HW123144   0.607   4.029   3.387
 7415SOL    HW223145   0.590   3.920   3.267
 7416SOL     OW23146   3.096   0.516   4.141
 7416SOL    HW123147   3.065   0.478   4.053
 7416SOL    HW223148   3.074   0.452   4.214
 7417SOL     OW23149   1.573   0.075   6.417
 7417SOL    HW123150   1.490   0.077   6.473
 7417SOL    HW223151   1.609   0.168   6.409
 7418SOL     OW23152   4.397   4.908   1.208
 7418SOL    HW123153   4.452   4.862   1.139
 7418SOL    HW223154   4.305   4.925   1.171
 7419SOL     OW23155   6.385   2.489   4.666
 7419SOL    HW123156   6.368   2.549   4.743
 7419SOL    HW223157   6.341   2.526   4.584
 7420SOL     OW23158   6.418   6.381   2.223
 7420SOL    HW123159   6.471   6.340   2.297
 7420SOL    HW223160   6.451   6.473   2.204
 7421SOL     OW23161   3.307   3.372   1.970
 7421SOL    HW123162   3.274   3.299   1.910
 7421SOL    HW223163   3.404   3.359   1.987
 7422SOL     OW23164   0.091   3.606   2.224
 7422SOL    HW123165   0.148   3.687   2.204
 7422SOL    HW223166   0.054   3.570   2.138
 7423SOL     OW23167   6.705   3.552   6.340
 7423SOL    HW123168   6.795   3.512   6.351
 7423SOL    HW223169   6.709   3.651   6.359
 7424SOL     OW23170   6.343   1.181   4.003
 7424SOL    HW123171   6.393   1.265   3.983
 7424SOL    HW223172   6.268   1.169   3.938
 7425SOL     OW23173   4.523   5.353   6.396
 7425SOL    HW123174   4.587   5.372   6.470
 7425SOL    HW223175   4.442   5.308   6.433
 7426SOL     OW23176   1.131   2.118   6.633
 7426SOL    HW123177   1.148   2.206   6.589
 7426SOL    HW223178   1.212   2.091   6.685
 7427SOL     OW23179   3.007   5.944   4.436
 7427SOL    HW123180   3.013   5.873   4.506
 7427SOL    HW223181   2.911   5.955   4.408
 7428SOL     OW23182   3.303   1.449   5.139
 7428SOL    HW123183   3.293   1.387   5.218
 7428SOL    HW223184   3.385   1.424   5.088
 7429SOL     OW23185   5.398   0.664   3.666
 7429SOL    HW123186   5.355   0.674   3.576
 7429SOL    HW223187   5.479   0.723   3.670
 7430SOL     OW23188   6.655   4.502   6.042
 7430SOL    HW123189   6.743   4.544   6.018
 7430SOL    HW223190   6.636   4.426   5.980
 7431SOL     OW23191   0.659   3.744   2.037
 7431SOL    HW123192   0.561   3.735   2.018
 7431SOL    HW223193   0.711   3.692   1.969
 7432SOL     OW23194   0.040   6.854   2.704
 7432SOL    HW123195   0.012   6.869   2.799
 7432SOL    HW223196   0.042   6.942   2.656
 7433SOL     OW23197   6.747   5.585   0.806
 7433SOL    HW123198   6.723   5.674   0.767
 7433SOL    HW223199   6.807   5.536   0.743
 7434SOL     OW23200   4.060   1.379   6.481
 7434SOL    HW123201   4.027   1.422   6.397
 7434SOL    HW223202   4.073   1.448   6.552
 7435SOL     OW23203   3.603   6.356   6.694
 7435SOL    HW123204   3.576   6.442   6.736
 7435SOL    HW223205   3.526   6.293   6.694
 7436SOL     OW23206   5.661   3.403   6.438
 7436SOL    HW123207   5.744   3.398   6.494
 7436SOL    HW223208   5.662   3.331   6.369
 7437SOL     OW23209   6.975   6.071   6.979
 7437SOL    HW123210   0.009   6.067   0.039
 7437SOL    HW223211   6.997   5.994   6.919
 7438SOL     OW23212   0.924   4.909   0.541
 7438SOL    HW123213   0.917   4.989   0.481
 7438SOL    HW223214   0.925   4.826   0.485
 7439SOL     OW23215   1.883   6.494   4.428
 7439SOL    HW123216   1.837   6.406   4.414
 7439SOL    HW223217   1.854   6.533   4.516
 7440SOL     OW23218   0.984   2.942   4.423
 7440SOL    HW123219   1.012   2.971   4.515
 7440SOL    HW223220   0.887   2.919   4.423
 7441SOL     OW23221   5.636   5.976   4.734
 7441SOL    HW123222   5.705   5.974   4.662
 7441SOL    HW223223   5.578   5.895   4.726
 7442SOL     OW23224   1.290   1.040   6.237
 7442SOL    HW123225   1.250   1.094   6.162
 7442SOL    HW223226   1.238   0.955   6.247
 7443SOL     OW23227   0.271   1.240   1.282
 7443SOL    HW123228   0.278   1.295   1.366
 7443SOL    HW223229   0.291   1.145   1.303
 7444SOL     OW23230   6.698   3.417   5.203
 7444SOL    HW123231   6.672   3.471   5.123
 7444SOL    HW223232   6.797   3.404   5.204
 7445SOL     OW23233   3.402   0.872   1.348
 7445SOL    HW123234   3.431   0.964   1.322
 7445SOL    HW223235   3.452   0.843   1.429
 7446SOL     OW23236   5.486   4.410   0.448
 7446SOL    HW123237   5.506   4.390   0.544
 7446SOL    HW223238   5.490   4.509   0.433
 7447SOL     OW23239   1.647   3.151   5.498
 7447SOL    HW123240   1.551   3.171   5.518
 7447SOL    HW223241   1.699   3.237   5.494
 7448SOL     OW23242   5.197   6.476   5.773
 7448SOL    HW123243   5.186   6.491   5.675
 7448SOL    HW223244   5.144   6.545   5.823
 7449SOL     OW23245   5.327   2.786   2.268
 7449SOL    HW123246   5.262   2.819   2.200
 7449SOL    HW223247   5.409   2.844   2.268
 7450SOL     OW23248   4.950   2.069   4.069
 7450SOL    HW123249   5.035   2.022   4.093
 7450SOL    HW223250   4.967   2.133   3.994
 7451SOL     OW23251   2.407   0.274   3.226
 7451SOL    HW123252   2.375   0.181   3.213
 7451SOL    HW223253   2.505   0.279   3.207
 7452SOL     OW23254   0.758   6.624   4.536
 7452SOL    HW123255   0.720   6.655   4.449
 7452SOL    HW223256   0.792   6.530   4.526
 7453SOL     OW23257   4.978   5.458   6.498
 7453SOL    HW123258   5.078   5.456   6.504
 7453SOL    HW223259   4.949   5.431   6.406
 7454SOL     OW23260   1.309   2.971   2.058
 7454SOL    HW123261   1.374   3.043   2.031
 7454SOL    HW223262   1.358   2.901   2.110
 7455SOL     OW23263   6.908   1.469   1.837
 7455SOL    HW123264   6.900   1.382   1.788
 7455SOL    HW223265   6.861   1.540   1.786
 7456SOL     OW23266   0.725   2.118   4.394
 7456SOL    HW123267   0.723   2.045   4.326
 7456SOL    HW223268   0.818   2.127   4.431
 7457SOL     OW23269   3.755   0.672   5.835
 7457SOL    HW123270   3.849   0.690   5.807
 7457SOL    HW223271   3.756   0.619   5.920
 7458SOL     OW23272   1.720   0.336   6.337
 7458SOL    HW123273   1.691   0.427   6.367
 7458SOL    HW223274   1.750   0.340   6.242
 7459SOL     OW23275   4.606   0.128   0.336
 7459SOL    HW123276   4.629   0.217   0.297
 7459SOL    HW223277   4.623   0.056   0.267
 7460SOL     OW23278   1.417   4.283   1.142
 7460SOL    HW123279   1.353   4.323   1.076
 7460SOL    HW223280   1.399   4.185   1.150
 7461SOL     OW23281   5.417   1.415   6.244
 7461SOL    HW123282   5.468   1.480   6.187
 7461SOL    HW223283   5.392   1.335   6.190
 7462SOL     OW23284   2.145   2.831   2.317
 7462SOL    HW123285   2.153   2.898   2.243
 7462SOL    HW223286   2.216   2.762   2.308
 7463SOL     OW23287   3.514   4.456   1.432
 7463SOL    HW123288   3.522   4.357   1.424
 7463SOL    HW223289   3.529   4.499   1.343
 7464SOL     OW23290   3.253   6.903   6.385
 7464SOL    HW123291   3.192   6.971   6.426
 7464SOL    HW223292   3.340   6.903   6.435
 7465SOL     OW23293   1.815   0.420   0.264
 7465SOL    HW123294   1.906   0.405   0.304
 7465SOL    HW223295   1.787   0.338   0.214
 7466SOL     OW23296   1.055   0.390   6.844
 7466SOL    HW123297   0.979   0.324   6.846
 7466SOL    HW223298   1.017   0.482   6.839
 7467SOL     OW23299   6.806   1.319   0.647
 7467SOL    HW123300   6.725   1.369   0.618
 7467SOL    HW223301   6.840   1.263   0.571
 7468SOL     OW23302   5.310   3.124   2.762
 7468SOL    HW123303   5.215   3.105   2.785
 7468SOL    HW223304   5.365   3.042   2.776
 7469SOL     OW23305   0.473   0.273   0.454
 7469SOL    HW123306   0.489   0.187   0.503
 7469SOL    HW223307   0.433   0.340   0.516
 7470SOL     OW23308   0.376   3.206   4.096
 7470SOL    HW123309   0.447   3.135   4.093
 7470SOL    HW223310   0.309   3.189   4.024
 7471SOL     OW23311   5.734   6.481   5.315
 7471SOL    HW123312   5.754   6.405   5.254
 7471SOL    HW223313   5.705   6.445   5.404
 7472SOL     OW23314   5.784   6.764   4.348
 7472SOL    HW123315   5.876   6.749   4.312
 7472SOL    HW223316   5.729   6.812   4.280
 7473SOL     OW23317   0.499   4.181   2.752
 7473SOL    HW123318   0.592   4.183   2.788
 7473SOL    HW223319   0.445   4.114   2.803
 7474SOL     OW23320   2.350   1.509   4.777
 7474SOL    HW123321   2.265   1.562   4.777
 7474SOL    HW223322   2.384   1.500   4.871
 7475SOL     OW23323   3.459   1.703   2.844
 7475SOL    HW123324   3.413   1.619   2.872
 7475SOL    HW223325   3.423   1.733   2.756
 7476SOL     OW23326   3.465   6.247   4.331
 7476SOL    HW123327   3.378   6.200   4.349
 7476SOL    HW223328   3.465   6.336   4.377
 7477SOL     OW23329   5.854   1.386   4.110
 7477SOL    HW123330   5.773   1.341   4.147
 7477SOL    HW223331   5.936   1.343   4.147
 7478SOL     OW23332   4.058   4.739   6.656
 7478SOL    HW123333   4.156   4.759   6.656
 7478SOL    HW223334   4.016   4.771   6.571
 7479SOL     OW23335   4.334   2.482   0.889
 7479SOL    HW123336   4.259   2.416   0.890
 7479SOL    HW223337   4.398   2.460   0.816
 7480SOL     OW23338   6.900   4.314   1.644
 7480SOL    HW123339   6.891   4.333   1.742
 7480SOL    HW223340   6.994   4.331   1.614
 7481SOL     OW23341   5.793   5.059   1.978
 7481SOL    HW123342   5.842   5.094   2.058
 7481SOL    HW223343   5.701   5.099   1.975
 7482SOL     OW23344   5.209   1.482   2.871
 7482SOL    HW123345   5.184   1.575   2.845
 7482SOL    HW223346   5.241   1.432   2.791
 7483SOL     OW23347   4.435   2.130   5.115
 7483SOL    HW123348   4.475   2.109   5.205
 7483SOL    HW223349   4.427   2.046   5.062
 7484SOL     OW23350   0.407   0.278   2.734
 7484SOL    HW123351   0.381   0.217   2.810
 7484SOL    HW223352   0.377   0.238   2.648
 7485SOL     OW23353   3.244   6.322   4.998
 7485SOL    HW123354   3.210   6.330   5.092
 7485SOL    HW223355   3.172   6.347   4.934
 7486SOL     OW23356   2.651   0.501   6.279
 7486SOL    HW123357   2.741   0.472   6.312
 7486SOL    HW223358   2.642   0.478   6.182
 7487SOL     OW23359   2.469   6.024   2.068
 7487SOL    HW123360   2.422   5.946   2.026
 7487SOL    HW223361   2.406   6.071   2.130
 7488SOL     OW23362   2.017   6.667   4.890
 7488SOL    HW123363   2.042   6.650   4.795
 7488SOL    HW223364   1.919   6.653   4.902
 7489SOL     OW23365   5.742   2.084   5.073
 7489SOL    HW123366   5.805   2.016   5.111
 7489SOL    HW223367   5.657   2.083   5.125
 7490SOL     OW23368   0.973   1.385   1.232
 7490SOL    HW123369   0.939   1.380   1.138
 7490SOL    HW223370   0.959   1.477   1.268
 7491SOL     OW23371   6.894   4.032   0.080
 7491SOL    HW123372   6.892   3.976   0.163
 7491SOL    HW223373   6.816   4.010   0.023
 7492SOL     OW23374   2.832   1.075   4.578
 7492SOL    HW123375   2.773   1.028   4.512
 7492SOL    HW223376   2.925   1.038   4.570
 7493SOL     OW23377   0.212   4.548   6.694
 7493SOL    HW123378   0.228   4.642   6.663
 7493SOL    HW223379   0.125   4.544   6.743
 7494SOL     OW23380   6.225   1.235   2.241
 7494SOL    HW123381   6.317   1.213   2.274
 7494SOL    HW223382   6.172   1.151   2.231
 7495SOL     OW23383   2.666   1.014   1.168
 7495SOL    HW123384   2.732   1.086   1.187
 7495SOL    HW223385   2.573   1.051   1.175
 7496SOL     OW23386   0.888   3.584   6.437
 7496SOL    HW123387   0.806   3.592   6.381
 7496SOL    HW223388   0.967   3.615   6.385
 7497SOL     OW23389   2.525   4.280   0.468
 7497SOL    HW123390   2.454   4.222   0.508
 7497SOL    HW223391   2.552   4.351   0.534
 7498SOL     OW23392   1.994   1.412   4.988
 7498SOL    HW123393   2.067   1.349   4.963
 7498SOL    HW223394   1.991   1.488   4.922
 7499SOL     OW23395   5.515   1.026   3.346
 7499SOL    HW123396   5.576   1.105   3.345
 7499SOL    HW223397   5.420   1.058   3.347
 7500SOL     OW23398   3.856   5.989   4.096
 7500SOL    HW123399   3.832   6.054   4.024
 7500SOL    HW223400   3.787   5.991   4.168
 7501SOL     OW23401   6.648   4.560   4.440
 7501SOL    HW123402   6.620   4.593   4.350
 7501SOL    HW223403   6.576   4.582   4.507
 7502SOL     OW23404   1.260   0.456   5.023
 7502SOL    HW123405   1.277   0.544   4.978
 7502SOL    HW223406   1.179   0.464   5.081
 7503SOL     OW23407   1.707   1.267   0.336
 7503SOL    HW123408   1.706   1.177   0.292
 7503SOL    HW223409   1.709   1.255   0.435
 7504SOL     OW23410   2.660   0.481   3.861
 7504SOL    HW123411   2.747   0.517   3.828
 7504SOL    HW223412   2.589   0.552   3.852
 7505SOL     OW23413   2.045   1.169   5.560
 7505SOL    HW123414   1.954   1.128   5.562
 7505SOL    HW223415   2.061   1.210   5.470
 7506SOL     OW23416   4.297   6.881   3.247
 7506SOL    HW123417   4.350   6.966   3.243
 7506SOL    HW223418   4.278   6.857   3.342
 7507SOL     OW23419   0.974   0.513   1.195
 7507SOL    HW123420   0.951   0.598   1.242
 7507SOL    HW223421   1.008   0.447   1.261
 7508SOL     OW23422   6.527   6.762   1.873
 7508SOL    HW123423   6.482   6.716   1.796
 7508SOL    HW223424   6.578   6.694   1.926
 7509SOL     OW23425   5.644   3.933   1.200
 7509SOL    HW123426   5.599   3.881   1.273
 7509SOL    HW223427   5.620   4.030   1.208
 7510SOL     OW23428   2.859   4.620   5.427
 7510SOL    HW123429   2.869   4.570   5.340
 7510SOL    HW223430   2.862   4.555   5.503
 7511SOL     OW23431   1.394   0.007   3.550
 7511SOL    HW123432   1.413   6.941   3.592
 7511SOL    HW223433   1.320   7.019   3.484
 7512SOL     OW23434   3.301   4.470   0.490
 7512SOL    HW123435   3.398   4.448   0.482
 7512SOL    HW223436   3.247   4.385   0.490
 7513SOL     OW23437   1.770   1.844   1.451
 7513SOL    HW123438   1.696   1.856   1.385
 7513SOL    HW223439   1.742   1.879   1.540
 7514SOL     OW23440   2.499   5.160   1.839
 7514SOL    HW123441   2.480   5.121   1.749
 7514SOL    HW223442   2.496   5.259   1.834
 7515SOL     OW23443   0.891   5.700   2.479
 7515SOL    HW123444   0.892   5.672   2.383
 7515SOL    HW223445   0.971   5.662   2.526
 7516SOL     OW23446   6.704   6.328   4.219
 7516SOL    HW123447   6.793   6.331   4.265
 7516SOL    HW223448   6.658   6.242   4.241
 7517SOL     OW23449   0.273   3.009   1.038
 7517SOL    HW123450   0.357   3.004   1.092
 7517SOL    HW223451   0.244   3.105   1.030
 7518SOL     OW23452   4.114   5.432   3.691
 7518SOL    HW123453   4.127   5.488   3.609
 7518SOL    HW223454   4.197   5.436   3.748
 7519SOL     OW23455   0.367   6.828   3.356
 7519SOL    HW123456   0.369   6.781   3.444
 7519SOL    HW223457   0.285   6.883   3.349
 7520SOL     OW23458   3.298   0.096   1.938
 7520SOL    HW123459   3.387   0.141   1.932
 7520SOL    HW223460   3.307   0.000   1.910
 7521SOL     OW23461   4.729   4.701   6.286
 7521SOL    HW123462   4.706   4.787   6.333
 7521SOL    HW223463   4.732   4.627   6.353
 7522SOL     OW23464   2.534   6.875   6.737
 7522SOL    HW123465   2.568   6.941   6.670
 7522SOL    HW223466   2.523   6.921   6.825
 7523SOL     OW23467   5.690   0.505   6.309
 7523SOL    HW123468   5.678   0.410   6.280
 7523SOL    HW223469   5.731   0.557   6.235
 7524SOL     OW23470   1.486   1.888   6.693
 7524SOL    HW123471   1.468   1.798   6.733
 7524SOL    HW223472   1.413   1.951   6.718
 7525SOL     OW23473   2.598   0.150   6.876
 7525SOL    HW123474   2.695   0.163   6.858
 7525SOL    HW223475   2.584   0.128   6.973
 7526SOL     OW23476   3.756   2.953   2.455
 7526SOL    HW123477   3.800   2.982   2.369
 7526SOL    HW223478   3.708   2.867   2.440
 7527SOL     OW23479   4.076   5.599   3.330
 7527SOL    HW123480   4.024   5.669   3.378
 7527SOL    HW223481   4.014   5.544   3.274
 7528SOL     OW23482   3.997   1.878   6.676
 7528SOL    HW123483   3.983   1.818   6.597
 7528SOL    HW223484   3.930   1.952   6.674
 7529SOL     OW23485   5.839   0.399   4.371
 7529SOL    HW123486   5.851   0.413   4.273
 7529SOL    HW223487   5.741   0.396   4.392
 7530SOL     OW23488   6.639   4.313   2.588
 7530SOL    HW123489   6.544   4.295   2.613
 7530SOL    HW223490   6.700   4.273   2.656
 7531SOL     OW23491   4.828   2.551   4.072
 7531SOL    HW123492   4.803   2.645   4.094
 7531SOL    HW223493   4.873   2.509   4.151
 7532SOL     OW23494   5.711   5.257   1.707
 7532SOL    HW123495   5.693   5.170   1.660
 7532SOL    HW223496   5.635   5.320   1.692
 7533SOL     OW23497   2.615   0.902   3.072
 7533SOL    HW123498   2.694   0.843   3.056
 7533SOL    HW223499   2.601   0.962   2.993
 7534SOL     OW23500   3.600   6.481   6.111
 7534SOL    HW123501   3.627   6.554   6.174
 7534SOL    HW223502   3.591   6.395   6.162
 7535SOL     OW23503   2.953   0.757   5.722
 7535SOL    HW123504   2.969   0.669   5.766
 7535SOL    HW223505   3.028   0.819   5.743
 7536SOL     OW23506   5.414   5.363   5.156
 7536SOL    HW123507   5.505   5.335   5.124
 7536SOL    HW223508   5.372   5.423   5.088
 7537SOL     OW23509   2.822   5.662   3.918
 7537SOL    HW123510   2.919   5.664   3.896
 7537SOL    HW223511   2.807   5.612   4.003
 7538SOL     OW23512   3.500   2.983   2.078
 7538SOL    HW123513   3.473   2.909   2.016
 7538SOL    HW223514   3.419   3.034   2.106
 7539SOL     OW23515   2.266   2.464   4.213
 7539SOL    HW123516   2.259   2.423   4.122
 7539SOL    HW223517   2.178   2.455   4.260
 7540SOL     OW23518   2.739   0.140   5.314
 7540SOL    HW123519   2.741   0.068   5.245
 7540SOL    HW223520   2.833   0.162   5.342
 7541SOL     OW23521   6.928   3.893   4.678
 7541SOL    HW123522   6.917   3.984   4.719
 7541SOL    HW223523   6.851   3.873   4.619
 7542SOL     OW23524   0.843   5.487   0.237
 7542SOL    HW123525   0.877   5.557   0.299
 7542SOL    HW223526   0.915   5.459   0.174
 7543SOL     OW23527   4.435   2.034   1.002
 7543SOL    HW123528   4.428   2.059   0.905
 7543SOL    HW223529   4.435   2.117   1.057
 7544SOL     OW23530   0.269   2.486   3.271
 7544SOL    HW123531   0.273   2.389   3.298
 7544SOL    HW223532   0.359   2.514   3.237
 7545SOL     OW23533   5.820   6.300   2.415
 7545SOL    HW123534   5.858   6.339   2.331
 7545SOL    HW223535   5.792   6.374   2.477
 7546SOL     OW23536   3.934   0.747   1.541
 7546SOL    HW123537   3.883   0.674   1.586
 7546SOL    HW223538   3.988   0.796   1.609
 7547SOL     OW23539   4.491   0.225   0.567
 7547SOL    HW123540   4.464   0.134   0.598
 7547SOL    HW223541   4.532   0.218   0.476
 7548SOL     OW23542   3.446   1.995   0.384
 7548SOL    HW123543   3.517   2.004   0.453
 7548SOL    HW223544   3.483   1.945   0.305
 7549SOL     OW23545   5.549   1.393   1.019
 7549SOL    HW123546   5.564   1.485   0.982
 7549SOL    HW223547   5.451   1.372   1.020
 7550SOL     OW23548   2.344   4.667   1.950
 7550SOL    HW123549   2.245   4.682   1.956
 7550SOL    HW223550   2.390   4.717   2.024
 7551SOL     OW23551   4.708   3.951   6.789
 7551SOL    HW123552   4.710   3.901   6.876
 7551SOL    HW223553   4.700   3.886   6.714
 7552SOL     OW23554   2.011   5.940   3.916
 7552SOL    HW123555   2.080   6.001   3.877
 7552SOL    HW223556   2.053   5.851   3.935
 7553SOL     OW23557   4.381   5.027   5.745
 7553SOL    HW123558   4.378   4.930   5.719
 7553SOL    HW223559   4.436   5.038   5.828
 7554SOL     OW23560   5.199   0.109   1.272
 7554SOL    HW123561   5.250   0.086   1.189
 7554SOL    HW223562   5.111   0.062   1.272
 7555SOL     OW23563   1.642   5.364   5.323
 7555SOL    HW123564   1.667   5.273   5.290
 7555SOL    HW223565   1.703   5.391   5.398
 7556SOL     OW23566   0.436   2.599   5.599
 7556SOL    HW123567   0.358   2.559   5.647
 7556SOL    HW223568   0.404   2.650   5.519
 7557SOL     OW23569   5.084   2.707   6.256
 7557SOL    HW123570   5.055   2.802   6.244
 7557SOL    HW223571   5.008   2.653   6.292
 7558SOL     OW23572   1.862   2.898   3.414
 7558SOL    HW123573   1.797   2.824   3.430
 7558SOL    HW223574   1.946   2.861   3.375
 7559SOL     OW23575   6.130   5.261   6.912
 7559SOL    HW123576   6.048   5.304   6.950
 7559SOL    HW223577   6.113   5.163   6.898
 7560SOL     OW23578   4.866   6.303   0.372
 7560SOL    HW123579   4.838   6.208   0.357
 7560SOL    HW223580   4.787   6.356   0.405
 7561SOL     OW23581   0.856   2.771   0.360
 7561SOL    HW123582   0.955   2.787   0.354
 7561SOL    HW223583   0.839   2.675   0.385
 7562SOL     OW23584   5.574   6.080   4.992
 7562SOL    HW123585   5.580   6.058   4.894
 7562SOL    HW223586   5.616   6.006   5.045
 7563SOL     OW23587   2.601   6.248   0.693
 7563SOL    HW123588   2.667   6.195   0.640
 7563SOL    HW223589   2.511   6.205   0.687
 7564SOL     OW23590   5.795   1.325   2.715
 7564SOL    HW123591   5.714   1.346   2.770
 7564SOL    HW223592   5.864   1.397   2.730
 7565SOL     OW23593   5.514   4.447   0.052
 7565SOL    HW123594   5.430   4.409   0.013
 7565SOL    HW223595   5.554   4.382   0.116
 7566SOL     OW23596   6.889   5.326   3.740
 7566SOL    HW123597   6.935   5.325   3.651
 7566SOL    HW223598   6.795   5.359   3.728
 7567SOL     OW23599   1.726   2.542   4.895
 7567SOL    HW123600   1.751   2.592   4.978
 7567SOL    HW223601   1.809   2.520   4.843
 7568SOL     OW23602   5.668   6.126   2.882
 7568SOL    HW123603   5.718   6.130   2.968
 7568SOL    HW223604   5.615   6.210   2.870
 7569SOL     OW23605   4.271   4.881   6.793
 7569SOL    HW123606   4.172   4.895   6.804
 7569SOL    HW223607   4.319   4.921   6.870
 7570SOL     OW23608   5.416   4.837   5.389
 7570SOL    HW123609   5.398   4.740   5.405
 7570SOL    HW223610   5.351   4.872   5.322
 7571SOL     OW23611   4.791   5.143   2.654
 7571SOL    HW123612   4.828   5.158   2.746
 7571SOL    HW223613   4.805   5.225   2.599
 7572SOL     OW23614   4.819   0.869   3.111
 7572SOL    HW123615   4.770   0.844   3.027
 7572SOL    HW223616   4.835   0.967   3.113
 7573SOL     OW23617   6.315   6.547   4.604
 7573SOL    HW123618   6.249   6.616   4.575
 7573SOL    HW223619   6.325   6.550   4.703
 7574SOL     OW23620   7.004   0.818   4.433
 7574SOL    HW123621   6.915   0.849   4.399
 7574SOL    HW223622   0.033   0.895   4.469
 7575SOL     OW23623   3.999   0.511   5.914
 7575SOL    HW123624   3.923   0.521   5.977
 7575SOL    HW223625   4.084   0.498   5.965
 7576SOL     OW23626   6.263   5.484   6.845
 7576SOL    HW123627   6.233   5.519   6.756
 7576SOL    HW223628   6.231   5.389   6.855
 7577SOL     OW23629   0.338   6.778   6.134
 7577SOL    HW123630   0.317   6.708   6.066
 7577SOL    HW223631   0.431   6.764   6.169
 7578SOL     OW23632   2.897   5.882   2.859
 7578SOL    HW123633   2.810   5.849   2.895
 7578SOL    HW223634   2.893   5.885   2.759
 7579SOL     OW23635   5.265   2.107   2.412
 7579SOL    HW123636   5.253   2.028   2.351
 7579SOL    HW223637   5.343   2.161   2.381
 7580SOL     OW23638   0.850   4.223   3.977
 7580SOL    HW123639   0.902   4.189   4.055
 7580SOL    HW223640   0.753   4.231   4.002
 7581SOL     OW23641   5.827   6.883   1.285
 7581SOL    HW123642   5.744   6.937   1.272
 7581SOL    HW223643   5.899   6.941   1.323
 7582SOL     OW23644   3.033   1.346   0.668
 7582SOL    HW123645   3.081   1.260   0.689
 7582SOL    HW223646   3.088   1.401   0.606
 7583SOL     OW23647   6.298   2.842   1.788
 7583SOL    HW123648   6.275   2.939   1.793
 7583SOL    HW223649   6.371   2.829   1.721
 7584SOL     OW23650   2.755   6.519   0.577
 7584SOL    HW123651   2.724   6.449   0.640
 7584SOL    HW223652   2.700   6.517   0.493
 7585SOL     OW23653   2.011   3.222   6.209
 7585SOL    HW123654   1.991   3.243   6.305
 7585SOL    HW223655   1.927   3.192   6.163
 7586SOL     OW23656   3.758   0.637   3.569
 7586SOL    HW123657   3.820   0.716   3.560
 7586SOL    HW223658   3.666   0.670   3.590
 7587SOL     OW23659   3.227   1.565   6.732
 7587SOL    HW123660   3.201   1.651   6.776
 7587SOL    HW223661   3.228   1.577   6.633
 7588SOL     OW23662   1.456   3.262   2.571
 7588SOL    HW123663   1.377   3.294   2.624
 7588SOL    HW223664   1.425   3.204   2.496
 7589SOL     OW23665   6.355   7.021   1.283
 7589SOL    HW123666   6.419   6.951   1.316
 7589SOL    HW223667   6.378   0.024   1.189
 7590SOL     OW23668   3.880   2.118   6.565
 7590SOL    HW123669   3.906   2.187   6.633
 7590SOL    HW223670   3.780   2.112   6.562
 7591SOL     OW23671   0.012   4.538   0.463
 7591SOL    HW123672   6.938   4.562   0.454
 7591SOL    HW223673   0.057   4.545   0.374
 7592SOL     OW23674   6.653   4.125   6.118
 7592SOL    HW123675   6.608   4.097   6.202
 7592SOL    HW223676   6.746   4.157   6.138
 7593SOL     OW23677   5.718   2.704   1.208
 7593SOL    HW123678   5.768   2.646   1.273
 7593SOL    HW223679   5.672   2.778   1.258
 7594SOL     OW23680   6.914   4.897   2.413
 7594SOL    HW123681   6.829   4.845   2.422
 7594SOL    HW223682   6.929   4.921   2.317
 7595SOL     OW23683   6.998   2.739   6.104
 7595SOL    HW123684   6.965   2.833   6.102
 7595SOL    HW223685   6.920   2.677   6.113
 7596SOL     OW23686   4.224   5.607   2.981
 7596SOL    HW123687   4.184   5.613   2.890
 7596SOL    HW223688   4.249   5.698   3.013
 7597SOL     OW23689   2.713   6.047   2.229
 7597SOL    HW123690   2.623   6.041   2.186
 7597SOL    HW223691   2.777   6.092   2.167
 7598SOL     OW23692   6.819   1.868   3.125
 7598SOL    HW123693   6.832   1.772   3.100
 7598SOL    HW223694   6.870   1.888   3.209
 7599SOL     OW23695   5.771   1.461   3.138
 7599SOL    HW123696   5.765   1.495   3.043
 7599SOL    HW223697   5.783   1.539   3.200
 7600SOL     OW23698   1.846   1.341   2.158
 7600SOL    HW123699   1.878   1.416   2.100
 7600SOL    HW223700   1.891   1.256   2.132
 7601SOL     OW23701   2.029   5.363   2.276
 7601SOL    HW123702   2.056   5.364   2.372
 7601SOL    HW223703   2.080   5.433   2.226
 7602SOL     OW23704   1.168   4.501   6.450
 7602SOL    HW123705   1.097   4.450   6.402
 7602SOL    HW223706   1.233   4.437   6.491
 7603SOL     OW23707   1.902   5.355   6.025
 7603SOL    HW123708   1.863   5.267   5.999
 7603SOL    HW223709   1.901   5.417   5.946
 7604SOL     OW23710   1.752   4.383   4.276
 7604SOL    HW123711   1.682   4.312   4.288
 7604SOL    HW223712   1.819   4.376   4.350
 7605SOL     OW23713   0.602   7.002   0.554
 7605SOL    HW123714   0.624   6.993   0.651
 7605SOL    HW223715   0.673   6.958   0.499
 7606SOL     OW23716   6.756   3.232   3.745
 7606SOL    HW123717   6.751   3.138   3.777
 7606SOL    HW223718   6.826   3.281   3.798
 7607SOL     OW23719   5.052   5.273   0.635
 7607SOL    HW123720   5.110   5.353   0.624
 7607SOL    HW223721   5.103   5.191   0.608
 7608SOL     OW23722   3.357   4.099   3.071
 7608SOL    HW123723   3.449   4.116   3.036
 7608SOL    HW223724   3.302   4.054   3.001
 7609SOL     OW23725   0.273   4.030   3.752
 7609SOL    HW123726   0.368   4.049   3.728
 7609SOL    HW223727   0.263   3.933   3.775
 7610SOL     OW23728   5.962   6.637   6.987
 7610SOL    HW123729   6.011   6.620   6.902
 7610SOL    HW223730   5.998   6.720   0.007
 7611SOL     OW23731   0.602   1.436   0.202
 7611SOL    HW123732   0.570   1.387   0.283
 7611SOL    HW223733   0.594   1.534   0.218
 7612SOL     OW23734   5.110   3.330   4.891
 7612SOL    HW123735   5.027   3.296   4.936
 7612SOL    HW223736   5.146   3.260   4.829
 7613SOL     OW23737   5.837   3.401   1.549
 7613SOL    HW123738   5.883   3.445   1.626
 7613SOL    HW223739   5.777   3.329   1.584
 7614SOL     OW23740   5.293   3.300   0.865
 7614SOL    HW123741   5.295   3.235   0.941
 7614SOL    HW223742   5.352   3.378   0.885
 7615SOL     OW23743   4.975   4.061   6.286
 7615SOL    HW123744   5.036   4.131   6.250
 7615SOL    HW223745   4.954   3.994   6.215
 7616SOL     OW23746   6.691   4.821   4.922
 7616SOL    HW123747   6.703   4.735   4.872
 7616SOL    HW223748   6.623   4.877   4.876
 7617SOL     OW23749   3.497   5.561   2.541
 7617SOL    HW123750   3.529   5.510   2.460
 7617SOL    HW223751   3.397   5.553   2.547
 7618SOL     OW23752   0.475   2.005   6.097
 7618SOL    HW123753   0.548   1.957   6.147
 7618SOL    HW223754   0.417   1.939   6.051
 7619SOL     OW23755   5.378   3.363   5.528
 7619SOL    HW123756   5.305   3.381   5.462
 7619SOL    HW223757   5.423   3.277   5.504
 7620SOL     OW23758   4.108   5.184   0.719
 7620SOL    HW123759   4.185   5.206   0.659
 7620SOL    HW223760   4.137   5.121   0.790
 7621SOL     OW23761   0.148   1.373   0.188
 7621SOL    HW123762   0.081   1.444   0.169
 7621SOL    HW223763   0.221   1.376   0.119
 7622SOL     OW23764   5.270   5.508   1.668
 7622SOL    HW123765   5.293   5.586   1.610
 7622SOL    HW223766   5.354   5.465   1.702
 7623SOL     OW23767   4.542   4.583   6.679
 7623SOL    HW123768   4.605   4.550   6.609
 7623SOL    HW223769   4.541   4.519   6.756
 7624SOL     OW23770   6.743   2.372   4.942
 7624SOL    HW123771   6.777   2.315   4.867
 7624SOL    HW223772   6.648   2.396   4.925
 7625SOL     OW23773   4.769   0.398   1.288
 7625SOL    HW123774   4.725   0.420   1.201
 7625SOL    HW223775   4.753   0.303   1.311
 7626SOL     OW23776   6.547   6.571   4.235
 7626SOL    HW123777   6.482   6.544   4.164
 7626SOL    HW223778   6.623   6.506   4.236
 7627SOL     OW23779   5.453   2.994   6.757
 7627SOL    HW123780   5.404   2.954   6.679
 7627SOL    HW223781   5.550   2.972   6.750
 7628SOL     OW23782   3.639   0.547   2.559
 7628SOL    HW123783   3.720   0.522   2.611
 7628SOL    HW223784   3.659   0.544   2.461
 7629SOL     OW23785   6.878   0.235   3.103
 7629SOL    HW123786   6.791   0.214   3.057
 7629SOL    HW223787   6.954   0.213   3.041
 7630SOL     OW23788   6.313   0.182   1.472
 7630SOL    HW123789   6.326   0.109   1.404
 7630SOL    HW223790   6.396   0.237   1.477
 7631SOL     OW23791   0.491   0.743   5.520
 7631SOL    HW123792   0.406   0.759   5.470
 7631SOL    HW223793   0.523   0.650   5.504
 7632SOL     OW23794   3.697   2.760   1.824
 7632SOL    HW123795   3.645   2.738   1.907
 7632SOL    HW223796   3.730   2.675   1.783
 7633SOL     OW23797   4.687   2.058   0.994
 7633SOL    HW123798   4.591   2.032   1.003
 7633SOL    HW223799   4.704   2.145   1.040
 7634SOL     OW23800   0.493   1.794   2.613
 7634SOL    HW123801   0.445   1.715   2.577
 7634SOL    HW223802   0.436   1.876   2.602
 7635SOL     OW23803   2.816   5.733   5.444
 7635SOL    HW123804   2.720   5.732   5.473
 7635SOL    HW223805   2.871   5.679   5.509
 7636SOL     OW23806   1.702   2.647   3.400
 7636SOL    HW123807   1.681   2.580   3.471
 7636SOL    HW223808   1.617   2.688   3.367
 7637SOL     OW23809   2.688   6.124   3.004
 7637SOL    HW123810   2.760   6.115   3.073
 7637SOL    HW223811   2.689   6.043   2.945
 7638SOL     OW23812   3.728   6.200   1.386
 7638SOL    HW123813   3.750   6.145   1.305
 7638SOL    HW223814   3.750   6.296   1.367
 7639SOL     OW23815   1.534   1.842   0.422
 7639SOL    HW123816   1.609   1.845   0.357
 7639SOL    HW223817   1.533   1.754   0.468
 7640SOL     OW23818   3.464   1.849   0.139
 7640SOL    HW123819   3.544   1.800   0.105
 7640SOL    HW223820   3.386   1.833   0.079
 7641SOL     OW23821   0.999   4.139   1.516
 7641SOL    HW123822   1.015   4.162   1.612
 7641SOL    HW223823   1.077   4.168   1.461
 7642SOL     OW23824   2.723   0.919   2.172
 7642SOL    HW123825   2.811   0.965   2.175
 7642SOL    HW223826   2.733   0.830   2.128
 7643SOL     OW23827   4.797   3.069   4.309
 7643SOL    HW123828   4.876   3.117   4.347
 7643SOL    HW223829   4.814   3.045   4.214
 7644SOL     OW23830   5.650   2.368   2.477
 7644SOL    HW123831   5.699   2.455   2.484
 7644SOL    HW223832   5.716   2.293   2.470
 7645SOL     OW23833   4.529   3.918   5.284
 7645SOL    HW123834   4.488   3.829   5.264
 7645SOL    HW223835   4.477   3.963   5.356
 7646SOL     OW23836   2.150   2.852   2.596
 7646SOL    HW123837   2.154   2.857   2.496
 7646SOL    HW223838   2.187   2.764   2.626
 7647SOL     OW23839   6.687   3.524   2.236
 7647SOL    HW123840   6.702   3.623   2.241
 7647SOL    HW223841   6.592   3.507   2.210
 7648SOL     OW23842   3.187   1.751   3.733
 7648SOL    HW123843   3.114   1.779   3.671
 7648SOL    HW223844   3.196   1.652   3.732
 7649SOL     OW23845   0.752   1.190   2.764
 7649SOL    HW123846   0.791   1.267   2.715
 7649SOL    HW223847   0.789   1.188   2.857
 7650SOL     OW23848   4.930   2.729   1.699
 7650SOL    HW123849   4.930   2.808   1.760
 7650SOL    HW223850   4.856   2.737   1.632
 7651SOL     OW23851   2.093   6.944   4.985
 7651SOL    HW123852   2.180   6.963   5.031
 7651SOL    HW223853   2.102   6.861   4.930
 7652SOL     OW23854   6.585   3.941   4.797
 7652SOL    HW123855   6.570   3.935   4.698
 7652SOL    HW223856   6.510   3.991   4.839
 7653SOL     OW23857   2.955   1.657   0.475
 7653SOL    HW123858   3.049   1.627   0.492
 7653SOL    HW223859   2.928   1.723   0.545
 7654SOL     OW23860   5.464   3.072   4.039
 7654SOL    HW123861   5.471   3.004   4.113
 7654SOL    HW223862   5.397   3.041   3.972
 7655SOL     OW23863   3.326   0.435   3.516
 7655SOL    HW123864   3.356   0.352   3.564
 7655SOL    HW223865   3.365   0.436   3.424
 7656SOL     OW23866   2.042   4.983   6.371
 7656SOL    HW123867   2.101   5.064   6.371
 7656SOL    HW223868   2.070   4.922   6.445
 7657SOL     OW23869   2.459   2.655   3.965
 7657SOL    HW123870   2.430   2.718   4.037
 7657SOL    HW223871   2.383   2.640   3.902
 7658SOL     OW23872   3.638   0.292   6.112
 7658SOL    HW123873   3.570   0.275   6.183
 7658SOL    HW223874   3.651   0.209   6.058
 7659SOL     OW23875   6.286   5.459   0.114
 7659SOL    HW123876   6.293   5.492   0.020
 7659SOL    HW223877   6.368   5.486   0.165
 7660SOL     OW23878   0.428   6.554   3.541
 7660SOL    HW123879   0.346   6.522   3.493
 7660SOL    HW223880   0.460   6.484   3.604
 7661SOL     OW23881   5.470   2.473   4.879
 7661SOL    HW123882   5.544   2.423   4.833
 7661SOL    HW223883   5.434   2.416   4.953
 7662SOL     OW23884   1.298   2.333   2.502
 7662SOL    HW123885   1.207   2.335   2.461
 7662SOL    HW223886   1.293   2.290   2.592
 7663SOL     OW23887   0.825   6.776   5.540
 7663SOL    HW123888   0.910   6.758   5.590
 7663SOL    HW223889   0.835   6.746   5.445
 7664SOL     OW23890   3.786   0.189   2.479
 7664SOL    HW123891   3.750   0.280   2.457
 7664SOL    HW223892   3.886   0.193   2.481
 7665SOL     OW23893   5.100   0.190   5.352
 7665SOL    HW123894   5.124   0.285   5.370
 7665SOL    HW223895   5.092   0.176   5.253
 7666SOL     OW23896   0.978   6.291   1.661
 7666SOL    HW123897   1.001   6.292   1.564
 7666SOL    HW223898   0.890   6.246   1.674
 7667SOL     OW23899   4.203   5.963   2.224
 7667SOL    HW123900   4.188   6.052   2.181
 7667SOL    HW223901   4.162   5.963   2.315
 7668SOL     OW23902   3.135   4.340   1.303
 7668SOL    HW123903   3.197   4.339   1.382
 7668SOL    HW223904   3.188   4.348   1.219
 7669SOL     OW23905   5.808   1.692   6.115
 7669SOL    HW123906   5.832   1.689   6.212
 7669SOL    HW223907   5.803   1.787   6.084
 7670SOL     OW23908   0.703   4.659   6.411
 7670SOL    HW123909   0.667   4.584   6.356
 7670SOL    HW223910   0.634   4.732   6.415
 7671SOL     OW23911   4.243   0.851   3.997
 7671SOL    HW123912   4.169   0.868   4.062
 7671SOL    HW223913   4.329   0.835   4.047
 7672SOL     OW23914   5.689   6.839   3.137
 7672SOL    HW123915   5.715   6.934   3.155
 7672SOL    HW223916   5.599   6.837   3.094
 7673SOL     OW23917   1.932   5.478   6.898
 7673SOL    HW123918   1.849   5.425   6.881
 7673SOL    HW223919   2.002   5.419   6.938
 7674SOL     OW23920   6.097   1.966   4.443
 7674SOL    HW123921   6.101   1.867   4.432
 7674SOL    HW223922   6.011   1.992   4.485
 7675SOL     OW23923   5.286   0.045   2.571
 7675SOL    HW123924   5.247   6.996   2.513
 7675SOL    HW223925   5.295   0.130   2.519
 7676SOL     OW23926   2.000   2.210   0.121
 7676SOL    HW123927   2.086   2.192   0.168
 7676SOL    HW223928   2.018   2.258   0.036
 7677SOL     OW23929   0.031   4.117   2.190
 7677SOL    HW123930   0.078   4.201   2.164
 7677SOL    HW223931   6.975   4.139   2.249
 7678SOL     OW23932   2.513   1.549   4.557
 7678SOL    HW123933   2.588   1.483   4.565
 7678SOL    HW223934   2.445   1.531   4.628
 7679SOL     OW23935   2.877   5.637   6.269
 7679SOL    HW123936   2.833   5.652   6.357
 7679SOL    HW223937   2.809   5.647   6.196
 7680SOL     OW23938   1.692   1.581   0.485
 7680SOL    HW123939   1.762   1.651   0.501
 7680SOL    HW223940   1.734   1.503   0.439
 7681SOL     OW23941   2.575   6.742   0.218
 7681SOL    HW123942   2.579   6.762   0.120
 7681SOL    HW223943   2.582   6.828   0.269
 7682SOL     OW23944   2.927   0.469   1.566
 7682SOL    HW123945   2.882   0.540   1.621
 7682SOL    HW223946   2.983   0.411   1.626
 7683SOL     OW23947   6.316   1.744   3.787
 7683SOL    HW123948   6.322   1.693   3.701
 7683SOL    HW223949   6.294   1.839   3.768
 7684SOL     OW23950   4.231   2.076   1.652
 7684SOL    HW123951   4.165   2.007   1.623
 7684SOL    HW223952   4.190   2.136   1.720
 7685SOL     OW23953   3.460   3.137   0.094
 7685SOL    HW123954   3.407   3.104   0.016
 7685SOL    HW223955   3.496   3.228   0.074
 7686SOL     OW23956   5.850   0.019   2.946
 7686SOL    HW123957   5.852   0.023   3.046
 7686SOL    HW223958   5.942   0.003   2.912
 7687SOL     OW23959   5.959   5.097   4.964
 7687SOL    HW123960   5.938   5.119   5.059
 7687SOL    HW223961   5.904   5.019   4.935
 7688SOL     OW23962   0.634   6.321   5.130
 7688SOL    HW123963   0.610   6.273   5.045
 7688SOL    HW223964   0.688   6.402   5.108
 7689SOL     OW23965   4.790   6.787   2.608
 7689SOL    HW123966   4.880   6.750   2.586
 7689SOL    HW223967   4.719   6.724   2.576
 7690SOL     OW23968   6.429   4.972   1.593
 7690SOL    HW123969   6.423   5.072   1.590
 7690SOL    HW223970   6.500   4.945   1.658
 7691SOL     OW23971   5.266   2.819   3.920
 7691SOL    HW123972   5.224   2.775   4.000
 7691SOL    HW223973   5.324   2.752   3.872
 7692SOL     OW23974   1.004   6.127   2.152
 7692SOL    HW123975   1.000   6.219   2.191
 7692SOL    HW223976   1.058   6.129   2.068
 7693SOL     OW23977   3.326   6.855   1.251
 7693SOL    HW123978   3.420   6.866   1.283
 7693SOL    HW223979   3.269   6.823   1.326
 7694SOL     OW23980   0.288   4.985   4.467
 7694SOL    HW123981   0.211   4.925   4.446
 7694SOL    HW223982   0.256   5.063   4.521
 7695SOL     OW23983   4.464   6.121   0.619
 7695SOL    HW123984   4.429   6.070   0.697
 7695SOL    HW223985   4.428   6.214   0.621
 7696SOL     OW23986   6.662   1.408   4.666
 7696SOL    HW123987   6.762   1.407   4.658
 7696SOL    HW223988   6.623   1.358   4.589
 7697SOL     OW23989   3.227   0.181   1.514
 7697SOL    HW123990   3.202   0.139   1.427
 7697SOL    HW223991   3.306   0.134   1.553
 7698SOL     OW23992   6.299   2.432   3.811
 7698SOL    HW123993   6.199   2.420   3.807
 7698SOL    HW223994   6.329   2.480   3.729
 7699SOL     OW23995   3.227   5.813   0.270
 7699SOL    HW123996   3.144   5.794   0.219
 7699SOL    HW223997   3.205   5.862   0.354
 7700SOL     OW23998   4.966   6.251   4.553
 7700SOL    HW123999   4.905   6.215   4.624
 7700SOL    HW224000   4.937   6.344   4.530
 7701SOL     OW24001   6.775   1.556   6.853
 7701SOL    HW124002   6.739   1.517   6.769
 7701SOL    HW224003   6.706   1.616   6.894
 7702SOL     OW24004   3.149   6.155   6.272
 7702SOL    HW124005   3.215   6.230   6.274
 7702SOL    HW224006   3.163   6.100   6.190
 7703SOL     OW24007   6.386   1.095   5.144
 7703SOL    HW124008   6.313   1.038   5.183
 7703SOL    HW224009   6.469   1.084   5.199
 7704SOL     OW24010   5.428   4.487   5.642
 7704SOL    HW124011   5.363   4.550   5.684
 7704SOL    HW224012   5.430   4.501   5.543
 7705SOL     OW24013   3.597   5.274   5.609
 7705SOL    HW124014   3.623   5.367   5.638
 7705SOL    HW224015   3.518   5.245   5.662
 7706SOL     OW24016   4.497   2.590   4.750
 7706SOL    HW124017   4.532   2.581   4.843
 7706SOL    HW224018   4.397   2.585   4.751
 7707SOL     OW24019   1.008   5.672   5.767
 7707SOL    HW124020   1.082   5.628   5.817
 7707SOL    HW224021   1.004   5.635   5.674
 7708SOL     OW24022   5.950   6.704   5.888
 7708SOL    HW124023   6.006   6.786   5.879
 7708SOL    HW224024   5.870   6.711   5.829
 7709SOL     OW24025   5.754   4.120   1.615
 7709SOL    HW124026   5.761   4.020   1.617
 7709SOL    HW224027   5.821   4.157   1.551
 7710SOL     OW24028   3.869   0.446   0.785
 7710SOL    HW124029   3.880   0.472   0.881
 7710SOL    HW224030   3.798   0.376   0.778
 7711SOL     OW24031   6.222   6.416   5.307
 7711SOL    HW124032   6.205   6.350   5.234
 7711SOL    HW224033   6.140   6.426   5.363
 7712SOL     OW24034   5.412   5.758   2.184
 7712SOL    HW124035   5.453   5.756   2.275
 7712SOL    HW224036   5.351   5.679   2.173
 7713SOL     OW24037   1.451   4.685   0.616
 7713SOL    HW124038   1.403   4.708   0.532
 7713SOL    HW224039   1.509   4.761   0.644
 7714SOL     OW24040   6.510   4.450   5.487
 7714SOL    HW124041   6.419   4.429   5.451
 7714SOL    HW224042   6.504   4.529   5.548
 7715SOL     OW24043   4.501   2.003   6.993
 7715SOL    HW124044   4.572   2.043   6.934
 7715SOL    HW224045   4.417   2.056   6.984
 7716SOL     OW24046   6.714   4.594   3.965
 7716SOL    HW124047   6.809   4.595   3.996
 7716SOL    HW224048   6.653   4.607   4.042
 7717SOL     OW24049   1.298   1.206   4.732
 7717SOL    HW124050   1.367   1.262   4.686
 7717SOL    HW224051   1.217   1.197   4.674
 7718SOL     OW24052   1.713   1.689   2.905
 7718SOL    HW124053   1.787   1.621   2.908
 7718SOL    HW224054   1.636   1.653   2.852
 7719SOL     OW24055   6.531   3.879   4.502
 7719SOL    HW124056   6.479   3.964   4.508
 7719SOL    HW224057   6.622   3.899   4.465
 7720SOL     OW24058   0.183   0.619   6.949
 7720SOL    HW124059   0.209   0.705   6.904
 7720SOL    HW224060   0.256   0.592   7.012
 7721SOL     OW24061   0.328   5.114   2.937
 7721SOL    HW124062   0.334   5.015   2.929
 7721SOL    HW224063   0.267   5.150   2.866
 7722SOL     OW24064   0.336   6.336   3.252
 7722SOL    HW124065   0.292   6.330   3.163
 7722SOL    HW224066   0.274   6.379   3.318
 7723SOL     OW24067   6.631   3.701   0.100
 7723SOL    HW124068   6.604   3.626   0.160
 7723SOL    HW224069   6.565   3.709   0.025
 7724SOL     OW24070   2.622   4.467   1.697
 7724SOL    HW124071   2.611   4.564   1.675
 7724SOL    HW224072   2.715   4.451   1.730
 7725SOL     OW24073   5.425   2.971   3.277
 7725SOL    HW124074   5.422   2.979   3.377
 7725SOL    HW224075   5.505   3.020   3.242
 7726SOL     OW24076   1.599   6.157   5.025
 7726SOL    HW124077   1.654   6.186   5.103
 7726SOL    HW224078   1.522   6.220   5.013
 7727SOL     OW24079   0.106   0.784   2.576
 7727SOL    HW124080   0.177   0.845   2.611
 7727SOL    HW224081   0.029   0.839   2.543
 7728SOL     OW24082   0.989   5.042   3.271
 7728SOL    HW124083   0.958   5.075   3.182
 7728SOL    HW224084   0.919   4.981   3.310
 7729SOL     OW24085   5.765   2.747   0.580
 7729SOL    HW124086   5.666   2.758   0.589
 7729SOL    HW224087   5.811   2.785   0.660
 7730SOL     OW24088   6.000   6.039   1.306
 7730SOL    HW124089   6.091   6.079   1.295
 7730SOL    HW224090   6.009   5.942   1.329
 7731SOL     OW24091   6.064   1.215   0.884
 7731SOL    HW124092   5.988   1.277   0.904
 7731SOL    HW224093   6.052   1.130   0.936
 7732SOL     OW24094   4.204   6.542   0.540
 7732SOL    HW124095   4.110   6.577   0.540
 7732SOL    HW224096   4.215   6.477   0.615
 7733SOL     OW24097   4.437   6.791   2.433
 7733SOL    HW124098   4.341   6.817   2.419
 7733SOL    HW224099   4.441   6.696   2.462
 7734SOL     OW24100   2.148   5.498   3.658
 7734SOL    HW124101   2.241   5.468   3.636
 7734SOL    HW224102   2.129   5.481   3.755
 7735SOL     OW24103   4.764   6.287   6.253
 7735SOL    HW124104   4.858   6.262   6.276
 7735SOL    HW224105   4.714   6.307   6.337
 7736SOL     OW24106   3.377   4.144   6.788
 7736SOL    HW124107   3.374   4.057   6.838
 7736SOL    HW224108   3.375   4.126   6.690
 7737SOL     OW24109   3.858   0.648   2.263
 7737SOL    HW124110   3.883   0.574   2.324
 7737SOL    HW224111   3.787   0.704   2.305
 7738SOL     OW24112   2.796   5.504   6.783
 7738SOL    HW124113   2.806   5.592   6.831
 7738SOL    HW224114   2.874   5.446   6.803
 7739SOL     OW24115   0.745   2.266   1.878
 7739SOL    HW124116   0.799   2.204   1.821
 7739SOL    HW224117   0.733   2.353   1.830
 7740SOL     OW24118   2.053   0.979   2.854
 7740SOL    HW124119   1.989   1.011   2.784
 7740SOL    HW224120   2.040   0.881   2.869
 7741SOL     OW24121   1.146   5.148   4.963
 7741SOL    HW124122   1.187   5.193   4.883
 7741SOL    HW224123   1.060   5.193   4.986
 7742SOL     OW24124   5.730   2.411   3.943
 7742SOL    HW124125   5.632   2.397   3.949
 7742SOL    HW224126   5.750   2.491   3.887
 7743SOL     OW24127   4.823   1.800   6.940
 7743SOL    HW124128   4.841   1.843   0.006
 7743SOL    HW224129   4.830   1.701   6.949
 7744SOL     OW24130   1.220   6.239   3.517
 7744SOL    HW124131   1.236   6.213   3.422
 7744SOL    HW224132   1.158   6.317   3.520
 7745SOL     OW24133   2.987   1.101   5.412
 7745SOL    HW124134   2.925   1.046   5.468
 7745SOL    HW224135   3.082   1.079   5.436
 7746SOL     OW24136   2.650   5.994   0.171
 7746SOL    HW124137   2.610   6.007   0.080
 7746SOL    HW224138   2.578   5.967   0.235
 7747SOL     OW24139   4.720   5.896   1.687
 7747SOL    HW124140   4.644   5.902   1.751
 7747SOL    HW224141   4.765   5.985   1.680
 7748SOL     OW24142   3.566   3.033   5.296
 7748SOL    HW124143   3.633   2.967   5.330
 7748SOL    HW224144   3.484   3.029   5.353
 7749SOL     OW24145   2.832   2.788   5.363
 7749SOL    HW124146   2.783   2.867   5.326
 7749SOL    HW224147   2.929   2.811   5.372
 7750SOL     OW24148   6.942   6.330   1.636
 7750SOL    HW124149   6.925   6.236   1.665
 7750SOL    HW224150   6.861   6.386   1.655
 7751SOL     OW24151   1.388   2.117   2.352
 7751SOL    HW124152   1.388   2.191   2.419
 7751SOL    HW224153   1.469   2.125   2.294
 7752SOL     OW24154   4.998   0.238   6.076
 7752SOL    HW124155   4.914   0.239   6.130
 7752SOL    HW224156   5.047   0.325   6.089
 7753SOL     OW24157   2.382   1.160   4.346
 7753SOL    HW124158   2.434   1.230   4.297
 7753SOL    HW224159   2.402   1.166   4.444
 7754SOL     OW24160   3.530   6.306   1.148
 7754SOL    HW124161   3.463   6.249   1.195
 7754SOL    HW224162   3.618   6.260   1.146
 7755SOL     OW24163   1.795   2.299   6.078
 7755SOL    HW124164   1.778   2.392   6.113
 7755SOL    HW224165   1.875   2.261   6.123
 7756SOL     OW24166   3.153   6.609   1.653
 7756SOL    HW124167   3.115   6.674   1.719
 7756SOL    HW224168   3.147   6.516   1.691
 7757SOL     OW24169   5.857   4.829   1.582
 7757SOL    HW124170   5.784   4.891   1.608
 7757SOL    HW224171   5.837   4.737   1.616
 7758SOL     OW24172   1.701   6.951   5.950
 7758SOL    HW124173   1.627   6.993   5.898
 7758SOL    HW224174   1.776   7.016   5.961
 7759SOL     OW24175   2.067   1.472   5.258
 7759SOL    HW124176   2.014   1.535   5.315
 7759SOL    HW224177   2.040   1.483   5.162
 7760SOL     OW24178   5.318   2.587   2.473
 7760SOL    HW124179   5.371   2.648   2.413
 7760SOL    HW224180   5.229   2.569   2.431
 7761SOL     OW24181   6.674   6.446   4.900
 7761SOL    HW124182   6.741   6.496   4.845
 7761SOL    HW224183   6.585   6.449   4.854
 7762SOL     OW24184   2.840   0.276   3.656
 7762SOL    HW124185   2.918   0.316   3.703
 7762SOL    HW224186   2.841   0.177   3.668
 7763SOL     OW24187   2.562   0.416   0.054
 7763SOL    HW124188   2.548   0.494   0.114
 7763SOL    HW224189   2.499   0.421   6.998
 7764SOL     OW24190   3.338   4.140   5.685
 7764SOL    HW124191   3.297   4.195   5.612
 7764SOL    HW224192   3.272   4.071   5.716
 7765SOL     OW24193   5.830   2.834   5.114
 7765SOL    HW124194   5.845   2.873   5.023
 7765SOL    HW224195   5.904   2.862   5.175
 7766SOL     OW24196   6.728   3.693   1.130
 7766SOL    HW124197   6.773   3.605   1.118
 7766SOL    HW224198   6.715   3.710   1.228
 7767SOL     OW24199   4.255   6.452   2.410
 7767SOL    HW124200   4.299   6.431   2.498
 7767SOL    HW224201   4.198   6.534   2.420
 7768SOL     OW24202   5.232   4.876   3.746
 7768SOL    HW124203   5.267   4.793   3.701
 7768SOL    HW224204   5.217   4.947   3.677
 7769SOL     OW24205   4.304   1.456   5.080
 7769SOL    HW124206   4.239   1.381   5.094
 7769SOL    HW224207   4.389   1.420   5.044
 7770SOL     OW24208   0.358   3.454   4.284
 7770SOL    HW124209   0.402   3.388   4.223
 7770SOL    HW224210   0.402   3.449   4.374
 7771SOL     OW24211   3.191   1.480   5.518
 7771SOL    HW124212   3.163   1.501   5.612
 7771SOL    HW224213   3.159   1.553   5.458
 7772SOL     OW24214   5.273   0.046   0.733
 7772SOL    HW124215   5.199   0.053   0.800
 7772SOL    HW224216   5.322   6.982   0.745
 7773SOL     OW24217   1.724   5.583   5.645
 7773SOL    HW124218   1.676   5.587   5.733
 7773SOL    HW224219   1.761   5.490   5.632
 7774SOL     OW24220   4.855   2.547   4.391
 7774SOL    HW124221   4.936   2.593   4.430
 7774SOL    HW224222   4.773   2.581   4.436
 7775SOL     OW24223   4.135   6.656   6.868
 7775SOL    HW124224   4.188   6.740   6.856
 7775SOL    HW224225   4.168   6.607   6.948
 7776SOL     OW24226   0.623   6.078   6.621
 7776SOL    HW124227   0.524   6.090   6.616
 7776SOL    HW224228   0.649   6.050   6.713
 7777SOL     OW24229   6.044   5.446   4.707
 7777SOL    HW124230   5.976   5.385   4.666
 7777SOL    HW224231   6.097   5.397   4.776
 7778SOL     OW24232   5.763   4.069   2.018
 7778SOL    HW124233   5.803   3.990   1.972
 7778SOL    HW224234   5.768   4.148   1.957
 7779SOL     OW24235   2.611   1.225   1.940
 7779SOL    HW124236   2.701   1.206   1.902
 7779SOL    HW224237   2.541   1.209   1.870
 7780SOL     OW24238   1.307   5.161   5.182
 7780SOL    HW124239   1.307   5.088   5.251
 7780SOL    HW224240   1.235   5.145   5.116
 7781SOL     OW24241   1.010   3.441   1.109
 7781SOL    HW124242   0.975   3.531   1.086
 7781SOL    HW224243   1.104   3.449   1.142
 7782SOL     OW24244   5.150   5.373   4.137
 7782SOL    HW124245   5.177   5.469   4.147
 7782SOL    HW224246   5.090   5.347   4.213
 7783SOL     OW24247   0.893   0.185   5.587
 7783SOL    HW124248   0.817   0.124   5.564
 7783SOL    HW224249   0.920   0.170   5.682
 7784SOL     OW24250   2.946   2.220   1.557
 7784SOL    HW124251   2.854   2.228   1.517
 7784SOL    HW224252   2.941   2.166   1.641
 7785SOL     OW24253   2.247   6.481   3.826
 7785SOL    HW124254   2.242   6.508   3.923
 7785SOL    HW224255   2.342   6.466   3.800
 7786SOL     OW24256   4.172   0.722   6.401
 7786SOL    HW124257   4.151   0.677   6.488
 7786SOL    HW224258   4.269   0.747   6.399
 7787SOL     OW24259   1.946   3.201   0.099
 7787SOL    HW124260   1.847   3.197   0.110
 7787SOL    HW224261   1.981   3.110   0.077
 7788SOL     OW24262   1.438   5.258   1.422
 7788SOL    HW124263   1.351   5.273   1.375
 7788SOL    HW224264   1.485   5.346   1.433
 7789SOL     OW24265   3.089   0.082   6.552
 7789SOL    HW124266   3.122   0.129   6.634
 7789SOL    HW224267   3.063   0.149   6.483
 7790SOL     OW24268   5.403   5.440   2.305
 7790SOL    HW124269   5.497   5.424   2.274
 7790SOL    HW224270   5.391   5.401   2.396
 7791SOL     OW24271   1.766   4.701   2.276
 7791SOL    HW124272   1.681   4.746   2.249
 7791SOL    HW224273   1.837   4.770   2.291
 7792SOL     OW24274   1.594   6.494   3.415
 7792SOL    HW124275   1.619   6.400   3.392
 7792SOL    HW224276   1.516   6.494   3.477
 7793SOL     OW24277   4.399   0.882   0.241
 7793SOL    HW124278   4.405   0.932   0.155
 7793SOL    HW224279   4.348   0.797   0.227
 7794SOL     OW24280   0.255   4.270   2.052
 7794SOL    HW124281   0.243   4.267   1.952
 7794SOL    HW224282   0.282   4.363   2.079
 7795SOL     OW24283   3.383   5.328   5.005
 7795SOL    HW124284   3.476   5.292   5.009
 7795SOL    HW224285   3.361   5.376   5.090
 7796SOL     OW24286   3.741   2.645   5.903
 7796SOL    HW124287   3.746   2.603   5.812
 7796SOL    HW224288   3.671   2.716   5.903
 7797SOL     OW24289   0.679   5.732   1.033
 7797SOL    HW124290   0.583   5.758   1.023
 7797SOL    HW224291   0.732   5.811   1.062
 7798SOL     OW24292   1.742   1.570   2.558
 7798SOL    HW124293   1.818   1.585   2.621
 7798SOL    HW224294   1.713   1.657   2.517
 7799SOL     OW24295   2.060   5.522   2.817
 7799SOL    HW124296   2.149   5.477   2.826
 7799SOL    HW224297   1.988   5.460   2.847
 7800SOL     OW24298   0.826   6.202   3.104
 7800SOL    HW124299   0.751   6.148   3.143
 7800SOL    HW224300   0.876   6.146   3.038
 7801SOL     OW24301   1.548   1.254   3.007
 7801SOL    HW124302   1.455   1.283   2.981
 7801SOL    HW224303   1.543   1.193   3.086
 7802SOL     OW24304   6.853   3.123   0.379
 7802SOL    HW124305   6.759   3.139   0.409
 7802SOL    HW224306   6.913   3.191   0.420
 7803SOL     OW24307   4.899   1.741   6.671
 7803SOL    HW124308   4.894   1.761   6.769
 7803SOL    HW224309   4.990   1.706   6.648
 7804SOL     OW24310   4.167   2.135   5.259
 7804SOL    HW124311   4.152   2.067   5.187
 7804SOL    HW224312   4.096   2.124   5.329
 7805SOL     OW24313   4.952   3.490   2.534
 7805SOL    HW124314   4.992   3.581   2.520
 7805SOL    HW224315   4.904   3.488   2.622
 7806SOL     OW24316   6.010   1.043   6.736
 7806SOL    HW124317   5.938   0.978   6.763
 7806SOL    HW224318   6.025   1.037   6.637
 7807SOL     OW24319   0.885   4.394   5.286
 7807SOL    HW124320   0.819   4.377   5.212
 7807SOL    HW224321   0.836   4.423   5.368
 7808SOL     OW24322   5.826   3.290   3.157
 7808SOL    HW124323   5.775   3.245   3.230
 7808SOL    HW224324   5.823   3.389   3.170
 7809SOL     OW24325   5.003   5.293   4.568
 7809SOL    HW124326   5.073   5.294   4.640
 7809SOL    HW224327   4.913   5.280   4.609
 7810SOL     OW24328   2.870   6.385   5.770
 7810SOL    HW124329   2.883   6.411   5.866
 7810SOL    HW224330   2.899   6.461   5.711
 7811SOL     OW24331   1.078   5.216   2.097
 7811SOL    HW124332   0.994   5.214   2.043
 7811SOL    HW224333   1.153   5.248   2.039
 7812SOL     OW24334   2.058   2.688   5.068
 7812SOL    HW124335   2.075   2.771   5.121
 7812SOL    HW224336   2.106   2.693   4.980
 7813SOL     OW24337   4.461   2.279   1.121
 7813SOL    HW124338   4.552   2.269   1.162
 7813SOL    HW224339   4.452   2.370   1.082
 7814SOL     OW24340   6.995   3.974   2.909
 7814SOL    HW124341   6.919   4.020   2.953
 7814SOL    HW224342   6.961   3.917   2.834
 7815SOL     OW24343   5.708   1.761   4.648
 7815SOL    HW124344   5.789   1.703   4.650
 7815SOL    HW224345   5.690   1.799   4.739
 7816SOL     OW24346   0.407   2.350   6.412
 7816SOL    HW124347   0.449   2.373   6.500
 7816SOL    HW224348   0.383   2.434   6.364
 7817SOL     OW24349   4.457   4.249   5.278
 7817SOL    HW124350   4.376   4.193   5.293
 7817SOL    HW224351   4.533   4.215   5.334
 7818SOL     OW24352   4.572   0.811   2.972
 7818SOL    HW124353   4.483   0.851   2.995
 7818SOL    HW224354   4.608   0.856   2.890
 7819SOL     OW24355   0.383   3.723   4.212
 7819SOL    HW124356   0.464   3.728   4.155
 7819SOL    HW224357   0.358   3.627   4.227
 7820SOL     OW24358   1.621   1.073   5.819
 7820SOL    HW124359   1.543   1.028   5.863
 7820SOL    HW224360   1.649   1.020   5.739
 7821SOL     OW24361   5.775   6.074   0.659
 7821SOL    HW124362   5.863   6.065   0.706
 7821SOL    HW224363   5.742   6.168   0.667
 7822SOL     OW24364   1.724   1.505   6.240
 7822SOL    HW124365   1.673   1.531   6.322
 7822SOL    HW224366   1.678   1.430   6.194
 7823SOL     OW24367   2.052   4.222   6.272
 7823SOL    HW124368   2.032   4.298   6.210
 7823SOL    HW224369   2.145   4.190   6.256
 7824SOL     OW24370   5.542   0.255   5.164
 7824SOL    HW124371   5.497   0.169   5.187
 7824SOL    HW224372   5.535   0.272   5.066
 7825SOL     OW24373   1.695   2.887   1.292
 7825SOL    HW124374   1.605   2.850   1.312
 7825SOL    HW224375   1.711   2.885   1.193
 7826SOL     OW24376   5.017   1.827   6.239
 7826SOL    HW124377   5.084   1.850   6.310
 7826SOL    HW224378   5.039   1.876   6.155
 7827SOL     OW24379   3.179   4.727   0.961
 7827SOL    HW124380   3.199   4.818   0.925
 7827SOL    HW224381   3.159   4.665   0.885
 7828SOL     OW24382   7.018   5.203   0.809
 7828SOL    HW124383   0.077   5.165   0.767
 7828SOL    HW224384   0.021   5.252   0.893
 7829SOL     OW24385   2.204   2.708   0.583
 7829SOL    HW124386   2.272   2.662   0.526
 7829SOL    HW224387   2.117   2.659   0.578
 7830SOL     OW24388   5.222   3.684   6.309
 7830SOL    HW124389   5.295   3.649   6.250
 7830SOL    HW224390   5.252   3.768   6.353
 7831SOL     OW24391   1.195   5.100   0.412
 7831SOL    HW124392   1.207   5.064   0.504
 7831SOL    HW224393   1.098   5.116   0.395
 7832SOL     OW24394   3.460   1.552   4.054
 7832SOL    HW124395   3.553   1.557   4.089
 7832SOL    HW224396   3.454   1.599   3.966
 7833SOL     OW24397   0.419   1.020   6.983
 7833SOL    HW124398   0.466   1.071   6.912
 7833SOL    HW224399   0.322   1.046   6.984
 7834SOL     OW24400   0.657   1.764   2.825
 7834SOL    HW124401   0.637   1.778   2.728
 7834SOL    HW224402   0.600   1.824   2.881
 7835SOL     OW24403   1.940   2.266   5.226
 7835SOL    HW124404   1.977   2.175   5.207
 7835SOL    HW224405   1.846   2.257   5.260
 7836SOL     OW24406   3.467   1.758   6.416
 7836SOL    HW124407   3.536   1.765   6.488
 7836SOL    HW224408   3.438   1.850   6.389
 7837SOL     OW24409   6.765   6.554   1.673
 7837SOL    HW124410   6.681   6.507   1.700
 7837SOL    HW224411   6.780   6.633   1.731
 7838SOL     OW24412   4.294   6.200   6.713
 7838SOL    HW124413   4.345   6.206   6.627
 7838SOL    HW224414   4.344   6.142   6.777
 7839SOL     OW24415   6.475   4.874   5.466
 7839SOL    HW124416   6.420   4.955   5.486
 7839SOL    HW224417   6.462   4.805   5.537
 7840SOL     OW24418   5.220   3.693   4.153
 7840SOL    HW124419   5.129   3.679   4.113
 7840SOL    HW224420   5.212   3.690   4.253
 7841SOL     OW24421   5.629   1.330   6.986
 7841SOL    HW124422   5.646   1.385   6.904
 7841SOL    HW224423   5.714   1.287   7.016
 7842SOL     OW24424   2.098   1.110   3.236
 7842SOL    HW124425   2.135   1.166   3.310
 7842SOL    HW224426   2.168   1.044   3.206
 7843SOL     OW24427   5.818   4.541   1.663
 7843SOL    HW124428   5.909   4.512   1.632
 7843SOL    HW224429   5.762   4.459   1.681
 7844SOL     OW24430   4.472   0.079   3.484
 7844SOL    HW124431   4.479   7.002   3.475
 7844SOL    HW224432   4.520   0.108   3.567
 7845SOL     OW24433   0.150   1.253   3.886
 7845SOL    HW124434   0.201   1.301   3.815
 7845SOL    HW224435   0.054   1.282   3.884
 7846SOL     OW24436   1.402   0.642   1.883
 7846SOL    HW124437   1.457   0.614   1.804
 7846SOL    HW224438   1.307   0.615   1.868
 7847SOL     OW24439   6.814   1.725   1.696
 7847SOL    HW124440   6.744   1.795   1.713
 7847SOL    HW224441   6.838   1.725   1.599
 7848SOL     OW24442   2.966   4.201   1.068
 7848SOL    HW124443   3.040   4.168   1.127
 7848SOL    HW224444   2.878   4.183   1.112
 7849SOL     OW24445   5.300   3.994   4.042
 7849SOL    HW124446   5.311   4.023   4.137
 7849SOL    HW224447   5.232   3.921   4.038
 7850SOL     OW24448   0.279   1.714   3.969
 7850SOL    HW124449   0.246   1.808   3.981
 7850SOL    HW224450   0.371   1.716   3.930
 7851SOL     OW24451   6.584   0.205   0.688
 7851SOL    HW124452   6.594   0.260   0.771
 7851SOL    HW224453   6.600   0.109   0.710
 7852SOL     OW24454   2.911   0.365   5.974
 7852SOL    HW124455   2.821   0.409   5.970
 7852SOL    HW224456   2.900   0.268   5.996
 7853SOL     OW24457   3.916   1.651   1.999
 7853SOL    HW124458   3.956   1.723   1.943
 7853SOL    HW224459   3.827   1.682   2.033
 7854SOL     OW24460   3.631   4.708   0.857
 7854SOL    HW124461   3.580   4.742   0.778
 7854SOL    HW224462   3.719   4.671   0.827
 7855SOL     OW24463   3.860   5.669   5.873
 7855SOL    HW124464   3.933   5.705   5.814
 7855SOL    HW224465   3.898   5.643   5.961
 7856SOL     OW24466   6.166   4.705   3.687
 7856SOL    HW124467   6.130   4.787   3.731
 7856SOL    HW224468   6.150   4.710   3.589
 7857SOL     OW24469   6.575   2.776   5.641
 7857SOL    HW124470   6.482   2.804   5.664
 7857SOL    HW224471   6.598   2.692   5.691
 7858SOL     OW24472   5.007   5.310   3.883
 7858SOL    HW124473   5.074   5.294   3.955
 7858SOL    HW224474   4.974   5.222   3.849
 7859SOL     OW24475   6.752   4.333   5.678
 7859SOL    HW124476   6.692   4.370   5.607
 7859SOL    HW224477   6.700   4.324   5.764
 7860SOL     OW24478   4.067   6.429   2.769
 7860SOL    HW124479   4.162   6.398   2.767
 7860SOL    HW224480   4.018   6.382   2.843
 7861SOL     OW24481   3.816   5.418   2.158
 7861SOL    HW124482   3.767   5.440   2.074
 7861SOL    HW224483   3.770   5.462   2.235
 7862SOL     OW24484   3.111   4.510   1.667
 7862SOL    HW124485   3.024   4.486   1.710
 7862SOL    HW224486   3.154   4.427   1.630
 7863SOL     OW24487   6.581   6.890   3.969
 7863SOL    HW124488   6.491   6.848   3.964
 7863SOL    HW224489   6.571   6.990   3.977
 7864SOL     OW24490   6.944   6.680   5.808
 7864SOL    HW124491   6.941   6.675   5.708
 7864SOL    HW224492   6.883   6.610   5.846
 7865SOL     OW24493   4.952   6.848   4.125
 7865SOL    HW124494   4.870   6.903   4.109
 7865SOL    HW224495   5.033   6.898   4.094
 7866SOL     OW24496   2.297   2.284   0.586
 7866SOL    HW124497   2.304   2.282   0.686
 7866SOL    HW224498   2.390   2.284   0.547
 7867SOL     OW24499   5.240   5.569   2.093
 7867SOL    HW124500   5.283   5.494   2.144
 7867SOL    HW224501   5.193   5.532   2.013
 7868SOL     OW24502   5.895   6.966   2.493
 7868SOL    HW124503   5.847   6.973   2.406
 7868SOL    HW224504   5.912   6.869   2.514
 7869SOL     OW24505   5.974   3.649   0.347
 7869SOL    HW124506   5.938   3.739   0.323
 7869SOL    HW224507   6.067   3.640   0.311
 7870SOL     OW24508   5.257   5.791   3.992
 7870SOL    HW124509   5.259   5.747   4.082
 7870SOL    HW224510   5.196   5.870   3.996
 7871SOL     OW24511   5.931   3.874   2.644
 7871SOL    HW124512   5.894   3.806   2.581
 7871SOL    HW224513   6.028   3.854   2.662
 7872SOL     OW24514   1.535   4.646   2.542
 7872SOL    HW124515   1.558   4.737   2.578
 7872SOL    HW224516   1.589   4.577   2.591
 7873SOL     OW24517   5.148   6.731   5.199
 7873SOL    HW124518   5.155   6.810   5.260
 7873SOL    HW224519   5.236   6.714   5.156
 7874SOL     OW24520   5.661   1.080   0.417
 7874SOL    HW124521   5.581   1.137   0.397
 7874SOL    HW224522   5.724   1.131   0.475
 7875SOL     OW24523   3.804   3.375   6.954
 7875SOL    HW124524   3.827   3.406   6.862
 7875SOL    HW224525   3.753   3.289   6.948
 7876SOL     OW24526   6.917   0.145   5.032
 7876SOL    HW124527   6.891   0.094   4.950
 7876SOL    HW224528   6.860   0.115   5.108
 7877SOL     OW24529   0.212   3.496   2.450
 7877SOL    HW124530   0.186   3.402   2.427
 7877SOL    HW224531   0.195   3.556   2.372
 7878SOL     OW24532   5.027   4.991   3.896
 7878SOL    HW124533   5.116   4.950   3.876
 7878SOL    HW224534   4.960   4.960   3.829
 7879SOL     OW24535   4.254   5.811   3.610
 7879SOL    HW124536   4.326   5.743   3.615
 7879SOL    HW224537   4.173   5.771   3.567
 7880SOL     OW24538   0.457   5.107   1.012
 7880SOL    HW124539   0.553   5.128   1.032
 7880SOL    HW224540   0.403   5.113   1.096
 7881SOL     OW24541   6.165   3.286   5.024
 7881SOL    HW124542   6.120   3.268   4.936
 7881SOL    HW224543   6.148   3.380   5.051
 7882SOL     OW24544   1.798   2.840   3.059
 7882SOL    HW124545   1.850   2.768   3.106
 7882SOL    HW224546   1.710   2.803   3.029
 7883SOL     OW24547   2.070   6.760   1.072
 7883SOL    HW124548   2.085   6.715   1.160
 7883SOL    HW224549   1.988   6.816   1.076
 7884SOL     OW24550   1.744   4.385   3.760
 7884SOL    HW124551   1.815   4.431   3.814
 7884SOL    HW224552   1.785   4.312   3.706
 7885SOL     OW24553   6.229   6.289   2.455
 7885SOL    HW124554   6.149   6.341   2.485
 7885SOL    HW224555   6.235   6.293   2.355
 7886SOL     OW24556   4.559   3.532   1.484
 7886SOL    HW124557   4.506   3.584   1.418
 7886SOL    HW224558   4.628   3.477   1.437
 7887SOL     OW24559   3.371   2.542   5.538
 7887SOL    HW124560   3.321   2.530   5.624
 7887SOL    HW224561   3.383   2.453   5.494
 7888SOL     OW24562   0.093   0.317   5.039
 7888SOL    HW124563   0.066   0.381   5.112
 7888SOL    HW224564   0.028   0.241   5.035
 7889SOL     OW24565   0.695   4.801   6.806
 7889SOL    HW124566   0.666   4.826   6.713
 7889SOL    HW224567   0.616   4.764   6.856
 7890SOL     OW24568   0.368   3.529   3.985
 7890SOL    HW124569   0.370   3.437   3.948
 7890SOL    HW224570   0.459   3.553   4.021
 7891SOL     OW24571   1.189   3.733   4.283
 7891SOL    HW124572   1.216   3.829   4.291
 7891SOL    HW224573   1.230   3.695   4.200
 7892SOL     OW24574   0.927   2.110   4.080
 7892SOL    HW124575   0.929   2.153   3.989
 7892SOL    HW224576   0.968   2.172   4.147
 7893SOL     OW24577   6.156   6.929   1.949
 7893SOL    HW124578   6.214   7.009   1.962
 7893SOL    HW224579   6.207   6.846   1.970
 7894SOL     OW24580   2.902   0.949   1.036
 7894SOL    HW124581   2.983   0.974   1.089
 7894SOL    HW224582   2.820   0.959   1.092
 7895SOL     OW24583   4.288   6.410   5.337
 7895SOL    HW124584   4.319   6.506   5.337
 7895SOL    HW224585   4.232   6.393   5.418
 7896SOL     OW24586   5.661   3.473   1.295
 7896SOL    HW124587   5.662   3.395   1.233
 7896SOL    HW224588   5.679   3.441   1.388
 7897SOL     OW24589   3.237   2.982   0.880
 7897SOL    HW124590   3.191   3.064   0.847
 7897SOL    HW224591   3.209   2.963   0.974
 7898SOL     OW24592   4.007   0.020   4.166
 7898SOL    HW124593   4.028   0.031   4.068
 7898SOL    HW224594   4.062   0.085   4.219
 7899SOL     OW24595   6.078   6.849   1.567
 7899SOL    HW124596   6.147   6.906   1.613
 7899SOL    HW224597   6.067   6.880   1.472
 7900SOL     OW24598   0.766   4.263   1.657
 7900SOL    HW124599   0.824   4.253   1.738
 7900SOL    HW224600   0.815   4.232   1.576
 7901SOL     OW24601   4.840   0.865   6.099
 7901SOL    HW124602   4.806   0.931   6.031
 7901SOL    HW224603   4.810   0.773   6.073
 7902SOL     OW24604   6.439   5.974   3.133
 7902SOL    HW124605   6.438   5.892   3.075
 7902SOL    HW224606   6.393   5.954   3.219
 7903SOL     OW24607   4.510   1.816   3.121
 7903SOL    HW124608   4.534   1.870   3.202
 7903SOL    HW224609   4.412   1.796   3.121
 7904SOL     OW24610   5.671   0.765   3.342
 7904SOL    HW124611   5.618   0.849   3.358
 7904SOL    HW224612   5.744   0.784   3.276
 7905SOL     OW24613   6.112   1.873   0.773
 7905SOL    HW124614   6.140   1.963   0.808
 7905SOL    HW224615   6.031   1.842   0.824
 7906SOL     OW24616   0.955   5.713   0.404
 7906SOL    HW124617   1.000   5.794   0.365
 7906SOL    HW224618   1.024   5.650   0.439
 7907SOL     OW24619   6.679   1.172   3.248
 7907SOL    HW124620   6.667   1.153   3.150
 7907SOL    HW224621   6.766   1.219   3.261
 7908SOL     OW24622   1.007   1.381   5.927
 7908SOL    HW124623   0.924   1.358   5.876
 7908SOL    HW224624   1.004   1.477   5.954
 7909SOL     OW24625   4.662   4.392   3.687
 7909SOL    HW124626   4.756   4.427   3.685
 7909SOL    HW224627   4.599   4.464   3.658
 7910SOL     OW24628   1.629   3.546   0.811
 7910SOL    HW124629   1.566   3.623   0.798
 7910SOL    HW224630   1.701   3.549   0.742
 7911SOL     OW24631   0.821   4.047   1.327
 7911SOL    HW124632   0.896   4.069   1.390
 7911SOL    HW224633   0.769   4.130   1.306
 7912SOL     OW24634   5.461   3.986   0.899
 7912SOL    HW124635   5.387   3.920   0.911
 7912SOL    HW224636   5.443   4.068   0.952
 7913SOL     OW24637   1.203   4.494   1.589
 7913SOL    HW124638   1.246   4.492   1.499
 7913SOL    HW224639   1.104   4.497   1.578
 7914SOL     OW24640   0.497   4.460   0.975
 7914SOL    HW124641   0.430   4.465   0.902
 7914SOL    HW224642   0.525   4.365   0.988
 7915SOL     OW24643   4.700   1.914   2.766
 7915SOL    HW124644   4.612   1.942   2.803
 7915SOL    HW224645   4.774   1.956   2.819
 7916SOL     OW24646   0.509   6.315   5.365
 7916SOL    HW124647   0.541   6.309   5.271
 7916SOL    HW224648   0.585   6.301   5.427
 7917SOL     OW24649   4.217   3.100   5.595
 7917SOL    HW124650   4.143   3.132   5.536
 7917SOL    HW224651   4.284   3.050   5.539
 7918SOL     OW24652   6.766   0.950   4.793
 7918SOL    HW124653   6.755   1.002   4.878
 7918SOL    HW224654   6.692   0.974   4.730
 7919SOL     OW24655   0.920   4.600   2.268
 7919SOL    HW124656   0.973   4.683   2.283
 7919SOL    HW224657   0.941   4.533   2.339
 7920SOL     OW24658   5.191   0.053   1.851
 7920SOL    HW124659   5.136   0.126   1.891
 7920SOL    HW224660   5.288   0.078   1.855
 7921SOL     OW24661   5.691   6.892   2.309
 7921SOL    HW124662   5.646   6.930   2.390
 7921SOL    HW224663   5.634   6.908   2.228
 7922SOL     OW24664   0.754   5.683   6.908
 7922SOL    HW124665   0.780   5.618   6.837
 7922SOL    HW224666   0.835   5.733   6.938
 7923SOL     OW24667   3.449   1.599   5.452
 7923SOL    HW124668   3.363   1.557   5.480
 7923SOL    HW224669   3.521   1.575   5.517
 7924SOL     OW24670   4.414   0.035   1.175
 7924SOL    HW124671   4.411   6.995   1.253
 7924SOL    HW224672   4.336   0.018   1.115
 7925SOL     OW24673   1.150   0.013   0.943
 7925SOL    HW124674   1.145   0.087   0.875
 7925SOL    HW224675   1.200   0.046   1.024
 7926SOL     OW24676   5.277   1.670   6.928
 7926SOL    HW124677   5.292   1.582   6.974
 7926SOL    HW224678   5.325   1.742   6.976
 7927SOL     OW24679   4.723   0.019   2.199
 7927SOL    HW124680   4.818   0.013   2.170
 7927SOL    HW224681   4.710   6.990   2.283
 7928SOL     OW24682   0.057   1.934   4.111
 7928SOL    HW124683   0.003   1.899   4.187
 7928SOL    HW224684   0.077   2.031   4.125
 7929SOL     OW24685   3.848   3.762   5.798
 7929SOL    HW124686   3.767   3.706   5.818
 7929SOL    HW224687   3.819   3.854   5.774
 7930SOL     OW24688   3.815   5.231   6.345
 7930SOL    HW124689   3.846   5.150   6.295
 7930SOL    HW224690   3.891   5.269   6.399
 7931SOL     OW24691   4.094   2.651   0.904
 7931SOL    HW124692   4.147   2.713   0.846
 7931SOL    HW224693   4.133   2.652   0.996
 7932SOL     OW24694   1.307   5.498   6.617
 7932SOL    HW124695   1.233   5.440   6.582
 7932SOL    HW224696   1.392   5.446   6.618
 7933SOL     OW24697   6.592   0.551   5.773
 7933SOL    HW124698   6.602   0.583   5.867
 7933SOL    HW224699   6.648   0.470   5.759
 7934SOL     OW24700   1.725   5.305   6.827
 7934SOL    HW124701   1.643   5.318   6.772
 7934SOL    HW224702   1.699   5.275   6.919
 7935SOL     OW24703   5.319   6.375   1.446
 7935SOL    HW124704   5.364   6.299   1.400
 7935SOL    HW224705   5.309   6.355   1.543
 7936SOL     OW24706   3.036   5.561   3.245
 7936SOL    HW124707   2.949   5.517   3.226
 7936SOL    HW224708   3.024   5.659   3.255
 7937SOL     OW24709   1.053   6.074   3.820
 7937SOL    HW124710   1.090   6.036   3.905
 7937SOL    HW224711   0.954   6.081   3.827
 7938SOL     OW24712   5.934   6.100   5.379
 7938SOL    HW124713   6.023   6.129   5.413
 7938SOL    HW224714   5.933   6.000   5.371
 7939SOL     OW24715   1.368   2.246   5.527
 7939SOL    HW124716   1.315   2.219   5.607
 7939SOL    HW224717   1.440   2.179   5.511
 7940SOL     OW24718   2.755   2.290   2.991
 7940SOL    HW124719   2.731   2.307   2.896
 7940SOL    HW224720   2.694   2.342   3.051
 7941SOL     OW24721   5.527   6.771   2.786
 7941SOL    HW124722   5.619   6.800   2.758
 7941SOL    HW224723   5.467   6.850   2.792
 7942SOL     OW24724   0.748   3.683   3.091
 7942SOL    HW124725   0.811   3.651   3.020
 7942SOL    HW224726   0.715   3.605   3.144
 7943SOL     OW24727   0.441   4.364   5.401
 7943SOL    HW124728   0.363   4.301   5.400
 7943SOL    HW224729   0.526   4.311   5.406
 7944SOL     OW24730   0.917   2.940   1.453
 7944SOL    HW124731   0.957   2.983   1.372
 7944SOL    HW224732   0.818   2.949   1.449
 7945SOL     OW24733   5.932   5.759   1.917
 7945SOL    HW124734   5.977   5.795   1.999
 7945SOL    HW224735   5.893   5.835   1.865
 7946SOL     OW24736   3.425   0.702   5.896
 7946SOL    HW124737   3.496   0.666   5.957
 7946SOL    HW224738   3.446   0.675   5.802
 7947SOL     OW24739   2.644   1.802   5.238
 7947SOL    HW124740   2.552   1.763   5.248
 7947SOL    HW224741   2.706   1.758   5.302
 7948SOL     OW24742   0.798   5.560   0.787
 7948SOL    HW124743   0.865   5.486   0.787
 7948SOL    HW224744   0.747   5.559   0.872
 7949SOL     OW24745   4.397   4.155   5.939
 7949SOL    HW124746   4.473   4.115   5.991
 7949SOL    HW224747   4.433   4.228   5.881
 7950SOL     OW24748   4.474   5.750   4.595
 7950SOL    HW124749   4.406   5.785   4.531
 7950SOL    HW224750   4.447   5.659   4.628
 7951SOL     OW24751   1.630   4.980   2.276
 7951SOL    HW124752   1.704   5.028   2.230
 7951SOL    HW224753   1.584   4.920   2.211
 7952SOL     OW24754   0.240   3.093   0.490
 7952SOL    HW124755   0.310   3.052   0.550
 7952SOL    HW224756   0.266   3.079   0.395
 7953SOL     OW24757   4.525   2.327   1.869
 7953SOL    HW124758   4.500   2.340   1.773
 7953SOL    HW224759   4.624   2.326   1.878
 7954SOL     OW24760   3.793   4.650   6.367
 7954SOL    HW124761   3.753   4.727   6.417
 7954SOL    HW224762   3.885   4.675   6.335
 7955SOL     OW24763   2.181   1.234   6.710
 7955SOL    HW124764   2.083   1.226   6.689
 7955SOL    HW224765   2.232   1.247   6.625
 7956SOL     OW24766   4.837   0.983   1.769
 7956SOL    HW124767   4.765   0.998   1.836
 7956SOL    HW224768   4.880   0.894   1.786
 7957SOL     OW24769   1.702   1.091   0.583
 7957SOL    HW124770   1.765   1.068   0.657
 7957SOL    HW224771   1.615   1.044   0.597
 7958SOL     OW24772   4.868   4.902   6.127
 7958SOL    HW124773   4.826   4.991   6.114
 7958SOL    HW224774   4.801   4.838   6.165
 7959SOL     OW24775   5.309   6.754   0.362
 7959SOL    HW124776   5.294   6.774   0.265
 7959SOL    HW224777   5.278   6.832   0.417
 7960SOL     OW24778   1.523   0.992   6.067
 7960SOL    HW124779   1.559   0.900   6.054
 7960SOL    HW224780   1.455   0.991   6.141
 7961SOL     OW24781   6.705   0.612   1.202
 7961SOL    HW124782   6.727   0.703   1.167
 7961SOL    HW224783   6.785   0.575   1.251
 7962SOL     OW24784   0.346   1.101   5.383
 7962SOL    HW124785   0.410   1.046   5.330
 7962SOL    HW224786   0.255   1.060   5.380
 7963SOL     OW24787   6.301   5.725   4.478
 7963SOL    HW124788   6.276   5.709   4.574
 7963SOL    HW224789   6.397   5.704   4.465
 7964SOL     OW24790   6.517   3.591   3.171
 7964SOL    HW124791   6.529   3.674   3.117
 7964SOL    HW224792   6.456   3.528   3.122
 7965SOL     OW24793   3.875   2.230   6.304
 7965SOL    HW124794   3.848   2.165   6.375
 7965SOL    HW224795   3.798   2.291   6.283
 7966SOL     OW24796   2.999   3.324   5.979
 7966SOL    HW124797   3.022   3.227   5.988
 7966SOL    HW224798   2.904   3.334   5.951
 7967SOL     OW24799   2.810   5.549   1.894
 7967SOL    HW124800   2.827   5.457   1.928
 7967SOL    HW224801   2.834   5.554   1.797
 7968SOL     OW24802   6.146   2.335   4.512
 7968SOL    HW124803   6.151   2.297   4.604
 7968SOL    HW224804   6.200   2.279   4.449
 7969SOL     OW24805   6.167   5.697   1.023
 7969SOL    HW124806   6.175   5.797   1.022
 7969SOL    HW224807   6.233   5.658   0.960
 7970SOL     OW24808   6.515   3.753   2.006
 7970SOL    HW124809   6.446   3.820   1.981
 7970SOL    HW224810   6.606   3.791   1.992
 7971SOL     OW24811   3.266   1.703   1.135
 7971SOL    HW124812   3.250   1.644   1.214
 7971SOL    HW224813   3.202   1.680   1.062
 7972SOL     OW24814   3.046   3.415   0.849
 7972SOL    HW124815   2.949   3.411   0.827
 7972SOL    HW224816   3.065   3.499   0.901
 7973SOL     OW24817   4.505   5.044   4.281
 7973SOL    HW124818   4.498   5.068   4.378
 7973SOL    HW224819   4.587   4.990   4.265
 7974SOL     OW24820   6.195   0.820   6.062
 7974SOL    HW124821   6.162   0.904   6.017
 7974SOL    HW224822   6.120   0.780   6.115
 7975SOL     OW24823   5.431   0.468   1.095
 7975SOL    HW124824   5.354   0.458   1.158
 7975SOL    HW224825   5.489   0.543   1.127
 7976SOL     OW24826   0.862   0.325   6.098
 7976SOL    HW124827   0.930   0.378   6.148
 7976SOL    HW224828   0.874   0.228   6.119
 7977SOL     OW24829   3.996   5.768   2.735
 7977SOL    HW124830   3.970   5.864   2.723
 7977SOL    HW224831   3.986   5.742   2.831
 7978SOL     OW24832   6.705   2.772   6.353
 7978SOL    HW124833   6.715   2.852   6.295
 7978SOL    HW224834   6.711   2.799   6.449
 7979SOL     OW24835   2.884   4.870   5.538
 7979SOL    HW124836   2.878   4.956   5.488
 7979SOL    HW224837   2.873   4.793   5.475
 7980SOL     OW24838   3.435   5.404   6.723
 7980SOL    HW124839   3.448   5.305   6.725
 7980SOL    HW224840   3.516   5.448   6.685
 7981SOL     OW24841   1.174   4.605   1.823
 7981SOL    HW124842   1.075   4.614   1.833
 7981SOL    HW224843   1.196   4.585   1.728
 7982SOL     OW24844   1.384   1.568   6.428
 7982SOL    HW124845   1.362   1.503   6.356
 7982SOL    HW224846   1.312   1.567   6.498
 7983SOL     OW24847   6.298   2.404   0.695
 7983SOL    HW124848   6.395   2.420   0.674
 7983SOL    HW224849   6.252   2.368   0.614
 7984SOL     OW24850   0.520   1.112   0.227
 7984SOL    HW124851   0.491   1.151   0.140
 7984SOL    HW224852   0.595   1.048   0.210
 7985SOL     OW24853   2.751   2.047   4.558
 7985SOL    HW124854   2.754   2.136   4.511
 7985SOL    HW224855   2.704   2.056   4.645
 7986SOL     OW24856   2.956   0.810   6.284
 7986SOL    HW124857   2.937   0.732   6.345
 7986SOL    HW224858   2.881   0.875   6.289
 7987SOL     OW24859   2.197   2.787   0.033
 7987SOL    HW124860   2.174   2.880   0.006
 7987SOL    HW224861   2.177   2.724   6.980
 7988SOL     OW24862   1.573   0.852   2.854
 7988SOL    HW124863   1.638   0.928   2.859
 7988SOL    HW224864   1.585   0.803   2.767
 7989SOL     OW24865   2.677   3.081   0.189
 7989SOL    HW124866   2.638   3.169   0.218
 7989SOL    HW224867   2.741   3.097   0.114
 7990SOL     OW24868   2.348   4.844   4.461
 7990SOL    HW124869   2.322   4.822   4.367
 7990SOL    HW224870   2.377   4.760   4.508
 7991SOL     OW24871   5.855   1.672   4.097
 7991SOL    HW124872   5.940   1.707   4.058
 7991SOL    HW224873   5.852   1.573   4.087
 7992SOL     OW24874   1.372   0.439   0.564
 7992SOL    HW124875   1.308   0.420   0.490
 7992SOL    HW224876   1.368   0.365   0.631
 7993SOL     OW24877   0.384   7.005   1.057
 7993SOL    HW124878   0.430   0.004   0.971
 7993SOL    HW224879   0.381   0.064   1.115
 7994SOL     OW24880   3.985   0.056   3.364
 7994SOL    HW124881   4.041   0.115   3.306
 7994SOL    HW224882   4.032   0.040   3.451
 7995SOL     OW24883   5.493   5.826   3.261
 7995SOL    HW124884   5.453   5.812   3.170
 7995SOL    HW224885   5.585   5.865   3.251
 7996SOL     OW24886   3.730   6.324   4.423
 7996SOL    HW124887   3.671   6.313   4.503
 7996SOL    HW224888   3.821   6.290   4.443
 7997SOL     OW24889   6.822   1.112   0.009
 7997SOL    HW124890   6.841   1.210   0.002
 7997SOL    HW224891   6.789   1.078   6.943
 7998SOL     OW24892   3.406   0.544   0.241
 7998SOL    HW124893   3.492   0.595   0.243
 7998SOL    HW224894   3.399   0.488   0.323
 7999SOL     OW24895   0.568   1.171   5.815
 7999SOL    HW124896   0.480   1.213   5.837
 7999SOL    HW224897   0.563   1.073   5.830
 8000SOL     OW24898   5.023   6.572   6.735
 8000SOL    HW124899   4.983   6.483   6.759
 8000SOL    HW224900   5.119   6.573   6.762
 8001SOL     OW24901   4.185   6.380   1.884
 8001SOL    HW124902   4.105   6.430   1.850
 8001SOL    HW224903   4.258   6.444   1.906
 8002SOL     OW24904   1.308   0.582   6.313
 8002SOL    HW124905   1.343   0.510   6.252
 8002SOL    HW224906   1.339   0.564   6.407
 8003SOL     OW24907   2.353   5.791   1.950
 8003SOL    HW124908   2.343   5.746   1.861
 8003SOL    HW224909   2.439   5.762   1.991
 8004SOL     OW24910   1.694   3.500   3.633
 8004SOL    HW124911   1.616   3.442   3.609
 8004SOL    HW224912   1.709   3.496   3.732
 8005SOL     OW24913   2.865   0.555   3.315
 8005SOL    HW124914   2.958   0.585   3.336
 8005SOL    HW224915   2.803   0.585   3.387
 8006SOL     OW24916   2.226   5.936   5.184
 8006SOL    HW124917   2.174   6.019   5.165
 8006SOL    HW224918   2.205   5.904   5.277
 8007SOL     OW24919   5.964   1.704   6.357
 8007SOL    HW124920   5.935   1.770   6.426
 8007SOL    HW224921   5.972   1.614   6.398
 8008SOL     OW24922   3.966   6.116   6.385
 8008SOL    HW124923   3.895   6.107   6.315
 8008SOL    HW224924   3.968   6.209   6.420
 8009SOL     OW24925   5.060   0.482   1.008
 8009SOL    HW124926   5.094   0.471   0.915
 8009SOL    HW224927   4.960   0.479   1.007
 8010SOL     OW24928   2.239   2.027   5.039
 8010SOL    HW124929   2.318   2.021   4.978
 8010SOL    HW224930   2.242   2.113   5.090
 8011SOL     OW24931   3.663   2.046   1.229
 8011SOL    HW124932   3.630   1.967   1.177
 8011SOL    HW224933   3.688   2.119   1.165
 8012SOL     OW24934   1.730   3.617   6.932
 8012SOL    HW124935   1.795   3.542   6.948
 8012SOL    HW224936   1.757   3.696   6.986
 8013SOL     OW24937   1.231   4.982   3.133
 8013SOL    HW124938   1.185   5.051   3.189
 8013SOL    HW224939   1.322   5.016   3.108
 8014SOL     OW24940   1.738   0.008   4.670
 8014SOL    HW124941   1.832   7.018   4.637
 8014SOL    HW224942   1.692   6.942   4.671
 8015SOL     OW24943   1.976   0.608   6.234
 8015SOL    HW124944   2.011   0.515   6.248
 8015SOL    HW224945   1.969   0.626   6.136
 8016SOL     OW24946   4.108   0.706   5.723
 8016SOL    HW124947   4.031   0.700   5.660
 8016SOL    HW224948   4.087   0.654   5.806
 8017SOL     OW24949   6.044   6.866   0.110
 8017SOL    HW124950   6.129   6.882   0.159
 8017SOL    HW224951   5.967   6.892   0.168
 8018SOL     OW24952   3.428   2.433   0.534
 8018SOL    HW124953   3.406   2.528   0.555
 8018SOL    HW224954   3.526   2.425   0.514
 8019SOL     OW24955   2.207   4.954   1.334
 8019SOL    HW124956   2.235   4.862   1.360
 8019SOL    HW224957   2.231   5.018   1.407
 8020SOL     OW24958   6.599   6.804   6.331
 8020SOL    HW124959   6.699   6.803   6.321
 8020SOL    HW224960   6.557   6.841   6.248
 8021SOL     OW24961   1.374   2.940   0.984
 8021SOL    HW124962   1.466   2.943   0.943
 8021SOL    HW224963   1.343   2.845   0.988
 8022SOL     OW24964   6.093   0.581   2.016
 8022SOL    HW124965   6.037   0.535   2.085
 8022SOL    HW224966   6.133   0.514   1.954
 8023SOL     OW24967   5.637   4.748   2.447
 8023SOL    HW124968   5.706   4.683   2.481
 8023SOL    HW224969   5.548   4.703   2.443
 8024SOL     OW24970   1.138   5.284   6.485
 8024SOL    HW124971   1.180   5.258   6.398
 8024SOL    HW224972   1.084   5.208   6.520
 8025SOL     OW24973   2.070   5.607   0.793
 8025SOL    HW124974   2.094   5.540   0.723
 8025SOL    HW224975   1.975   5.593   0.821
 8026SOL     OW24976   6.956   3.838   1.048
 8026SOL    HW124977   6.862   3.804   1.043
 8026SOL    HW224978   6.957   3.935   1.023
 8027SOL     OW24979   3.469   0.173   5.315
 8027SOL    HW124980   3.500   0.197   5.407
 8027SOL    HW224981   3.548   0.151   5.258
 8028SOL     OW24982   3.884   5.056   4.940
 8028SOL    HW124983   3.800   5.032   4.891
 8028SOL    HW224984   3.897   4.993   5.017
 8029SOL     OW24985   5.503   3.027   1.964
 8029SOL    HW124986   5.521   2.937   1.923
 8029SOL    HW224987   5.414   3.060   1.934
 8030SOL     OW24988   5.884   5.045   0.081
 8030SOL    HW124989   5.861   5.048   0.178
 8030SOL    HW224990   5.807   5.008   0.029
 8031SOL     OW24991   6.883   6.090   2.631
 8031SOL    HW124992   6.922   6.049   2.713
 8031SOL    HW224993   6.947   6.079   2.555
 8032SOL     OW24994   5.734   4.283   1.841
 8032SOL    HW124995   5.660   4.345   1.865
 8032SOL    HW224996   5.705   4.224   1.766
 8033SOL     OW24997   4.397   3.143   0.033
 8033SOL    HW124998   4.316   3.201   0.045
 8033SOL    HW224999   4.386   3.088   6.972
 8034SOL     OW25000   4.842   0.071   5.816
 8034SOL    HW125001   4.805   0.078   5.908
 8034SOL    HW225002   4.910   0.143   5.801
 8035SOL     OW25003   5.123   1.883   2.239
 8035SOL    HW125004   5.065   1.958   2.204
 8035SOL    HW225005   5.065   1.817   2.287
 8036SOL     OW25006   6.290   3.881   4.304
 8036SOL    HW125007   6.379   3.847   4.335
 8036SOL    HW225008   6.300   3.924   4.215
 8037SOL     OW25009   2.175   3.387   6.707
 8037SOL    HW125010   2.142   3.480   6.691
 8037SOL    HW225011   2.270   3.390   6.739
 8038SOL     OW25012   4.550   0.184   2.323
 8038SOL    HW125013   4.612   0.106   2.314
 8038SOL    HW225014   4.462   0.163   2.280
 8039SOL     OW25015   6.825   1.664   5.059
 8039SOL    HW125016   6.902   1.623   5.109
 8039SOL    HW225017   6.768   1.591   5.022
 8040SOL     OW25018   1.254   5.777   6.988
 8040SOL    HW125019   1.185   5.723   6.939
 8040SOL    HW225020   1.303   5.717   0.029
 8041SOL     OW25021   3.087   0.818   3.074
 8041SOL    HW125022   3.031   0.890   3.115
 8041SOL    HW225023   3.183   0.833   3.099
 8042SOL     OW25024   3.803   3.344   5.371
 8042SOL    HW125025   3.725   3.405   5.381
 8042SOL    HW225026   3.842   3.324   5.461
 8043SOL     OW25027   3.307   5.397   0.846
 8043SOL    HW125028   3.209   5.385   0.865
 8043SOL    HW225029   3.356   5.407   0.933
 8044SOL     OW25030   4.113   3.635   0.794
 8044SOL    HW125031   4.111   3.653   0.696
 8044SOL    HW225032   4.094   3.538   0.810
 8045SOL     OW25033   5.848   2.181   2.355
 8045SOL    HW125034   5.914   2.195   2.281
 8045SOL    HW225035   5.881   2.110   2.417
 8046SOL     OW25036   0.587   4.448   2.762
 8046SOL    HW125037   0.536   4.362   2.754
 8046SOL    HW225038   0.678   4.435   2.724
 8047SOL     OW25039   3.657   5.849   6.602
 8047SOL    HW125040   3.610   5.794   6.671
 8047SOL    HW225041   3.717   5.916   6.647
 8048SOL     OW25042   3.980   1.604   0.004
 8048SOL    HW125043   4.001   1.668   6.952
 8048SOL    HW225044   3.902   1.547   7.001
 8049SOL     OW25045   1.022   6.958   0.597
 8049SOL    HW125046   0.929   6.989   0.621
 8049SOL    HW225047   1.065   0.004   0.538
 8050SOL     OW25048   1.672   3.151   3.856
 8050SOL    HW125049   1.732   3.095   3.799
 8050SOL    HW225050   1.718   3.237   3.879
 8051SOL     OW25051   4.925   6.188   4.819
 8051SOL    HW125052   5.023   6.182   4.836
 8051SOL    HW225053   4.881   6.102   4.847
 8052SOL     OW25054   2.986   1.848   1.370
 8052SOL    HW125055   2.995   1.825   1.467
 8052SOL    HW225056   2.917   1.919   1.359
 8053SOL     OW25057   3.555   2.865   4.586
 8053SOL    HW125058   3.552   2.765   4.598
 8053SOL    HW225059   3.541   2.909   4.674
 8054SOL     OW25060   0.029   4.157   4.997
 8054SOL    HW125061   6.974   4.198   4.949
 8054SOL    HW225062   0.093   4.118   4.931
 8055SOL     OW25063   6.549   0.819   5.364
 8055SOL    HW125064   6.459   0.782   5.341
 8055SOL    HW225065   6.538   0.906   5.412
 8056SOL     OW25066   2.873   0.767   4.743
 8056SOL    HW125067   2.909   0.850   4.785
 8056SOL    HW225068   2.883   0.773   4.643
 8057SOL     OW25069   2.539   2.492   3.313
 8057SOL    HW125070   2.600   2.437   3.369
 8057SOL    HW225071   2.570   2.490   3.218
 8058SOL     OW25072   3.599   6.787   3.177
 8058SOL    HW125073   3.646   6.722   3.237
 8058SOL    HW225074   3.543   6.849   3.232
 8059SOL     OW25075   2.606   1.262   4.907
 8059SOL    HW125076   2.627   1.201   4.984
 8059SOL    HW225077   2.548   1.337   4.939
 8060SOL     OW25078   0.278   2.146   6.231
 8060SOL    HW125079   0.321   2.228   6.269
 8060SOL    HW225080   0.341   2.101   6.167
 8061SOL     OW25081   0.654   0.308   2.461
 8061SOL    HW125082   0.704   0.392   2.441
 8061SOL    HW225083   0.622   0.309   2.555
 8062SOL     OW25084   3.943   4.830   3.846
 8062SOL    HW125085   4.038   4.821   3.876
 8062SOL    HW225086   3.939   4.819   3.747
 8063SOL     OW25087   2.398   1.631   3.013
 8063SOL    HW125088   2.489   1.598   3.035
 8063SOL    HW225089   2.330   1.574   3.059
 8064SOL     OW25090   5.989   2.303   0.956
 8064SOL    HW125091   5.905   2.347   0.988
 8064SOL    HW225092   6.065   2.368   0.963
 8065SOL     OW25093   3.025   6.108   3.956
 8065SOL    HW125094   3.051   6.148   3.868
 8065SOL    HW225095   3.107   6.088   4.009
 8066SOL     OW25096   0.007   0.522   5.635
 8066SOL    HW125097   0.002   0.622   5.631
 8066SOL    HW225098   0.076   0.490   5.570
 8067SOL     OW25099   5.228   2.713   2.733
 8067SOL    HW125100   5.176   2.798   2.728
 8067SOL    HW225101   5.248   2.680   2.641
 8068SOL     OW25102   6.691   4.460   1.510
 8068SOL    HW125103   6.782   4.419   1.516
 8068SOL    HW225104   6.643   4.447   1.597
 8069SOL     OW25105   1.427   5.104   1.149
 8069SOL    HW125106   1.489   5.178   1.174
 8069SOL    HW225107   1.475   5.017   1.157
 8070SOL     OW25108   3.767   3.197   0.477
 8070SOL    HW125109   3.723   3.137   0.410
 8070SOL    HW225110   3.858   3.224   0.443
 8071SOL     OW25111   2.910   6.575   5.580
 8071SOL    HW125112   2.961   6.529   5.508
 8071SOL    HW225113   2.812   6.564   5.564
 8072SOL     OW25114   3.515   1.786   0.983
 8072SOL    HW125115   3.502   1.880   0.952
 8072SOL    HW225116   3.427   1.746   1.007
 8073SOL     OW25117   3.976   6.389   5.389
 8073SOL    HW125118   3.966   6.449   5.468
 8073SOL    HW225119   3.905   6.319   5.392
 8074SOL     OW25120   2.993   2.305   0.596
 8074SOL    HW125121   3.064   2.321   0.665
 8074SOL    HW225122   3.017   2.225   0.541
 8075SOL     OW25123   6.678   0.045   0.893
 8075SOL    HW125124   6.603   0.071   0.954
 8075SOL    HW225125   6.670   6.971   0.869
 8076SOL     OW25126   6.046   7.006   5.624
 8076SOL    HW125127   6.055   6.985   5.721
 8076SOL    HW225128   6.012   0.078   5.613
 8077SOL     OW25129   3.663   6.086   2.516
 8077SOL    HW125130   3.682   6.173   2.561
 8077SOL    HW225131   3.629   6.020   2.583
 8078SOL     OW25132   0.864   1.896   1.057
 8078SOL    HW125133   0.924   1.973   1.077
 8078SOL    HW225134   0.874   1.870   0.961
 8079SOL     OW25135   6.628   1.727   3.575
 8079SOL    HW125136   6.532   1.711   3.552
 8079SOL    HW225137   6.649   1.687   3.664
 8080SOL     OW25138   0.963   1.987   2.448
 8080SOL    HW125139   0.976   1.985   2.547
 8080SOL    HW225140   1.051   2.007   2.403
 8081SOL     OW25141   6.102   5.520   6.482
 8081SOL    HW125142   6.199   5.536   6.464
 8081SOL    HW225143   6.081   5.423   6.466
 8082SOL     OW25144   3.596   0.847   2.358
 8082SOL    HW125145   3.685   0.845   2.403
 8082SOL    HW225146   3.526   0.873   2.424
 8083SOL     OW25147   4.965   2.558   3.520
 8083SOL    HW125148   5.064   2.556   3.506
 8083SOL    HW225149   4.926   2.636   3.473
 8084SOL     OW25150   3.493   6.844   6.492
 8084SOL    HW125151   3.580   6.859   6.444
 8084SOL    HW225152   3.505   6.865   6.589
 8085SOL     OW25153   5.755   5.946   2.204
 8085SOL    HW125154   5.768   5.961   2.302
 8085SOL    HW225155   5.730   6.033   2.161
 8086SOL     OW25156   6.663   1.057   1.901
 8086SOL    HW125157   6.749   1.007   1.912
 8086SOL    HW225158   6.586   0.995   1.917
 8087SOL     OW25159   1.725   0.199   0.140
 8087SOL    HW125160   1.691   0.193   0.046
 8087SOL    HW225161   1.765   0.111   0.167
 8088SOL     OW25162   5.970   0.966   1.402
 8088SOL    HW125163   6.021   1.006   1.477
 8088SOL    HW225164   5.977   0.866   1.406
 8089SOL     OW25165   5.155   2.806   0.308
 8089SOL    HW125166   5.237   2.812   0.252
 8089SOL    HW225167   5.079   2.771   0.252
 8090SOL     OW25168   3.460   0.960   6.454
 8090SOL    HW125169   3.479   1.043   6.505
 8090SOL    HW225170   3.366   0.962   6.419
 8091SOL     OW25171   1.792   3.988   4.829
 8091SOL    HW125172   1.815   3.891   4.842
 8091SOL    HW225173   1.699   3.996   4.794
 8092SOL     OW25174   5.340   1.679   5.374
 8092SOL    HW125175   5.289   1.650   5.455
 8092SOL    HW225176   5.315   1.621   5.297
 8093SOL     OW25177   2.701   5.498   3.369
 8093SOL    HW125178   2.708   5.402   3.396
 8093SOL    HW225179   2.661   5.504   3.277
 8094SOL     OW25180   6.875   3.358   4.642
 8094SOL    HW125181   6.798   3.300   4.615
 8094SOL    HW225182   6.956   3.333   4.589
 8095SOL     OW25183   0.915   4.509   4.729
 8095SOL    HW125184   1.014   4.495   4.727
 8095SOL    HW225185   0.893   4.585   4.790
 8096SOL     OW25186   2.368   0.126   2.478
 8096SOL    HW125187   2.272   0.104   2.496
 8096SOL    HW225188   2.403   0.183   2.552
 8097SOL     OW25189   4.624   0.154   5.239
 8097SOL    HW125190   4.562   0.225   5.270
 8097SOL    HW225191   4.686   0.129   5.313
 8098SOL     OW25192   1.763   6.612   3.581
 8098SOL    HW125193   1.715   6.578   3.500
 8098SOL    HW225194   1.803   6.536   3.631
 8099SOL     OW25195   4.084   6.073   4.197
 8099SOL    HW125196   4.011   6.005   4.182
 8099SOL    HW225197   4.073   6.147   4.131
 8100SOL     OW25198   0.015   0.325   6.904
 8100SOL    HW125199   0.071   0.306   6.985
 8100SOL    HW225200   0.039   0.262   6.831
 8101SOL     OW25201   1.526   5.524   1.376
 8101SOL    HW125202   1.536   5.618   1.408
 8101SOL    HW225203   1.616   5.483   1.364
 8102SOL     OW25204   0.415   3.789   3.500
 8102SOL    HW125205   0.429   3.768   3.403
 8102SOL    HW225206   0.476   3.864   3.526
 8103SOL     OW25207   3.000   6.731   1.167
 8103SOL    HW125208   3.006   6.830   1.182
 8103SOL    HW225209   2.904   6.703   1.173
 8104SOL     OW25210   1.717   0.627   6.339
 8104SOL    HW125211   1.801   0.648   6.288
 8104SOL    HW225212   1.718   0.676   6.426
 8105SOL     OW25213   6.940   3.596   3.175
 8105SOL    HW125214   6.894   3.526   3.120
 8105SOL    HW225215   6.889   3.682   3.170
 8106SOL     OW25216   3.202   5.476   3.426
 8106SOL    HW125217   3.161   5.512   3.342
 8106SOL    HW225218   3.291   5.520   3.440
 8107SOL     OW25219   0.726   5.163   4.106
 8107SOL    HW125220   0.629   5.140   4.117
 8107SOL    HW225221   0.762   5.114   4.027
 8108SOL     OW25222   6.309   3.032   6.594
 8108SOL    HW125223   6.239   3.092   6.554
 8108SOL    HW225224   6.290   3.018   6.691
 8109SOL     OW25225   6.539   3.878   6.007
 8109SOL    HW125226   6.552   3.977   5.999
 8109SOL    HW225227   6.626   3.835   6.032
 8110SOL     OW25228   3.694   5.773   2.100
 8110SOL    HW125229   3.639   5.699   2.062
 8110SOL    HW225230   3.666   5.791   2.194
 8111SOL     OW25231   4.950   0.907   4.623
 8111SOL    HW125232   5.010   0.911   4.543
 8111SOL    HW225233   4.984   0.970   4.693
 8112SOL     OW25234   2.374   2.791   4.520
 8112SOL    HW125235   2.406   2.713   4.574
 8112SOL    HW225236   2.304   2.841   4.572
 8113SOL     OW25237   1.154   3.366   0.670
 8113SOL    HW125238   1.087   3.295   0.691
 8113SOL    HW225239   1.216   3.334   0.599
 8114SOL     OW25240   1.253   4.070   2.666
 8114SOL    HW125241   1.243   4.127   2.747
 8114SOL    HW225242   1.304   3.987   2.689
 8115SOL     OW25243   3.936   0.007   6.313
 8115SOL    HW125244   3.891   0.060   6.385
 8115SOL    HW225245   3.994   6.959   6.353
 8116SOL     OW25246   4.447   4.745   0.486
 8116SOL    HW125247   4.534   4.789   0.507
 8116SOL    HW225248   4.371   4.806   0.511
 8117SOL     OW25249   1.956   0.051   3.549
 8117SOL    HW125250   1.916   0.139   3.525
 8117SOL    HW225251   2.004   0.014   3.470
 8118SOL     OW25252   5.274   4.208   6.595
 8118SOL    HW125253   5.191   4.262   6.589
 8118SOL    HW225254   5.251   4.115   6.626
 8119SOL     OW25255   5.260   5.492   6.505
 8119SOL    HW125256   5.255   5.590   6.486
 8119SOL    HW225257   5.355   5.462   6.500
 8120SOL     OW25258   3.296   4.767   1.223
 8120SOL    HW125259   3.292   4.736   1.128
 8120SOL    HW225260   3.335   4.859   1.226
 8121SOL     OW25261   0.028   5.024   1.933
 8121SOL    HW125262   0.115   4.977   1.923
 8121SOL    HW225263   7.012   5.006   2.023
 8122SOL     OW25264   6.834   4.524   3.491
 8122SOL    HW125265   6.822   4.426   3.472
 8122SOL    HW225266   6.818   4.576   3.407
 8123SOL     OW25267   6.716   1.906   6.336
 8123SOL    HW125268   6.702   2.001   6.363
 8123SOL    HW225269   6.792   1.867   6.389
 8124SOL     OW25270   4.799   6.232   1.696
 8124SOL    HW125271   4.865   6.306   1.704
 8124SOL    HW225272   4.722   6.249   1.757
 8125SOL     OW25273   1.931   1.520   2.907
 8125SOL    HW125274   1.889   1.433   2.884
 8125SOL    HW225275   1.972   1.514   2.998
 8126SOL     OW25276   5.305   4.342   2.861
 8126SOL    HW125277   5.221   4.294   2.882
 8126SOL    HW225278   5.361   4.350   2.944
 8127SOL     OW25279   2.800   4.056   6.168
 8127SOL    HW125280   2.891   4.030   6.137
 8127SOL    HW225281   2.737   4.058   6.090
 8128SOL     OW25282   3.011   2.131   2.302
 8128SOL    HW125283   2.974   2.176   2.220
 8128SOL    HW225284   3.110   2.134   2.299
 8129SOL     OW25285   3.564   1.713   5.886
 8129SOL    HW125286   3.616   1.704   5.971
 8129SOL    HW225287   3.619   1.763   5.819
 8130SOL     OW25288   0.723   4.076   6.764
 8130SOL    HW125289   0.666   3.998   6.789
 8130SOL    HW225290   0.720   4.144   6.837
 8131SOL     OW25291   2.388   2.179   1.459
 8131SOL    HW125292   2.388   2.244   1.382
 8131SOL    HW225293   2.327   2.103   1.437
 8132SOL     OW25294   5.725   6.749   5.738
 8132SOL    HW125295   5.649   6.726   5.676
 8132SOL    HW225296   5.689   6.794   5.819
 8133SOL     OW25297   3.421   5.175   2.313
 8133SOL    HW125298   3.429   5.270   2.281
 8133SOL    HW225299   3.489   5.158   2.384
 8134SOL     OW25300   6.616   2.116   6.079
 8134SOL    HW125301   6.619   2.190   6.147
 8134SOL    HW225302   6.580   2.033   6.122
 8135SOL     OW25303   2.742   6.644   1.205
 8135SOL    HW125304   2.701   6.616   1.118
 8135SOL    HW225305   2.670   6.677   1.267
 8136SOL     OW25306   4.363   5.973   2.811
 8136SOL    HW125307   4.369   6.057   2.757
 8136SOL    HW225308   4.413   5.986   2.898
 8137SOL     OW25309   3.038   1.412   5.068
 8137SOL    HW125310   3.122   1.441   5.114
 8137SOL    HW225311   3.031   1.458   4.979
 8138SOL     OW25312   5.447   1.120   0.768
 8138SOL    HW125313   5.409   1.116   0.860
 8138SOL    HW225314   5.384   1.078   0.703
 8139SOL     OW25315   0.210   0.579   1.782
 8139SOL    HW125316   0.291   0.625   1.748
 8139SOL    HW225317   0.221   0.558   1.879
 8140SOL     OW25318   5.741   0.403   6.606
 8140SOL    HW125319   5.690   0.325   6.642
 8140SOL    HW225320   5.696   0.438   6.524
 8141SOL     OW25321   4.359   5.519   4.717
 8141SOL    HW125322   4.263   5.496   4.734
 8141SOL    HW225323   4.396   5.567   4.797
 8142SOL     OW25324   0.236   5.735   6.881
 8142SOL    HW125325   0.273   5.809   6.937
 8142SOL    HW225326   0.166   5.685   6.934
 8143SOL     OW25327   5.739   3.854   0.855
 8143SOL    HW125328   5.681   3.935   0.851
 8143SOL    HW225329   5.702   3.789   0.921
 8144SOL     OW25330   5.909   6.016   6.727
 8144SOL    HW125331   5.929   5.941   6.790
 8144SOL    HW225332   5.990   6.075   6.719
 8145SOL     OW25333   5.434   6.024   1.624
 8145SOL    HW125334   5.349   6.076   1.622
 8145SOL    HW225335   5.502   6.074   1.678
 8146SOL     OW25336   3.788   0.922   4.602
 8146SOL    HW125337   3.806   0.870   4.519
 8146SOL    HW225338   3.696   0.902   4.635
 8147SOL     OW25339   6.151   1.992   1.627
 8147SOL    HW125340   6.113   1.900   1.616
 8147SOL    HW225341   6.210   2.013   1.549
 8148SOL     OW25342   4.985   4.763   0.894
 8148SOL    HW125343   4.907   4.710   0.929
 8148SOL    HW225344   5.070   4.722   0.926
 8149SOL     OW25345   2.664   5.989   1.869
 8149SOL    HW125346   2.611   5.998   1.953
 8149SOL    HW225347   2.603   5.988   1.790
 8150SOL     OW25348   0.539   4.136   0.436
 8150SOL    HW125349   0.555   4.054   0.491
 8150SOL    HW225350   0.554   4.217   0.493
 8151SOL     OW25351   6.623   1.982   1.168
 8151SOL    HW125352   6.698   1.950   1.110
 8151SOL    HW225353   6.536   1.973   1.119
 8152SOL     OW25354   0.298   1.649   2.471
 8152SOL    HW125355   0.249   1.562   2.459
 8152SOL    HW225356   0.232   1.722   2.484
 8153SOL     OW25357   3.460   6.969   3.343
 8153SOL    HW125358   3.372   7.016   3.335
 8153SOL    HW225359   3.534   0.015   3.343
 8154SOL     OW25360   2.823   5.683   3.510
 8154SOL    HW125361   2.757   5.750   3.543
 8154SOL    HW225362   2.775   5.608   3.466
 8155SOL     OW25363   2.329   3.879   1.828
 8155SOL    HW125364   2.355   3.796   1.779
 8155SOL    HW225365   2.358   3.959   1.775
 8156SOL     OW25366   5.258   6.864   0.120
 8156SOL    HW125367   5.169   6.904   0.098
 8156SOL    HW225368   5.311   6.853   0.037
 8157SOL     OW25369   6.364   5.284   6.419
 8157SOL    HW125370   6.406   5.251   6.504
 8157SOL    HW225371   6.407   5.238   6.341
 8158SOL     OW25372   6.411   5.208   1.442
 8158SOL    HW125373   6.431   5.191   1.346
 8158SOL    HW225374   6.486   5.258   1.484
 8159SOL     OW25375   2.750   6.217   2.466
 8159SOL    HW125376   2.746   6.170   2.378
 8159SOL    HW225377   2.800   6.303   2.456
 8160SOL     OW25378   5.052   1.221   2.667
 8160SOL    HW125379   5.010   1.310   2.684
 8160SOL    HW225380   5.017   1.155   2.733
 8161SOL     OW25381   5.144   1.375   6.715
 8161SOL    HW125382   5.151   1.464   6.669
 8161SOL    HW225383   5.233   1.349   6.752
 8162SOL     OW25384   5.942   6.536   6.093
 8162SOL    HW125385   6.028   6.486   6.109
 8162SOL    HW225386   5.948   6.584   6.005
 8163SOL     OW25387   2.796   3.663   5.384
 8163SOL    HW125388   2.857   3.742   5.379
 8163SOL    HW225389   2.809   3.605   5.304
 8164SOL     OW25390   5.875   3.064   0.601
 8164SOL    HW125391   5.900   3.065   0.504
 8164SOL    HW225392   5.959   3.062   0.656
 8165SOL     OW25393   0.705   5.260   0.066
 8165SOL    HW125394   0.700   5.315   7.005
 8165SOL    HW225395   0.666   5.311   0.142
 8166SOL     OW25396   2.100   0.075   2.169
 8166SOL    HW125397   2.105   6.998   2.154
 8166SOL    HW225398   2.103   0.094   2.267
 8167SOL     OW25399   6.173   0.729   4.106
 8167SOL    HW125400   6.204   0.636   4.124
 8167SOL    HW225401   6.182   0.784   4.189
 8168SOL     OW25402   2.536   1.736   3.879
 8168SOL    HW125403   2.563   1.674   3.953
 8168SOL    HW225404   2.457   1.790   3.908
 8169SOL     OW25405   5.195   2.712   1.763
 8169SOL    HW125406   5.102   2.700   1.730
 8169SOL    HW225407   5.243   2.624   1.761
 8170SOL     OW25408   1.569   5.551   2.995
 8170SOL    HW125409   1.575   5.487   3.071
 8170SOL    HW225410   1.494   5.524   2.934
 8171SOL     OW25411   0.977   1.385   0.302
 8171SOL    HW125412   0.933   1.401   0.214
 8171SOL    HW225413   1.012   1.291   0.305
 8172SOL     OW25414   1.084   0.945   2.135
 8172SOL    HW125415   1.156   0.887   2.173
 8172SOL    HW225416   1.115   1.040   2.134
 8173SOL     OW25417   3.944   1.623   0.781
 8173SOL    HW125418   3.955   1.660   0.688
 8173SOL    HW225419   4.012   1.666   0.841
 8174SOL     OW25420   5.376   2.684   1.162
 8174SOL    HW125421   5.373   2.584   1.150
 8174SOL    HW225422   5.292   2.714   1.208
 8175SOL     OW25423   0.248   3.311   6.149
 8175SOL    HW125424   0.316   3.237   6.146
 8175SOL    HW225425   0.168   3.285   6.096
 8176SOL     OW25426   2.374   5.088   2.084
 8176SOL    HW125427   2.402   5.129   1.997
 8176SOL    HW225428   2.281   5.118   2.106
 8177SOL     OW25429   2.358   6.099   4.167
 8177SOL    HW125430   2.310   6.179   4.204
 8177SOL    HW225431   2.299   6.019   4.172
 8178SOL     OW25432   2.496   6.636   6.651
 8178SOL    HW125433   2.497   6.730   6.687
 8178SOL    HW225434   2.475   6.572   6.725
 8179SOL     OW25435   3.776   2.715   6.297
 8179SOL    HW125436   3.819   2.642   6.244
 8179SOL    HW225437   3.700   2.754   6.244
 8180SOL     OW25438   6.897   0.080   4.371
 8180SOL    HW125439   6.917   0.095   4.468
 8180SOL    HW225440   6.798   0.078   4.357
 8181SOL     OW25441   2.238   2.103   1.944
 8181SOL    HW125442   2.317   2.109   1.883
 8181SOL    HW225443   2.237   2.184   2.004
 8182SOL     OW25444   3.669   1.885   6.840
 8182SOL    HW125445   3.624   1.960   6.887
 8182SOL    HW225446   3.755   1.863   6.887
 8183SOL     OW25447   0.777   2.261   4.836
 8183SOL    HW125448   0.829   2.343   4.860
 8183SOL    HW225449   0.730   2.276   4.748
 8184SOL     OW25450   5.045   1.258   5.679
 8184SOL    HW125451   5.057   1.343   5.730
 8184SOL    HW225452   5.031   1.183   5.744
 8185SOL     OW25453   2.922   6.863   0.333
 8185SOL    HW125454   3.010   6.823   0.307
 8185SOL    HW225455   2.878   6.805   0.401
 8186SOL     OW25456   3.770   5.814   6.349
 8186SOL    HW125457   3.745   5.843   6.442
 8186SOL    HW225458   3.776   5.894   6.290
 8187SOL     OW25459   1.759   2.176   5.811
 8187SOL    HW125460   1.756   2.080   5.837
 8187SOL    HW225461   1.793   2.231   5.888
 8188SOL     OW25462   5.177   1.956   2.665
 8188SOL    HW125463   5.194   1.869   2.711
 8188SOL    HW225464   5.244   1.968   2.591
 8189SOL     OW25465   5.202   4.781   2.192
 8189SOL    HW125466   5.133   4.818   2.129
 8189SOL    HW225467   5.177   4.805   2.286
 8190SOL     OW25468   4.983   5.755   4.317
 8190SOL    HW125469   4.910   5.709   4.368
 8190SOL    HW225470   4.955   5.766   4.222
 8191SOL     OW25471   3.271   5.180   3.848
 8191SOL    HW125472   3.343   5.178   3.779
 8191SOL    HW225473   3.253   5.087   3.881
 8192SOL     OW25474   3.456   5.791   0.127
 8192SOL    HW125475   3.532   5.848   0.158
 8192SOL    HW225476   3.376   5.807   0.184
 8193SOL     OW25477   6.938   0.256   3.887
 8193SOL    HW125478   6.966   0.314   3.964
 8193SOL    HW225479   6.968   0.162   3.904
 8194SOL     OW25480   6.230   2.509   0.958
 8194SOL    HW125481   6.307   2.454   0.990
 8194SOL    HW225482   6.218   2.496   0.860
 8195SOL     OW25483   0.654   0.485   0.402
 8195SOL    HW125484   0.592   0.412   0.373
 8195SOL    HW225485   0.741   0.444   0.431
 8196SOL     OW25486   3.502   0.529   5.264
 8196SOL    HW125487   3.485   0.431   5.266
 8196SOL    HW225488   3.415   0.578   5.254
 8197SOL     OW25489   4.723   1.300   5.801
 8197SOL    HW125490   4.637   1.350   5.792
 8197SOL    HW225491   4.795   1.363   5.831
 8198SOL     OW25492   2.738   6.527   3.125
 8198SOL    HW125493   2.708   6.604   3.069
 8198SOL    HW225494   2.681   6.522   3.207
 8199SOL     OW25495   7.018   3.615   0.497
 8199SOL    HW125496   0.037   3.534   0.539
 8199SOL    HW225497   0.067   3.672   0.457
 8200SOL     OW25498   4.632   4.054   1.343
 8200SOL    HW125499   4.677   4.024   1.426
 8200SOL    HW225500   4.558   3.990   1.320
 8201SOL     OW25501   5.127   0.875   4.425
 8201SOL    HW125502   5.174   0.913   4.346
 8201SOL    HW225503   5.138   0.776   4.425
 8202SOL     OW25504   0.972   5.706   4.032
 8202SOL    HW125505   1.027   5.773   4.082
 8202SOL    HW225506   0.966   5.732   3.936
 8203SOL     OW25507   4.609   3.298   0.135
 8203SOL    HW125508   4.565   3.388   0.125
 8203SOL    HW225509   4.544   3.226   0.108
 8204SOL     OW25510   3.442   5.574   1.040
 8204SOL    HW125511   3.463   5.586   1.138
 8204SOL    HW225512   3.439   5.664   0.996
 8205SOL     OW25513   6.645   4.664   1.895
 8205SOL    HW125514   6.602   4.750   1.868
 8205SOL    HW225515   6.727   4.649   1.839
 8206SOL     OW25516   2.953   2.452   5.629
 8206SOL    HW125517   2.868   2.474   5.679
 8206SOL    HW225518   2.932   2.443   5.531
 8207SOL     OW25519   3.408   4.483   5.362
 8207SOL    HW125520   3.482   4.417   5.350
 8207SOL    HW225521   3.433   4.569   5.319
 8208SOL     OW25522   2.725   6.371   1.394
 8208SOL    HW125523   2.765   6.452   1.350
 8208SOL    HW225524   2.791   6.296   1.391
 8209SOL     OW25525   0.837   1.801   5.295
 8209SOL    HW125526   0.791   1.890   5.294
 8209SOL    HW225527   0.844   1.768   5.389
 8210SOL     OW25528   3.440   0.610   0.686
 8210SOL    HW125529   3.538   0.625   0.675
 8210SOL    HW225530   3.390   0.668   0.622
 8211SOL     OW25531   3.515   4.063   3.701
 8211SOL    HW125532   3.466   4.107   3.626
 8211SOL    HW225533   3.464   4.075   3.786
 8212SOL     OW25534   3.220   0.800   0.934
 8212SOL    HW125535   3.220   0.791   0.834
 8212SOL    HW225536   3.305   0.842   0.964
 8213SOL     OW25537   5.103   4.906   3.398
 8213SOL    HW125538   5.050   4.839   3.449
 8213SOL    HW225539   5.124   4.984   3.458
 8214SOL     OW25540   2.213   6.194   3.887
 8214SOL    HW125541   2.202   6.168   3.791
 8214SOL    HW225542   2.309   6.184   3.914
 8215SOL     OW25543   4.209   5.106   0.283
 8215SOL    HW125544   4.190   5.019   0.237
 8215SOL    HW225545   4.139   5.172   0.258
 8216SOL     OW25546   5.257   0.204   3.019
 8216SOL    HW125547   5.248   0.180   2.923
 8216SOL    HW225548   5.167   0.226   3.057
 8217SOL     OW25549   2.363   4.399   1.835
 8217SOL    HW125550   2.459   4.380   1.815
 8217SOL    HW225551   2.353   4.494   1.865
 8218SOL     OW25552   1.825   0.155   4.087
 8218SOL    HW125553   1.889   0.218   4.042
 8218SOL    HW225554   1.770   0.109   4.018
 8219SOL     OW25555   2.940   4.150   0.785
 8219SOL    HW125556   2.952   4.181   0.880
 8219SOL    HW225557   2.860   4.092   0.779
 8220SOL     OW25558   3.432   4.112   5.182
 8220SOL    HW125559   3.333   4.115   5.199
 8220SOL    HW225560   3.478   4.173   5.246
 8221SOL     OW25561   6.101   4.525   3.293
 8221SOL    HW125562   6.199   4.529   3.277
 8221SOL    HW225563   6.073   4.604   3.348
 8222SOL     OW25564   5.204   1.757   0.496
 8222SOL    HW125565   5.222   1.841   0.444
 8222SOL    HW225566   5.139   1.776   0.569
 8223SOL     OW25567   0.449   5.154   5.936
 8223SOL    HW125568   0.499   5.094   5.874
 8223SOL    HW225569   0.422   5.237   5.887
 8224SOL     OW25570   4.798   1.747   1.399
 8224SOL    HW125571   4.802   1.774   1.495
 8224SOL    HW225572   4.889   1.754   1.359
 8225SOL     OW25573   3.942   0.385   1.322
 8225SOL    HW125574   3.924   0.297   1.366
 8225SOL    HW225575   3.865   0.447   1.340
 8226SOL     OW25576   3.158   0.825   0.654
 8226SOL    HW125577   3.108   0.740   0.670
 8226SOL    HW225578   3.206   0.820   0.566
 8227SOL     OW25579   7.000   1.502   2.407
 8227SOL    HW125580   0.042   1.560   2.357
 8227SOL    HW225581   6.921   1.482   2.349
 8228SOL     OW25582   6.963   1.069   5.612
 8228SOL    HW125583   6.909   1.136   5.561
 8228SOL    HW225584   6.931   1.066   5.707
 8229SOL     OW25585   4.429   4.238   1.145
 8229SOL    HW125586   4.435   4.146   1.105
 8229SOL    HW225587   4.507   4.254   1.204
 8230SOL     OW25588   3.526   6.960   5.705
 8230SOL    HW125589   3.534   6.943   5.606
 8230SOL    HW225590   3.569   6.885   5.755
 8231SOL     OW25591   3.088   1.702   2.733
 8231SOL    HW125592   3.166   1.647   2.762
 8231SOL    HW225593   3.112   1.753   2.650
 8232SOL     OW25594   5.053   1.698   2.429
 8232SOL    HW125595   5.145   1.662   2.447
 8232SOL    HW225596   5.006   1.715   2.515
 8233SOL     OW25597   1.191   0.187   5.569
 8233SOL    HW125598   1.274   0.136   5.591
 8233SOL    HW225599   1.130   0.130   5.515
 8234SOL     OW25600   3.254   3.143   0.267
 8234SOL    HW125601   3.243   3.046   0.290
 8234SOL    HW225602   3.335   3.155   0.210
 8235SOL     OW25603   0.500   4.115   0.160
 8235SOL    HW125604   0.504   4.102   0.259
 8235SOL    HW225605   0.593   4.117   0.123
 8236SOL     OW25606   7.019   5.678   5.636
 8236SOL    HW125607   6.943   5.737   5.662
 8236SOL    HW225608   6.995   5.583   5.654
 8237SOL     OW25609   4.227   5.879   6.045
 8237SOL    HW125610   4.262   5.820   6.118
 8237SOL    HW225611   4.220   5.827   5.960
 8238SOL     OW25612   0.911   5.504   6.737
 8238SOL    HW125613   0.928   5.527   6.641
 8238SOL    HW225614   0.827   5.450   6.744
 8239SOL     OW25615   0.254   1.356   4.830
 8239SOL    HW125616   0.338   1.338   4.778
 8239SOL    HW225617   0.263   1.319   4.922
 8240SOL     OW25618   2.855   3.524   2.717
 8240SOL    HW125619   2.864   3.460   2.793
 8240SOL    HW225620   2.945   3.564   2.696
 8241SOL     OW25621   1.537   3.787   6.223
 8241SOL    HW125622   1.541   3.866   6.284
 8241SOL    HW225623   1.450   3.786   6.175
 8242SOL     OW25624   1.368   3.425   4.962
 8242SOL    HW125625   1.383   3.408   5.060
 8242SOL    HW225626   1.451   3.399   4.911
 8243SOL     OW25627   0.371   4.140   6.632
 8243SOL    HW125628   0.369   4.237   6.656
 8243SOL    HW225629   0.425   4.090   6.700
 8244SOL     OW25630   0.848   0.309   3.325
 8244SOL    HW125631   0.929   0.278   3.376
 8244SOL    HW225632   0.872   0.320   3.229
 8245SOL     OW25633   4.154   1.842   3.571
 8245SOL    HW125634   4.105   1.784   3.636
 8245SOL    HW225635   4.239   1.798   3.544
 8246SOL     OW25636   0.788   4.602   5.905
 8246SOL    HW125637   0.839   4.564   5.827
 8246SOL    HW225638   0.846   4.668   5.953
 8247SOL     OW25639   2.417   5.868   3.567
 8247SOL    HW125640   2.482   5.793   3.580
 8247SOL    HW225641   2.342   5.838   3.508
 8248SOL     OW25642   0.664   6.105   4.380
 8248SOL    HW125643   0.606   6.050   4.320
 8248SOL    HW225644   0.722   6.045   4.435
 8249SOL     OW25645   2.526   1.503   5.037
 8249SOL    HW125646   2.550   1.482   5.132
 8249SOL    HW225647   2.487   1.594   5.031
 8250SOL     OW25648   3.313   1.729   0.716
 8250SOL    HW125649   3.230   1.785   0.711
 8250SOL    HW225650   3.393   1.788   0.709
 8251SOL     OW25651   6.110   1.687   4.331
 8251SOL    HW125652   6.097   1.722   4.239
 8251SOL    HW225653   6.206   1.664   4.345
 8252SOL     OW25654   3.232   2.198   0.001
 8252SOL    HW125655   3.296   2.225   0.072
 8252SOL    HW225656   3.180   2.278   6.992
 8253SOL     OW25657   4.109   5.653   6.457
 8253SOL    HW125658   4.099   5.752   6.471
 8253SOL    HW225659   4.021   5.608   6.476
 8254SOL     OW25660   5.722   4.919   6.190
 8254SOL    HW125661   5.766   4.832   6.167
 8254SOL    HW225662   5.775   4.965   6.261
 8255SOL     OW25663   0.872   0.058   6.149
 8255SOL    HW125664   0.826   0.025   6.231
 8255SOL    HW225665   0.866   7.012   6.077
 8256SOL     OW25666   6.730   0.256   3.328
 8256SOL    HW125667   6.765   0.339   3.373
 8256SOL    HW225668   6.799   0.220   3.266
 8257SOL     OW25669   5.565   4.259   4.130
 8257SOL    HW125670   5.594   4.336   4.072
 8257SOL    HW225671   5.466   4.259   4.139
 8258SOL     OW25672   5.496   2.780   1.820
 8258SOL    HW125673   5.451   2.801   1.733
 8258SOL    HW225674   5.565   2.709   1.806
 8259SOL     OW25675   4.001   1.749   5.322
 8259SOL    HW125676   3.924   1.700   5.282
 8259SOL    HW225677   3.978   1.846   5.331
 8260SOL     OW25678   1.959   6.406   1.113
 8260SOL    HW125679   1.908   6.447   1.038
 8260SOL    HW225680   2.051   6.383   1.083
 8261SOL     OW25681   5.326   6.636   2.927
 8261SOL    HW125682   5.396   6.680   2.871
 8261SOL    HW225683   5.282   6.563   2.874
 8262SOL     OW25684   0.858   4.514   0.675
 8262SOL    HW125685   0.794   4.489   0.602
 8262SOL    HW225686   0.934   4.565   0.636
 8263SOL     OW25687   6.833   2.711   6.608
 8263SOL    HW125688   6.795   2.723   6.699
 8263SOL    HW225689   6.916   2.766   6.598
 8264SOL     OW25690   1.653   6.530   1.275
 8264SOL    HW125691   1.647   6.471   1.355
 8264SOL    HW225692   1.561   6.553   1.243
 8265SOL     OW25693   4.336   0.122   1.476
 8265SOL    HW125694   4.245   0.160   1.488
 8265SOL    HW225695   4.405   0.193   1.492
 8266SOL     OW25696   2.630   0.432   4.736
 8266SOL    HW125697   2.560   0.405   4.803
 8266SOL    HW225698   2.721   0.408   4.772
 8267SOL     OW25699   1.350   5.218   1.682
 8267SOL    HW125700   1.365   5.284   1.608
 8267SOL    HW225701   1.403   5.135   1.664
 8268SOL     OW25702   2.612   4.405   6.288
 8268SOL    HW125703   2.532   4.409   6.227
 8268SOL    HW225704   2.672   4.331   6.259
 8269SOL     OW25705   4.618   2.657   2.803
 8269SOL    HW125706   4.568   2.594   2.862
 8269SOL    HW225707   4.636   2.743   2.852
 8270SOL     OW25708   2.517   6.028   5.926
 8270SOL    HW125709   2.574   5.953   5.959
 8270SOL    HW225710   2.566   6.077   5.854
 8271SOL     OW25711   6.260   0.044   3.803
 8271SOL    HW125712   6.331   0.056   3.873
 8271SOL    HW225713   6.251   6.970   3.780
 8272SOL     OW25714   0.561   0.824   2.684
 8272SOL    HW125715   0.555   0.739   2.632
 8272SOL    HW225716   0.475   0.874   2.677
 8273SOL     OW25717   3.353   0.298   0.116
 8273SOL    HW125718   3.370   0.393   0.143
 8273SOL    HW225719   3.418   0.238   0.163
 8274SOL     OW25720   3.826   4.451   6.930
 8274SOL    HW125721   3.854   4.526   6.870
 8274SOL    HW225722   3.761   4.392   6.881
 8275SOL     OW25723   5.631   0.094   4.786
 8275SOL    HW125724   5.597   0.011   4.831
 8275SOL    HW225725   5.573   0.171   4.812
 8276SOL     OW25726   6.453   2.357   5.984
 8276SOL    HW125727   6.480   2.263   5.963
 8276SOL    HW225728   6.420   2.402   5.900
 8277SOL     OW25729   2.605   5.626   4.623
 8277SOL    HW125730   2.507   5.625   4.600
 8277SOL    HW225731   2.633   5.719   4.646
 8278SOL     OW25732   3.084   1.153   6.742
 8278SOL    HW125733   3.050   1.088   6.674
 8278SOL    HW225734   3.058   1.246   6.715
 8279SOL     OW25735   5.621   4.941   6.900
 8279SOL    HW125736   5.596   4.865   6.960
 8279SOL    HW225737   5.573   4.931   6.812
 8280SOL     OW25738   4.878   2.802   0.124
 8280SOL    HW125739   4.848   2.882   0.175
 8280SOL    HW225740   4.837   2.802   0.033
 8281SOL     OW25741   1.773   4.300   0.822
 8281SOL    HW125742   1.748   4.266   0.913
 8281SOL    HW225743   1.781   4.222   0.759
 8282SOL     OW25744   2.680   2.166   1.011
 8282SOL    HW125745   2.679   2.208   0.920
 8282SOL    HW225746   2.757   2.202   1.064
 8283SOL     OW25747   0.259   5.140   3.611
 8283SOL    HW125748   0.346   5.099   3.639
 8283SOL    HW225749   0.184   5.078   3.633
 8284SOL     OW25750   1.784   3.132   2.409
 8284SOL    HW125751   1.884   3.137   2.404
 8284SOL    HW225752   1.756   3.122   2.504
 8285SOL     OW25753   3.097   3.771   6.081
 8285SOL    HW125754   3.093   3.685   6.029
 8285SOL    HW225755   3.055   3.844   6.027
 8286SOL     OW25756   5.833   1.332   4.814
 8286SOL    HW125757   5.884   1.303   4.895
 8286SOL    HW225758   5.804   1.252   4.762
 8287SOL     OW25759   1.586   6.792   4.105
 8287SOL    HW125760   1.612   6.804   4.009
 8287SOL    HW225761   1.668   6.798   4.162
 8288SOL     OW25762   1.695   2.332   2.864
 8288SOL    HW125763   1.729   2.374   2.781
 8288SOL    HW225764   1.712   2.392   2.942
 8289SOL     OW25765   6.338   0.581   6.145
 8289SOL    HW125766   6.287   0.533   6.216
 8289SOL    HW225767   6.275   0.638   6.092
 8290SOL     OW25768   3.844   3.114   1.607
 8290SOL    HW125769   3.846   3.214   1.614
 8290SOL    HW225770   3.932   3.077   1.639
 8291SOL     OW25771   5.949   6.441   6.772
 8291SOL    HW125772   5.996   6.384   6.705
 8291SOL    HW225773   5.974   6.412   6.864
 8292SOL     OW25774   2.521   5.239   5.902
 8292SOL    HW125775   2.439   5.230   5.844
 8292SOL    HW225776   2.602   5.232   5.845
 8293SOL     OW25777   1.905   4.910   1.719
 8293SOL    HW125778   1.946   4.823   1.692
 8293SOL    HW225779   1.888   4.966   1.637
 8294SOL     OW25780   5.959   3.557   5.367
 8294SOL    HW125781   5.952   3.575   5.269
 8294SOL    HW225782   5.892   3.487   5.393
 8295SOL     OW25783   4.935   4.137   2.121
 8295SOL    HW125784   4.914   4.209   2.188
 8295SOL    HW225785   4.875   4.147   2.042
 8296SOL     OW25786   4.179   5.584   0.059
 8296SOL    HW125787   4.099   5.577   0.119
 8296SOL    HW225788   4.159   5.647   7.006
 8297SOL     OW25789   6.073   4.154   2.499
 8297SOL    HW125790   6.064   4.088   2.573
 8297SOL    HW225791   6.054   4.109   2.412
 8298SOL     OW25792   0.715   0.677   6.408
 8298SOL    HW125793   0.641   0.669   6.475
 8298SOL    HW225794   0.770   0.758   6.428
 8299SOL     OW25795   0.237   3.672   1.001
 8299SOL    HW125796   0.175   3.627   1.066
 8299SOL    HW225797   0.219   3.639   0.909
 8300SOL     OW25798   6.151   6.640   4.886
 8300SOL    HW125799   6.091   6.627   4.965
 8300SOL    HW225800   6.095   6.661   4.805
 8301SOL     OW25801   4.455   0.177   6.601
 8301SOL    HW125802   4.395   0.202   6.525
 8301SOL    HW225803   4.504   0.258   6.632
 8302SOL     OW25804   3.508   6.918   5.140
 8302SOL    HW125805   3.586   6.908   5.079
 8302SOL    HW225806   3.448   6.992   5.107
 8303SOL     OW25807   0.120   0.376   2.819
 8303SOL    HW125808   0.173   0.458   2.798
 8303SOL    HW225809   0.071   0.346   2.737
 8304SOL     OW25810   5.869   4.137   2.717
 8304SOL    HW125811   5.816   4.217   2.687
 8304SOL    HW225812   5.847   4.059   2.658
 8305SOL     OW25813   4.725   5.341   3.711
 8305SOL    HW125814   4.789   5.407   3.752
 8305SOL    HW225815   4.658   5.390   3.655
 8306SOL     OW25816   6.526   1.356   2.610
 8306SOL    HW125817   6.588   1.294   2.560
 8306SOL    HW225818   6.467   1.302   2.669
 8307SOL     OW25819   2.443   5.215   1.268
 8307SOL    HW125820   2.456   5.123   1.231
 8307SOL    HW225821   2.375   5.212   1.341
 8308SOL     OW25822   1.428   4.609   0.043
 8308SOL    HW125823   1.330   4.623   0.030
 8308SOL    HW225824   1.471   4.698   0.062
 8309SOL     OW25825   6.272   5.264   4.503
 8309SOL    HW125826   6.196   5.238   4.564
 8309SOL    HW225827   6.237   5.280   4.411
 8310SOL     OW25828   0.865   6.027   0.639
 8310SOL    HW125829   0.802   5.953   0.618
 8310SOL    HW225830   0.937   5.993   0.700
 8311SOL     OW25831   5.319   6.798   4.489
 8311SOL    HW125832   5.361   6.791   4.580
 8311SOL    HW225833   5.269   6.884   4.483
 8312SOL     OW25834   5.555   0.570   0.489
 8312SOL    HW125835   5.606   0.651   0.458
 8312SOL    HW225836   5.531   0.582   0.586
 8313SOL     OW25837   4.419   6.980   5.284
 8313SOL    HW125838   4.452   6.925   5.361
 8313SOL    HW225839   4.490   0.024   5.258
 8314SOL     OW25840   5.732   6.288   6.658
 8314SOL    HW125841   5.776   6.201   6.679
 8314SOL    HW225842   5.785   6.363   6.696
 8315SOL     OW25843   3.686   3.490   3.352
 8315SOL    HW125844   3.696   3.529   3.260
 8315SOL    HW225845   3.612   3.422   3.351
 8316SOL     OW25846   1.362   3.496   6.559
 8316SOL    HW125847   1.405   3.584   6.540
 8316SOL    HW225848   1.432   3.424   6.558
 8317SOL     OW25849   2.296   2.077   4.198
 8317SOL    HW125850   2.313   1.994   4.251
 8317SOL    HW225851   2.263   2.052   4.107
 8318SOL     OW25852   4.435   1.457   6.216
 8318SOL    HW125853   4.407   1.373   6.263
 8318SOL    HW225854   4.387   1.466   6.129
 8319SOL     OW25855   1.469   6.868   6.315
 8319SOL    HW125856   1.401   6.838   6.248
 8319SOL    HW225857   1.498   6.961   6.293
 8320SOL     OW25858   3.813   3.634   3.553
 8320SOL    HW125859   3.768   3.602   3.469
 8320SOL    HW225860   3.754   3.698   3.601
 8321SOL     OW25861   0.240   0.333   6.074
 8321SOL    HW125862   0.327   0.344   6.026
 8321SOL    HW225863   0.185   0.416   6.062
 8322SOL     OW25864   0.033   1.115   0.251
 8322SOL    HW125865   7.011   1.077   0.169
 8322SOL    HW225866   0.105   1.179   0.223
 8323SOL     OW25867   4.214   4.597   1.195
 8323SOL    HW125868   4.156   4.559   1.123
 8323SOL    HW225869   4.179   4.569   1.284
 8324SOL     OW25870   5.868   0.284   7.005
 8324SOL    HW125871   5.942   0.275   0.049
 8324SOL    HW225872   5.902   0.333   6.924
 8325SOL     OW25873   1.232   4.656   5.082
 8325SOL    HW125874   1.253   4.738   5.029
 8325SOL    HW225875   1.310   4.635   5.142
 8326SOL     OW25876   3.657   3.793   7.017
 8326SOL    HW125877   3.754   3.788   6.995
 8326SOL    HW225878   3.645   3.829   0.087
 8327SOL     OW25879   0.612   0.476   5.423
 8327SOL    HW125880   0.541   0.409   5.446
 8327SOL    HW225881   0.692   0.460   5.481
 8328SOL     OW25882   1.486   6.724   5.599
 8328SOL    HW125883   1.479   6.656   5.672
 8328SOL    HW225884   1.563   6.701   5.539
 8329SOL     OW25885   0.315   2.960   5.009
 8329SOL    HW125886   0.256   3.038   4.989
 8329SOL    HW225887   0.390   2.990   5.068
 8330SOL     OW25888   3.791   0.970   6.456
 8330SOL    HW125889   3.699   1.010   6.460
 8330SOL    HW225890   3.835   0.995   6.370
 8331SOL     OW25891   3.057   1.890   0.307
 8331SOL    HW125892   3.144   1.855   0.272
 8331SOL    HW225893   2.992   1.814   0.316
 8332SOL     OW25894   5.350   5.927   1.976
 8332SOL    HW125895   5.440   5.955   1.943
 8332SOL    HW225896   5.361   5.864   2.053
 8333SOL     OW25897   2.128   5.280   0.459
 8333SOL    HW125898   2.170   5.204   0.509
 8333SOL    HW225899   2.098   5.247   0.369
 8334SOL     OW25900   2.931   1.912   6.564
 8334SOL    HW125901   2.967   1.827   6.527
 8334SOL    HW225902   2.853   1.892   6.624
 8335SOL     OW25903   4.334   2.968   6.817
 8335SOL    HW125904   4.376   2.900   6.878
 8335SOL    HW225905   4.376   2.962   6.727
 8336SOL     OW25906   1.024   3.996   3.029
 8336SOL    HW125907   0.961   3.984   3.106
 8336SOL    HW225908   1.009   3.924   2.962
 8337SOL     OW25909   0.994   0.240   4.560
 8337SOL    HW125910   1.073   0.229   4.500
 8337SOL    HW225911   0.960   0.334   4.554
 8338SOL     OW25912   4.145   5.203   2.392
 8338SOL    HW125913   4.244   5.197   2.377
 8338SOL    HW225914   4.123   5.291   2.434
 8339SOL     OW25915   6.546   0.760   0.663
 8339SOL    HW125916   6.559   0.795   0.756
 8339SOL    HW225917   6.516   0.835   0.603
 8340SOL     OW25918   4.762   3.877   0.065
 8340SOL    HW125919   4.711   3.810   0.120
 8340SOL    HW225920   4.814   3.937   0.126
 8341SOL     OW25921   3.653   0.353   6.636
 8341SOL    HW125922   3.560   0.344   6.601
 8341SOL    HW225923   3.718   0.350   6.560
 8342SOL     OW25924   3.607   6.251   0.427
 8342SOL    HW125925   3.536   6.279   0.492
 8342SOL    HW225926   3.689   6.226   0.478
 8343SOL     OW25927   6.550   5.633   4.390
 8343SOL    HW125928   6.544   5.536   4.412
 8343SOL    HW225929   6.635   5.651   4.340
 8344SOL     OW25930   0.564   5.033   4.672
 8344SOL    HW125931   0.570   5.015   4.574
 8344SOL    HW225932   0.469   5.032   4.701
 8345SOL     OW25933   5.288   1.762   3.188
 8345SOL    HW125934   5.246   1.672   3.176
 8345SOL    HW225935   5.226   1.833   3.154
 8346SOL     OW25936   3.750   3.214   6.185
 8346SOL    HW125937   3.700   3.281   6.239
 8346SOL    HW225938   3.753   3.244   6.089
 8347SOL     OW25939   3.173   5.995   6.041
 8347SOL    HW125940   3.269   6.003   6.066
 8347SOL    HW225941   3.139   5.904   6.068
 8348SOL     OW25942   2.661   6.508   1.644
 8348SOL    HW125943   2.690   6.471   1.556
 8348SOL    HW225944   2.604   6.440   1.691
 8349SOL     OW25945   0.961   6.353   1.383
 8349SOL    HW125946   1.026   6.418   1.423
 8349SOL    HW225947   0.868   6.384   1.400
 8350SOL     OW25948   2.980   6.855   6.306
 8350SOL    HW125949   2.884   6.857   6.277
 8350SOL    HW225950   3.010   6.760   6.314
 8351SOL     OW25951   5.747   5.788   3.685
 8351SOL    HW125952   5.841   5.775   3.654
 8351SOL    HW225953   5.703   5.857   3.627
 8352SOL     OW25954   2.376   6.527   2.859
 8352SOL    HW125955   2.329   6.440   2.875
 8352SOL    HW225956   2.443   6.515   2.785
 8353SOL     OW25957   1.951   3.911   1.537
 8353SOL    HW125958   1.986   3.972   1.608
 8353SOL    HW225959   1.852   3.906   1.543
 8354SOL     OW25960   3.355   6.478   4.182
 8354SOL    HW125961   3.371   6.397   4.125
 8354SOL    HW225962   3.411   6.473   4.264
 8355SOL     OW25963   1.855   0.984   5.984
 8355SOL    HW125964   1.828   0.987   6.080
 8355SOL    HW225965   1.775   1.002   5.927
 8356SOL     OW25966   0.675   5.007   1.623
 8356SOL    HW125967   0.771   4.984   1.609
 8356SOL    HW225968   0.636   5.038   1.536
 8357SOL     OW25969   3.677   5.537   5.681
 8357SOL    HW125970   3.708   5.626   5.715
 8357SOL    HW225971   3.692   5.468   5.751
 8358SOL     OW25972   0.844   3.090   5.141
 8358SOL    HW125973   0.777   3.137   5.199
 8358SOL    HW225974   0.928   3.077   5.193
 8359SOL     OW25975   2.454   1.209   4.613
 8359SOL    HW125976   2.398   1.185   4.692
 8359SOL    HW225977   2.511   1.288   4.634
 8360SOL     OW25978   4.746   6.751   0.984
 8360SOL    HW125979   4.843   6.748   0.961
 8360SOL    HW225980   4.704   6.663   0.961
 8361SOL     OW25981   2.865   0.201   6.801
 8361SOL    HW125982   2.898   0.111   6.771
 8361SOL    HW225983   2.925   0.236   6.873
 8362SOL     OW25984   5.646   2.267   0.884
 8362SOL    HW125985   5.713   2.328   0.926
 8362SOL    HW225986   5.554   2.305   0.897
 8363SOL     OW25987   4.624   1.802   0.650
 8363SOL    HW125988   4.619   1.709   0.686
 8363SOL    HW225989   4.692   1.854   0.701
 8364SOL     OW25990   0.581   3.405   3.826
 8364SOL    HW125991   0.562   3.311   3.795
 8364SOL    HW225992   0.667   3.406   3.877
 8365SOL     OW25993   1.515   1.703   3.171
 8365SOL    HW125994   1.608   1.724   3.139
 8365SOL    HW225995   1.506   1.605   3.185
 8366SOL     OW25996   3.847   5.237   1.067
 8366SOL    HW125997   3.757   5.260   1.029
 8366SOL    HW225998   3.908   5.316   1.059
 8367SOL     OW25999   3.339   4.927   4.955
 8367SOL    HW126000   3.325   4.830   4.940
 8367SOL    HW226001   3.287   4.979   4.887
 8368SOL     OW26002   1.340   6.184   6.920
 8368SOL    HW126003   1.294   6.160   6.834
 8368SOL    HW226004   1.342   6.104   6.980
 8369SOL     OW26005   0.640   0.930   0.780
 8369SOL    HW126006   0.635   0.916   0.879
 8369SOL    HW226007   0.637   0.842   0.734
 8370SOL     OW26008   2.629   1.240   6.452
 8370SOL    HW126009   2.552   1.296   6.422
 8370SOL    HW226010   2.700   1.242   6.382
 8371SOL     OW26011   1.651   3.514   5.956
 8371SOL    HW126012   1.662   3.531   6.054
 8371SOL    HW226013   1.649   3.602   5.907
 8372SOL     OW26014   2.086   5.670   1.973
 8372SOL    HW126015   2.018   5.743   1.962
 8372SOL    HW226016   2.178   5.709   1.973
 8373SOL     OW26017   1.192   1.484   4.602
 8373SOL    HW126018   1.213   1.515   4.695
 8373SOL    HW226019   1.271   1.496   4.543
 8374SOL     OW26020   0.497   0.448   4.521
 8374SOL    HW126021   0.543   0.456   4.432
 8374SOL    HW226022   0.406   0.411   4.509
 8375SOL     OW26023   3.367   0.256   5.809
 8375SOL    HW126024   3.369   0.333   5.873
 8375SOL    HW226025   3.352   0.171   5.859
 8376SOL     OW26026   1.801   1.177   4.141
 8376SOL    HW126027   1.897   1.189   4.164
 8376SOL    HW226028   1.756   1.267   4.135
 8377SOL     OW26029   5.896   5.399   0.284
 8377SOL    HW126030   5.894   5.456   0.202
 8377SOL    HW226031   5.873   5.456   0.364
 8378SOL     OW26032   5.159   5.105   3.589
 8378SOL    HW126033   5.092   5.179   3.588
 8378SOL    HW226034   5.233   5.129   3.652
 8379SOL     OW26035   4.809   2.305   1.955
 8379SOL    HW126036   4.863   2.389   1.943
 8379SOL    HW226037   4.828   2.242   1.879
 8380SOL     OW26038   0.409   6.756   6.553
 8380SOL    HW126039   0.455   6.690   6.493
 8380SOL    HW226040   0.445   6.847   6.535
 8381SOL     OW26041   6.981   2.357   3.415
 8381SOL    HW126042   6.888   2.321   3.411
 8381SOL    HW226043   6.978   2.457   3.419
 8382SOL     OW26044   2.763   0.332   0.758
 8382SOL    HW126045   2.769   0.278   0.675
 8382SOL    HW226046   2.782   0.428   0.737
 8383SOL     OW26047   2.600   0.379   5.282
 8383SOL    HW126048   2.633   0.292   5.317
 8383SOL    HW226049   2.664   0.452   5.309
 8384SOL     OW26050   6.845   1.201   0.400
 8384SOL    HW126051   6.777   1.146   0.352
 8384SOL    HW226052   6.937   1.178   0.367
 8385SOL     OW26053   4.658   2.281   0.344
 8385SOL    HW126054   4.680   2.216   0.271
 8385SOL    HW226055   4.559   2.288   0.355
 8386SOL     OW26056   1.766   5.387   1.341
 8386SOL    HW126057   1.856   5.424   1.315
 8386SOL    HW226058   1.775   5.337   1.426
 8387SOL     OW26059   1.719   1.405   1.340
 8387SOL    HW126060   1.762   1.317   1.363
 8387SOL    HW226061   1.789   1.470   1.311
 8388SOL     OW26062   1.475   0.302   1.019
 8388SOL    HW126063   1.401   0.313   1.085
 8388SOL    HW226064   1.543   0.238   1.055
 8389SOL     OW26065   0.824   3.396   3.977
 8389SOL    HW126066   0.871   3.429   4.059
 8389SOL    HW226067   0.859   3.444   3.897
 8390SOL     OW26068   4.091   0.309   6.695
 8390SOL    HW126069   4.116   0.320   6.791
 8390SOL    HW226070   4.077   0.212   6.676
 8391SOL     OW26071   5.387   5.112   0.850
 8391SOL    HW126072   5.472   5.091   0.898
 8391SOL    HW226073   5.309   5.091   0.909
 8392SOL     OW26074   6.716   5.321   5.762
 8392SOL    HW126075   6.793   5.259   5.774
 8392SOL    HW226076   6.653   5.284   5.693
 8393SOL     OW26077   0.052   0.421   3.684
 8393SOL    HW126078   0.012   0.330   3.670
 8393SOL    HW226079   0.002   0.468   3.757
 8394SOL     OW26080   0.565   2.040   1.725
 8394SOL    HW126081   0.535   1.973   1.658
 8394SOL    HW226082   0.636   2.001   1.783
 8395SOL     OW26083   1.937   6.777   4.040
 8395SOL    HW126084   2.028   6.752   4.070
 8395SOL    HW226085   1.894   6.699   3.994
 8396SOL     OW26086   4.728   4.326   2.227
 8396SOL    HW126087   4.769   4.417   2.218
 8396SOL    HW226088   4.672   4.307   2.146
 8397SOL     OW26089   2.725   0.185   3.048
 8397SOL    HW126090   2.816   0.159   3.017
 8397SOL    HW226091   2.725   0.281   3.076
 8398SOL     OW26092   3.822   1.862   0.055
 8398SOL    HW126093   3.763   1.840   0.133
 8398SOL    HW226094   3.901   1.801   0.055
 8399SOL     OW26095   6.753   6.878   0.091
 8399SOL    HW126096   6.669   6.885   0.143
 8399SOL    HW226097   6.743   6.808   0.021
 8400SOL     OW26098   1.220   0.538   3.389
 8400SOL    HW126099   1.192   0.442   3.390
 8400SOL    HW226100   1.227   0.569   3.294
 8401SOL     OW26101   3.509   2.914   6.453
 8401SOL    HW126102   3.561   2.998   6.440
 8401SOL    HW226103   3.444   2.904   6.377
 8402SOL     OW26104   3.042   1.967   6.254
 8402SOL    HW126105   3.129   1.976   6.301
 8402SOL    HW226106   3.000   2.057   6.242
 8403SOL     OW26107   0.429   2.264   3.073
 8403SOL    HW126108   0.394   2.275   3.166
 8403SOL    HW226109   0.492   2.187   3.070
 8404SOL     OW26110   5.753   5.744   6.967
 8404SOL    HW126111   5.837   5.799   6.975
 8404SOL    HW226112   5.674   5.802   6.984
 8405SOL     OW26113   1.901   1.501   6.768
 8405SOL    HW126114   1.832   1.572   6.756
 8405SOL    HW226115   1.919   1.488   6.865
 8406SOL     OW26116   3.928   0.527   1.030
 8406SOL    HW126117   3.900   0.621   1.051
 8406SOL    HW226118   3.920   0.471   1.112
 8407SOL     OW26119   5.788   6.041   4.494
 8407SOL    HW126120   5.840   6.126   4.487
 8407SOL    HW226121   5.815   5.980   4.419
 8408SOL     OW26122   4.757   1.857   3.520
 8408SOL    HW126123   4.679   1.888   3.465
 8408SOL    HW226124   4.736   1.767   3.558
 8409SOL     OW26125   6.487   2.759   3.865
 8409SOL    HW126126   6.532   2.730   3.950
 8409SOL    HW226127   6.452   2.678   3.817
 8410SOL     OW26128   4.047   0.357   1.701
 8410SOL    HW126129   3.977   0.406   1.649
 8410SOL    HW226130   4.134   0.405   1.694
 8411SOL     OW26131   1.626   5.587   4.169
 8411SOL    HW126132   1.544   5.530   4.165
 8411SOL    HW226133   1.650   5.604   4.264
 8412SOL     OW26134   4.404   1.740   1.703
 8412SOL    HW126135   4.314   1.776   1.676
 8412SOL    HW226136   4.459   1.725   1.621
 8413SOL     OW26137   5.257   4.316   0.364
 8413SOL    HW126138   5.251   4.219   0.389
 8413SOL    HW226139   5.347   4.352   0.388
 8414SOL     OW26140   4.503   7.021   2.799
 8414SOL    HW126141   4.454   0.080   2.766
 8414SOL    HW226142   4.566   6.990   2.728
 8415SOL     OW26143   6.891   5.445   4.004
 8415SOL    HW126144   6.808   5.402   4.040
 8415SOL    HW226145   6.915   5.404   3.916
 8416SOL     OW26146   4.968   4.688   3.557
 8416SOL    HW126147   5.039   4.628   3.596
 8416SOL    HW226148   4.909   4.635   3.497
 8417SOL     OW26149   1.447   5.587   5.302
 8417SOL    HW126150   1.450   5.632   5.391
 8417SOL    HW226151   1.501   5.503   5.305
 8418SOL     OW26152   5.866   5.489   1.898
 8418SOL    HW126153   5.871   5.580   1.938
 8418SOL    HW226154   5.772   5.469   1.871
 8419SOL     OW26155   4.454   1.054   2.422
 8419SOL    HW126156   4.525   1.076   2.490
 8419SOL    HW226157   4.369   1.101   2.447
 8420SOL     OW26158   3.644   0.076   1.159
 8420SOL    HW126159   3.641   0.142   1.084
 8420SOL    HW226160   3.735   0.077   1.201
 8421SOL     OW26161   2.728   6.277   0.971
 8421SOL    HW126162   2.691   6.335   1.044
 8421SOL    HW226163   2.662   6.272   0.895
 8422SOL     OW26164   4.734   6.531   1.523
 8422SOL    HW126165   4.705   6.439   1.498
 8422SOL    HW226166   4.759   6.583   1.441
 8423SOL     OW26167   4.100   3.711   5.851
 8423SOL    HW126168   4.003   3.731   5.836
 8423SOL    HW226169   4.108   3.637   5.919
 8424SOL     OW26170   2.248   2.780   2.965
 8424SOL    HW126171   2.300   2.749   2.885
 8424SOL    HW226172   2.155   2.805   2.938
 8425SOL     OW26173   6.041   5.728   1.317
 8425SOL    HW126174   6.084   5.704   1.230
 8425SOL    HW226175   5.942   5.723   1.307
 8426SOL     OW26176   3.687   2.923   4.368
 8426SOL    HW126177   3.654   2.924   4.462
 8426SOL    HW226178   3.626   2.867   4.312
 8427SOL     OW26179   1.733   4.016   5.805
 8427SOL    HW126180   1.665   4.054   5.742
 8427SOL    HW226181   1.820   4.064   5.793
 8428SOL     OW26182   6.582   4.368   1.742
 8428SOL    HW126183   6.538   4.416   1.818
 8428SOL    HW226184   6.666   4.324   1.775
 8429SOL     OW26185   2.202   4.717   4.038
 8429SOL    HW126186   2.171   4.709   3.943
 8429SOL    HW226187   2.139   4.668   4.098
 8430SOL     OW26188   4.321   5.690   3.236
 8430SOL    HW126189   4.233   5.667   3.278
 8430SOL    HW226190   4.367   5.605   3.207
 8431SOL     OW26191   2.469   5.109   0.873
 8431SOL    HW126192   2.507   5.098   0.781
 8431SOL    HW226193   2.384   5.163   0.868
 8432SOL     OW26194   4.572   6.159   5.443
 8432SOL    HW126195   4.537   6.220   5.371
 8432SOL    HW226196   4.649   6.107   5.407
 8433SOL     OW26197   6.394   2.882   6.375
 8433SOL    HW126198   6.372   2.938   6.455
 8433SOL    HW226199   6.439   2.798   6.405
 8434SOL     OW26200   2.703   0.047   4.989
 8434SOL    HW126201   2.636   0.121   4.993
 8434SOL    HW226202   2.783   0.072   5.042
 8435SOL     OW26203   4.925   0.900   1.009
 8435SOL    HW126204   4.989   0.825   1.024
 8435SOL    HW226205   4.955   0.980   1.061
 8436SOL     OW26206   3.079   6.521   4.498
 8436SOL    HW126207   3.168   6.494   4.535
 8436SOL    HW226208   3.079   6.512   4.399
 8437SOL     OW26209   2.370   0.209   2.731
 8437SOL    HW126210   2.414   0.270   2.798
 8437SOL    HW226211   2.274   0.196   2.755
 8438SOL     OW26212   3.345   4.917   2.334
 8438SOL    HW126213   3.319   4.927   2.429
 8438SOL    HW226214   3.357   5.007   2.292
 8439SOL     OW26215   6.742   5.196   1.343
 8439SOL    HW126216   6.723   5.099   1.327
 8439SOL    HW226217   6.761   5.242   1.256
 8440SOL     OW26218   0.285   1.360   3.664
 8440SOL    HW126219   0.264   1.455   3.642
 8440SOL    HW226220   0.383   1.352   3.686
 8441SOL     OW26221   6.812   6.610   6.963
 8441SOL    HW126222   6.876   6.537   6.939
 8441SOL    HW226223   6.790   6.604   0.038
 8442SOL     OW26224   3.219   2.703   6.054
 8442SOL    HW126225   3.170   2.725   5.969
 8442SOL    HW226226   3.163   2.642   6.110
 8443SOL     OW26227   1.337   6.521   3.222
 8443SOL    HW126228   1.336   6.620   3.211
 8443SOL    HW226229   1.322   6.498   3.319
 8444SOL     OW26230   3.457   5.817   3.758
 8444SOL    HW126231   3.501   5.812   3.847
 8444SOL    HW226232   3.504   5.884   3.701
 8445SOL     OW26233   3.624   5.156   1.810
 8445SOL    HW126234   3.550   5.166   1.877
 8445SOL    HW226235   3.677   5.073   1.831
 8446SOL     OW26236   5.334   5.596   0.990
 8446SOL    HW126237   5.267   5.579   1.062
 8446SOL    HW226238   5.290   5.643   0.913
 8447SOL     OW26239   5.827   1.956   2.013
 8447SOL    HW126240   5.770   2.033   2.043
 8447SOL    HW226241   5.782   1.870   2.037
 8448SOL     OW26242   6.059   4.280   4.996
 8448SOL    HW126243   6.093   4.283   4.903
 8448SOL    HW226244   6.124   4.324   5.058
 8449SOL     OW26245   0.126   3.047   4.770
 8449SOL    HW126246   0.105   2.963   4.720
 8449SOL    HW226247   0.047   3.073   4.826
 8450SOL     OW26248   1.317   5.890   1.951
 8450SOL    HW126249   1.342   5.959   1.884
 8450SOL    HW226250   1.398   5.858   2.000
 8451SOL     OW26251   4.685   2.929   0.293
 8451SOL    HW126252   4.624   2.999   0.330
 8451SOL    HW226253   4.765   2.920   0.353
 8452SOL     OW26254   0.190   0.341   1.404
 8452SOL    HW126255   0.179   0.416   1.338
 8452SOL    HW226256   0.276   0.353   1.454
 8453SOL     OW26257   6.317   4.327   6.314
 8453SOL    HW126258   6.345   4.266   6.389
 8453SOL    HW226259   6.251   4.280   6.256
 8454SOL     OW26260   1.057   5.728   0.833
 8454SOL    HW126261   1.144   5.683   0.855
 8454SOL    HW226262   0.982   5.665   0.853
 8455SOL     OW26263   4.942   2.006   1.100
 8455SOL    HW126264   4.852   1.989   1.058
 8455SOL    HW226265   4.949   1.952   1.185
 8456SOL     OW26266   5.255   4.389   3.252
 8456SOL    HW126267   5.177   4.418   3.196
 8456SOL    HW226268   5.301   4.469   3.289
 8457SOL     OW26269   6.650   6.943   5.748
 8457SOL    HW126270   6.603   6.892   5.676
 8457SOL    HW226271   6.675   6.882   5.822
 8458SOL     OW26272   2.412   0.924   6.557
 8458SOL    HW126273   2.507   0.922   6.591
 8458SOL    HW226274   2.353   0.877   6.623
 8459SOL     OW26275   3.094   0.068   0.895
 8459SOL    HW126276   3.001   0.105   0.896
 8459SOL    HW226277   3.124   0.052   0.989
 8460SOL     OW26278   4.129   2.424   5.898
 8460SOL    HW126279   4.220   2.408   5.936
 8460SOL    HW226280   4.121   2.520   5.871
 8461SOL     OW26281   0.960   4.270   2.123
 8461SOL    HW126282   0.888   4.338   2.136
 8461SOL    HW226283   1.047   4.317   2.109
 8462SOL     OW26284   3.690   2.428   0.406
 8462SOL    HW126285   3.720   2.364   0.335
 8462SOL    HW226286   3.753   2.425   0.484
 8463SOL     OW26287   6.918   0.844   0.321
 8463SOL    HW126288   7.008   0.871   0.286
 8463SOL    HW226289   6.911   0.744   0.320
 8464SOL     OW26290   6.650   4.558   5.280
 8464SOL    HW126291   6.592   4.521   5.353
 8464SOL    HW226292   6.675   4.484   5.218
 8465SOL     OW26293   3.344   2.380   1.026
 8465SOL    HW126294   3.303   2.467   1.057
 8465SOL    HW226295   3.362   2.322   1.105
 8466SOL     OW26296   5.966   6.606   5.445
 8466SOL    HW126297   5.965   6.601   5.545
 8466SOL    HW226298   5.890   6.551   5.409
 8467SOL     OW26299   3.723   0.830   1.173
 8467SOL    HW126300   3.773   0.879   1.101
 8467SOL    HW226301   3.758   0.857   1.263
 8468SOL     OW26302   4.778   3.083   6.995
 8468SOL    HW126303   4.721   3.115   0.049
 8468SOL    HW226304   4.785   3.155   6.926
 8469SOL     OW26305   2.517   1.608   5.684
 8469SOL    HW126306   2.564   1.694   5.702
 8469SOL    HW226307   2.458   1.618   5.603
 8470SOL     OW26308   1.183   5.039   6.972
 8470SOL    HW126309   1.211   5.134   6.963
 8470SOL    HW226310   1.091   5.028   6.934
 8471SOL     OW26311   4.063   0.322   5.687
 8471SOL    HW126312   4.004   0.384   5.635
 8471SOL    HW226313   4.065   0.350   5.783
 8472SOL     OW26314   6.075   0.616   5.376
 8472SOL    HW126315   6.053   0.518   5.375
 8472SOL    HW226316   6.003   0.667   5.328
 8473SOL     OW26317   6.263   5.536   0.824
 8473SOL    HW126318   6.171   5.503   0.846
 8473SOL    HW226319   6.324   5.457   0.814
 8474SOL     OW26320   3.575   3.557   1.773
 8474SOL    HW126321   3.548   3.514   1.859
 8474SOL    HW226322   3.517   3.523   1.699
 8475SOL     OW26323   0.061   2.549   3.073
 8475SOL    HW126324   0.105   2.508   3.153
 8475SOL    HW226325   0.088   2.645   3.067
 8476SOL     OW26326   6.781   1.888   0.915
 8476SOL    HW126327   6.826   1.924   0.833
 8476SOL    HW226328   6.708   1.825   0.889
 8477SOL     OW26329   4.530   6.585   2.625
 8477SOL    HW126330   4.455   6.605   2.689
 8477SOL    HW226331   4.560   6.491   2.639
 8478SOL     OW26332   1.295   0.623   5.300
 8478SOL    HW126333   1.234   0.617   5.221
 8478SOL    HW226334   1.264   0.695   5.361
 8479SOL     OW26335   1.422   3.798   1.093
 8479SOL    HW126336   1.415   3.830   0.998
 8479SOL    HW226337   1.467   3.708   1.094
 8480SOL     OW26338   4.986   3.236   6.850
 8480SOL    HW126339   5.085   3.227   6.842
 8480SOL    HW226340   4.942   3.157   6.807
 8481SOL     OW26341   4.381   1.871   4.965
 8481SOL    HW126342   4.448   1.799   4.976
 8481SOL    HW226343   4.402   1.924   4.883
 8482SOL     OW26344   5.144   0.194   2.388
 8482SOL    HW126345   5.113   0.176   2.482
 8482SOL    HW226346   5.149   0.293   2.373
 8483SOL     OW26347   3.307   5.832   2.422
 8483SOL    HW126348   3.250   5.899   2.375
 8483SOL    HW226349   3.287   5.835   2.520
 8484SOL     OW26350   6.678   6.603   3.940
 8484SOL    HW126351   6.768   6.591   3.982
 8484SOL    HW226352   6.627   6.673   3.990
 8485SOL     OW26353   3.701   2.610   6.936
 8485SOL    HW126354   3.719   2.516   6.962
 8485SOL    HW226355   3.775   2.669   6.968
 8486SOL     OW26356   2.275   1.342   2.705
 8486SOL    HW126357   2.272   1.442   2.711
 8486SOL    HW226358   2.336   1.316   2.630
 8487SOL     OW26359   6.061   2.520   6.096
 8487SOL    HW126360   5.987   2.573   6.054
 8487SOL    HW226361   6.093   2.567   6.179
 8488SOL     OW26362   5.436   6.545   1.903
 8488SOL    HW126363   5.375   6.547   1.982
 8488SOL    HW226364   5.438   6.636   1.861
 8489SOL     OW26365   5.973   1.613   1.817
 8489SOL    HW126366   5.987   1.679   1.744
 8489SOL    HW226367   6.054   1.608   1.875
 8490SOL     OW26368   3.169   6.680   5.765
 8490SOL    HW126369   3.167   6.637   5.856
 8490SOL    HW226370   3.252   6.653   5.717
 8491SOL     OW26371   1.957   6.102   1.958
 8491SOL    HW126372   1.929   6.139   1.869
 8491SOL    HW226373   1.899   6.139   2.030
 8492SOL     OW26374   5.772   4.521   5.025
 8492SOL    HW126375   5.802   4.477   4.940
 8492SOL    HW226376   5.843   4.585   5.056
 8493SOL     OW26377   2.013   2.573   5.998
 8493SOL    HW126378   2.040   2.499   5.937
 8493SOL    HW226379   2.058   2.560   6.087
 8494SOL     OW26380   4.205   5.577   1.837
 8494SOL    HW126381   4.181   5.670   1.863
 8494SOL    HW226382   4.170   5.557   1.746
 8495SOL     OW26383   0.309   4.922   1.416
 8495SOL    HW126384   0.313   4.827   1.383
 8495SOL    HW226385   0.283   4.922   1.512
 8496SOL     OW26386   0.071   1.393   2.709
 8496SOL    HW126387   0.142   1.460   2.733
 8496SOL    HW226388   7.003   1.436   2.717
 8497SOL     OW26389   0.126   1.626   3.668
 8497SOL    HW126390   0.062   1.559   3.630
 8497SOL    HW226391   0.079   1.684   3.734
 8498SOL     OW26392   6.592   6.537   3.038
 8498SOL    HW126393   6.559   6.494   3.123
 8498SOL    HW226394   6.562   6.632   3.035
 8499SOL     OW26395   1.554   3.750   6.756
 8499SOL    HW126396   1.588   3.690   6.828
 8499SOL    HW226397   1.629   3.773   6.694
 8500SOL     OW26398   1.863   6.135   5.972
 8500SOL    HW126399   1.863   6.155   5.874
 8500SOL    HW226400   1.769   6.132   6.006
 8501SOL     OW26401   0.108   2.886   5.682
 8501SOL    HW126402   0.194   2.904   5.730
 8501SOL    HW226403   0.120   2.904   5.584
 8502SOL     OW26404   0.627   3.035   1.538
 8502SOL    HW126405   0.678   3.121   1.538
 8502SOL    HW226406   0.567   3.032   1.618
 8503SOL     OW26407   0.778   5.921   4.604
 8503SOL    HW126408   0.743   5.834   4.639
 8503SOL    HW226409   0.829   5.967   4.675
 8504SOL     OW26410   1.739   5.184   2.133
 8504SOL    HW126411   1.750   5.177   2.033
 8504SOL    HW226412   1.769   5.274   2.163
 8505SOL     OW26413   6.269   3.746   3.351
 8505SOL    HW126414   6.174   3.732   3.321
 8505SOL    HW226415   6.317   3.658   3.351
 8506SOL     OW26416   1.172   1.507   6.597
 8506SOL    HW126417   1.179   1.540   6.692
 8506SOL    HW226418   1.103   1.560   6.549
 8507SOL     OW26419   3.768   6.723   5.429
 8507SOL    HW126420   3.799   6.771   5.347
 8507SOL    HW226421   3.689   6.770   5.468
 8508SOL     OW26422   4.394   1.928   5.301
 8508SOL    HW126423   4.359   1.835   5.289
 8508SOL    HW226424   4.319   1.993   5.293
 8509SOL     OW26425   5.379   0.635   3.361
 8509SOL    HW126426   5.346   0.677   3.276
 8509SOL    HW226427   5.472   0.667   3.379
 8510SOL     OW26428   5.987   4.235   2.935
 8510SOL    HW126429   5.944   4.205   2.850
 8510SOL    HW226430   5.950   4.324   2.962
 8511SOL     OW26431   6.213   3.651   2.769
 8511SOL    HW126432   6.211   3.750   2.753
 8511SOL    HW226433   6.152   3.629   2.846
 8512SOL     OW26434   3.003   0.643   2.861
 8512SOL    HW126435   2.931   0.682   2.803
 8512SOL    HW226436   3.040   0.714   2.920
 8513SOL     OW26437   0.123   4.877   0.858
 8513SOL    HW126438   0.090   4.915   0.771
 8513SOL    HW226439   0.051   4.822   0.899
 8514SOL     OW26440   2.438   0.708   4.049
 8514SOL    HW126441   2.477   0.710   3.957
 8514SOL    HW226442   2.460   0.793   4.097
 8515SOL     OW26443   4.963   2.594   1.190
 8515SOL    HW126444   4.991   2.597   1.094
 8515SOL    HW226445   4.864   2.611   1.196
 8516SOL     OW26446   0.084   1.690   2.210
 8516SOL    HW126447   0.150   1.744   2.157
 8516SOL    HW226448   0.055   1.611   2.156
 8517SOL     OW26449   0.642   2.838   5.363
 8517SOL    HW126450   0.719   2.780   5.389
 8517SOL    HW226451   0.628   2.908   5.433
 8518SOL     OW26452   4.786   4.043   6.495
 8518SOL    HW126453   4.849   4.025   6.420
 8518SOL    HW226454   4.835   4.088   6.570
 8519SOL     OW26455   1.429   5.323   2.203
 8519SOL    HW126456   1.377   5.322   2.118
 8519SOL    HW226457   1.515   5.274   2.190
 8520SOL     OW26458   3.848   1.156   0.906
 8520SOL    HW126459   3.927   1.210   0.875
 8520SOL    HW226460   3.869   1.116   0.995
 8521SOL     OW26461   1.942   5.568   5.848
 8521SOL    HW126462   1.961   5.665   5.831
 8521SOL    HW226463   1.859   5.541   5.799
 8522SOL     OW26464   0.881   5.561   1.954
 8522SOL    HW126465   0.956   5.627   1.958
 8522SOL    HW226466   0.910   5.482   1.899
 8523SOL     OW26467   3.015   6.376   0.035
 8523SOL    HW126468   2.946   6.306   0.015
 8523SOL    HW226469   3.007   6.450   6.991
 8524SOL     OW26470   1.347   2.726   4.618
 8524SOL    HW126471   1.414   2.652   4.627
 8524SOL    HW226472   1.369   2.799   4.682
 8525SOL     OW26473   5.794   4.546   3.779
 8525SOL    HW126474   5.819   4.479   3.709
 8525SOL    HW226475   5.875   4.568   3.833
 8526SOL     OW26476   2.575   4.098   0.860
 8526SOL    HW126477   2.650   4.045   0.820
 8526SOL    HW226478   2.610   4.185   0.893
 8527SOL     OW26479   3.383   0.290   4.998
 8527SOL    HW126480   3.474   0.268   4.963
 8527SOL    HW226481   3.331   0.337   4.927
 8528SOL     OW26482   4.760   3.081   6.149
 8528SOL    HW126483   4.747   2.994   6.102
 8528SOL    HW226484   4.690   3.092   6.220
 8529SOL     OW26485   1.486   6.944   0.104
 8529SOL    HW126486   1.410   6.894   0.063
 8529SOL    HW226487   1.546   6.979   0.033
 8530SOL     OW26488   0.977   5.028   6.060
 8530SOL    HW126489   0.967   5.074   5.972
 8530SOL    HW226490   0.952   5.091   6.133
 8531SOL     OW26491   5.764   4.703   2.974
 8531SOL    HW126492   5.809   4.790   2.953
 8531SOL    HW226493   5.760   4.646   2.892
 8532SOL     OW26494   4.158   5.190   5.118
 8532SOL    HW126495   4.066   5.202   5.157
 8532SOL    HW226496   4.151   5.173   5.020
 8533SOL     OW26497   1.749   0.631   5.622
 8533SOL    HW126498   1.752   0.565   5.547
 8533SOL    HW226499   1.663   0.620   5.672
 8534SOL     OW26500   6.915   3.968   3.466
 8534SOL    HW126501   6.993   3.906   3.463
 8534SOL    HW226502   6.916   4.019   3.553
 8535SOL     OW26503   0.583   2.112   5.006
 8535SOL    HW126504   0.614   2.018   4.990
 8535SOL    HW226505   0.653   2.176   4.974
 8536SOL     OW26506   6.052   1.993   4.897
 8536SOL    HW126507   6.021   2.032   4.984
 8536SOL    HW226508   6.063   1.894   4.908
 8537SOL     OW26509   5.751   1.973   0.952
 8537SOL    HW126510   5.694   1.986   1.033
 8537SOL    HW226511   5.736   2.048   0.888
 8538SOL     OW26512   0.313   0.551   4.877
 8538SOL    HW126513   0.226   0.588   4.910
 8538SOL    HW226514   0.340   0.600   4.794
 8539SOL     OW26515   6.075   2.265   1.941
 8539SOL    HW126516   6.119   2.354   1.926
 8539SOL    HW226517   6.142   2.192   1.927
 8540SOL     OW26518   3.505   1.439   0.678
 8540SOL    HW126519   3.580   1.485   0.726
 8540SOL    HW226520   3.424   1.436   0.737
 8541SOL     OW26521   2.540   1.837   4.583
 8541SOL    HW126522   2.563   1.745   4.551
 8541SOL    HW226523   2.618   1.898   4.570
 8542SOL     OW26524   2.817   4.404   6.675
 8542SOL    HW126525   2.854   4.388   6.767
 8542SOL    HW226526   2.874   4.470   6.627
 8543SOL     OW26527   2.795   1.651   5.431
 8543SOL    HW126528   2.777   1.697   5.519
 8543SOL    HW226529   2.891   1.663   5.407
 8544SOL     OW26530   5.232   3.143   4.761
 8544SOL    HW126531   5.221   3.052   4.801
 8544SOL    HW226532   5.329   3.158   4.741
 8545SOL     OW26533   3.352   6.607   4.890
 8545SOL    HW126534   3.353   6.600   4.990
 8545SOL    HW226535   3.315   6.696   4.863
 8546SOL     OW26536   6.227   0.431   1.310
 8546SOL    HW126537   6.265   0.376   1.384
 8546SOL    HW226538   6.300   0.457   1.247
 8547SOL     OW26539   0.171   0.403   5.413
 8547SOL    HW126540   0.179   0.305   5.394
 8547SOL    HW226541   0.136   0.450   5.333
 8548SOL     OW26542   0.346   3.177   5.547
 8548SOL    HW126543   0.272   3.136   5.492
 8548SOL    HW226544   0.307   3.244   5.609
 8549SOL     OW26545   0.805   2.474   3.937
 8549SOL    HW126546   0.758   2.439   4.018
 8549SOL    HW226547   0.758   2.441   3.855
 8550SOL     OW26548   1.210   3.827   6.026
 8550SOL    HW126549   1.176   3.874   6.107
 8550SOL    HW226550   1.228   3.894   5.953
 8551SOL     OW26551   3.109   2.919   0.027
 8551SOL    HW126552   3.192   2.935   6.996
 8551SOL    HW226553   3.134   2.894   0.120
 8552SOL     OW26554   2.779   0.322   2.392
 8552SOL    HW126555   2.726   0.362   2.317
 8552SOL    HW226556   2.725   0.323   2.476
 8553SOL     OW26557   4.353   4.377   0.304
 8553SOL    HW126558   4.287   4.412   0.370
 8553SOL    HW226559   4.394   4.293   0.338
 8554SOL     OW26560   0.813   5.879   1.402
 8554SOL    HW126561   0.775   5.947   1.338
 8554SOL    HW226562   0.779   5.788   1.378
 8555SOL     OW26563   3.795   1.717   3.234
 8555SOL    HW126564   3.727   1.643   3.241
 8555SOL    HW226565   3.777   1.770   3.151
 8556SOL     OW26566   1.740   6.229   5.595
 8556SOL    HW126567   1.826   6.278   5.582
 8556SOL    HW226568   1.759   6.132   5.609
 8557SOL     OW26569   6.812   0.821   1.052
 8557SOL    HW126570   6.879   0.811   0.979
 8557SOL    HW226571   6.819   0.912   1.093
 8558SOL     OW26572   1.953   5.465   3.167
 8558SOL    HW126573   1.932   5.441   3.072
 8558SOL    HW226574   1.953   5.382   3.223
 8559SOL     OW26575   1.442   6.089   2.568
 8559SOL    HW126576   1.398   6.126   2.649
 8559SOL    HW226577   1.394   6.120   2.486
 8560SOL     OW26578   1.015   5.465   1.322
 8560SOL    HW126579   1.010   5.536   1.392
 8560SOL    HW226580   1.109   5.457   1.289
 8561SOL     OW26581   3.751   6.866   3.796
 8561SOL    HW126582   3.725   6.962   3.809
 8561SOL    HW226583   3.669   6.810   3.789
 8562SOL     OW26584   3.966   6.989   7.016
 8562SOL    HW126585   4.039   7.008   0.059
 8562SOL    HW226586   3.890   6.945   0.041
 8563SOL     OW26587   0.907   4.705   1.832
 8563SOL    HW126588   0.860   4.654   1.904
 8563SOL    HW226589   0.965   4.775   1.873
 8564SOL     OW26590   3.452   6.295   5.769
 8564SOL    HW126591   3.439   6.212   5.715
 8564SOL    HW226592   3.546   6.327   5.757
 8565SOL     OW26593   3.873   5.703   1.277
 8565SOL    HW126594   3.849   5.608   1.299
 8565SOL    HW226595   3.942   5.704   1.204
 8566SOL     OW26596   1.949   0.220   1.990
 8566SOL    HW126597   2.018   0.161   2.031
 8566SOL    HW226598   1.870   0.166   1.963
 8567SOL     OW26599   1.224   1.962   2.008
 8567SOL    HW126600   1.194   2.046   1.963
 8567SOL    HW226601   1.205   1.968   2.106
 8568SOL     OW26602   6.120   1.522   0.632
 8568SOL    HW126603   6.033   1.479   0.653
 8568SOL    HW226604   6.138   1.514   0.534
 8569SOL     OW26605   5.420   1.749   5.990
 8569SOL    HW126606   5.328   1.713   5.971
 8569SOL    HW226607   5.482   1.673   6.011
 8570SOL     OW26608   1.316   1.866   4.659
 8570SOL    HW126609   1.262   1.820   4.729
 8570SOL    HW226610   1.282   1.959   4.646
 8571SOL     OW26611   0.771   0.093   4.568
 8571SOL    HW126612   0.850   0.152   4.552
 8571SOL    HW226613   0.728   0.119   4.654
 8572SOL     OW26614   1.876   4.215   4.987
 8572SOL    HW126615   1.847   4.131   4.942
 8572SOL    HW226616   1.795   4.267   5.017
 8573SOL     OW26617   3.132   5.578   6.301
 8573SOL    HW126618   3.193   5.629   6.362
 8573SOL    HW226619   3.045   5.626   6.294
 8574SOL     OW26620   6.289   6.618   6.129
 8574SOL    HW126621   6.374   6.596   6.178
 8574SOL    HW226622   6.229   6.539   6.129
 8575SOL     OW26623   3.270   1.489   3.429
 8575SOL    HW126624   3.278   1.588   3.441
 8575SOL    HW226625   3.340   1.443   3.483
 8576SOL     OW26626   1.873   4.901   4.002
 8576SOL    HW126627   1.879   4.911   3.902
 8576SOL    HW226628   1.885   4.805   4.026
 8577SOL     OW26629   1.432   0.436   6.107
 8577SOL    HW126630   1.524   0.399   6.118
 8577SOL    HW226631   1.397   0.411   6.017
 8578SOL     OW26632   6.706   4.905   5.847
 8578SOL    HW126633   6.695   4.911   5.946
 8578SOL    HW226634   6.747   4.817   5.823
 8579SOL     OW26635   1.080   5.754   1.934
 8579SOL    HW126636   1.169   5.774   1.976
 8579SOL    HW226637   1.042   5.837   1.894
 8580SOL     OW26638   2.198   5.819   0.965
 8580SOL    HW126639   2.270   5.755   0.991
 8580SOL    HW226640   2.133   5.773   0.905
 8581SOL     OW26641   4.126   4.831   1.349
 8581SOL    HW126642   4.140   4.732   1.348
 8581SOL    HW226643   4.159   4.871   1.263
 8582SOL     OW26644   4.632   4.821   5.588
 8582SOL    HW126645   4.682   4.892   5.537
 8582SOL    HW226646   4.535   4.829   5.568
 8583SOL     OW26647   2.914   6.745   2.779
 8583SOL    HW126648   2.827   6.795   2.783
 8583SOL    HW226649   2.899   6.649   2.803
 8584SOL     OW26650   0.499   6.834   5.382
 8584SOL    HW126651   0.594   6.839   5.350
 8584SOL    HW226652   0.479   6.740   5.411
 8585SOL     OW26653   6.134   1.534   0.940
 8585SOL    HW126654   6.052   1.493   0.980
 8585SOL    HW226655   6.135   1.517   0.842
 8586SOL     OW26656   3.877   6.812   1.582
 8586SOL    HW126657   3.849   6.735   1.525
 8586SOL    HW226658   3.970   6.840   1.557
 8587SOL     OW26659   1.076   1.140   5.082
 8587SOL    HW126660   1.047   1.143   5.177
 8587SOL    HW226661   1.174   1.156   5.075
 8588SOL     OW26662   4.863   1.121   6.961
 8588SOL    HW126663   4.777   1.072   6.950
 8588SOL    HW226664   4.921   1.107   6.881
 8589SOL     OW26665   6.692   2.543   5.439
 8589SOL    HW126666   6.626   2.499   5.378
 8589SOL    HW226667   6.651   2.623   5.482
 8590SOL     OW26668   0.499   1.114   2.839
 8590SOL    HW126669   0.450   1.068   2.765
 8590SOL    HW226670   0.588   1.145   2.805
 8591SOL     OW26671   0.241   4.070   0.586
 8591SOL    HW126672   0.231   4.052   0.488
 8591SOL    HW226673   0.281   3.990   0.630
 8592SOL     OW26674   0.081   2.181   0.005
 8592SOL    HW126675   0.005   2.242   0.027
 8592SOL    HW226676   0.167   2.228   0.019
 8593SOL     OW26677   2.838   1.065   6.260
 8593SOL    HW126678   2.866   1.016   6.177
 8593SOL    HW226679   2.802   1.155   6.235
 8594SOL     OW26680   6.193   2.672   5.863
 8594SOL    HW126681   6.180   2.659   5.962
 8594SOL    HW226682   6.222   2.766   5.845
 8595SOL     OW26683   6.264   1.074   3.567
 8595SOL    HW126684   6.330   1.116   3.629
 8595SOL    HW226685   6.185   1.135   3.555
 8596SOL     OW26686   1.547   4.750   3.357
 8596SOL    HW126687   1.460   4.750   3.405
 8596SOL    HW226688   1.585   4.657   3.358
 8597SOL     OW26689   5.436   2.063   1.142
 8597SOL    HW126690   5.473   2.060   1.235
 8597SOL    HW226691   5.342   2.095   1.145
 8598SOL     OW26692   5.735   0.035   5.818
 8598SOL    HW126693   5.697   6.981   5.869
 8598SOL    HW226694   5.721   0.120   5.870
 8599SOL     OW26695   1.153   2.474   4.728
 8599SOL    HW126696   1.215   2.495   4.804
 8599SOL    HW226697   1.058   2.487   4.758
 8600SOL     OW26698   5.332   3.376   0.320
 8600SOL    HW126699   5.385   3.371   0.405
 8600SOL    HW226700   5.277   3.459   0.320
 8601SOL     OW26701   0.420   2.158   3.822
 8601SOL    HW126702   0.475   2.075   3.814
 8601SOL    HW226703   0.323   2.134   3.821
 8602SOL     OW26704   2.713   6.419   2.058
 8602SOL    HW126705   2.763   6.416   1.972
 8602SOL    HW226706   2.758   6.359   2.125
 8603SOL     OW26707   5.379   0.140   0.240
 8603SOL    HW126708   5.447   0.080   0.282
 8603SOL    HW226709   5.299   0.087   0.213
 8604SOL     OW26710   0.990   2.468   6.000
 8604SOL    HW126711   1.076   2.418   5.992
 8604SOL    HW226712   0.992   2.523   6.083
 8605SOL     OW26713   1.465   5.218   3.345
 8605SOL    HW126714   1.368   5.203   3.360
 8605SOL    HW226715   1.518   5.153   3.400
 8606SOL     OW26716   2.233   2.374   7.009
 8606SOL    HW126717   2.143   2.375   6.967
 8606SOL    HW226718   2.303   2.368   6.938
 8607SOL     OW26719   2.562   4.468   6.554
 8607SOL    HW126720   2.658   4.477   6.583
 8607SOL    HW226721   2.560   4.431   6.461
 8608SOL     OW26722   2.087   4.488   2.482
 8608SOL    HW126723   2.077   4.389   2.474
 8608SOL    HW226724   2.159   4.519   2.419
 8609SOL     OW26725   5.241   0.280   3.757
 8609SOL    HW126726   5.157   0.227   3.764
 8609SOL    HW226727   5.260   0.300   3.661
 8610SOL     OW26728   6.552   0.598   3.352
 8610SOL    HW126729   6.620   0.592   3.279
 8610SOL    HW226730   6.473   0.542   3.329
 8611SOL     OW26731   3.034   1.534   4.148
 8611SOL    HW126732   3.014   1.490   4.236
 8611SOL    HW226733   3.124   1.504   4.116
 8612SOL     OW26734   2.396   3.402   1.430
 8612SOL    HW126735   2.342   3.418   1.513
 8612SOL    HW226736   2.453   3.482   1.412
 8613SOL     OW26737   3.202   1.950   1.223
 8613SOL    HW126738   3.114   1.926   1.264
 8613SOL    HW226739   3.229   1.879   1.158
 8614SOL     OW26740   1.338   2.930   3.037
 8614SOL    HW126741   1.264   2.864   3.024
 8614SOL    HW226742   1.367   2.931   3.132
 8615SOL     OW26743   4.619   2.125   5.361
 8615SOL    HW126744   4.682   2.180   5.416
 8615SOL    HW226745   4.659   2.034   5.345
 8616SOL     OW26746   3.041   4.788   1.774
 8616SOL    HW126747   3.029   4.878   1.816
 8616SOL    HW226748   2.996   4.719   1.829
 8617SOL     OW26749   6.111   1.119   3.840
 8617SOL    HW126750   6.025   1.125   3.891
 8617SOL    HW226751   6.110   1.036   3.783
 8618SOL     OW26752   6.316   4.360   1.225
 8618SOL    HW126753   6.287   4.266   1.244
 8618SOL    HW226754   6.299   4.382   1.129
 8619SOL     OW26755   4.108   5.196   2.937
 8619SOL    HW126756   4.198   5.194   2.892
 8619SOL    HW226757   4.052   5.120   2.904
 8620SOL     OW26758   2.277   6.412   4.199
 8620SOL    HW126759   2.250   6.421   4.295
 8620SOL    HW226760   2.195   6.399   4.143
 8621SOL     OW26761   4.938   2.816   2.357
 8621SOL    HW126762   4.986   2.806   2.270
 8621SOL    HW226763   4.914   2.912   2.372
 8622SOL     OW26764   5.311   4.318   1.609
 8622SOL    HW126765   5.247   4.375   1.558
 8622SOL    HW226766   5.403   4.358   1.602
 8623SOL     OW26767   0.679   4.355   5.109
 8623SOL    HW126768   0.687   4.359   5.009
 8623SOL    HW226769   0.623   4.432   5.141
 8624SOL     OW26770   2.980   3.978   5.938
 8624SOL    HW126771   3.009   3.942   5.849
 8624SOL    HW226772   2.987   4.078   5.937
 8625SOL     OW26773   4.757   0.485   5.235
 8625SOL    HW126774   4.699   0.434   5.298
 8625SOL    HW226775   4.838   0.518   5.283
 8626SOL     OW26776   3.695   3.115   6.918
 8626SOL    HW126777   3.635   3.070   6.984
 8626SOL    HW226778   3.756   3.047   6.877
 8627SOL     OW26779   2.650   1.849   2.036
 8627SOL    HW126780   2.621   1.915   2.105
 8627SOL    HW226781   2.574   1.830   1.974
 8628SOL     OW26782   6.189   6.779   6.815
 8628SOL    HW126783   6.174   6.873   6.844
 8628SOL    HW226784   6.276   6.746   6.852
 8629SOL     OW26785   1.689   6.753   5.415
 8629SOL    HW126786   1.764   6.711   5.364
 8629SOL    HW226787   1.660   6.837   5.369
 8630SOL     OW26788   4.994   3.626   4.046
 8630SOL    HW126789   5.000   3.597   3.951
 8630SOL    HW226790   4.941   3.559   4.098
 8631SOL     OW26791   1.218   5.709   6.166
 8631SOL    HW126792   1.124   5.689   6.140
 8631SOL    HW226793   1.246   5.648   6.240
 8632SOL     OW26794   3.850   4.440   5.440
 8632SOL    HW126795   3.907   4.477   5.513
 8632SOL    HW226796   3.904   4.378   5.383
 8633SOL     OW26797   5.397   2.853   5.846
 8633SOL    HW126798   5.387   2.866   5.747
 8633SOL    HW226799   5.334   2.915   5.894
 8634SOL     OW26800   4.795   4.225   6.739
 8634SOL    HW126801   4.717   4.246   6.681
 8634SOL    HW226802   4.779   4.139   6.787
 8635SOL     OW26803   5.699   2.921   6.690
 8635SOL    HW126804   5.722   2.839   6.742
 8635SOL    HW226805   5.753   2.923   6.605
 8636SOL     OW26806   5.343   6.213   1.102
 8636SOL    HW126807   5.344   6.126   1.053
 8636SOL    HW226808   5.396   6.203   1.187
 8637SOL     OW26809   2.139   1.763   6.913
 8637SOL    HW126810   2.119   1.756   6.815
 8637SOL    HW226811   2.055   1.786   6.963
 8638SOL     OW26812   3.959   2.443   5.444
 8638SOL    HW126813   4.001   2.446   5.353
 8638SOL    HW226814   4.002   2.371   5.498
 8639SOL     OW26815   4.234   3.479   6.833
 8639SOL    HW126816   4.332   3.463   6.824
 8639SOL    HW226817   4.198   3.424   6.909
 8640SOL     OW26818   3.829   3.956   0.956
 8640SOL    HW126819   3.850   4.051   0.931
 8640SOL    HW226820   3.898   3.895   0.918
 8641SOL     OW26821   4.245   4.852   4.255
 8641SOL    HW126822   4.159   4.898   4.234
 8641SOL    HW226823   4.315   4.920   4.276
 8642SOL     OW26824   1.100   7.016   3.460
 8642SOL    HW126825   1.052   6.952   3.400
 8642SOL    HW226826   1.115   6.973   3.549
 8643SOL     OW26827   1.979   0.437   6.942
 8643SOL    HW126828   1.929   0.482   6.868
 8643SOL    HW226829   1.957   0.482   0.006
 8644SOL     OW26830   5.441   2.699   6.079
 8644SOL    HW126831   5.395   2.731   5.996
 8644SOL    HW226832   5.451   2.775   6.143
 8645SOL     OW26833   4.440   4.874   1.736
 8645SOL    HW126834   4.497   4.938   1.788
 8645SOL    HW226835   4.498   4.811   1.686
 8646SOL     OW26836   0.535   1.533   6.800
 8646SOL    HW126837   0.631   1.559   6.790
 8646SOL    HW226838   0.485   1.604   6.850
 8647SOL     OW26839   2.603   5.269   0.355
 8647SOL    HW126840   2.551   5.335   0.302
 8647SOL    HW226841   2.699   5.273   0.328
 8648SOL     OW26842   6.272   0.333   0.765
 8648SOL    HW126843   6.330   0.313   0.686
 8648SOL    HW226844   6.282   0.429   0.789
 8649SOL     OW26845   5.975   6.008   0.441
 8649SOL    HW126846   5.934   6.081   0.495
 8649SOL    HW226847   5.996   5.930   0.500
 8650SOL     OW26848   1.753   6.611   4.951
 8650SOL    HW126849   1.762   6.710   4.941
 8650SOL    HW226850   1.706   6.591   5.037
 8651SOL     OW26851   3.816   1.457   1.127
 8651SOL    HW126852   3.786   1.366   1.152
 8651SOL    HW226853   3.754   1.496   1.059
 8652SOL     OW26854   0.769   4.848   3.415
 8652SOL    HW126855   0.780   4.831   3.513
 8652SOL    HW226856   0.701   4.920   3.401
 8653SOL     OW26857   6.633   1.391   6.030
 8653SOL    HW126858   6.725   1.355   6.018
 8653SOL    HW226859   6.596   1.360   6.118
 8654SOL     OW26860   0.231   4.909   1.682
 8654SOL    HW126861   0.221   4.830   1.743
 8654SOL    HW226862   0.243   4.992   1.736
 8655SOL     OW26863   5.610   0.055   4.419
 8655SOL    HW126864   5.691   0.051   4.477
 8655SOL    HW226865   5.537   0.002   4.460
 8656SOL     OW26866   6.212   1.343   2.005
 8656SOL    HW126867   6.201   1.296   2.092
 8656SOL    HW226868   6.308   1.367   1.992
 8657SOL     OW26869   5.803   5.923   0.200
 8657SOL    HW126870   5.848   5.955   0.283
 8657SOL    HW226871   5.711   5.890   0.222
 8658SOL     OW26872   6.740   5.401   0.141
 8658SOL    HW126873   6.720   5.492   0.104
 8658SOL    HW226874   6.764   5.339   0.067
 8659SOL     OW26875   4.957   2.043   2.849
 8659SOL    HW126876   4.955   2.143   2.841
 8659SOL    HW226877   5.003   2.005   2.769
 8660SOL     OW26878   0.122   3.229   2.402
 8660SOL    HW126879   0.166   3.145   2.434
 8660SOL    HW226880   0.023   3.219   2.410
 8661SOL     OW26881   6.209   3.934   2.112
 8661SOL    HW126882   6.191   3.837   2.098
 8661SOL    HW226883   6.196   3.983   2.025
 8662SOL     OW26884   3.952   5.782   2.223
 8662SOL    HW126885   3.930   5.873   2.257
 8662SOL    HW226886   3.877   5.750   2.164
 8663SOL     OW26887   2.723   5.631   2.550
 8663SOL    HW126888   2.823   5.635   2.550
 8663SOL    HW226889   2.686   5.714   2.510
 8664SOL     OW26890   2.308   4.923   1.639
 8664SOL    HW126891   2.252   4.947   1.719
 8664SOL    HW226892   2.389   4.874   1.670
 8665SOL     OW26893   6.218   5.692   4.735
 8665SOL    HW126894   6.305   5.701   4.782
 8665SOL    HW226895   6.179   5.601   4.751
 8666SOL     OW26896   5.404   0.300   4.005
 8666SOL    HW126897   5.424   0.398   4.011
 8666SOL    HW226898   5.362   0.279   3.917
 8667SOL     OW26899   4.889   1.728   4.012
 8667SOL    HW126900   4.797   1.719   4.049
 8667SOL    HW226901   4.956   1.709   4.084
 8668SOL     OW26902   5.244   3.574   4.688
 8668SOL    HW126903   5.211   3.502   4.748
 8668SOL    HW226904   5.334   3.549   4.652
 8669SOL     OW26905   0.341   6.399   6.425
 8669SOL    HW126906   0.246   6.428   6.441
 8669SOL    HW226907   0.386   6.382   6.513
 8670SOL     OW26908   4.578   5.453   5.986
 8670SOL    HW126909   4.627   5.366   5.976
 8670SOL    HW226910   4.593   5.488   6.079
 8671SOL     OW26911   0.566   1.456   2.218
 8671SOL    HW126912   0.476   1.418   2.197
 8671SOL    HW226913   0.573   1.474   2.316
 8672SOL     OW26914   0.567   6.933   3.220
 8672SOL    HW126915   0.628   6.976   3.287
 8672SOL    HW226916   0.496   6.881   3.268
 8673SOL     OW26917   6.352   1.632   0.260
 8673SOL    HW126918   6.269   1.580   0.281
 8673SOL    HW226919   6.327   1.724   0.232
 8674SOL     OW26920   5.889   5.143   3.009
 8674SOL    HW126921   5.839   5.168   3.093
 8674SOL    HW226922   5.850   5.191   2.931
 8675SOL     OW26923   4.663   1.235   5.150
 8675SOL    HW126924   4.577   1.217   5.198
 8675SOL    HW226925   4.646   1.301   5.077
 8676SOL     OW26926   4.933   0.127   2.562
 8676SOL    HW126927   4.898   0.079   2.481
 8676SOL    HW226928   4.908   0.223   2.557
 8677SOL     OW26929   1.568   5.903   5.351
 8677SOL    HW126930   1.584   5.839   5.276
 8677SOL    HW226931   1.534   5.854   5.431
 8678SOL     OW26932   1.064   0.220   0.775
 8678SOL    HW126933   1.011   0.295   0.816
 8678SOL    HW226934   1.006   0.169   0.711
 8679SOL     OW26935   1.372   1.176   3.460
 8679SOL    HW126936   1.287   1.228   3.456
 8679SOL    HW226937   1.438   1.225   3.517
 8680SOL     OW26938   6.077   3.227   7.007
 8680SOL    HW126939   6.162   3.278   7.002
 8680SOL    HW226940   6.009   3.279   0.036
 8681SOL     OW26941   4.607   5.579   1.666
 8681SOL    HW126942   4.664   5.504   1.632
 8681SOL    HW226943   4.555   5.548   1.746
 8682SOL     OW26944   6.639   0.648   1.669
 8682SOL    HW126945   6.584   0.596   1.735
 8682SOL    HW226946   6.722   0.597   1.648
 8683SOL     OW26947   1.588   2.486   5.808
 8683SOL    HW126948   1.547   2.416   5.867
 8683SOL    HW226949   1.545   2.482   5.718
 8684SOL     OW26950   6.669   2.938   4.740
 8684SOL    HW126951   6.702   2.845   4.755
 8684SOL    HW226952   6.674   2.989   4.826
 8685SOL     OW26953   5.143   3.079   6.506
 8685SOL    HW126954   5.161   2.987   6.540
 8685SOL    HW226955   5.184   3.146   6.567
 8686SOL     OW26956   6.486   0.395   1.490
 8686SOL    HW126957   6.479   0.479   1.437
 8686SOL    HW226958   6.429   0.403   1.572
 8687SOL     OW26959   5.341   5.207   2.786
 8687SOL    HW126960   5.408   5.265   2.832
 8687SOL    HW226961   5.381   5.117   2.771
 8688SOL     OW26962   1.155   4.576   6.766
 8688SOL    HW126963   1.243   4.597   6.724
 8688SOL    HW226964   1.117   4.659   6.808
 8689SOL     OW26965   4.290   2.977   0.218
 8689SOL    HW126966   4.268   3.031   0.299
 8689SOL    HW226967   4.341   3.033   0.153
 8690SOL     OW26968   0.938   3.555   2.920
 8690SOL    HW126969   0.864   3.494   2.892
 8690SOL    HW226970   1.020   3.502   2.938
 8691SOL     OW26971   3.363   2.056   5.870
 8691SOL    HW126972   3.363   1.970   5.818
 8691SOL    HW226973   3.370   2.036   5.967
 8692SOL     OW26974   3.650   0.908   4.954
 8692SOL    HW126975   3.641   0.825   4.900
 8692SOL    HW226976   3.684   0.983   4.896
 8693SOL     OW26977   6.250   0.060   6.734
 8693SOL    HW126978   6.350   0.057   6.731
 8693SOL    HW226979   6.220   0.104   6.819
 8694SOL     OW26980   5.903   1.548   4.676
 8694SOL    HW126981   5.998   1.565   4.700
 8694SOL    HW226982   5.863   1.483   4.741
 8695SOL     OW26983   3.692   3.112   6.419
 8695SOL    HW126984   3.643   3.190   6.459
 8695SOL    HW226985   3.717   3.135   6.324
 8696SOL     OW26986   3.109   5.829   5.383
 8696SOL    HW126987   3.165   5.783   5.452
 8696SOL    HW226988   3.027   5.774   5.367
 8697SOL     OW26989   0.250   4.082   6.176
 8697SOL    HW126990   0.308   4.032   6.241
 8697SOL    HW226991   0.253   4.180   6.196
 8698SOL     OW26992   5.198   6.133   4.874
 8698SOL    HW126993   5.220   6.115   4.778
 8698SOL    HW226994   5.244   6.065   4.932
 8699SOL     OW26995   1.633   3.503   5.359
 8699SOL    HW126996   1.667   3.478   5.450
 8699SOL    HW226997   1.614   3.601   5.356
 8700SOL     OW26998   0.660   0.482   4.734
 8700SOL    HW126999   0.593   0.444   4.670
 8700SOL    HW227000   0.619   0.489   4.824
 8701SOL     OW27001   1.444   1.354   0.712
 8701SOL    HW127002   1.490   1.342   0.799
 8701SOL    HW227003   1.511   1.371   0.640
 8702SOL     OW27004   5.193   5.182   1.631
 8702SOL    HW127005   5.228   5.173   1.724
 8702SOL    HW227006   5.142   5.268   1.623
 8703SOL     OW27007   2.988   4.681   6.980
 8703SOL    HW127008   2.977   4.667   0.056
 8703SOL    HW227009   2.906   4.650   6.933
 8704SOL     OW27010   6.768   4.236   3.409
 8704SOL    HW127011   6.807   4.215   3.320
 8704SOL    HW227012   6.670   4.214   3.409
 8705SOL     OW27013   4.341   1.918   6.318
 8705SOL    HW127014   4.344   1.821   6.292
 8705SOL    HW227015   4.434   1.952   6.333
 8706SOL     OW27016   4.962   1.952   0.369
 8706SOL    HW127017   4.913   1.874   0.409
 8706SOL    HW227018   5.025   1.989   0.437
 8707SOL     OW27019   1.095   2.463   3.916
 8707SOL    HW127020   1.000   2.440   3.935
 8707SOL    HW227021   1.155   2.400   3.966
 8708SOL     OW27022   4.132   1.377   3.687
 8708SOL    HW127023   4.039   1.396   3.656
 8708SOL    HW227024   4.133   1.288   3.734
 8709SOL     OW27025   6.829   6.983   6.752
 8709SOL    HW127026   6.809   0.009   6.667
 8709SOL    HW227027   6.767   6.904   6.760
 8710SOL     OW27028   2.244   2.832   3.676
 8710SOL    HW127029   2.213   2.747   3.719
 8710SOL    HW227030   2.312   2.811   3.606
 8711SOL     OW27031   1.707   6.686   2.822
 8711SOL    HW127032   1.788   6.739   2.796
 8711SOL    HW227033   1.653   6.739   2.888
 8712SOL     OW27034   3.563   1.543   4.463
 8712SOL    HW127035   3.656   1.563   4.429
 8712SOL    HW227036   3.516   1.629   4.482
 8713SOL     OW27037   6.491   4.092   1.835
 8713SOL    HW127038   6.509   4.150   1.756
 8713SOL    HW227039   6.447   4.008   1.806
 8714SOL     OW27040   1.144   7.009   6.354
 8714SOL    HW127041   1.192   6.935   6.307
 8714SOL    HW227042   1.098   0.044   6.287
 8715SOL     OW27043   4.313   1.597   0.696
 8715SOL    HW127044   4.339   1.634   0.607
 8715SOL    HW227045   4.240   1.653   0.736
 8716SOL     OW27046   0.596   6.667   0.762
 8716SOL    HW127047   0.589   6.649   0.664
 8716SOL    HW227048   0.515   6.631   0.809
 8717SOL     OW27049   2.635   3.434   5.520
 8717SOL    HW127050   2.688   3.510   5.482
 8717SOL    HW227051   2.582   3.390   5.447
 8718SOL     OW27052   1.773   2.642   5.464
 8718SOL    HW127053   1.847   2.618   5.400
 8718SOL    HW227054   1.692   2.587   5.443
 8719SOL     OW27055   3.769   0.740   0.394
 8719SOL    HW127056   3.744   0.782   0.481
 8719SOL    HW227057   3.726   0.650   0.388
 8720SOL     OW27058   0.455   6.481   5.977
 8720SOL    HW127059   0.366   6.474   5.931
 8720SOL    HW227060   0.469   6.401   6.035
 8721SOL     OW27061   6.342   1.042   0.233
 8721SOL    HW127062   6.313   1.000   0.319
 8721SOL    HW227063   6.426   0.997   0.200
 8722SOL     OW27064   3.386   1.019   0.548
 8722SOL    HW127065   3.421   0.967   0.626
 8722SOL    HW227066   3.448   1.095   0.528
 8723SOL     OW27067   5.726   0.346   2.735
 8723SOL    HW127068   5.745   0.444   2.738
 8723SOL    HW227069   5.809   0.295   2.756
 8724SOL     OW27070   5.848   0.204   3.982
 8724SOL    HW127071   5.924   0.156   4.025
 8724SOL    HW227072   5.762   0.156   4.004
 8725SOL     OW27073   0.582   5.936   5.071
 8725SOL    HW127074   0.629   5.954   5.158
 8725SOL    HW227075   0.598   6.011   5.008
 8726SOL     OW27076   6.980   0.996   0.915
 8726SOL    HW127077   6.944   0.979   0.823
 8726SOL    HW227078   6.982   1.094   0.932
 8727SOL     OW27079   6.019   6.867   0.635
 8727SOL    HW127080   6.085   6.935   0.665
 8727SOL    HW227081   6.068   6.788   0.597
 8728SOL     OW27082   5.339   1.682   2.228
 8728SOL    HW127083   5.270   1.753   2.214
 8728SOL    HW227084   5.327   1.641   2.319
 8729SOL     OW27085   2.989   5.293   5.519
 8729SOL    HW127086   2.932   5.286   5.437
 8729SOL    HW227087   3.084   5.271   5.495
 8730SOL     OW27088   5.323   4.163   3.413
 8730SOL    HW127089   5.318   4.236   3.344
 8730SOL    HW227090   5.270   4.084   3.381
 8731SOL     OW27091   0.896   3.883   3.263
 8731SOL    HW127092   0.806   3.912   3.297
 8731SOL    HW227093   0.887   3.792   3.221
 8732SOL     OW27094   5.548   4.442   2.346
 8732SOL    HW127095   5.538   4.473   2.441
 8732SOL    HW227096   5.618   4.371   2.342
 8733SOL     OW27097   1.301   5.629   0.266
 8733SOL    HW127098   1.216   5.636   0.214
 8733SOL    HW227099   1.280   5.608   0.362
 8734SOL     OW27100   0.124   3.599   2.733
 8734SOL    HW127101   0.171   3.584   2.646
 8734SOL    HW227102   0.192   3.612   2.805
 8735SOL     OW27103   0.856   2.822   5.108
 8735SOL    HW127104   0.822   2.884   5.179
 8735SOL    HW227105   0.783   2.760   5.079
 8736SOL     OW27106   6.864   5.385   2.397
 8736SOL    HW127107   6.810   5.321   2.342
 8736SOL    HW227108   6.869   5.473   2.350
 8737SOL     OW27109   2.608   6.650   6.920
 8737SOL    HW127110   2.511   6.666   6.902
 8737SOL    HW227111   2.618   6.569   6.978
 8738SOL     OW27112   2.323   5.999   3.275
 8738SOL    HW127113   2.328   5.900   3.288
 8738SOL    HW227114   2.395   6.043   3.328
 8739SOL     OW27115   5.474   5.153   5.819
 8739SOL    HW127116   5.524   5.089   5.761
 8739SOL    HW227117   5.486   5.127   5.915
 8740SOL     OW27118   4.038   2.254   3.103
 8740SOL    HW127119   4.128   2.217   3.077
 8740SOL    HW227120   4.030   2.348   3.070
 8741SOL     OW27121   2.488   0.385   2.901
 8741SOL    HW127122   2.564   0.393   2.966
 8741SOL    HW227123   2.479   0.470   2.849
 8742SOL     OW27124   4.565   0.123   1.673
 8742SOL    HW127125   4.514   0.073   1.743
 8742SOL    HW227126   4.522   0.212   1.657
 8743SOL     OW27127   2.242   0.605   1.055
 8743SOL    HW127128   2.336   0.569   1.049
 8743SOL    HW227129   2.180   0.532   1.083
 8744SOL     OW27130   4.238   3.046   0.901
 8744SOL    HW127131   4.319   2.992   0.921
 8744SOL    HW227132   4.224   3.051   0.803
 8745SOL     OW27133   6.660   2.333   6.270
 8745SOL    HW127134   6.690   2.371   6.358
 8745SOL    HW227135   6.567   2.363   6.250
 8746SOL     OW27136   4.766   5.967   4.651
 8746SOL    HW127137   4.696   6.033   4.675
 8746SOL    HW227138   4.727   5.897   4.590
 8747SOL     OW27139   0.224   1.373   2.454
 8747SOL    HW127140   0.140   1.412   2.493
 8747SOL    HW227141   0.201   1.290   2.403
 8748SOL     OW27142   1.008   2.124   4.427
 8748SOL    HW127143   1.084   2.121   4.492
 8748SOL    HW227144   1.005   2.213   4.382
 8749SOL     OW27145   1.677   0.909   5.606
 8749SOL    HW127146   1.711   0.816   5.616
 8749SOL    HW227147   1.737   0.960   5.543
 8750SOL     OW27148   3.776   3.276   5.914
 8750SOL    HW127149   3.841   3.260   5.841
 8750SOL    HW227150   3.693   3.222   5.898
 8751SOL     OW27151   6.865   1.278   1.622
 8751SOL    HW127152   6.887   1.201   1.562
 8751SOL    HW227153   6.832   1.355   1.567
 8752SOL     OW27154   4.144   3.261   7.020
 8752SOL    HW127155   4.092   3.241   0.080
 8752SOL    HW227156   4.126   3.191   6.951
 8753SOL     OW27157   2.703   2.674   6.189
 8753SOL    HW127158   2.634   2.733   6.145
 8753SOL    HW227159   2.746   2.616   6.121
 8754SOL     OW27160   2.701   4.221   5.604
 8754SOL    HW127161   2.692   4.123   5.582
 8754SOL    HW227162   2.615   4.267   5.582
 8755SOL     OW27163   2.316   0.373   1.429
 8755SOL    HW127164   2.386   0.442   1.415
 8755SOL    HW227165   2.262   0.396   1.510
 8756SOL     OW27166   1.036   3.169   3.416
 8756SOL    HW127167   0.956   3.178   3.357
 8756SOL    HW227168   1.119   3.182   3.362
 8757SOL     OW27169   5.001   5.806   6.846
 8757SOL    HW127170   5.008   5.761   6.936
 8757SOL    HW227171   4.916   5.779   6.802
 8758SOL     OW27172   4.620   6.046   3.061
 8758SOL    HW127173   4.534   6.000   3.084
 8758SOL    HW227174   4.621   6.137   3.101
 8759SOL     OW27175   6.232   2.752   0.004
 8759SOL    HW127176   6.323   2.735   0.044
 8759SOL    HW227177   6.190   2.830   0.050
 8760SOL     OW27178   2.781   0.679   4.447
 8760SOL    HW127179   2.851   0.612   4.471
 8760SOL    HW227180   2.691   0.635   4.445
 8761SOL     OW27181   6.250   1.647   1.360
 8761SOL    HW127182   6.337   1.620   1.399
 8761SOL    HW227183   6.266   1.712   1.285
 8762SOL     OW27184   1.148   6.110   4.302
 8762SOL    HW127185   1.148   6.051   4.383
 8762SOL    HW227186   1.240   6.146   4.287
 8763SOL     OW27187   5.986   0.343   5.348
 8763SOL    HW127188   5.956   0.296   5.431
 8763SOL    HW227189   6.026   0.276   5.285
 8764SOL     OW27190   4.437   6.357   5.820
 8764SOL    HW127191   4.442   6.269   5.867
 8764SOL    HW227192   4.514   6.365   5.757
 8765SOL     OW27193   5.271   1.321   4.249
 8765SOL    HW127194   5.240   1.378   4.325
 8765SOL    HW227195   5.356   1.274   4.276
 8766SOL     OW27196   4.035   4.312   5.280
 8766SOL    HW127197   4.108   4.372   5.246
 8766SOL    HW227198   4.004   4.252   5.206
 8767SOL     OW27199   4.615   6.282   3.172
 8767SOL    HW127200   4.599   6.364   3.117
 8767SOL    HW227201   4.593   6.301   3.267
 8768SOL     OW27202   1.145   2.469   1.226
 8768SOL    HW127203   1.057   2.495   1.187
 8768SOL    HW227204   1.168   2.375   1.198
 8769SOL     OW27205   0.193   1.204   1.881
 8769SOL    HW127206   0.244   1.118   1.871
 8769SOL    HW227207   0.200   1.257   1.797
 8770SOL     OW27208   5.089   4.521   2.523
 8770SOL    HW127209   5.053   4.611   2.550
 8770SOL    HW227210   5.050   4.450   2.582
 8771SOL     OW27211   0.620   2.247   6.238
 8771SOL    HW127212   0.546   2.259   6.171
 8771SOL    HW227213   0.591   2.286   6.326
 8772SOL     OW27214   4.967   0.532   5.823
 8772SOL    HW127215   4.944   0.571   5.734
 8772SOL    HW227216   5.053   0.481   5.816
 8773SOL     OW27217   5.331   2.610   2.962
 8773SOL    HW127218   5.264   2.649   2.899
 8773SOL    HW227219   5.332   2.511   2.951
 8774SOL     OW27220   0.487   0.720   0.372
 8774SOL    HW127221   0.577   0.676   0.376
 8774SOL    HW227222   0.443   0.713   0.462
 8775SOL     OW27223   5.134   0.850   5.447
 8775SOL    HW127224   5.077   0.918   5.495
 8775SOL    HW227225   5.108   0.848   5.351
 8776SOL     OW27226   4.983   3.149   1.644
 8776SOL    HW127227   5.007   3.138   1.547
 8776SOL    HW227228   4.902   3.207   1.651
 8777SOL     OW27229   6.546   3.776   4.177
 8777SOL    HW127230   6.575   3.871   4.187
 8777SOL    HW227231   6.626   3.716   4.181
 8778SOL     OW27232   5.124   3.380   5.261
 8778SOL    HW127233   5.213   3.339   5.241
 8778SOL    HW227234   5.056   3.346   5.196
 8779SOL     OW27235   2.091   5.217   2.057
 8779SOL    HW127236   2.072   5.256   2.147
 8779SOL    HW227237   2.051   5.276   1.987
 8780SOL     OW27238   0.345   6.728   2.861
 8780SOL    HW127239   0.445   6.736   2.861
 8780SOL    HW227240   0.306   6.801   2.805
 8781SOL     OW27241   4.850   6.983   3.740
 8781SOL    HW127242   4.878   6.892   3.710
 8781SOL    HW227243   4.750   6.987   3.745
 8782SOL     OW27244   6.068   1.215   1.839
 8782SOL    HW127245   6.117   1.275   1.903
 8782SOL    HW227246   5.998   1.268   1.791
 8783SOL     OW27247   6.376   4.121   4.546
 8783SOL    HW127248   6.352   4.191   4.479
 8783SOL    HW227249   6.308   4.121   4.619
 8784SOL     OW27250   6.822   6.450   5.927
 8784SOL    HW127251   6.902   6.443   5.986
 8784SOL    HW227252   6.784   6.359   5.910
 8785SOL     OW27253   6.690   5.460   6.419
 8785SOL    HW127254   6.780   5.488   6.454
 8785SOL    HW227255   6.651   5.535   6.365
 8786SOL     OW27256   3.259   1.235   1.941
 8786SOL    HW127257   3.214   1.230   2.031
 8786SOL    HW227258   3.347   1.282   1.952
 8787SOL     OW27259   3.400   0.652   2.616
 8787SOL    HW127260   3.424   0.749   2.621
 8787SOL    HW227261   3.483   0.597   2.616
 8788SOL     OW27262   6.706   1.402   5.292
 8788SOL    HW127263   6.622   1.444   5.258
 8788SOL    HW227264   6.781   1.467   5.285
 8789SOL     OW27265   6.386   4.700   5.181
 8789SOL    HW127266   6.368   4.794   5.153
 8789SOL    HW227267   6.469   4.697   5.237
 8790SOL     OW27268   6.342   1.074   6.472
 8790SOL    HW127269   6.382   1.148   6.418
 8790SOL    HW227270   6.366   0.986   6.431
 8791SOL     OW27271   4.812   6.597   4.837
 8791SOL    HW127272   4.906   6.571   4.813
 8791SOL    HW227273   4.782   6.672   4.778
 8792SOL     OW27274   3.136   5.143   2.645
 8792SOL    HW127275   3.152   5.231   2.600
 8792SOL    HW227276   3.054   5.100   2.609
 8793SOL     OW27277   0.894   4.843   3.688
 8793SOL    HW127278   0.967   4.781   3.661
 8793SOL    HW227279   0.830   4.796   3.748
 8794SOL     OW27280   5.612   1.368   3.545
 8794SOL    HW127281   5.666   1.311   3.483
 8794SOL    HW227282   5.535   1.407   3.494
 8795SOL     OW27283   1.826   4.876   4.843
 8795SOL    HW127284   1.780   4.963   4.823
 8795SOL    HW227285   1.817   4.815   4.765
 8796SOL     OW27286   5.743   2.933   3.422
 8796SOL    HW127287   5.745   2.873   3.342
 8796SOL    HW227288   5.745   3.029   3.392
 8797SOL     OW27289   6.824   7.003   5.258
 8797SOL    HW127290   6.845   0.047   5.329
 8797SOL    HW227291   6.727   6.978   5.263
 8798SOL     OW27292   4.313   5.716   6.246
 8798SOL    HW127293   4.392   5.659   6.271
 8798SOL    HW227294   4.239   5.699   6.312
 8799SOL     OW27295   2.910   4.992   2.531
 8799SOL    HW127296   2.877   5.031   2.445
 8799SOL    HW227297   2.851   5.022   2.606
 8800SOL     OW27298   5.681   5.690   6.040
 8800SOL    HW127299   5.628   5.647   6.112
 8800SOL    HW227300   5.630   5.685   5.954
 8801SOL     OW27301   6.371   1.655   4.360
 8801SOL    HW127302   6.425   1.725   4.314
 8801SOL    HW227303   6.389   1.657   4.458
 8802SOL     OW27304   1.639   5.525   5.913
 8802SOL    HW127305   1.595   5.542   6.002
 8802SOL    HW227306   1.617   5.432   5.883
 8803SOL     OW27307   6.672   0.100   6.979
 8803SOL    HW127308   6.701   0.030   0.022
 8803SOL    HW227309   6.645   0.058   6.893
 8804SOL     OW27310   2.095   5.825   1.220
 8804SOL    HW127311   2.140   5.836   1.131
 8804SOL    HW227312   2.119   5.902   1.279
 8805SOL     OW27313   3.940   5.064   3.484
 8805SOL    HW127314   3.971   5.106   3.398
 8805SOL    HW227315   3.982   5.112   3.561
 8806SOL     OW27316   2.105   4.783   1.051
 8806SOL    HW127317   2.065   4.755   0.963
 8806SOL    HW227318   2.181   4.723   1.073
 8807SOL     OW27319   4.580   1.239   6.942
 8807SOL    HW127320   4.613   1.238   0.014
 8807SOL    HW227321   4.648   1.284   6.883
 8808SOL     OW27322   6.925   2.042   6.176
 8808SOL    HW127323   6.872   1.963   6.207
 8808SOL    HW227324   6.978   2.079   6.252
 8809SOL     OW27325   2.514   4.592   3.575
 8809SOL    HW127326   2.418   4.589   3.548
 8809SOL    HW227327   2.522   4.569   3.672
 8810SOL     OW27328   5.718   1.304   5.377
 8810SOL    HW127329   5.620   1.288   5.384
 8810SOL    HW227330   5.763   1.271   5.460
 8811SOL     OW27331   3.392   0.321   2.892
 8811SOL    HW127332   3.452   0.305   2.814
 8811SOL    HW227333   3.340   0.405   2.877
 8812SOL     OW27334   2.874   0.566   0.415
 8812SOL    HW127335   2.941   0.542   0.485
 8812SOL    HW227336   2.807   0.492   0.407
 8813SOL     OW27337   2.343   5.030   2.794
 8813SOL    HW127338   2.407   4.996   2.862
 8813SOL    HW227339   2.368   4.994   2.704
 8814SOL     OW27340   6.472   6.962   0.645
 8814SOL    HW127341   6.491   6.930   0.738
 8814SOL    HW227342   6.491   6.889   0.579
 8815SOL     OW27343   5.854   6.624   0.742
 8815SOL    HW127344   5.835   6.716   0.707
 8815SOL    HW227345   5.874   6.630   0.840
 8816SOL     OW27346   1.024   0.101   6.691
 8816SOL    HW127347   1.037   0.003   6.704
 8816SOL    HW227348   0.964   0.137   6.763
 8817SOL     OW27349   0.184   3.928   4.261
 8817SOL    HW127350   0.264   3.868   4.259
 8817SOL    HW227351   0.114   3.892   4.200
 8818SOL     OW27352   1.387   6.506   3.590
 8818SOL    HW127353   1.460   6.526   3.655
 8818SOL    HW227354   1.330   6.432   3.625
 8819SOL     OW27355   6.342   4.457   5.745
 8819SOL    HW127356   6.255   4.467   5.698
 8819SOL    HW227357   6.353   4.532   5.811
 8820SOL     OW27358   3.074   1.491   4.798
 8820SOL    HW127359   3.068   1.577   4.746
 8820SOL    HW227360   2.982   1.451   4.807
 8821SOL     OW27361   0.852   6.118   0.292
 8821SOL    HW127362   0.858   6.201   0.347
 8821SOL    HW227363   0.919   6.051   0.325
 8822SOL     OW27364   0.499   0.242   3.244
 8822SOL    HW127365   0.469   0.164   3.298
 8822SOL    HW227366   0.552   0.304   3.301
 8823SOL     OW27367   2.489   0.881   2.656
 8823SOL    HW127368   2.502   0.947   2.730
 8823SOL    HW227369   2.566   0.887   2.592
 8824SOL     OW27370   1.286   0.879   0.858
 8824SOL    HW127371   1.350   0.920   0.793
 8824SOL    HW227372   1.239   0.802   0.815
 8825SOL     OW27373   0.762   0.930   1.823
 8825SOL    HW127374   0.690   0.982   1.777
 8825SOL    HW227375   0.786   0.850   1.768
 8826SOL     OW27376   1.316   3.522   0.890
 8826SOL    HW127377   1.410   3.515   0.923
 8826SOL    HW227378   1.280   3.431   0.871
 8827SOL     OW27379   3.967   6.873   3.184
 8827SOL    HW127380   3.979   6.955   3.240
 8827SOL    HW227381   3.906   6.894   3.107
 8828SOL     OW27382   4.072   5.185   7.017
 8828SOL    HW127383   3.998   5.199   6.952
 8828SOL    HW227384   4.051   5.231   0.080
 8829SOL     OW27385   5.830   1.811   1.408
 8829SOL    HW127386   5.790   1.731   1.451
 8829SOL    HW227387   5.758   1.868   1.368
 8830SOL     OW27388   2.332   1.612   2.724
 8830SOL    HW127389   2.256   1.677   2.724
 8830SOL    HW227390   2.390   1.629   2.804
 8831SOL     OW27391   5.865   2.803   2.981
 8831SOL    HW127392   5.843   2.896   3.011
 8831SOL    HW227393   5.959   2.781   3.009
 8832SOL     OW27394   0.144   6.410   4.456
 8832SOL    HW127395   0.231   6.459   4.464
 8832SOL    HW227396   0.088   6.429   4.537
 8833SOL     OW27397   3.945   4.017   6.618
 8833SOL    HW127398   3.872   3.950   6.626
 8833SOL    HW227399   3.956   4.066   6.705
 8834SOL     OW27400   5.840   4.263   4.452
 8834SOL    HW127401   5.868   4.226   4.541
 8834SOL    HW227402   5.906   4.332   4.423
 8835SOL     OW27403   5.376   0.814   6.243
 8835SOL    HW127404   5.463   0.818   6.292
 8835SOL    HW227405   5.327   0.901   6.255
 8836SOL     OW27406   4.850   2.263   0.546
 8836SOL    HW127407   4.920   2.205   0.506
 8836SOL    HW227408   4.771   2.267   0.484
 8837SOL     OW27409   0.078   0.130   1.555
 8837SOL    HW127410   0.126   0.203   1.506
 8837SOL    HW227411   0.018   0.171   1.624
 8838SOL     OW27412   1.231   4.695   2.781
 8838SOL    HW127413   1.168   4.757   2.827
 8838SOL    HW227414   1.325   4.713   2.811
 8839SOL     OW27415   3.901   6.227   2.123
 8839SOL    HW127416   3.876   6.171   2.045
 8839SOL    HW227417   3.901   6.171   2.206
 8840SOL     OW27418   6.450   0.180   2.159
 8840SOL    HW127419   6.529   0.186   2.099
 8840SOL    HW227420   6.466   0.110   2.229
 8841SOL     OW27421   6.034   1.633   3.020
 8841SOL    HW127422   5.984   1.679   3.094
 8841SOL    HW227423   6.106   1.577   3.059
 8842SOL     OW27424   3.356   3.781   3.302
 8842SOL    HW127425   3.416   3.861   3.298
 8842SOL    HW227426   3.366   3.728   3.218
 8843SOL     OW27427   1.584   3.491   4.395
 8843SOL    HW127428   1.673   3.446   4.408
 8843SOL    HW227429   1.522   3.464   4.468
 8844SOL     OW27430   6.688   1.458   4.951
 8844SOL    HW127431   6.772   1.409   4.975
 8844SOL    HW227432   6.655   1.427   4.862
 8845SOL     OW27433   2.106   4.252   0.743
 8845SOL    HW127434   2.088   4.334   0.798
 8845SOL    HW227435   2.119   4.173   0.804
 8846SOL     OW27436   4.549   4.743   3.971
 8846SOL    HW127437   4.627   4.700   3.926
 8846SOL    HW227438   4.581   4.808   4.040
 8847SOL     OW27439   1.732   1.448   3.875
 8847SOL    HW127440   1.717   1.370   3.814
 8847SOL    HW227441   1.829   1.469   3.881
 8848SOL     OW27442   2.834   1.651   2.401
 8848SOL    HW127443   2.746   1.615   2.433
 8848SOL    HW227444   2.832   1.751   2.406
 8849SOL     OW27445   3.489   5.006   3.271
 8849SOL    HW127446   3.427   4.928   3.267
 8849SOL    HW227447   3.579   4.974   3.302
 8850SOL     OW27448   3.274   1.501   0.862
 8850SOL    HW127449   3.313   1.583   0.820
 8850SOL    HW227450   3.186   1.523   0.904
 8851SOL     OW27451   1.293   4.619   2.079
 8851SOL    HW127452   1.255   4.604   1.988
 8851SOL    HW227453   1.250   4.700   2.120
 8852SOL     OW27454   4.516   3.200   5.742
 8852SOL    HW127455   4.487   3.295   5.753
 8852SOL    HW227456   4.448   3.139   5.782
 8853SOL     OW27457   2.902   0.402   4.836
 8853SOL    HW127458   2.825   0.374   4.894
 8853SOL    HW227459   2.986   0.400   4.889
 8854SOL     OW27460   2.419   0.442   6.390
 8854SOL    HW127461   2.427   0.403   6.482
 8854SOL    HW227462   2.511   0.456   6.353
 8855SOL     OW27463   6.939   6.268   0.522
 8855SOL    HW127464   6.850   6.300   0.489
 8855SOL    HW227465   6.978   6.336   0.584
 8856SOL     OW27466   5.633   0.317   5.948
 8856SOL    HW127467   5.600   0.320   5.854
 8856SOL    HW227468   5.557   0.297   6.010
 8857SOL     OW27469   6.295   2.012   3.709
 8857SOL    HW127470   6.391   2.042   3.708
 8857SOL    HW227471   6.244   2.062   3.639
 8858SOL     OW27472   1.471   2.952   5.630
 8858SOL    HW127473   1.567   2.978   5.622
 8858SOL    HW227474   1.454   2.871   5.574
 8859SOL     OW27475   0.116   6.902   4.930
 8859SOL    HW127476   0.112   6.953   5.016
 8859SOL    HW227477   0.038   6.926   4.873
 8860SOL     OW27478   1.947   4.497   2.924
 8860SOL    HW127479   1.992   4.520   3.010
 8860SOL    HW227480   2.012   4.449   2.865
 8861SOL     OW27481   3.562   2.311   6.216
 8861SOL    HW127482   3.506   2.390   6.188
 8861SOL    HW227483   3.603   2.270   6.135
 8862SOL     OW27484   6.441   1.269   3.667
 8862SOL    HW127485   6.519   1.282   3.606
 8862SOL    HW227486   6.470   1.284   3.762
 8863SOL     OW27487   1.796   5.897   4.592
 8863SOL    HW127488   1.846   5.925   4.510
 8863SOL    HW227489   1.707   5.859   4.566
 8864SOL     OW27490   2.559   3.508   6.249
 8864SOL    HW127491   2.615   3.591   6.250
 8864SOL    HW227492   2.516   3.496   6.339
 8865SOL     OW27493   3.222   1.951   5.443
 8865SOL    HW127494   3.315   1.953   5.406
 8865SOL    HW227495   3.187   2.045   5.452
 8866SOL     OW27496   5.452   6.834   3.990
 8866SOL    HW127497   5.363   6.876   3.979
 8866SOL    HW227498   5.510   6.856   3.912
 8867SOL     OW27499   5.248   3.363   3.511
 8867SOL    HW127500   5.217   3.309   3.433
 8867SOL    HW227501   5.237   3.310   3.595
 8868SOL     OW27502   6.196   3.255   0.565
 8868SOL    HW127503   6.234   3.225   0.652
 8868SOL    HW227504   6.269   3.287   0.505
 8869SOL     OW27505   4.571   5.732   3.616
 8869SOL    HW127506   4.585   5.748   3.519
 8869SOL    HW227507   4.618   5.804   3.668
 8870SOL     OW27508   4.261   6.902   0.458
 8870SOL    HW127509   4.342   6.930   0.510
 8870SOL    HW227510   4.245   6.805   0.471
 8871SOL     OW27511   2.878   0.810   4.011
 8871SOL    HW127512   2.821   0.729   4.024
 8871SOL    HW227513   2.937   0.823   4.092
 8872SOL     OW27514   1.586   4.234   4.664
 8872SOL    HW127515   1.527   4.311   4.640
 8872SOL    HW227516   1.666   4.234   4.604
 8873SOL     OW27517   0.213   5.583   2.070
 8873SOL    HW127518   0.153   5.514   2.030
 8873SOL    HW227519   0.158   5.652   2.118
 8874SOL     OW27520   2.522   6.018   1.131
 8874SOL    HW127521   2.464   6.097   1.153
 8874SOL    HW227522   2.591   6.006   1.202
 8875SOL     OW27523   0.198   3.220   5.059
 8875SOL    HW127524   0.292   3.243   5.084
 8875SOL    HW227525   0.167   3.278   4.985
 8876SOL     OW27526   1.582   0.317   4.108
 8876SOL    HW127527   1.664   0.365   4.076
 8876SOL    HW227528   1.602   0.220   4.119
 8877SOL     OW27529   2.430   1.626   4.236
 8877SOL    HW127530   2.504   1.607   4.170
 8877SOL    HW227531   2.453   1.584   4.324
 8878SOL     OW27532   0.510   5.615   0.769
 8878SOL    HW127533   0.474   5.546   0.832
 8878SOL    HW227534   0.593   5.580   0.725
 8879SOL     OW27535   5.517   5.371   1.142
 8879SOL    HW127536   5.514   5.280   1.102
 8879SOL    HW227537   5.461   5.434   1.087
 8880SOL     OW27538   0.057   5.990   4.513
 8880SOL    HW127539   0.083   5.915   4.573
 8880SOL    HW227540   6.986   5.976   4.481
 8881SOL     OW27541   5.824   0.120   4.612
 8881SOL    HW127542   5.747   0.111   4.676
 8881SOL    HW227543   5.904   0.154   4.661
 8882SOL     OW27544   5.546   1.350   0.609
 8882SOL    HW127545   5.479   1.421   0.626
 8882SOL    HW227546   5.526   1.271   0.667
 8883SOL     OW27547   1.036   0.520   5.164
 8883SOL    HW127548   0.966   0.592   5.162
 8883SOL    HW227549   1.012   0.451   5.233
 8884SOL     OW27550   5.717   5.145   6.518
 8884SOL    HW127551   5.643   5.153   6.452
 8884SOL    HW227552   5.689   5.185   6.605
 8885SOL     OW27553   0.056   3.502   1.127
 8885SOL    HW127554   6.987   3.462   1.122
 8885SOL    HW227555   0.086   3.504   1.223
 8886SOL     OW27556   3.222   6.789   5.479
 8886SOL    HW127557   3.184   6.767   5.389
 8886SOL    HW227558   3.261   6.707   5.520
 8887SOL     OW27559   3.018   0.700   1.327
 8887SOL    HW127560   3.028   0.636   1.250
 8887SOL    HW227561   3.043   0.792   1.296
 8888SOL     OW27562   1.740   1.776   1.014
 8888SOL    HW127563   1.699   1.767   1.105
 8888SOL    HW227564   1.712   1.699   0.957
 8889SOL     OW27565   5.507   6.361   5.482
 8889SOL    HW127566   5.439   6.377   5.410
 8889SOL    HW227567   5.526   6.263   5.487
 8890SOL     OW27568   6.106   5.662   4.293
 8890SOL    HW127569   6.158   5.670   4.378
 8890SOL    HW227570   6.025   5.605   4.308
 8891SOL     OW27571   5.457   3.275   5.808
 8891SOL    HW127572   5.456   3.266   5.708
 8891SOL    HW227573   5.366   3.256   5.845
 8892SOL     OW27574   3.505   5.653   2.865
 8892SOL    HW127575   3.598   5.636   2.897
 8892SOL    HW227576   3.456   5.706   2.934
 8893SOL     OW27577   1.375   0.360   2.455
 8893SOL    HW127578   1.406   0.266   2.466
 8893SOL    HW227579   1.301   0.363   2.386
 8894SOL     OW27580   4.186   2.738   5.850
 8894SOL    HW127581   4.108   2.727   5.788
 8894SOL    HW227582   4.270   2.747   5.797
 8895SOL     OW27583   6.538   1.645   1.364
 8895SOL    HW127584   6.535   1.643   1.264
 8895SOL    HW227585   6.597   1.571   1.396
 8896SOL     OW27586   1.861   3.720   4.885
 8896SOL    HW127587   1.881   3.645   4.948
 8896SOL    HW227588   1.860   3.685   4.791
 8897SOL     OW27589   2.564   2.481   3.048
 8897SOL    HW127590   2.512   2.431   2.978
 8897SOL    HW227591   2.559   2.579   3.030
 8898SOL     OW27592   5.795   3.592   4.714
 8898SOL    HW127593   5.701   3.578   4.681
 8898SOL    HW227594   5.842   3.656   4.654
 8899SOL     OW27595   1.680   5.132   0.523
 8899SOL    HW127596   1.769   5.127   0.568
 8899SOL    HW227597   1.683   5.202   0.451
 8900SOL     OW27598   5.793   3.069   2.996
 8900SOL    HW127599   5.801   3.151   3.053
 8900SOL    HW227600   5.833   3.086   2.906
 8901SOL     OW27601   2.521   0.925   4.222
 8901SOL    HW127602   2.472   1.006   4.253
 8901SOL    HW227603   2.619   0.937   4.240
 8902SOL     OW27604   3.441   6.453   6.964
 8902SOL    HW127605   3.372   6.468   6.893
 8902SOL    HW227606   3.468   6.357   6.964
 8903SOL     OW27607   1.049   1.111   4.639
 8903SOL    HW127608   0.999   1.085   4.556
 8903SOL    HW227609   1.056   1.032   4.700
 8904SOL     OW27610   6.310   5.656   3.867
 8904SOL    HW127611   6.381   5.691   3.927
 8904SOL    HW227612   6.220   5.683   3.902
 8905SOL     OW27613   2.145   4.101   4.450
 8905SOL    HW127614   2.191   4.012   4.442
 8905SOL    HW227615   2.091   4.102   4.534
 8906SOL     OW27616   0.188   6.679   6.682
 8906SOL    HW127617   0.154   6.765   6.722
 8906SOL    HW227618   0.259   6.700   6.614
 8907SOL     OW27619   3.179   1.795   4.795
 8907SOL    HW127620   3.235   1.759   4.870
 8907SOL    HW227621   3.155   1.890   4.814
 8908SOL     OW27622   1.585   3.031   6.247
 8908SOL    HW127623   1.635   3.068   6.170
 8908SOL    HW227624   1.638   3.044   6.331
 8909SOL     OW27625   1.623   0.996   4.943
 8909SOL    HW127626   1.651   0.951   5.028
 8909SOL    HW227627   1.644   1.093   4.948
 8910SOL     OW27628   1.375   3.053   6.005
 8910SOL    HW127629   1.422   2.966   5.991
 8910SOL    HW227630   1.441   3.128   5.994
 8911SOL     OW27631   4.358   2.298   4.878
 8911SOL    HW127632   4.315   2.375   4.923
 8911SOL    HW227633   4.410   2.245   4.945
 8912SOL     OW27634   4.411   1.741   0.452
 8912SOL    HW127635   4.495   1.751   0.505
 8912SOL    HW227636   4.432   1.702   0.363
 8913SOL     OW27637   4.481   5.096   0.289
 8913SOL    HW127638   4.517   5.189   0.284
 8913SOL    HW227639   4.382   5.098   0.280
 8914SOL     OW27640   4.072   0.556   4.567
 8914SOL    HW127641   4.168   0.569   4.543
 8914SOL    HW227642   4.035   0.641   4.605
 8915SOL     OW27643   0.955   2.177   3.807
 8915SOL    HW127644   1.047   2.218   3.813
 8915SOL    HW227645   0.960   2.093   3.754
 8916SOL     OW27646   0.552   3.580   1.683
 8916SOL    HW127647   0.651   3.583   1.670
 8916SOL    HW227648   0.526   3.495   1.728
 8917SOL     OW27649   6.003   3.997   6.046
 8917SOL    HW127650   6.095   4.035   6.040
 8917SOL    HW227651   5.991   3.954   6.135
 8918SOL     OW27652   0.097   4.063   1.603
 8918SOL    HW127653   0.127   4.100   1.515
 8918SOL    HW227654   7.021   4.074   1.613
 8919SOL     OW27655   4.252   4.279   0.633
 8919SOL    HW127656   4.339   4.238   0.660
 8919SOL    HW227657   4.269   4.365   0.585
 8920SOL     OW27658   0.909   6.849   6.462
 8920SOL    HW127659   0.958   6.825   6.546
 8920SOL    HW227660   0.964   6.912   6.408
 8921SOL     OW27661   2.122   2.001   3.025
 8921SOL    HW127662   2.169   1.919   3.057
 8921SOL    HW227663   2.046   1.975   2.965
 8922SOL     OW27664   3.093   5.361   1.580
 8922SOL    HW127665   3.059   5.288   1.639
 8922SOL    HW227666   3.167   5.326   1.522
 8923SOL     OW27667   1.321   4.051   5.755
 8923SOL    HW127668   1.356   4.052   5.849
 8923SOL    HW227669   1.331   4.142   5.715
 8924SOL     OW27670   3.640   5.902   5.010
 8924SOL    HW127671   3.614   5.820   5.061
 8924SOL    HW227672   3.645   5.880   4.912
 8925SOL     OW27673   1.023   0.530   2.595
 8925SOL    HW127674   1.101   0.575   2.640
 8925SOL    HW227675   1.057   0.459   2.533
 8926SOL     OW27676   6.057   3.492   6.564
 8926SOL    HW127677   6.085   3.558   6.634
 8926SOL    HW227678   5.980   3.438   6.598
 8927SOL     OW27679   0.857   1.913   4.616
 8927SOL    HW127680   0.891   1.866   4.698
 8927SOL    HW227681   0.919   1.896   4.540
 8928SOL     OW27682   6.486   0.649   5.010
 8928SOL    HW127683   6.477   0.724   4.944
 8928SOL    HW227684   6.453   0.680   5.099
 8929SOL     OW27685   0.072   3.509   4.093
 8929SOL    HW127686   0.057   3.438   4.024
 8929SOL    HW227687   0.168   3.539   4.090
 8930SOL     OW27688   2.427   4.398   4.177
 8930SOL    HW127689   2.487   4.325   4.145
 8930SOL    HW227690   2.350   4.360   4.227
 8931SOL     OW27691   3.421   2.768   1.147
 8931SOL    HW127692   3.326   2.799   1.139
 8931SOL    HW227693   3.440   2.702   1.075
 8932SOL     OW27694   5.476   0.467   0.109
 8932SOL    HW127695   5.395   0.523   0.091
 8932SOL    HW227696   5.537   0.471   0.030
 8933SOL     OW27697   1.047   2.289   5.556
 8933SOL    HW127698   0.964   2.310   5.607
 8933SOL    HW227699   1.114   2.245   5.616
 8934SOL     OW27700   3.102   5.300   3.627
 8934SOL    HW127701   3.163   5.347   3.564
 8934SOL    HW227702   3.155   5.264   3.705
 8935SOL     OW27703   5.420   4.046   1.695
 8935SOL    HW127704   5.416   4.074   1.790
 8935SOL    HW227705   5.401   4.124   1.635
 8936SOL     OW27706   1.396   3.212   1.019
 8936SOL    HW127707   1.384   3.217   1.118
 8936SOL    HW227708   1.387   3.116   0.989
 8937SOL     OW27709   0.813   0.385   4.090
 8937SOL    HW127710   0.909   0.366   4.070
 8937SOL    HW227711   0.762   0.393   4.004
 8938SOL     OW27712   0.083   0.963   0.023
 8938SOL    HW127713   0.110   0.920   0.109
 8938SOL    HW227714   0.123   0.913   6.969
 8939SOL     OW27715   6.219   3.479   4.503
 8939SOL    HW127716   6.128   3.479   4.462
 8939SOL    HW227717   6.247   3.573   4.524
 8940SOL     OW27718   5.430   1.746   1.077
 8940SOL    HW127719   5.522   1.714   1.053
 8940SOL    HW227720   5.435   1.843   1.103
 8941SOL     OW27721   5.766   2.652   2.389
 8941SOL    HW127722   5.736   2.638   2.295
 8941SOL    HW227723   5.865   2.659   2.392
 8942SOL     OW27724   1.152   5.553   4.496
 8942SOL    HW127725   1.158   5.626   4.564
 8942SOL    HW227726   1.090   5.482   4.529
 8943SOL     OW27727   4.287   5.256   0.507
 8943SOL    HW127728   4.291   5.346   0.464
 8943SOL    HW227729   4.263   5.187   0.438
 8944SOL     OW27730   4.770   5.328   4.068
 8944SOL    HW127731   4.845   5.336   4.003
 8944SOL    HW227732   4.807   5.322   4.161
 8945SOL     OW27733   6.569   2.323   4.545
 8945SOL    HW127734   6.518   2.392   4.596
 8945SOL    HW227735   6.667   2.334   4.563
 8946SOL     OW27736   3.901   1.049   3.871
 8946SOL    HW127737   3.995   1.082   3.877
 8946SOL    HW227738   3.897   0.970   3.809
 8947SOL     OW27739   2.227   3.343   6.058
 8947SOL    HW127740   2.189   3.435   6.065
 8947SOL    HW227741   2.178   3.281   6.120
 8948SOL     OW27742   6.031   6.147   2.878
 8948SOL    HW127743   6.024   6.239   2.840
 8948SOL    HW227744   5.956   6.132   2.943
 8949SOL     OW27745   4.275   5.604   0.682
 8949SOL    HW127746   4.295   5.547   0.602
 8949SOL    HW227747   4.216   5.681   0.655
 8950SOL     OW27748   4.380   3.018   1.217
 8950SOL    HW127749   4.405   3.018   1.314
 8950SOL    HW227750   4.284   2.991   1.208
 8951SOL     OW27751   1.938   1.094   4.412
 8951SOL    HW127752   1.928   1.174   4.354
 8951SOL    HW227753   1.904   1.114   4.504
 8952SOL     OW27754   0.710   5.194   3.244
 8952SOL    HW127755   0.652   5.259   3.195
 8952SOL    HW227756   0.779   5.158   3.181
 8953SOL     OW27757   1.677   4.224   1.106
 8953SOL    HW127758   1.721   4.240   1.195
 8953SOL    HW227759   1.583   4.258   1.109
 8954SOL     OW27760   0.214   6.828   3.783
 8954SOL    HW127761   0.312   6.810   3.797
 8954SOL    HW227762   0.203   6.910   3.727
 8955SOL     OW27763   6.928   3.813   2.690
 8955SOL    HW127764   6.951   3.717   2.700
 8955SOL    HW227765   6.921   3.836   2.593
 8956SOL     OW27766   1.165   0.459   5.651
 8956SOL    HW127767   1.172   0.370   5.607
 8956SOL    HW227768   1.111   0.521   5.593
 8957SOL     OW27769   2.339   4.640   1.111
 8957SOL    HW127770   2.323   4.685   1.199
 8957SOL    HW227771   2.384   4.703   1.048
 8958SOL     OW27772   0.816   2.465   5.322
 8958SOL    HW127773   0.829   2.381   5.269
 8958SOL    HW227774   0.905   2.501   5.351
 8959SOL     OW27775   1.872   3.545   2.466
 8959SOL    HW127776   1.842   3.519   2.374
 8959SOL    HW227777   1.791   3.561   2.523
 8960SOL     OW27778   6.264   5.661   3.553
 8960SOL    HW127779   6.261   5.682   3.650
 8960SOL    HW227780   6.286   5.564   3.540
 8961SOL     OW27781   4.170   1.532   3.934
 8961SOL    HW127782   4.148   1.489   3.847
 8961SOL    HW227783   4.253   1.490   3.971
 8962SOL     OW27784   6.998   5.905   1.567
 8962SOL    HW127785   0.011   5.846   1.640
 8962SOL    HW227786   0.051   5.940   1.513
 8963SOL     OW27787   3.359   6.657   5.158
 8963SOL    HW127788   3.268   6.664   5.199
 8963SOL    HW227789   3.406   6.745   5.167
 8964SOL     OW27790   5.553   3.578   3.138
 8964SOL    HW127791   5.475   3.546   3.191
 8964SOL    HW227792   5.521   3.634   3.062
 8965SOL     OW27793   3.488   4.835   0.677
 8965SOL    HW127794   3.471   4.817   0.580
 8965SOL    HW227795   3.405   4.872   0.719
 8966SOL     OW27796   6.961   4.556   6.747
 8966SOL    HW127797   6.918   4.466   6.738
 8966SOL    HW227798   6.898   4.618   6.795
 8967SOL     OW27799   4.336   1.564   3.230
 8967SOL    HW127800   4.249   1.603   3.261
 8967SOL    HW227801   4.351   1.477   3.277
 8968SOL     OW27802   2.965   5.727   2.347
 8968SOL    HW127803   3.046   5.682   2.309
 8968SOL    HW227804   2.982   5.752   2.442
 8969SOL     OW27805   0.368   0.455   3.453
 8969SOL    HW127806   0.297   0.524   3.463
 8969SOL    HW227807   0.390   0.415   3.542
 8970SOL     OW27808   1.477   2.470   0.506
 8970SOL    HW127809   1.553   2.407   0.492
 8970SOL    HW227810   1.391   2.419   0.513
 8971SOL     OW27811   5.490   6.887   2.121
 8971SOL    HW127812   5.469   6.799   2.163
 8971SOL    HW227813   5.408   6.945   2.121
 8972SOL     OW27814   4.850   4.004   0.336
 8972SOL    HW127815   4.764   4.054   0.330
 8972SOL    HW227816   4.858   3.962   0.427
 8973SOL     OW27817   0.714   3.295   2.057
 8973SOL    HW127818   0.812   3.310   2.068
 8973SOL    HW227819   0.691   3.202   2.085
 8974SOL     OW27820   1.810   3.796   4.154
 8974SOL    HW127821   1.873   3.782   4.230
 8974SOL    HW227822   1.861   3.809   4.070
 8975SOL     OW27823   1.047   6.826   6.703
 8975SOL    HW127824   1.136   6.791   6.733
 8975SOL    HW227825   0.980   6.810   6.775
 8976SOL     OW27826   6.925   6.336   0.815
 8976SOL    HW127827   6.997   6.389   0.769
 8976SOL    HW227828   6.874   6.395   0.877
 8977SOL     OW27829   6.825   4.016   6.729
 8977SOL    HW127830   6.891   3.942   6.741
 8977SOL    HW227831   6.796   4.019   6.633
 8978SOL     OW27832   5.055   6.538   4.753
 8978SOL    HW127833   5.130   6.485   4.793
 8978SOL    HW227834   5.080   6.569   4.662
 8979SOL     OW27835   1.264   5.620   5.870
 8979SOL    HW127836   1.327   5.558   5.823
 8979SOL    HW227837   1.313   5.672   5.940
 8980SOL     OW27838   5.348   2.229   5.563
 8980SOL    HW127839   5.266   2.186   5.600
 8980SOL    HW227840   5.377   2.304   5.623
 8981SOL     OW27841   4.893   1.766   5.817
 8981SOL    HW127842   4.921   1.850   5.863
 8981SOL    HW227843   4.813   1.785   5.759
 8982SOL     OW27844   0.150   1.884   1.414
 8982SOL    HW127845   0.063   1.924   1.443
 8982SOL    HW227846   0.193   1.944   1.346
 8983SOL     OW27847   0.659   5.166   1.852
 8983SOL    HW127848   0.694   5.126   1.937
 8983SOL    HW227849   0.664   5.098   1.779
 8984SOL     OW27850   6.024   0.179   4.760
 8984SOL    HW127851   6.062   0.106   4.817
 8984SOL    HW227852   6.024   0.265   4.811
 8985SOL     OW27853   3.381   2.182   1.217
 8985SOL    HW127854   3.450   2.150   1.283
 8985SOL    HW227855   3.295   2.135   1.234
 8986SOL     OW27856   5.389   4.928   2.706
 8986SOL    HW127857   5.459   4.870   2.665
 8986SOL    HW227858   5.337   4.876   2.774
 8987SOL     OW27859   2.991   0.651   1.043
 8987SOL    HW127860   2.896   0.682   1.048
 8987SOL    HW227861   3.051   0.730   1.036
 8988SOL     OW27862   1.649   5.514   0.167
 8988SOL    HW127863   1.702   5.566   0.101
 8988SOL    HW227864   1.618   5.574   0.240
 8989SOL     OW27865   5.001   3.356   2.779
 8989SOL    HW127866   4.983   3.337   2.682
 8989SOL    HW227867   5.040   3.274   2.822
 8990SOL     OW27868   1.900   5.870   1.822
 8990SOL    HW127869   1.921   5.954   1.873
 8990SOL    HW227870   1.974   5.850   1.758
 8991SOL     OW27871   2.310   1.789   1.608
 8991SOL    HW127872   2.252   1.870   1.612
 8991SOL    HW227873   2.358   1.787   1.520
 8992SOL     OW27874   0.138   2.386   0.690
 8992SOL    HW127875   0.127   2.322   0.765
 8992SOL    HW227876   0.226   2.371   0.645
 8993SOL     OW27877   5.072   2.444   2.934
 8993SOL    HW127878   5.045   2.400   3.020
 8993SOL    HW227879   5.153   2.400   2.897
 8994SOL     OW27880   1.671   5.724   3.734
 8994SOL    HW127881   1.610   5.646   3.728
 8994SOL    HW227882   1.762   5.697   3.703
 8995SOL     OW27883   1.448   2.497   5.544
 8995SOL    HW127884   1.367   2.554   5.562
 8995SOL    HW227885   1.418   2.407   5.511
 8996SOL     OW27886   0.606   4.015   1.982
 8996SOL    HW127887   0.597   3.940   2.048
 8996SOL    HW227888   0.576   3.984   1.892
 8997SOL     OW27889   4.808   0.758   6.442
 8997SOL    HW127890   4.789   0.730   6.536
 8997SOL    HW227891   4.812   0.677   6.383
 8998SOL     OW27892   0.233   2.114   4.705
 8998SOL    HW127893   0.279   2.027   4.724
 8998SOL    HW227894   0.220   2.125   4.607
 8999SOL     OW27895   4.664   0.892   6.975
 8999SOL    HW127896   4.574   0.922   7.008
 8999SOL    HW227897   4.676   0.795   6.995
 9000SOL     OW27898   3.000   4.266   6.017
 9000SOL    HW127899   2.917   4.310   5.982
 9000SOL    HW227900   3.004   4.278   6.116
 9001SOL     OW27901   1.308   5.421   2.865
 9001SOL    HW127902   1.356   5.398   2.780
 9001SOL    HW227903   1.210   5.411   2.852
 9002SOL     OW27904   0.783   5.507   5.584
 9002SOL    HW127905   0.853   5.463   5.529
 9002SOL    HW227906   0.740   5.581   5.532
 9003SOL     OW27907   6.037   2.836   1.619
 9003SOL    HW127908   6.095   2.815   1.697
 9003SOL    HW227909   6.025   2.935   1.612
 9004SOL     OW27910   4.705   6.487   1.816
 9004SOL    HW127911   4.743   6.579   1.827
 9004SOL    HW227912   4.712   6.459   1.720
 9005SOL     OW27913   6.019   1.816   3.734
 9005SOL    HW127914   6.081   1.824   3.812
 9005SOL    HW227915   6.031   1.727   3.691
 9006SOL     OW27916   1.352   5.904   0.781
 9006SOL    HW127917   1.434   5.931   0.832
 9006SOL    HW227918   1.270   5.934   0.831
 9007SOL     OW27919   3.747   5.538   3.476
 9007SOL    HW127920   3.728   5.468   3.407
 9007SOL    HW227921   3.713   5.508   3.565
 9008SOL     OW27922   6.148   5.373   2.913
 9008SOL    HW127923   6.213   5.310   2.872
 9008SOL    HW227924   6.055   5.336   2.906
 9009SOL     OW27925   3.431   6.729   0.502
 9009SOL    HW127926   3.418   6.731   0.601
 9009SOL    HW227927   3.405   6.639   0.466
 9010SOL     OW27928   0.562   6.681   4.756
 9010SOL    HW127929   0.617   6.704   4.837
 9010SOL    HW227930   0.623   6.647   4.684
 9011SOL     OW27931   3.848   2.398   1.362
 9011SOL    HW127932   3.868   2.314   1.412
 9011SOL    HW227933   3.873   2.386   1.266
 9012SOL     OW27934   2.885   4.759   0.717
 9012SOL    HW127935   2.984   4.745   0.711
 9012SOL    HW227936   2.865   4.825   0.789
 9013SOL     OW27937   6.214   6.296   5.059
 9013SOL    HW127938   6.149   6.312   4.985
 9013SOL    HW227939   6.250   6.203   5.053
 9014SOL     OW27940   1.135   1.791   0.489
 9014SOL    HW127941   1.177   1.806   0.578
 9014SOL    HW227942   1.036   1.780   0.500
 9015SOL     OW27943   6.097   0.522   0.058
 9015SOL    HW127944   6.123   0.483   6.992
 9015SOL    HW227945   6.146   0.607   0.073
 9016SOL     OW27946   5.929   6.102   5.969
 9016SOL    HW127947   5.900   6.026   5.910
 9016SOL    HW227948   5.940   6.185   5.913
 9017SOL     OW27949   5.615   2.105   3.534
 9017SOL    HW127950   5.696   2.056   3.500
 9017SOL    HW227951   5.533   2.056   3.505
 9018SOL     OW27952   3.996   1.455   5.415
 9018SOL    HW127953   3.964   1.550   5.413
 9018SOL    HW227954   3.988   1.419   5.508
 9019SOL     OW27955   1.679   6.881   0.610
 9019SOL    HW127956   1.598   6.823   0.622
 9019SOL    HW227957   1.762   6.827   0.623
 9020SOL     OW27958   1.800   3.509   2.188
 9020SOL    HW127959   1.850   3.565   2.122
 9020SOL    HW227960   1.826   3.413   2.179
 9021SOL     OW27961   6.489   0.143   3.979
 9021SOL    HW127962   6.539   0.205   3.918
 9021SOL    HW227963   6.482   0.185   4.070
 9022SOL     OW27964   2.826   0.921   0.772
 9022SOL    HW127965   2.733   0.891   0.792
 9022SOL    HW227966   2.874   0.940   0.858
 9023SOL     OW27967   3.979   3.240   3.080
 9023SOL    HW127968   3.894   3.251   3.029
 9023SOL    HW227969   4.001   3.326   3.127
 9024SOL     OW27970   1.820   5.608   6.162
 9024SOL    HW127971   1.804   5.533   6.097
 9024SOL    HW227972   1.852   5.688   6.113
 9025SOL     OW27973   6.626   5.948   0.880
 9025SOL    HW127974   6.635   5.901   0.968
 9025SOL    HW227975   6.710   5.997   0.860
 9026SOL     OW27976   3.839   3.331   3.497
 9026SOL    HW127977   3.785   3.389   3.436
 9026SOL    HW227978   3.778   3.273   3.551
 9027SOL     OW27979   3.128   2.185   4.033
 9027SOL    HW127980   3.139   2.169   4.131
 9027SOL    HW227981   3.105   2.099   3.988
 9028SOL     OW27982   2.357   4.633   6.376
 9028SOL    HW127983   2.409   4.589   6.449
 9028SOL    HW227984   2.409   4.709   6.338
 9029SOL     OW27985   3.840   5.362   4.764
 9029SOL    HW127986   3.800   5.452   4.750
 9029SOL    HW227987   3.780   5.292   4.726
 9030SOL     OW27988   2.108   1.173   2.393
 9030SOL    HW127989   2.026   1.224   2.420
 9030SOL    HW227990   2.099   1.078   2.422
 9031SOL     OW27991   3.821   5.015   5.541
 9031SOL    HW127992   3.873   5.099   5.530
 9031SOL    HW227993   3.761   5.024   5.621
 9032SOL     OW27994   3.876   2.683   0.772
 9032SOL    HW127995   3.877   2.777   0.737
 9032SOL    HW227996   3.946   2.673   0.843
 9033SOL     OW27997   1.367   3.703   4.057
 9033SOL    HW127998   1.326   3.713   3.967
 9033SOL    HW227999   1.458   3.745   4.057
 9034SOL     OW28000   2.775   6.363   5.225
 9034SOL    HW128001   2.739   6.387   5.135
 9034SOL    HW228002   2.724   6.285   5.262
 9035SOL     OW28003   0.370   6.511   4.888
 9035SOL    HW128004   0.343   6.592   4.940
 9035SOL    HW228005   0.445   6.535   4.827
 9036SOL     OW28006   1.482   1.889   4.465
 9036SOL    HW128007   1.432   1.865   4.382
 9036SOL    HW228008   1.427   1.864   4.545
 9037SOL     OW28009   1.609   3.502   6.248
 9037SOL    HW128010   1.532   3.450   6.211
 9037SOL    HW228011   1.578   3.594   6.273
 9038SOL     OW28012   5.222   0.138   5.914
 9038SOL    HW128013   5.226   0.048   5.872
 9038SOL    HW228014   5.156   0.136   5.989
 9039SOL     OW28015   1.850   4.688   5.096
 9039SOL    HW128016   1.878   4.779   5.067
 9039SOL    HW228017   1.767   4.661   5.046
 9040SOL     OW28018   2.651   1.897   3.672
 9040SOL    HW128019   2.718   1.947   3.728
 9040SOL    HW228020   2.591   1.844   3.732
 9041SOL     OW28021   1.062   1.727   2.043
 9041SOL    HW128022   1.012   1.714   1.958
 9041SOL    HW228023   1.120   1.808   2.036
 9042SOL     OW28024   2.784   6.167   3.481
 9042SOL    HW128025   2.852   6.102   3.516
 9042SOL    HW228026   2.810   6.260   3.507
 9043SOL     OW28027   2.382   1.529   5.426
 9043SOL    HW128028   2.403   1.614   5.379
 9043SOL    HW228029   2.423   1.452   5.376
 9044SOL     OW28030   6.491   1.210   1.200
 9044SOL    HW128031   6.430   1.287   1.219
 9044SOL    HW228032   6.559   1.202   1.272
 9045SOL     OW28033   3.289   1.834   1.920
 9045SOL    HW128034   3.289   1.796   1.828
 9045SOL    HW228035   3.346   1.916   1.923
 9046SOL     OW28036   3.334   3.982   4.408
 9046SOL    HW128037   3.356   3.927   4.489
 9046SOL    HW228038   3.392   4.064   4.407
 9047SOL     OW28039   1.440   4.132   5.285
 9047SOL    HW128040   1.428   4.061   5.355
 9047SOL    HW228041   1.374   4.118   5.211
 9048SOL     OW28042   0.022   3.031   6.145
 9048SOL    HW128043   0.090   2.978   6.196
 9048SOL    HW228044   0.068   3.081   6.071
 9049SOL     OW28045   4.678   6.546   6.987
 9049SOL    HW128046   4.766   6.593   6.978
 9049SOL    HW228047   4.660   6.493   6.904
 9050SOL     OW28048   1.357   5.602   6.364
 9050SOL    HW128049   1.426   5.557   6.308
 9050SOL    HW228050   1.348   5.554   6.451
 9051SOL     OW28051   4.552   6.246   1.001
 9051SOL    HW128052   4.472   6.209   1.048
 9051SOL    HW228053   4.602   6.173   0.956
 9052SOL     OW28054   2.164   4.281   4.243
 9052SOL    HW128055   2.142   4.209   4.309
 9052SOL    HW228056   2.103   4.273   4.164
 9053SOL     OW28057   2.204   1.929   3.495
 9053SOL    HW128058   2.137   1.866   3.457
 9053SOL    HW228059   2.247   1.982   3.421
 9054SOL     OW28060   2.195   0.476   1.658
 9054SOL    HW128061   2.146   0.394   1.686
 9054SOL    HW228062   2.137   0.530   1.597
 9055SOL     OW28063   0.128   3.827   3.445
 9055SOL    HW128064   0.151   3.894   3.374
 9055SOL    HW228065   0.210   3.779   3.474
 9056SOL     OW28066   5.191   0.481   2.349
 9056SOL    HW128067   5.279   0.447   2.314
 9056SOL    HW228068   5.139   0.521   2.274
 9057SOL     OW28069   6.430   5.097   6.200
 9057SOL    HW128070   6.489   5.109   6.121
 9057SOL    HW228071   6.442   5.004   6.237
 9058SOL     OW28072   2.278   1.456   3.906
 9058SOL    HW128073   2.185   1.419   3.905
 9058SOL    HW228074   2.344   1.383   3.891
 9059SOL     OW28075   0.041   0.849   3.591
 9059SOL    HW128076   0.054   0.754   3.562
 9059SOL    HW228077   6.971   0.879   3.569
 9060SOL     OW28078   6.586   3.968   2.399
 9060SOL    HW128079   6.540   3.879   2.404
 9060SOL    HW228080   6.521   4.040   2.423
 9061SOL     OW28081   4.312   5.483   2.281
 9061SOL    HW128082   4.340   5.577   2.266
 9061SOL    HW228083   4.223   5.467   2.239
 9062SOL     OW28084   0.955   4.713   2.663
 9062SOL    HW128085   1.035   4.679   2.713
 9062SOL    HW228086   0.889   4.639   2.652
 9063SOL     OW28087   2.962   0.529   2.318
 9063SOL    HW128088   2.924   0.439   2.337
 9063SOL    HW228089   2.933   0.559   2.227
 9064SOL     OW28090   6.243   4.396   4.016
 9064SOL    HW128091   6.166   4.341   4.049
 9064SOL    HW228092   6.295   4.343   3.949
 9065SOL     OW28093   3.242   5.771   6.521
 9065SOL    HW128094   3.232   5.743   6.617
 9065SOL    HW228095   3.187   5.853   6.504
 9066SOL     OW28096   5.964   0.319   6.471
 9066SOL    HW128097   5.891   0.329   6.539
 9066SOL    HW228098   5.986   0.222   6.460
 9067SOL     OW28099   5.779   6.234   5.202
 9067SOL    HW128100   5.836   6.182   5.266
 9067SOL    HW228101   5.721   6.170   5.151
 9068SOL     OW28102   3.094   0.433   5.038
 9068SOL    HW128103   3.066   0.529   5.039
 9068SOL    HW228104   3.184   0.424   5.082
 9069SOL     OW28105   3.717   2.084   2.241
 9069SOL    HW128106   3.675   2.121   2.158
 9069SOL    HW228107   3.804   2.041   2.217
 9070SOL     OW28108   0.975   3.031   6.116
 9070SOL    HW128109   1.048   3.091   6.083
 9070SOL    HW228110   0.893   3.046   6.061
 9071SOL     OW28111   5.204   6.985   0.476
 9071SOL    HW128112   5.206   0.010   0.564
 9071SOL    HW228113   5.113   6.996   0.435
 9072SOL     OW28114   4.934   0.218   1.608
 9072SOL    HW128115   5.033   0.231   1.616
 9072SOL    HW228116   4.910   0.206   1.511
 9073SOL     OW28117   3.364   6.923   0.973
 9073SOL    HW128118   3.324   6.855   0.912
 9073SOL    HW228119   3.358   6.891   1.067
 9074SOL     OW28120   1.948   0.631   1.512
 9074SOL    HW128121   1.883   0.556   1.504
 9074SOL    HW228122   1.984   0.655   1.422
 9075SOL     OW28123   0.456   0.308   1.503
 9075SOL    HW128124   0.476   0.245   1.578
 9075SOL    HW228125   0.538   0.318   1.445
 9076SOL     OW28126   5.163   1.785   4.767
 9076SOL    HW128127   5.222   1.866   4.756
 9076SOL    HW228128   5.164   1.732   4.682
 9077SOL     OW28129   5.373   1.212   6.548
 9077SOL    HW128130   5.371   1.114   6.528
 9077SOL    HW228131   5.384   1.225   6.646
 9078SOL     OW28132   4.666   3.646   0.196
 9078SOL    HW128133   4.700   3.592   0.273
 9078SOL    HW228134   4.589   3.600   0.153
 9079SOL     OW28135   1.947   6.753   4.399
 9079SOL    HW128136   1.912   6.812   4.326
 9079SOL    HW228137   1.928   6.658   4.376
 9080SOL     OW28138   6.190   2.627   0.317
 9080SOL    HW128139   6.265   2.563   0.332
 9080SOL    HW228140   6.169   2.632   0.219
 9081SOL     OW28141   3.210   0.735   2.412
 9081SOL    HW128142   3.231   0.711   2.507
 9081SOL    HW228143   3.118   0.703   2.389
 9082SOL     OW28144   2.161   6.263   5.535
 9082SOL    HW128145   2.075   6.314   5.543
 9082SOL    HW228146   2.238   6.325   5.548
 9083SOL     OW28147   3.831   4.643   5.910
 9083SOL    HW128148   3.786   4.645   5.999
 9083SOL    HW228149   3.783   4.580   5.849
 9084SOL     OW28150   1.501   2.361   6.561
 9084SOL    HW128151   1.501   2.461   6.550
 9084SOL    HW228152   1.553   2.320   6.486
 9085SOL     OW28153   1.646   5.289   1.115
 9085SOL    HW128154   1.673   5.203   1.072
 9085SOL    HW228155   1.700   5.304   1.198
 9086SOL     OW28156   6.332   4.354   1.580
 9086SOL    HW128157   6.400   4.311   1.641
 9086SOL    HW228158   6.375   4.375   1.492
 9087SOL     OW28159   4.962   3.238   1.990
 9087SOL    HW128160   4.881   3.180   2.000
 9087SOL    HW228161   4.951   3.319   2.049
 9088SOL     OW28162   7.011   6.867   0.524
 9088SOL    HW128163   0.086   6.846   0.528
 9088SOL    HW228164   6.998   6.963   0.500
 9089SOL     OW28165   3.849   6.006   5.922
 9089SOL    HW128166   3.799   6.007   5.836
 9089SOL    HW228167   3.895   5.918   5.933
 9090SOL     OW28168   5.195   6.993   3.560
 9090SOL    HW128169   5.119   6.928   3.549
 9090SOL    HW228170   5.194   0.036   3.485
 9091SOL     OW28171   2.536   3.384   0.511
 9091SOL    HW128172   2.561   3.480   0.521
 9091SOL    HW228173   2.609   3.327   0.548
 9092SOL     OW28174   0.235   1.581   6.689
 9092SOL    HW128175   0.208   1.491   6.723
 9092SOL    HW228176   0.333   1.582   6.671
 9093SOL     OW28177   1.478   6.333   6.393
 9093SOL    HW128178   1.526   6.420   6.380
 9093SOL    HW228179   1.542   6.264   6.425
 9094SOL     OW28180   0.211   5.551   3.063
 9094SOL    HW128181   0.223   5.650   3.072
 9094SOL    HW228182   0.301   5.506   3.069
 9095SOL     OW28183   3.999   3.909   6.067
 9095SOL    HW128184   4.025   3.813   6.052
 9095SOL    HW228185   4.064   3.968   6.019
 9096SOL     OW28186   5.714   4.239   2.294
 9096SOL    HW128187   5.744   4.161   2.348
 9096SOL    HW228188   5.747   4.229   2.200
 9097SOL     OW28189   0.619   2.817   6.491
 9097SOL    HW128190   0.669   2.879   6.551
 9097SOL    HW228191   0.627   2.849   6.396
 9098SOL     OW28192   3.832   2.921   6.762
 9098SOL    HW128193   3.785   2.833   6.765
 9098SOL    HW228194   3.843   2.949   6.667
 9099SOL     OW28195   3.748   4.363   0.661
 9099SOL    HW128196   3.824   4.316   0.616
 9099SOL    HW228197   3.710   4.305   0.733
 9100SOL     OW28198   1.195   3.611   3.131
 9100SOL    HW128199   1.288   3.616   3.167
 9100SOL    HW228200   1.170   3.700   3.092
 9101SOL     OW28201   2.219   3.052   3.237
 9101SOL    HW128202   2.190   3.070   3.143
 9101SOL    HW228203   2.290   3.117   3.263
 9102SOL     OW28204   2.932   0.083   1.790
 9102SOL    HW128205   2.869   0.089   1.712
 9102SOL    HW228206   2.957   7.010   1.806
 9103SOL     OW28207   6.723   4.155   0.326
 9103SOL    HW128208   6.732   4.182   0.422
 9103SOL    HW228209   6.715   4.056   0.320
 9104SOL     OW28210   4.784   6.660   3.256
 9104SOL    HW128211   4.787   6.685   3.160
 9104SOL    HW228212   4.790   6.742   3.313
 9105SOL     OW28213   1.908   1.067   0.783
 9105SOL    HW128214   1.975   1.139   0.766
 9105SOL    HW228215   1.871   1.076   0.875
 9106SOL     OW28216   6.443   4.371   0.705
 9106SOL    HW128217   6.423   4.278   0.677
 9106SOL    HW228218   6.454   4.429   0.624
 9107SOL     OW28219   3.339   0.462   5.995
 9107SOL    HW128220   3.309   0.546   5.950
 9107SOL    HW228221   3.385   0.485   6.081
 9108SOL     OW28222   5.047   3.785   6.146
 9108SOL    HW128223   5.122   3.753   6.205
 9108SOL    HW228224   5.000   3.705   6.107
 9109SOL     OW28225   0.592   2.826   2.860
 9109SOL    HW128226   0.495   2.800   2.858
 9109SOL    HW228227   0.648   2.747   2.883
 9110SOL     OW28228   1.941   4.257   4.086
 9110SOL    HW128229   1.865   4.273   4.148
 9110SOL    HW228230   1.962   4.341   4.037
 9111SOL     OW28231   4.244   2.700   0.163
 9111SOL    HW128232   4.253   2.799   0.168
 9111SOL    HW228233   4.210   2.665   0.250
 9112SOL     OW28234   0.809   5.130   5.226
 9112SOL    HW128235   0.820   5.035   5.197
 9112SOL    HW228236   0.785   5.132   5.324
 9113SOL     OW28237   4.758   7.003   1.533
 9113SOL    HW128238   4.788   6.922   1.583
 9113SOL    HW228239   4.700   0.037   1.592
 9114SOL     OW28240   1.598   4.662   1.841
 9114SOL    HW128241   1.596   4.691   1.746
 9114SOL    HW228242   1.539   4.583   1.854
 9115SOL     OW28243   0.966   4.895   5.127
 9115SOL    HW128244   0.931   4.893   5.033
 9115SOL    HW228245   1.062   4.866   5.127
 9116SOL     OW28246   6.223   0.776   0.086
 9116SOL    HW128247   6.218   0.828   0.001
 9116SOL    HW228248   6.313   0.733   0.093
 9117SOL     OW28249   5.932   2.739   0.363
 9117SOL    HW128250   5.884   2.735   0.450
 9117SOL    HW228251   6.018   2.690   0.370
 9118SOL     OW28252   6.527   4.815   0.416
 9118SOL    HW128253   6.482   4.726   0.406
 9118SOL    HW228254   6.504   4.855   0.505
 9119SOL     OW28255   4.456   0.375   1.596
 9119SOL    HW128256   4.505   0.439   1.536
 9119SOL    HW228257   4.407   0.426   1.667
 9120SOL     OW28258   6.035   2.176   6.616
 9120SOL    HW128259   5.990   2.245   6.557
 9120SOL    HW228260   6.131   2.199   6.626
 9121SOL     OW28261   2.443   2.439   5.678
 9121SOL    HW128262   2.433   2.531   5.641
 9121SOL    HW228263   2.508   2.387   5.622
 9122SOL     OW28264   1.948   4.267   2.417
 9122SOL    HW128265   1.866   4.240   2.466
 9122SOL    HW228266   1.927   4.343   2.355
 9123SOL     OW28267   3.079   0.295   4.293
 9123SOL    HW128268   2.982   0.275   4.288
 9123SOL    HW228269   3.122   0.234   4.360
 9124SOL     OW28270   5.470   6.608   0.014
 9124SOL    HW128271   5.482   6.691   6.981
 9124SOL    HW228272   5.544   6.602   0.080
 9125SOL     OW28273   5.136   4.397   1.436
 9125SOL    HW128274   5.053   4.343   1.449
 9125SOL    HW228275   5.123   4.460   1.360
 9126SOL     OW28276   5.955   3.215   1.818
 9126SOL    HW128277   5.944   3.314   1.823
 9126SOL    HW228278   5.955   3.187   1.722
 9127SOL     OW28279   6.270   1.114   5.890
 9127SOL    HW128280   6.184   1.065   5.878
 9127SOL    HW228281   6.273   1.155   5.981
 9128SOL     OW28282   5.599   1.886   5.848
 9128SOL    HW128283   5.666   1.820   5.813
 9128SOL    HW228284   5.530   1.837   5.902
 9129SOL     OW28285   0.508   2.310   1.095
 9129SOL    HW128286   0.521   2.373   1.019
 9129SOL    HW228287   0.456   2.356   1.167
 9130SOL     OW28288   0.490   3.043   0.653
 9130SOL    HW128289   0.437   2.979   0.709
 9130SOL    HW228290   0.527   3.115   0.710
 9131SOL     OW28291   6.022   2.935   5.320
 9131SOL    HW128292   6.021   3.020   5.266
 9131SOL    HW228293   6.116   2.903   5.330
 9132SOL     OW28294   1.202   5.328   4.336
 9132SOL    HW128295   1.129   5.393   4.357
 9132SOL    HW228296   1.269   5.371   4.276
 9133SOL     OW28297   3.953   5.656   2.474
 9133SOL    HW128298   3.995   5.692   2.390
 9133SOL    HW228299   4.002   5.692   2.554
 9134SOL     OW28300   5.420   5.422   0.730
 9134SOL    HW128301   5.376   5.351   0.786
 9134SOL    HW228302   5.518   5.407   0.729
 9135SOL     OW28303   6.397   6.711   1.445
 9135SOL    HW128304   6.434   6.658   1.369
 9135SOL    HW228305   6.299   6.727   1.430
 9136SOL     OW28306   5.437   5.209   6.397
 9136SOL    HW128307   5.377   5.136   6.428
 9136SOL    HW228308   5.456   5.272   6.473
 9137SOL     OW28309   4.770   1.361   1.524
 9137SOL    HW128310   4.715   1.287   1.562
 9137SOL    HW228311   4.714   1.415   1.461
 9138SOL     OW28312   0.390   5.542   5.908
 9138SOL    HW128313   0.430   5.476   5.846
 9138SOL    HW228314   0.407   5.514   6.003
 9139SOL     OW28315   2.639   1.565   4.101
 9139SOL    HW128316   2.681   1.650   4.132
 9139SOL    HW228317   2.705   1.513   4.046
 9140SOL     OW28318   6.327   3.930   3.097
 9140SOL    HW128319   6.313   3.836   3.128
 9140SOL    HW228320   6.264   3.990   3.144
 9141SOL     OW28321   5.842   0.244   0.424
 9141SOL    HW128322   5.877   0.162   0.379
 9141SOL    HW228323   5.778   0.291   0.364
 9142SOL     OW28324   0.522   2.570   1.487
 9142SOL    HW128325   0.578   2.495   1.520
 9142SOL    HW228326   0.573   2.622   1.418
 9143SOL     OW28327   6.608   3.463   0.234
 9143SOL    HW128328   6.601   3.373   0.190
 9143SOL    HW228329   6.603   3.452   0.333
 9144SOL     OW28330   2.299   5.284   5.345
 9144SOL    HW128331   2.389   5.242   5.334
 9144SOL    HW228332   2.269   5.322   5.258
 9145SOL     OW28333   0.175   5.514   0.267
 9145SOL    HW128334   0.184   5.558   0.356
 9145SOL    HW228335   0.258   5.529   0.213
 9146SOL     OW28336   5.275   2.796   3.152
 9146SOL    HW128337   5.319   2.748   3.077
 9146SOL    HW228338   5.334   2.869   3.185
 9147SOL     OW28339   5.842   0.535   4.617
 9147SOL    HW128340   5.863   0.472   4.543
 9147SOL    HW228341   5.926   0.559   4.666
 9148SOL     OW28342   5.355   5.990   0.965
 9148SOL    HW128343   5.422   5.929   1.007
 9148SOL    HW228344   5.263   5.957   0.984
 9149SOL     OW28345   6.126   3.387   3.522
 9149SOL    HW128346   6.212   3.420   3.561
 9149SOL    HW228347   6.143   3.304   3.469
 9150SOL     OW28348   3.248   5.576   1.706
 9150SOL    HW128349   3.208   5.493   1.665
 9150SOL    HW228350   3.281   5.554   1.798
 9151SOL     OW28351   2.089   4.500   3.156
 9151SOL    HW128352   2.071   4.521   3.252
 9151SOL    HW228353   2.125   4.407   3.148
 9152SOL     OW28354   1.848   4.283   4.528
 9152SOL    HW128355   1.896   4.201   4.559
 9152SOL    HW228356   1.881   4.363   4.579
 9153SOL     OW28357   1.166   3.358   6.409
 9153SOL    HW128358   1.240   3.400   6.462
 9153SOL    HW228359   1.096   3.323   6.471
 9154SOL     OW28360   4.154   4.722   0.153
 9154SOL    HW128361   4.168   4.642   0.093
 9154SOL    HW228362   4.214   4.714   0.232
 9155SOL     OW28363   1.494   3.815   2.074
 9155SOL    HW128364   1.402   3.846   2.099
 9155SOL    HW228365   1.509   3.833   1.977
 9156SOL     OW28366   1.044   2.179   0.122
 9156SOL    HW128367   1.100   2.182   0.204
 9156SOL    HW228368   1.096   2.218   0.045
 9157SOL     OW28369   6.936   4.090   6.119
 9157SOL    HW128370   0.007   4.061   6.140
 9157SOL    HW228371   6.927   4.104   6.020
 9158SOL     OW28372   5.486   3.171   4.635
 9158SOL    HW128373   5.470   3.207   4.543
 9158SOL    HW228374   5.579   3.134   4.642
 9159SOL     OW28375   1.836   0.469   2.449
 9159SOL    HW128376   1.807   0.562   2.428
 9159SOL    HW228377   1.931   0.469   2.479
 9160SOL     OW28378   5.675   7.008   5.542
 9160SOL    HW128379   5.731   6.934   5.505
 9160SOL    HW228380   5.708   0.010   5.633
 9161SOL     OW28381   4.986   4.311   4.616
 9161SOL    HW128382   5.007   4.396   4.664
 9161SOL    HW228383   5.004   4.233   4.676
 9162SOL     OW28384   4.630   1.204   3.944
 9162SOL    HW128385   4.721   1.174   3.973
 9162SOL    HW228386   4.621   1.302   3.957
 9163SOL     OW28387   1.520   2.522   4.703
 9163SOL    HW128388   1.457   2.512   4.780
 9163SOL    HW228389   1.605   2.564   4.735
 9164SOL     OW28390   2.396   0.142   6.693
 9164SOL    HW128391   2.327   0.165   6.760
 9164SOL    HW228392   2.486   0.142   6.737
 9165SOL     OW28393   6.119   1.340   5.751
 9165SOL    HW128394   6.171   1.285   5.816
 9165SOL    HW228395   6.102   1.431   5.789
 9166SOL     OW28396   3.834   5.819   1.795
 9166SOL    HW128397   3.828   5.887   1.722
 9166SOL    HW228398   3.907   5.846   1.859
 9167SOL     OW28399   1.846   2.812   6.093
 9167SOL    HW128400   1.777   2.773   6.154
 9167SOL    HW228401   1.875   2.742   6.027
 9168SOL     OW28402   6.902   6.853   6.242
 9168SOL    HW128403   6.954   6.926   6.287
 9168SOL    HW228404   6.832   6.893   6.183
 9169SOL     OW28405   5.913   6.889   5.418
 9169SOL    HW128406   5.939   6.792   5.420
 9169SOL    HW228407   5.963   6.938   5.489
 9170SOL     OW28408   1.578   6.354   6.831
 9170SOL    HW128409   1.491   6.332   6.788
 9170SOL    HW228410   1.649   6.292   6.797
 9171SOL     OW28411   4.469   5.175   0.834
 9171SOL    HW128412   4.539   5.173   0.905
 9171SOL    HW228413   4.400   5.244   0.857
 9172SOL     OW28414   4.521   1.488   2.400
 9172SOL    HW128415   4.492   1.572   2.447
 9172SOL    HW228416   4.531   1.415   2.467
 9173SOL     OW28417   6.487   3.596   5.819
 9173SOL    HW128418   6.572   3.548   5.840
 9173SOL    HW228419   6.463   3.657   5.894
 9174SOL     OW28420   6.221   4.094   1.206
 9174SOL    HW128421   6.164   4.067   1.284
 9174SOL    HW228422   6.290   4.024   1.189
 9175SOL     OW28423   0.696   7.019   5.547
 9175SOL    HW128424   0.721   6.923   5.534
 9175SOL    HW228425   0.626   0.004   5.618
 9176SOL     OW28426   2.267   1.042   3.879
 9176SOL    HW128427   2.182   1.061   3.829
 9176SOL    HW228428   2.273   0.944   3.897
 9177SOL     OW28429   0.836   4.465   4.460
 9177SOL    HW128430   0.844   4.442   4.557
 9177SOL    HW228431   0.793   4.555   4.450
 9178SOL     OW28432   1.893   5.707   0.533
 9178SOL    HW128433   1.946   5.700   0.449
 9178SOL    HW228434   1.882   5.615   0.573
 9179SOL     OW28435   2.230   4.344   3.803
 9179SOL    HW128436   2.254   4.247   3.796
 9179SOL    HW228437   2.313   4.398   3.815
 9180SOL     OW28438   6.665   2.715   3.466
 9180SOL    HW128439   6.762   2.730   3.445
 9180SOL    HW228440   6.620   2.674   3.386
 9181SOL     OW28441   5.537   2.709   4.975
 9181SOL    HW128442   5.506   2.621   4.938
 9181SOL    HW228443   5.580   2.762   4.902
 9182SOL     OW28444   2.713   6.589   2.447
 9182SOL    HW128445   2.637   6.635   2.402
 9182SOL    HW228446   2.682   6.552   2.535
 9183SOL     OW28447   4.588   5.130   0.570
 9183SOL    HW128448   4.502   5.142   0.522
 9183SOL    HW228449   4.571   5.129   0.669
 9184SOL     OW28450   4.947   2.585   0.270
 9184SOL    HW128451   4.882   2.564   0.343
 9184SOL    HW228452   4.910   2.659   0.213
 9185SOL     OW28453   4.998   6.532   5.105
 9185SOL    HW128454   4.907   6.553   5.140
 9185SOL    HW228455   5.064   6.601   5.138
 9186SOL     OW28456   5.981   5.850   5.097
 9186SOL    HW128457   6.074   5.846   5.135
 9186SOL    HW228458   5.974   5.927   5.034
 9187SOL     OW28459   3.124   2.106   0.442
 9187SOL    HW128460   3.220   2.104   0.470
 9187SOL    HW228461   3.101   2.019   0.398
 9188SOL     OW28462   1.592   6.978   1.359
 9188SOL    HW128463   1.636   7.006   1.444
 9188SOL    HW228464   1.643   6.901   1.320
 9189SOL     OW28465   2.906   6.130   1.971
 9189SOL    HW128466   2.844   6.114   1.894
 9189SOL    HW228467   2.997   6.095   1.948
 9190SOL     OW28468   1.914   4.682   5.558
 9190SOL    HW128469   1.919   4.641   5.467
 9190SOL    HW228470   1.998   4.733   5.576
 9191SOL     OW28471   6.153   1.452   6.538
 9191SOL    HW128472   6.165   1.423   6.633
 9191SOL    HW228473   6.204   1.390   6.478
 9192SOL     OW28474   0.762   2.305   6.013
 9192SOL    HW128475   0.850   2.352   6.025
 9192SOL    HW228476   0.725   2.280   6.102
 9193SOL     OW28477   3.794   4.024   5.688
 9193SOL    HW128478   3.724   4.072   5.740
 9193SOL    HW228479   3.770   4.024   5.591
 9194SOL     OW28480   3.513   1.039   3.181
 9194SOL    HW128481   3.509   1.128   3.226
 9194SOL    HW228482   3.586   1.039   3.112
 9195SOL     OW28483   0.442   2.373   2.590
 9195SOL    HW128484   0.346   2.366   2.616
 9195SOL    HW228485   0.453   2.443   2.519
 9196SOL     OW28486   5.799   0.523   3.483
 9196SOL    HW128487   5.716   0.558   3.440
 9196SOL    HW228488   5.817   0.575   3.567
 9197SOL     OW28489   1.883   4.952   1.327
 9197SOL    HW128490   1.811   4.943   1.258
 9197SOL    HW228491   1.972   4.956   1.281
 9198SOL     OW28492   6.194   4.554   6.548
 9198SOL    HW128493   6.190   4.456   6.527
 9198SOL    HW228494   6.261   4.599   6.489
 9199SOL     OW28495   0.689   3.325   5.129
 9199SOL    HW128496   0.649   3.329   5.038
 9199SOL    HW228497   0.618   3.343   5.197
 9200SOL     OW28498   3.202   6.169   0.012
 9200SOL    HW128499   3.155   6.256   0.028
 9200SOL    HW228500   3.188   6.140   6.939
 9201SOL     OW28501   0.483   3.368   0.304
 9201SOL    HW128502   0.394   3.387   0.263
 9201SOL    HW228503   0.556   3.388   0.238
 9202SOL     OW28504   0.724   6.489   2.741
 9202SOL    HW128505   0.808   6.438   2.761
 9202SOL    HW228506   0.724   6.517   2.645
 9203SOL     OW28507   6.927   3.349   5.726
 9203SOL    HW128508   6.911   3.388   5.635
 9203SOL    HW228509   6.924   3.250   5.720
 9204SOL     OW28510   4.343   3.025   5.355
 9204SOL    HW128511   4.293   3.110   5.340
 9204SOL    HW228512   4.441   3.041   5.339
 9205SOL     OW28513   4.903   6.288   3.012
 9205SOL    HW128514   4.879   6.380   3.043
 9205SOL    HW228515   4.957   6.242   3.083
 9206SOL     OW28516   3.572   4.909   3.699
 9206SOL    HW128517   3.542   5.005   3.698
 9206SOL    HW228518   3.580   4.877   3.604
 9207SOL     OW28519   5.301   4.639   6.252
 9207SOL    HW128520   5.232   4.614   6.184
 9207SOL    HW228521   5.392   4.629   6.213
 9208SOL     OW28522   5.685   4.731   3.956
 9208SOL    HW128523   5.725   4.669   3.888
 9208SOL    HW228524   5.594   4.699   3.981
 9209SOL     OW28525   4.538   0.589   0.379
 9209SOL    HW128526   4.516   0.639   0.295
 9209SOL    HW228527   4.460   0.533   0.406
 9210SOL     OW28528   0.942   1.644   1.780
 9210SOL    HW128529   0.921   1.578   1.852
 9210SOL    HW228530   0.977   1.597   1.700
 9211SOL     OW28531   6.730   2.972   5.898
 9211SOL    HW128532   6.647   3.021   5.874
 9211SOL    HW228533   6.716   2.874   5.885
 9212SOL     OW28534   4.335   5.560   4.251
 9212SOL    HW128535   4.434   5.550   4.243
 9212SOL    HW228536   4.293   5.469   4.253
 9213SOL     OW28537   5.542   3.833   5.380
 9213SOL    HW128538   5.616   3.821   5.314
 9213SOL    HW228539   5.454   3.813   5.336
 9214SOL     OW28540   0.013   3.942   5.742
 9214SOL    HW128541   6.965   3.949   5.670
 9214SOL    HW228542   0.102   3.927   5.699
 9215SOL     OW28543   1.722   3.081   1.981
 9215SOL    HW128544   1.651   3.130   1.931
 9215SOL    HW228545   1.783   3.034   1.917
 9216SOL     OW28546   3.482   0.051   2.395
 9216SOL    HW128547   3.408   0.047   2.328
 9216SOL    HW228548   3.539   0.132   2.377
 9217SOL     OW28549   6.923   3.148   6.789
 9217SOL    HW128550   6.867   3.120   6.867
 9217SOL    HW228551   6.864   3.170   6.711
 9218SOL     OW28552   2.080   0.929   6.875
 9218SOL    HW128553   1.991   0.962   6.844
 9218SOL    HW228554   2.142   1.006   6.885
 9219SOL     OW28555   5.959   3.423   0.132
 9219SOL    HW128556   5.907   3.375   0.202
 9219SOL    HW228557   5.907   3.502   0.099
 9220SOL     OW28558   1.050   5.970   1.527
 9220SOL    HW128559   1.106   5.887   1.528
 9220SOL    HW228560   0.974   5.958   1.463
 9221SOL     OW28561   2.293   0.692   2.970
 9221SOL    HW128562   2.248   0.755   3.033
 9221SOL    HW228563   2.227   0.662   2.900
 9222SOL     OW28564   2.708   5.845   6.032
 9222SOL    HW128565   2.687   5.750   6.052
 9222SOL    HW228566   2.769   5.850   5.953
 9223SOL     OW28567   1.148   2.039   4.217
 9223SOL    HW128568   1.118   2.045   4.312
 9223SOL    HW228569   1.071   2.015   4.158
 9224SOL     OW28570   1.259   5.440   3.929
 9224SOL    HW128571   1.160   5.425   3.929
 9224SOL    HW228572   1.280   5.528   3.888
 9225SOL     OW28573   3.110   6.354   6.710
 9225SOL    HW128574   3.107   6.431   6.774
 9225SOL    HW228575   3.089   6.386   6.618
 9226SOL     OW28576   6.083   6.312   1.451
 9226SOL    HW128577   6.094   6.404   1.413
 9226SOL    HW228578   5.990   6.302   1.487
 9227SOL     OW28579   1.981   5.929   0.691
 9227SOL    HW128580   2.057   5.944   0.755
 9227SOL    HW228581   1.970   5.832   0.675
 9228SOL     OW28582   2.374   1.879   6.279
 9228SOL    HW128583   2.315   1.825   6.218
 9228SOL    HW228584   2.401   1.963   6.232
 9229SOL     OW28585   1.032   5.966   5.100
 9229SOL    HW128586   0.991   5.936   5.014
 9229SOL    HW228587   0.961   5.975   5.170
 9230SOL     OW28588   5.595   2.286   3.330
 9230SOL    HW128589   5.610   2.237   3.416
 9230SOL    HW228590   5.497   2.289   3.309
 9231SOL     OW28591   0.711   2.837   4.390
 9231SOL    HW128592   0.620   2.860   4.424
 9231SOL    HW228593   0.708   2.829   4.290
 9232SOL     OW28594   4.235   5.505   0.368
 9232SOL    HW128595   4.323   5.534   0.331
 9232SOL    HW228596   4.169   5.580   0.362
 9233SOL     OW28597   5.546   5.763   1.694
 9233SOL    HW128598   5.564   5.834   1.762
 9233SOL    HW228599   5.449   5.762   1.672
 9234SOL     OW28600   3.555   5.760   6.885
 9234SOL    HW128601   3.488   5.771   6.958
 9234SOL    HW228602   3.621   5.689   6.911
 9235SOL     OW28603   1.469   3.371   3.530
 9235SOL    HW128604   1.421   3.327   3.605
 9235SOL    HW228605   1.493   3.303   3.461
 9236SOL     OW28606   1.773   4.449   6.060
 9236SOL    HW128607   1.779   4.472   5.963
 9236SOL    HW228608   1.864   4.446   6.100
 9237SOL     OW28609   0.728   6.285   4.143
 9237SOL    HW128610   0.669   6.365   4.130
 9237SOL    HW228611   0.690   6.227   4.214
 9238SOL     OW28612   2.560   1.686   0.157
 9238SOL    HW128613   2.602   1.759   0.103
 9238SOL    HW228614   2.464   1.675   0.129
 9239SOL     OW28615   6.848   3.641   6.962
 9239SOL    HW128616   6.877   3.736   6.960
 9239SOL    HW228617   6.795   3.623   0.022
 9240SOL     OW28618   5.055   2.159   2.235
 9240SOL    HW128619   5.079   2.126   2.326
 9240SOL    HW228620   4.972   2.215   2.240
 9241SOL     OW28621   1.282   5.578   5.589
 9241SOL    HW128622   1.261   5.481   5.575
 9241SOL    HW228623   1.219   5.633   5.535
 9242SOL     OW28624   0.874   4.697   0.016
 9242SOL    HW128625   0.866   4.746   0.103
 9242SOL    HW228626   0.803   4.728   6.976
 9243SOL     OW28627   0.136   6.383   1.489
 9243SOL    HW128628   0.046   6.371   1.532
 9243SOL    HW228629   0.125   6.434   1.403
 9244SOL     OW28630   4.062   5.629   6.804
 9244SOL    HW128631   4.087   5.726   6.801
 9244SOL    HW228632   4.140   5.573   6.776
 9245SOL     OW28633   1.857   5.179   3.226
 9245SOL    HW128634   1.944   5.171   3.177
 9245SOL    HW228635   1.810   5.091   3.225
 9246SOL     OW28636   6.671   5.237   2.257
 9246SOL    HW128637   6.652   5.140   2.245
 9246SOL    HW228638   6.620   5.290   2.190
 9247SOL     OW28639   1.434   6.807   3.244
 9247SOL    HW128640   1.524   6.851   3.256
 9247SOL    HW228641   1.378   6.825   3.325
 9248SOL     OW28642   2.565   2.265   4.659
 9248SOL    HW128643   2.467   2.244   4.666
 9248SOL    HW228644   2.587   2.287   4.564
 9249SOL     OW28645   3.606   3.870   0.552
 9249SOL    HW128646   3.527   3.900   0.604
 9249SOL    HW228647   3.686   3.865   0.612
 9250SOL     OW28648   5.767   3.149   3.879
 9250SOL    HW128649   5.797   3.241   3.902
 9250SOL    HW228650   5.714   3.111   3.955
 9251SOL     OW28651   3.805   1.673   2.863
 9251SOL    HW128652   3.713   1.640   2.883
 9251SOL    HW228653   3.826   1.750   2.924
 9252SOL     OW28654   5.192   6.923   4.012
 9252SOL    HW128655   5.223   6.985   3.940
 9252SOL    HW228656   5.147   6.844   3.971
 9253SOL     OW28657   5.744   6.341   5.621
 9253SOL    HW128658   5.651   6.374   5.637
 9253SOL    HW228659   5.808   6.397   5.673
 9254SOL     OW28660   6.229   4.684   2.949
 9254SOL    HW128661   6.175   4.766   2.966
 9254SOL    HW228662   6.170   4.604   2.952
 9255SOL     OW28663   4.377   4.169   0.098
 9255SOL    HW128664   4.397   4.261   0.132
 9255SOL    HW228665   4.404   4.162   0.002
 9256SOL     OW28666   2.992   0.136   2.709
 9256SOL    HW128667   2.946   0.115   2.623
 9256SOL    HW228668   3.075   0.190   2.690
 9257SOL     OW28669   0.235   3.906   3.052
 9257SOL    HW128670   0.148   3.870   3.019
 9257SOL    HW228671   0.219   3.966   3.130
 9258SOL     OW28672   3.120   3.102   2.149
 9258SOL    HW128673   3.031   3.144   2.132
 9258SOL    HW228674   3.112   3.035   2.222
 9259SOL     OW28675   1.257   2.201   0.345
 9259SOL    HW128676   1.308   2.134   0.398
 9259SOL    HW228677   1.298   2.212   0.254
 9260SOL     OW28678   5.663   1.327   4.537
 9260SOL    HW128679   5.578   1.334   4.588
 9260SOL    HW228680   5.661   1.390   4.459
 9261SOL     OW28681   3.042   1.187   0.295
 9261SOL    HW128682   3.076   1.159   0.385
 9261SOL    HW228683   2.984   1.268   0.306
 9262SOL     OW28684   0.141   4.459   5.488
 9262SOL    HW128685   0.065   4.395   5.479
 9262SOL    HW228686   0.140   4.523   5.412
 9263SOL     OW28687   5.069   0.039   0.911
 9263SOL    HW128688   5.038   0.036   1.006
 9263SOL    HW228689   4.993   0.069   0.853
 9264SOL     OW28690   4.580   5.350   0.239
 9264SOL    HW128691   4.660   5.381   0.187
 9264SOL    HW228692   4.496   5.375   0.190
 9265SOL     OW28693   4.039   1.736   0.532
 9265SOL    HW128694   4.014   1.675   0.457
 9265SOL    HW228695   4.095   1.811   0.497
 9266SOL     OW28696   2.310   6.984   1.296
 9266SOL    HW128697   2.254   6.907   1.328
 9266SOL    HW228698   2.305   6.988   1.196
 9267SOL     OW28699   6.654   3.176   4.597
 9267SOL    HW128700   6.670   3.093   4.650
 9267SOL    HW228701   6.625   3.152   4.505
 9268SOL     OW28702   0.807   5.071   2.324
 9268SOL    HW128703   0.776   5.024   2.406
 9268SOL    HW228704   0.906   5.087   2.330
 9269SOL     OW28705   3.031   1.324   6.403
 9269SOL    HW128706   3.124   1.322   6.366
 9269SOL    HW228707   2.971   1.271   6.343
 9270SOL     OW28708   4.348   6.521   6.224
 9270SOL    HW128709   4.249   6.511   6.213
 9270SOL    HW228710   4.388   6.551   6.137
 9271SOL     OW28711   6.239   6.911   0.285
 9271SOL    HW128712   6.245   6.842   0.357
 9271SOL    HW228713   6.221   7.000   0.325
 9272SOL     OW28714   1.206   6.064   4.662
 9272SOL    HW128715   1.207   6.082   4.760
 9272SOL    HW228716   1.141   6.126   4.618
 9273SOL     OW28717   6.018   6.756   3.235
 9273SOL    HW128718   5.972   6.804   3.310
 9273SOL    HW228719   5.996   6.801   3.148
 9274SOL     OW28720   6.693   2.056   6.592
 9274SOL    HW128721   6.790   2.073   6.613
 9274SOL    HW228722   6.645   2.143   6.586
 9275SOL     OW28723   6.858   0.666   0.058
 9275SOL    HW128724   6.828   0.621   6.997
 9275SOL    HW228725   6.910   0.749   0.034
 9276SOL     OW28726   1.941   3.594   1.936
 9276SOL    HW128727   2.005   3.671   1.931
 9276SOL    HW228728   1.988   3.511   1.906
 9277SOL     OW28729   4.458   3.552   0.079
 9277SOL    HW128730   4.363   3.532   0.103
 9277SOL    HW228731   4.476   3.523   7.007
 9278SOL     OW28732   1.883   0.530   5.894
 9278SOL    HW128733   1.821   0.607   5.883
 9278SOL    HW228734   1.971   0.551   5.850
 9279SOL     OW28735   4.381   0.982   1.885
 9279SOL    HW128736   4.443   0.964   1.809
 9279SOL    HW228737   4.433   0.984   1.971
 9280SOL     OW28738   1.930   1.804   3.389
 9280SOL    HW128739   1.887   1.716   3.366
 9280SOL    HW228740   1.883   1.877   3.340
 9281SOL     OW28741   2.743   4.169   0.125
 9281SOL    HW128742   2.701   4.247   0.078
 9281SOL    HW228743   2.675   4.125   0.184
 9282SOL     OW28744   4.895   1.127   4.011
 9282SOL    HW128745   4.915   1.053   4.076
 9282SOL    HW228746   4.934   1.104   3.922
 9283SOL     OW28747   5.311   0.704   4.127
 9283SOL    HW128748   5.335   0.700   4.031
 9283SOL    HW228749   5.266   0.618   4.154
 9284SOL     OW28750   3.443   3.395   5.984
 9284SOL    HW128751   3.453   3.295   5.979
 9284SOL    HW228752   3.520   3.438   5.937
 9285SOL     OW28753   4.809   2.770   0.562
 9285SOL    HW128754   4.782   2.729   0.475
 9285SOL    HW228755   4.907   2.753   0.579
 9286SOL     OW28756   5.416   5.903   0.522
 9286SOL    HW128757   5.439   5.956   0.604
 9286SOL    HW228758   5.333   5.940   0.481
 9287SOL     OW28759   3.282   5.132   0.069
 9287SOL    HW128760   3.331   5.077   0.002
 9287SOL    HW228761   3.336   5.140   0.152
 9288SOL     OW28762   4.830   1.449   3.475
 9288SOL    HW128763   4.840   1.449   3.574
 9288SOL    HW228764   4.747   1.499   3.449
 9289SOL     OW28765   3.913   1.138   2.332
 9289SOL    HW128766   3.952   1.217   2.285
 9289SOL    HW228767   3.814   1.139   2.321
 9290SOL     OW28768   5.169   1.505   3.131
 9290SOL    HW128769   5.082   1.544   3.161
 9290SOL    HW228770   5.172   1.501   3.032
 9291SOL     OW28771   1.450   6.556   4.218
 9291SOL    HW128772   1.506   6.638   4.210
 9291SOL    HW228773   1.483   6.487   4.154
 9292SOL     OW28774   2.026   3.296   6.480
 9292SOL    HW128775   2.081   3.355   6.421
 9292SOL    HW228776   2.049   3.315   6.576
 9293SOL     OW28777   4.924   3.497   6.852
 9293SOL    HW128778   4.907   3.399   6.842
 9293SOL    HW228779   5.022   3.513   6.858
 9294SOL     OW28780   4.685   0.744   5.328
 9294SOL    HW128781   4.665   0.724   5.424
 9294SOL    HW228782   4.685   0.659   5.275
 9295SOL     OW28783   5.502   2.096   4.650
 9295SOL    HW128784   5.496   2.135   4.558
 9295SOL    HW228785   5.411   2.069   4.681
 9296SOL     OW28786   1.065   6.140   0.014
 9296SOL    HW128787   1.153   6.163   6.994
 9296SOL    HW228788   1.034   6.217   0.069
 9297SOL     OW28789   6.440   0.478   1.111
 9297SOL    HW128790   6.535   0.499   1.135
 9297SOL    HW228791   6.409   0.539   1.038
 9298SOL     OW28792   0.774   6.918   5.255
 9298SOL    HW128793   0.846   6.929   5.187
 9298SOL    HW228794   0.736   7.007   5.278
 9299SOL     OW28795   0.261   2.578   5.145
 9299SOL    HW128796   0.171   2.537   5.130
 9299SOL    HW228797   0.331   2.523   5.098
 9300SOL     OW28798   0.245   4.583   5.706
 9300SOL    HW128799   0.239   4.682   5.690
 9300SOL    HW228800   0.209   4.535   5.626
 9301SOL     OW28801   5.395   5.326   4.018
 9301SOL    HW128802   5.410   5.334   3.919
 9301SOL    HW228803   5.301   5.353   4.040
 9302SOL     OW28804   2.144   2.880   4.116
 9302SOL    HW128805   2.099   2.910   4.200
 9302SOL    HW228806   2.214   2.812   4.137
 9303SOL     OW28807   2.617   4.345   0.943
 9303SOL    HW128808   2.707   4.385   0.963
 9303SOL    HW228809   2.559   4.353   1.024
 9304SOL     OW28810   4.110   5.216   1.737
 9304SOL    HW128811   4.146   5.137   1.686
 9304SOL    HW228812   4.076   5.185   1.826
 9305SOL     OW28813   3.161   1.163   1.120
 9305SOL    HW128814   3.187   1.173   1.024
 9305SOL    HW228815   3.157   1.253   1.163
 9306SOL     OW28816   0.324   5.343   4.921
 9306SOL    HW128817   0.225   5.341   4.933
 9306SOL    HW228818   0.362   5.422   4.969
 9307SOL     OW28819   2.038   3.312   1.859
 9307SOL    HW128820   2.040   3.276   1.766
 9307SOL    HW228821   2.117   3.371   1.874
 9308SOL     OW28822   2.145   3.561   0.229
 9308SOL    HW128823   2.095   3.498   0.290
 9308SOL    HW228824   2.081   3.628   0.192
 9309SOL     OW28825   3.647   4.642   6.131
 9309SOL    HW128826   3.705   4.617   6.208
 9309SOL    HW228827   3.572   4.576   6.123
 9310SOL     OW28828   4.716   5.345   6.581
 9310SOL    HW128829   4.771   5.401   6.643
 9310SOL    HW228830   4.773   5.271   6.545
 9311SOL     OW28831   4.356   4.972   2.085
 9311SOL    HW128832   4.424   4.900   2.097
 9311SOL    HW228833   4.369   5.015   1.995
 9312SOL     OW28834   1.168   3.680   1.056
 9312SOL    HW128835   1.201   3.623   0.980
 9312SOL    HW228836   1.246   3.719   1.104
 9313SOL     OW28837   0.277   0.728   1.451
 9313SOL    HW128838   0.331   0.746   1.534
 9313SOL    HW228839   0.180   0.724   1.474
 9314SOL     OW28840   5.224   5.090   6.472
 9314SOL    HW128841   5.217   5.107   6.571
 9314SOL    HW228842   5.210   4.993   6.454
 9315SOL     OW28843   5.895   0.764   5.256
 9315SOL    HW128844   5.895   0.725   5.164
 9315SOL    HW228845   5.873   0.861   5.252
 9316SOL     OW28846   4.952   6.274   5.939
 9316SOL    HW128847   4.947   6.336   5.861
 9316SOL    HW228848   5.006   6.316   6.012
 9317SOL     OW28849   5.527   5.463   3.755
 9317SOL    HW128850   5.582   5.511   3.823
 9317SOL    HW228851   5.449   5.520   3.729
 9318SOL     OW28852   5.759   0.728   6.138
 9318SOL    HW128853   5.695   0.799   6.109
 9318SOL    HW228854   5.785   0.672   6.059
 9319SOL     OW28855   2.014   2.987   6.976
 9319SOL    HW128856   2.007   3.020   6.882
 9319SOL    HW228857   1.950   2.911   6.990
 9320SOL     OW28858   3.848   0.409   5.312
 9320SOL    HW128859   3.797   0.325   5.293
 9320SOL    HW228860   3.942   0.399   5.279
 9321SOL     OW28861   0.179   0.171   3.795
 9321SOL    HW128862   0.221   0.113   3.726
 9321SOL    HW228863   0.126   0.115   3.859
 9322SOL     OW28864   0.190   3.189   6.985
 9322SOL    HW128865   0.106   3.206   0.014
 9322SOL    HW228866   0.186   3.236   6.897
 9323SOL     OW28867   1.259   0.700   5.708
 9323SOL    HW128868   1.220   0.721   5.797
 9323SOL    HW228869   1.247   0.602   5.688
 9324SOL     OW28870   1.173   4.270   1.345
 9324SOL    HW128871   1.241   4.222   1.289
 9324SOL    HW228872   1.115   4.326   1.287
 9325SOL     OW28873   5.570   0.735   0.215
 9325SOL    HW128874   5.611   0.670   0.151
 9325SOL    HW228875   5.488   0.774   0.175
 9326SOL     OW28876   2.243   5.427   0.623
 9326SOL    HW128877   2.306   5.488   0.575
 9326SOL    HW228878   2.195   5.369   0.558
 9327SOL     OW28879   5.357   0.891   2.489
 9327SOL    HW128880   5.258   0.903   2.483
 9327SOL    HW228881   5.395   0.955   2.556
 9328SOL     OW28882   2.426   1.161   5.286
 9328SOL    HW128883   2.448   1.237   5.347
 9328SOL    HW228884   2.510   1.128   5.242
 9329SOL     OW28885   5.962   3.604   1.253
 9329SOL    HW128886   5.976   3.546   1.172
 9329SOL    HW228887   5.891   3.565   1.310
 9330SOL     OW28888   6.690   0.280   5.707
 9330SOL    HW128889   6.787   0.259   5.716
 9330SOL    HW228890   6.636   0.196   5.721
 9331SOL     OW28891   2.382   0.817   0.157
 9331SOL    HW128892   2.292   0.856   0.135
 9331SOL    HW228893   2.448   0.890   0.169
 9332SOL     OW28894   4.181   4.268   1.295
 9332SOL    HW128895   4.275   4.271   1.261
 9332SOL    HW228896   4.121   4.317   1.232
 9333SOL     OW28897   4.114   4.018   0.115
 9333SOL    HW128898   4.176   4.073   0.057
 9333SOL    HW228899   4.037   4.074   0.143
 9334SOL     OW28900   5.582   6.300   3.173
 9334SOL    HW128901   5.493   6.311   3.128
 9334SOL    HW228902   5.571   6.243   3.254
 9335SOL     OW28903   0.892   0.954   6.875
 9335SOL    HW128904   0.988   0.943   6.901
 9335SOL    HW228905   0.886   1.005   6.789
 9336SOL     OW28906   3.211   5.619   5.806
 9336SOL    HW128907   3.279   5.563   5.853
 9336SOL    HW228908   3.158   5.671   5.874
 9337SOL     OW28909   4.131   1.580   4.787
 9337SOL    HW128910   4.123   1.675   4.759
 9337SOL    HW228911   4.097   1.569   4.880
 9338SOL     OW28912   5.307   0.086   2.184
 9338SOL    HW128913   5.295   0.170   2.130
 9338SOL    HW228914   5.259   0.096   2.271
 9339SOL     OW28915   5.876   6.480   1.077
 9339SOL    HW128916   5.779   6.505   1.067
 9339SOL    HW228917   5.884   6.381   1.085
 9340SOL     OW28918   4.563   4.470   3.999
 9340SOL    HW128919   4.601   4.429   3.916
 9340SOL    HW228920   4.471   4.504   3.981
 9341SOL     OW28921   0.385   5.638   1.081
 9341SOL    HW128922   0.400   5.616   1.178
 9341SOL    HW228923   0.370   5.553   1.030
 9342SOL     OW28924   2.878   6.319   4.050
 9342SOL    HW128925   2.797   6.347   3.998
 9342SOL    HW228926   2.929   6.251   3.998
 9343SOL     OW28927   5.438   4.370   1.953
 9343SOL    HW128928   5.342   4.397   1.939
 9343SOL    HW228929   5.448   4.328   2.043
 9344SOL     OW28930   4.590   6.494   3.025
 9344SOL    HW128931   4.668   6.500   2.963
 9344SOL    HW228932   4.505   6.499   2.972
 9345SOL     OW28933   6.749   5.674   2.001
 9345SOL    HW128934   6.793   5.711   1.920
 9345SOL    HW228935   6.663   5.723   2.017
 9346SOL     OW28936   5.425   1.078   1.119
 9346SOL    HW128937   5.396   1.003   1.179
 9346SOL    HW228938   5.522   1.069   1.099
 9347SOL     OW28939   2.855   3.898   0.095
 9347SOL    HW128940   2.928   3.883   0.029
 9347SOL    HW228941   2.803   3.979   0.069
 9348SOL     OW28942   2.930   6.756   2.467
 9348SOL    HW128943   2.854   6.703   2.430
 9348SOL    HW228944   2.940   6.736   2.565
 9349SOL     OW28945   6.627   4.999   3.019
 9349SOL    HW128946   6.660   5.019   2.927
 9349SOL    HW228947   6.620   5.084   3.071
 9350SOL     OW28948   6.900   2.805   5.270
 9350SOL    HW128949   6.980   2.839   5.220
 9350SOL    HW228950   6.926   2.724   5.322
 9351SOL     OW28951   3.069   6.970   0.062
 9351SOL    HW128952   3.134   6.895   0.074
 9351SOL    HW228953   2.976   6.936   0.073
 9352SOL     OW28954   3.287   1.575   6.471
 9352SOL    HW128955   3.310   1.492   6.421
 9352SOL    HW228956   3.362   1.640   6.464
 9353SOL     OW28957   0.523   4.154   1.042
 9353SOL    HW128958   0.524   4.093   0.963
 9353SOL    HW228959   0.472   4.111   1.117
 9354SOL     OW28960   0.597   1.587   6.222
 9354SOL    HW128961   0.592   1.644   6.140
 9354SOL    HW228962   0.505   1.560   6.250
 9355SOL     OW28963   0.193   2.196   4.445
 9355SOL    HW128964   0.285   2.236   4.446
 9355SOL    HW228965   0.126   2.267   4.421
 9356SOL     OW28966   4.657   6.969   2.467
 9356SOL    HW128967   4.562   6.944   2.448
 9356SOL    HW228968   4.707   6.889   2.501
 9357SOL     OW28969   2.146   3.614   6.080
 9357SOL    HW128970   2.104   3.694   6.122
 9357SOL    HW228971   2.131   3.615   5.981
 9358SOL     OW28972   0.066   3.139   1.795
 9358SOL    HW128973   0.082   3.163   1.699
 9358SOL    HW228974   0.104   3.048   1.813
 9359SOL     OW28975   1.816   4.293   5.301
 9359SOL    HW128976   1.840   4.201   5.269
 9359SOL    HW228977   1.724   4.316   5.270
 9360SOL     OW28978   0.713   4.512   6.657
 9360SOL    HW128979   0.728   4.583   6.588
 9360SOL    HW228980   0.637   4.454   6.628
 9361SOL     OW28981   1.430   5.661   2.690
 9361SOL    HW128982   1.359   5.729   2.673
 9361SOL    HW228983   1.402   5.573   2.651
 9362SOL     OW28984   1.966   2.616   2.679
 9362SOL    HW128985   1.959   2.579   2.771
 9362SOL    HW228986   2.005   2.708   2.683
 9363SOL     OW28987   3.281   6.026   1.858
 9363SOL    HW128988   3.311   6.010   1.764
 9363SOL    HW228989   3.194   5.981   1.874
 9364SOL     OW28990   2.832   3.170   6.561
 9364SOL    HW128991   2.918   3.186   6.609
 9364SOL    HW228992   2.847   3.177   6.462
 9365SOL     OW28993   2.740   2.082   4.117
 9365SOL    HW128994   2.808   2.155   4.111
 9365SOL    HW228995   2.649   2.121   4.120
 9366SOL     OW28996   3.842   5.421   6.132
 9366SOL    HW128997   3.846   5.367   6.216
 9366SOL    HW228998   3.928   5.470   6.119
 9367SOL     OW28999   6.905   6.715   2.477
 9367SOL    HW129000   6.944   6.785   2.537
 9367SOL    HW229001   6.872   6.758   2.392
 9368SOL     OW29002   3.475   0.393   3.280
 9368SOL    HW129003   3.477   0.319   3.213
 9368SOL    HW229004   3.568   0.415   3.310
 9369SOL     OW29005   7.014   6.666   3.730
 9369SOL    HW129006   0.079   6.706   3.759
 9369SOL    HW229007   6.992   6.699   3.638
 9370SOL     OW29008   5.551   0.373   4.416
 9370SOL    HW129009   5.582   0.278   4.421
 9370SOL    HW229010   5.464   0.383   4.466
 9371SOL     OW29011   2.505   4.802   0.440
 9371SOL    HW129012   2.587   4.750   0.416
 9371SOL    HW229013   2.502   4.886   0.387
 9372SOL     OW29014   4.821   6.662   1.330
 9372SOL    HW129015   4.816   6.638   1.233
 9372SOL    HW229016   4.914   6.649   1.364
 9373SOL     OW29017   4.861   2.295   1.375
 9373SOL    HW129018   4.957   2.285   1.400
 9373SOL    HW229019   4.814   2.208   1.386
 9374SOL     OW29020   0.383   2.577   0.181
 9374SOL    HW129021   0.472   2.533   0.168
 9374SOL    HW229022   0.395   2.665   0.226
 9375SOL     OW29023   0.670   1.849   1.224
 9375SOL    HW129024   0.748   1.854   1.162
 9375SOL    HW229025   0.588   1.881   1.177
 9376SOL     OW29026   2.301   4.033   1.429
 9376SOL    HW129027   2.300   3.954   1.367
 9376SOL    HW229028   2.327   4.002   1.521
 9377SOL     OW29029   1.823   5.264   3.495
 9377SOL    HW129030   1.920   5.250   3.516
 9377SOL    HW229031   1.808   5.250   3.397
 9378SOL     OW29032   2.384   1.526   3.400
 9378SOL    HW129033   2.336   1.568   3.477
 9378SOL    HW229034   2.466   1.580   3.379
 9379SOL     OW29035   5.188   6.980   5.673
 9379SOL    HW129036   5.266   0.012   5.644
 9379SOL    HW229037   5.132   6.957   5.594
 9380SOL     OW29038   4.168   5.655   5.541
 9380SOL    HW129039   4.121   5.643   5.454
 9380SOL    HW229040   4.245   5.717   5.529
 9381SOL     OW29041   4.979   2.889   5.880
 9381SOL    HW129042   5.078   2.878   5.883
 9381SOL    HW229043   4.955   2.986   5.883
 9382SOL     OW29044   4.163   0.198   4.297
 9382SOL    HW129045   4.246   0.166   4.344
 9382SOL    HW229046   4.162   0.298   4.295
 9383SOL     OW29047   5.658   5.141   4.231
 9383SOL    HW129048   5.688   5.088   4.152
 9383SOL    HW229049   5.571   5.105   4.265
 9384SOL     OW29050   4.419   0.007   1.879
 9384SOL    HW129051   4.330   0.043   1.854
 9384SOL    HW229052   4.420   7.009   1.977
 9385SOL     OW29053   4.636   1.463   4.040
 9385SOL    HW129054   4.624   1.556   4.074
 9385SOL    HW229055   4.733   1.439   4.043
 9386SOL     OW29056   3.359   6.086   5.112
 9386SOL    HW129057   3.428   6.022   5.076
 9386SOL    HW229058   3.328   6.146   5.039
 9387SOL     OW29059   2.696   2.167   0.271
 9387SOL    HW129060   2.597   2.162   0.257
 9387SOL    HW229061   2.743   2.115   0.200
 9388SOL     OW29062   2.520   6.089   3.426
 9388SOL    HW129063   2.604   6.140   3.446
 9388SOL    HW229064   2.519   6.004   3.478
 9389SOL     OW29065   2.913   0.174   3.279
 9389SOL    HW129066   2.837   0.179   3.344
 9389SOL    HW229067   2.880   0.137   3.192
 9390SOL     OW29068   5.420   4.792   6.456
 9390SOL    HW129069   5.348   4.757   6.396
 9390SOL    HW229070   5.507   4.748   6.431
 9391SOL     OW29071   0.898   0.646   5.796
 9391SOL    HW129072   0.975   0.630   5.857
 9391SOL    HW229073   0.832   0.707   5.840
 9392SOL     OW29074   5.183   5.022   5.842
 9392SOL    HW129075   5.282   5.006   5.842
 9392SOL    HW229076   5.164   5.107   5.891
 9393SOL     OW29077   2.657   7.021   5.830
 9393SOL    HW129078   2.572   6.972   5.850
 9393SOL    HW229079   2.646   0.051   5.745
 9394SOL     OW29080   6.454   0.961   1.444
 9394SOL    HW129081   6.448   0.887   1.379
 9394SOL    HW229082   6.366   1.008   1.451
 9395SOL     OW29083   2.557   0.934   0.676
 9395SOL    HW129084   2.502   0.995   0.619
 9395SOL    HW229085   2.652   0.964   0.676
 9396SOL     OW29086   2.052   4.433   4.996
 9396SOL    HW129087   1.997   4.351   4.984
 9396SOL    HW229088   2.146   4.414   4.968
 9397SOL     OW29089   3.070   5.724   6.048
 9397SOL    HW129090   3.124   5.684   6.122
 9397SOL    HW229091   2.984   5.674   6.038
 9398SOL     OW29092   5.784   1.136   5.990
 9398SOL    HW129093   5.806   1.186   6.073
 9398SOL    HW229094   5.728   1.056   6.012
 9399SOL     OW29095   0.983   2.686   4.707
 9399SOL    HW129096   1.079   2.667   4.687
 9399SOL    HW229097   0.972   2.705   4.805
 9400SOL     OW29098   4.656   1.040   1.346
 9400SOL    HW129099   4.670   1.026   1.248
 9400SOL    HW229100   4.559   1.052   1.364
 9401SOL     OW29101   6.675   1.964   2.760
 9401SOL    HW129102   6.691   2.040   2.823
 9401SOL    HW229103   6.578   1.941   2.759
 9402SOL     OW29104   1.392   4.320   3.187
 9402SOL    HW129105   1.438   4.373   3.259
 9402SOL    HW229106   1.304   4.362   3.167
 9403SOL     OW29107   6.213   1.662   1.959
 9403SOL    HW129108   6.184   1.753   1.988
 9403SOL    HW229109   6.297   1.669   1.905
 9404SOL     OW29110   0.750   1.976   1.497
 9404SOL    HW129111   0.710   1.891   1.464
 9404SOL    HW229112   0.689   2.052   1.475
 9405SOL     OW29113   2.235   4.083   3.803
 9405SOL    HW129114   2.225   4.006   3.740
 9405SOL    HW229115   2.191   4.062   3.890
 9406SOL     OW29116   0.893   2.575   6.714
 9406SOL    HW129117   0.895   2.651   6.649
 9406SOL    HW229118   0.863   2.492   6.666
 9407SOL     OW29119   2.588   5.095   4.017
 9407SOL    HW129120   2.636   5.089   3.929
 9407SOL    HW229121   2.492   5.071   4.003
 9408SOL     OW29122   6.766   2.958   6.160
 9408SOL    HW129123   6.837   3.023   6.187
 9408SOL    HW229124   6.755   2.961   6.061
 9409SOL     OW29125   6.867   5.767   1.375
 9409SOL    HW129126   6.806   5.688   1.384
 9409SOL    HW229127   6.908   5.787   1.464
 9410SOL     OW29128   2.809   0.498   2.073
 9410SOL    HW129129   2.793   0.573   2.009
 9410SOL    HW229130   2.791   0.411   2.028
 9411SOL     OW29131   3.568   2.894   3.207
 9411SOL    HW129132   3.645   2.914   3.267
 9411SOL    HW229133   3.499   2.842   3.257
 9412SOL     OW29134   1.730   0.961   2.185
 9412SOL    HW129135   1.724   0.965   2.086
 9412SOL    HW229136   1.811   0.908   2.212
 9413SOL     OW29137   4.814   4.932   3.267
 9413SOL    HW129138   4.742   4.891   3.322
 9413SOL    HW229139   4.801   5.031   3.263
 9414SOL     OW29140   2.825   1.490   3.568
 9414SOL    HW129141   2.736   1.448   3.588
 9414SOL    HW229142   2.855   1.544   3.646
 9415SOL     OW29143   2.495   6.705   2.312
 9415SOL    HW129144   2.506   6.775   2.241
 9415SOL    HW229145   2.398   6.682   2.320
 9416SOL     OW29146   0.226   0.942   6.037
 9416SOL    HW129147   0.277   0.858   6.054
 9416SOL    HW229148   0.226   0.999   6.119
 9417SOL     OW29149   3.597   0.324   0.975
 9417SOL    HW129150   3.535   0.255   0.940
 9417SOL    HW229151   3.545   0.405   1.005
 9418SOL     OW29152   2.279   1.018   1.493
 9418SOL    HW129153   2.350   1.088   1.492
 9418SOL    HW229154   2.309   0.939   1.441
 9419SOL     OW29155   1.777   3.927   6.164
 9419SOL    HW129156   1.687   3.886   6.151
 9419SOL    HW229157   1.766   4.013   6.214
 9420SOL     OW29158   5.837   4.548   0.319
 9420SOL    HW129159   5.882   4.554   0.229
 9420SOL    HW229160   5.898   4.502   0.383
 9421SOL     OW29161   2.954   6.038   4.844
 9421SOL    HW129162   3.044   6.062   4.807
 9421SOL    HW229163   2.964   6.002   4.937
 9422SOL     OW29164   2.967   5.827   3.248
 9422SOL    HW129165   2.921   5.897   3.302
 9422SOL    HW229166   3.055   5.863   3.216
 9423SOL     OW29167   4.281   6.414   3.235
 9423SOL    HW129168   4.379   6.421   3.256
 9423SOL    HW229169   4.245   6.505   3.217
 9424SOL     OW29170   5.248   2.051   4.697
 9424SOL    HW129171   5.213   2.126   4.752
 9424SOL    HW229172   5.189   2.037   4.618
 9425SOL     OW29173   5.589   4.362   1.589
 9425SOL    HW129174   5.619   4.395   1.500
 9425SOL    HW229175   5.628   4.271   1.606
 9426SOL     OW29176   3.313   1.347   6.342
 9426SOL    HW129177   3.368   1.313   6.419
 9426SOL    HW229178   3.367   1.343   6.258
 9427SOL     OW29179   2.594   5.503   3.110
 9427SOL    HW129180   2.640   5.592   3.105
 9427SOL    HW229181   2.495   5.516   3.098
 9428SOL     OW29182   0.375   0.308   0.961
 9428SOL    HW129183   0.276   0.324   0.961
 9428SOL    HW229184   0.406   0.296   1.056
 9429SOL     OW29185   2.052   3.329   4.336
 9429SOL    HW129186   2.087   3.309   4.244
 9429SOL    HW229187   2.107   3.280   4.404
 9430SOL     OW29188   0.366   2.363   4.782
 9430SOL    HW129189   0.299   2.328   4.717
 9430SOL    HW229190   0.458   2.350   4.746
 9431SOL     OW29191   6.396   4.823   1.360
 9431SOL    HW129192   6.395   4.860   1.453
 9431SOL    HW229193   6.310   4.844   1.315
 9432SOL     OW29194   6.508   1.003   4.237
 9432SOL    HW129195   6.449   1.055   4.176
 9432SOL    HW229196   6.483   0.906   4.233
 9433SOL     OW29197   3.210   6.626   2.654
 9433SOL    HW129198   3.143   6.694   2.624
 9433SOL    HW229199   3.266   6.665   2.728
 9434SOL     OW29200   5.471   5.972   2.587
 9434SOL    HW129201   5.470   5.876   2.560
 9434SOL    HW229202   5.377   6.002   2.606
 9435SOL     OW29203   6.930   1.918   2.833
 9435SOL    HW129204   6.832   1.925   2.813
 9435SOL    HW229205   6.950   1.961   2.920
 9436SOL     OW29206   1.611   1.785   2.478
 9436SOL    HW129207   1.537   1.773   2.411
 9436SOL    HW229208   1.582   1.850   2.548
 9437SOL     OW29209   6.906   6.096   3.168
 9437SOL    HW129210   6.809   6.074   3.178
 9437SOL    HW229211   6.948   6.102   3.258
 9438SOL     OW29212   1.019   0.090   1.732
 9438SOL    HW129213   0.928   0.048   1.738
 9438SOL    HW229214   1.010   0.190   1.732
 9439SOL     OW29215   0.945   2.622   0.867
 9439SOL    HW129216   1.022   2.591   0.811
 9439SOL    HW229217   0.906   2.705   0.827
 9440SOL     OW29218   4.042   4.810   3.147
 9440SOL    HW129219   4.061   4.760   3.232
 9440SOL    HW229220   4.037   4.907   3.167
 9441SOL     OW29221   6.672   5.272   6.030
 9441SOL    HW129222   6.726   5.343   6.075
 9441SOL    HW229223   6.661   5.295   5.933
 9442SOL     OW29224   4.925   3.392   1.757
 9442SOL    HW129225   4.996   3.407   1.689
 9442SOL    HW229226   4.949   3.313   1.813
 9443SOL     OW29227   2.497   5.517   0.273
 9443SOL    HW129228   2.536   5.576   0.203
 9443SOL    HW229229   2.454   5.573   0.344
 9444SOL     OW29230   1.487   4.108   0.707
 9444SOL    HW129231   1.584   4.086   0.701
 9444SOL    HW229232   1.475   4.207   0.705
 9445SOL     OW29233   7.014   3.731   3.673
 9445SOL    HW129234   0.088   3.756   3.665
 9445SOL    HW229235   6.981   3.699   3.584
 9446SOL     OW29236   6.757   5.660   4.760
 9446SOL    HW129237   6.673   5.630   4.714
 9446SOL    HW229238   6.835   5.610   4.721
 9447SOL     OW29239   5.454   4.977   3.861
 9447SOL    HW129240   5.382   4.911   3.840
 9447SOL    HW229241   5.481   4.968   3.957
 9448SOL     OW29242   6.653   0.235   6.291
 9448SOL    HW129243   6.713   0.289   6.350
 9448SOL    HW229244   6.558   0.247   6.320
 9449SOL     OW29245   5.838   6.922   0.284
 9449SOL    HW129246   5.773   6.981   0.236
 9449SOL    HW229247   5.790   6.868   0.353
 9450SOL     OW29248   2.106   5.696   3.154
 9450SOL    HW129249   2.054   5.612   3.138
 9450SOL    HW229250   2.056   5.773   3.115
 9451SOL     OW29251   3.805   5.672   5.093
 9451SOL    HW129252   3.726   5.702   5.146
 9451SOL    HW229253   3.794   5.576   5.067
 9452SOL     OW29254   1.032   3.997   0.174
 9452SOL    HW129255   0.958   4.023   0.111
 9452SOL    HW229256   1.051   4.072   0.236
 9453SOL     OW29257   3.063   5.530   2.754
 9453SOL    HW129258   2.967   5.557   2.762
 9453SOL    HW229259   3.099   5.510   2.846
 9454SOL     OW29260   3.758   3.890   6.266
 9454SOL    HW129261   3.701   3.811   6.245
 9454SOL    HW229262   3.844   3.884   6.214
 9455SOL     OW29263   2.354   2.079   3.323
 9455SOL    HW129264   2.338   2.163   3.271
 9455SOL    HW229265   2.439   2.088   3.375
 9456SOL     OW29266   6.467   3.485   0.713
 9456SOL    HW129267   6.377   3.528   0.721
 9456SOL    HW229268   6.537   3.548   0.745
 9457SOL     OW29269   1.045   4.960   4.744
 9457SOL    HW129270   1.088   5.039   4.702
 9457SOL    HW229271   1.085   4.876   4.706
 9458SOL     OW29272   1.008   3.922   6.825
 9458SOL    HW129273   1.018   4.018   6.849
 9458SOL    HW229274   0.992   3.913   6.727
 9459SOL     OW29275   5.438   4.885   4.130
 9459SOL    HW129276   5.371   4.955   4.155
 9459SOL    HW229277   5.484   4.851   4.212
 9460SOL     OW29278   2.161   3.716   4.933
 9460SOL    HW129279   2.213   3.632   4.918
 9460SOL    HW229280   2.109   3.708   5.018
 9461SOL     OW29281   0.690   1.954   1.963
 9461SOL    HW129282   0.771   1.962   2.021
 9461SOL    HW229283   0.610   1.989   2.013
 9462SOL     OW29284   1.450   2.810   3.392
 9462SOL    HW129285   1.466   2.838   3.487
 9462SOL    HW229286   1.362   2.763   3.386
 9463SOL     OW29287   5.466   6.764   1.356
 9463SOL    HW129288   5.556   6.734   1.324
 9463SOL    HW229289   5.427   6.695   1.416
 9464SOL     OW29290   5.995   0.386   0.607
 9464SOL    HW129291   6.014   0.321   0.680
 9464SOL    HW229292   5.939   0.342   0.537
 9465SOL     OW29293   0.493   3.364   1.877
 9465SOL    HW129294   0.566   3.371   1.945
 9465SOL    HW229295   0.425   3.297   1.908
 9466SOL     OW29296   3.717   4.471   5.721
 9466SOL    HW129297   3.637   4.495   5.665
 9466SOL    HW229298   3.791   4.441   5.661
 9467SOL     OW29299   0.852   3.207   1.041
 9467SOL    HW129300   0.909   3.289   1.041
 9467SOL    HW229301   0.756   3.234   1.030
 9468SOL     OW29302   5.899   3.844   6.871
 9468SOL    HW129303   5.903   3.944   6.880
 9468SOL    HW229304   5.898   3.820   6.774
 9469SOL     OW29305   0.363   5.599   1.351
 9469SOL    HW129306   0.433   5.594   1.423
 9469SOL    HW229307   0.302   5.675   1.370
 9470SOL     OW29308   4.710   3.649   6.798
 9470SOL    HW129309   4.739   3.691   6.712
 9470SOL    HW229310   4.779   3.584   6.829
 9471SOL     OW29311   6.424   2.114   4.650
 9471SOL    HW129312   6.351   2.170   4.689
 9471SOL    HW229313   6.478   2.170   4.587
 9472SOL     OW29314   0.175   3.625   5.601
 9472SOL    HW129315   0.240   3.700   5.587
 9472SOL    HW229316   0.086   3.650   5.561
 9473SOL     OW29317   3.221   4.728   0.097
 9473SOL    HW129318   3.238   4.632   0.121
 9473SOL    HW229319   3.159   4.732   0.018
 9474SOL     OW29320   6.147   3.427   1.951
 9474SOL    HW129321   6.136   3.403   2.047
 9474SOL    HW229322   6.240   3.405   1.921
 9475SOL     OW29323   3.656   3.452   1.038
 9475SOL    HW129324   3.628   3.475   1.132
 9475SOL    HW229325   3.674   3.536   0.988
 9476SOL     OW29326   3.899   3.812   4.582
 9476SOL    HW129327   3.944   3.760   4.510
 9476SOL    HW229328   3.968   3.852   4.643
 9477SOL     OW29329   0.328   2.686   1.176
 9477SOL    HW129330   0.375   2.634   1.248
 9477SOL    HW229331   0.395   2.735   1.121
 9478SOL     OW29332   5.539   3.033   0.924
 9478SOL    HW129333   5.565   3.092   0.847
 9478SOL    HW229334   5.440   3.038   0.936
 9479SOL     OW29335   4.676   6.471   1.141
 9479SOL    HW129336   4.771   6.457   1.116
 9479SOL    HW229337   4.621   6.393   1.110
 9480SOL     OW29338   6.565   5.231   0.284
 9480SOL    HW129339   6.614   5.304   0.236
 9480SOL    HW229340   6.583   5.144   0.239
 9481SOL     OW29341   4.929   2.571   2.716
 9481SOL    HW129342   5.025   2.587   2.738
 9481SOL    HW229343   4.923   2.497   2.648
 9482SOL     OW29344   6.946   0.665   3.026
 9482SOL    HW129345   7.009   0.698   2.955
 9482SOL    HW229346   6.998   0.611   3.093
 9483SOL     OW29347   2.241   0.907   0.642
 9483SOL    HW129348   2.340   0.892   0.632
 9483SOL    HW229349   2.194   0.861   0.567
 9484SOL     OW29350   3.694   0.264   4.651
 9484SOL    HW129351   3.692   0.361   4.678
 9484SOL    HW229352   3.745   0.254   4.566
 9485SOL     OW29353   0.685   1.605   1.342
 9485SOL    HW129354   0.687   1.694   1.296
 9485SOL    HW229355   0.622   1.544   1.294
 9486SOL     OW29356   4.674   6.007   0.916
 9486SOL    HW129357   4.677   5.907   0.914
 9486SOL    HW229358   4.685   6.042   0.823
 9487SOL     OW29359   3.472   4.050   3.316
 9487SOL    HW129360   3.413   4.090   3.386
 9487SOL    HW229361   3.447   4.087   3.226
 9488SOL     OW29362   2.776   6.998   0.636
 9488SOL    HW129363   2.769   7.019   0.734
 9488SOL    HW229364   2.819   0.053   0.589
 9489SOL     OW29365   5.289   4.087   1.375
 9489SOL    HW129366   5.290   4.033   1.459
 9489SOL    HW229367   5.194   4.105   1.348
 9490SOL     OW29368   6.380   5.862   3.375
 9490SOL    HW129369   6.443   5.872   3.452
 9490SOL    HW229370   6.328   5.777   3.384
 9491SOL     OW29371   5.319   5.647   3.742
 9491SOL    HW129372   5.272   5.684   3.823
 9491SOL    HW229373   5.254   5.596   3.686
 9492SOL     OW29374   3.268   3.301   4.609
 9492SOL    HW129375   3.331   3.224   4.599
 9492SOL    HW229376   3.265   3.353   4.523
 9493SOL     OW29377   2.987   5.650   4.710
 9493SOL    HW129378   3.002   5.556   4.677
 9493SOL    HW229379   2.899   5.654   4.757
 9494SOL     OW29380   5.576   3.061   2.605
 9494SOL    HW129381   5.657   3.110   2.637
 9494SOL    HW229382   5.592   2.962   2.610
 9495SOL     OW29383   6.361   2.024   2.981
 9495SOL    HW129384   6.368   2.021   2.881
 9495SOL    HW229385   6.448   2.054   3.020
 9496SOL     OW29386   5.517   3.405   1.785
 9496SOL    HW129387   5.528   3.491   1.835
 9496SOL    HW229388   5.421   3.376   1.790
 9497SOL     OW29389   4.924   5.911   4.880
 9497SOL    HW129390   4.859   5.904   4.804
 9497SOL    HW229391   4.876   5.936   4.964
 9498SOL     OW29392   5.977   4.909   4.608
 9498SOL    HW129393   5.904   4.930   4.542
 9498SOL    HW229394   5.937   4.863   4.688
 9499SOL     OW29395   1.495   6.155   5.454
 9499SOL    HW129396   1.571   6.180   5.514
 9499SOL    HW229397   1.506   6.060   5.424
 9500SOL     OW29398   4.158   6.369   0.321
 9500SOL    HW129399   4.078   6.330   0.274
 9500SOL    HW229400   4.127   6.433   0.392
 9501SOL     OW29401   2.177   1.288   4.808
 9501SOL    HW129402   2.220   1.202   4.835
 9501SOL    HW229403   2.247   1.359   4.798
 9502SOL     OW29404   5.649   2.996   5.242
 9502SOL    HW129405   5.563   2.944   5.243
 9502SOL    HW229406   5.720   2.941   5.198
 9503SOL     OW29407   6.721   2.212   0.578
 9503SOL    HW129408   6.741   2.115   0.588
 9503SOL    HW229409   6.801   2.259   0.541
 9504SOL     OW29410   6.907   3.715   1.470
 9504SOL    HW129411   6.877   3.636   1.524
 9504SOL    HW229412   6.827   3.769   1.443
 9505SOL     OW29413   4.948   4.593   5.247
 9505SOL    HW129414   4.877   4.569   5.181
 9505SOL    HW229415   4.905   4.614   5.335
 9506SOL     OW29416   1.571   2.866   0.446
 9506SOL    HW129417   1.621   2.943   0.485
 9506SOL    HW229418   1.531   2.893   0.359
 9507SOL     OW29419   0.369   1.015   2.139
 9507SOL    HW129420   0.341   0.967   2.056
 9507SOL    HW229421   0.456   1.061   2.124
 9508SOL     OW29422   6.064   1.804   2.305
 9508SOL    HW129423   6.124   1.730   2.276
 9508SOL    HW229424   6.029   1.853   2.225
 9509SOL     OW29425   0.171   0.975   3.832
 9509SOL    HW129426   0.121   1.061   3.845
 9509SOL    HW229427   0.117   0.913   3.775
 9510SOL     OW29428   1.562   4.217   3.973
 9510SOL    HW129429   1.632   4.278   3.936
 9510SOL    HW229430   1.471   4.253   3.951
 9511SOL     OW29431   2.098   0.378   0.806
 9511SOL    HW129432   2.132   0.455   0.752
 9511SOL    HW229433   2.151   0.297   0.784
 9512SOL     OW29434   6.902   1.978   0.639
 9512SOL    HW129435   6.974   1.919   0.677
 9512SOL    HW229436   6.942   2.041   0.573
 9513SOL     OW29437   2.920   4.295   6.285
 9513SOL    HW129438   2.865   4.212   6.280
 9513SOL    HW229439   2.937   4.318   6.381
 9514SOL     OW29440   2.277   5.016   6.629
 9514SOL    HW129441   2.260   4.924   6.595
 9514SOL    HW229442   2.266   5.082   6.554
 9515SOL     OW29443   1.664   6.216   2.075
 9515SOL    HW129444   1.567   6.236   2.087
 9515SOL    HW229445   1.689   6.135   2.129
 9516SOL     OW29446   5.796   4.571   6.812
 9516SOL    HW129447   5.829   4.662   6.785
 9516SOL    HW229448   5.843   4.541   6.895
 9517SOL     OW29449   1.794   4.216   1.354
 9517SOL    HW129450   1.848   4.278   1.411
 9517SOL    HW229451   1.730   4.164   1.412
 9518SOL     OW29452   1.954   1.465   0.627
 9518SOL    HW129453   1.860   1.493   0.646
 9518SOL    HW229454   2.017   1.538   0.653
 9519SOL     OW29455   3.405   2.941   4.824
 9519SOL    HW129456   3.378   2.917   4.917
 9519SOL    HW229457   3.324   2.971   4.773
 9520SOL     OW29458   2.500   1.059   2.876
 9520SOL    HW129459   2.568   1.132   2.868
 9520SOL    HW229460   2.409   1.097   2.862
 9521SOL     OW29461   5.087   5.884   2.595
 9521SOL    HW129462   5.127   5.888   2.504
 9521SOL    HW229463   5.155   5.911   2.663
 9522SOL     OW29464   3.264   5.835   1.253
 9522SOL    HW129465   3.338   5.768   1.243
 9522SOL    HW229466   3.196   5.800   1.318
 9523SOL     OW29467   3.610   5.191   5.034
 9523SOL    HW129468   3.569   5.176   5.124
 9523SOL    HW229469   3.626   5.102   4.990
 9524SOL     OW29470   4.028   2.313   1.112
 9524SOL    HW129471   4.056   2.319   1.016
 9524SOL    HW229472   4.022   2.217   1.140
 9525SOL     OW29473   2.435   2.730   6.090
 9525SOL    HW129474   2.444   2.771   6.181
 9525SOL    HW229475   2.413   2.633   6.099
 9526SOL     OW29476   4.984   5.747   1.594
 9526SOL    HW129477   5.038   5.822   1.631
 9526SOL    HW229478   4.897   5.782   1.559
 9527SOL     OW29479   0.789   0.545   2.439
 9527SOL    HW129480   0.861   0.562   2.506
 9527SOL    HW229481   0.802   0.604   2.359
 9528SOL     OW29482   6.868   0.365   0.711
 9528SOL    HW129483   6.839   0.342   0.618
 9528SOL    HW229484   6.788   0.384   0.768
 9529SOL     OW29485   6.295   3.011   5.435
 9529SOL    HW129486   6.313   3.074   5.510
 9529SOL    HW229487   6.315   3.056   5.348
 9530SOL     OW29488   1.974   3.265   3.454
 9530SOL    HW129489   2.027   3.182   3.473
 9530SOL    HW229490   1.881   3.239   3.428
 9531SOL     OW29491   3.889   5.407   2.894
 9531SOL    HW129492   3.861   5.463   2.816
 9531SOL    HW229493   3.975   5.361   2.872
 9532SOL     OW29494   0.457   6.670   1.670
 9532SOL    HW129495   0.447   6.573   1.650
 9532SOL    HW229496   0.367   6.711   1.684
 9533SOL     OW29497   6.987   0.554   4.517
 9533SOL    HW129498   6.969   0.652   4.502
 9533SOL    HW229499   0.045   0.545   4.577
 9534SOL     OW29500   5.324   3.174   5.161
 9534SOL    HW129501   5.378   3.093   5.184
 9534SOL    HW229502   5.235   3.146   5.124
 9535SOL     OW29503   2.644   1.453   5.302
 9535SOL    HW129504   2.681   1.523   5.363
 9535SOL    HW229505   2.705   1.374   5.299
 9536SOL     OW29506   3.013   4.798   5.252
 9536SOL    HW129507   2.991   4.745   5.171
 9536SOL    HW229508   2.988   4.746   5.334
 9537SOL     OW29509   2.327   6.860   2.067
 9537SOL    HW129510   2.321   6.863   1.968
 9537SOL    HW229511   2.415   6.897   2.097
 9538SOL     OW29512   6.465   1.910   4.273
 9538SOL    HW129513   6.476   1.960   4.188
 9538SOL    HW229514   6.379   1.936   4.317
 9539SOL     OW29515   1.880   4.031   5.239
 9539SOL    HW129516   1.940   3.953   5.226
 9539SOL    HW229517   1.803   4.025   5.176
 9540SOL     OW29518   4.766   4.220   4.918
 9540SOL    HW129519   4.715   4.176   4.992
 9540SOL    HW229520   4.730   4.312   4.904
 9541SOL     OW29521   2.529   1.895   5.972
 9541SOL    HW129522   2.460   1.947   5.922
 9541SOL    HW229523   2.499   1.800   5.980
 9542SOL     OW29524   4.927   3.876   4.976
 9542SOL    HW129525   4.892   3.783   4.978
 9542SOL    HW229526   4.863   3.935   4.927
 9543SOL     OW29527   3.744   0.891   4.328
 9543SOL    HW129528   3.816   0.957   4.305
 9543SOL    HW229529   3.747   0.815   4.263
 9544SOL     OW29530   6.527   1.118   2.239
 9544SOL    HW129531   6.496   1.098   2.332
 9544SOL    HW229532   6.626   1.133   2.239
 9545SOL     OW29533   6.436   5.451   3.712
 9545SOL    HW129534   6.417   5.527   3.774
 9545SOL    HW229535   6.351   5.417   3.673
 9546SOL     OW29536   2.064   2.901   6.679
 9546SOL    HW129537   2.115   2.985   6.697
 9546SOL    HW229538   2.017   2.908   6.591
 9547SOL     OW29539   2.060   6.313   4.065
 9547SOL    HW129540   2.114   6.296   3.982
 9547SOL    HW229541   2.011   6.230   4.090
 9548SOL     OW29542   6.618   5.981   4.615
 9548SOL    HW129543   6.527   5.983   4.656
 9548SOL    HW229544   6.686   5.970   4.688
 9549SOL     OW29545   2.771   3.993   1.390
 9549SOL    HW129546   2.690   4.040   1.354
 9549SOL    HW229547   2.850   4.054   1.382
 9550SOL     OW29548   6.873   1.301   6.689
 9550SOL    HW129549   6.942   1.251   6.636
 9550SOL    HW229550   6.834   1.373   6.631
 9551SOL     OW29551   0.036   6.930   4.214
 9551SOL    HW129552   0.136   6.936   4.223
 9551SOL    HW229553   7.016   6.994   4.278
 9552SOL     OW29554   0.503   6.481   2.311
 9552SOL    HW129555   0.523   6.383   2.322
 9552SOL    HW229556   0.404   6.495   2.317
 9553SOL     OW29557   5.970   4.046   6.596
 9553SOL    HW129558   5.883   4.090   6.617
 9553SOL    HW229559   5.954   3.950   6.572
 9554SOL     OW29560   2.515   0.516   0.980
 9554SOL    HW129561   2.598   0.543   1.029
 9554SOL    HW229562   2.516   0.554   0.888
 9555SOL     OW29563   0.081   1.750   0.721
 9555SOL    HW129564   0.068   1.709   0.630
 9555SOL    HW229565   0.152   1.701   0.770
 9556SOL     OW29566   2.126   2.263   1.060
 9556SOL    HW129567   2.068   2.341   1.081
 9556SOL    HW229568   2.070   2.182   1.046
 9557SOL     OW29569   6.373   0.675   2.449
 9557SOL    HW129570   6.312   0.724   2.386
 9557SOL    HW229571   6.329   0.590   2.478
 9558SOL     OW29572   5.944   5.279   4.094
 9558SOL    HW129573   5.870   5.221   4.060
 9558SOL    HW229574   5.989   5.324   4.017
 9559SOL     OW29575   0.118   3.388   1.654
 9559SOL    HW129576   0.194   3.336   1.614
 9559SOL    HW229577   0.155   3.456   1.718
 9560SOL     OW29578   1.261   1.389   2.616
 9560SOL    HW129579   1.180   1.392   2.558
 9560SOL    HW229580   1.339   1.426   2.566
 9561SOL     OW29581   2.184   6.309   1.003
 9561SOL    HW129582   2.183   6.211   0.981
 9561SOL    HW229583   2.161   6.362   0.922
 9562SOL     OW29584   3.006   6.464   5.346
 9562SOL    HW129585   3.071   6.395   5.313
 9562SOL    HW229586   2.915   6.444   5.310
 9563SOL     OW29587   6.565   6.116   6.928
 9563SOL    HW129588   6.536   6.178   6.855
 9563SOL    HW229589   6.601   6.032   6.888
 9564SOL     OW29590   2.700   0.277   6.544
 9564SOL    HW129591   2.753   0.248   6.624
 9564SOL    HW229592   2.618   0.326   6.575
 9565SOL     OW29593   4.440   6.013   5.002
 9565SOL    HW129594   4.413   5.986   4.910
 9565SOL    HW229595   4.421   5.938   5.066
 9566SOL     OW29596   2.982   4.595   0.227
 9566SOL    HW129597   2.912   4.528   0.249
 9566SOL    HW229598   3.072   4.553   0.235
 9567SOL     OW29599   6.377   5.548   6.426
 9567SOL    HW129600   6.392   5.454   6.394
 9567SOL    HW229601   6.456   5.604   6.403
 9568SOL     OW29602   4.167   3.229   6.384
 9568SOL    HW129603   4.143   3.245   6.480
 9568SOL    HW229604   4.087   3.194   6.336
 9569SOL     OW29605   6.616   1.167   0.872
 9569SOL    HW129606   6.585   1.224   0.948
 9569SOL    HW229607   6.563   1.188   0.790
 9570SOL     OW29608   1.111   1.908   1.656
 9570SOL    HW129609   1.205   1.912   1.622
 9570SOL    HW229610   1.090   1.814   1.683
 9571SOL     OW29611   3.037   3.578   0.198
 9571SOL    HW129612   2.948   3.532   0.197
 9571SOL    HW229613   3.109   3.509   0.193
 9572SOL     OW29614   1.910   5.460   0.617
 9572SOL    HW129615   1.966   5.395   0.567
 9572SOL    HW229616   1.841   5.411   0.670
 9573SOL     OW29617   0.542   1.345   6.588
 9573SOL    HW129618   0.537   1.416   6.659
 9573SOL    HW229619   0.618   1.364   6.527
 9574SOL     OW29620   3.983   3.211   4.779
 9574SOL    HW129621   3.969   3.148   4.855
 9574SOL    HW229622   3.984   3.160   4.693
 9575SOL     OW29623   5.404   0.780   0.903
 9575SOL    HW129624   5.409   0.681   0.916
 9575SOL    HW229625   5.482   0.823   0.950
 9576SOL     OW29626   3.143   1.797   3.329
 9576SOL    HW129627   3.236   1.763   3.336
 9576SOL    HW229628   3.142   1.881   3.275
 9577SOL     OW29629   1.522   0.753   2.591
 9577SOL    HW129630   1.611   0.745   2.546
 9577SOL    HW229631   1.475   0.835   2.559
 9578SOL     OW29632   6.345   3.382   3.082
 9578SOL    HW129633   6.332   3.338   2.993
 9578SOL    HW229634   6.346   3.313   3.154
 9579SOL     OW29635   1.254   6.387   2.560
 9579SOL    HW129636   1.180   6.449   2.535
 9579SOL    HW229637   1.342   6.436   2.552
 9580SOL     OW29638   5.418   3.581   0.111
 9580SOL    HW129639   5.331   3.599   0.159
 9580SOL    HW229640   5.460   3.499   0.149
 9581SOL     OW29641   2.459   4.890   6.340
 9581SOL    HW129642   2.507   4.875   6.254
 9581SOL    HW229643   2.370   4.933   6.322
 9582SOL     OW29644   4.644   4.562   4.235
 9582SOL    HW129645   4.577   4.598   4.300
 9582SOL    HW229646   4.600   4.545   4.147
 9583SOL     OW29647   2.004   3.159   1.607
 9583SOL    HW129648   2.096   3.119   1.607
 9583SOL    HW229649   1.982   3.194   1.516
 9584SOL     OW29650   6.017   5.846   6.924
 9584SOL    HW129651   6.081   5.849   7.000
 9584SOL    HW229652   6.063   5.812   6.842
 9585SOL     OW29653   6.636   0.567   2.371
 9585SOL    HW129654   6.561   0.630   2.391
 9585SOL    HW229655   6.723   0.610   2.398
 9586SOL     OW29656   6.147   3.564   3.035
 9586SOL    HW129657   6.222   3.514   3.077
 9586SOL    HW229658   6.107   3.627   3.102
 9587SOL     OW29659   6.196   0.383   1.829
 9587SOL    HW129660   6.126   0.335   1.777
 9587SOL    HW229661   6.210   0.337   1.917
 9588SOL     OW29662   0.410   1.296   1.542
 9588SOL    HW129663   0.490   1.304   1.601
 9588SOL    HW229664   0.327   1.293   1.598
 9589SOL     OW29665   2.665   5.658   0.087
 9589SOL    HW129666   2.713   5.744   0.068
 9589SOL    HW229667   2.617   5.628   0.004
 9590SOL     OW29668   0.416   4.073   2.239
 9590SOL    HW129669   0.381   4.087   2.331
 9590SOL    HW229670   0.372   4.138   2.177
 9591SOL     OW29671   2.809   5.842   0.561
 9591SOL    HW129672   2.841   5.788   0.483
 9591SOL    HW229673   2.809   5.785   0.643
 9592SOL     OW29674   4.171   5.429   2.529
 9592SOL    HW129675   4.213   5.373   2.600
 9592SOL    HW229676   4.240   5.453   2.461
 9593SOL     OW29677   4.923   2.027   4.748
 9593SOL    HW129678   4.965   2.117   4.748
 9593SOL    HW229679   4.950   1.976   4.666
 9594SOL     OW29680   6.851   6.423   3.197
 9594SOL    HW129681   6.857   6.330   3.232
 9594SOL    HW229682   6.759   6.440   3.162
 9595SOL     OW29683   2.164   5.416   5.138
 9595SOL    HW129684   2.110   5.345   5.094
 9595SOL    HW229685   2.223   5.459   5.070
 9596SOL     OW29686   0.295   4.633   6.225
 9596SOL    HW129687   0.218   4.676   6.272
 9596SOL    HW229688   0.311   4.679   6.138
 9597SOL     OW29689   0.286   3.852   1.649
 9597SOL    HW129690   0.217   3.918   1.619
 9597SOL    HW229691   0.369   3.865   1.596
 9598SOL     OW29692   0.461   4.003   5.293
 9598SOL    HW129693   0.491   3.937   5.225
 9598SOL    HW229694   0.541   4.046   5.336
 9599SOL     OW29695   3.728   0.598   5.123
 9599SOL    HW129696   3.631   0.598   5.150
 9599SOL    HW229697   3.775   0.522   5.168
 9600SOL     OW29698   1.483   0.068   5.857
 9600SOL    HW129699   1.421   0.028   5.789
 9600SOL    HW229700   1.432   0.097   5.937
 9601SOL     OW29701   6.107   4.114   6.357
 9601SOL    HW129702   6.159   4.039   6.316
 9601SOL    HW229703   6.064   4.083   6.441
 9602SOL     OW29704   6.692   4.960   6.363
 9602SOL    HW129705   6.712   4.888   6.431
 9602SOL    HW229706   6.696   5.049   6.407
 9603SOL     OW29707   2.332   6.843   4.213
 9603SOL    HW129708   2.378   6.793   4.285
 9603SOL    HW229709   2.358   6.940   4.217
 9604SOL     OW29710   4.994   0.919   0.142
 9604SOL    HW129711   4.953   0.986   0.080
 9604SOL    HW229712   5.078   0.957   0.181
 9605SOL     OW29713   1.146   5.047   5.664
 9605SOL    HW129714   1.240   5.015   5.674
 9605SOL    HW229715   1.102   4.999   5.587
 9606SOL     OW29716   0.778   6.979   3.980
 9606SOL    HW129717   0.871   7.016   3.988
 9606SOL    HW229718   0.766   6.904   4.045
 9607SOL     OW29719   1.025   1.196   1.799
 9607SOL    HW129720   1.065   1.133   1.865
 9607SOL    HW229721   0.965   1.261   1.846
 9608SOL     OW29722   6.851   0.115   2.792
 9608SOL    HW129723   6.939   0.139   2.749
 9608SOL    HW229724   6.798   0.059   2.729
 9609SOL     OW29725   1.363   4.085   4.521
 9609SOL    HW129726   1.297   4.125   4.585
 9609SOL    HW229727   1.430   4.031   4.571
 9610SOL     OW29728   1.145   3.193   6.000
 9610SOL    HW129729   1.163   3.291   6.001
 9610SOL    HW229730   1.226   3.144   5.968
 9611SOL     OW29731   6.979   6.934   1.620
 9611SOL    HW129732   6.953   6.967   1.711
 9611SOL    HW229733   7.013   7.011   1.566
 9612SOL     OW29734   6.683   2.722   0.485
 9612SOL    HW129735   6.642   2.656   0.549
 9612SOL    HW229736   6.633   2.809   0.492
 9613SOL     OW29737   5.675   6.336   4.330
 9613SOL    HW129738   5.661   6.432   4.354
 9613SOL    HW229739   5.765   6.306   4.362
 9614SOL     OW29740   4.198   3.508   1.951
 9614SOL    HW129741   4.217   3.411   1.941
 9614SOL    HW229742   4.264   3.548   2.014
 9615SOL     OW29743   2.086   5.248   3.556
 9615SOL    HW129744   2.157   5.234   3.487
 9615SOL    HW229745   2.089   5.342   3.590
 9616SOL     OW29746   4.087   2.934   1.383
 9616SOL    HW129747   4.031   2.852   1.394
 9616SOL    HW229748   4.081   2.965   1.288
 9617SOL     OW29749   1.011   3.508   3.328
 9617SOL    HW129750   1.083   3.549   3.272
 9617SOL    HW229751   1.015   3.547   3.420
 9618SOL     OW29752   3.811   0.583   6.807
 9618SOL    HW129753   3.790   0.668   6.759
 9618SOL    HW229754   3.758   0.508   6.767
 9619SOL     OW29755   1.192   6.206   0.685
 9619SOL    HW129756   1.116   6.225   0.623
 9619SOL    HW229757   1.186   6.112   0.718
 9620SOL     OW29758   4.167   1.166   6.960
 9620SOL    HW129759   4.109   1.114   7.022
 9620SOL    HW229760   4.128   1.163   6.868
 9621SOL     OW29761   1.580   0.667   2.254
 9621SOL    HW129762   1.507   0.602   2.234
 9621SOL    HW229763   1.575   0.743   2.189
 9622SOL     OW29764   6.786   0.689   6.516
 9622SOL    HW129765   6.727   0.753   6.565
 9622SOL    HW229766   6.781   0.599   6.559
 9623SOL     OW29767   4.851   5.441   6.960
 9623SOL    HW129768   4.841   5.341   6.960
 9623SOL    HW229769   4.896   5.470   6.875
 9624SOL     OW29770   4.859   5.322   5.488
 9624SOL    HW129771   4.930   5.375   5.441
 9624SOL    HW229772   4.901   5.260   5.555
 9625SOL     OW29773   5.049   4.320   6.699
 9625SOL    HW129774   4.959   4.276   6.706
 9625SOL    HW229775   5.038   4.419   6.706
 9626SOL     OW29776   1.907   5.059   4.536
 9626SOL    HW129777   1.996   5.103   4.546
 9626SOL    HW229778   1.918   4.959   4.537
 9627SOL     OW29779   1.182   4.508   4.798
 9627SOL    HW129780   1.238   4.563   4.736
 9627SOL    HW229781   1.191   4.543   4.891
 9628SOL     OW29782   6.155   4.237   0.627
 9628SOL    HW129783   6.239   4.185   0.616
 9628SOL    HW229784   6.115   4.218   0.717
 9629SOL     OW29785   6.634   6.595   3.448
 9629SOL    HW129786   6.626   6.693   3.433
 9629SOL    HW229787   6.699   6.578   3.522
 9630SOL     OW29788   5.989   5.800   5.457
 9630SOL    HW129789   5.983   5.701   5.461
 9630SOL    HW229790   6.071   5.831   5.504
 9631SOL     OW29791   4.085   0.875   1.731
 9631SOL    HW129792   4.141   0.956   1.713
 9631SOL    HW229793   4.137   0.812   1.789
 9632SOL     OW29794   1.748   5.507   1.735
 9632SOL    HW129795   1.735   5.408   1.723
 9632SOL    HW229796   1.660   5.551   1.751
 9633SOL     OW29797   3.858   3.401   1.618
 9633SOL    HW129798   3.945   3.446   1.598
 9633SOL    HW229799   3.790   3.426   1.549
 9634SOL     OW29800   6.063   4.941   3.064
 9634SOL    HW129801   6.001   4.891   3.125
 9634SOL    HW229802   6.016   5.021   3.027
 9635SOL     OW29803   0.099   4.830   5.122
 9635SOL    HW129804   0.139   4.774   5.194
 9635SOL    HW229805   0.085   4.923   5.155
 9636SOL     OW29806   4.094   1.317   6.072
 9636SOL    HW129807   4.115   1.261   6.152
 9636SOL    HW229808   4.006   1.363   6.087
 9637SOL     OW29809   3.105   3.523   1.341
 9637SOL    HW129810   3.036   3.593   1.321
 9637SOL    HW229811   3.068   3.459   1.408
 9638SOL     OW29812   6.794   3.841   6.073
 9638SOL    HW129813   6.836   3.931   6.073
 9638SOL    HW229814   6.781   3.810   6.167
 9639SOL     OW29815   4.607   2.765   1.815
 9639SOL    HW129816   4.616   2.864   1.816
 9639SOL    HW229817   4.598   2.733   1.721
 9640SOL     OW29818   3.713   1.240   1.966
 9640SOL    HW129819   3.773   1.160   1.974
 9640SOL    HW229820   3.623   1.217   2.001
 9641SOL     OW29821   4.869   5.817   2.726
 9641SOL    HW129822   4.856   5.865   2.814
 9641SOL    HW229823   4.956   5.845   2.686
 9642SOL     OW29824   1.086   0.400   4.063
 9642SOL    HW129825   1.116   0.353   4.146
 9642SOL    HW229826   1.132   0.360   3.983
 9643SOL     OW29827   4.711   4.162   3.530
 9643SOL    HW129828   4.773   4.098   3.577
 9643SOL    HW229829   4.679   4.231   3.594
 9644SOL     OW29830   1.712   6.211   5.255
 9644SOL    HW129831   1.629   6.179   5.302
 9644SOL    HW229832   1.792   6.175   5.302
 9645SOL     OW29833   1.082   4.214   5.239
 9645SOL    HW129834   1.023   4.291   5.262
 9645SOL    HW229835   1.144   4.195   5.314
 9646SOL     OW29836   2.114   6.180   3.198
 9646SOL    HW129837   2.024   6.149   3.168
 9646SOL    HW229838   2.166   6.102   3.232
 9647SOL     OW29839   6.902   6.570   2.913
 9647SOL    HW129840   6.812   6.562   2.956
 9647SOL    HW229841   6.966   6.610   2.978
 9648SOL     OW29842   5.314   3.263   1.194
 9648SOL    HW129843   5.224   3.306   1.203
 9648SOL    HW229844   5.303   3.164   1.189
 9649SOL     OW29845   2.534   4.071   6.303
 9649SOL    HW129846   2.627   4.035   6.295
 9649SOL    HW229847   2.470   4.004   6.267
 9650SOL     OW29848   5.618   5.058   3.488
 9650SOL    HW129849   5.614   5.054   3.388
 9650SOL    HW229850   5.558   5.131   3.521
 9651SOL     OW29851   3.967   1.631   1.510
 9651SOL    HW129852   3.968   1.531   1.520
 9651SOL    HW229853   3.878   1.666   1.541
 9652SOL     OW29854   0.568   4.763   1.489
 9652SOL    HW129855   0.512   4.769   1.407
 9652SOL    HW229856   0.535   4.829   1.557
 9653SOL     OW29857   4.497   4.436   5.883
 9653SOL    HW129858   4.547   4.379   5.817
 9653SOL    HW229859   4.560   4.503   5.923
 9654SOL     OW29860   3.304   3.425   2.461
 9654SOL    HW129861   3.327   3.328   2.445
 9654SOL    HW229862   3.271   3.465   2.375
 9655SOL     OW29863   0.396   1.841   0.540
 9655SOL    HW129864   0.371   1.777   0.613
 9655SOL    HW229865   0.352   1.813   0.455
 9656SOL     OW29866   4.431   2.088   0.542
 9656SOL    HW129867   4.489   2.025   0.489
 9656SOL    HW229868   4.484   2.124   0.619
 9657SOL     OW29869   5.172   4.186   3.890
 9657SOL    HW129870   5.219   4.112   3.938
 9657SOL    HW229871   5.232   4.225   3.821
 9658SOL     OW29872   5.671   2.114   2.161
 9658SOL    HW129873   5.599   2.183   2.153
 9658SOL    HW229874   5.736   2.140   2.232
 9659SOL     OW29875   1.752   2.134   0.170
 9659SOL    HW129876   1.713   2.213   0.217
 9659SOL    HW229877   1.842   2.158   0.133
 9660SOL     OW29878   0.670   0.361   1.332
 9660SOL    HW129879   0.645   0.449   1.290
 9660SOL    HW229880   0.755   0.372   1.384
 9661SOL     OW29881   4.217   5.739   1.437
 9661SOL    HW129882   4.197   5.647   1.472
 9661SOL    HW229883   4.299   5.775   1.481
 9662SOL     OW29884   5.052   3.648   0.541
 9662SOL    HW129885   4.977   3.608   0.593
 9662SOL    HW229886   5.139   3.611   0.574
 9663SOL     OW29887   0.225   4.451   2.758
 9663SOL    HW129888   0.207   4.353   2.770
 9663SOL    HW229889   0.218   4.474   2.661
 9664SOL     OW29890   5.306   4.000   5.123
 9664SOL    HW129891   5.227   4.060   5.133
 9664SOL    HW229892   5.290   3.916   5.175
 9665SOL     OW29893   6.231   5.933   5.561
 9665SOL    HW129894   6.188   6.016   5.526
 9665SOL    HW229895   6.326   5.928   5.529
 9666SOL     OW29896   6.176   3.998   1.848
 9666SOL    HW129897   6.148   4.094   1.846
 9666SOL    HW229898   6.215   3.973   1.759
 9667SOL     OW29899   4.120   4.174   0.918
 9667SOL    HW129900   4.133   4.090   0.970
 9667SOL    HW229901   4.130   4.155   0.820
 9668SOL     OW29902   1.185   1.179   5.996
 9668SOL    HW129903   1.123   1.255   6.015
 9668SOL    HW229904   1.187   1.161   5.898
 9669SOL     OW29905   2.361   6.598   1.153
 9669SOL    HW129906   2.385   6.678   1.207
 9669SOL    HW229907   2.339   6.522   1.215
 9670SOL     OW29908   0.173   5.515   5.350
 9670SOL    HW129909   0.134   5.443   5.293
 9670SOL    HW229910   0.178   5.600   5.298
 9671SOL     OW29911   6.902   4.980   0.440
 9671SOL    HW129912   6.802   4.977   0.452
 9671SOL    HW229913   6.927   5.067   0.398
 9672SOL     OW29914   1.894   4.779   3.063
 9672SOL    HW129915   1.990   4.805   3.055
 9672SOL    HW229916   1.857   4.757   2.973
 9673SOL     OW29917   3.759   3.957   1.212
 9673SOL    HW129918   3.777   3.966   1.114
 9673SOL    HW229919   3.844   3.935   1.260
 9674SOL     OW29920   3.938   6.175   2.924
 9674SOL    HW129921   3.844   6.152   2.950
 9674SOL    HW229922   4.002   6.118   2.976
 9675SOL     OW29923   4.618   3.226   6.756
 9675SOL    HW129924   4.651   3.134   6.776
 9675SOL    HW229925   4.621   3.243   6.658
 9676SOL     OW29926   1.229   3.285   5.448
 9676SOL    HW129927   1.164   3.338   5.503
 9676SOL    HW229928   1.245   3.196   5.491
 9677SOL     OW29929   6.697   5.210   6.503
 9677SOL    HW129930   6.788   5.209   6.542
 9677SOL    HW229931   6.684   5.294   6.450
 9678SOL     OW29932   3.249   3.766   4.269
 9678SOL    HW129933   3.306   3.844   4.295
 9678SOL    HW229934   3.176   3.797   4.209
 9679SOL     OW29935   2.842   0.954   4.276
 9679SOL    HW129936   2.923   1.013   4.282
 9679SOL    HW229937   2.846   0.885   4.349
 9680SOL     OW29938   4.419   0.162   5.778
 9680SOL    HW129939   4.349   0.111   5.827
 9680SOL    HW229940   4.493   0.188   5.841
 9681SOL     OW29941   3.500   2.004   0.666
 9681SOL    HW129942   3.445   2.078   0.627
 9681SOL    HW229943   3.501   2.012   0.766
 9682SOL     OW29944   4.678   4.192   4.012
 9682SOL    HW129945   4.722   4.162   4.097
 9682SOL    HW229946   4.631   4.279   4.028
 9683SOL     OW29947   3.139   6.012   0.483
 9683SOL    HW129948   3.086   6.078   0.431
 9683SOL    HW229949   3.093   5.993   0.570
 9684SOL     OW29950   0.448   3.989   4.980
 9684SOL    HW129951   0.436   3.931   4.900
 9684SOL    HW229952   0.380   4.063   4.978
 9685SOL     OW29953   4.771   3.264   0.556
 9685SOL    HW129954   4.819   3.267   0.468
 9685SOL    HW229955   4.837   3.281   0.630
 9686SOL     OW29956   0.950   2.886   6.867
 9686SOL    HW129957   0.980   2.979   6.845
 9686SOL    HW229958   1.027   2.835   6.906
 9687SOL     OW29959   6.471   0.915   2.041
 9687SOL    HW129960   6.376   0.884   2.044
 9687SOL    HW229961   6.479   1.001   2.092
 9688SOL     OW29962   0.766   3.234   0.577
 9688SOL    HW129963   0.799   3.237   0.482
 9688SOL    HW229964   0.728   3.323   0.602
 9689SOL     OW29965   0.744   4.150   6.493
 9689SOL    HW129966   0.762   4.120   6.587
 9689SOL    HW229967   0.680   4.227   6.495
 9690SOL     OW29968   4.723   6.297   5.658
 9690SOL    HW129969   4.689   6.229   5.594
 9690SOL    HW229970   4.678   6.385   5.641
 9691SOL     OW29971   3.021   3.967   1.856
 9691SOL    HW129972   3.024   3.894   1.788
 9691SOL    HW229973   3.036   4.055   1.812
 9692SOL     OW29974   4.874   6.104   1.104
 9692SOL    HW129975   4.803   6.083   1.037
 9692SOL    HW229976   4.946   6.035   1.099
 9693SOL     OW29977   5.613   4.172   3.353
 9693SOL    HW129978   5.523   4.186   3.394
 9693SOL    HW229979   5.614   4.087   3.301
 9694SOL     OW29980   3.634   1.117   2.225
 9694SOL    HW129981   3.542   1.152   2.240
 9694SOL    HW229982   3.632   1.018   2.220
 9695SOL     OW29983   6.893   2.927   3.359
 9695SOL    HW129984   6.962   2.999   3.364
 9695SOL    HW229985   6.805   2.968   3.334
 9696SOL     OW29986   6.256   2.505   1.833
 9696SOL    HW129987   6.253   2.454   1.747
 9696SOL    HW229988   6.288   2.598   1.815
 9697SOL     OW29989   0.332   6.467   0.620
 9697SOL    HW129990   0.347   6.369   0.614
 9697SOL    HW229991   0.385   6.513   0.549
 9698SOL     OW29992   5.218   2.977   6.070
 9698SOL    HW129993   5.295   3.008   6.125
 9698SOL    HW229994   5.137   2.968   6.127
 9699SOL     OW29995   0.465   5.503   0.161
 9699SOL    HW129996   0.533   5.575   0.154
 9699SOL    HW229997   0.484   5.446   0.241
 9700SOL     OW29998   6.519   5.506   4.758
 9700SOL    HW129999   6.468   5.430   4.799
 9700SOL    HW230000   6.526   5.581   4.823
 9701SOL     OW30001   4.429   3.917   5.577
 9701SOL    HW130002   4.412   3.834   5.630
 9701SOL    HW230003   4.513   3.961   5.611
 9702SOL     OW30004   4.377   2.358   7.018
 9702SOL    HW130005   4.326   2.272   0.004
 9702SOL    HW230006   4.460   2.343   6.965
 9703SOL     OW30007   5.018   3.904   4.067
 9703SOL    HW130008   4.952   3.950   4.008
 9703SOL    HW230009   5.008   3.805   4.058
 9704SOL     OW30010   3.565   5.783   2.341
 9704SOL    HW130011   3.594   5.785   2.437
 9704SOL    HW230012   3.473   5.823   2.333
 9705SOL     OW30013   5.637   4.558   5.840
 9705SOL    HW130014   5.553   4.551   5.786
 9705SOL    HW230015   5.616   4.598   5.929
 9706SOL     OW30016   2.659   2.145   1.486
 9706SOL    HW130017   2.645   2.068   1.548
 9706SOL    HW230018   2.571   2.185   1.462
 9707SOL     OW30019   5.293   5.103   2.163
 9707SOL    HW130020   5.214   5.156   2.193
 9707SOL    HW230021   5.302   5.021   2.219
 9708SOL     OW30022   1.022   1.507   3.074
 9708SOL    HW130023   0.992   1.519   2.980
 9708SOL    HW230024   0.984   1.423   3.112
 9709SOL     OW30025   5.464   4.816   2.107
 9709SOL    HW130026   5.512   4.729   2.096
 9709SOL    HW230027   5.375   4.800   2.150
 9710SOL     OW30028   6.352   0.994   1.051
 9710SOL    HW130029   6.430   0.954   1.004
 9710SOL    HW230030   6.381   1.075   1.102
 9711SOL     OW30031   3.857   5.546   6.465
 9711SOL    HW130032   3.773   5.496   6.489
 9711SOL    HW230033   3.833   5.640   6.441
 9712SOL     OW30034   5.856   3.236   0.317
 9712SOL    HW130035   5.805   3.161   0.275
 9712SOL    HW230036   5.796   3.285   0.381
 9713SOL     OW30037   2.595   5.339   3.602
 9713SOL    HW130038   2.536   5.260   3.615
 9713SOL    HW230039   2.670   5.335   3.668
 9714SOL     OW30040   4.040   6.585   6.226
 9714SOL    HW130041   4.071   6.629   6.311
 9714SOL    HW230042   3.968   6.518   6.248
 9715SOL     OW30043   5.867   4.268   0.119
 9715SOL    HW130044   5.835   4.186   0.071
 9715SOL    HW230045   5.795   4.301   0.180
 9716SOL     OW30046   3.475   4.741   0.180
 9716SOL    HW130047   3.524   4.673   0.126
 9716SOL    HW230048   3.386   4.760   0.138
 9717SOL     OW30049   4.816   6.234   6.638
 9717SOL    HW130050   4.862   6.243   6.727
 9717SOL    HW230051   4.882   6.249   6.565
 9718SOL     OW30052   4.873   2.967   1.281
 9718SOL    HW130053   4.951   2.930   1.232
 9718SOL    HW230054   4.792   2.962   1.223
 9719SOL     OW30055   5.356   6.819   6.036
 9719SOL    HW130056   5.340   6.813   6.134
 9719SOL    HW230057   5.269   6.823   5.988
 9720SOL     OW30058   1.048   3.654   2.444
 9720SOL    HW130059   1.141   3.636   2.477
 9720SOL    HW230060   1.035   3.608   2.356
 9721SOL     OW30061   6.918   0.878   6.730
 9721SOL    HW130062   6.846   0.913   6.671
 9721SOL    HW230063   6.964   0.954   6.777
 9722SOL     OW30064   3.268   0.661   5.195
 9722SOL    HW130065   3.320   0.689   5.115
 9722SOL    HW230066   3.191   0.723   5.209
 9723SOL     OW30067   4.532   5.876   4.291
 9723SOL    HW130068   4.625   5.853   4.263
 9723SOL    HW230069   4.492   5.800   4.342
 9724SOL     OW30070   1.588   4.524   0.416
 9724SOL    HW130071   1.559   4.600   0.474
 9724SOL    HW230072   1.655   4.557   0.349
 9725SOL     OW30073   3.777   6.811   6.446
 9725SOL    HW130074   3.840   6.740   6.476
 9725SOL    HW230075   3.794   6.895   6.499
 9726SOL     OW30076   4.867   1.774   4.435
 9726SOL    HW130077   4.860   1.678   4.411
 9726SOL    HW230078   4.798   1.796   4.504
 9727SOL     OW30079   1.183   1.912   6.417
 9727SOL    HW130080   1.149   1.934   6.326
 9727SOL    HW230081   1.195   1.997   6.469
 9728SOL     OW30082   0.521   1.678   5.005
 9728SOL    HW130083   0.570   1.592   5.024
 9728SOL    HW230084   0.423   1.660   4.999
 9729SOL     OW30085   1.520   4.671   3.743
 9729SOL    HW130086   1.527   4.592   3.682
 9729SOL    HW230087   1.555   4.752   3.696
 9730SOL     OW30088   1.082   4.662   3.657
 9730SOL    HW130089   1.146   4.713   3.715
 9730SOL    HW230090   1.025   4.603   3.714
 9731SOL     OW30091   5.054   5.402   1.590
 9731SOL    HW130092   4.961   5.437   1.577
 9731SOL    HW230093   5.113   5.477   1.620
 9732SOL     OW30094   1.233   3.898   2.203
 9732SOL    HW130095   1.185   3.860   2.282
 9732SOL    HW230096   1.223   3.998   2.204
 9733SOL     OW30097   5.447   5.402   0.060
 9733SOL    HW130098   5.430   5.492   0.100
 9733SOL    HW230099   5.361   5.362   0.030
 9734SOL     OW30100   6.613   0.053   0.376
 9734SOL    HW130101   6.552   0.066   0.454
 9734SOL    HW230102   6.599   0.126   0.309
 9735SOL     OW30103   1.449   3.121   3.390
 9735SOL    HW130104   1.391   3.047   3.356
 9735SOL    HW230105   1.519   3.084   3.451
 9736SOL     OW30106   5.723   1.996   6.323
 9736SOL    HW130107   5.640   1.956   6.361
 9736SOL    HW230108   5.726   1.981   6.224
 9737SOL     OW30109   5.317   2.342   2.916
 9737SOL    HW130110   5.329   2.249   2.952
 9737SOL    HW230111   5.375   2.354   2.836
 9738SOL     OW30112   1.853   6.600   0.943
 9738SOL    HW130113   1.944   6.629   0.969
 9738SOL    HW230114   1.829   6.639   0.854
 9739SOL     OW30115   5.187   5.499   0.480
 9739SOL    HW130116   5.103   5.548   0.459
 9739SOL    HW230117   5.214   5.443   0.402
 9740SOL     OW30118   0.183   1.364   3.161
 9740SOL    HW130119   0.255   1.433   3.157
 9740SOL    HW230120   0.102   1.401   3.206
 9741SOL     OW30121   2.515   1.050   3.297
 9741SOL    HW130122   2.490   1.145   3.278
 9741SOL    HW230123   2.577   1.017   3.226
 9742SOL     OW30124   4.408   1.195   0.503
 9742SOL    HW130125   4.435   1.103   0.476
 9742SOL    HW230126   4.429   1.259   0.428
 9743SOL     OW30127   6.714   4.127   3.093
 9743SOL    HW130128   6.647   4.086   3.155
 9743SOL    HW230129   6.709   4.226   3.100
 9744SOL     OW30130   1.761   7.001   2.522
 9744SOL    HW130131   1.743   0.008   2.616
 9744SOL    HW230132   1.751   0.056   2.460
 9745SOL     OW30133   4.459   3.133   6.332
 9745SOL    HW130134   4.367   3.166   6.355
 9745SOL    HW230135   4.465   3.120   6.233
 9746SOL     OW30136   5.523   6.618   5.612
 9746SOL    HW130137   5.506   6.548   5.681
 9746SOL    HW230138   5.508   6.580   5.521
 9747SOL     OW30139   3.083   2.101   1.953
 9747SOL    HW130140   3.118   2.135   1.866
 9747SOL    HW230141   3.021   2.168   1.993
 9748SOL     OW30142   6.771   6.519   3.664
 9748SOL    HW130143   6.716   6.545   3.743
 9748SOL    HW230144   6.861   6.563   3.670
 9749SOL     OW30145   0.460   1.067   3.813
 9749SOL    HW130146   0.506   0.981   3.834
 9749SOL    HW230147   0.361   1.055   3.822
 9750SOL     OW30148   5.761   5.555   3.415
 9750SOL    HW130149   5.664   5.574   3.429
 9750SOL    HW230150   5.796   5.504   3.494
 9751SOL     OW30151   2.216   6.690   0.838
 9751SOL    HW130152   2.307   6.727   0.821
 9751SOL    HW230153   2.169   6.746   0.906
 9752SOL     OW30154   4.640   1.547   5.401
 9752SOL    HW130155   4.547   1.509   5.400
 9752SOL    HW230156   4.703   1.480   5.440
 9753SOL     OW30157   0.684   5.298   5.786
 9753SOL    HW130158   0.755   5.358   5.749
 9753SOL    HW230159   0.709   5.269   5.878
 9754SOL     OW30160   2.633   1.141   0.425
 9754SOL    HW130161   2.691   1.200   0.480
 9754SOL    HW230162   2.681   1.056   0.404
 9755SOL     OW30163   3.038   3.931   4.159
 9755SOL    HW130164   3.099   4.011   4.165
 9755SOL    HW230165   2.949   3.955   4.197
 9756SOL     OW30166   6.262   2.633   6.284
 9756SOL    HW130167   6.290   2.729   6.280
 9756SOL    HW230168   6.284   2.595   6.374
 9757SOL     OW30169   6.040   4.553   4.759
 9757SOL    HW130170   6.065   4.562   4.855
 9757SOL    HW230171   6.121   4.529   4.705
 9758SOL     OW30172   2.042   1.361   0.389
 9758SOL    HW130173   1.999   1.357   0.480
 9758SOL    HW230174   1.979   1.321   0.322
 9759SOL     OW30175   1.314   1.197   0.447
 9759SOL    HW130176   1.358   1.285   0.466
 9759SOL    HW230177   1.350   1.128   0.511
 9760SOL     OW30178   4.614   3.078   5.348
 9760SOL    HW130179   4.646   3.168   5.319
 9760SOL    HW230180   4.675   3.042   5.419
 9761SOL     OW30181   0.780   2.565   1.799
 9761SOL    HW130182   0.839   2.600   1.872
 9761SOL    HW230183   0.696   2.620   1.796
 9762SOL     OW30184   3.585   1.737   5.012
 9762SOL    HW130185   3.527   1.684   4.950
 9762SOL    HW230186   3.672   1.756   4.967
 9763SOL     OW30187   5.177   1.059   3.583
 9763SOL    HW130188   5.183   1.154   3.612
 9763SOL    HW230189   5.212   1.051   3.489
 9764SOL     OW30190   6.677   2.514   2.616
 9764SOL    HW130191   6.659   2.604   2.656
 9764SOL    HW230192   6.639   2.512   2.523
 9765SOL     OW30193   6.574   6.264   2.957
 9765SOL    HW130194   6.625   6.254   3.042
 9765SOL    HW230195   6.564   6.361   2.935
 9766SOL     OW30196   2.281   6.197   1.887
 9766SOL    HW130197   2.194   6.245   1.897
 9766SOL    HW230198   2.298   6.139   1.967
 9767SOL     OW30199   2.325   2.337   5.904
 9767SOL    HW130200   2.358   2.374   5.817
 9767SOL    HW230201   2.226   2.323   5.899
 9768SOL     OW30202   4.626   1.365   1.807
 9768SOL    HW130203   4.625   1.272   1.770
 9768SOL    HW230204   4.534   1.403   1.802
 9769SOL     OW30205   3.437   1.353   4.572
 9769SOL    HW130206   3.505   1.302   4.624
 9769SOL    HW230207   3.483   1.423   4.516
 9770SOL     OW30208   3.892   0.808   5.502
 9770SOL    HW130209   3.810   0.853   5.537
 9770SOL    HW230210   3.866   0.741   5.433
 9771SOL     OW30211   2.426   5.681   0.997
 9771SOL    HW130212   2.461   5.745   1.065
 9771SOL    HW230213   2.454   5.588   1.021
 9772SOL     OW30214   1.666   6.147   1.802
 9772SOL    HW130215   1.742   6.166   1.739
 9772SOL    HW230216   1.684   6.190   1.890
 9773SOL     OW30217   4.882   5.558   3.762
 9773SOL    HW130218   4.973   5.517   3.774
 9773SOL    HW230219   4.868   5.579   3.665
 9774SOL     OW30220   0.059   5.290   2.840
 9774SOL    HW130221   0.030   5.288   2.744
 9774SOL    HW230222   0.083   5.384   2.865
 9775SOL     OW30223   3.462   0.226   3.672
 9775SOL    HW130224   3.462   0.131   3.640
 9775SOL    HW230225   3.495   0.229   3.767
 9776SOL     OW30226   0.967   5.189   5.830
 9776SOL    HW130227   0.935   5.254   5.761
 9776SOL    HW230228   1.037   5.130   5.790
 9777SOL     OW30229   6.180   5.218   1.059
 9777SOL    HW130230   6.269   5.230   1.103
 9777SOL    HW230231   6.193   5.194   0.963
 9778SOL     OW30232   0.057   1.338   4.647
 9778SOL    HW130233   0.139   1.323   4.702
 9778SOL    HW230234   0.023   1.431   4.662
 9779SOL     OW30235   0.537   1.670   3.859
 9779SOL    HW130236   0.618   1.614   3.878
 9779SOL    HW230237   0.491   1.635   3.778
 9780SOL     OW30238   2.276   2.198   0.171
 9780SOL    HW130239   2.317   2.115   0.131
 9780SOL    HW230240   2.270   2.269   0.100
 9781SOL     OW30241   1.930   2.909   4.688
 9781SOL    HW130242   1.845   2.921   4.637
 9781SOL    HW230243   1.969   2.819   4.669
 9782SOL     OW30244   0.676   1.997   0.128
 9782SOL    HW130245   0.659   2.019   0.032
 9782SOL    HW230246   0.615   2.050   0.186
 9783SOL     OW30247   4.465   2.484   2.939
 9783SOL    HW130248   4.417   2.464   2.854
 9783SOL    HW230249   4.428   2.427   3.013
 9784SOL     OW30250   3.669   0.828   6.167
 9784SOL    HW130251   3.583   0.802   6.211
 9784SOL    HW230252   3.746   0.790   6.217
 9785SOL     OW30253   0.187   2.003   5.490
 9785SOL    HW130254   0.247   2.066   5.537
 9785SOL    HW230255   0.227   1.911   5.490
 9786SOL     OW30256   2.422   3.769   0.352
 9786SOL    HW130257   2.492   3.731   0.413
 9786SOL    HW230258   2.406   3.706   0.276
 9787SOL     OW30259   3.342   2.934   2.445
 9787SOL    HW130260   3.376   2.970   2.532
 9787SOL    HW230261   3.420   2.902   2.391
 9788SOL     OW30262   0.858   6.695   2.538
 9788SOL    HW130263   0.847   6.767   2.607
 9788SOL    HW230264   0.772   6.682   2.489
 9789SOL     OW30265   1.595   5.940   0.279
 9789SOL    HW130266   1.605   5.844   0.303
 9789SOL    HW230267   1.528   5.983   0.339
 9790SOL     OW30268   6.385   4.514   6.148
 9790SOL    HW130269   6.368   4.442   6.215
 9790SOL    HW230270   6.478   4.506   6.113
 9791SOL     OW30271   0.682   6.927   6.650
 9791SOL    HW130272   0.721   6.952   6.739
 9791SOL    HW230273   0.743   6.861   6.606
 9792SOL     OW30274   2.816   4.359   0.299
 9792SOL    HW130275   2.811   4.300   0.219
 9792SOL    HW230276   2.851   4.307   0.377
 9793SOL     OW30277   4.460   0.423   2.395
 9793SOL    HW130278   4.484   0.332   2.358
 9793SOL    HW230279   4.461   0.420   2.494
 9794SOL     OW30280   6.233   4.154   6.003
 9794SOL    HW130281   6.201   4.223   5.939
 9794SOL    HW230282   6.277   4.080   5.953
 9795SOL     OW30283   1.399   2.257   4.718
 9795SOL    HW130284   1.403   2.352   4.689
 9795SOL    HW230285   1.492   2.219   4.722
 9796SOL     OW30286   4.100   3.522   2.532
 9796SOL    HW130287   4.053   3.496   2.617
 9796SOL    HW230288   4.098   3.445   2.468
 9797SOL     OW30289   1.990   5.910   0.109
 9797SOL    HW130290   2.047   5.848   0.055
 9797SOL    HW230291   1.906   5.930   0.058
 9798SOL     OW30292   2.705   0.914   2.474
 9798SOL    HW130293   2.701   1.012   2.452
 9798SOL    HW230294   2.720   0.862   2.389
 9799SOL     OW30295   3.094   4.380   5.788
 9799SOL    HW130296   3.052   4.326   5.860
 9799SOL    HW230297   3.162   4.442   5.829
 9800SOL     OW30298   4.931   5.434   5.161
 9800SOL    HW130299   4.849   5.491   5.155
 9800SOL    HW230300   4.975   5.448   5.250
 9801SOL     OW30301   4.470   4.322   6.807
 9801SOL    HW130302   4.463   4.223   6.818
 9801SOL    HW230303   4.524   4.361   6.881
 9802SOL     OW30304   6.126   4.858   0.818
 9802SOL    HW130305   6.067   4.791   0.773
 9802SOL    HW230306   6.179   4.813   0.889
 9803SOL     OW30307   1.943   2.895   6.437
 9803SOL    HW130308   2.015   2.872   6.372
 9803SOL    HW230309   1.900   2.810   6.469
 9804SOL     OW30310   0.934   6.457   3.063
 9804SOL    HW130311   0.839   6.485   3.051
 9804SOL    HW230312   0.941   6.358   3.056
 9805SOL     OW30313   0.491   6.652   2.578
 9805SOL    HW130314   0.534   6.685   2.494
 9805SOL    HW230315   0.392   6.645   2.565
 9806SOL     OW30316   1.458   1.655   6.853
 9806SOL    HW130317   1.519   1.632   6.929
 9806SOL    HW230318   1.366   1.674   6.888
 9807SOL     OW30319   3.022   3.826   1.340
 9807SOL    HW130320   3.085   3.846   1.416
 9807SOL    HW230321   2.928   3.840   1.370
 9808SOL     OW30322   4.230   6.097   5.304
 9808SOL    HW130323   4.146   6.073   5.256
 9808SOL    HW230324   4.207   6.145   5.389
 9809SOL     OW30325   0.851   3.349   6.867
 9809SOL    HW130326   0.827   3.351   6.770
 9809SOL    HW230327   0.949   3.360   6.877
 9810SOL     OW30328   3.292   2.076   4.889
 9810SOL    HW130329   3.323   2.075   4.794
 9810SOL    HW230330   3.262   2.169   4.913
 9811SOL     OW30331   5.725   4.871   3.643
 9811SOL    HW130332   5.684   4.940   3.584
 9811SOL    HW230333   5.657   4.839   3.709
 9812SOL     OW30334   3.590   1.474   5.270
 9812SOL    HW130335   3.525   1.511   5.336
 9812SOL    HW230336   3.646   1.404   5.314
 9813SOL     OW30337   5.107   2.005   0.829
 9813SOL    HW130338   5.206   2.009   0.813
 9813SOL    HW230339   5.088   2.018   0.926
 9814SOL     OW30340   0.124   0.136   6.519
 9814SOL    HW130341   0.191   0.147   6.592
 9814SOL    HW230342   0.168   0.148   6.430
 9815SOL     OW30343   4.880   3.260   4.669
 9815SOL    HW130344   4.926   3.178   4.704
 9815SOL    HW230345   4.902   3.338   4.727
 9816SOL     OW30346   0.497   0.888   5.752
 9816SOL    HW130347   0.490   0.849   5.660
 9816SOL    HW230348   0.412   0.937   5.774
 9817SOL     OW30349   1.669   6.603   3.179
 9817SOL    HW130350   1.639   6.556   3.262
 9817SOL    HW230351   1.641   6.550   3.099
 9818SOL     OW30352   6.697   0.838   4.047
 9818SOL    HW130353   6.666   0.932   4.035
 9818SOL    HW230354   6.645   0.778   3.986
 9819SOL     OW30355   5.328   3.666   3.683
 9819SOL    HW130356   5.361   3.647   3.591
 9819SOL    HW230357   5.404   3.694   3.741
 9820SOL     OW30358   3.306   3.052   6.899
 9820SOL    HW130359   3.321   3.036   6.801
 9820SOL    HW230360   3.237   3.123   6.911
 9821SOL     OW30361   5.726   1.563   6.435
 9821SOL    HW130362   5.722   1.463   6.441
 9821SOL    HW230363   5.634   1.601   6.447
 9822SOL     OW30364   1.791   0.244   3.436
 9822SOL    HW130365   1.772   0.278   3.344
 9822SOL    HW230366   1.706   0.215   3.479
 9823SOL     OW30367   2.546   0.596   0.238
 9823SOL    HW130368   2.474   0.665   0.228
 9823SOL    HW230369   2.630   0.641   0.268
 9824SOL     OW30370   2.252   4.717   4.784
 9824SOL    HW130371   2.210   4.728   4.874
 9824SOL    HW230372   2.340   4.764   4.782
 9825SOL     OW30373   4.179   5.076   6.061
 9825SOL    HW130374   4.179   4.978   6.042
 9825SOL    HW230375   4.146   5.125   5.980
 9826SOL     OW30376   5.218   5.259   5.981
 9826SOL    HW130377   5.279   5.288   5.907
 9826SOL    HW230378   5.129   5.304   5.970
 9827SOL     OW30379   2.041   3.573   3.981
 9827SOL    HW130380   1.948   3.591   3.949
 9827SOL    HW230381   2.073   3.486   3.944
 9828SOL     OW30382   2.566   2.960   6.289
 9828SOL    HW130383   2.554   3.051   6.252
 9828SOL    HW230384   2.491   2.940   6.353
 9829SOL     OW30385   3.722   5.556   6.963
 9829SOL    HW130386   3.674   5.513   0.018
 9829SOL    HW230387   3.771   5.485   6.911
 9830SOL     OW30388   6.178   2.773   2.043
 9830SOL    HW130389   6.227   2.817   1.969
 9830SOL    HW230390   6.169   2.675   2.024
 9831SOL     OW30391   2.143   5.274   1.107
 9831SOL    HW130392   2.186   5.321   1.030
 9831SOL    HW230393   2.167   5.177   1.104
 9832SOL     OW30394   4.936   5.571   2.824
 9832SOL    HW130395   4.850   5.545   2.868
 9832SOL    HW230396   4.917   5.638   2.752
 9833SOL     OW30397   3.847   3.864   5.225
 9833SOL    HW130398   3.922   3.815   5.270
 9833SOL    HW230399   3.869   3.875   5.128
 9834SOL     OW30400   3.126   4.510   5.356
 9834SOL    HW130401   3.051   4.526   5.291
 9834SOL    HW230402   3.212   4.502   5.307
 9835SOL     OW30403   3.357   2.954   5.469
 9835SOL    HW130404   3.279   2.928   5.413
 9835SOL    HW230405   3.421   2.877   5.476
 9836SOL     OW30406   6.066   4.587   3.916
 9836SOL    HW130407   6.113   4.512   3.963
 9836SOL    HW230408   6.111   4.606   3.829
 9837SOL     OW30409   3.246   0.183   3.089
 9837SOL    HW130410   3.194   0.254   3.135
 9837SOL    HW230411   3.290   0.221   3.007
 9838SOL     OW30412   1.140   6.629   6.187
 9838SOL    HW130413   1.076   6.552   6.188
 9838SOL    HW230414   1.196   6.626   6.270
 9839SOL     OW30415   5.750   1.272   3.884
 9839SOL    HW130416   5.772   1.341   3.815
 9839SOL    HW230417   5.817   1.275   3.958
 9840SOL     OW30418   6.936   1.759   1.115
 9840SOL    HW130419   7.003   1.692   1.087
 9840SOL    HW230420   6.895   1.802   1.034
 9841SOL     OW30421   1.986   4.106   4.674
 9841SOL    HW130422   1.899   4.118   4.723
 9841SOL    HW230423   2.042   4.039   4.722
 9842SOL     OW30424   4.109   3.269   2.322
 9842SOL    HW130425   4.054   3.214   2.386
 9842SOL    HW230426   4.184   3.214   2.286
 9843SOL     OW30427   5.331   0.886   1.277
 9843SOL    HW130428   5.408   0.842   1.322
 9843SOL    HW230429   5.246   0.841   1.303
 9844SOL     OW30430   6.005   0.933   1.809
 9844SOL    HW130431   5.921   0.889   1.840
 9844SOL    HW230432   6.003   1.030   1.834
 9845SOL     OW30433   2.889   2.300   4.049
 9845SOL    HW130434   2.885   2.399   4.035
 9845SOL    HW230435   2.978   2.265   4.020
 9846SOL     OW30436   3.834   3.459   1.902
 9846SOL    HW130437   3.838   3.441   1.803
 9846SOL    HW230438   3.751   3.510   1.923
 9847SOL     OW30439   3.458   2.856   4.150
 9847SOL    HW130440   3.388   2.860   4.221
 9847SOL    HW230441   3.416   2.876   4.061
 9848SOL     OW30442   3.107   3.536   5.670
 9848SOL    HW130443   3.121   3.519   5.767
 9848SOL    HW230444   3.009   3.549   5.652
 9849SOL     OW30445   0.845   0.195   6.884
 9849SOL    HW130446   0.866   0.167   6.977
 9849SOL    HW230447   0.747   0.214   6.876
 9850SOL     OW30448   5.605   0.060   3.798
 9850SOL    HW130449   5.571   0.127   3.864
 9850SOL    HW230450   5.618   0.104   3.709
 9851SOL     OW30451   5.133   0.792   4.912
 9851SOL    HW130452   5.094   0.831   4.828
 9851SOL    HW230453   5.152   0.695   4.899
 9852SOL     OW30454   4.012   2.075   2.775
 9852SOL    HW130455   3.988   2.052   2.681
 9852SOL    HW230456   3.937   2.048   2.836
 9853SOL     OW30457   5.040   4.177   4.862
 9853SOL    HW130458   4.947   4.141   4.876
 9853SOL    HW230459   5.055   4.255   4.922
 9854SOL     OW30460   0.331   6.137   4.463
 9854SOL    HW130461   0.319   6.236   4.458
 9854SOL    HW230462   0.245   6.092   4.438
 9855SOL     OW30463   2.355   2.885   0.719
 9855SOL    HW130464   2.291   2.828   0.668
 9855SOL    HW230465   2.315   2.909   0.808
 9856SOL     OW30466   5.206   4.718   5.209
 9856SOL    HW130467   5.124   4.662   5.216
 9856SOL    HW230468   5.191   4.806   5.255
 9857SOL     OW30469   4.507   2.390   3.347
 9857SOL    HW130470   4.534   2.479   3.311
 9857SOL    HW230471   4.489   2.327   3.271
 9858SOL     OW30472   0.136   1.039   0.555
 9858SOL    HW130473   0.060   0.979   0.530
 9858SOL    HW230474   0.200   1.046   0.478
 9859SOL     OW30475   6.474   6.998   1.753
 9859SOL    HW130476   6.378   0.003   1.739
 9859SOL    HW230477   6.477   6.919   1.814
 9860SOL     OW30478   0.955   1.640   3.854
 9860SOL    HW130479   0.877   1.588   3.888
 9860SOL    HW230480   0.961   1.631   3.755
 9861SOL     OW30481   3.207   0.051   3.321
 9861SOL    HW130482   3.109   0.067   3.333
 9861SOL    HW230483   3.238   0.093   3.236
 9862SOL     OW30484   3.590   3.854   0.263
 9862SOL    HW130485   3.610   3.949   0.286
 9862SOL    HW230486   3.561   3.805   0.344
 9863SOL     OW30487   3.252   0.229   2.611
 9863SOL    HW130488   3.213   0.247   2.521
 9863SOL    HW230489   3.351   0.245   2.610
 9864SOL     OW30490   3.865   6.612   4.009
 9864SOL    HW130491   3.838   6.571   3.921
 9864SOL    HW230492   3.814   6.569   4.083
 9865SOL     OW30493   1.430   1.210   4.226
 9865SOL    HW130494   1.521   1.202   4.186
 9865SOL    HW230495   1.426   1.157   4.311
 9866SOL     OW30496   4.623   4.944   6.492
 9866SOL    HW130497   4.541   4.980   6.537
 9866SOL    HW230498   4.662   5.016   6.434
 9867SOL     OW30499   6.171   1.128   0.638
 9867SOL    HW130500   6.150   1.157   0.731
 9867SOL    HW230501   6.087   1.124   0.584
 9868SOL     OW30502   0.645   3.706   5.993
 9868SOL    HW130503   0.638   3.659   6.081
 9868SOL    HW230504   0.655   3.804   6.008
 9869SOL     OW30505   1.850   3.250   2.161
 9869SOL    HW130506   1.812   3.238   2.253
 9869SOL    HW230507   1.810   3.182   2.099
 9870SOL     OW30508   3.717   5.566   2.371
 9870SOL    HW130509   3.673   5.653   2.349
 9870SOL    HW230510   3.810   5.583   2.404
 9871SOL     OW30511   0.201   5.743   5.826
 9871SOL    HW130512   0.143   5.728   5.746
 9871SOL    HW230513   0.276   5.677   5.824
 9872SOL     OW30514   2.078   4.950   4.177
 9872SOL    HW130515   2.010   4.974   4.108
 9872SOL    HW230516   2.115   4.859   4.157
 9873SOL     OW30517   2.672   2.488   7.005
 9873SOL    HW130518   2.616   2.550   6.950
 9873SOL    HW230519   2.671   2.518   0.078
 9874SOL     OW30520   0.033   3.373   4.888
 9874SOL    HW130521   6.997   3.355   4.809
 9874SOL    HW230522   0.044   3.472   4.900
 9875SOL     OW30523   6.321   5.853   1.966
 9875SOL    HW130524   6.358   5.836   1.875
 9875SOL    HW230525   6.307   5.767   2.013
 9876SOL     OW30526   6.483   0.319   2.766
 9876SOL    HW130527   6.420   0.351   2.837
 9876SOL    HW230528   6.553   0.389   2.750
 9877SOL     OW30529   6.858   6.318   3.882
 9877SOL    HW130530   6.761   6.309   3.903
 9877SOL    HW230531   6.895   6.400   3.925
 9878SOL     OW30532   2.652   4.758   5.063
 9878SOL    HW130533   2.737   4.712   5.089
 9878SOL    HW230534   2.668   4.857   5.056
 9879SOL     OW30535   5.715   5.519   4.841
 9879SOL    HW130536   5.698   5.428   4.880
 9879SOL    HW230537   5.744   5.509   4.746
 9880SOL     OW30538   3.276   0.936   5.950
 9880SOL    HW130539   3.194   0.889   5.980
 9880SOL    HW230540   3.352   0.870   5.943
 9881SOL     OW30541   0.804   0.893   4.922
 9881SOL    HW130542   0.731   0.871   4.857
 9881SOL    HW230543   0.825   0.991   4.917
 9882SOL     OW30544   1.142   3.897   3.623
 9882SOL    HW130545   1.102   3.964   3.560
 9882SOL    HW230546   1.100   3.808   3.608
 9883SOL     OW30547   1.312   6.703   0.392
 9883SOL    HW130548   1.372   6.781   0.372
 9883SOL    HW230549   1.330   6.670   0.484
 9884SOL     OW30550   5.235   2.197   2.017
 9884SOL    HW130551   5.222   2.140   2.098
 9884SOL    HW230552   5.216   2.292   2.039
 9885SOL     OW30553   6.485   2.334   4.871
 9885SOL    HW130554   6.455   2.385   4.790
 9885SOL    HW230555   6.442   2.373   4.953
 9886SOL     OW30556   1.214   4.588   3.116
 9886SOL    HW130557   1.282   4.655   3.087
 9886SOL    HW230558   1.174   4.617   3.203
 9887SOL     OW30559   4.127   0.464   6.215
 9887SOL    HW130560   4.049   0.404   6.194
 9887SOL    HW230561   4.162   0.442   6.306
 9888SOL     OW30562   5.481   4.602   3.020
 9888SOL    HW130563   5.576   4.632   3.026
 9888SOL    HW230564   5.428   4.670   2.970
 9889SOL     OW30565   6.563   5.189   1.942
 9889SOL    HW130566   6.495   5.125   1.978
 9889SOL    HW230567   6.519   5.276   1.923
 9890SOL     OW30568   1.666   2.280   0.413
 9890SOL    HW130569   1.755   2.238   0.426
 9890SOL    HW230570   1.594   2.217   0.445
 9891SOL     OW30571   4.917   3.612   2.129
 9891SOL    HW130572   4.946   3.705   2.154
 9891SOL    HW230573   4.877   3.614   2.037
 9892SOL     OW30574   0.358   4.683   1.266
 9892SOL    HW130575   0.359   4.583   1.260
 9892SOL    HW230576   0.392   4.723   1.181
 9893SOL     OW30577   0.749   0.717   1.384
 9893SOL    HW130578   0.715   0.660   1.309
 9893SOL    HW230579   0.844   0.695   1.403
 9894SOL     OW30580   3.491   2.612   0.193
 9894SOL    HW130581   3.397   2.604   0.225
 9894SOL    HW230582   3.549   2.546   0.241
 9895SOL     OW30583   5.906   4.847   4.880
 9895SOL    HW130584   5.955   4.788   4.945
 9895SOL    HW230585   5.808   4.829   4.886
 9896SOL     OW30586   6.189   1.311   6.757
 9896SOL    HW130587   6.121   1.238   6.758
 9896SOL    HW230588   6.218   1.331   6.851
 9897SOL     OW30589   5.450   6.456   2.438
 9897SOL    HW130590   5.359   6.450   2.479
 9897SOL    HW230591   5.509   6.386   2.479
 9898SOL     OW30592   1.660   5.596   4.720
 9898SOL    HW130593   1.639   5.640   4.633
 9898SOL    HW230594   1.587   5.532   4.743
 9899SOL     OW30595   1.708   5.932   0.727
 9899SOL    HW130596   1.806   5.950   0.718
 9899SOL    HW230597   1.669   5.991   0.798
 9900SOL     OW30598   1.753   2.507   3.140
 9900SOL    HW130599   1.695   2.573   3.188
 9900SOL    HW230600   1.756   2.422   3.192
 9901SOL     OW30601   3.158   0.522   6.809
 9901SOL    HW130602   3.213   0.566   6.880
 9901SOL    HW230603   3.061   0.533   6.831
 9902SOL     OW30604   3.587   5.013   1.474
 9902SOL    HW130605   3.653   5.087   1.487
 9902SOL    HW230606   3.615   4.932   1.525
 9903SOL     OW30607   5.883   2.599   1.714
 9903SOL    HW130608   5.927   2.518   1.676
 9903SOL    HW230609   5.896   2.677   1.652
 9904SOL     OW30610   0.788   3.833   6.988
 9904SOL    HW130611   0.697   3.867   6.965
 9904SOL    HW230612   0.855   3.871   6.924
 9905SOL     OW30613   2.076   0.770   5.921
 9905SOL    HW130614   2.027   0.834   5.981
 9905SOL    HW230615   2.130   0.822   5.855
 9906SOL     OW30616   2.008   3.387   0.986
 9906SOL    HW130617   1.974   3.315   1.047
 9906SOL    HW230618   2.025   3.470   1.040
 9907SOL     OW30619   1.214   0.190   1.165
 9907SOL    HW130620   1.189   0.155   1.255
 9907SOL    HW230621   1.221   0.289   1.168
 9908SOL     OW30622   6.359   1.405   5.572
 9908SOL    HW130623   6.420   1.356   5.634
 9908SOL    HW230624   6.268   1.365   5.576
 9909SOL     OW30625   4.838   1.136   3.093
 9909SOL    HW130626   4.768   1.184   3.040
 9909SOL    HW230627   4.913   1.199   3.113
 9910SOL     OW30628   1.515   4.995   1.682
 9910SOL    HW130629   1.565   4.929   1.626
 9910SOL    HW230630   1.469   4.947   1.756
 9911SOL     OW30631   3.191   6.085   2.353
 9911SOL    HW130632   3.286   6.109   2.372
 9911SOL    HW230633   3.162   6.129   2.268
 9912SOL     OW30634   3.695   0.560   1.274
 9912SOL    HW130635   3.696   0.652   1.234
 9912SOL    HW230636   3.601   0.533   1.295
 9913SOL     OW30637   6.589   3.970   0.644
 9913SOL    HW130638   6.520   3.902   0.670
 9913SOL    HW230639   6.588   4.045   0.710
 9914SOL     OW30640   5.792   1.077   4.636
 9914SOL    HW130641   5.802   0.988   4.591
 9914SOL    HW230642   5.752   1.142   4.573
 9915SOL     OW30643   6.514   0.901   3.712
 9915SOL    HW130644   6.446   0.839   3.750
 9915SOL    HW230645   6.593   0.848   3.680
 9916SOL     OW30646   1.994   2.822   2.867
 9916SOL    HW130647   1.912   2.842   2.921
 9916SOL    HW230648   1.999   2.885   2.790
 9917SOL     OW30649   4.315   3.787   6.204
 9917SOL    HW130650   4.277   3.878   6.186
 9917SOL    HW230651   4.345   3.782   6.300
 9918SOL     OW30652   1.920   2.071   3.181
 9918SOL    HW130653   1.968   2.046   3.097
 9918SOL    HW230654   1.983   2.121   3.241
 9919SOL     OW30655   1.011   5.280   1.097
 9919SOL    HW130656   1.002   5.328   1.010
 9919SOL    HW230657   1.025   5.347   1.170
 9920SOL     OW30658   5.100   0.821   2.147
 9920SOL    HW130659   5.047   0.788   2.226
 9920SOL    HW230660   5.078   0.765   2.067
 9921SOL     OW30661   3.931   6.305   4.690
 9921SOL    HW130662   3.964   6.253   4.611
 9921SOL    HW230663   4.007   6.326   4.750
 9922SOL     OW30664   2.570   4.064   0.296
 9922SOL    HW130665   2.556   4.153   0.339
 9922SOL    HW230666   2.482   4.026   0.268
 9923SOL     OW30667   6.126   4.857   0.115
 9923SOL    HW130668   6.143   4.943   0.163
 9923SOL    HW230669   6.038   4.862   0.067
 9924SOL     OW30670   5.853   1.740   3.210
 9924SOL    HW130671   5.887   1.723   3.303
 9924SOL    HW230672   5.854   1.838   3.192
 9925SOL     OW30673   0.380   5.047   4.208
 9925SOL    HW130674   0.358   4.973   4.145
 9925SOL    HW230675   0.373   5.015   4.302
 9926SOL     OW30676   4.447   2.980   1.487
 9926SOL    HW130677   4.436   2.880   1.485
 9926SOL    HW230678   4.538   3.003   1.520
 9927SOL     OW30679   1.778   0.057   0.799
 9927SOL    HW130680   1.793   0.027   0.704
 9927SOL    HW230681   1.691   0.019   0.832
 9928SOL     OW30682   5.081   5.004   2.813
 9928SOL    HW130683   5.158   5.065   2.796
 9928SOL    HW230684   5.067   4.995   2.912
 9929SOL     OW30685   3.089   4.043   5.021
 9929SOL    HW130686   3.093   4.096   5.106
 9929SOL    HW230687   3.026   3.966   5.032
 9930SOL     OW30688   6.879   6.562   5.540
 9930SOL    HW130689   6.909   6.471   5.510
 9930SOL    HW230690   6.859   6.619   5.460
 9931SOL     OW30691   0.630   5.673   4.174
 9931SOL    HW130692   0.716   5.622   4.174
 9931SOL    HW230693   0.559   5.619   4.129
 9932SOL     OW30694   2.714   3.757   6.217
 9932SOL    HW130695   2.735   3.831   6.153
 9932SOL    HW230696   2.778   3.761   6.294
 9933SOL     OW30697   1.331   0.058   3.941
 9933SOL    HW130698   1.302   0.153   3.953
 9933SOL    HW230699   1.339   0.014   4.030
 9934SOL     OW30700   6.172   2.269   5.886
 9934SOL    HW130701   6.181   2.335   5.960
 9934SOL    HW230702   6.242   2.198   5.895
 9935SOL     OW30703   2.903   6.763   0.604
 9935SOL    HW130704   2.858   6.673   0.603
 9935SOL    HW230705   2.834   6.835   0.596
 9936SOL     OW30706   6.640   4.584   0.721
 9936SOL    HW130707   6.579   4.632   0.658
 9936SOL    HW230708   6.588   4.514   0.771
 9937SOL     OW30709   0.361   1.896   1.597
 9937SOL    HW130710   0.300   1.929   1.525
 9937SOL    HW230711   0.401   1.808   1.570
 9938SOL     OW30712   6.125   5.333   3.898
 9938SOL    HW130713   6.143   5.240   3.867
 9938SOL    HW230714   6.210   5.373   3.933
 9939SOL     OW30715   4.702   2.703   1.185
 9939SOL    HW130716   4.628   2.644   1.153
 9939SOL    HW230717   4.683   2.797   1.159
 9940SOL     OW30718   1.012   0.999   1.612
 9940SOL    HW130719   0.926   0.966   1.572
 9940SOL    HW230720   0.999   1.090   1.649
 9941SOL     OW30721   3.152   3.005   4.701
 9941SOL    HW130722   3.091   3.015   4.622
 9941SOL    HW230723   3.122   2.926   4.756
 9942SOL     OW30724   2.561   5.330   2.784
 9942SOL    HW130725   2.593   5.235   2.786
 9942SOL    HW230726   2.625   5.385   2.731
 9943SOL     OW30727   0.645   3.986   5.978
 9943SOL    HW130728   0.592   4.066   5.950
 9943SOL    HW230729   0.647   3.981   6.078
 9944SOL     OW30730   0.954   4.344   6.378
 9944SOL    HW130731   0.905   4.310   6.297
 9944SOL    HW230732   0.894   4.339   6.458
 9945SOL     OW30733   4.727   5.792   6.725
 9945SOL    HW130734   4.718   5.827   6.818
 9945SOL    HW230735   4.697   5.861   6.660
 9946SOL     OW30736   5.982   1.006   3.291
 9946SOL    HW130737   6.029   1.016   3.379
 9946SOL    HW230738   6.024   0.931   3.239
 9947SOL     OW30739   2.992   2.217   4.768
 9947SOL    HW130740   2.902   2.261   4.760
 9947SOL    HW230741   3.034   2.243   4.855
 9948SOL     OW30742   6.121   4.607   6.034
 9948SOL    HW130743   6.178   4.558   6.100
 9948SOL    HW230744   6.090   4.693   6.074
 9949SOL     OW30745   6.386   5.041   3.932
 9949SOL    HW130746   6.332   5.006   3.856
 9949SOL    HW230747   6.436   5.123   3.904
 9950SOL     OW30748   5.668   6.036   5.576
 9950SOL    HW130749   5.651   6.080   5.664
 9950SOL    HW230750   5.763   6.053   5.548
 9951SOL     OW30751   1.105   1.684   4.066
 9951SOL    HW130752   1.078   1.703   4.161
 9951SOL    HW230753   1.024   1.662   4.012
 9952SOL     OW30754   1.116   4.634   0.609
 9952SOL    HW130755   1.206   4.637   0.652
 9952SOL    HW230756   1.118   4.686   0.524
 9953SOL     OW30757   5.883   2.313   4.891
 9953SOL    HW130758   5.785   2.319   4.873
 9953SOL    HW230759   5.923   2.239   4.838
 9954SOL     OW30760   0.708   0.796   5.906
 9954SOL    HW130761   0.642   0.852   5.854
 9954SOL    HW230762   0.696   0.814   6.003
 9955SOL     OW30763   5.793   3.738   5.994
 9955SOL    HW130764   5.885   3.716   6.024
 9955SOL    HW230765   5.736   3.758   6.074
 9956SOL     OW30766   0.227   5.889   2.859
 9956SOL    HW130767   0.188   5.976   2.828
 9956SOL    HW230768   0.249   5.894   2.956
 9957SOL     OW30769   5.688   6.747   1.985
 9957SOL    HW130770   5.732   6.820   1.933
 9957SOL    HW230771   5.619   6.787   2.046
 9958SOL     OW30772   2.103   5.282   6.967
 9958SOL    HW130773   2.112   5.190   6.927
 9958SOL    HW230774   2.194   5.322   6.979
 9959SOL     OW30775   4.038   3.658   4.374
 9959SOL    HW130776   3.987   3.573   4.383
 9959SOL    HW230777   4.054   3.677   4.277
 9960SOL     OW30778   6.985   0.300   2.046
 9960SOL    HW130779   0.054   0.261   2.052
 9960SOL    HW230780   6.964   0.321   1.950
 9961SOL     OW30781   1.826   6.222   4.283
 9961SOL    HW130782   1.837   6.165   4.365
 9961SOL    HW230783   1.826   6.164   4.202
 9962SOL     OW30784   4.866   6.776   1.644
 9962SOL    HW130785   4.804   6.714   1.595
 9962SOL    HW230786   4.863   6.756   1.742
 9963SOL     OW30787   2.472   3.225   6.523
 9963SOL    HW130788   2.541   3.165   6.564
 9963SOL    HW230789   2.392   3.171   6.498
 9964SOL     OW30790   4.810   3.648   5.730
 9964SOL    HW130791   4.806   3.741   5.767
 9964SOL    HW230792   4.774   3.647   5.637
 9965SOL     OW30793   3.883   5.446   6.749
 9965SOL    HW130794   3.951   5.519   6.763
 9965SOL    HW230795   3.863   5.438   6.651
 9966SOL     OW30796   2.496   5.427   1.841
 9966SOL    HW130797   2.554   5.471   1.910
 9966SOL    HW230798   2.417   5.484   1.822
 9967SOL     OW30799   6.173   6.831   2.372
 9967SOL    HW130800   6.078   6.817   2.346
 9967SOL    HW230801   6.191   6.929   2.380
 9968SOL     OW30802   3.142   3.525   6.705
 9968SOL    HW130803   3.115   3.583   6.628
 9968SOL    HW230804   3.161   3.581   6.785
 9969SOL     OW30805   2.177   3.021   3.875
 9969SOL    HW130806   2.202   2.975   3.789
 9969SOL    HW230807   2.161   2.952   3.945
 9970SOL     OW30808   5.302   3.952   2.938
 9970SOL    HW130809   5.383   4.003   2.966
 9970SOL    HW230810   5.222   3.988   2.988
 9971SOL     OW30811   2.798   3.942   0.367
 9971SOL    HW130812   2.813   3.910   0.274
 9971SOL    HW230813   2.707   3.982   0.375
 9972SOL     OW30814   3.816   4.516   1.046
 9972SOL    HW130815   3.865   4.526   1.133
 9972SOL    HW230816   3.721   4.544   1.059
 9973SOL     OW30817   3.992   2.168   4.385
 9973SOL    HW130818   3.908   2.145   4.434
 9973SOL    HW230819   3.970   2.195   4.291
 9974SOL     OW30820   6.582   3.841   3.747
 9974SOL    HW130821   6.569   3.746   3.718
 9974SOL    HW230822   6.605   3.897   3.668
 9975SOL     OW30823   6.733   4.700   0.202
 9975SOL    HW130824   6.736   4.635   0.278
 9975SOL    HW230825   6.682   4.781   0.230
 9976SOL     OW30826   0.425   5.491   5.478
 9976SOL    HW130827   0.473   5.578   5.493
 9976SOL    HW230828   0.342   5.507   5.424
 9977SOL     OW30829   0.051   5.294   5.839
 9977SOL    HW130830   0.046   5.319   5.742
 9977SOL    HW230831   0.102   5.209   5.849
 9978SOL     OW30832   6.412   2.909   3.217
 9978SOL    HW130833   6.394   2.866   3.128
 9978SOL    HW230834   6.350   2.871   3.286
 9979SOL     OW30835   6.548   4.676   5.649
 9979SOL    HW130836   6.511   4.665   5.741
 9979SOL    HW230837   6.646   4.693   5.654
 9980SOL     OW30838   1.936   2.004   6.313
 9980SOL    HW130839   1.904   1.969   6.225
 9980SOL    HW230840   1.918   1.936   6.385
 9981SOL     OW30841   2.883   1.938   1.822
 9981SOL    HW130842   2.973   1.973   1.848
 9981SOL    HW230843   2.840   1.893   1.901
 9982SOL     OW30844   0.469   1.015   3.161
 9982SOL    HW130845   0.519   1.101   3.169
 9982SOL    HW230846   0.507   0.948   3.225
 9983SOL     OW30847   0.629   2.859   3.436
 9983SOL    HW130848   0.707   2.921   3.421
 9983SOL    HW230849   0.652   2.768   3.401
 9984SOL     OW30850   1.905   1.152   0.166
 9984SOL    HW130851   1.817   1.105   0.155
 9984SOL    HW230852   1.979   1.087   0.155
 9985SOL     OW30853   2.292   0.890   1.882
 9985SOL    HW130854   2.368   0.923   1.938
 9985SOL    HW230855   2.234   0.968   1.855
 9986SOL     OW30856   4.326   4.332   6.553
 9986SOL    HW130857   4.371   4.367   6.635
 9986SOL    HW230858   4.383   4.351   6.473
 9987SOL     OW30859   6.172   2.120   3.474
 9987SOL    HW130860   6.134   2.211   3.457
 9987SOL    HW230861   6.192   2.075   3.387
 9988SOL     OW30862   0.441   5.944   4.632
 9988SOL    HW130863   0.471   5.877   4.565
 9988SOL    HW230864   0.436   6.034   4.588
 9989SOL     OW30865   6.052   4.225   3.814
 9989SOL    HW130866   6.144   4.244   3.779
 9989SOL    HW230867   5.985   4.236   3.740
 9990SOL     OW30868   3.112   6.428   1.999
 9990SOL    HW130869   3.045   6.408   1.927
 9990SOL    HW230870   3.108   6.525   2.022
 9991SOL     OW30871   1.937   3.138   4.022
 9991SOL    HW130872   1.868   3.083   4.068
 9991SOL    HW230873   1.935   3.120   3.923
 9992SOL     OW30874   5.113   4.297   0.585
 9992SOL    HW130875   5.159   4.306   0.496
 9992SOL    HW230876   5.054   4.376   0.600
 9993SOL     OW30877   3.795   0.425   1.914
 9993SOL    HW130878   3.700   0.407   1.888
 9993SOL    HW230879   3.807   0.524   1.924
 9994SOL     OW30880   6.942   4.848   3.896
 9994SOL    HW130881   6.981   4.937   3.877
 9994SOL    HW230882   6.887   4.818   3.818
 9995SOL     OW30883   3.822   1.337   3.201
 9995SOL    HW130884   3.872   1.326   3.114
 9995SOL    HW230885   3.764   1.418   3.196
 9996SOL     OW30886   2.462   3.172   1.644
 9996SOL    HW130887   2.461   3.247   1.711
 9996SOL    HW230888   2.490   3.208   1.555
 9997SOL     OW30889   3.670   1.586   0.875
 9997SOL    HW130890   3.764   1.593   0.840
 9997SOL    HW230891   3.643   1.673   0.916
 9998SOL     OW30892   5.906   4.097   1.045
 9998SOL    HW130893   5.823   4.057   1.006
 9998SOL    HW230894   5.946   4.034   1.111
 9999SOL     OW30895   6.667   2.734   5.117
 9999SOL    HW130896   6.593   2.690   5.168
 9999SOL    HW230897   6.746   2.745   5.177
10000SOL     OW30898   0.055   3.295   0.478
10000SOL    HW130899   0.115   3.370   0.453
10000SOL    HW230900   0.109   3.213   0.498
10001SOL     OW30901   5.030   0.476   1.875
10001SOL    HW130902   4.938   0.441   1.855
10001SOL    HW230903   5.089   0.465   1.795
10002SOL     OW30904   1.758   0.729   2.438
10002SOL    HW130905   1.691   0.712   2.366
10002SOL    HW230906   1.823   0.799   2.408
10003SOL     OW30907   3.425   1.696   3.830
10003SOL    HW130908   3.482   1.686   3.748
10003SOL    HW230909   3.339   1.741   3.806
10004SOL     OW30910   4.681   2.628   3.877
10004SOL    HW130911   4.738   2.578   3.942
10004SOL    HW230912   4.686   2.583   3.788
10005SOL     OW30913   4.116   0.583   3.657
10005SOL    HW130914   4.048   0.532   3.606
10005SOL    HW230915   4.154   0.526   3.730
10006SOL     OW30916   5.244   0.190   4.161
10006SOL    HW130917   5.312   0.242   4.109
10006SOL    HW230918   5.156   0.194   4.115
10007SOL     OW30919   0.674   5.701   4.732
10007SOL    HW130920   0.600   5.670   4.673
10007SOL    HW230921   0.647   5.690   4.828
10008SOL     OW30922   4.302   1.176   4.822
10008SOL    HW130923   4.384   1.208   4.775
10008SOL    HW230924   4.224   1.231   4.794
10009SOL     OW30925   2.053   3.995   1.779
10009SOL    HW130926   2.018   3.927   1.845
10009SOL    HW230927   2.150   3.978   1.762
10010SOL     OW30928   1.864   0.317   5.678
10010SOL    HW130929   1.810   0.325   5.595
10010SOL    HW230930   1.937   0.386   5.678
10011SOL     OW30931   5.891   1.537   4.400
10011SOL    HW130932   5.914   1.533   4.497
10011SOL    HW230933   5.965   1.581   4.350
10012SOL     OW30934   4.730   1.187   3.341
10012SOL    HW130935   4.749   1.277   3.380
10012SOL    HW230936   4.792   1.170   3.265
10013SOL     OW30937   0.942   1.562   3.595
10013SOL    HW130938   0.977   1.596   3.507
10013SOL    HW230939   0.899   1.473   3.582
10014SOL     OW30940   6.838   3.942   0.539
10014SOL    HW130941   6.743   3.953   0.566
10014SOL    HW230942   6.847   3.862   0.480
10015SOL     OW30943   1.560   3.635   0.448
10015SOL    HW130944   1.641   3.587   0.414
10015SOL    HW230945   1.589   3.713   0.504
10016SOL     OW30946   1.552   0.733   6.103
10016SOL    HW130947   1.461   0.696   6.124
10016SOL    HW230948   1.620   0.687   6.159
10017SOL     OW30949   2.925   2.080   3.056
10017SOL    HW130950   2.882   2.169   3.044
10017SOL    HW230951   2.860   2.015   3.095
10018SOL     OW30952   4.605   6.639   5.382
10018SOL    HW130953   4.683   6.681   5.335
10018SOL    HW230954   4.521   6.660   5.334
10019SOL     OW30955   6.749   2.216   2.921
10019SOL    HW130956   6.710   2.155   2.990
10019SOL    HW230957   6.846   2.193   2.908
10020SOL     OW30958   1.251   2.190   1.599
10020SOL    HW130959   1.253   2.226   1.692
10020SOL    HW230960   1.275   2.093   1.600
10021SOL     OW30961   0.239   2.828   1.455
10021SOL    HW130962   0.265   2.739   1.492
10021SOL    HW230963   0.149   2.821   1.411
10022SOL     OW30964   2.592   0.025   6.528
10022SOL    HW130965   2.629   0.118   6.517
10022SOL    HW230966   2.495   0.025   6.505
10023SOL     OW30967   1.124   5.320   6.963
10023SOL    HW130968   1.056   5.300   6.892
10023SOL    HW230969   1.188   5.389   6.928
10024SOL     OW30970   1.483   6.519   1.920
10024SOL    HW130971   1.412   6.490   1.856
10024SOL    HW230972   1.448   6.512   2.014
10025SOL     OW30973   1.892   1.298   1.021
10025SOL    HW130974   1.956   1.373   1.039
10025SOL    HW230975   1.877   1.246   1.105
10026SOL     OW30976   5.288   6.480   3.350
10026SOL    HW130977   5.239   6.551   3.400
10026SOL    HW230978   5.353   6.434   3.411
10027SOL     OW30979   6.126   3.796   5.205
10027SOL    HW130980   6.189   3.783   5.282
10027SOL    HW230981   6.081   3.884   5.212
10028SOL     OW30982   1.771   0.984   1.918
10028SOL    HW130983   1.821   0.938   1.845
10028SOL    HW230984   1.732   1.069   1.883
10029SOL     OW30985   4.697   1.902   4.871
10029SOL    HW130986   4.690   1.874   4.966
10029SOL    HW230987   4.788   1.939   4.852
10030SOL     OW30988   2.798   7.012   3.613
10030SOL    HW130989   2.849   6.980   3.533
10030SOL    HW230990   2.702   0.001   3.588
10031SOL     OW30991   6.390   5.316   4.936
10031SOL    HW130992   6.290   5.323   4.939
10031SOL    HW230993   6.416   5.222   4.915
10032SOL     OW30994   2.381   1.703   5.214
10032SOL    HW130995   2.305   1.659   5.165
10032SOL    HW230996   2.365   1.801   5.219
10033SOL     OW30997   5.585   2.657   4.254
10033SOL    HW130998   5.555   2.562   4.266
10033SOL    HW230999   5.608   2.696   4.343
10034SOL     OW31000   3.167   0.156   4.026
10034SOL    HW131001   3.236   0.092   3.993
10034SOL    HW231002   3.163   0.152   4.126
10035SOL     OW31003   6.195   4.108   1.551
10035SOL    HW131004   6.273   4.171   1.551
10035SOL    HW231005   6.114   4.155   1.516
10036SOL     OW31006   6.545   2.464   1.384
10036SOL    HW131007   6.588   2.548   1.352
10036SOL    HW231008   6.446   2.470   1.371
10037SOL     OW31009   0.128   1.309   0.600
10037SOL    HW131010   0.106   1.212   0.594
10037SOL    HW231011   0.047   1.360   0.626
10038SOL     OW31012   5.387   0.450   6.708
10038SOL    HW131013   5.371   0.466   6.611
10038SOL    HW231014   5.468   0.393   6.720
10039SOL     OW31015   3.188   0.579   3.742
10039SOL    HW131016   3.089   0.564   3.732
10039SOL    HW231017   3.237   0.532   3.669
10040SOL     OW31018   5.259   5.333   6.718
10040SOL    HW131019   5.356   5.333   6.742
10040SOL    HW231020   5.248   5.369   6.626
10041SOL     OW31021   4.380   5.921   6.911
10041SOL    HW131022   4.427   6.006   6.937
10041SOL    HW231023   4.439   5.843   6.930
10042SOL     OW31024   0.469   2.516   3.512
10042SOL    HW131025   0.471   2.552   3.419
10042SOL    HW231026   0.431   2.585   3.574
10043SOL     OW31027   6.515   1.052   4.690
10043SOL    HW131028   6.508   1.133   4.749
10043SOL    HW231029   6.438   1.049   4.628
10044SOL     OW31030   1.781   2.358   4.301
10044SOL    HW131031   1.833   2.283   4.342
10044SOL    HW231032   1.746   2.330   4.211
10045SOL     OW31033   4.207   0.235   1.969
10045SOL    HW131034   4.115   0.201   1.947
10045SOL    HW231035   4.227   0.314   1.912
10046SOL     OW31036   1.920   3.332   0.725
10046SOL    HW131037   1.963   3.343   0.815
10046SOL    HW231038   1.902   3.422   0.686
10047SOL     OW31039   0.568   3.184   4.402
10047SOL    HW131040   0.657   3.202   4.444
10047SOL    HW231041   0.532   3.097   4.436
10048SOL     OW31042   0.366   6.924   2.230
10048SOL    HW131043   0.451   6.887   2.192
10048SOL    HW231044   0.296   6.853   2.232
10049SOL     OW31045   2.101   1.405   5.745
10049SOL    HW131046   2.094   1.345   5.665
10049SOL    HW231047   2.025   1.387   5.807
10050SOL     OW31048   5.942   4.044   5.135
10050SOL    HW131049   5.991   4.088   5.059
10050SOL    HW231050   5.946   4.104   5.215
10051SOL     OW31051   0.434   4.469   4.742
10051SOL    HW131052   0.371   4.394   4.723
10051SOL    HW231053   0.514   4.434   4.791
10052SOL     OW31054   2.152   1.301   3.431
10052SOL    HW131055   2.192   1.390   3.409
10052SOL    HW231056   2.216   1.249   3.488
10053SOL     OW31057   4.249   5.844   4.424
10053SOL    HW131058   4.244   5.924   4.365
10053SOL    HW231059   4.233   5.761   4.370
10054SOL     OW31060   6.066   4.938   5.761
10054SOL    HW131061   5.996   4.873   5.789
10054SOL    HW231062   6.046   5.028   5.800
10055SOL     OW31063   6.318   1.771   5.363
10055SOL    HW131064   6.324   1.867   5.336
10055SOL    HW231065   6.245   1.727   5.311
10056SOL     OW31066   5.315   4.629   3.607
10056SOL    HW131067   5.385   4.626   3.536
10056SOL    HW231068   5.239   4.569   3.581
10057SOL     OW31069   5.423   4.426   5.009
10057SOL    HW131070   5.449   4.484   4.932
10057SOL    HW231071   5.475   4.451   5.090
10058SOL     OW31072   6.122   3.589   5.002
10058SOL    HW131073   6.126   3.656   5.077
10058SOL    HW231074   6.185   3.617   4.930
10059SOL     OW31075   6.872   1.379   0.012
10059SOL    HW131076   6.842   1.457   6.980
10059SOL    HW231077   6.908   1.411   0.100
10060SOL     OW31078   2.169   2.376   2.967
10060SOL    HW131079   2.101   2.449   2.978
10060SOL    HW231080   2.136   2.309   2.901
10061SOL     OW31081   4.530   0.989   3.832
10061SOL    HW131082   4.437   1.004   3.797
10061SOL    HW231083   4.557   1.067   3.889
10062SOL     OW31084   6.628   0.029   4.420
10062SOL    HW131085   6.602   6.967   4.373
10062SOL    HW231086   6.634   0.013   4.518
10063SOL     OW31087   3.334   1.410   4.830
10063SOL    HW131088   3.240   1.438   4.811
10063SOL    HW231089   3.382   1.390   4.745
10064SOL     OW31090   4.672   6.006   6.543
10064SOL    HW131091   4.716   6.068   6.608
10064SOL    HW231092   4.581   6.040   6.521
10065SOL     OW31093   2.147   1.283   1.299
10065SOL    HW131094   2.156   1.373   1.341
10065SOL    HW231095   2.238   1.244   1.285
10066SOL     OW31096   0.243   2.645   4.781
10066SOL    HW131097   0.302   2.725   4.797
10066SOL    HW231098   0.300   2.566   4.760
10067SOL     OW31099   0.236   3.028   6.477
10067SOL    HW131100   0.213   2.945   6.527
10067SOL    HW231101   0.214   3.015   6.380
10068SOL     OW31102   1.087   4.365   3.516
10068SOL    HW131103   1.088   4.268   3.494
10068SOL    HW231104   0.993   4.396   3.527
10069SOL     OW31105   3.255   4.958   1.567
10069SOL    HW131106   3.329   5.024   1.558
10069SOL    HW231107   3.179   5.000   1.617
10070SOL     OW31108   0.594   5.404   5.298
10070SOL    HW131109   0.690   5.432   5.310
10070SOL    HW231110   0.541   5.434   5.377
10071SOL     OW31111   0.852   0.336   3.766
10071SOL    HW131112   0.791   0.392   3.822
10071SOL    HW231113   0.931   0.390   3.738
10072SOL     OW31114   0.616   1.264   3.922
10072SOL    HW131115   0.595   1.281   4.019
10072SOL    HW231116   0.561   1.186   3.890
10073SOL     OW31117   6.830   4.091   3.967
10073SOL    HW131118   6.764   4.016   3.966
10073SOL    HW231119   6.835   4.131   3.875
10074SOL     OW31120   1.655   6.211   0.329
10074SOL    HW131121   1.672   6.113   0.313
10074SOL    HW231122   1.606   6.249   0.250
10075SOL     OW31123   1.885   0.648   2.835
10075SOL    HW131124   1.798   0.600   2.836
10075SOL    HW231125   1.889   0.711   2.913
10076SOL     OW31126   5.052   5.640   3.075
10076SOL    HW131127   5.115   5.717   3.088
10076SOL    HW231128   5.028   5.633   2.978
10077SOL     OW31129   5.122   2.736   1.367
10077SOL    HW131130   5.173   2.671   1.423
10077SOL    HW231131   5.056   2.687   1.310
10078SOL     OW31132   0.581   6.320   4.523
10078SOL    HW131133   0.600   6.236   4.473
10078SOL    HW231134   0.525   6.299   4.603
10079SOL     OW31135   5.481   1.927   2.589
10079SOL    HW131136   5.549   1.907   2.660
10079SOL    HW231137   5.523   1.917   2.499
10080SOL     OW31138   5.012   0.907   6.338
10080SOL    HW131139   4.964   0.885   6.423
10080SOL    HW231140   4.954   0.883   6.260
10081SOL     OW31141   0.372   1.398   7.018
10081SOL    HW131142   0.404   1.491   0.011
10081SOL    HW231143   0.373   1.378   6.920
10082SOL     OW31144   1.042   5.654   3.299
10082SOL    HW131145   1.100   5.621   3.225
10082SOL    HW231146   1.075   5.619   3.386
10083SOL     OW31147   3.479   6.886   3.867
10083SOL    HW131148   3.459   6.790   3.886
10083SOL    HW231149   3.432   6.914   3.783
10084SOL     OW31150   6.860   6.742   5.318
10084SOL    HW131151   6.861   6.841   5.326
10084SOL    HW231152   6.851   6.716   5.221
10085SOL     OW31153   4.426   6.976   0.726
10085SOL    HW131154   4.372   6.909   0.777
10085SOL    HW231155   4.495   7.017   0.786
10086SOL     OW31156   5.698   6.564   3.267
10086SOL    HW131157   5.630   6.502   3.228
10086SOL    HW231158   5.665   6.658   3.259
10087SOL     OW31159   6.899   6.283   4.396
10087SOL    HW131160   6.848   6.300   4.481
10087SOL    HW231161   6.996   6.300   4.412
10088SOL     OW31162   6.590   0.906   0.890
10088SOL    HW131163   6.600   1.003   0.868
10088SOL    HW231164   6.652   0.882   0.965
10089SOL     OW31165   2.970   1.853   3.528
10089SOL    HW131166   3.034   1.847   3.451
10089SOL    HW231167   2.916   1.770   3.534
10090SOL     OW31168   0.551   4.729   2.135
10090SOL    HW131169   0.537   4.800   2.066
10090SOL    HW231170   0.617   4.662   2.100
10091SOL     OW31171   6.237   6.081   6.773
10091SOL    HW131172   6.260   6.078   6.871
10091SOL    HW231173   6.321   6.075   6.720
10092SOL     OW31174   1.119   3.125   5.220
10092SOL    HW131175   1.130   3.200   5.155
10092SOL    HW231176   1.165   3.148   5.306
10093SOL     OW31177   4.934   3.524   4.817
10093SOL    HW131178   4.996   3.459   4.861
10093SOL    HW231179   4.877   3.568   4.886
10094SOL     OW31180   2.387   6.881   0.658
10094SOL    HW131181   2.450   6.931   0.599
10094SOL    HW231182   2.422   6.789   0.675
10095SOL     OW31183   5.445   1.729   4.985
10095SOL    HW131184   5.435   1.631   4.967
10095SOL    HW231185   5.427   1.780   4.900
10096SOL     OW31186   5.121   0.592   2.572
10096SOL    HW131187   5.145   0.573   2.477
10096SOL    HW231188   5.036   0.544   2.595
10097SOL     OW31189   1.956   2.251   6.562
10097SOL    HW131190   2.055   2.263   6.574
10097SOL    HW231191   1.938   2.215   6.471
10098SOL     OW31192   2.893   6.319   4.607
10098SOL    HW131193   2.857   6.298   4.516
10098SOL    HW231194   2.988   6.351   4.598
10099SOL     OW31195   6.409   4.412   2.176
10099SOL    HW131196   6.326   4.409   2.231
10099SOL    HW231197   6.439   4.319   2.155
10100SOL     OW31198   5.527   5.388   5.723
10100SOL    HW131199   5.488   5.298   5.746
10100SOL    HW231200   5.486   5.421   5.639
10101SOL     OW31201   6.917   2.751   1.990
10101SOL    HW131202   6.855   2.745   1.912
10101SOL    HW231203   6.899   2.836   2.041
10102SOL     OW31204   5.770   0.669   0.881
10102SOL    HW131205   5.803   0.712   0.797
10102SOL    HW231206   5.789   0.728   0.959
10103SOL     OW31207   1.546   0.389   4.985
10103SOL    HW131208   1.464   0.444   5.002
10103SOL    HW231209   1.555   0.372   4.887
10104SOL     OW31210   2.391   1.063   5.919
10104SOL    HW131211   2.310   1.032   5.968
10104SOL    HW231212   2.363   1.114   5.837
10105SOL     OW31213   2.794   1.212   5.777
10105SOL    HW131214   2.876   1.256   5.814
10105SOL    HW231215   2.715   1.273   5.788
10106SOL     OW31216   4.106   6.282   1.277
10106SOL    HW131217   4.156   6.267   1.362
10106SOL    HW231218   4.013   6.312   1.297
10107SOL     OW31219   4.883   3.024   6.713
10107SOL    HW131220   4.891   2.929   6.683
10107SOL    HW231221   4.852   3.081   6.637
10108SOL     OW31222   1.343   2.669   1.071
10108SOL    HW131223   1.285   2.597   1.110
10108SOL    HW231224   1.390   2.633   0.990
10109SOL     OW31225   0.612   0.873   0.137
10109SOL    HW131226   0.542   0.926   0.089
10109SOL    HW231227   0.575   0.841   0.224
10110SOL     OW31228   4.874   4.827   2.824
10110SOL    HW131229   4.822   4.846   2.908
10110SOL    HW231230   4.951   4.890   2.819
10111SOL     OW31231   1.088   2.815   2.605
10111SOL    HW131232   1.180   2.853   2.605
10111SOL    HW231233   1.058   2.799   2.511
10112SOL     OW31234   6.684   3.611   3.427
10112SOL    HW131235   6.655   3.606   3.331
10112SOL    HW231236   6.782   3.595   3.434
10113SOL     OW31237   3.985   0.926   6.917
10113SOL    HW131238   4.046   0.927   6.838
10113SOL    HW231239   3.910   0.990   6.902
10114SOL     OW31240   3.743   1.924   3.013
10114SOL    HW131241   3.748   1.988   3.089
10114SOL    HW231242   3.677   1.958   2.945
10115SOL     OW31243   3.871   1.537   4.369
10115SOL    HW131244   3.830   1.624   4.396
10115SOL    HW231245   3.970   1.546   4.366
10116SOL     OW31246   6.252   0.174   5.754
10116SOL    HW131247   6.198   0.154   5.673
10116SOL    HW231248   6.312   0.252   5.736
10117SOL     OW31249   6.814   5.821   5.699
10117SOL    HW131250   6.760   5.737   5.708
10117SOL    HW231251   6.770   5.894   5.751
10118SOL     OW31252   2.644   4.654   4.304
10118SOL    HW131253   2.619   4.575   4.359
10118SOL    HW231254   2.564   4.688   4.255
10119SOL     OW31255   6.998   5.773   3.944
10119SOL    HW131256   6.989   5.674   3.950
10119SOL    HW231257   0.041   5.796   3.871
10120SOL     OW31258   1.266   3.267   3.267
10120SOL    HW131259   1.282   3.362   3.238
10120SOL    HW231260   1.346   3.233   3.315
10121SOL     OW31261   5.873   4.448   0.881
10121SOL    HW131262   5.913   4.495   0.960
10121SOL    HW231263   5.907   4.490   0.797
10122SOL     OW31264   6.231   2.041   3.981
10122SOL    HW131265   6.248   2.068   3.887
10122SOL    HW231266   6.133   2.048   4.001
10123SOL     OW31267   6.487   6.349   0.612
10123SOL    HW131268   6.418   6.348   0.540
10123SOL    HW231269   6.499   6.256   0.649
10124SOL     OW31270   1.808   5.125   1.887
10124SOL    HW131271   1.880   5.066   1.852
10124SOL    HW231272   1.754   5.161   1.811
10125SOL     OW31273   2.175   1.102   1.754
10125SOL    HW131274   2.169   1.086   1.655
10125SOL    HW231275   2.118   1.180   1.778
10126SOL     OW31276   6.281   6.880   6.118
10126SOL    HW131277   6.263   6.782   6.121
10126SOL    HW231278   6.260   6.916   6.027
10127SOL     OW31279   1.491   4.517   5.864
10127SOL    HW131280   1.429   4.589   5.896
10127SOL    HW231281   1.539   4.478   5.943
10128SOL     OW31282   2.629   0.706   6.685
10128SOL    HW131283   2.688   0.756   6.621
10128SOL    HW231284   2.591   0.769   6.752
10129SOL     OW31285   0.168   1.361   1.665
10129SOL    HW131286   0.087   1.341   1.609
10129SOL    HW231287   0.171   1.459   1.684
10130SOL     OW31288   1.074   2.753   1.620
10130SOL    HW131289   1.117   2.683   1.562
10130SOL    HW231290   1.013   2.810   1.564
10131SOL     OW31291   1.812   0.687   3.956
10131SOL    HW131292   1.898   0.720   3.995
10131SOL    HW231293   1.739   0.751   3.978
10132SOL     OW31294   0.450   0.570   2.333
10132SOL    HW131295   0.480   0.573   2.428
10132SOL    HW231296   0.512   0.625   2.277
10133SOL     OW31297   4.449   5.977   1.398
10133SOL    HW131298   4.476   5.907   1.464
10133SOL    HW231299   4.416   5.934   1.314
10134SOL     OW31300   0.100   1.102   2.725
10134SOL    HW131301   0.098   1.196   2.691
10134SOL    HW231302   0.060   1.100   2.817
10135SOL     OW31303   5.917   1.085   4.047
10135SOL    HW131304   5.839   1.101   4.109
10135SOL    HW231305   5.909   0.995   4.006
10136SOL     OW31306   4.687   2.643   2.530
10136SOL    HW131307   4.784   2.651   2.552
10136SOL    HW231308   4.637   2.616   2.613
10137SOL     OW31309   0.627   4.987   5.821
10137SOL    HW131310   0.719   5.018   5.796
10137SOL    HW231311   0.633   4.934   5.906
10138SOL     OW31312   5.748   2.033   7.021
10138SOL    HW131313   5.764   2.068   0.091
10138SOL    HW231314   5.828   2.052   6.964
10139SOL     OW31315   3.898   3.020   4.987
10139SOL    HW131316   3.918   2.923   4.976
10139SOL    HW231317   3.799   3.035   4.978
10140SOL     OW31318   6.592   6.621   5.934
10140SOL    HW131319   6.672   6.577   5.974
10140SOL    HW231320   6.533   6.552   5.893
10141SOL     OW31321   3.859   0.927   3.520
10141SOL    HW131322   3.935   0.972   3.471
10141SOL    HW231323   3.772   0.961   3.484
10142SOL     OW31324   5.804   6.777   4.796
10142SOL    HW131325   5.808   6.677   4.794
10142SOL    HW231326   5.825   6.812   4.704
10143SOL     OW31327   5.844   2.973   6.988
10143SOL    HW131328   5.925   2.956   0.021
10143SOL    HW231329   5.830   2.897   6.924
10144SOL     OW31330   4.245   6.926   5.573
10144SOL    HW131331   4.245   6.943   5.671
10144SOL    HW231332   4.201   7.002   5.526
10145SOL     OW31333   4.165   6.058   2.483
10145SOL    HW131334   4.126   6.072   2.574
10145SOL    HW231335   4.261   6.033   2.492
10146SOL     OW31336   6.811   4.134   4.799
10146SOL    HW131337   6.745   4.063   4.826
10146SOL    HW231338   6.762   4.214   4.766
10147SOL     OW31339   4.487   4.832   0.187
10147SOL    HW131340   4.487   4.886   0.271
10147SOL    HW231341   4.519   4.739   0.207
10148SOL     OW31342   6.707   4.703   1.426
10148SOL    HW131343   6.610   4.719   1.405
10148SOL    HW231344   6.716   4.619   1.479
10149SOL     OW31345   4.762   4.409   1.314
10149SOL    HW131346   4.812   4.493   1.293
10149SOL    HW231347   4.792   4.372   1.402
10150SOL     OW31348   5.144   3.474   2.019
10150SOL    HW131349   5.089   3.543   2.067
10150SOL    HW231350   5.190   3.417   2.086
10151SOL     OW31351   0.182   0.120   5.421
10151SOL    HW131352   0.262   0.104   5.480
10151SOL    HW231353   0.104   0.069   5.458
10152SOL     OW31354   5.755   5.885   3.199
10152SOL    HW131355   5.801   5.951   3.140
10152SOL    HW231356   5.776   5.792   3.168
10153SOL     OW31357   4.082   5.978   3.808
10153SOL    HW131358   4.153   5.944   3.746
10153SOL    HW231359   4.081   5.923   3.891
10154SOL     OW31360   4.163   5.210   5.799
10154SOL    HW131361   4.241   5.163   5.758
10154SOL    HW231362   4.162   5.306   5.771
10155SOL     OW31363   4.923   2.019   5.980
10155SOL    HW131364   4.879   2.108   5.991
10155SOL    HW231365   5.002   2.014   6.041
10156SOL     OW31366   4.416   0.305   1.167
10156SOL    HW131367   4.412   0.212   1.202
10156SOL    HW231368   4.340   0.358   1.205
10157SOL     OW31369   6.944   1.976   0.182
10157SOL    HW131370   6.890   1.908   0.134
10157SOL    HW231371   7.013   2.014   0.121
10158SOL     OW31372   5.947   6.790   2.226
10158SOL    HW131373   5.849   6.808   2.231
10158SOL    HW231374   5.978   6.801   2.132
10159SOL     OW31375   3.086   2.991   2.384
10159SOL    HW131376   3.180   2.957   2.398
10159SOL    HW231377   3.026   2.952   2.454
10160SOL     OW31378   2.146   4.329   2.798
10160SOL    HW131379   2.080   4.260   2.769
10160SOL    HW231380   2.217   4.339   2.728
10161SOL     OW31381   3.860   4.717   6.839
10161SOL    HW131382   3.900   4.755   6.922
10161SOL    HW231383   3.924   4.727   6.763
10162SOL     OW31384   1.815   4.608   2.014
10162SOL    HW131385   1.747   4.635   1.946
10162SOL    HW231386   1.802   4.662   2.097
10163SOL     OW31387   0.873   6.093   5.550
10163SOL    HW131388   0.814   6.012   5.556
10163SOL    HW231389   0.968   6.067   5.570
10164SOL     OW31390   6.492   3.318   3.739
10164SOL    HW131391   6.583   3.277   3.740
10164SOL    HW231392   6.426   3.250   3.708
10165SOL     OW31393   5.563   2.745   3.756
10165SOL    HW131394   5.514   2.825   3.722
10165SOL    HW231395   5.596   2.763   3.849
10166SOL     OW31396   1.472   2.741   1.310
10166SOL    HW131397   1.504   2.654   1.347
10166SOL    HW231398   1.431   2.726   1.220
10167SOL     OW31399   0.113   4.782   6.939
10167SOL    HW131400   0.125   4.700   6.883
10167SOL    HW231401   0.039   4.768   7.005
10168SOL     OW31402   5.719   1.297   6.320
10168SOL    HW131403   5.742   1.204   6.348
10168SOL    HW231404   5.621   1.312   6.331
10169SOL     OW31405   0.257   3.875   2.626
10169SOL    HW131406   0.235   3.966   2.589
10169SOL    HW231407   0.178   3.815   2.615
10170SOL     OW31408   6.610   5.753   6.612
10170SOL    HW131409   6.704   5.740   6.579
10170SOL    HW231410   6.568   5.664   6.630
10171SOL     OW31411   0.786   2.965   5.722
10171SOL    HW131412   0.798   2.880   5.670
10171SOL    HW231413   0.875   3.010   5.733
10172SOL     OW31414   0.273   0.004   3.602
10172SOL    HW131415   0.372   0.016   3.605
10172SOL    HW231416   0.245   7.011   3.507
10173SOL     OW31417   3.269   4.451   0.195
10173SOL    HW131418   3.281   4.397   0.112
10173SOL    HW231419   3.296   4.397   0.274
10174SOL     OW31420   5.341   6.396   3.074
10174SOL    HW131421   5.289   6.403   3.159
10174SOL    HW231422   5.324   6.477   3.018
10175SOL     OW31423   6.377   1.686   3.489
10175SOL    HW131424   6.318   1.609   3.513
10175SOL    HW231425   6.386   1.692   3.390
10176SOL     OW31426   6.559   3.752   5.611
10176SOL    HW131427   6.656   3.732   5.602
10176SOL    HW231428   6.518   3.691   5.678
10177SOL     OW31429   1.926   0.402   1.011
10177SOL    HW131430   1.974   0.406   0.923
10177SOL    HW231431   1.988   0.366   1.081
10178SOL     OW31432   1.908   0.775   0.742
10178SOL    HW131433   1.957   0.774   0.829
10178SOL    HW231434   1.905   0.868   0.706
10179SOL     OW31435   0.137   4.221   0.097
10179SOL    HW131436   0.223   4.261   0.065
10179SOL    HW231437   0.089   4.180   0.019
10180SOL     OW31438   4.842   0.088   6.977
10180SOL    HW131439   4.829   0.175   0.002
10180SOL    HW231440   4.759   0.032   6.986
10181SOL     OW31441   6.626   3.012   1.323
10181SOL    HW131442   6.585   3.015   1.414
10181SOL    HW231443   6.557   3.033   1.254
10182SOL     OW31444   5.212   0.997   0.454
10182SOL    HW131445   5.223   0.969   0.550
10182SOL    HW231446   5.264   1.081   0.438
10183SOL     OW31447   5.801   3.175   5.855
10183SOL    HW131448   5.759   3.121   5.783
10183SOL    HW231449   5.898   3.190   5.833
10184SOL     OW31450   5.418   3.067   6.242
10184SOL    HW131451   5.495   3.109   6.195
10184SOL    HW231452   5.432   3.071   6.341
10185SOL     OW31453   4.425   6.034   2.522
10185SOL    HW131454   4.438   6.094   2.443
10185SOL    HW231455   4.506   5.979   2.536
10186SOL     OW31456   4.867   3.707   5.296
10186SOL    HW131457   4.838   3.665   5.211
10186SOL    HW231458   4.915   3.792   5.277
10187SOL     OW31459   2.171   3.946   5.251
10187SOL    HW131460   2.146   4.040   5.231
10187SOL    HW231461   2.263   3.927   5.217
10188SOL     OW31462   3.125   6.005   6.509
10188SOL    HW131463   3.029   6.033   6.502
10188SOL    HW231464   3.182   6.070   6.459
10189SOL     OW31465   1.679   1.024   0.198
10189SOL    HW131466   1.648   0.982   0.284
10189SOL    HW231467   1.631   0.982   0.122
10190SOL     OW31468   3.497   3.998   1.088
10190SOL    HW131469   3.489   3.935   1.011
10190SOL    HW231470   3.579   3.976   1.142
10191SOL     OW31471   5.789   5.647   1.300
10191SOL    HW131472   5.698   5.626   1.336
10191SOL    HW231473   5.817   5.576   1.236
10192SOL     OW31474   1.851   1.900   4.789
10192SOL    HW131475   1.819   1.827   4.850
10192SOL    HW231476   1.808   1.889   4.700
10193SOL     OW31477   3.481   3.798   2.338
10193SOL    HW131478   3.535   3.869   2.294
10193SOL    HW231479   3.392   3.790   2.293
10194SOL     OW31480   3.211   0.164   5.213
10194SOL    HW131481   3.279   0.143   5.283
10194SOL    HW231482   3.258   0.194   5.129
10195SOL     OW31483   6.210   6.973   1.017
10195SOL    HW131484   6.254   0.041   1.014
10195SOL    HW231485   6.113   6.983   0.996
10196SOL     OW31486   5.901   2.009   3.542
10196SOL    HW131487   5.864   2.056   3.622
10196SOL    HW231488   5.996   2.037   3.527
10197SOL     OW31489   5.879   0.640   3.756
10197SOL    HW131490   5.886   0.550   3.799
10197SOL    HW231491   5.786   0.675   3.767
10198SOL     OW31492   3.921   6.481   0.470
10198SOL    HW131493   3.850   6.414   0.450
10198SOL    HW231494   3.893   6.538   0.547
10199SOL     OW31495   0.826   1.321   6.797
10199SOL    HW131496   0.833   1.329   6.897
10199SOL    HW231497   0.838   1.412   6.756
10200SOL     OW31498   5.088   3.156   5.610
10200SOL    HW131499   5.151   3.164   5.688
10200SOL    HW231500   5.030   3.237   5.607
10201SOL     OW31501   0.554   5.841   1.611
10201SOL    HW131502   0.647   5.868   1.588
10201SOL    HW231503   0.491   5.875   1.541
10202SOL     OW31504   0.970   3.578   0.708
10202SOL    HW131505   1.021   3.492   0.720
10202SOL    HW231506   0.872   3.560   0.719
10203SOL     OW31507   1.389   2.356   2.062
10203SOL    HW131508   1.419   2.440   2.016
10203SOL    HW231509   1.466   2.315   2.110
10204SOL     OW31510   3.586   4.896   6.215
10204SOL    HW131511   3.552   4.860   6.302
10204SOL    HW231512   3.624   4.821   6.161
10205SOL     OW31513   4.277   1.073   3.230
10205SOL    HW131514   4.244   1.022   3.151
10205SOL    HW231515   4.360   1.029   3.266
10206SOL     OW31516   5.050   6.171   6.240
10206SOL    HW131517   5.108   6.096   6.271
10206SOL    HW231518   5.095   6.220   6.166
10207SOL     OW31519   1.782   0.177   1.083
10207SOL    HW131520   1.766   0.156   0.987
10207SOL    HW231521   1.832   0.263   1.091
10208SOL     OW31522   6.792   5.340   5.333
10208SOL    HW131523   6.715   5.313   5.275
10208SOL    HW231524   6.829   5.427   5.301
10209SOL     OW31525   0.240   1.013   5.765
10209SOL    HW131526   0.153   1.051   5.736
10209SOL    HW231527   0.234   0.982   5.860
10210SOL     OW31528   5.173   6.695   1.236
10210SOL    HW131529   5.164   6.768   1.304
10210SOL    HW231530   5.127   6.613   1.269
10211SOL     OW31531   3.944   6.388   5.950
10211SOL    HW131532   4.005   6.465   5.931
10211SOL    HW231533   3.995   6.303   5.939
10212SOL     OW31534   0.349   1.091   4.399
10212SOL    HW131535   0.369   0.994   4.389
10212SOL    HW231536   0.424   1.145   4.360
10213SOL     OW31537   6.194   1.595   2.599
10213SOL    HW131538   6.286   1.555   2.601
10213SOL    HW231539   6.199   1.688   2.562
10214SOL     OW31540   0.330   0.982   2.665
10214SOL    HW131541   0.244   1.018   2.700
10214SOL    HW231542   0.331   0.986   2.565
10215SOL     OW31543   3.335   2.830   5.079
10215SOL    HW131544   3.433   2.810   5.076
10215SOL    HW231545   3.291   2.768   5.144
10216SOL     OW31546   0.108   6.860   0.989
10216SOL    HW131547   0.160   6.931   1.035
10216SOL    HW231548   0.156   6.831   0.907
10217SOL     OW31549   2.460   1.212   3.929
10217SOL    HW131550   2.370   1.172   3.910
10217SOL    HW231551   2.530   1.141   3.922
10218SOL     OW31552   0.789   1.164   1.297
10218SOL    HW131553   0.860   1.222   1.258
10218SOL    HW231554   0.722   1.140   1.226
10219SOL     OW31555   0.480   2.904   2.175
10219SOL    HW131556   0.576   2.925   2.155
10219SOL    HW231557   0.470   2.806   2.188
10220SOL     OW31558   4.235   1.934   2.130
10220SOL    HW131559   4.276   1.956   2.042
10220SOL    HW231560   4.266   1.844   2.160
10221SOL     OW31561   1.581   1.801   4.165
10221SOL    HW131562   1.483   1.803   4.180
10221SOL    HW231563   1.603   1.730   4.099
10222SOL     OW31564   0.808   3.849   5.490
10222SOL    HW131565   0.840   3.929   5.438
10222SOL    HW231566   0.812   3.768   5.431
10223SOL     OW31567   2.251   5.797   6.564
10223SOL    HW131568   2.170   5.851   6.542
10223SOL    HW231569   2.318   5.806   6.490
10224SOL     OW31570   0.847   0.840   4.606
10224SOL    HW131571   0.872   0.921   4.554
10224SOL    HW231572   0.929   0.783   4.619
10225SOL     OW31573   1.603   6.502   5.218
10225SOL    HW131574   1.532   6.433   5.208
10225SOL    HW231575   1.569   6.578   5.272
10226SOL     OW31576   2.797   0.287   0.122
10226SOL    HW131577   2.711   0.319   0.080
10226SOL    HW231578   2.874   0.325   0.071
10227SOL     OW31579   4.728   4.844   1.169
10227SOL    HW131580   4.685   4.754   1.163
10227SOL    HW231581   4.737   4.884   1.078
10228SOL     OW31582   1.118   5.073   2.336
10228SOL    HW131583   1.130   5.128   2.253
10228SOL    HW231584   1.206   5.067   2.384
10229SOL     OW31585   0.964   1.114   4.039
10229SOL    HW131586   0.954   1.173   3.959
10229SOL    HW231587   1.048   1.061   4.031
10230SOL     OW31588   6.547   0.474   3.637
10230SOL    HW131589   6.589   0.533   3.705
10230SOL    HW231590   6.600   0.478   3.552
10231SOL     OW31591   0.061   6.307   5.750
10231SOL    HW131592   0.031   6.389   5.798
10231SOL    HW231593   0.094   6.332   5.659
10232SOL     OW31594   3.494   1.025   4.390
10232SOL    HW131595   3.498   1.116   4.349
10232SOL    HW231596   3.586   0.984   4.390
10233SOL     OW31597   5.081   3.058   5.215
10233SOL    HW131598   4.982   3.052   5.197
10233SOL    HW231599   5.103   3.002   5.295
10234SOL     OW31600   5.537   0.540   0.790
10234SOL    HW131601   5.576   0.448   0.781
10234SOL    HW231602   5.608   0.603   0.822
10235SOL     OW31603   4.658   1.581   0.270
10235SOL    HW131604   4.738   1.524   0.256
10235SOL    HW231605   4.627   1.618   0.182
10236SOL     OW31606   1.378   6.198   2.023
10236SOL    HW131607   1.312   6.267   1.995
10236SOL    HW231608   1.399   6.137   1.946
10237SOL     OW31609   6.375   4.031   0.903
10237SOL    HW131610   6.368   3.986   0.814
10237SOL    HW231611   6.371   3.963   0.976
10238SOL     OW31612   3.215   4.124   4.196
10238SOL    HW131613   3.246   4.102   4.288
10238SOL    HW231614   3.202   4.223   4.189
10239SOL     OW31615   1.497   4.010   4.771
10239SOL    HW131616   1.524   4.104   4.751
10239SOL    HW231617   1.442   4.008   4.855
10240SOL     OW31618   1.456   4.755   2.955
10240SOL    HW131619   1.467   4.845   2.997
10240SOL    HW231620   1.544   4.708   2.955
10241SOL     OW31621   0.104   0.828   1.759
10241SOL    HW131622   0.075   0.873   1.674
10241SOL    HW231623   0.104   0.729   1.746
10242SOL     OW31624   6.885   1.787   6.527
10242SOL    HW131625   6.815   1.744   6.585
10242SOL    HW231626   6.973   1.785   6.575
10243SOL     OW31627   0.422   5.150   1.298
10243SOL    HW131628   0.521   5.161   1.306
10243SOL    HW231629   0.390   5.081   1.363
10244SOL     OW31630   1.554   4.856   0.106
10244SOL    HW131631   1.635   4.900   0.144
10244SOL    HW231632   1.472   4.900   0.141
10245SOL     OW31633   2.249   4.049   6.988
10245SOL    HW131634   2.279   4.025   0.058
10245SOL    HW231635   2.167   4.106   6.993
10246SOL     OW31636   3.031   3.840   3.887
10246SOL    HW131637   3.015   3.896   3.969
10246SOL    HW231638   3.045   3.745   3.914
10247SOL     OW31639   0.633   5.506   4.453
10247SOL    HW131640   0.721   5.542   4.419
10247SOL    HW231641   0.609   5.424   4.401
10248SOL     OW31642   3.060   0.301   1.720
10248SOL    HW131643   3.158   0.283   1.712
10248SOL    HW231644   3.015   0.222   1.760
10249SOL     OW31645   2.595   0.796   6.237
10249SOL    HW131646   2.536   0.840   6.305
10249SOL    HW231647   2.606   0.700   6.260
10250SOL     OW31648   0.233   2.116   1.264
10250SOL    HW131649   0.152   2.146   1.215
10250SOL    HW231650   0.271   2.193   1.316
10251SOL     OW31651   2.019   2.515   5.314
10251SOL    HW131652   1.979   2.431   5.277
10251SOL    HW231653   2.039   2.579   5.240
10252SOL     OW31654   6.789   5.889   0.508
10252SOL    HW131655   6.888   5.899   0.497
10252SOL    HW231656   6.742   5.954   0.448
10253SOL     OW31657   5.243   6.063   0.363
10253SOL    HW131658   5.251   6.026   0.271
10253SOL    HW231659   5.324   6.117   0.385
10254SOL     OW31660   3.883   2.152   4.936
10254SOL    HW131661   3.903   2.250   4.946
10254SOL    HW231662   3.853   2.115   5.024
10255SOL     OW31663   2.649   5.495   1.424
10255SOL    HW131664   2.594   5.442   1.489
10255SOL    HW231665   2.679   5.435   1.350
10256SOL     OW31666   5.415   0.302   1.833
10256SOL    HW131667   5.512   0.327   1.834
10256SOL    HW231668   5.406   0.203   1.821
10257SOL     OW31669   1.915   4.775   4.513
10257SOL    HW131670   1.841   4.744   4.454
10257SOL    HW231671   1.993   4.713   4.503
10258SOL     OW31672   4.813   0.076   4.185
10258SOL    HW131673   4.889   0.123   4.141
10258SOL    HW231674   4.739   0.064   4.119
10259SOL     OW31675   0.866   5.967   3.362
10259SOL    HW131676   0.804   6.043   3.341
10259SOL    HW231677   0.919   5.944   3.280
10260SOL     OW31678   6.708   0.575   3.118
10260SOL    HW131679   6.724   0.479   3.097
10260SOL    HW231680   6.782   0.630   3.080
10261SOL     OW31681   6.768   6.570   1.990
10261SOL    HW131682   6.715   6.490   1.964
10261SOL    HW231683   6.865   6.553   1.971
10262SOL     OW31684   2.764   5.839   4.758
10262SOL    HW131685   2.759   5.843   4.658
10262SOL    HW231686   2.809   5.921   4.792
10263SOL     OW31687   4.703   1.351   6.241
10263SOL    HW131688   4.721   1.449   6.253
10263SOL    HW231689   4.789   1.301   6.250
10264SOL     OW31690   6.040   1.828   0.027
10264SOL    HW131691   5.962   1.836   0.089
10264SOL    HW231692   6.008   1.798   6.959
10265SOL     OW31693   3.648   2.101   2.811
10265SOL    HW131694   3.689   2.132   2.725
10265SOL    HW231695   3.555   2.139   2.819
10266SOL     OW31696   3.538   2.749   5.494
10266SOL    HW131697   3.619   2.721   5.443
10266SOL    HW231698   3.486   2.667   5.522
10267SOL     OW31699   6.518   1.845   6.155
10267SOL    HW131700   6.586   1.843   6.229
10267SOL    HW231701   6.471   1.757   6.151
10268SOL     OW31702   3.942   6.454   1.790
10268SOL    HW131703   3.862   6.513   1.787
10268SOL    HW231704   3.913   6.359   1.800
10269SOL     OW31705   1.977   1.800   5.481
10269SOL    HW131706   1.916   1.791   5.402
10269SOL    HW231707   1.934   1.757   5.561
10270SOL     OW31708   2.169   5.354   2.540
10270SOL    HW131709   2.145   5.313   2.628
10270SOL    HW231710   2.248   5.415   2.552
10271SOL     OW31711   3.495   3.091   0.584
10271SOL    HW131712   3.572   3.110   0.523
10271SOL    HW231713   3.484   3.167   0.648
10272SOL     OW31714   1.077   0.680   4.655
10272SOL    HW131715   1.140   0.691   4.733
10272SOL    HW231716   1.037   0.589   4.658
10273SOL     OW31717   4.468   5.469   3.632
10273SOL    HW131718   4.505   5.559   3.606
10273SOL    HW231719   4.426   5.475   3.722
10274SOL     OW31720   1.357   4.536   5.403
10274SOL    HW131721   1.429   4.483   5.358
10274SOL    HW231722   1.332   4.614   5.347
10275SOL     OW31723   1.164   0.077   1.964
10275SOL    HW131724   1.113   0.086   1.878
10275SOL    HW231725   1.100   0.051   2.037
10276SOL     OW31726   6.586   5.688   6.283
10276SOL    HW131727   6.609   5.786   6.287
10276SOL    HW231728   6.515   5.674   6.214
10277SOL     OW31729   2.478   6.236   3.892
10277SOL    HW131730   2.490   6.294   3.812
10277SOL    HW231731   2.502   6.142   3.869
10278SOL     OW31732   5.860   0.776   4.960
10278SOL    HW131733   5.786   0.709   4.969
10278SOL    HW231734   5.823   0.862   4.924
10279SOL     OW31735   3.098   6.907   4.368
10279SOL    HW131736   3.173   6.871   4.313
10279SOL    HW231737   3.014   6.905   4.315
10280SOL     OW31738   2.327   3.823   1.163
10280SOL    HW131739   2.270   3.765   1.105
10280SOL    HW231740   2.342   3.911   1.118
10281SOL     OW31741   6.007   2.521   2.658
10281SOL    HW131742   5.986   2.464   2.738
10281SOL    HW231743   6.059   2.467   2.592
10282SOL     OW31744   6.303   3.736   4.562
10282SOL    HW131745   6.395   3.773   4.558
10282SOL    HW231746   6.247   3.779   4.491
10283SOL     OW31747   1.121   2.985   0.658
10283SOL    HW131748   1.117   3.057   0.727
10283SOL    HW231749   1.028   2.965   0.625
10284SOL     OW31750   4.968   4.449   5.845
10284SOL    HW131751   4.910   4.514   5.797
10284SOL    HW231752   5.035   4.410   5.781
10285SOL     OW31753   4.605   6.988   0.963
10285SOL    HW131754   4.524   0.001   1.011
10285SOL    HW231755   4.643   6.911   1.014
10286SOL     OW31756   3.423   2.107   3.969
10286SOL    HW131757   3.362   2.168   4.021
10286SOL    HW231758   3.416   2.014   4.006
10287SOL     OW31759   1.739   6.439   1.809
10287SOL    HW131760   1.650   6.478   1.830
10287SOL    HW231761   1.791   6.425   1.893
10288SOL     OW31762   5.172   6.183   2.277
10288SOL    HW131763   5.271   6.184   2.286
10288SOL    HW231764   5.145   6.237   2.197
10289SOL     OW31765   3.166   1.005   2.328
10289SOL    HW131766   3.186   0.911   2.355
10289SOL    HW231767   3.096   1.005   2.256
10290SOL     OW31768   3.731   4.114   2.489
10290SOL    HW131769   3.678   4.171   2.426
10290SOL    HW231770   3.691   4.119   2.580
10291SOL     OW31771   4.158   0.419   4.034
10291SOL    HW131772   4.173   0.452   4.127
10291SOL    HW231773   4.063   0.392   4.022
10292SOL     OW31774   0.798   1.573   4.642
10292SOL    HW131775   0.871   1.623   4.689
10292SOL    HW231776   0.780   1.616   4.554
10293SOL     OW31777   1.749   6.096   2.508
10293SOL    HW131778   1.657   6.074   2.542
10293SOL    HW231779   1.816   6.078   2.580
10294SOL     OW31780   4.927   3.558   3.223
10294SOL    HW131781   5.020   3.585   3.196
10294SOL    HW231782   4.897   3.616   3.299
10295SOL     OW31783   6.063   4.860   6.122
10295SOL    HW131784   6.153   4.903   6.111
10295SOL    HW231785   6.041   4.857   6.220
10296SOL     OW31786   5.013   3.928   6.853
10296SOL    HW131787   4.990   4.010   6.906
10296SOL    HW231788   4.934   3.867   6.849
10297SOL     OW31789   2.480   6.670   4.839
10297SOL    HW131790   2.392   6.668   4.885
10297SOL    HW231791   2.505   6.578   4.809
10298SOL     OW31792   4.421   4.575   2.941
10298SOL    HW131793   4.389   4.658   2.986
10298SOL    HW231794   4.357   4.548   2.870
10299SOL     OW31795   4.486   4.490   2.404
10299SOL    HW131796   4.522   4.402   2.434
10299SOL    HW231797   4.465   4.486   2.306
10300SOL     OW31798   1.883   4.671   2.548
10300SOL    HW131799   1.830   4.593   2.581
10300SOL    HW231800   1.967   4.639   2.505
10301SOL     OW31801   5.922   1.962   2.505
10301SOL    HW131802   5.881   1.901   2.573
10301SOL    HW231803   5.976   1.908   2.440
10302SOL     OW31804   1.086   6.341   3.784
10302SOL    HW131805   1.078   6.241   3.792
10302SOL    HW231806   1.044   6.371   3.698
10303SOL     OW31807   3.367   5.129   1.034
10303SOL    HW131808   3.329   5.185   1.108
10303SOL    HW231809   3.405   5.044   1.072
10304SOL     OW31810   6.025   1.087   2.815
10304SOL    HW131811   5.967   1.090   2.733
10304SOL    HW231812   5.978   1.134   2.890
10305SOL     OW31813   0.618   5.351   6.511
10305SOL    HW131814   0.669   5.396   6.437
10305SOL    HW231815   0.588   5.261   6.480
10306SOL     OW31816   4.442   6.149   6.422
10306SOL    HW131817   4.394   6.124   6.338
10306SOL    HW231818   4.471   6.245   6.417
10307SOL     OW31819   2.508   1.761   4.904
10307SOL    HW131820   2.486   1.853   4.937
10307SOL    HW231821   2.579   1.767   4.835
10308SOL     OW31822   2.861   4.858   4.251
10308SOL    HW131823   2.808   4.789   4.298
10308SOL    HW231824   2.867   4.941   4.307
10309SOL     OW31825   6.136   0.247   3.646
10309SOL    HW131826   6.188   0.333   3.638
10309SOL    HW231827   6.180   0.188   3.714
10310SOL     OW31828   3.694   2.907   1.548
10310SOL    HW131829   3.647   2.848   1.614
10310SOL    HW231830   3.728   2.989   1.595
10311SOL     OW31831   0.671   5.287   0.851
10311SOL    HW131832   0.751   5.227   0.851
10311SOL    HW231833   0.683   5.359   0.919
10312SOL     OW31834   3.668   5.444   1.290
10312SOL    HW131835   3.688   5.376   1.361
10312SOL    HW231836   3.653   5.397   1.203
10313SOL     OW31837   3.917   6.893   2.524
10313SOL    HW131838   3.847   6.843   2.574
10313SOL    HW231839   3.930   6.984   2.564
10314SOL     OW31840   5.565   1.195   1.508
10314SOL    HW131841   5.470   1.207   1.539
10314SOL    HW231842   5.627   1.223   1.581
10315SOL     OW31843   6.574   6.524   4.514
10315SOL    HW131844   6.487   6.558   4.550
10315SOL    HW231845   6.571   6.523   4.414
10316SOL     OW31846   6.538   3.446   4.694
10316SOL    HW131847   6.564   3.351   4.683
10316SOL    HW231848   6.602   3.505   4.644
10317SOL     OW31849   3.505   5.119   6.704
10317SOL    HW131850   3.600   5.097   6.680
10317SOL    HW231851   3.446   5.094   6.627
10318SOL     OW31852   6.403   5.725   1.257
10318SOL    HW131853   6.448   5.772   1.332
10318SOL    HW231854   6.314   5.691   1.287
10319SOL     OW31855   1.152   4.164   4.678
10319SOL    HW131856   1.120   4.174   4.772
10319SOL    HW231857   1.183   4.253   4.644
10320SOL     OW31858   0.648   0.698   0.668
10320SOL    HW131859   0.600   0.611   0.680
10320SOL    HW231860   0.730   0.683   0.613
10321SOL     OW31861   3.847   7.006   4.725
10321SOL    HW131862   3.861   6.954   4.641
10321SOL    HW231863   3.935   7.020   4.771
10322SOL     OW31864   6.640   5.673   0.072
10322SOL    HW131865   6.582   5.690   0.152
10322SOL    HW231866   6.592   5.701   7.012
10323SOL     OW31867   6.409   3.552   6.421
10323SOL    HW131868   6.346   3.483   6.385
10323SOL    HW231869   6.503   3.526   6.398
10324SOL     OW31870   3.100   3.056   3.450
10324SOL    HW131871   3.071   3.126   3.515
10324SOL    HW231872   3.040   3.059   3.369
10325SOL     OW31873   6.567   4.648   4.196
10325SOL    HW131874   6.550   4.742   4.165
10325SOL    HW231875   6.482   4.606   4.224
10326SOL     OW31876   4.783   2.827   6.893
10326SOL    HW131877   4.725   2.818   6.813
10326SOL    HW231878   4.774   2.919   6.931
10327SOL     OW31879   2.402   1.718   2.481
10327SOL    HW131880   2.369   1.668   2.561
10327SOL    HW231881   2.491   1.684   2.454
10328SOL     OW31882   5.983   3.686   2.147
10328SOL    HW131883   5.970   3.759   2.080
10328SOL    HW231884   5.920   3.611   2.127
10329SOL     OW31885   2.631   0.139   4.487
10329SOL    HW131886   2.638   0.040   4.476
10329SOL    HW231887   2.542   0.161   4.528
10330SOL     OW31888   3.533   4.921   2.823
10330SOL    HW131889   3.538   4.849   2.892
10330SOL    HW231890   3.494   5.004   2.864
10331SOL     OW31891   6.042   0.806   2.835
10331SOL    HW131892   6.054   0.906   2.831
10331SOL    HW231893   5.985   0.776   2.758
10332SOL     OW31894   0.005   1.714   6.934
10332SOL    HW131895   0.027   1.734   6.839
10332SOL    HW231896   6.942   1.663   6.939
10333SOL     OW31897   6.016   4.289   4.170
10333SOL    HW131898   5.932   4.341   4.183
10333SOL    HW231899   5.996   4.191   4.174
10334SOL     OW31900   2.208   5.744   3.945
10334SOL    HW131901   2.298   5.734   3.987
10334SOL    HW231902   2.168   5.654   3.930
10335SOL     OW31903   1.570   4.367   6.739
10335SOL    HW131904   1.612   4.422   6.812
10335SOL    HW231905   1.556   4.274   6.771
10336SOL     OW31906   4.774   6.489   2.822
10336SOL    HW131907   4.745   6.565   2.764
10336SOL    HW231908   4.838   6.431   2.772
10337SOL     OW31909   6.915   5.164   5.501
10337SOL    HW131910   6.848   5.222   5.453
10337SOL    HW231911   6.889   5.156   5.597
10338SOL     OW31912   3.451   6.595   1.151
10338SOL    HW131913   3.393   6.652   1.209
10338SOL    HW231914   3.438   6.499   1.173
10339SOL     OW31915   3.699   4.809   1.095
10339SOL    HW131916   3.760   4.885   1.073
10339SOL    HW231917   3.657   4.775   1.010
10340SOL     OW31918   1.637   5.777   6.734
10340SOL    HW131919   1.640   5.716   6.655
10340SOL    HW231920   1.633   5.723   6.818
10341SOL     OW31921   2.181   2.548   1.806
10341SOL    HW131922   2.192   2.483   1.730
10341SOL    HW231923   2.240   2.628   1.789
10342SOL     OW31924   2.038   5.838   5.794
10342SOL    HW131925   2.094   5.912   5.756
10342SOL    HW231926   2.004   5.864   5.884
10343SOL     OW31927   2.197   3.787   0.009
10343SOL    HW131928   2.211   3.880   6.996
10343SOL    HW231929   2.112   3.785   0.062
10344SOL     OW31930   4.158   3.590   3.381
10344SOL    HW131931   4.253   3.575   3.408
10344SOL    HW231932   4.097   3.557   3.453
10345SOL     OW31933   1.710   1.310   6.696
10345SOL    HW131934   1.618   1.346   6.709
10345SOL    HW231935   1.777   1.376   6.731
10346SOL     OW31936   5.680   0.362   1.257
10346SOL    HW131937   5.675   0.293   1.184
10346SOL    HW231938   5.610   0.431   1.242
10347SOL     OW31939   5.216   2.358   0.945
10347SOL    HW131940   5.240   2.341   0.849
10347SOL    HW231941   5.205   2.456   0.960
10348SOL     OW31942   6.768   0.661   6.240
10348SOL    HW131943   6.793   0.573   6.199
10348SOL    HW231944   6.798   0.664   6.335
10349SOL     OW31945   6.079   0.450   1.078
10349SOL    HW131946   6.091   0.432   1.176
10349SOL    HW231947   6.136   0.528   1.051
10350SOL     OW31948   3.627   6.305   4.673
10350SOL    HW131949   3.561   6.280   4.743
10350SOL    HW231950   3.720   6.290   4.708
10351SOL     OW31951   6.094   4.592   5.714
10351SOL    HW131952   6.052   4.674   5.677
10351SOL    HW231953   6.092   4.596   5.814
10352SOL     OW31954   5.219   1.973   6.525
10352SOL    HW131955   5.234   2.015   6.435
10352SOL    HW231956   5.144   2.020   6.572
10353SOL     OW31957   0.072   3.354   3.885
10353SOL    HW131958   0.080   3.255   3.883
10353SOL    HW231959   0.086   3.390   3.792
10354SOL     OW31960   0.378   3.643   1.448
10354SOL    HW131961   0.438   3.626   1.527
10354SOL    HW231962   0.294   3.590   1.458
10355SOL     OW31963   1.120   0.913   1.223
10355SOL    HW131964   1.120   1.008   1.253
10355SOL    HW231965   1.060   0.902   1.144
10356SOL     OW31966   0.859   3.336   6.583
10356SOL    HW131967   0.869   3.400   6.507
10356SOL    HW231968   0.764   3.338   6.616
10357SOL     OW31969   2.304   2.165   6.156
10357SOL    HW131970   2.394   2.184   6.194
10357SOL    HW231971   2.313   2.105   6.076
10358SOL     OW31972   1.880   3.800   2.814
10358SOL    HW131973   1.783   3.808   2.790
10358SOL    HW231974   1.914   3.710   2.785
10359SOL     OW31975   4.793   2.267   2.244
10359SOL    HW131976   4.805   2.264   2.144
10359SOL    HW231977   4.769   2.359   2.272
10360SOL     OW31978   5.226   4.900   2.439
10360SOL    HW131979   5.143   4.953   2.421
10360SOL    HW231980   5.268   4.932   2.524
10361SOL     OW31981   2.492   0.983   2.038
10361SOL    HW131982   2.569   0.941   2.086
10361SOL    HW231983   2.508   1.081   2.030
10362SOL     OW31984   0.347   4.837   2.894
10362SOL    HW131985   0.398   4.802   2.816
10362SOL    HW231986   0.280   4.769   2.924
10363SOL     OW31987   4.479   2.730   0.402
10363SOL    HW131988   4.397   2.768   0.444
10363SOL    HW231989   4.502   2.783   0.320
10364SOL     OW31990   5.355   4.754   1.479
10364SOL    HW131991   5.342   4.751   1.578
10364SOL    HW231992   5.446   4.719   1.455
10365SOL     OW31993   5.848   4.850   0.464
10365SOL    HW131994   5.946   4.841   0.444
10365SOL    HW231995   5.795   4.842   0.380
10366SOL     OW31996   4.240   6.779   3.504
10366SOL    HW131997   4.262   6.836   3.584
10366SOL    HW231998   4.238   6.683   3.531
10367SOL     OW31999   0.174   2.108   2.149
10367SOL    HW132000   0.173   2.166   2.067
10367SOL    HW232001   0.110   2.033   2.137
10368SOL     OW32002   2.250   1.170   2.937
10368SOL    HW132003   2.172   1.109   2.927
10368SOL    HW232004   2.251   1.236   2.863
10369SOL     OW32005   2.882   6.500   6.052
10369SOL    HW132006   2.808   6.542   6.000
10369SOL    HW232007   2.844   6.453   6.132
10370SOL     OW32008   6.347   1.473   4.874
10370SOL    HW132009   6.395   1.535   4.936
10370SOL    HW232010   6.405   1.394   4.856
10371SOL     OW32011   3.234   6.704   3.458
10371SOL    HW132012   3.223   6.715   3.360
10371SOL    HW232013   3.181   6.774   3.506
10372SOL     OW32014   2.771   0.791   1.535
10372SOL    HW132015   2.721   0.735   1.601
10372SOL    HW232016   2.865   0.805   1.567
10373SOL     OW32017   0.378   6.891   4.754
10373SOL    HW132018   0.400   6.964   4.819
10373SOL    HW232019   0.437   6.812   4.772
10374SOL     OW32020   2.850   6.559   4.818
10374SOL    HW132021   2.930   6.500   4.828
10374SOL    HW232022   2.821   6.560   4.723
10375SOL     OW32023   3.118   2.282   6.722
10375SOL    HW132024   3.139   2.195   6.765
10375SOL    HW232025   3.064   2.339   6.785
10376SOL     OW32026   1.348   6.009   3.762
10376SOL    HW132027   1.405   5.991   3.683
10376SOL    HW232028   1.258   6.041   3.732
10377SOL     OW32029   0.893   2.102   1.713
10377SOL    HW132030   0.945   2.024   1.749
10377SOL    HW232031   0.828   2.069   1.644
10378SOL     OW32032   6.922   5.380   6.060
10378SOL    HW132033   6.952   5.341   5.973
10378SOL    HW232034   6.946   5.477   6.063
10379SOL     OW32035   3.441   5.558   3.681
10379SOL    HW132036   3.443   5.657   3.695
10379SOL    HW232037   3.377   5.516   3.746
10380SOL     OW32038   1.271   2.237   4.949
10380SOL    HW132039   1.322   2.247   4.864
10380SOL    HW232040   1.174   2.220   4.928
10381SOL     OW32041   3.979   4.245   0.553
10381SOL    HW132042   3.988   4.299   0.469
10381SOL    HW232043   4.067   4.242   0.600
10382SOL     OW32044   3.304   6.218   2.087
10382SOL    HW132045   3.239   6.283   2.048
10382SOL    HW232046   3.298   6.131   2.039
10383SOL     OW32047   1.626   3.821   0.660
10383SOL    HW132048   1.708   3.806   0.715
10383SOL    HW232049   1.553   3.858   0.719
10384SOL     OW32050   6.572   6.547   0.819
10384SOL    HW132051   6.636   6.508   0.886
10384SOL    HW232052   6.525   6.474   0.771
10385SOL     OW32053   3.766   6.046   6.227
10385SOL    HW132054   3.682   6.100   6.235
10385SOL    HW232055   3.792   6.038   6.131
10386SOL     OW32056   0.824   0.771   5.565
10386SOL    HW132057   0.740   0.720   5.543
10386SOL    HW232058   0.861   0.738   5.651
10387SOL     OW32059   4.807   2.725   3.002
10387SOL    HW132060   4.797   2.658   2.929
10387SOL    HW232061   4.895   2.710   3.048
10388SOL     OW32062   2.596   6.561   0.984
10388SOL    HW132063   2.555   6.565   0.893
10388SOL    HW232064   2.528   6.587   1.053
10389SOL     OW32065   5.348   3.604   0.563
10389SOL    HW132066   5.418   3.661   0.606
10389SOL    HW232067   5.372   3.508   0.575
10390SOL     OW32068   1.502   2.648   6.969
10390SOL    HW132069   1.560   2.568   6.952
10390SOL    HW232070   1.493   2.662   0.045
10391SOL     OW32071   1.778   6.087   3.750
10391SOL    HW132072   1.715   6.095   3.828
10391SOL    HW232073   1.858   6.033   3.778
10392SOL     OW32074   5.736   5.156   5.717
10392SOL    HW132075   5.712   5.113   5.804
10392SOL    HW232076   5.796   5.234   5.734
10393SOL     OW32077   1.825   3.663   3.867
10393SOL    HW132078   1.746   3.720   3.891
10393SOL    HW232079   1.829   3.654   3.767
10394SOL     OW32080   2.343   5.559   4.495
10394SOL    HW132081   2.281   5.597   4.564
10394SOL    HW232082   2.372   5.468   4.523
10395SOL     OW32083   0.367   6.529   1.245
10395SOL    HW132084   0.451   6.515   1.193
10395SOL    HW232085   0.354   6.626   1.262
10396SOL     OW32086   4.023   1.748   3.811
10396SOL    HW132087   3.986   1.821   3.869
10396SOL    HW232088   4.072   1.682   3.869
10397SOL     OW32089   3.039   1.964   3.906
10397SOL    HW132090   3.050   1.911   3.990
10397SOL    HW232091   3.094   1.923   3.833
10398SOL     OW32092   6.467   2.464   1.090
10398SOL    HW132093   6.555   2.419   1.071
10398SOL    HW232094   6.481   2.539   1.154
10399SOL     OW32095   5.860   2.011   3.158
10399SOL    HW132096   5.877   2.090   3.216
10399SOL    HW232097   5.941   1.992   3.102
10400SOL     OW32098   4.658   5.858   0.379
10400SOL    HW132099   4.587   5.924   0.353
10400SOL    HW232100   4.719   5.842   0.301
10401SOL     OW32101   0.214   6.680   2.541
10401SOL    HW132102   0.211   6.583   2.568
10401SOL    HW232103   0.161   6.734   2.607
10402SOL     OW32104   6.335   2.039   5.201
10402SOL    HW132105   6.403   2.033   5.129
10402SOL    HW232106   6.249   2.073   5.163
10403SOL     OW32107   5.036   1.784   3.402
10403SOL    HW132108   4.948   1.831   3.409
10403SOL    HW232109   5.110   1.850   3.415
10404SOL     OW32110   6.171   6.139   4.592
10404SOL    HW132111   6.175   6.062   4.529
10404SOL    HW232112   6.165   6.224   4.540
10405SOL     OW32113   1.311   0.303   4.802
10405SOL    HW132114   1.294   0.344   4.891
10405SOL    HW232115   1.369   0.364   4.747
10406SOL     OW32116   2.483   4.598   3.301
10406SOL    HW132117   2.460   4.500   3.299
10406SOL    HW232118   2.525   4.620   3.389
10407SOL     OW32119   2.278   6.740   6.128
10407SOL    HW132120   2.283   6.644   6.098
10407SOL    HW232121   2.244   6.797   6.053
10408SOL     OW32122   4.280   6.780   1.326
10408SOL    HW132123   4.368   6.743   1.296
10408SOL    HW232124   4.288   6.812   1.420
10409SOL     OW32125   0.482   4.770   1.031
10409SOL    HW132126   0.443   4.822   0.956
10409SOL    HW232127   0.511   4.680   0.998
10410SOL     OW32128   5.351   2.132   1.775
10410SOL    HW132129   5.385   2.038   1.780
10410SOL    HW232130   5.307   2.156   1.861
10411SOL     OW32131   3.643   6.470   3.357
10411SOL    HW132132   3.698   6.399   3.401
10411SOL    HW232133   3.629   6.546   3.420
10412SOL     OW32134   0.560   1.167   6.799
10412SOL    HW132135   0.546   1.228   6.721
10412SOL    HW232136   0.646   1.190   6.844
10413SOL     OW32137   0.010   2.785   0.196
10413SOL    HW132138   0.079   2.856   0.181
10413SOL    HW232139   6.988   2.801   0.284
10414SOL     OW32140   3.716   5.351   5.905
10414SOL    HW132141   3.758   5.399   5.982
10414SOL    HW232142   3.770   5.269   5.884
10415SOL     OW32143   1.813   3.527   4.663
10415SOL    HW132144   1.835   3.511   4.567
10415SOL    HW232145   1.853   3.455   4.720
10416SOL     OW32146   6.080   0.398   4.964
10416SOL    HW132147   6.176   0.373   4.978
10416SOL    HW232148   6.074   0.485   4.916
10417SOL     OW32149   3.175   5.167   4.168
10417SOL    HW132150   3.090   5.136   4.126
10417SOL    HW232151   3.253   5.133   4.116
10418SOL     OW32152   6.899   3.205   6.341
10418SOL    HW132153   6.936   3.297   6.343
10418SOL    HW232154   6.945   3.152   6.270
10419SOL     OW32155   2.268   0.033   5.910
10419SOL    HW132156   2.309   0.087   5.837
10419SOL    HW232157   2.244   0.093   5.986
10420SOL     OW32158   0.558   3.996   3.698
10420SOL    HW132159   0.615   4.073   3.729
10420SOL    HW232160   0.578   3.915   3.754
10421SOL     OW32161   0.522   2.194   4.088
10421SOL    HW132162   0.509   2.181   3.990
10421SOL    HW232163   0.434   2.188   4.135
10422SOL     OW32164   5.981   3.202   5.225
10422SOL    HW132165   6.044   3.227   5.152
10422SOL    HW232166   5.888   3.231   5.201
10423SOL     OW32167   6.411   6.050   5.295
10423SOL    HW132168   6.456   6.064   5.384
10423SOL    HW232169   6.471   6.084   5.222
10424SOL     OW32170   5.063   2.764   6.843
10424SOL    HW132171   5.001   2.761   6.765
10424SOL    HW232172   5.023   2.819   6.916
10425SOL     OW32173   1.092   0.348   1.758
10425SOL    HW132174   1.098   0.445   1.784
10425SOL    HW232175   1.183   0.315   1.732
10426SOL     OW32176   5.891   4.942   0.984
10426SOL    HW132177   5.949   4.904   0.912
10426SOL    HW232178   5.800   4.902   0.978
10427SOL     OW32179   3.818   0.838   6.691
10427SOL    HW132180   3.822   0.904   6.616
10427SOL    HW232181   3.732   0.849   6.741
10428SOL     OW32182   3.604   0.990   3.435
10428SOL    HW132183   3.526   0.973   3.495
10428SOL    HW232184   3.590   0.944   3.347
10429SOL     OW32185   6.748   4.213   1.196
10429SOL    HW132186   6.741   4.169   1.107
10429SOL    HW232187   6.674   4.280   1.206
10430SOL     OW32188   4.919   0.085   4.444
10430SOL    HW132189   4.872   0.161   4.490
10430SOL    HW232190   4.890   0.081   4.349
10431SOL     OW32191   3.163   6.155   4.394
10431SOL    HW132192   3.089   6.088   4.397
10431SOL    HW232193   3.167   6.204   4.481
10432SOL     OW32194   5.312   6.456   4.842
10432SOL    HW132195   5.368   6.427   4.765
10432SOL    HW232196   5.338   6.404   4.924
10433SOL     OW32197   1.320   6.068   1.495
10433SOL    HW132198   1.228   6.029   1.494
10433SOL    HW232199   1.341   6.109   1.406
10434SOL     OW32200   3.997   6.587   3.372
10434SOL    HW132201   3.930   6.650   3.411
10434SOL    HW232202   4.083   6.635   3.356
10435SOL     OW32203   6.858   0.693   4.775
10435SOL    HW132204   6.823   0.644   4.695
10435SOL    HW232205   6.826   0.788   4.772
10436SOL     OW32206   0.757   5.136   5.511
10436SOL    HW132207   0.737   5.189   5.593
10436SOL    HW232208   0.708   5.049   5.514
10437SOL     OW32209   5.132   4.312   5.673
10437SOL    HW132210   5.151   4.222   5.633
10437SOL    HW232211   5.209   4.339   5.732
10438SOL     OW32212   6.493   6.535   0.131
10438SOL    HW132213   6.450   6.462   0.184
10438SOL    HW232214   6.589   6.543   0.158
10439SOL     OW32215   4.148   0.873   5.411
10439SOL    HW132216   4.197   0.943   5.463
10439SOL    HW232217   4.055   0.864   5.448
10440SOL     OW32218   1.452   0.081   0.557
10440SOL    HW132219   1.502   0.002   0.593
10440SOL    HW232220   1.436   0.146   0.632
10441SOL     OW32221   2.847   0.146   1.294
10441SOL    HW132222   2.940   0.117   1.271
10441SOL    HW232223   2.781   0.085   1.250
10442SOL     OW32224   3.154   6.574   6.028
10442SOL    HW132225   3.203   6.488   6.018
10442SOL    HW232226   3.055   6.556   6.028
10443SOL     OW32227   4.827   4.011   4.685
10443SOL    HW132228   4.834   4.106   4.717
10443SOL    HW232229   4.732   3.992   4.659
10444SOL     OW32230   3.931   6.598   4.637
10444SOL    HW132231   3.841   6.623   4.601
10444SOL    HW232232   3.943   6.499   4.631
10445SOL     OW32233   0.771   5.001   4.849
10445SOL    HW132234   0.864   5.016   4.816
10445SOL    HW232235   0.707   5.057   4.796
10446SOL     OW32236   1.605   2.993   5.267
10446SOL    HW132237   1.532   2.924   5.271
10446SOL    HW232238   1.615   3.036   5.357
10447SOL     OW32239   0.596   0.794   2.105
10447SOL    HW132240   0.621   0.881   2.061
10447SOL    HW232241   0.668   0.768   2.169
10448SOL     OW32242   3.463   0.967   2.586
10448SOL    HW132243   3.399   1.044   2.592
10448SOL    HW232244   3.554   0.997   2.615
10449SOL     OW32245   2.429   5.330   4.916
10449SOL    HW132246   2.512   5.276   4.923
10449SOL    HW232247   2.361   5.281   4.862
10450SOL     OW32248   0.460   1.683   0.760
10450SOL    HW132249   0.530   1.641   0.703
10450SOL    HW232250   0.501   1.715   0.846
10451SOL     OW32251   1.209   5.766   2.344
10451SOL    HW132252   1.245   5.673   2.346
10451SOL    HW232253   1.127   5.769   2.287
10452SOL     OW32254   6.744   3.803   2.223
10452SOL    HW132255   6.713   3.876   2.283
10452SOL    HW232256   6.833   3.826   2.184
10453SOL     OW32257   3.849   6.061   1.594
10453SOL    HW132258   3.934   6.020   1.562
10453SOL    HW232259   3.800   6.101   1.517
10454SOL     OW32260   4.519   3.631   0.843
10454SOL    HW132261   4.586   3.704   0.851
10454SOL    HW232262   4.435   3.656   0.893
10455SOL     OW32263   6.160   6.315   3.491
10455SOL    HW132264   6.097   6.239   3.475
10455SOL    HW232265   6.254   6.284   3.475
10456SOL     OW32266   3.396   6.707   0.794
10456SOL    HW132267   3.306   6.665   0.789
10456SOL    HW232268   3.464   6.638   0.819
10457SOL     OW32269   3.249   3.614   1.801
10457SOL    HW132270   3.223   3.538   1.861
10457SOL    HW232271   3.284   3.578   1.715
10458SOL     OW32272   0.574   1.482   5.772
10458SOL    HW132273   0.662   1.443   5.797
10458SOL    HW232274   0.500   1.423   5.805
10459SOL     OW32275   4.450   5.793   1.597
10459SOL    HW132276   4.424   5.843   1.680
10459SOL    HW232277   4.508   5.716   1.621
10460SOL     OW32278   1.410   4.777   1.408
10460SOL    HW132279   1.428   4.683   1.377
10460SOL    HW232280   1.315   4.785   1.437
10461SOL     OW32281   1.148   4.999   5.343
10461SOL    HW132282   1.128   4.928   5.411
10461SOL    HW232283   1.071   5.006   5.280
10462SOL     OW32284   6.031   2.337   3.935
10462SOL    HW132285   6.005   2.245   3.967
10462SOL    HW232286   5.951   2.397   3.938
10463SOL     OW32287   3.795   2.892   5.707
10463SOL    HW132288   3.698   2.885   5.729
10463SOL    HW232289   3.848   2.904   5.791
10464SOL     OW32290   6.491   6.626   1.214
10464SOL    HW132291   6.580   6.668   1.203
10464SOL    HW232292   6.428   6.662   1.145
10465SOL     OW32293   6.834   5.596   1.695
10465SOL    HW132294   6.851   5.517   1.635
10465SOL    HW232295   6.917   5.651   1.702
10466SOL     OW32296   4.675   5.194   5.868
10466SOL    HW132297   4.740   5.119   5.855
10466SOL    HW232298   4.597   5.162   5.921
10467SOL     OW32299   1.510   2.277   6.004
10467SOL    HW132300   1.604   2.253   6.028
10467SOL    HW232301   1.448   2.211   6.045
10468SOL     OW32302   4.097   4.784   2.731
10468SOL    HW132303   4.105   4.874   2.687
10468SOL    HW232304   4.129   4.713   2.669
10469SOL     OW32305   3.997   3.061   6.243
10469SOL    HW132306   3.988   3.049   6.144
10469SOL    HW232307   3.915   3.106   6.278
10470SOL     OW32308   2.589   2.230   3.732
10470SOL    HW132309   2.573   2.186   3.820
10470SOL    HW232310   2.675   2.197   3.694
10471SOL     OW32311   2.517   2.299   1.222
10471SOL    HW132312   2.554   2.237   1.153
10471SOL    HW232313   2.510   2.392   1.184
10472SOL     OW32314   2.833   5.041   0.767
10472SOL    HW132315   2.900   5.102   0.809
10472SOL    HW232316   2.790   5.087   0.689
10473SOL     OW32317   6.225   0.939   6.908
10473SOL    HW132318   6.309   0.925   6.856
10473SOL    HW232319   6.198   1.035   6.904
10474SOL     OW32320   4.300   1.678   4.569
10474SOL    HW132321   4.245   1.757   4.595
10474SOL    HW232322   4.252   1.623   4.500
10475SOL     OW32323   5.081   6.950   2.979
10475SOL    HW132324   5.023   6.968   2.899
10475SOL    HW232325   5.175   6.935   2.949
10476SOL     OW32326   0.095   6.396   6.825
10476SOL    HW132327   0.170   6.448   6.863
10476SOL    HW232328   0.038   6.360   6.899
10477SOL     OW32329   6.570   1.667   3.887
10477SOL    HW132330   6.485   1.708   3.856
10477SOL    HW232331   6.593   1.703   3.978
10478SOL     OW32332   0.610   0.598   1.202
10478SOL    HW132333   0.626   0.589   1.104
10478SOL    HW232334   0.512   0.605   1.220
10479SOL     OW32335   0.556   2.777   1.866
10479SOL    HW132336   0.530   2.771   1.963
10479SOL    HW232337   0.642   2.827   1.858
10480SOL     OW32338   6.232   0.716   1.417
10480SOL    HW132339   6.331   0.705   1.407
10480SOL    HW232340   6.211   0.750   1.509
10481SOL     OW32341   2.424   0.069   4.256
10481SOL    HW132342   2.418   0.121   4.170
10481SOL    HW232343   2.471   0.124   4.325
10482SOL     OW32344   0.152   5.792   4.654
10482SOL    HW132345   0.239   5.836   4.675
10482SOL    HW232346   0.124   5.735   4.732
10483SOL     OW32347   0.298   5.612   0.523
10483SOL    HW132348   0.364   5.687   0.511
10483SOL    HW232349   0.233   5.636   0.595
10484SOL     OW32350   6.208   1.088   1.487
10484SOL    HW132351   6.219   1.104   1.585
10484SOL    HW232352   6.219   1.174   1.438
10485SOL     OW32353   3.229   3.508   2.179
10485SOL    HW132354   3.273   3.472   2.097
10485SOL    HW232355   3.130   3.497   2.171
10486SOL     OW32356   6.578   0.653   6.031
10486SOL    HW132357   6.662   0.665   6.083
10486SOL    HW232358   6.506   0.617   6.090
10487SOL     OW32359   4.478   2.023   1.583
10487SOL    HW132360   4.385   2.036   1.617
10487SOL    HW232361   4.515   1.937   1.617
10488SOL     OW32362   2.203   2.054   6.418
10488SOL    HW132363   2.105   2.061   6.398
10488SOL    HW232364   2.246   1.991   6.353
10489SOL     OW32365   5.878   6.522   3.558
10489SOL    HW132366   5.912   6.605   3.603
10489SOL    HW232367   5.833   6.547   3.472
10490SOL     OW32368   5.752   1.948   0.448
10490SOL    HW132369   5.734   2.015   0.520
10490SOL    HW232370   5.674   1.885   0.441
10491SOL     OW32371   2.009   2.157   5.521
10491SOL    HW132372   2.062   2.236   5.490
10491SOL    HW232373   2.013   2.084   5.452
10492SOL     OW32374   4.896   6.269   1.320
10492SOL    HW132375   4.813   6.255   1.374
10492SOL    HW232376   4.890   6.217   1.235
10493SOL     OW32377   2.885   6.377   1.819
10493SOL    HW132378   2.885   6.295   1.761
10493SOL    HW232379   2.822   6.444   1.781
10494SOL     OW32380   5.976   4.348   5.613
10494SOL    HW132381   5.899   4.323   5.672
10494SOL    HW232382   6.022   4.429   5.650
10495SOL     OW32383   0.235   0.409   0.632
10495SOL    HW132384   0.197   0.367   0.549
10495SOL    HW232385   0.180   0.383   0.711
10496SOL     OW32386   6.273   5.012   5.593
10496SOL    HW132387   6.194   4.970   5.638
10496SOL    HW232388   6.351   5.011   5.655
10497SOL     OW32389   1.117   6.613   2.455
10497SOL    HW132390   1.040   6.670   2.482
10497SOL    HW232391   1.200   6.670   2.449
10498SOL     OW32392   5.862   5.743   0.731
10498SOL    HW132393   5.910   5.830   0.740
10498SOL    HW232394   5.813   5.740   0.644
10499SOL     OW32395   4.675   6.896   1.883
10499SOL    HW132396   4.674   6.976   1.943
10499SOL    HW232397   4.597   6.899   1.821
10500SOL     OW32398   5.757   1.951   6.062
10500SOL    HW132399   5.718   1.935   5.971
10500SOL    HW232400   5.778   2.048   6.073
10501SOL     OW32401   2.219   5.554   2.221
10501SOL    HW132402   2.202   5.623   2.292
10501SOL    HW232403   2.209   5.597   2.131
10502SOL     OW32404   2.549   3.690   0.859
10502SOL    HW132405   2.486   3.735   0.795
10502SOL    HW232406   2.497   3.632   0.921
10503SOL     OW32407   5.859   3.537   0.768
10503SOL    HW132408   5.914   3.514   0.688
10503SOL    HW232409   5.805   3.619   0.749
10504SOL     OW32410   0.198   2.447   5.713
10504SOL    HW132411   0.102   2.442   5.741
10504SOL    HW232412   0.204   2.469   5.616
10505SOL     OW32413   5.684   6.635   1.328
10505SOL    HW132414   5.719   6.712   1.274
10505SOL    HW232415   5.737   6.627   1.412
10506SOL     OW32416   0.478   3.597   6.731
10506SOL    HW132417   0.385   3.561   6.734
10506SOL    HW232418   0.513   3.606   6.825
10507SOL     OW32419   2.590   5.160   6.855
10507SOL    HW132420   2.689   5.153   6.863
10507SOL    HW232421   2.565   5.254   6.834
10508SOL     OW32422   0.662   5.927   3.726
10508SOL    HW132423   0.702   5.981   3.800
10508SOL    HW232424   0.721   5.848   3.707
10509SOL     OW32425   6.199   4.911   4.884
10509SOL    HW132426   6.176   4.938   4.977
10509SOL    HW232427   6.116   4.880   4.837
10510SOL     OW32428   4.616   6.398   0.495
10510SOL    HW132429   4.551   6.356   0.432
10510SOL    HW232430   4.593   6.374   0.589
10511SOL     OW32431   3.142   1.513   2.440
10511SOL    HW132432   3.065   1.463   2.481
10511SOL    HW232433   3.163   1.594   2.495
10512SOL     OW32434   3.696   0.068   6.016
10512SOL    HW132435   3.656   7.007   6.054
10512SOL    HW232436   3.658   0.084   5.925
10513SOL     OW32437   6.664   3.031   3.279
10513SOL    HW132438   6.640   3.127   3.277
10513SOL    HW232439   6.581   2.975   3.281
10514SOL     OW32440   1.400   1.950   1.572
10514SOL    HW132441   1.419   1.939   1.670
10514SOL    HW232442   1.433   1.870   1.522
10515SOL     OW32443   1.317   3.242   4.467
10515SOL    HW132444   1.249   3.305   4.429
10515SOL    HW232445   1.365   3.287   4.543
10516SOL     OW32446   2.793   1.999   0.464
10516SOL    HW132447   2.751   2.066   0.402
10516SOL    HW232448   2.887   1.981   0.435
10517SOL     OW32449   1.655   4.000   1.555
10517SOL    HW132450   1.558   3.990   1.534
10517SOL    HW232451   1.676   3.951   1.640
10518SOL     OW32452   0.034   6.126   1.934
10518SOL    HW132453   0.084   6.042   1.955
10518SOL    HW232454   6.964   6.120   1.970
10519SOL     OW32455   2.702   4.658   0.169
10519SOL    HW132456   2.773   4.710   0.217
10519SOL    HW232457   2.647   4.720   0.113
10520SOL     OW32458   0.142   2.278   5.988
10520SOL    HW132459   0.094   2.199   6.026
10520SOL    HW232460   0.090   2.316   5.911
10521SOL     OW32461   6.696   5.572   1.388
10521SOL    HW132462   6.619   5.525   1.345
10521SOL    HW232463   6.748   5.508   1.443
10522SOL     OW32464   0.271   2.716   3.406
10522SOL    HW132465   0.338   2.720   3.332
10522SOL    HW232466   0.212   2.637   3.394
10523SOL     OW32467   0.376   4.329   3.665
10523SOL    HW132468   0.347   4.416   3.705
10523SOL    HW232469   0.433   4.280   3.731
10524SOL     OW32470   0.481   6.464   4.181
10524SOL    HW132471   0.425   6.382   4.166
10524SOL    HW232472   0.464   6.499   4.273
10525SOL     OW32473   4.011   0.099   5.200
10525SOL    HW132474   4.087   0.055   5.152
10525SOL    HW232475   4.034   0.195   5.216
10526SOL     OW32476   0.833   6.626   1.502
10526SOL    HW132477   0.787   6.619   1.590
10526SOL    HW232478   0.926   6.659   1.515
10527SOL     OW32479   1.090   0.776   5.932
10527SOL    HW132480   1.129   0.807   6.019
10527SOL    HW232481   1.027   0.845   5.897
10528SOL     OW32482   1.060   4.117   6.109
10528SOL    HW132483   0.970   4.147   6.139
10528SOL    HW232484   1.089   4.172   6.031
10529SOL     OW32485   2.032   5.989   4.440
10529SOL    HW132486   2.067   5.969   4.348
10529SOL    HW232487   2.054   5.912   4.501
10530SOL     OW32488   1.044   6.509   5.878
10530SOL    HW132489   1.077   6.519   5.972
10530SOL    HW232490   0.971   6.441   5.876
10531SOL     OW32491   3.133   2.081   4.566
10531SOL    HW132492   3.081   2.008   4.522
10531SOL    HW232493   3.077   2.121   4.639
10532SOL     OW32494   6.745   0.027   6.114
10532SOL    HW132495   6.661   6.997   6.101
10532SOL    HW232496   6.727   0.107   6.170
10533SOL     OW32497   3.233   5.895   3.624
10533SOL    HW132498   3.175   5.820   3.595
10533SOL    HW232499   3.301   5.862   3.689
10534SOL     OW32500   6.619   5.441   1.838
10534SOL    HW132501   6.576   5.478   1.920
10534SOL    HW232502   6.691   5.504   1.807
10535SOL     OW32503   2.166   1.810   1.966
10535SOL    HW132504   2.085   1.805   1.908
10535SOL    HW232505   2.200   1.905   1.968
10536SOL     OW32506   4.453   0.511   4.145
10536SOL    HW132507   4.376   0.539   4.088
10536SOL    HW232508   4.539   0.526   4.095
10537SOL     OW32509   5.545   6.462   3.969
10537SOL    HW132510   5.623   6.399   3.974
10537SOL    HW232511   5.483   6.445   4.046
10538SOL     OW32512   6.567   3.257   0.924
10538SOL    HW132513   6.659   3.231   0.894
10538SOL    HW232514   6.535   3.335   0.869
10539SOL     OW32515   6.528   5.475   1.156
10539SOL    HW132516   6.579   5.467   1.070
10539SOL    HW232517   6.511   5.571   1.176
10540SOL     OW32518   2.011   3.117   5.433
10540SOL    HW132519   1.952   3.100   5.354
10540SOL    HW232520   2.040   3.029   5.472
10541SOL     OW32521   3.966   3.124   3.364
10541SOL    HW132522   3.903   3.184   3.413
10541SOL    HW232523   3.989   3.163   3.275
10542SOL     OW32524   6.403   0.362   4.684
10542SOL    HW132525   6.502   0.370   4.694
10542SOL    HW232526   6.358   0.412   4.758
10543SOL     OW32527   0.834   1.783   4.276
10543SOL    HW132528   0.771   1.845   4.229
10543SOL    HW232529   0.783   1.710   4.320
10544SOL     OW32530   2.251   5.850   2.308
10544SOL    HW132531   2.256   5.917   2.234
10544SOL    HW232532   2.156   5.840   2.339
10545SOL     OW32533   1.945   2.105   1.573
10545SOL    HW132534   1.859   2.053   1.569
10545SOL    HW232535   1.936   2.187   1.518
10546SOL     OW32536   3.190   6.321   0.950
10546SOL    HW132537   3.200   6.417   0.927
10546SOL    HW232538   3.110   6.283   0.903
10547SOL     OW32539   5.117   2.410   3.945
10547SOL    HW132540   5.024   2.373   3.944
10547SOL    HW232541   5.160   2.392   3.856
10548SOL     OW32542   0.192   4.401   4.133
10548SOL    HW132543   0.192   4.303   4.116
10548SOL    HW232544   0.102   4.439   4.113
10549SOL     OW32545   0.288   1.420   0.430
10549SOL    HW132546   0.227   1.388   0.503
10549SOL    HW232547   0.259   1.380   0.343
10550SOL     OW32548   4.284   6.432   3.582
10550SOL    HW132549   4.283   6.341   3.623
10550SOL    HW232550   4.379   6.462   3.569
10551SOL     OW32551   1.743   2.021   6.824
10551SOL    HW132552   1.764   2.096   6.762
10551SOL    HW232553   1.663   2.045   6.879
10552SOL     OW32554   1.969   1.000   5.233
10552SOL    HW132555   2.016   1.085   5.256
10552SOL    HW232556   1.977   0.984   5.134
10553SOL     OW32557   0.477   4.183   1.365
10553SOL    HW132558   0.488   4.097   1.414
10553SOL    HW232559   0.566   4.221   1.341
10554SOL     OW32560   5.098   5.530   1.871
10554SOL    HW132561   5.162   5.517   1.795
10554SOL    HW232562   5.006   5.506   1.841
10555SOL     OW32563   2.484   2.510   0.981
10555SOL    HW132564   2.529   2.533   0.895
10555SOL    HW232565   2.442   2.592   1.020
10556SOL     OW32566   2.690   0.958   3.838
10556SOL    HW132567   2.694   1.002   3.927
10556SOL    HW232568   2.782   0.951   3.800
10557SOL     OW32569   1.393   3.276   3.779
10557SOL    HW132570   1.462   3.223   3.827
10557SOL    HW232571   1.360   3.350   3.838
10558SOL     OW32572   3.959   5.793   6.131
10558SOL    HW132573   3.919   5.809   6.221
10558SOL    HW232574   4.052   5.831   6.128
10559SOL     OW32575   3.890   0.253   2.093
10559SOL    HW132576   3.805   0.238   2.143
10559SOL    HW232577   3.875   0.320   2.021
10560SOL     OW32578   4.922   6.971   2.757
10560SOL    HW132579   4.915   0.015   2.682
10560SOL    HW232580   4.873   6.888   2.733
10561SOL     OW32581   3.899   4.174   1.677
10561SOL    HW132582   3.976   4.195   1.617
10561SOL    HW232583   3.845   4.257   1.693
10562SOL     OW32584   4.610   5.564   0.472
10562SOL    HW132585   4.636   5.503   0.398
10562SOL    HW232586   4.615   5.659   0.440
10563SOL     OW32587   1.150   0.611   1.829
10563SOL    HW132588   1.067   0.656   1.863
10563SOL    HW232589   1.176   0.650   1.741
10564SOL     OW32590   5.541   6.662   3.573
10564SOL    HW132591   5.591   6.688   3.656
10564SOL    HW232592   5.502   6.744   3.531
10565SOL     OW32593   6.602   6.436   5.533
10565SOL    HW132594   6.695   6.467   5.552
10565SOL    HW232595   6.560   6.494   5.463
10566SOL     OW32596   3.375   1.986   6.682
10566SOL    HW132597   3.292   2.005   6.735
10566SOL    HW232598   3.450   1.967   6.744
10567SOL     OW32599   1.958   3.085   5.829
10567SOL    HW132600   2.018   3.020   5.876
10567SOL    HW232601   1.899   3.036   5.765
10568SOL     OW32602   6.051   2.984   0.813
10568SOL    HW132603   6.002   2.999   0.898
10568SOL    HW232604   6.060   2.886   0.795
10569SOL     OW32605   5.885   0.601   1.870
10569SOL    HW132606   5.971   0.602   1.922
10569SOL    HW232607   5.838   0.688   1.883
10570SOL     OW32608   1.541   4.443   3.409
10570SOL    HW132609   1.485   4.476   3.485
10570SOL    HW232610   1.632   4.484   3.414
10571SOL     OW32611   6.825   4.008   5.138
10571SOL    HW132612   6.900   4.061   5.097
10571SOL    HW232613   6.743   4.066   5.144
10572SOL     OW32614   6.974   5.101   3.000
10572SOL    HW132615   6.958   5.015   2.952
10572SOL    HW232616   0.014   5.158   2.947
10573SOL     OW32617   5.065   0.344   4.740
10573SOL    HW132618   5.001   0.359   4.664
10573SOL    HW232619   5.156   0.375   4.714
10574SOL     OW32620   6.888   1.548   4.277
10574SOL    HW132621   6.970   1.542   4.221
10574SOL    HW232622   6.907   1.605   4.358
10575SOL     OW32623   6.949   1.131   3.690
10575SOL    HW132624   6.909   1.098   3.605
10575SOL    HW232625   6.876   1.155   3.754
10576SOL     OW32626   0.482   6.048   3.351
10576SOL    HW132627   0.413   6.072   3.283
10576SOL    HW232628   0.477   6.113   3.427
10577SOL     OW32629   1.757   4.302   0.425
10577SOL    HW132630   1.850   4.334   0.440
10577SOL    HW232631   1.694   4.380   0.431
10578SOL     OW32632   4.585   0.963   3.290
10578SOL    HW132633   4.647   1.036   3.320
10578SOL    HW232634   4.631   0.905   3.223
10579SOL     OW32635   3.613   2.917   1.254
10579SOL    HW132636   3.634   2.882   1.345
10579SOL    HW232637   3.538   2.864   1.215
10580SOL     OW32638   6.179   6.292   5.738
10580SOL    HW132639   6.272   6.261   5.754
10580SOL    HW232640   6.136   6.236   5.667
10581SOL     OW32641   5.659   0.641   2.250
10581SOL    HW132642   5.592   0.625   2.322
10581SOL    HW232643   5.629   0.717   2.192
10582SOL     OW32644   4.528   4.336   6.311
10582SOL    HW132645   4.455   4.355   6.246
10582SOL    HW232646   4.588   4.264   6.275
10583SOL     OW32647   4.477   0.204   4.046
10583SOL    HW132648   4.419   0.265   3.992
10583SOL    HW232649   4.494   0.246   4.135
10584SOL     OW32650   6.373   6.963   6.966
10584SOL    HW132651   6.432   7.002   6.895
10584SOL    HW232652   6.428   6.912   0.009
10585SOL     OW32653   2.354   2.051   5.856
10585SOL    HW132654   2.261   2.035   5.825
10585SOL    HW232655   2.402   2.109   5.789
10586SOL     OW32656   4.938   5.319   5.963
10586SOL    HW132657   4.881   5.346   5.885
10586SOL    HW232658   4.880   5.308   6.044
10587SOL     OW32659   6.411   5.200   6.998
10587SOL    HW132660   6.331   5.257   6.978
10587SOL    HW232661   6.381   5.108   7.020
10588SOL     OW32662   1.748   1.710   4.952
10588SOL    HW132663   1.700   1.789   4.991
10588SOL    HW232664   1.726   1.628   5.005
10589SOL     OW32665   5.403   0.210   4.899
10589SOL    HW132666   5.345   0.292   4.903
10589SOL    HW232667   5.352   0.134   4.859
10590SOL     OW32668   0.312   6.783   1.254
10590SOL    HW132669   0.259   6.818   1.332
10590SOL    HW232670   0.353   6.860   1.205
10591SOL     OW32671   2.301   1.785   0.748
10591SOL    HW132672   2.361   1.832   0.812
10591SOL    HW232673   2.353   1.716   0.697
10592SOL     OW32674   5.448   3.331   4.405
10592SOL    HW132675   5.354   3.352   4.432
10592SOL    HW232676   5.455   3.330   4.306
10593SOL     OW32677   2.868   5.797   0.866
10593SOL    HW132678   2.790   5.850   0.899
10593SOL    HW232679   2.866   5.706   0.906
10594SOL     OW32680   4.994   1.681   2.942
10594SOL    HW132681   4.898   1.707   2.937
10594SOL    HW232682   5.050   1.763   2.958
10595SOL     OW32683   5.863   7.008   6.633
10595SOL    HW132684   5.904   6.966   6.713
10595SOL    HW232685   5.929   0.047   6.589
10596SOL     OW32686   4.788   0.607   0.020
10596SOL    HW132687   4.833   0.643   0.102
10596SOL    HW232688   4.693   0.585   0.042
10597SOL     OW32689   3.003   1.290   5.926
10597SOL    HW132690   3.008   1.263   6.022
10597SOL    HW232691   3.061   1.229   5.872
10598SOL     OW32692   3.239   2.431   6.496
10598SOL    HW132693   3.209   2.519   6.460
10598SOL    HW232694   3.165   2.391   6.551
10599SOL     OW32695   6.460   3.755   6.915
10599SOL    HW132696   6.463   3.694   6.836
10599SOL    HW232697   6.372   3.804   6.915
10600SOL     OW32698   3.261   2.615   1.674
10600SOL    HW132699   3.175   2.565   1.683
10600SOL    HW232700   3.287   2.619   1.578
10601SOL     OW32701   1.409   4.989   5.646
10601SOL    HW132702   1.471   5.048   5.700
10601SOL    HW232703   1.427   5.003   5.549
10602SOL     OW32704   1.063   0.708   1.387
10602SOL    HW132705   1.100   0.706   1.480
10602SOL    HW232706   1.093   0.793   1.342
10603SOL     OW32707   4.438   0.122   3.220
10603SOL    HW132708   4.514   0.167   3.172
10603SOL    HW232709   4.453   0.128   3.319
10604SOL     OW32710   6.799   5.518   4.985
10604SOL    HW132711   6.756   5.552   4.902
10604SOL    HW232712   6.805   5.418   4.981
10605SOL     OW32713   2.235   6.247   6.852
10605SOL    HW132714   2.139   6.275   6.849
10605SOL    HW232715   2.242   6.147   6.845
10606SOL     OW32716   6.804   1.394   1.170
10606SOL    HW132717   6.820   1.443   1.084
10606SOL    HW232718   6.891   1.362   1.207
10607SOL     OW32719   3.700   5.133   0.334
10607SOL    HW132720   3.782   5.118   0.390
10607SOL    HW232721   3.727   5.149   0.239
10608SOL     OW32722   6.785   3.645   4.216
10608SOL    HW132723   6.865   3.652   4.275
10608SOL    HW232724   6.781   3.554   4.175
10609SOL     OW32725   3.194   6.826   6.841
10609SOL    HW132726   3.264   6.842   6.910
10609SOL    HW232727   3.133   6.905   6.835
10610SOL     OW32728   0.271   2.167   4.173
10610SOL    HW132729   0.234   2.245   4.121
10610SOL    HW232730   0.224   2.160   4.261
10611SOL     OW32731   2.589   4.854   6.566
10611SOL    HW132732   2.665   4.917   6.573
10611SOL    HW232733   2.544   4.866   6.477
10612SOL     OW32734   5.146   2.272   4.249
10612SOL    HW132735   5.056   2.290   4.210
10612SOL    HW232736   5.214   2.265   4.176
10613SOL     OW32737   6.487   5.839   5.529
10613SOL    HW132738   6.574   5.808   5.491
10613SOL    HW232739   6.473   5.798   5.619
10614SOL     OW32740   5.403   1.262   4.681
10614SOL    HW132741   5.330   1.300   4.737
10614SOL    HW232742   5.382   1.167   4.658
10615SOL     OW32743   3.153   1.127   6.104
10615SOL    HW132744   3.211   1.086   6.033
10615SOL    HW232745   3.192   1.107   6.194
10616SOL     OW32746   3.146   6.378   0.285
10616SOL    HW132747   3.246   6.383   0.284
10616SOL    HW232748   3.111   6.382   0.192
10617SOL     OW32749   2.998   4.135   1.463
10617SOL    HW132750   3.051   4.208   1.420
10617SOL    HW232751   3.060   4.073   1.510
10618SOL     OW32752   1.731   4.879   5.590
10618SOL    HW132753   1.798   4.809   5.565
10618SOL    HW232754   1.658   4.882   5.522
10619SOL     OW32755   0.442   2.849   3.193
10619SOL    HW132756   0.449   2.837   3.094
10619SOL    HW232757   0.484   2.935   3.219
10620SOL     OW32758   1.252   0.115   5.113
10620SOL    HW132759   1.313   0.128   5.034
10620SOL    HW232760   1.245   0.202   5.163
10621SOL     OW32761   0.604   4.302   2.085
10621SOL    HW132762   0.555   4.358   2.019
10621SOL    HW232763   0.603   4.206   2.055
10622SOL     OW32764   4.467   2.395   2.138
10622SOL    HW132765   4.545   2.429   2.189
10622SOL    HW232766   4.492   2.383   2.042
10623SOL     OW32767   6.409   5.337   5.800
10623SOL    HW132768   6.373   5.396   5.872
10623SOL    HW232769   6.372   5.365   5.712
10624SOL     OW32770   0.516   2.553   5.931
10624SOL    HW132771   0.544   2.515   5.843
10624SOL    HW232772   0.445   2.495   5.972
10625SOL     OW32773   0.490   3.888   1.419
10625SOL    HW132774   0.426   3.811   1.423
10625SOL    HW232775   0.562   3.869   1.352
10626SOL     OW32776   3.509   2.936   0.810
10626SOL    HW132777   3.421   2.973   0.841
10626SOL    HW232778   3.532   2.976   0.721
10627SOL     OW32779   5.842   1.481   0.223
10627SOL    HW132780   5.868   1.393   0.182
10627SOL    HW232781   5.787   1.533   0.158
10628SOL     OW32782   4.199   6.989   1.005
10628SOL    HW132783   4.194   6.894   0.975
10628SOL    HW232784   4.132   0.021   0.953
10629SOL     OW32785   2.918   5.106   4.517
10629SOL    HW132786   2.838   5.095   4.457
10629SOL    HW232787   2.948   5.016   4.548
10630SOL     OW32788   6.274   1.637   2.243
10630SOL    HW132789   6.325   1.723   2.241
10630SOL    HW232790   6.276   1.595   2.152
10631SOL     OW32791   4.023   4.519   5.629
10631SOL    HW132792   4.050   4.430   5.665
10631SOL    HW232793   4.073   4.591   5.676
10632SOL     OW32794   5.340   6.533   3.765
10632SOL    HW132795   5.410   6.506   3.832
10632SOL    HW232796   5.384   6.584   3.690
10633SOL     OW32797   2.364   2.560   1.327
10633SOL    HW132798   2.453   2.519   1.351
10633SOL    HW232799   2.379   2.633   1.260
10634SOL     OW32800   2.246   5.082   0.587
10634SOL    HW132801   2.221   5.040   0.675
10634SOL    HW232802   2.345   5.087   0.580
10635SOL     OW32803   1.806   3.079   6.070
10635SOL    HW132804   1.859   3.104   5.990
10635SOL    HW232805   1.828   2.985   6.096
10636SOL     OW32806   0.538   2.319   1.651
10636SOL    HW132807   0.611   2.328   1.583
10636SOL    HW232808   0.541   2.227   1.690
10637SOL     OW32809   1.387   5.168   6.287
10637SOL    HW132810   1.422   5.090   6.338
10637SOL    HW232811   1.393   5.149   6.189
10638SOL     OW32812   5.234   6.423   2.749
10638SOL    HW132813   5.241   6.361   2.670
10638SOL    HW232814   5.139   6.452   2.760
10639SOL     OW32815   0.855   3.804   2.567
10639SOL    HW132816   0.922   3.734   2.541
10639SOL    HW232817   0.837   3.863   2.489
10640SOL     OW32818   4.478   0.517   3.573
10640SOL    HW132819   4.378   0.521   3.571
10640SOL    HW232820   4.513   0.589   3.634
10641SOL     OW32821   2.225   1.780   3.143
10641SOL    HW132822   2.265   1.800   3.232
10641SOL    HW232823   2.292   1.732   3.086
10642SOL     OW32824   6.349   1.348   0.973
10642SOL    HW132825   6.256   1.382   0.986
10642SOL    HW232826   6.356   1.307   0.882
10643SOL     OW32827   2.446   5.788   5.378
10643SOL    HW132828   2.346   5.790   5.368
10643SOL    HW232829   2.487   5.834   5.299
10644SOL     OW32830   5.254   3.014   0.939
10644SOL    HW132831   5.299   2.993   1.026
10644SOL    HW232832   5.155   3.010   0.951
10645SOL     OW32833   1.282   2.838   4.365
10645SOL    HW132834   1.315   2.791   4.447
10645SOL    HW232835   1.185   2.859   4.375
10646SOL     OW32836   0.287   0.656   5.773
10646SOL    HW132837   0.376   0.620   5.744
10646SOL    HW232838   0.260   0.729   5.711
10647SOL     OW32839   3.068   5.403   4.648
10647SOL    HW132840   3.107   5.386   4.557
10647SOL    HW232841   3.103   5.335   4.713
10648SOL     OW32842   5.996   4.829   6.764
10648SOL    HW132843   6.061   4.904   6.779
10648SOL    HW232844   5.949   4.842   6.677
10649SOL     OW32845   0.445   3.787   3.214
10649SOL    HW132846   0.477   3.702   3.172
10649SOL    HW232847   0.386   3.836   3.151
10650SOL     OW32848   0.631   0.794   3.829
10650SOL    HW132849   0.603   0.767   3.737
10650SOL    HW232850   0.727   0.821   3.828
10651SOL     OW32851   6.374   6.185   6.250
10651SOL    HW132852   6.372   6.154   6.345
10651SOL    HW232853   6.313   6.129   6.195
10652SOL     OW32854   2.525   6.481   6.282
10652SOL    HW132855   2.525   6.539   6.201
10652SOL    HW232856   2.586   6.519   6.351
10653SOL     OW32857   4.298   5.697   3.995
10653SOL    HW132858   4.202   5.722   3.988
10653SOL    HW232859   4.317   5.662   4.087
10654SOL     OW32860   5.236   0.184   6.604
10654SOL    HW132861   5.204   0.277   6.587
10654SOL    HW232862   5.229   0.131   6.520
10655SOL     OW32863   1.743   5.666   6.977
10655SOL    HW132864   1.812   5.629   6.914
10655SOL    HW232865   1.759   5.764   6.990
10656SOL     OW32866   6.720   1.847   2.179
10656SOL    HW132867   6.799   1.865   2.238
10656SOL    HW232868   6.728   1.755   2.140
10657SOL     OW32869   6.047   0.636   4.793
10657SOL    HW132870   5.984   0.690   4.849
10657SOL    HW232871   6.141   0.668   4.808
10658SOL     OW32872   6.778   4.619   4.711
10658SOL    HW132873   6.726   4.576   4.638
10658SOL    HW232874   6.860   4.565   4.730
10659SOL     OW32875   0.754   5.750   0.559
10659SOL    HW132876   0.837   5.745   0.505
10659SOL    HW232877   0.767   5.700   0.645
10660SOL     OW32878   5.662   3.834   6.233
10660SOL    HW132879   5.637   3.892   6.311
10660SOL    HW232880   5.582   3.785   6.201
10661SOL     OW32881   1.233   6.549   0.834
10661SOL    HW132882   1.199   6.641   0.814
10661SOL    HW232883   1.199   6.521   0.924
10662SOL     OW32884   4.696   0.507   2.319
10662SOL    HW132885   4.672   0.587   2.264
10662SOL    HW232886   4.616   0.478   2.372
10663SOL     OW32887   0.514   1.425   2.500
10663SOL    HW132888   0.473   1.334   2.508
10663SOL    HW232889   0.442   1.492   2.481
10664SOL     OW32890   6.494   4.128   5.402
10664SOL    HW132891   6.421   4.187   5.368
10664SOL    HW232892   6.511   4.149   5.499
10665SOL     OW32893   0.803   1.619   0.085
10665SOL    HW132894   0.720   1.657   0.126
10665SOL    HW232895   0.801   1.519   0.092
10666SOL     OW32896   3.173   3.922   1.558
10666SOL    HW132897   3.259   3.931   1.609
10666SOL    HW232898   3.110   3.864   1.609
10667SOL     OW32899   4.878   2.329   4.260
10667SOL    HW132900   4.875   2.239   4.303
10667SOL    HW232901   4.882   2.400   4.330
10668SOL     OW32902   2.827   1.433   4.852
10668SOL    HW132903   2.751   1.371   4.871
10668SOL    HW232904   2.826   1.508   4.918
10669SOL     OW32905   5.210   0.445   1.684
10669SOL    HW132906   5.302   0.416   1.711
10669SOL    HW232907   5.215   0.498   1.600
10670SOL     OW32908   5.655   5.285   4.956
10670SOL    HW132909   5.636   5.225   4.878
10670SOL    HW232910   5.716   5.239   5.020
10671SOL     OW32911   1.955   2.078   4.143
10671SOL    HW132912   1.868   2.070   4.192
10671SOL    HW232913   1.950   2.028   4.057
10672SOL     OW32914   6.745   3.827   1.800
10672SOL    HW132915   6.801   3.776   1.736
10672SOL    HW232916   6.784   3.918   1.814
10673SOL     OW32917   0.044   1.191   6.545
10673SOL    HW132918   0.010   1.101   6.517
10673SOL    HW232919   0.142   1.185   6.564
10674SOL     OW32920   4.017   3.508   3.145
10674SOL    HW132921   4.078   3.518   3.224
10674SOL    HW232922   4.066   3.533   3.061
10675SOL     OW32923   1.800   6.744   7.007
10675SOL    HW132924   1.726   6.678   6.993
10675SOL    HW232925   1.851   6.756   6.921
10676SOL     OW32926   6.446   6.622   5.345
10676SOL    HW132927   6.362   6.569   5.329
10676SOL    HW232928   6.491   6.639   5.257
10677SOL     OW32929   1.803   0.407   1.598
10677SOL    HW132930   1.774   0.366   1.511
10677SOL    HW232931   1.877   0.353   1.637
10678SOL     OW32932   4.775   5.863   4.163
10678SOL    HW132933   4.813   5.833   4.076
10678SOL    HW232934   4.764   5.963   4.163
10679SOL     OW32935   4.504   5.397   6.816
10679SOL    HW132936   4.516   5.435   6.724
10679SOL    HW232937   4.539   5.303   6.818
10680SOL     OW32938   3.788   2.158   4.166
10680SOL    HW132939   3.754   2.131   4.076
10680SOL    HW232940   3.735   2.235   4.200
10681SOL     OW32941   0.636   3.487   0.522
10681SOL    HW132942   0.570   3.449   0.457
10681SOL    HW232943   0.704   3.541   0.472
10682SOL     OW32944   0.480   1.512   5.382
10682SOL    HW132945   0.505   1.429   5.432
10682SOL    HW232946   0.531   1.515   5.296
10683SOL     OW32947   4.947   1.840   3.753
10683SOL    HW132948   4.927   1.778   3.677
10683SOL    HW232949   4.938   1.790   3.839
10684SOL     OW32950   5.133   5.196   3.298
10684SOL    HW132951   5.052   5.154   3.258
10684SOL    HW232952   5.137   5.174   3.395
10685SOL     OW32953   0.903   5.300   1.837
10685SOL    HW132954   0.815   5.257   1.821
10685SOL    HW232955   0.960   5.292   1.756
10686SOL     OW32956   0.780   4.558   5.488
10686SOL    HW132957   0.691   4.554   5.533
10686SOL    HW232958   0.799   4.652   5.459
10687SOL     OW32959   6.027   5.798   3.616
10687SOL    HW132960   6.102   5.735   3.594
10687SOL    HW232961   5.981   5.826   3.532
10688SOL     OW32962   6.918   3.418   2.370
10688SOL    HW132963   6.838   3.431   2.311
10688SOL    HW232964   6.988   3.485   2.345
10689SOL     OW32965   0.164   0.260   3.455
10689SOL    HW132966   0.154   0.252   3.554
10689SOL    HW232967   0.237   0.325   3.434
10690SOL     OW32968   0.246   5.949   3.814
10690SOL    HW132969   0.310   5.915   3.883
10690SOL    HW232970   0.210   6.038   3.842
10691SOL     OW32971   0.561   2.174   2.706
10691SOL    HW132972   0.514   2.251   2.663
10691SOL    HW232973   0.639   2.146   2.650
10692SOL     OW32974   3.110   6.302   3.765
10692SOL    HW132975   3.133   6.292   3.668
10692SOL    HW232976   3.066   6.391   3.780
10693SOL     OW32977   1.817   6.187   0.561
10693SOL    HW132978   1.846   6.093   0.544
10693SOL    HW232979   1.750   6.214   0.491
10694SOL     OW32980   5.428   6.837   0.786
10694SOL    HW132981   5.493   6.781   0.734
10694SOL    HW232982   5.387   6.782   0.859
10695SOL     OW32983   0.212   2.263   2.676
10695SOL    HW132984   0.134   2.202   2.665
10695SOL    HW232985   0.212   2.301   2.768
10696SOL     OW32986   6.857   4.145   3.653
10696SOL    HW132987   6.815   4.197   3.579
10696SOL    HW232988   6.921   4.204   3.703
10697SOL     OW32989   6.868   6.149   5.023
10697SOL    HW132990   6.968   6.155   5.025
10697SOL    HW232991   6.840   6.091   4.947
10698SOL     OW32992   5.333   3.942   6.412
10698SOL    HW132993   5.289   4.008   6.474
10698SOL    HW232994   5.431   3.937   6.433
10699SOL     OW32995   3.563   4.197   1.814
10699SOL    HW132996   3.629   4.271   1.803
10699SOL    HW232997   3.606   4.120   1.861
10700SOL     OW32998   6.211   0.040   0.707
10700SOL    HW132999   6.205   0.133   0.743
10700SOL    HW233000   6.297   0.031   0.655
10701SOL     OW33001   3.012   6.567   6.855
10701SOL    HW133002   2.935   6.604   6.803
10701SOL    HW233003   3.086   6.634   6.857
10702SOL     OW33004   5.677   3.178   1.637
10702SOL    HW133005   5.609   3.159   1.565
10702SOL    HW233006   5.636   3.235   1.707
10703SOL     OW33007   3.161   3.146   4.967
10703SOL    HW133008   3.161   3.093   4.882
10703SOL    HW233009   3.079   3.204   4.971
10704SOL     OW33010   6.173   5.820   1.559
10704SOL    HW133011   6.198   5.917   1.558
10704SOL    HW233012   6.127   5.796   1.473
10705SOL     OW33013   5.660   4.958   2.272
10705SOL    HW133014   5.657   4.875   2.328
10705SOL    HW233015   5.600   4.947   2.193
10706SOL     OW33016   5.481   0.342   2.582
10706SOL    HW133017   5.557   0.343   2.647
10706SOL    HW233018   5.518   0.337   2.489
10707SOL     OW33019   6.916   6.742   4.350
10707SOL    HW133020   6.925   6.819   4.286
10707SOL    HW233021   6.957   6.660   4.310
10708SOL     OW33022   4.241   0.723   1.907
10708SOL    HW133023   4.226   0.686   1.999
10708SOL    HW233024   4.298   0.805   1.913
10709SOL     OW33025   5.954   5.481   5.452
10709SOL    HW133026   6.008   5.464   5.535
10709SOL    HW233027   5.871   5.532   5.475
10710SOL     OW33028   0.295   0.152   4.067
10710SOL    HW133029   0.214   0.174   4.121
10710SOL    HW233030   0.286   0.193   3.976
10711SOL     OW33031   1.966   7.010   4.546
10711SOL    HW133032   1.938   6.930   4.493
10711SOL    HW233033   2.066   7.019   4.541
10712SOL     OW33034   3.233   1.052   1.728
10712SOL    HW133035   3.258   0.956   1.741
10712SOL    HW233036   3.232   1.099   1.817
10713SOL     OW33037   0.973   3.895   1.668
10713SOL    HW133038   1.032   3.932   1.597
10713SOL    HW233039   0.968   3.958   1.745
10714SOL     OW33040   5.824   3.907   4.737
10714SOL    HW133041   5.751   3.880   4.675
10714SOL    HW233042   5.832   3.840   4.811
10715SOL     OW33043   5.102   0.764   2.821
10715SOL    HW133044   5.103   0.708   2.739
10715SOL    HW233045   5.196   0.784   2.850
10716SOL     OW33046   5.737   2.220   4.315
10716SOL    HW133047   5.769   2.304   4.270
10716SOL    HW233048   5.786   2.209   4.402
10717SOL     OW33049   1.579   2.022   0.966
10717SOL    HW133050   1.653   1.958   0.988
10717SOL    HW233051   1.491   1.975   0.976
10718SOL     OW33052   1.327   2.930   6.305
10718SOL    HW133053   1.340   2.836   6.335
10718SOL    HW233054   1.417   2.972   6.288
10719SOL     OW33055   6.417   5.708   2.501
10719SOL    HW133056   6.326   5.666   2.497
10719SOL    HW233057   6.416   5.785   2.565
10720SOL     OW33058   0.707   4.365   4.842
10720SOL    HW133059   0.748   4.274   4.849
10720SOL    HW233060   0.768   4.426   4.791
10721SOL     OW33061   5.588   4.482   5.234
10721SOL    HW133062   5.662   4.523   5.180
10721SOL    HW233063   5.626   4.416   5.299
10722SOL     OW33064   0.996   4.764   0.317
10722SOL    HW133065   1.062   4.832   0.283
10722SOL    HW233066   1.038   4.673   0.315
10723SOL     OW33067   0.310   3.574   6.149
10723SOL    HW133068   0.284   3.615   6.061
10723SOL    HW233069   0.306   3.475   6.142
10724SOL     OW33070   5.802   0.906   6.851
10724SOL    HW133071   5.803   0.913   6.951
10724SOL    HW233072   5.801   0.810   6.824
10725SOL     OW33073   0.951   5.320   4.597
10725SOL    HW133074   0.901   5.336   4.682
10725SOL    HW233075   0.890   5.277   4.530
10726SOL     OW33076   5.101   6.845   5.895
10726SOL    HW133077   5.003   6.836   5.911
10726SOL    HW233078   5.117   6.885   5.805
10727SOL     OW33079   0.572   4.966   5.047
10727SOL    HW133080   0.641   4.984   4.976
10727SOL    HW233081   0.580   4.871   5.077
10728SOL     OW33082   0.204   5.827   0.221
10728SOL    HW133083   0.147   5.762   0.273
10728SOL    HW233084   0.157   5.916   0.217
10729SOL     OW33085   5.313   1.275   1.613
10729SOL    HW133086   5.256   1.216   1.668
10729SOL    HW233087   5.256   1.344   1.567
10730SOL     OW33088   2.024   0.258   1.725
10730SOL    HW133089   2.006   0.273   1.822
10730SOL    HW233090   2.086   0.180   1.714
10731SOL     OW33091   3.028   5.984   0.746
10731SOL    HW133092   3.071   5.984   0.837
10731SOL    HW233093   2.945   5.928   0.749
10732SOL     OW33094   5.760   5.129   3.783
10732SOL    HW133095   5.779   5.073   3.702
10732SOL    HW233096   5.769   5.226   3.760
10733SOL     OW33097   6.379   1.992   1.034
10733SOL    HW133098   6.314   2.051   0.986
10733SOL    HW233099   6.332   1.911   1.070
10734SOL     OW33100   0.795   0.484   6.871
10734SOL    HW133101   0.743   0.569   6.884
10734SOL    HW233102   0.751   0.411   6.923
10735SOL     OW33103   1.765   3.555   3.336
10735SOL    HW133104   1.767   3.490   3.260
10735SOL    HW233105   1.775   3.505   3.422
10736SOL     OW33106   1.561   0.527   3.145
10736SOL    HW133107   1.536   0.439   3.107
10736SOL    HW233108   1.490   0.594   3.125
10737SOL     OW33109   2.186   1.590   0.298
10737SOL    HW133110   2.186   1.676   0.349
10737SOL    HW233111   2.143   1.519   0.354
10738SOL     OW33112   3.086   0.281   3.787
10738SOL    HW133113   3.164   0.281   3.725
10738SOL    HW233114   3.115   0.249   3.877
10739SOL     OW33115   0.523   1.389   1.244
10739SOL    HW133116   0.449   1.344   1.295
10739SOL    HW233117   0.580   1.319   1.201
10740SOL     OW33118   0.212   4.653   5.284
10740SOL    HW133119   0.285   4.711   5.319
10740SOL    HW233120   0.248   4.594   5.211
10741SOL     OW33121   6.675   0.073   1.580
10741SOL    HW133122   6.698   7.019   1.519
10741SOL    HW233123   6.601   0.045   1.641
10742SOL     OW33124   5.957   0.696   1.371
10742SOL    HW133125   6.044   0.647   1.379
10742SOL    HW233126   5.891   0.658   1.436
10743SOL     OW33127   2.805   1.684   5.009
10743SOL    HW133128   2.724   1.704   5.064
10743SOL    HW233129   2.886   1.721   5.055
10744SOL     OW33130   3.483   1.119   1.279
10744SOL    HW133131   3.567   1.152   1.321
10744SOL    HW233132   3.495   1.116   1.179
10745SOL     OW33133   0.057   5.114   0.012
10745SOL    HW133134   0.052   5.185   0.082
10745SOL    HW233135   0.030   5.026   0.052
10746SOL     OW33136   2.195   4.312   1.279
10746SOL    HW133137   2.186   4.345   1.373
10746SOL    HW233138   2.192   4.212   1.279
10747SOL     OW33139   4.195   0.827   3.547
10747SOL    HW133140   4.289   0.811   3.518
10747SOL    HW233141   4.149   0.739   3.561
10748SOL     OW33142   3.771   0.943   1.427
10748SOL    HW133143   3.694   0.934   1.490
10748SOL    HW233144   3.852   0.903   1.468
10749SOL     OW33145   0.146   5.756   3.624
10749SOL    HW133146   0.205   5.676   3.627
10749SOL    HW233147   0.169   5.817   3.699
10750SOL     OW33148   4.441   6.289   4.893
10750SOL    HW133149   4.432   6.230   4.973
10750SOL    HW233150   4.536   6.316   4.881
10751SOL     OW33151   1.564   4.803   4.221
10751SOL    HW133152   1.580   4.755   4.135
10751SOL    HW233153   1.633   4.875   4.232
10752SOL     OW33154   5.859   4.249   6.036
10752SOL    HW133155   5.809   4.252   5.950
10752SOL    HW233156   5.915   4.166   6.040
10753SOL     OW33157   4.239   6.814   4.339
10753SOL    HW133158   4.161   6.803   4.277
10753SOL    HW233159   4.219   6.766   4.425
10754SOL     OW33160   1.137   1.321   3.374
10754SOL    HW133161   1.107   1.265   3.297
10754SOL    HW233162   1.101   1.414   3.363
10755SOL     OW33163   0.072   0.938   6.426
10755SOL    HW133164   0.002   0.896   6.368
10755SOL    HW233165   0.098   0.873   6.498
10756SOL     OW33166   6.986   4.260   0.353
10756SOL    HW133167   0.026   4.240   0.278
10756SOL    HW233168   6.892   4.238   0.326
10757SOL     OW33169   1.100   2.734   0.239
10757SOL    HW133170   1.193   2.698   0.233
10757SOL    HW233171   1.096   2.824   0.198
10758SOL     OW33172   0.772   6.782   4.162
10758SOL    HW133173   0.741   6.846   4.233
10758SOL    HW233174   0.850   6.730   4.197
10759SOL     OW33175   1.741   2.885   1.022
10759SOL    HW133176   1.677   2.887   0.946
10759SOL    HW233177   1.832   2.911   0.991
10760SOL     OW33178   6.660   1.185   1.409
10760SOL    HW133179   6.596   1.108   1.411
10760SOL    HW233180   6.654   1.236   1.495
10761SOL     OW33181   0.941   1.022   5.956
10761SOL    HW133182   1.019   1.083   5.974
10761SOL    HW233183   0.860   1.057   6.003
10762SOL     OW33184   4.150   1.871   4.689
10762SOL    HW133185   4.210   1.951   4.696
10762SOL    HW233186   4.055   1.899   4.697
10763SOL     OW33187   4.640   6.292   2.266
10763SOL    HW133188   4.636   6.192   2.270
10763SOL    HW233189   4.708   6.320   2.199
10764SOL     OW33190   5.616   2.363   5.824
10764SOL    HW133191   5.652   2.379   5.732
10764SOL    HW233192   5.527   2.408   5.834
10765SOL     OW33193   5.322   2.244   0.377
10765SOL    HW133194   5.232   2.266   0.340
10765SOL    HW233195   5.392   2.298   0.331
10766SOL     OW33196   5.083   3.393   1.204
10766SOL    HW133197   5.046   3.358   1.118
10766SOL    HW233198   5.059   3.490   1.214
10767SOL     OW33199   1.086   0.760   0.051
10767SOL    HW133200   1.092   0.758   0.150
10767SOL    HW233201   1.095   0.854   0.018
10768SOL     OW33202   4.758   4.197   1.143
10768SOL    HW133203   4.719   4.137   1.213
10768SOL    HW233204   4.759   4.291   1.176
10769SOL     OW33205   2.615   4.650   4.754
10769SOL    HW133206   2.583   4.609   4.840
10769SOL    HW233207   2.713   4.665   4.759
10770SOL     OW33208   5.695   0.552   5.003
10770SOL    HW133209   5.712   0.544   5.101
10770SOL    HW233210   5.600   0.525   4.984
10771SOL     OW33211   5.436   1.373   3.128
10771SOL    HW133212   5.504   1.385   3.200
10771SOL    HW233213   5.350   1.417   3.156
10772SOL     OW33214   6.887   7.009   4.790
10772SOL    HW133215   6.789   7.016   4.774
10772SOL    HW233216   6.929   6.952   4.720
10773SOL     OW33217   0.077   5.545   7.005
10773SOL    HW133218   0.051   5.490   0.062
10773SOL    HW233219   7.018   5.569   6.953
10774SOL     OW33220   1.489   1.310   6.243
10774SOL    HW133221   1.404   1.351   6.209
10774SOL    HW233222   1.467   1.247   6.317
10775SOL     OW33223   0.202   4.154   1.395
10775SOL    HW133224   0.302   4.156   1.395
10775SOL    HW233225   0.170   4.091   1.324
10776SOL     OW33226   0.864   6.806   6.890
10776SOL    HW133227   0.767   6.787   6.903
10776SOL    HW233228   0.909   6.812   6.979
10777SOL     OW33229   3.668   6.176   2.960
10777SOL    HW133230   3.640   6.272   2.959
10777SOL    HW233231   3.610   6.124   2.897
10778SOL     OW33232   5.900   6.890   4.559
10778SOL    HW133233   5.849   6.866   4.476
10778SOL    HW233234   5.879   6.985   4.584
10779SOL     OW33235   6.576   4.773   3.503
10779SOL    HW133236   6.646   4.782   3.574
10779SOL    HW233237   6.606   4.819   3.420
10780SOL     OW33238   2.152   0.845   3.629
10780SOL    HW133239   2.169   0.802   3.718
10780SOL    HW233240   2.090   0.788   3.575
10781SOL     OW33241   4.263   0.457   3.359
10781SOL    HW133242   4.340   0.518   3.339
10781SOL    HW233243   4.293   0.385   3.422
10782SOL     OW33244   5.662   1.654   2.473
10782SOL    HW133245   5.646   1.723   2.402
10782SOL    HW233246   5.716   1.693   2.547
10783SOL     OW33247   0.770   3.642   3.469
10783SOL    HW133248   0.718   3.718   3.431
10783SOL    HW233249   0.729   3.555   3.440
10784SOL     OW33250   3.642   0.409   4.169
10784SOL    HW133251   3.703   0.353   4.226
10784SOL    HW233252   3.652   0.505   4.194
10785SOL     OW33253   0.211   4.754   1.932
10785SOL    HW133254   0.214   4.658   1.905
10785SOL    HW233255   0.281   4.771   2.002
10786SOL     OW33256   5.347   4.875   3.228
10786SOL    HW133257   5.260   4.881   3.278
10786SOL    HW233258   5.367   4.963   3.186
10787SOL     OW33259   1.961   1.308   4.651
10787SOL    HW133260   2.031   1.306   4.723
10787SOL    HW233261   1.900   1.386   4.666
10788SOL     OW33262   1.929   4.824   6.158
10788SOL    HW133263   1.976   4.892   6.216
10788SOL    HW233264   1.833   4.817   6.186
10789SOL     OW33265   0.190   2.851   6.231
10789SOL    HW133266   0.128   2.817   6.161
10789SOL    HW233267   0.232   2.774   6.279
10790SOL     OW33268   1.411   1.097   1.967
10790SOL    HW133269   1.472   1.146   2.029
10790SOL    HW233270   1.404   1.001   1.997
10791SOL     OW33271   0.857   7.001   0.998
10791SOL    HW133272   0.791   0.034   1.048
10791SOL    HW233273   0.944   0.028   0.990
10792SOL     OW33274   3.396   3.689   3.645
10792SOL    HW133275   3.397   3.698   3.745
10792SOL    HW233276   3.489   3.672   3.613
10793SOL     OW33277   5.989   3.471   4.358
10793SOL    HW133278   5.940   3.390   4.325
10793SOL    HW233279   5.929   3.550   4.353
10794SOL     OW33280   3.141   3.922   3.470
10794SOL    HW133281   3.115   4.003   3.523
10794SOL    HW233282   3.146   3.945   3.373
10795SOL     OW33283   6.336   4.430   2.642
10795SOL    HW133284   6.308   4.504   2.581
10795SOL    HW233285   6.310   4.452   2.735
10796SOL     OW33286   5.650   6.485   0.454
10796SOL    HW133287   5.680   6.580   0.445
10796SOL    HW233288   5.703   6.439   0.525
10797SOL     OW33289   4.470   2.689   1.487
10797SOL    HW133290   4.479   2.641   1.400
10797SOL    HW233291   4.402   2.642   1.544
10798SOL     OW33292   2.754   6.130   0.517
10798SOL    HW133293   2.756   6.030   0.524
10798SOL    HW233294   2.838   6.162   0.473
10799SOL     OW33295   3.794   0.704   2.001
10799SOL    HW133296   3.824   0.673   2.092
10799SOL    HW233297   3.815   0.801   1.991
10800SOL     OW33298   0.706   6.885   6.276
10800SOL    HW133299   0.742   6.823   6.207
10800SOL    HW233300   0.756   6.872   6.362
10801SOL     OW33301   0.553   5.777   5.881
10801SOL    HW133302   0.499   5.697   5.907
10801SOL    HW233303   0.538   5.850   5.948
10802SOL     OW33304   0.450   1.963   3.349
10802SOL    HW133305   0.425   1.923   3.436
10802SOL    HW233306   0.547   1.946   3.330
10803SOL     OW33307   3.351   4.172   5.952
10803SOL    HW133308   3.359   4.139   5.858
10803SOL    HW233309   3.254   4.183   5.976
10804SOL     OW33310   5.769   3.558   2.060
10804SOL    HW133311   5.693   3.507   2.099
10804SOL    HW233312   5.803   3.510   1.980
10805SOL     OW33313   4.376   0.120   0.087
10805SOL    HW133314   4.403   0.076   0.001
10805SOL    HW233315   4.429   0.203   0.100
10806SOL     OW33316   4.676   3.779   6.274
10806SOL    HW133317   4.740   3.713   6.313
10806SOL    HW233318   4.623   3.822   6.348
10807SOL     OW33319   1.319   0.269   2.152
10807SOL    HW133320   1.313   0.259   2.052
10807SOL    HW233321   1.323   0.179   2.194
10808SOL     OW33322   0.127   3.172   5.928
10808SOL    HW133323   0.079   3.226   5.858
10808SOL    HW233324   0.196   3.114   5.884
10809SOL     OW33325   2.979   5.129   3.418
10809SOL    HW133326   3.038   5.170   3.488
10809SOL    HW233327   3.020   5.144   3.328
10810SOL     OW33328   1.794   0.428   3.955
10810SOL    HW133329   1.766   0.400   3.862
10810SOL    HW233330   1.817   0.525   3.954
10811SOL     OW33331   4.133   4.465   6.672
10811SOL    HW133332   4.155   4.440   6.578
10811SOL    HW233333   4.097   4.559   6.674
10812SOL     OW33334   0.653   3.874   0.941
10812SOL    HW133335   0.642   3.825   1.028
10812SOL    HW233336   0.720   3.947   0.952
10813SOL     OW33337   2.206   4.290   6.767
10813SOL    HW133338   2.245   4.382   6.766
10813SOL    HW233339   2.277   4.224   6.788
10814SOL     OW33340   1.325   6.440   6.617
10814SOL    HW133341   1.334   6.380   6.537
10814SOL    HW233342   1.320   6.535   6.588
10815SOL     OW33343   4.427   4.560   3.234
10815SOL    HW133344   4.374   4.560   3.149
10815SOL    HW233345   4.483   4.477   3.238
10816SOL     OW33346   2.885   3.253   2.111
10816SOL    HW133347   2.912   3.348   2.098
10816SOL    HW233348   2.785   3.247   2.107
10817SOL     OW33349   4.278   0.271   3.573
10817SOL    HW133350   4.295   0.329   3.653
10817SOL    HW233351   4.322   0.182   3.587
10818SOL     OW33352   4.671   4.538   5.393
10818SOL    HW133353   4.700   4.624   5.437
10818SOL    HW233354   4.687   4.462   5.455
10819SOL     OW33355   6.604   4.598   6.635
10819SOL    HW133356   6.624   4.502   6.653
10819SOL    HW233357   6.544   4.606   6.555
10820SOL     OW33358   6.404   5.997   3.839
10820SOL    HW133359   6.343   5.947   3.901
10820SOL    HW233360   6.495   6.003   3.878
10821SOL     OW33361   5.894   6.969   1.888
10821SOL    HW133362   5.863   6.957   1.794
10821SOL    HW233363   5.989   6.939   1.896
10822SOL     OW33364   6.840   3.352   3.026
10822SOL    HW133365   6.776   3.349   2.950
10822SOL    HW233366   6.933   3.337   2.993
10823SOL     OW33367   1.640   6.173   1.349
10823SOL    HW133368   1.662   6.075   1.347
10823SOL    HW233369   1.643   6.210   1.256
10824SOL     OW33370   6.805   1.540   3.464
10824SOL    HW133371   6.740   1.612   3.486
10824SOL    HW233372   6.845   1.556   3.374
10825SOL     OW33373   2.384   1.292   6.243
10825SOL    HW133374   2.458   1.229   6.219
10825SOL    HW233375   2.326   1.307   6.163
10826SOL     OW33376   1.231   3.067   4.064
10826SOL    HW133377   1.172   3.051   4.143
10826SOL    HW233378   1.310   3.121   4.092
10827SOL     OW33379   6.438   3.379   4.369
10827SOL    HW133380   6.502   3.429   4.427
10827SOL    HW233381   6.345   3.395   4.401
10828SOL     OW33382   0.654   4.642   0.815
10828SOL    HW133383   0.722   4.590   0.763
10828SOL    HW233384   0.564   4.601   0.802
10829SOL     OW33385   4.280   2.312   0.595
10829SOL    HW133386   4.228   2.344   0.516
10829SOL    HW233387   4.324   2.225   0.574
10830SOL     OW33388   5.359   1.708   2.728
10830SOL    HW133389   5.399   1.695   2.818
10830SOL    HW233390   5.396   1.792   2.686
10831SOL     OW33391   2.672   6.008   2.609
10831SOL    HW133392   2.579   5.977   2.587
10831SOL    HW233393   2.691   6.094   2.562
10832SOL     OW33394   0.716   2.671   6.148
10832SOL    HW133395   0.698   2.607   6.073
10832SOL    HW233396   0.719   2.621   6.234
10833SOL     OW33397   0.980   0.798   2.436
10833SOL    HW133398   0.958   0.883   2.483
10833SOL    HW233399   1.025   0.735   2.500
10834SOL     OW33400   0.566   1.744   0.209
10834SOL    HW133401   0.483   1.714   0.257
10834SOL    HW233402   0.593   1.834   0.241
10835SOL     OW33403   5.812   2.370   0.276
10835SOL    HW133404   5.860   2.407   0.356
10835SOL    HW233405   5.838   2.421   0.195
10836SOL     OW33406   6.499   1.226   4.919
10836SOL    HW133407   6.567   1.296   4.940
10836SOL    HW233408   6.448   1.202   5.002
10837SOL     OW33409   0.135   5.282   1.494
10837SOL    HW133410   0.177   5.323   1.413
10837SOL    HW233411   0.093   5.194   1.469
10838SOL     OW33412   5.871   5.704   4.631
10838SOL    HW133413   5.919   5.779   4.676
10838SOL    HW233414   5.930   5.623   4.627
10839SOL     OW33415   4.365   3.093   1.738
10839SOL    HW133416   4.369   3.075   1.640
10839SOL    HW233417   4.454   3.127   1.770
10840SOL     OW33418   2.408   5.566   2.557
10840SOL    HW133419   2.361   5.649   2.589
10840SOL    HW233420   2.507   5.577   2.569
10841SOL     OW33421   5.606   5.117   6.061
10841SOL    HW133422   5.602   5.199   6.118
10841SOL    HW233423   5.659   5.047   6.107
10842SOL     OW33424   4.918   2.566   1.940
10842SOL    HW133425   4.863   2.620   2.002
10842SOL    HW233426   4.918   2.608   1.849
10843SOL     OW33427   1.220   1.949   1.256
10843SOL    HW133428   1.263   1.914   1.339
10843SOL    HW233429   1.121   1.950   1.268
10844SOL     OW33430   6.910   7.011   3.311
10844SOL    HW133431   6.819   7.012   3.268
10844SOL    HW233432   6.903   0.021   3.405
10845SOL     OW33433   3.121   0.234   5.673
10845SOL    HW133434   3.059   0.310   5.655
10845SOL    HW233435   3.214   0.269   5.685
10846SOL     OW33436   4.901   1.478   0.028
10846SOL    HW133437   4.853   1.438   6.972
10846SOL    HW233438   4.933   1.405   0.088
10847SOL     OW33439   3.640   3.277   6.678
10847SOL    HW133440   3.638   3.221   6.761
10847SOL    HW233441   3.709   3.349   6.689
10848SOL     OW33442   2.962   3.802   6.867
10848SOL    HW133443   2.994   3.818   6.773
10848SOL    HW233444   2.865   3.826   6.873
10849SOL     OW33445   1.934   5.687   3.640
10849SOL    HW133446   1.984   5.772   3.655
10849SOL    HW233447   2.000   5.611   3.631
10850SOL     OW33448   2.552   5.478   6.890
10850SOL    HW133449   2.646   5.483   6.856
10850SOL    HW233450   2.491   5.526   6.828
10851SOL     OW33451   1.809   3.483   6.455
10851SOL    HW133452   1.881   3.413   6.460
10851SOL    HW233453   1.750   3.464   6.376
10852SOL     OW33454   1.544   0.540   6.933
10852SOL    HW133455   1.621   0.581   6.983
10852SOL    HW233456   1.469   0.523   6.997
10853SOL     OW33457   1.643   2.297   5.308
10853SOL    HW133458   1.669   2.266   5.400
10853SOL    HW233459   1.555   2.257   5.283
10854SOL     OW33460   4.311   5.002   5.274
10854SOL    HW133461   4.267   5.062   5.207
10854SOL    HW233462   4.408   4.993   5.253
10855SOL     OW33463   3.307   6.971   0.459
10855SOL    HW133464   3.229   6.976   0.522
10855SOL    HW233465   3.344   6.878   0.458
10856SOL     OW33466   5.365   1.205   0.376
10856SOL    HW133467   5.356   1.286   0.434
10856SOL    HW233468   5.367   1.232   0.280
10857SOL     OW33469   6.602   2.775   2.707
10857SOL    HW133470   6.589   2.746   2.801
10857SOL    HW233471   6.522   2.748   2.652
10858SOL     OW33472   0.915   1.669   6.215
10858SOL    HW133473   0.988   1.632   6.157
10858SOL    HW233474   0.846   1.712   6.157
10859SOL     OW33475   1.465   4.264   4.330
10859SOL    HW133476   1.426   4.195   4.391
10859SOL    HW233477   1.392   4.316   4.286
10860SOL     OW33478   6.640   1.702   5.473
10860SOL    HW133479   6.581   1.691   5.392
10860SOL    HW233480   6.589   1.749   5.545
10861SOL     OW33481   3.528   3.323   3.001
10861SOL    HW133482   3.446   3.271   2.976
10861SOL    HW233483   3.605   3.292   2.946
10862SOL     OW33484   2.462   1.731   6.728
10862SOL    HW133485   2.397   1.805   6.708
10862SOL    HW233486   2.419   1.643   6.707
10863SOL     OW33487   3.516   0.721   3.649
10863SOL    HW133488   3.500   0.649   3.717
10863SOL    HW233489   3.431   0.742   3.602
10864SOL     OW33490   2.519   5.392   0.932
10864SOL    HW133491   2.540   5.294   0.922
10864SOL    HW233492   2.555   5.442   0.853
10865SOL     OW33493   6.996   1.101   2.040
10865SOL    HW133494   6.957   1.018   2.000
10865SOL    HW233495   0.026   1.150   1.970
10866SOL     OW33496   5.347   4.489   0.850
10866SOL    HW133497   5.286   4.527   0.781
10866SOL    HW233498   5.427   4.449   0.805
10867SOL     OW33499   3.378   3.725   0.430
10867SOL    HW133500   3.294   3.769   0.398
10867SOL    HW233501   3.355   3.654   0.496
10868SOL     OW33502   3.972   2.192   3.771
10868SOL    HW133503   3.893   2.192   3.710
10868SOL    HW233504   4.053   2.161   3.721
10869NA      NA33505   0.059   2.076   5.301
10870NA      NA33506   4.462   4.476   5.230
10871NA      NA33507   2.066   3.878   2.188
10872NA      NA33508   5.011   3.915   4.592
10873NA      NA33509   4.315   2.348   5.222
10874NA      NA33510   3.232   4.726   1.649
10875NA      NA33511   0.075   4.288   0.538
10876NA      NA33512   3.232   3.716   3.483
10877NA      NA33513   5.371   5.614   0.606
10878NA      NA33514   3.014   6.810   5.659
10879NA      NA33515   5.888   5.400   1.671
10880NA      NA33516   1.988   0.627   4.456
10881NA      NA33517   3.737   4.996   2.356
10882NA      NA33518   3.984   3.622   2.004
   7.02232   7.02232   7.02232
